Title t= 472.00000 step= 236000
44434
    1GLY      N    1   4.221   3.424   5.683
    1GLY    HT1    2   4.192   3.339   5.735
    1GLY    HT2    3   4.147   3.458   5.619
    1GLY    HT3    4   4.232   3.502   5.751
    1GLY     CA    5   4.353   3.411   5.613
    1GLY    HA1    6   4.346   3.351   5.523
    1GLY    HA2    7   4.420   3.376   5.690
    1GLY      C    8   4.397   3.549   5.573
    1GLY      O    9   4.310   3.638   5.583
    2PRO      N   10   4.522   3.577   5.536
    2PRO     CD   11   4.638   3.491   5.549
    2PRO    HD1   12   4.625   3.399   5.488
    2PRO    HD2   13   4.659   3.478   5.657
    2PRO     CA   14   4.564   3.717   5.518
    2PRO     HA   15   4.537   3.756   5.615
    2PRO     CB   16   4.711   3.706   5.515
    2PRO    HB1   17   4.748   3.732   5.616
    2PRO    HB2   18   4.762   3.780   5.449
    2PRO     CG   19   4.752   3.564   5.486
    2PRO    HG1   20   4.739   3.552   5.377
    2PRO    HG2   21   4.856   3.536   5.513
    2PRO      C   22   4.495   3.793   5.414
    2PRO      O   23   4.437   3.736   5.322
    3GLY      N   24   4.500   3.930   5.422
    3GLY     HN   25   4.551   3.974   5.496
    3GLY     CA   26   4.433   4.021   5.328
    3GLY    HA1   27   4.476   4.118   5.348
    3GLY    HA2   28   4.327   4.018   5.350
    3GLY      C   29   4.452   3.994   5.177
    3GLY      O   30   4.554   3.937   5.136
    4ASP      N   31   4.353   4.029   5.080
    4ASP     HN   32   4.273   4.073   5.119
    4ASP     CA   33   4.366   4.029   4.935
    4ASP     HA   34   4.410   3.935   4.905
    4ASP     CB   35   4.231   4.052   4.859
    4ASP    HB1   36   4.248   4.080   4.753
    4ASP    HB2   37   4.180   4.136   4.911
    4ASP     CG   38   4.143   3.935   4.863
    4ASP    OD1   39   4.172   3.836   4.928
    4ASP    OD2   40   4.033   3.931   4.798
    4ASP      C   41   4.475   4.122   4.888
    4ASP      O   42   4.505   4.222   4.951
    5PRO      N   43   4.551   4.099   4.777
    5PRO     CD   44   4.512   4.007   4.673
    5PRO    HD1   45   4.403   4.018   4.657
    5PRO    HD2   46   4.544   3.904   4.702
    5PRO     CA   47   4.664   4.185   4.738
    5PRO     HA   48   4.742   4.197   4.812
    5PRO     CB   49   4.716   4.109   4.615
    5PRO    HB1   50   4.787   4.025   4.632
    5PRO    HB2   51   4.768   4.178   4.546
    5PRO     CG   52   4.592   4.042   4.550
    5PRO    HG1   53   4.538   4.120   4.491
    5PRO    HG2   54   4.627   3.959   4.485
    5PRO      C   55   4.614   4.321   4.702
    5PRO      O   56   4.493   4.352   4.687
    6GLY      N   57   4.708   4.417   4.690
    6GLY     HN   58   4.801   4.387   4.708
    6GLY     CA   59   4.689   4.556   4.674
    6GLY    HA1   60   4.773   4.600   4.726
    6GLY    HA2   61   4.591   4.583   4.712
    6GLY      C   62   4.698   4.603   4.521
    6GLY      O   63   4.732   4.522   4.434
    7SER      N   64   4.664   4.727   4.487
    7SER     HN   65   4.633   4.787   4.560
    7SER     CA   66   4.647   4.776   4.350
    7SER     HA   67   4.584   4.706   4.297
    7SER     CB   68   4.567   4.912   4.352
    7SER    HB1   69   4.559   4.939   4.245
    7SER    HB2   70   4.629   4.984   4.409
    7SER     OG   71   4.440   4.907   4.419
    7SER    HG1   72   4.460   4.912   4.513
    7SER      C   73   4.776   4.792   4.280
    7SER      O   74   4.870   4.851   4.338
    8GLY      N   75   4.784   4.756   4.151
    8GLY     HN   76   4.703   4.715   4.110
    8GLY     CA   77   4.893   4.771   4.070
    8GLY    HA1   78   4.894   4.696   3.993
    8GLY    HA2   79   4.985   4.770   4.126
    8GLY      C   80   4.894   4.905   3.995
    8GLY      O   81   4.835   5.008   4.036
    9ASN      N   82   4.967   4.912   3.876
    9ASN     HN   83   5.029   4.841   3.844
    9ASN     CA   84   4.981   5.035   3.799
    9ASN     HA   85   4.887   5.087   3.792
    9ASN     CB   86   5.078   5.124   3.889
    9ASN    HB1   87   5.164   5.065   3.926
    9ASN    HB2   88   5.022   5.151   3.981
    9ASN     CG   89   5.134   5.254   3.829
    9ASN    OD1   90   5.064   5.352   3.800
    9ASN    ND2   91   5.267   5.262   3.803
    9ASN   HD21   92   5.305   5.351   3.777
    9ASN   HD22   93   5.326   5.183   3.821
    9ASN      C   94   5.029   5.003   3.659
    9ASN      O   95   5.094   4.899   3.647
   10PRO      N   96   5.006   5.070   3.545
   10PRO     CD   97   4.904   5.170   3.535
   10PRO    HD1   98   4.928   5.251   3.607
   10PRO    HD2   99   4.805   5.132   3.566
   10PRO     CA  100   5.077   5.051   3.415
   10PRO     HA  101   5.039   4.959   3.372
   10PRO     CB  102   5.025   5.169   3.331
   10PRO    HB1  103   5.022   5.155   3.221
   10PRO    HB2  104   5.089   5.258   3.353
   10PRO     CG  105   4.888   5.204   3.393
   10PRO    HG1  106   4.868   5.313   3.387
   10PRO    HG2  107   4.809   5.145   3.341
   10PRO      C  108   5.231   5.035   3.413
   10PRO      O  109   5.292   5.117   3.482
   11GLY      N  110   5.294   4.942   3.341
   11GLY     HN  111   5.247   4.872   3.289
   11GLY     CA  112   5.433   4.917   3.348
   11GLY    HA1  113   5.446   4.811   3.365
   11GLY    HA2  114   5.482   4.970   3.428
   11GLY      C  115   5.513   4.952   3.225
   11GLY      O  116   5.453   4.968   3.118
   12SER      N  117   5.645   4.963   3.232
   12SER     HN  118   5.689   4.954   3.322
   12SER     CA  119   5.722   4.984   3.114
   12SER     HA  120   5.662   5.041   3.044
   12SER     CB  121   5.858   5.060   3.147
   12SER    HB1  122   5.911   5.077   3.051
   12SER    HB2  123   5.931   5.004   3.209
   12SER     OG  124   5.830   5.186   3.210
   12SER    HG1  125   5.792   5.159   3.294
   12SER      C  126   5.755   4.842   3.058
   12SER      O  127   5.800   4.753   3.131
   13GLY      N  128   5.728   4.817   2.924
   13GLY     HN  129   5.703   4.892   2.864
   13GLY     CA  130   5.756   4.695   2.850
   13GLY    HA1  131   5.689   4.692   2.765
   13GLY    HA2  132   5.745   4.605   2.908
   13GLY      C  133   5.899   4.693   2.798
   13GLY      O  134   5.985   4.764   2.849
   14ASP      N  135   5.925   4.619   2.690
   14ASP     HN  136   5.862   4.550   2.658
   14ASP     CA  137   6.049   4.600   2.616
   14ASP     HA  138   6.112   4.559   2.693
   14ASP     CB  139   6.042   4.496   2.492
   14ASP    HB1  140   6.143   4.467   2.455
   14ASP    HB2  141   6.001   4.554   2.407
   14ASP     CG  142   5.973   4.368   2.526
   14ASP    OD1  143   5.912   4.309   2.431
   14ASP    OD2  144   5.978   4.320   2.643
   14ASP      C  145   6.134   4.721   2.574
   14ASP      O  146   6.085   4.820   2.522
   15PRO      N  147   6.259   4.713   2.588
   15PRO     CD  148   6.345   4.608   2.649
   15PRO    HD1  149   6.304   4.512   2.610
   15PRO    HD2  150   6.323   4.609   2.758
   15PRO     CA  151   6.339   4.814   2.523
   15PRO     HA  152   6.286   4.906   2.539
   15PRO     CB  153   6.478   4.811   2.590
   15PRO    HB1  154   6.471   4.872   2.683
   15PRO    HB2  155   6.562   4.844   2.525
   15PRO     CG  156   6.488   4.662   2.619
   15PRO    HG1  157   6.531   4.611   2.530
   15PRO    HG2  158   6.561   4.636   2.698
   15PRO      C  159   6.347   4.784   2.377
   15PRO    OT1  160   6.390   4.672   2.335
   15PRO    OT2  161   6.309   4.869   2.293
   16LIT    LIT  162   4.024   3.749   4.877
   17LIT    LIT  163   5.238   3.352   2.853
   18LIT    LIT  164   5.655   2.958   0.629
   19LIT    LIT  165   2.487   4.489   5.030
   20LIT    LIT  166   5.621   4.316   3.806
   21LIT    LIT  167   2.372   7.442   1.242
   22LIT    LIT  168   4.134   6.068   0.375
   23LIT    LIT  169   5.998   0.792   2.547
   24LIT    LIT  170   7.153   5.259   4.443
   25LIT    LIT  171   7.633   0.204   4.218
   26LIT    LIT  172   2.303   3.543   3.630
   27LIT    LIT  173   8.084   6.518   3.962
   28LIT    LIT  174   6.493   2.827   2.022
   29LIT    LIT  175   7.435   1.354   2.133
   30LIT    LIT  176   7.758   0.081   5.068
   31LIT    LIT  177   7.441   7.564   0.934
   32LIT    LIT  178   2.383   3.461   4.940
   33LIT    LIT  179   2.362   7.500   1.965
   34LIT    LIT  180   0.369   6.214   1.787
   35LIT    LIT  181   2.118   1.512   6.510
   36LIT    LIT  182   5.968   5.102   1.341
   37LIT    LIT  183   0.770   4.793   3.861
   38LIT    LIT  184   3.121   0.387   0.849
   39LIT    LIT  185   2.141   0.833   5.442
   40LIT    LIT  186   6.517   5.759   3.903
   41LIT    LIT  187   6.307   4.740   2.156
   42LIT    LIT  188   2.980   2.560   6.395
   43LIT    LIT  189   0.382   1.319   1.338
   44LIT    LIT  190   5.721   6.871   2.356
   45LIT    LIT  191   8.289   2.019   2.050
   46LIT    LIT  192   6.744   7.373   6.309
   47LIT    LIT  193   2.967   1.687   0.451
   48LIT    LIT  194   7.295   5.283   5.322
   49LIT    LIT  195   6.008   4.240   2.800
   50LIT    LIT  196   5.258   2.050   2.996
   51LIT    LIT  197   7.489   4.004   6.707
   52LIT    LIT  198   8.058   2.608   5.277
   53LIT    LIT  199   2.811   5.116   3.990
   54LIT    LIT  200   0.042   7.064   3.168
   55LIT    LIT  201   1.249   1.285   5.194
   56LIT    LIT  202   0.008   7.695   2.797
   57LIT    LIT  203   6.353   1.131   1.683
   58LIT    LIT  204   6.851   4.759   0.293
   59LIT    LIT  205   5.305   4.927   1.791
   60CLA    CLA  206   2.257   1.374   4.673
   61CLA    CLA  207   6.674   4.659   5.309
   62CLA    CLA  208   5.955   4.624   1.902
   63CLA    CLA  209   2.433   3.769   2.432
   64CLA    CLA  210   0.502   0.033   6.014
   65CLA    CLA  211   2.811   7.538   1.803
   66CLA    CLA  212   5.183   1.461   5.698
   67CLA    CLA  213   2.196   6.561   2.411
   68CLA    CLA  214   7.917   0.796   2.712
   69CLA    CLA  215   7.565   2.347   3.710
   70CLA    CLA  216   5.074   5.850   0.307
   71CLA    CLA  217   4.398   5.783   0.049
   72CLA    CLA  218   5.291   3.272   3.503
   73CLA    CLA  219   3.518   3.877   5.543
   74CLA    CLA  220   4.245   5.103   2.031
   75CLA    CLA  221   2.712   7.537   4.842
   76CLA    CLA  222   1.323   4.789   4.821
   77CLA    CLA  223   4.649   2.536   5.668
   78CLA    CLA  224   2.662   6.699   6.094
   79CLA    CLA  225   7.308   7.268   2.327
   80CLA    CLA  226   5.910   2.238   0.211
   81CLA    CLA  227   6.580   1.209   1.712
   82CLA    CLA  228   0.515   0.533   5.957
   83CLA    CLA  229   0.995   3.738   3.961
   84CLA    CLA  230   6.658   1.194   4.809
   85CLA    CLA  231   7.852   4.210   6.476
   86CLA    CLA  232   6.327   3.920   2.370
   87CLA    CLA  233   7.587   5.588   2.909
   88CLA    CLA  234   8.145   4.742   3.439
   89CLA    CLA  235   2.822   0.674   0.218
   90CLA    CLA  236   6.978   6.527   2.552
   91CLA    CLA  237   2.161   5.397   5.908
   92CLA    CLA  238   0.615   0.098   0.587
   93CLA    CLA  239   3.218   0.514   2.670
   94CLA    CLA  240   2.427   2.155   0.292
   95CLA    CLA  241   6.711   4.577   0.303
   96CLA    CLA  242   7.664   0.433   4.204
   97CLA    CLA  243   6.565   5.650   4.536
   98CLA    CLA  244   1.991   3.110   5.244
   99CLA    CLA  245   5.911   7.364   5.324
  100CLA    CLA  246   3.613   3.309   1.842
  101CLA    CLA  247   0.214   0.733   1.010
  102TIP3   OH2  248   2.923   1.245   3.923
  102TIP3    H1  249   2.890   1.217   3.838
  102TIP3    H2  250   2.998   1.188   3.939
  103TIP3   OH2  251   3.999   6.955   6.189
  103TIP3    H1  252   3.972   6.943   6.098
  103TIP3    H2  253   3.931   7.012   6.227
  104TIP3   OH2  254   5.492   5.243   0.740
  104TIP3    H1  255   5.466   5.219   0.829
  104TIP3    H2  256   5.573   5.292   0.750
  105TIP3   OH2  257   4.685   5.849   1.267
  105TIP3    H1  258   4.685   5.906   1.189
  105TIP3    H2  259   4.630   5.896   1.330
  106TIP3   OH2  260   2.951   1.202   6.266
  106TIP3    H1  261   3.041   1.173   6.256
  106TIP3    H2  262   2.913   1.141   6.329
  107TIP3   OH2  263   2.673   1.181   5.257
  107TIP3    H1  264   2.711   1.159   5.172
  107TIP3    H2  265   2.747   1.218   5.307
  108TIP3   OH2  266   4.158   5.429   5.857
  108TIP3    H1  267   4.198   5.344   5.880
  108TIP3    H2  268   4.169   5.482   5.936
  109TIP3   OH2  269   5.013   0.848   1.462
  109TIP3    H1  270   4.965   0.767   1.481
  109TIP3    H2  271   4.952   0.900   1.410
  110TIP3   OH2  272   5.450   2.315   1.270
  110TIP3    H1  273   5.464   2.307   1.175
  110TIP3    H2  274   5.538   2.328   1.306
  111TIP3   OH2  275   3.319   6.255   0.338
  111TIP3    H1  276   3.303   6.164   0.315
  111TIP3    H2  277   3.252   6.276   0.403
  112TIP3   OH2  278   6.739   7.415   0.802
  112TIP3    H1  279   6.757   7.326   0.833
  112TIP3    H2  280   6.651   7.411   0.766
  113TIP3   OH2  281   5.993   6.310  -0.027
  113TIP3    H1  282   6.062   6.329   0.037
  113TIP3    H2  283   5.960   6.224  -0.002
  114TIP3   OH2  284   0.889   2.111   2.333
  114TIP3    H1  285   0.956   2.043   2.344
  114TIP3    H2  286   0.825   2.071   2.274
  115TIP3   OH2  287   7.061   4.293   1.561
  115TIP3    H1  288   7.144   4.328   1.531
  115TIP3    H2  289   7.051   4.327   1.650
  116TIP3   OH2  290   1.975   1.029   1.956
  116TIP3    H1  291   2.005   1.110   1.913
  116TIP3    H2  292   2.025   0.960   1.913
  117TIP3   OH2  293   1.774   5.239   5.058
  117TIP3    H1  294   1.713   5.308   5.033
  117TIP3    H2  295   1.720   5.159   5.059
  118TIP3   OH2  296   2.504   0.581   5.674
  118TIP3    H1  297   2.567   0.556   5.742
  118TIP3    H2  298   2.558   0.599   5.597
  119TIP3   OH2  299   2.035   5.584   1.289
  119TIP3    H1  300   2.095   5.631   1.347
  119TIP3    H2  301   2.024   5.498   1.330
  120TIP3   OH2  302   1.186   4.496   2.959
  120TIP3    H1  303   1.199   4.412   3.003
  120TIP3    H2  304   1.196   4.476   2.866
  121TIP3   OH2  305   6.898   1.224   0.785
  121TIP3    H1  306   6.853   1.151   0.742
  121TIP3    H2  307   6.971   1.244   0.727
  122TIP3   OH2  308   3.952   0.800   6.570
  122TIP3    H1  309   3.910   0.716   6.590
  122TIP3    H2  310   3.901   0.836   6.498
  123TIP3   OH2  311   5.032   6.709   1.897
  123TIP3    H1  312   4.993   6.772   1.836
  123TIP3    H2  313   5.099   6.759   1.943
  124TIP3   OH2  314   5.668   7.662   0.483
  124TIP3    H1  315   5.702   7.629   0.400
  124TIP3    H2  316   5.746   7.687   0.533
  125TIP3   OH2  317   5.620   7.275   2.741
  125TIP3    H1  318   5.662   7.344   2.792
  125TIP3    H2  319   5.680   7.201   2.745
  126TIP3   OH2  320   1.690   5.237   6.393
  126TIP3    H1  321   1.632   5.292   6.445
  126TIP3    H2  322   1.632   5.175   6.349
  127TIP3   OH2  323   8.031   1.157   3.923
  127TIP3    H1  324   7.981   1.122   3.997
  127TIP3    H2  325   8.086   1.084   3.895
  128TIP3   OH2  326   1.891   0.786   4.586
  128TIP3    H1  327   1.960   0.853   4.588
  128TIP3    H2  328   1.834   0.813   4.514
  129TIP3   OH2  329   5.409   1.597   6.182
  129TIP3    H1  330   5.398   1.680   6.227
  129TIP3    H2  331   5.488   1.559   6.219
  130TIP3   OH2  332   4.763   0.353   4.844
  130TIP3    H1  333   4.762   0.272   4.792
  130TIP3    H2  334   4.783   0.324   4.933
  131TIP3   OH2  335   7.354   1.079   4.147
  131TIP3    H1  336   7.276   1.036   4.183
  131TIP3    H2  337   7.420   1.009   4.143
  132TIP3   OH2  338   2.040   1.330   2.488
  132TIP3    H1  339   2.092   1.295   2.416
  132TIP3    H2  340   1.969   1.378   2.445
  133TIP3   OH2  341   7.932   1.698   5.435
  133TIP3    H1  342   7.901   1.789   5.436
  133TIP3    H2  343   7.910   1.665   5.522
  134TIP3   OH2  344   3.540   1.871   5.906
  134TIP3    H1  345   3.447   1.888   5.917
  134TIP3    H2  346   3.583   1.955   5.926
  135TIP3   OH2  347   2.507   6.695   0.749
  135TIP3    H1  348   2.580   6.716   0.807
  135TIP3    H2  349   2.506   6.599   0.746
  136TIP3   OH2  350   1.452   5.175   3.787
  136TIP3    H1  351   1.388   5.131   3.730
  136TIP3    H2  352   1.409   5.180   3.872
  137TIP3   OH2  353   0.026   3.119   4.299
  137TIP3    H1  354   0.030   3.211   4.325
  137TIP3    H2  355   0.061   3.119   4.210
  138TIP3   OH2  356   0.716   5.478   4.071
  138TIP3    H1  357   0.777   5.405   4.070
  138TIP3    H2  358   0.645   5.451   4.013
  139TIP3   OH2  359   6.293   3.132   5.106
  139TIP3    H1  360   6.340   3.078   5.042
  139TIP3    H2  361   6.353   3.203   5.127
  140TIP3   OH2  362   0.905   5.774   5.113
  140TIP3    H1  363   0.990   5.809   5.087
  140TIP3    H2  364   0.921   5.680   5.126
  141TIP3   OH2  365   3.041   6.793   2.052
  141TIP3    H1  366   3.123   6.744   2.041
  141TIP3    H2  367   3.031   6.800   2.147
  142TIP3   OH2  368   3.397   2.858   2.530
  142TIP3    H1  369   3.329   2.882   2.468
  142TIP3    H2  370   3.420   2.768   2.507
  143TIP3   OH2  371   1.628   7.244   2.320
  143TIP3    H1  372   1.557   7.296   2.280
  143TIP3    H2  373   1.602   7.153   2.306
  144TIP3   OH2  374   6.501   4.401   5.267
  144TIP3    H1  375   6.500   4.358   5.353
  144TIP3    H2  376   6.553   4.480   5.280
  145TIP3   OH2  377   3.931   7.310   1.360
  145TIP3    H1  378   3.886   7.274   1.284
  145TIP3    H2  379   3.905   7.402   1.362
  146TIP3   OH2  380   0.891   5.695   2.372
  146TIP3    H1  381   0.986   5.695   2.386
  146TIP3    H2  382   0.859   5.766   2.428
  147TIP3   OH2  383   3.636   0.672   4.110
  147TIP3    H1  384   3.616   0.580   4.092
  147TIP3    H2  385   3.729   0.680   4.092
  148TIP3   OH2  386   0.513   0.115   5.058
  148TIP3    H1  387   0.583   0.099   4.995
  148TIP3    H2  388   0.492   0.208   5.049
  149TIP3   OH2  389   5.549   3.998   4.249
  149TIP3    H1  390   5.456   3.980   4.266
  149TIP3    H2  391   5.566   4.081   4.293
  150TIP3   OH2  392   1.476   2.792   3.161
  150TIP3    H1  393   1.539   2.774   3.091
  150TIP3    H2  394   1.436   2.707   3.180
  151TIP3   OH2  395   0.126   0.230   0.260
  151TIP3    H1  396   0.071   0.270   0.193
  151TIP3    H2  397   0.215   0.244   0.228
  152TIP3   OH2  398   7.753   3.914   6.396
  152TIP3    H1  399   7.797   3.997   6.415
  152TIP3    H2  400   7.716   3.926   6.309
  153TIP3   OH2  401   4.220   1.549   1.707
  153TIP3    H1  402   4.219   1.613   1.779
  153TIP3    H2  403   4.198   1.601   1.630
  154TIP3   OH2  404   7.460   5.282   1.317
  154TIP3    H1  405   7.394   5.214   1.304
  154TIP3    H2  406   7.542   5.240   1.290
  155TIP3   OH2  407   2.130   5.693   4.092
  155TIP3    H1  408   2.191   5.640   4.143
  155TIP3    H2  409   2.148   5.783   4.119
  156TIP3   OH2  410   0.252   4.221   0.378
  156TIP3    H1  411   0.274   4.131   0.354
  156TIP3    H2  412   0.227   4.215   0.470
  157TIP3   OH2  413   8.185   1.406   4.034
  157TIP3    H1  414   8.123   1.342   4.068
  157TIP3    H2  415   8.135   1.487   4.027
  158TIP3   OH2  416   2.781   7.574   4.159
  158TIP3    H1  417   2.704   7.520   4.142
  158TIP3    H2  418   2.774   7.646   4.097
  159TIP3   OH2  419   0.020   0.463   2.258
  159TIP3    H1  420   0.066   0.471   2.174
  159TIP3    H2  421   0.084   0.492   2.323
  160TIP3   OH2  422   6.022   0.156   2.615
  160TIP3    H1  423   6.015   0.065   2.586
  160TIP3    H2  424   6.084   0.153   2.688
  161TIP3   OH2  425   4.346   2.542   6.640
  161TIP3    H1  426   4.378   2.456   6.666
  161TIP3    H2  427   4.423   2.585   6.601
  162TIP3   OH2  428   2.586   0.149   2.941
  162TIP3    H1  429   2.659   0.193   2.898
  162TIP3    H2  430   2.543   0.218   2.991
  163TIP3   OH2  431   3.068   4.837   2.835
  163TIP3    H1  432   3.157   4.870   2.827
  163TIP3    H2  433   3.045   4.850   2.927
  164TIP3   OH2  434   4.680   1.376   1.383
  164TIP3    H1  435   4.659   1.458   1.429
  164TIP3    H2  436   4.608   1.318   1.403
  165TIP3   OH2  437   2.578   7.371   6.310
  165TIP3    H1  438   2.539   7.393   6.394
  165TIP3    H2  439   2.672   7.374   6.326
  166TIP3   OH2  440   7.472   4.867   6.299
  166TIP3    H1  441   7.554   4.916   6.308
  166TIP3    H2  442   7.499   4.775   6.298
  167TIP3   OH2  443   0.520   0.900   1.770
  167TIP3    H1  444   0.453   0.875   1.706
  167TIP3    H2  445   0.471   0.915   1.851
  168TIP3   OH2  446   4.848   5.964   0.762
  168TIP3    H1  447   4.924   5.908   0.774
  168TIP3    H2  448   4.834   5.965   0.667
  169TIP3   OH2  449   5.429   1.252   6.321
  169TIP3    H1  450   5.351   1.285   6.278
  169TIP3    H2  451   5.501   1.305   6.285
  170TIP3   OH2  452   4.497   2.329   1.037
  170TIP3    H1  453   4.574   2.286   1.075
  170TIP3    H2  454   4.487   2.409   1.089
  171TIP3   OH2  455   3.783   1.275   4.956
  171TIP3    H1  456   3.718   1.298   5.022
  171TIP3    H2  457   3.857   1.333   4.975
  172TIP3   OH2  458   6.954   7.242   4.712
  172TIP3    H1  459   7.034   7.191   4.724
  172TIP3    H2  460   6.919   7.212   4.628
  173TIP3   OH2  461   5.825   0.698   2.498
  173TIP3    H1  462   5.780   0.633   2.444
  173TIP3    H2  463   5.761   0.768   2.510
  174TIP3   OH2  464   2.131   7.618   4.234
  174TIP3    H1  465   2.218   7.632   4.198
  174TIP3    H2  466   2.124   7.523   4.242
  175TIP3   OH2  467   4.799   4.412   2.839
  175TIP3    H1  468   4.720   4.466   2.842
  175TIP3    H2  469   4.769   4.327   2.807
  176TIP3   OH2  470   1.226   7.045   4.248
  176TIP3    H1  471   1.158   7.073   4.187
  176TIP3    H2  472   1.261   6.964   4.210
  177TIP3   OH2  473   7.117   3.652   1.609
  177TIP3    H1  474   7.197   3.698   1.585
  177TIP3    H2  475   7.062   3.719   1.650
  178TIP3   OH2  476   7.537   7.438   6.674
  178TIP3    H1  477   7.481   7.363   6.696
  178TIP3    H2  478   7.537   7.440   6.578
  179TIP3   OH2  479   3.447   6.714   1.166
  179TIP3    H1  480   3.459   6.805   1.139
  179TIP3    H2  481   3.370   6.717   1.223
  180TIP3   OH2  482   7.053   1.970   5.342
  180TIP3    H1  483   6.977   2.028   5.347
  180TIP3    H2  484   7.087   1.985   5.254
  181TIP3   OH2  485   2.781   6.606   3.043
  181TIP3    H1  486   2.867   6.582   3.076
  181TIP3    H2  487   2.786   6.701   3.032
  182TIP3   OH2  488   5.219   2.614   2.569
  182TIP3    H1  489   5.151   2.550   2.544
  182TIP3    H2  490   5.210   2.623   2.664
  183TIP3   OH2  491   3.213   0.820   0.899
  183TIP3    H1  492   3.120   0.823   0.875
  183TIP3    H2  493   3.258   0.794   0.819
  184TIP3   OH2  494   3.545   4.966   1.925
  184TIP3    H1  495   3.463   4.916   1.920
  184TIP3    H2  496   3.534   5.035   1.859
  185TIP3   OH2  497   1.544   6.906   5.421
  185TIP3    H1  498   1.613   6.928   5.483
  185TIP3    H2  499   1.464   6.899   5.474
  186TIP3   OH2  500   4.604   2.640   2.699
  186TIP3    H1  501   4.533   2.634   2.635
  186TIP3    H2  502   4.559   2.653   2.783
  187TIP3   OH2  503   2.288   7.768   4.633
  187TIP3    H1  504   2.337   7.713   4.694
  187TIP3    H2  505   2.335   7.761   4.550
  188TIP3   OH2  506   3.330   1.343   3.567
  188TIP3    H1  507   3.261   1.352   3.633
  188TIP3    H2  508   3.386   1.419   3.581
  189TIP3   OH2  509   5.835   2.313   6.510
  189TIP3    H1  510   5.796   2.400   6.505
  189TIP3    H2  511   5.763   2.257   6.540
  190TIP3   OH2  512   6.398   2.591   6.487
  190TIP3    H1  513   6.382   2.524   6.554
  190TIP3    H2  514   6.448   2.545   6.419
  191TIP3   OH2  515   6.214   0.970   6.685
  191TIP3    H1  516   6.216   0.966   6.780
  191TIP3    H2  517   6.172   1.053   6.665
  192TIP3   OH2  518   7.040   4.109   0.541
  192TIP3    H1  519   6.945   4.098   0.540
  192TIP3    H2  520   7.053   4.204   0.534
  193TIP3   OH2  521   0.934   6.506   2.196
  193TIP3    H1  522   1.030   6.515   2.196
  193TIP3    H2  523   0.917   6.430   2.142
  194TIP3   OH2  524   4.388   2.698   4.457
  194TIP3    H1  525   4.348   2.659   4.380
  194TIP3    H2  526   4.404   2.625   4.516
  195TIP3   OH2  527   1.038   4.018   5.309
  195TIP3    H1  528   0.991   4.044   5.230
  195TIP3    H2  529   1.014   4.083   5.375
  196TIP3   OH2  530   0.199   3.127   5.151
  196TIP3    H1  531   0.263   3.075   5.103
  196TIP3    H2  532   0.172   3.195   5.089
  197TIP3   OH2  533   4.271   1.464   5.789
  197TIP3    H1  534   4.240   1.426   5.871
  197TIP3    H2  535   4.365   1.445   5.788
  198TIP3   OH2  536   6.440   6.084   6.559
  198TIP3    H1  537   6.534   6.068   6.566
  198TIP3    H2  538   6.400   5.999   6.572
  199TIP3   OH2  539   6.667   6.621   4.121
  199TIP3    H1  540   6.642   6.535   4.155
  199TIP3    H2  541   6.763   6.620   4.121
  200TIP3   OH2  542   2.009   3.042   5.857
  200TIP3    H1  543   1.988   3.089   5.776
  200TIP3    H2  544   2.030   3.110   5.920
  201TIP3   OH2  545   2.686   6.126   4.104
  201TIP3    H1  546   2.624   6.058   4.133
  201TIP3    H2  547   2.682   6.123   4.009
  202TIP3   OH2  548   6.824   1.346   4.195
  202TIP3    H1  549   6.742   1.364   4.149
  202TIP3    H2  550   6.886   1.411   4.161
  203TIP3   OH2  551   5.534   4.683   2.104
  203TIP3    H1  552   5.626   4.686   2.131
  203TIP3    H2  553   5.534   4.638   2.020
  204TIP3   OH2  554   2.950   6.550   6.063
  204TIP3    H1  555   2.859   6.580   6.063
  204TIP3    H2  556   2.945   6.457   6.085
  205TIP3   OH2  557   2.207   7.194   4.022
  205TIP3    H1  558   2.143   7.164   3.957
  205TIP3    H2  559   2.245   7.273   3.984
  206TIP3   OH2  560   5.987   3.197   4.920
  206TIP3    H1  561   5.988   3.102   4.931
  206TIP3    H2  562   6.014   3.210   4.829
  207TIP3   OH2  563   6.861   1.375   4.471
  207TIP3    H1  564   6.847   1.348   4.381
  207TIP3    H2  565   6.877   1.469   4.466
  208TIP3   OH2  566   3.089   7.721   3.873
  208TIP3    H1  567   3.105   7.800   3.821
  208TIP3    H2  568   3.107   7.648   3.814
  209TIP3   OH2  569   3.876   2.648   4.533
  209TIP3    H1  570   3.827   2.608   4.461
  209TIP3    H2  571   3.933   2.579   4.565
  210TIP3   OH2  572   2.327   3.863   6.040
  210TIP3    H1  573   2.340   3.929   6.109
  210TIP3    H2  574   2.355   3.781   6.081
  211TIP3   OH2  575   2.760   0.767   5.560
  211TIP3    H1  576   2.678   0.785   5.513
  211TIP3    H2  577   2.773   0.843   5.616
  212TIP3   OH2  578   7.359   0.966   4.604
  212TIP3    H1  579   7.414   1.026   4.553
  212TIP3    H2  580   7.297   1.022   4.650
  213TIP3   OH2  581   7.722   4.371   2.433
  213TIP3    H1  582   7.783   4.402   2.501
  213TIP3    H2  583   7.756   4.285   2.408
  214TIP3   OH2  584   3.889   2.544   3.286
  214TIP3    H1  585   3.970   2.561   3.237
  214TIP3    H2  586   3.871   2.627   3.330
  215TIP3   OH2  587   7.606   3.483   1.852
  215TIP3    H1  588   7.558   3.486   1.769
  215TIP3    H2  589   7.602   3.572   1.885
  216TIP3   OH2  590   1.666   1.650   4.402
  216TIP3    H1  591   1.740   1.634   4.343
  216TIP3    H2  592   1.594   1.675   4.344
  217TIP3   OH2  593   2.620   3.127   1.536
  217TIP3    H1  594   2.698   3.085   1.572
  217TIP3    H2  595   2.650   3.214   1.509
  218TIP3   OH2  596   3.823   0.755   2.096
  218TIP3    H1  597   3.775   0.697   2.154
  218TIP3    H2  598   3.852   0.699   2.024
  219TIP3   OH2  599   6.707   4.074   6.635
  219TIP3    H1  600   6.649   4.141   6.600
  219TIP3    H2  601   6.704   4.003   6.572
  220TIP3   OH2  602   1.986   4.092   6.530
  220TIP3    H1  603   2.014   4.131   6.447
  220TIP3    H2  604   2.061   4.041   6.559
  221TIP3   OH2  605   4.053   0.898   4.394
  221TIP3    H1  606   4.104   0.974   4.367
  221TIP3    H2  607   4.070   0.889   4.488
  222TIP3   OH2  608   3.863   2.135   2.958
  222TIP3    H1  609   3.955   2.158   2.969
  222TIP3    H2  610   3.818   2.219   2.952
  223TIP3   OH2  611   5.250   5.992   4.317
  223TIP3    H1  612   5.279   5.937   4.389
  223TIP3    H2  613   5.309   6.068   4.319
  224TIP3   OH2  614   0.864   1.077   1.900
  224TIP3    H1  615   0.790   1.056   1.843
  224TIP3    H2  616   0.892   1.164   1.871
  225TIP3   OH2  617   2.873   3.660   2.071
  225TIP3    H1  618   2.808   3.728   2.054
  225TIP3    H2  619   2.946   3.681   2.012
  226TIP3   OH2  620   6.133   1.010   4.726
  226TIP3    H1  621   6.144   0.936   4.787
  226TIP3    H2  622   6.215   1.012   4.677
  227TIP3   OH2  623   2.045   1.335   6.576
  227TIP3    H1  624   1.955   1.342   6.608
  227TIP3    H2  625   2.075   1.250   6.607
  228TIP3   OH2  626   1.458   3.087   6.149
  228TIP3    H1  627   1.524   3.019   6.132
  228TIP3    H2  628   1.508   3.167   6.159
  229TIP3   OH2  629   2.851   1.742   2.887
  229TIP3    H1  630   2.857   1.745   2.983
  229TIP3    H2  631   2.871   1.831   2.859
  230TIP3   OH2  632   1.072   6.463   5.833
  230TIP3    H1  633   1.022   6.447   5.913
  230TIP3    H2  634   1.042   6.396   5.771
  231TIP3   OH2  635   6.570   3.276   0.340
  231TIP3    H1  636   6.562   3.240   0.428
  231TIP3    H2  637   6.656   3.318   0.339
  232TIP3   OH2  638   4.903   6.895   1.749
  232TIP3    H1  639   4.840   6.872   1.680
  232TIP3    H2  640   4.872   6.979   1.782
  233TIP3   OH2  641   7.445   3.652   6.423
  233TIP3    H1  642   7.430   3.557   6.423
  233TIP3    H2  643   7.357   3.690   6.418
  234TIP3   OH2  644   6.846   4.299   0.432
  234TIP3    H1  645   6.811   4.381   0.398
  234TIP3    H2  646   6.911   4.271   0.366
  235TIP3   OH2  647   6.338   5.333   3.072
  235TIP3    H1  648   6.429   5.361   3.057
  235TIP3    H2  649   6.332   5.249   3.026
  236TIP3   OH2  650   7.870   2.847   4.840
  236TIP3    H1  651   7.795   2.838   4.780
  236TIP3    H2  652   7.911   2.929   4.814
  237TIP3   OH2  653   3.953   2.978   6.075
  237TIP3    H1  654   4.036   2.957   6.032
  237TIP3    H2  655   3.967   2.952   6.166
  238TIP3   OH2  656   2.272   6.172   3.874
  238TIP3    H1  657   2.191   6.125   3.857
  238TIP3    H2  658   2.271   6.188   3.968
  239TIP3   OH2  659   7.317   1.983   2.640
  239TIP3    H1  660   7.246   2.040   2.608
  239TIP3    H2  661   7.355   1.945   2.561
  240TIP3   OH2  662   2.016   5.746   1.691
  240TIP3    H1  663   1.973   5.803   1.627
  240TIP3    H2  664   1.944   5.700   1.735
  241TIP3   OH2  665   4.379   4.378   2.070
  241TIP3    H1  666   4.306   4.409   2.016
  241TIP3    H2  667   4.367   4.421   2.154
  242TIP3   OH2  668   7.649   2.431   1.701
  242TIP3    H1  669   7.674   2.420   1.793
  242TIP3    H2  670   7.730   2.415   1.652
  243TIP3   OH2  671   3.914   0.716   0.437
  243TIP3    H1  672   3.988   0.674   0.480
  243TIP3    H2  673   3.849   0.645   0.428
  244TIP3   OH2  674   3.046   0.335   2.336
  244TIP3    H1  675   3.116   0.352   2.273
  244TIP3    H2  676   3.080   0.369   2.419
  245TIP3   OH2  677   4.973   7.118   5.320
  245TIP3    H1  678   5.027   7.064   5.377
  245TIP3    H2  679   4.887   7.076   5.321
  246TIP3   OH2  680   2.773   2.859   2.517
  246TIP3    H1  681   2.862   2.893   2.522
  246TIP3    H2  682   2.725   2.924   2.465
  247TIP3   OH2  683   0.150   6.711   3.935
  247TIP3    H1  684   0.161   6.729   4.028
  247TIP3    H2  685   0.173   6.618   3.926
  248TIP3   OH2  686   3.055   2.573   1.976
  248TIP3    H1  687   3.060   2.478   1.978
  248TIP3    H2  688   3.145   2.603   1.984
  249TIP3   OH2  689   1.341   5.420   1.543
  249TIP3    H1  690   1.314   5.331   1.564
  249TIP3    H2  691   1.341   5.423   1.447
  250TIP3   OH2  692   8.230   7.707   4.506
  250TIP3    H1  693   8.146   7.663   4.489
  250TIP3    H2  694   8.249   7.753   4.425
  251TIP3   OH2  695   7.218   3.578   0.974
  251TIP3    H1  696   7.287   3.543   1.031
  251TIP3    H2  697   7.219   3.673   0.992
  252TIP3   OH2  698   2.445   5.094   4.698
  252TIP3    H1  699   2.508   5.132   4.760
  252TIP3    H2  700   2.363   5.088   4.748
  253TIP3   OH2  701   5.052   2.425   5.317
  253TIP3    H1  702   4.969   2.415   5.363
  253TIP3    H2  703   5.038   2.500   5.259
  254TIP3   OH2  704   6.977   4.504   1.719
  254TIP3    H1  705   7.027   4.547   1.650
  254TIP3    H2  706   7.012   4.541   1.800
  255TIP3   OH2  707   3.399   5.854   4.748
  255TIP3    H1  708   3.384   5.797   4.673
  255TIP3    H2  709   3.373   5.802   4.824
  256TIP3   OH2  710   5.767   6.695   2.460
  256TIP3    H1  711   5.842   6.668   2.513
  256TIP3    H2  712   5.724   6.613   2.436
  257TIP3   OH2  713   5.991   4.480   0.025
  257TIP3    H1  714   5.970   4.564  -0.017
  257TIP3    H2  715   6.011   4.504   0.116
  258TIP3   OH2  716   1.964   6.299   5.413
  258TIP3    H1  717   1.908   6.293   5.335
  258TIP3    H2  718   1.914   6.255   5.482
  259TIP3   OH2  719   8.299   4.547   2.075
  259TIP3    H1  720   8.226   4.561   2.136
  259TIP3    H2  721   8.344   4.632   2.072
  260TIP3   OH2  722   1.603   2.929   4.364
  260TIP3    H1  723   1.625   2.946   4.456
  260TIP3    H2  724   1.655   2.992   4.315
  261TIP3   OH2  725   7.649   6.536   6.635
  261TIP3    H1  726   7.711   6.542   6.563
  261TIP3    H2  727   7.572   6.585   6.604
  262TIP3   OH2  728   3.744   7.325   0.325
  262TIP3    H1  729   3.826   7.317   0.374
  262TIP3    H2  730   3.757   7.404   0.271
  263TIP3   OH2  731   4.743   2.960   4.939
  263TIP3    H1  732   4.830   2.943   4.976
  263TIP3    H2  733   4.730   2.890   4.876
  264TIP3   OH2  734   1.111   0.166   0.781
  264TIP3    H1  735   1.050   0.161   0.855
  264TIP3    H2  736   1.062   0.131   0.707
  265TIP3   OH2  737   4.346   4.356   3.978
  265TIP3    H1  738   4.269   4.331   4.028
  265TIP3    H2  739   4.402   4.278   3.980
  266TIP3   OH2  740   7.665   1.867   3.330
  266TIP3    H1  741   7.673   1.851   3.424
  266TIP3    H2  742   7.571   1.869   3.314
  267TIP3   OH2  743   7.614   3.973   4.058
  267TIP3    H1  744   7.694   4.020   4.033
  267TIP3    H2  745   7.556   3.981   3.983
  268TIP3   OH2  746   0.065   4.888   3.217
  268TIP3    H1  747  -0.019   4.902   3.174
  268TIP3    H2  748   0.044   4.840   3.298
  269TIP3   OH2  749   5.699   6.620   0.233
  269TIP3    H1  750   5.777   6.572   0.204
  269TIP3    H2  751   5.716   6.639   0.325
  270TIP3   OH2  752   1.853   6.185   5.634
  270TIP3    H1  753   1.900   6.146   5.707
  270TIP3    H2  754   1.791   6.118   5.606
  271TIP3   OH2  755   6.627   0.275   0.312
  271TIP3    H1  756   6.582   0.194   0.336
  271TIP3    H2  757   6.711   0.247   0.277
  272TIP3   OH2  758   4.793   0.684   4.364
  272TIP3    H1  759   4.709   0.708   4.402
  272TIP3    H2  760   4.829   0.618   4.424
  273TIP3   OH2  761   7.085   3.120   2.334
  273TIP3    H1  762   7.179   3.139   2.333
  273TIP3    H2  763   7.045   3.199   2.372
  274TIP3   OH2  764   4.651   5.996   4.056
  274TIP3    H1  765   4.570   6.043   4.037
  274TIP3    H2  766   4.640   5.911   4.014
  275TIP3   OH2  767   6.154   1.339   5.784
  275TIP3    H1  768   6.098   1.383   5.848
  275TIP3    H2  769   6.169   1.404   5.715
  276TIP3   OH2  770   1.618   2.529   5.336
  276TIP3    H1  771   1.598   2.621   5.324
  276TIP3    H2  772   1.579   2.486   5.259
  277TIP3   OH2  773   5.589   7.745   3.825
  277TIP3    H1  774   5.599   7.696   3.744
  277TIP3    H2  775   5.496   7.768   3.828
  278TIP3   OH2  776   7.154   0.739   6.049
  278TIP3    H1  777   7.074   0.778   6.014
  278TIP3    H2  778   7.131   0.647   6.065
  279TIP3   OH2  779   5.263   2.075   1.345
  279TIP3    H1  780   5.234   2.163   1.322
  279TIP3    H2  781   5.268   2.029   1.261
  280TIP3   OH2  782   3.210   0.286   4.440
  280TIP3    H1  783   3.210   0.190   4.444
  280TIP3    H2  784   3.301   0.311   4.455
  281TIP3   OH2  785   1.258   5.651   5.298
  281TIP3    H1  786   1.296   5.607   5.374
  281TIP3    H2  787   1.171   5.678   5.328
  282TIP3   OH2  788   0.992   4.545   5.016
  282TIP3    H1  789   0.974   4.554   4.922
  282TIP3    H2  790   1.050   4.619   5.036
  283TIP3   OH2  791   0.141   1.665   1.362
  283TIP3    H1  792   0.098   1.585   1.332
  283TIP3    H2  793   0.142   1.722   1.285
  284TIP3   OH2  794   0.142   0.816   3.622
  284TIP3    H1  795   0.076   0.828   3.554
  284TIP3    H2  796   0.212   0.768   3.579
  285TIP3   OH2  797   2.841   4.580   0.901
  285TIP3    H1  798   2.798   4.495   0.900
  285TIP3    H2  799   2.931   4.561   0.926
  286TIP3   OH2  800   2.728   2.251   0.229
  286TIP3    H1  801   2.644   2.215   0.255
  286TIP3    H2  802   2.708   2.337   0.191
  287TIP3   OH2  803   7.715   2.376   0.029
  287TIP3    H1  804   7.712   2.436   0.104
  287TIP3    H2  805   7.762   2.424  -0.039
  288TIP3   OH2  806   6.277   4.402   6.115
  288TIP3    H1  807   6.279   4.457   6.037
  288TIP3    H2  808   6.227   4.453   6.178
  289TIP3   OH2  809   6.301   7.520   0.467
  289TIP3    H1  810   6.395   7.516   0.448
  289TIP3    H2  811   6.267   7.436   0.438
  290TIP3   OH2  812   6.410   3.935   3.587
  290TIP3    H1  813   6.318   3.960   3.581
  290TIP3    H2  814   6.420   3.864   3.523
  291TIP3   OH2  815   6.517   5.111   0.171
  291TIP3    H1  816   6.522   5.171   0.097
  291TIP3    H2  817   6.460   5.154   0.233
  292TIP3   OH2  818   1.203   0.425   6.074
  292TIP3    H1  819   1.231   0.495   6.133
  292TIP3    H2  820   1.130   0.463   6.024
  293TIP3   OH2  821   0.878   6.134   2.221
  293TIP3    H1  822   0.930   6.054   2.217
  293TIP3    H2  823   0.886   6.173   2.134
  294TIP3   OH2  824   7.159   2.412   5.836
  294TIP3    H1  825   7.248   2.447   5.827
  294TIP3    H2  826   7.144   2.362   5.756
  295TIP3   OH2  827   4.126   0.218   4.189
  295TIP3    H1  828   4.099   0.127   4.188
  295TIP3    H2  829   4.194   0.222   4.256
  296TIP3   OH2  830   4.965   0.312   1.550
  296TIP3    H1  831   5.021   0.363   1.609
  296TIP3    H2  832   5.006   0.321   1.464
  297TIP3   OH2  833   1.260   6.344   0.955
  297TIP3    H1  834   1.231   6.436   0.959
  297TIP3    H2  835   1.353   6.349   0.935
  298TIP3   OH2  836   3.319   5.237   4.993
  298TIP3    H1  837   3.397   5.201   4.953
  298TIP3    H2  838   3.351   5.285   5.070
  299TIP3   OH2  839   3.791   3.851   4.450
  299TIP3    H1  840   3.805   3.757   4.446
  299TIP3    H2  841   3.851   3.887   4.385
  300TIP3   OH2  842   3.588   0.706   5.182
  300TIP3    H1  843   3.602   0.794   5.217
  300TIP3    H2  844   3.656   0.695   5.115
  301TIP3   OH2  845   6.213   5.307   6.752
  301TIP3    H1  846   6.183   5.395   6.730
  301TIP3    H2  847   6.290   5.321   6.807
  302TIP3   OH2  848   3.842   5.733   1.384
  302TIP3    H1  849   3.757   5.760   1.418
  302TIP3    H2  850   3.877   5.811   1.340
  303TIP3   OH2  851   5.993   5.183   6.270
  303TIP3    H1  852   6.068   5.180   6.211
  303TIP3    H2  853   5.926   5.129   6.228
  304TIP3   OH2  854   5.154   6.725   5.851
  304TIP3    H1  855   5.062   6.729   5.825
  304TIP3    H2  856   5.199   6.689   5.775
  305TIP3   OH2  857   4.950   1.345   1.070
  305TIP3    H1  858   4.958   1.260   1.114
  305TIP3    H2  859   5.017   1.343   1.003
  306TIP3   OH2  860   7.047   2.416   1.379
  306TIP3    H1  861   7.038   2.326   1.349
  306TIP3    H2  862   6.967   2.459   1.347
  307TIP3   OH2  863   1.031   2.673   6.715
  307TIP3    H1  864   0.958   2.672   6.778
  307TIP3    H2  865   1.107   2.645   6.766
  308TIP3   OH2  866   7.158   5.399   4.967
  308TIP3    H1  867   7.251   5.383   4.984
  308TIP3    H2  868   7.157   5.459   4.893
  309TIP3   OH2  869   4.769   0.205   1.182
  309TIP3    H1  870   4.684   0.216   1.140
  309TIP3    H2  871   4.767   0.117   1.219
  310TIP3   OH2  872   7.868   5.290   3.034
  310TIP3    H1  873   7.911   5.375   3.032
  310TIP3    H2  874   7.847   5.276   3.127
  311TIP3   OH2  875   3.769   4.778   1.815
  311TIP3    H1  876   3.848   4.815   1.855
  311TIP3    H2  877   3.698   4.833   1.847
  312TIP3   OH2  878   2.169   1.976   4.087
  312TIP3    H1  879   2.078   1.945   4.088
  312TIP3    H2  880   2.217   1.905   4.046
  313TIP3   OH2  881   3.947   4.388   3.536
  313TIP3    H1  882   3.913   4.440   3.464
  313TIP3    H2  883   4.028   4.350   3.502
  314TIP3   OH2  884   7.470   1.041   5.555
  314TIP3    H1  885   7.448   1.134   5.550
  314TIP3    H2  886   7.516   1.023   5.473
  315TIP3   OH2  887   4.829   6.857   6.427
  315TIP3    H1  888   4.874   6.782   6.389
  315TIP3    H2  889   4.795   6.825   6.510
  316TIP3   OH2  890   6.381   3.726   5.252
  316TIP3    H1  891   6.441   3.785   5.298
  316TIP3    H2  892   6.312   3.707   5.315
  317TIP3   OH2  893   3.372   5.639   6.335
  317TIP3    H1  894   3.369   5.592   6.419
  317TIP3    H2  895   3.449   5.696   6.343
  318TIP3   OH2  896   0.483   4.750   5.120
  318TIP3    H1  897   0.425   4.674   5.119
  318TIP3    H2  898   0.547   4.731   5.187
  319TIP3   OH2  899   6.622   6.153   5.783
  319TIP3    H1  900   6.640   6.090   5.714
  319TIP3    H2  901   6.705   6.161   5.830
  320TIP3   OH2  902   7.911   5.062   4.874
  320TIP3    H1  903   7.928   4.972   4.847
  320TIP3    H2  904   7.995   5.107   4.860
  321TIP3   OH2  905   4.028   7.268   2.463
  321TIP3    H1  906   3.948   7.317   2.481
  321TIP3    H2  907   4.094   7.335   2.444
  322TIP3   OH2  908   4.508   6.743   4.546
  322TIP3    H1  909   4.549   6.728   4.631
  322TIP3    H2  910   4.500   6.656   4.507
  323TIP3   OH2  911   2.625   5.418   4.329
  323TIP3    H1  912   2.583   5.356   4.269
  323TIP3    H2  913   2.576   5.409   4.411
  324TIP3   OH2  914   5.498   4.558   1.578
  324TIP3    H1  915   5.486   4.491   1.511
  324TIP3    H2  916   5.435   4.535   1.646
  325TIP3   OH2  917   3.561   4.762   0.289
  325TIP3    H1  918   3.480   4.711   0.294
  325TIP3    H2  919   3.562   4.798   0.201
  326TIP3   OH2  920   0.844   4.565   6.060
  326TIP3    H1  921   0.764   4.560   6.112
  326TIP3    H2  922   0.886   4.647   6.089
  327TIP3   OH2  923   2.478   0.488   1.539
  327TIP3    H1  924   2.478   0.494   1.635
  327TIP3    H2  925   2.556   0.437   1.519
  328TIP3   OH2  926   2.083   0.951   1.233
  328TIP3    H1  927   2.168   0.929   1.271
  328TIP3    H2  928   2.021   0.940   1.305
  329TIP3   OH2  929   6.669   5.384   5.741
  329TIP3    H1  930   6.625   5.310   5.698
  329TIP3    H2  931   6.619   5.399   5.821
  330TIP3   OH2  932   6.208   0.837   3.440
  330TIP3    H1  933   6.128   0.871   3.480
  330TIP3    H2  934   6.250   0.913   3.400
  331TIP3   OH2  935   0.770   6.602   6.373
  331TIP3    H1  936   0.849   6.622   6.423
  331TIP3    H2  937   0.784   6.644   6.288
  332TIP3   OH2  938   2.299   4.560   1.153
  332TIP3    H1  939   2.247   4.537   1.076
  332TIP3    H2  940   2.384   4.587   1.117
  333TIP3   OH2  941   6.161   5.388   1.880
  333TIP3    H1  942   6.084   5.421   1.927
  333TIP3    H2  943   6.177   5.454   1.813
  334TIP3   OH2  944   6.803   2.097   1.493
  334TIP3    H1  945   6.885   2.092   1.443
  334TIP3    H2  946   6.758   2.015   1.473
  335TIP3   OH2  947   3.002   4.210   6.668
  335TIP3    H1  948   2.944   4.276   6.630
  335TIP3    H2  949   3.087   4.226   6.626
  336TIP3   OH2  950   6.822   2.339   5.718
  336TIP3    H1  951   6.799   2.366   5.807
  336TIP3    H2  952   6.794   2.248   5.713
  337TIP3   OH2  953   0.111   5.147   1.041
  337TIP3    H1  954   0.190   5.188   1.075
  337TIP3    H2  955   0.129   5.132   0.948
  338TIP3   OH2  956   3.311   7.795   3.557
  338TIP3    H1  957   3.400   7.816   3.587
  338TIP3    H2  958   3.255   7.854   3.606
  339TIP3   OH2  959   2.721   1.066   1.849
  339TIP3    H1  960   2.797   1.118   1.875
  339TIP3    H2  961   2.754   0.976   1.846
  340TIP3   OH2  962   6.702   5.862   2.414
  340TIP3    H1  963   6.624   5.807   2.413
  340TIP3    H2  964   6.676   5.941   2.367
  341TIP3   OH2  965   8.133   5.566   5.740
  341TIP3    H1  966   8.099   5.476   5.743
  341TIP3    H2  967   8.107   5.604   5.824
  342TIP3   OH2  968   6.787   4.586   5.026
  342TIP3    H1  969   6.745   4.641   5.092
  342TIP3    H2  970   6.816   4.648   4.958
  343TIP3   OH2  971   7.483   1.598   4.978
  343TIP3    H1  972   7.452   1.564   4.894
  343TIP3    H2  973   7.404   1.624   5.025
  344TIP3   OH2  974   3.908   5.099   0.431
  344TIP3    H1  975   3.853   5.023   0.452
  344TIP3    H2  976   3.925   5.091   0.337
  345TIP3   OH2  977   6.468   3.141   1.285
  345TIP3    H1  978   6.466   3.187   1.201
  345TIP3    H2  979   6.549   3.090   1.282
  346TIP3   OH2  980   1.440   2.285   6.149
  346TIP3    H1  981   1.363   2.253   6.195
  346TIP3    H2  982   1.481   2.346   6.211
  347TIP3   OH2  983   6.044   4.358   2.196
  347TIP3    H1  984   6.001   4.358   2.281
  347TIP3    H2  985   6.105   4.284   2.201
  348TIP3   OH2  986   3.781   0.251   5.631
  348TIP3    H1  987   3.825   0.330   5.598
  348TIP3    H2  988   3.853   0.196   5.662
  349TIP3   OH2  989   8.191   3.184   3.386
  349TIP3    H1  990   8.153   3.154   3.469
  349TIP3    H2  991   8.115   3.206   3.332
  350TIP3   OH2  992   1.236   4.188   4.513
  350TIP3    H1  993   1.229   4.282   4.497
  350TIP3    H2  994   1.186   4.173   4.593
  351TIP3   OH2  995   7.641   6.829   3.141
  351TIP3    H1  996   7.667   6.789   3.224
  351TIP3    H2  997   7.547   6.815   3.135
  352TIP3   OH2  998   7.018   5.980   6.528
  352TIP3    H1  999   6.950   6.046   6.515
  352TIP3    H2 1000   7.055   5.965   6.441
  353TIP3   OH2 1001   6.334   1.296   0.298
  353TIP3    H1 1002   6.367   1.284   0.209
  353TIP3    H2 1003   6.265   1.362   0.290
  354TIP3   OH2 1004   0.122   6.165   1.691
  354TIP3    H1 1005   0.087   6.076   1.689
  354TIP3    H2 1006   0.119   6.195   1.600
  355TIP3   OH2 1007   0.012   2.161   3.280
  355TIP3    H1 1008   0.067   2.222   3.230
  355TIP3    H2 1009   0.042   2.172   3.370
  356TIP3   OH2 1010   7.544   2.415   2.289
  356TIP3    H1 1011   7.484   2.342   2.276
  356TIP3    H2 1012   7.500   2.490   2.251
  357TIP3   OH2 1013   2.073   1.788   5.624
  357TIP3    H1 1014   2.143   1.771   5.560
  357TIP3    H2 1015   2.033   1.870   5.595
  358TIP3   OH2 1016   3.547   3.118   3.685
  358TIP3    H1 1017   3.477   3.118   3.750
  358TIP3    H2 1018   3.628   3.128   3.735
  359TIP3   OH2 1019   0.580   2.264   0.839
  359TIP3    H1 1020   0.646   2.234   0.902
  359TIP3    H2 1021   0.623   2.259   0.754
  360TIP3   OH2 1022   3.048   2.546   4.640
  360TIP3    H1 1023   2.980   2.479   4.635
  360TIP3    H2 1024   3.130   2.498   4.626
  361TIP3   OH2 1025   5.400   3.349   0.457
  361TIP3    H1 1026   5.490   3.340   0.426
  361TIP3    H2 1027   5.396   3.437   0.494
  362TIP3   OH2 1028   5.764   6.152   5.366
  362TIP3    H1 1029   5.764   6.243   5.397
  362TIP3    H2 1030   5.707   6.106   5.427
  363TIP3   OH2 1031   2.912   2.315   3.741
  363TIP3    H1 1032   2.917   2.245   3.805
  363TIP3    H2 1033   2.973   2.288   3.672
  364TIP3   OH2 1034   4.885   5.022   3.004
  364TIP3    H1 1035   4.944   5.057   2.937
  364TIP3    H2 1036   4.934   4.949   3.043
  365TIP3   OH2 1037   3.038   6.610   0.496
  365TIP3    H1 1038   3.073   6.676   0.436
  365TIP3    H2 1039   2.944   6.630   0.501
  366TIP3   OH2 1040   1.355   0.746   0.358
  366TIP3    H1 1041   1.366   0.836   0.389
  366TIP3    H2 1042   1.429   0.732   0.299
  367TIP3   OH2 1043   1.589   6.289   2.292
  367TIP3    H1 1044   1.556   6.353   2.229
  367TIP3    H2 1045   1.617   6.342   2.367
  368TIP3   OH2 1046   1.196   1.841   3.708
  368TIP3    H1 1047   1.148   1.915   3.744
  368TIP3    H2 1048   1.229   1.794   3.785
  369TIP3   OH2 1049   3.102   5.458   0.916
  369TIP3    H1 1050   3.125   5.538   0.964
  369TIP3    H2 1051   3.068   5.489   0.832
  370TIP3   OH2 1052   0.268   7.729   0.333
  370TIP3    H1 1053   0.236   7.798   0.275
  370TIP3    H2 1054   0.347   7.766   0.374
  371TIP3   OH2 1055   1.671   1.759   2.265
  371TIP3    H1 1056   1.722   1.809   2.201
  371TIP3    H2 1057   1.723   1.764   2.345
  372TIP3   OH2 1058   6.695   7.207   3.995
  372TIP3    H1 1059   6.660   7.120   3.972
  372TIP3    H2 1060   6.743   7.235   3.917
  373TIP3   OH2 1061   2.089   0.697   5.077
  373TIP3    H1 1062   2.098   0.792   5.064
  373TIP3    H2 1063   2.106   0.659   4.991
  374TIP3   OH2 1064   2.345   1.311   6.039
  374TIP3    H1 1065   2.251   1.305   6.028
  374TIP3    H2 1066   2.381   1.252   5.972
  375TIP3   OH2 1067   1.563   4.806   2.006
  375TIP3    H1 1068   1.532   4.880   1.954
  375TIP3    H2 1069   1.569   4.734   1.943
  376TIP3   OH2 1070   7.390   7.302   3.935
  376TIP3    H1 1071   7.305   7.267   3.906
  376TIP3    H2 1072   7.448   7.226   3.934
  377TIP3   OH2 1073   7.128   1.799   2.289
  377TIP3    H1 1074   7.123   1.704   2.299
  377TIP3    H2 1075   7.119   1.814   2.195
  378TIP3   OH2 1076   8.044   6.421   0.887
  378TIP3    H1 1077   8.034   6.335   0.847
  378TIP3    H2 1078   7.965   6.431   0.941
  379TIP3   OH2 1079   5.881   0.676   6.039
  379TIP3    H1 1080   5.786   0.678   6.049
  379TIP3    H2 1081   5.907   0.768   6.035
  380TIP3   OH2 1082   7.588   3.800   2.491
  380TIP3    H1 1083   7.557   3.841   2.572
  380TIP3    H2 1084   7.509   3.769   2.448
  381TIP3   OH2 1085   4.257   4.298   5.381
  381TIP3    H1 1086   4.199   4.316   5.455
  381TIP3    H2 1087   4.204   4.246   5.321
  382TIP3   OH2 1088   2.596   5.797   1.891
  382TIP3    H1 1089   2.547   5.799   1.974
  382TIP3    H2 1090   2.602   5.704   1.869
  383TIP3   OH2 1091   7.061   2.689   2.607
  383TIP3    H1 1092   7.041   2.714   2.698
  383TIP3    H2 1093   6.982   2.644   2.577
  384TIP3   OH2 1094   2.413   2.410   6.531
  384TIP3    H1 1095   2.338   2.359   6.501
  384TIP3    H2 1096   2.473   2.410   6.456
  385TIP3   OH2 1097   0.037   6.539   4.516
  385TIP3    H1 1098   0.112   6.598   4.517
  385TIP3    H2 1099   0.040   6.494   4.600
  386TIP3   OH2 1100   3.501   4.929   5.539
  386TIP3    H1 1101   3.425   4.871   5.542
  386TIP3    H2 1102   3.573   4.875   5.573
  387TIP3   OH2 1103   1.078   0.009   6.081
  387TIP3    H1 1104   1.133   0.067   6.132
  387TIP3    H2 1105   1.026  -0.039   6.145
  388TIP3   OH2 1106   4.051   7.038   2.680
  388TIP3    H1 1107   4.101   7.114   2.648
  388TIP3    H2 1108   4.006   7.005   2.602
  389TIP3   OH2 1109   4.978   5.581   0.416
  389TIP3    H1 1110   4.995   5.669   0.383
  389TIP3    H2 1111   4.900   5.590   0.471
  390TIP3   OH2 1112   1.274   0.358   1.729
  390TIP3    H1 1113   1.267   0.365   1.634
  390TIP3    H2 1114   1.230   0.436   1.762
  391TIP3   OH2 1115   1.013   3.847   4.283
  391TIP3    H1 1116   1.103   3.880   4.283
  391TIP3    H2 1117   1.002   3.810   4.196
  392TIP3   OH2 1118   6.434   2.710   4.331
  392TIP3    H1 1119   6.455   2.678   4.243
  392TIP3    H2 1120   6.351   2.757   4.320
  393TIP3   OH2 1121   2.362   0.166   4.744
  393TIP3    H1 1122   2.332   0.157   4.654
  393TIP3    H2 1123   2.455   0.145   4.741
  394TIP3   OH2 1124   3.137   4.017   3.978
  394TIP3    H1 1125   3.135   3.922   3.963
  394TIP3    H2 1126   3.170   4.054   3.897
  395TIP3   OH2 1127   5.335   4.333   4.809
  395TIP3    H1 1128   5.298   4.369   4.889
  395TIP3    H2 1129   5.295   4.246   4.801
  396TIP3   OH2 1130   6.182   7.262   0.466
  396TIP3    H1 1131   6.120   7.254   0.393
  396TIP3    H2 1132   6.131   7.236   0.543
  397TIP3   OH2 1133   7.642   0.691   4.484
  397TIP3    H1 1134   7.603   0.649   4.408
  397TIP3    H2 1135   7.606   0.642   4.559
  398TIP3   OH2 1136   2.338   7.565   1.515
  398TIP3    H1 1137   2.250   7.553   1.479
  398TIP3    H2 1138   2.370   7.645   1.473
  399TIP3   OH2 1139   0.151   1.411   4.941
  399TIP3    H1 1140   0.213   1.355   4.989
  399TIP3    H2 1141   0.190   1.421   4.854
  400TIP3   OH2 1142   6.933   3.097   4.375
  400TIP3    H1 1143   6.844   3.131   4.363
  400TIP3    H2 1144   6.990   3.170   4.348
  401TIP3   OH2 1145   6.145   4.772   4.414
  401TIP3    H1 1146   6.051   4.769   4.396
  401TIP3    H2 1147   6.151   4.780   4.509
  402TIP3   OH2 1148   5.996   7.795   5.265
  402TIP3    H1 1149   6.081   7.802   5.310
  402TIP3    H2 1150   6.009   7.843   5.183
  403TIP3   OH2 1151   5.992   2.251   3.500
  403TIP3    H1 1152   6.061   2.262   3.435
  403TIP3    H2 1153   5.963   2.341   3.520
  404TIP3   OH2 1154   5.566   1.673   1.955
  404TIP3    H1 1155   5.513   1.594   1.947
  404TIP3    H2 1156   5.525   1.735   1.894
  405TIP3   OH2 1157   6.785   4.371   0.070
  405TIP3    H1 1158   6.737   4.406   0.145
  405TIP3    H2 1159   6.844   4.306   0.107
  406TIP3   OH2 1160   2.656   6.872   5.074
  406TIP3    H1 1161   2.599   6.874   5.151
  406TIP3    H2 1162   2.632   6.950   5.024
  407TIP3   OH2 1163   1.317   3.135   3.657
  407TIP3    H1 1164   1.278   3.099   3.737
  407TIP3    H2 1165   1.295   3.228   3.660
  408TIP3   OH2 1166   1.530   3.092   1.626
  408TIP3    H1 1167   1.463   3.026   1.645
  408TIP3    H2 1168   1.542   3.138   1.710
  409TIP3   OH2 1169   7.495   5.792   1.138
  409TIP3    H1 1170   7.546   5.779   1.059
  409TIP3    H2 1171   7.499   5.707   1.183
  410TIP3   OH2 1172   5.478   5.753   1.519
  410TIP3    H1 1173   5.452   5.688   1.584
  410TIP3    H2 1174   5.441   5.721   1.437
  411TIP3   OH2 1175   7.190   3.844   5.661
  411TIP3    H1 1176   7.271   3.850   5.610
  411TIP3    H2 1177   7.135   3.782   5.613
  412TIP3   OH2 1178   5.622   5.938   0.109
  412TIP3    H1 1179   5.599   6.030   0.103
  412TIP3    H2 1180   5.578   5.908   0.189
  413TIP3   OH2 1181   7.279   6.894   6.625
  413TIP3    H1 1182   7.266   6.961   6.558
  413TIP3    H2 1183   7.252   6.935   6.707
  414TIP3   OH2 1184   4.966   4.937   5.404
  414TIP3    H1 1185   4.872   4.945   5.416
  414TIP3    H2 1186   4.977   4.910   5.313
  415TIP3   OH2 1187   4.158   2.908   0.543
  415TIP3    H1 1188   4.225   2.903   0.611
  415TIP3    H2 1189   4.177   2.835   0.484
  416TIP3   OH2 1190   1.395   7.111   0.580
  416TIP3    H1 1191   1.305   7.126   0.551
  416TIP3    H2 1192   1.430   7.047   0.518
  417TIP3   OH2 1193   7.703   0.671   3.350
  417TIP3    H1 1194   7.664   0.729   3.416
  417TIP3    H2 1195   7.797   0.687   3.358
  418TIP3   OH2 1196   3.383   1.179   5.661
  418TIP3    H1 1197   3.342   1.246   5.716
  418TIP3    H2 1198   3.313   1.117   5.643
  419TIP3   OH2 1199   6.079   0.197   0.192
  419TIP3    H1 1200   5.991   0.234   0.183
  419TIP3    H2 1201   6.121   0.254   0.257
  420TIP3   OH2 1202   2.354   0.864   2.427
  420TIP3    H1 1203   2.269   0.823   2.446
  420TIP3    H2 1204   2.341   0.956   2.451
  421TIP3   OH2 1205   3.837   2.440   0.942
  421TIP3    H1 1206   3.811   2.384   0.869
  421TIP3    H2 1207   3.768   2.429   1.007
  422TIP3   OH2 1208   2.201   0.655   5.406
  422TIP3    H1 1209   2.266   0.593   5.438
  422TIP3    H2 1210   2.175   0.621   5.320
  423TIP3   OH2 1211   1.464   6.902   2.010
  423TIP3    H1 1212   1.486   6.975   1.952
  423TIP3    H2 1213   1.379   6.925   2.047
  424TIP3   OH2 1214   7.705   3.914   0.211
  424TIP3    H1 1215   7.772   3.936   0.277
  424TIP3    H2 1216   7.645   3.855   0.257
  425TIP3   OH2 1217   6.766   7.411   6.700
  425TIP3    H1 1218   6.744   7.504   6.705
  425TIP3    H2 1219   6.690   7.366   6.739
  426TIP3   OH2 1220   6.656   6.923   1.483
  426TIP3    H1 1221   6.729   6.981   1.506
  426TIP3    H2 1222   6.620   6.897   1.568
  427TIP3   OH2 1223   0.966   7.145   4.756
  427TIP3    H1 1224   1.002   7.101   4.833
  427TIP3    H2 1225   1.041   7.159   4.699
  428TIP3   OH2 1226   0.424   5.642   2.781
  428TIP3    H1 1227   0.392   5.690   2.705
  428TIP3    H2 1228   0.519   5.647   2.775
  429TIP3   OH2 1229   0.958   0.791   4.218
  429TIP3    H1 1230   0.989   0.731   4.150
  429TIP3    H2 1231   0.872   0.819   4.187
  430TIP3   OH2 1232   1.823   0.083   6.310
  430TIP3    H1 1233   1.774   0.164   6.293
  430TIP3    H2 1234   1.910   0.113   6.336
  431TIP3   OH2 1235   0.782   3.826   3.770
  431TIP3    H1 1236   0.722   3.753   3.785
  431TIP3    H2 1237   0.865   3.797   3.809
  432TIP3   OH2 1238   7.055   0.565   4.756
  432TIP3    H1 1239   7.015   0.479   4.746
  432TIP3    H2 1240   7.149   0.549   4.755
  433TIP3   OH2 1241   7.174   6.031   4.328
  433TIP3    H1 1242   7.194   6.119   4.361
  433TIP3    H2 1243   7.086   6.013   4.362
  434TIP3   OH2 1244   5.360   0.640   2.165
  434TIP3    H1 1245   5.374   0.633   2.260
  434TIP3    H2 1246   5.267   0.620   2.153
  435TIP3   OH2 1247   5.956   6.007   6.025
  435TIP3    H1 1248   5.916   5.941   6.082
  435TIP3    H2 1249   5.917   6.090   6.052
  436TIP3   OH2 1250   5.386   2.544   6.741
  436TIP3    H1 1251   5.374   2.626   6.693
  436TIP3    H2 1252   5.305   2.495   6.725
  437TIP3   OH2 1253   7.826   5.606   6.448
  437TIP3    H1 1254   7.917   5.586   6.428
  437TIP3    H2 1255   7.827   5.629   6.541
  438TIP3   OH2 1256   4.138   0.871   5.449
  438TIP3    H1 1257   4.227   0.870   5.415
  438TIP3    H2 1258   4.083   0.866   5.370
  439TIP3   OH2 1259   1.903   3.676   0.514
  439TIP3    H1 1260   1.916   3.762   0.474
  439TIP3    H2 1261   1.892   3.617   0.440
  440TIP3   OH2 1262   3.903   7.454   1.096
  440TIP3    H1 1263   3.959   7.447   1.174
  440TIP3    H2 1264   3.950   7.515   1.039
  441TIP3   OH2 1265   2.061   0.309   3.597
  441TIP3    H1 1266   1.975   0.344   3.622
  441TIP3    H2 1267   2.044   0.216   3.579
  442TIP3   OH2 1268   6.872   3.576   1.889
  442TIP3    H1 1269   6.780   3.594   1.870
  442TIP3    H2 1270   6.912   3.662   1.899
  443TIP3   OH2 1271   2.867   1.817   3.170
  443TIP3    H1 1272   2.883   1.905   3.204
  443TIP3    H2 1273   2.826   1.770   3.242
  444TIP3   OH2 1274   7.105   7.508   2.715
  444TIP3    H1 1275   7.190   7.470   2.736
  444TIP3    H2 1276   7.068   7.450   2.648
  445TIP3   OH2 1277   2.944   7.088   2.162
  445TIP3    H1 1278   3.004   7.025   2.201
  445TIP3    H2 1279   2.891   7.037   2.101
  446TIP3   OH2 1280   2.463   1.933   5.958
  446TIP3    H1 1281   2.488   1.989   5.885
  446TIP3    H2 1282   2.381   1.892   5.929
  447TIP3   OH2 1283   5.236   7.150   1.981
  447TIP3    H1 1284   5.270   7.158   1.892
  447TIP3    H2 1285   5.240   7.238   2.017
  448TIP3   OH2 1286   3.537   1.778   3.277
  448TIP3    H1 1287   3.553   1.687   3.300
  448TIP3    H2 1288   3.489   1.813   3.353
  449TIP3   OH2 1289   4.351   7.394   6.069
  449TIP3    H1 1290   4.428   7.397   6.012
  449TIP3    H2 1291   4.309   7.479   6.057
  450TIP3   OH2 1292   7.406   5.704   6.200
  450TIP3    H1 1293   7.487   5.751   6.222
  450TIP3    H2 1294   7.429   5.612   6.207
  451TIP3   OH2 1295   4.971   6.449   5.122
  451TIP3    H1 1296   5.048   6.482   5.077
  451TIP3    H2 1297   4.913   6.524   5.129
  452TIP3   OH2 1298   5.617   4.368   2.684
  452TIP3    H1 1299   5.635   4.313   2.760
  452TIP3    H2 1300   5.636   4.311   2.609
  453TIP3   OH2 1301   3.070   1.722   1.361
  453TIP3    H1 1302   3.019   1.767   1.294
  453TIP3    H2 1303   3.161   1.741   1.339
  454TIP3   OH2 1304   4.962   6.078   1.203
  454TIP3    H1 1305   4.983   6.161   1.160
  454TIP3    H2 1306   4.867   6.071   1.194
  455TIP3   OH2 1307   2.352   5.179   3.543
  455TIP3    H1 1308   2.284   5.112   3.551
  455TIP3    H2 1309   2.310   5.249   3.494
  456TIP3   OH2 1310   5.509   0.490   1.201
  456TIP3    H1 1311   5.603   0.478   1.184
  456TIP3    H2 1312   5.505   0.534   1.286
  457TIP3   OH2 1313   1.166   0.098   4.392
  457TIP3    H1 1314   1.124   0.013   4.382
  457TIP3    H2 1315   1.216   0.110   4.311
  458TIP3   OH2 1316   2.220   4.374   2.156
  458TIP3    H1 1317   2.204   4.372   2.250
  458TIP3    H2 1318   2.177   4.453   2.126
  459TIP3   OH2 1319   0.172   6.470   0.831
  459TIP3    H1 1320   0.186   6.472   0.736
  459TIP3    H2 1321   0.254   6.504   0.868
  460TIP3   OH2 1322   0.335   0.462   0.855
  460TIP3    H1 1323   0.305   0.535   0.909
  460TIP3    H2 1324   0.418   0.435   0.895
  461TIP3   OH2 1325   2.661   3.374   2.062
  461TIP3    H1 1326   2.716   3.344   2.135
  461TIP3    H2 1327   2.639   3.464   2.084
  462TIP3   OH2 1328   4.458   2.781   5.565
  462TIP3    H1 1329   4.461   2.760   5.472
  462TIP3    H2 1330   4.534   2.736   5.602
  463TIP3   OH2 1331   5.868   7.068   0.532
  463TIP3    H1 1332   5.787   7.118   0.536
  463TIP3    H2 1333   5.893   7.056   0.624
  464TIP3   OH2 1334   6.114   4.908   2.028
  464TIP3    H1 1335   6.160   4.992   2.020
  464TIP3    H2 1336   6.095   4.882   1.938
  465TIP3   OH2 1337   2.530   1.301   3.357
  465TIP3    H1 1338   2.582   1.236   3.404
  465TIP3    H2 1339   2.505   1.365   3.423
  466TIP3   OH2 1340   5.927   1.620   0.075
  466TIP3    H1 1341   5.871   1.543   0.084
  466TIP3    H2 1342   5.880   1.690   0.122
  467TIP3   OH2 1343   7.578   5.207   0.509
  467TIP3    H1 1344   7.517   5.180   0.577
  467TIP3    H2 1345   7.537   5.182   0.427
  468TIP3   OH2 1346   1.065   4.830   5.092
  468TIP3    H1 1347   1.016   4.860   5.168
  468TIP3    H2 1348   1.016   4.863   5.017
  469TIP3   OH2 1349   4.405   2.358   5.498
  469TIP3    H1 1350   4.451   2.420   5.554
  469TIP3    H2 1351   4.339   2.318   5.555
  470TIP3   OH2 1352   1.210   3.490   3.148
  470TIP3    H1 1353   1.163   3.567   3.114
  470TIP3    H2 1354   1.194   3.422   3.082
  471TIP3   OH2 1355   3.905   3.819   6.208
  471TIP3    H1 1356   3.827   3.764   6.217
  471TIP3    H2 1357   3.958   3.775   6.142
  472TIP3   OH2 1358   8.248   7.729   0.173
  472TIP3    H1 1359   8.272   7.816   0.204
  472TIP3    H2 1360   8.286   7.669   0.237
  473TIP3   OH2 1361   3.511   1.933   1.882
  473TIP3    H1 1362   3.524   2.007   1.823
  473TIP3    H2 1363   3.468   1.866   1.828
  474TIP3   OH2 1364   7.930   1.210   1.722
  474TIP3    H1 1365   7.878   1.212   1.642
  474TIP3    H2 1366   7.930   1.118   1.748
  475TIP3   OH2 1367   2.320   3.696   4.062
  475TIP3    H1 1368   2.366   3.635   4.120
  475TIP3    H2 1369   2.308   3.775   4.114
  476TIP3   OH2 1370   5.590   7.161   1.108
  476TIP3    H1 1371   5.566   7.251   1.130
  476TIP3    H2 1372   5.508   7.121   1.081
  477TIP3   OH2 1373   6.305   3.498   4.127
  477TIP3    H1 1374   6.292   3.405   4.108
  477TIP3    H2 1375   6.329   3.501   4.220
  478TIP3   OH2 1376   6.570   3.747   1.946
  478TIP3    H1 1377   6.589   3.805   1.872
  478TIP3    H2 1378   6.521   3.801   2.007
  479TIP3   OH2 1379   7.826   1.730   2.582
  479TIP3    H1 1380   7.792   1.728   2.672
  479TIP3    H2 1381   7.911   1.774   2.590
  480TIP3   OH2 1382   0.059   7.707   2.607
  480TIP3    H1 1383   0.019   7.760   2.538
  480TIP3    H2 1384   0.131   7.661   2.563
  481TIP3   OH2 1385   2.310   3.853   3.018
  481TIP3    H1 1386   2.221   3.885   3.005
  481TIP3    H2 1387   2.363   3.905   2.957
  482TIP3   OH2 1388   5.359   2.725   3.298
  482TIP3    H1 1389   5.351   2.664   3.372
  482TIP3    H2 1390   5.332   2.809   3.334
  483TIP3   OH2 1391   4.193   6.271   1.308
  483TIP3    H1 1392   4.129   6.259   1.238
  483TIP3    H2 1393   4.241   6.350   1.284
  484TIP3   OH2 1394   4.565   0.783   3.639
  484TIP3    H1 1395   4.573   0.784   3.734
  484TIP3    H2 1396   4.537   0.693   3.619
  485TIP3   OH2 1397   4.845   4.426   5.625
  485TIP3    H1 1398   4.838   4.522   5.625
  485TIP3    H2 1399   4.930   4.409   5.665
  486TIP3   OH2 1400   3.008   2.428   6.260
  486TIP3    H1 1401   3.020   2.417   6.166
  486TIP3    H2 1402   2.988   2.340   6.292
  487TIP3   OH2 1403   5.329   6.320   1.675
  487TIP3    H1 1404   5.293   6.232   1.660
  487TIP3    H2 1405   5.380   6.338   1.596
  488TIP3   OH2 1406   5.966   3.124   1.161
  488TIP3    H1 1407   5.891   3.177   1.136
  488TIP3    H2 1408   5.986   3.150   1.251
  489TIP3   OH2 1409   1.364   5.547   3.103
  489TIP3    H1 1410   1.435   5.520   3.044
  489TIP3    H2 1411   1.284   5.537   3.051
  490TIP3   OH2 1412   1.536   3.125   4.691
  490TIP3    H1 1413   1.488   3.091   4.615
  490TIP3    H2 1414   1.552   3.048   4.745
  491TIP3   OH2 1415   6.224   6.940   6.713
  491TIP3    H1 1416   6.257   6.851   6.708
  491TIP3    H2 1417   6.132   6.931   6.738
  492TIP3   OH2 1418   4.551   2.410   2.025
  492TIP3    H1 1419   4.504   2.486   2.059
  492TIP3    H2 1420   4.553   2.423   1.931
  493TIP3   OH2 1421   5.663   7.393   3.160
  493TIP3    H1 1422   5.591   7.440   3.118
  493TIP3    H2 1423   5.624   7.352   3.237
  494TIP3   OH2 1424   2.035   7.322   3.545
  494TIP3    H1 1425   1.998   7.301   3.631
  494TIP3    H2 1426   2.069   7.239   3.513
  495TIP3   OH2 1427   0.983   1.138   0.134
  495TIP3    H1 1428   0.939   1.061   0.098
  495TIP3    H2 1429   1.045   1.164   0.065
  496TIP3   OH2 1430   2.752   7.078   4.831
  496TIP3    H1 1431   2.783   6.994   4.798
  496TIP3    H2 1432   2.763   7.138   4.758
  497TIP3   OH2 1433   4.584   1.697   1.064
  497TIP3    H1 1434   4.490   1.686   1.082
  497TIP3    H2 1435   4.622   1.611   1.080
  498TIP3   OH2 1436   6.528   1.851   5.735
  498TIP3    H1 1437   6.537   1.941   5.765
  498TIP3    H2 1438   6.615   1.813   5.748
  499TIP3   OH2 1439   4.237   3.912   1.749
  499TIP3    H1 1440   4.183   3.913   1.828
  499TIP3    H2 1441   4.277   3.825   1.748
  500TIP3   OH2 1442   0.727   4.535   2.215
  500TIP3    H1 1443   0.775   4.504   2.138
  500TIP3    H2 1444   0.787   4.521   2.288
  501TIP3   OH2 1445   2.800   4.687   3.291
  501TIP3    H1 1446   2.787   4.739   3.213
  501TIP3    H2 1447   2.843   4.607   3.260
  502TIP3   OH2 1448   1.956   5.210   5.538
  502TIP3    H1 1449   1.962   5.302   5.510
  502TIP3    H2 1450   2.009   5.207   5.618
  503TIP3   OH2 1451   5.064   6.318   2.050
  503TIP3    H1 1452   5.126   6.391   2.057
  503TIP3    H2 1453   5.092   6.256   2.119
  504TIP3   OH2 1454   1.582   1.571   2.063
  504TIP3    H1 1455   1.563   1.641   2.126
  504TIP3    H2 1456   1.519   1.503   2.085
  505TIP3   OH2 1457   1.943   6.074   5.865
  505TIP3    H1 1458   1.876   6.037   5.922
  505TIP3    H2 1459   2.000   6.123   5.924
  506TIP3   OH2 1460   4.866   6.832   4.337
  506TIP3    H1 1461   4.905   6.917   4.313
  506TIP3    H2 1462   4.774   6.852   4.352
  507TIP3   OH2 1463   8.214   5.152   1.833
  507TIP3    H1 1464   8.300   5.193   1.841
  507TIP3    H2 1465   8.204   5.138   1.739
  508TIP3   OH2 1466   0.694   7.298   0.522
  508TIP3    H1 1467   0.685   7.369   0.585
  508TIP3    H2 1468   0.765   7.243   0.556
  509TIP3   OH2 1469   8.030   0.144   4.743
  509TIP3    H1 1470   8.017   0.238   4.733
  509TIP3    H2 1471   8.119   0.128   4.711
  510TIP3   OH2 1472   7.394   7.699   5.979
  510TIP3    H1 1473   7.360   7.670   5.895
  510TIP3    H2 1474   7.332   7.766   6.009
  511TIP3   OH2 1475   5.199   2.666   4.481
  511TIP3    H1 1476   5.200   2.578   4.519
  511TIP3    H2 1477   5.255   2.718   4.539
  512TIP3   OH2 1478   4.412   7.051   6.355
  512TIP3    H1 1479   4.330   7.051   6.405
  512TIP3    H2 1480   4.428   7.144   6.337
  513TIP3   OH2 1481   6.926   4.628   2.030
  513TIP3    H1 1482   6.999   4.577   2.066
  513TIP3    H2 1483   6.959   4.717   2.024
  514TIP3   OH2 1484   0.247   5.066   0.795
  514TIP3    H1 1485   0.203   5.053   0.711
  514TIP3    H2 1486   0.265   4.977   0.827
  515TIP3   OH2 1487   5.744   5.298   6.370
  515TIP3    H1 1488   5.806   5.240   6.416
  515TIP3    H2 1489   5.710   5.356   6.439
  516TIP3   OH2 1490   3.922   5.606   5.478
  516TIP3    H1 1491   3.996   5.624   5.536
  516TIP3    H2 1492   3.853   5.576   5.536
  517TIP3   OH2 1493   4.290   3.307   4.961
  517TIP3    H1 1494   4.211   3.274   5.003
  517TIP3    H2 1495   4.353   3.318   5.033
  518TIP3   OH2 1496   6.327   5.764   4.340
  518TIP3    H1 1497   6.393   5.776   4.273
  518TIP3    H2 1498   6.368   5.707   4.405
  519TIP3   OH2 1499   7.880   2.610   6.635
  519TIP3    H1 1500   7.800   2.564   6.660
  519TIP3    H2 1501   7.943   2.540   6.617
  520TIP3   OH2 1502   1.346   6.756   3.107
  520TIP3    H1 1503   1.253   6.775   3.100
  520TIP3    H2 1504   1.379   6.763   3.017
  521TIP3   OH2 1505   2.053   1.472   3.314
  521TIP3    H1 1506   2.100   1.524   3.379
  521TIP3    H2 1507   1.989   1.422   3.364
  522TIP3   OH2 1508   3.210   1.412   2.207
  522TIP3    H1 1509   3.242   1.384   2.293
  522TIP3    H2 1510   3.230   1.506   2.204
  523TIP3   OH2 1511   7.336   7.440   1.442
  523TIP3    H1 1512   7.410   7.404   1.491
  523TIP3    H2 1513   7.326   7.529   1.475
  524TIP3   OH2 1514   4.694   3.685   2.927
  524TIP3    H1 1515   4.622   3.661   2.868
  524TIP3    H2 1516   4.764   3.624   2.905
  525TIP3   OH2 1517   5.260   2.106   2.600
  525TIP3    H1 1518   5.224   2.184   2.644
  525TIP3    H2 1519   5.323   2.141   2.537
  526TIP3   OH2 1520   7.124   2.350   0.402
  526TIP3    H1 1521   7.091   2.410   0.336
  526TIP3    H2 1522   7.108   2.263   0.365
  527TIP3   OH2 1523   2.893   5.028   0.178
  527TIP3    H1 1524   2.946   4.994   0.250
  527TIP3    H2 1525   2.814   4.975   0.180
  528TIP3   OH2 1526   7.773   7.780   5.467
  528TIP3    H1 1527   7.799   7.852   5.408
  528TIP3    H2 1528   7.698   7.814   5.515
  529TIP3   OH2 1529   6.286   3.390   2.760
  529TIP3    H1 1530   6.296   3.403   2.855
  529TIP3    H2 1531   6.372   3.358   2.731
  530TIP3   OH2 1532   6.333   7.662   4.596
  530TIP3    H1 1533   6.383   7.602   4.650
  530TIP3    H2 1534   6.395   7.690   4.528
  531TIP3   OH2 1535   6.231   7.072   6.466
  531TIP3    H1 1536   6.160   7.133   6.445
  531TIP3    H2 1537   6.235   7.072   6.561
  532TIP3   OH2 1538   5.315   5.673   5.359
  532TIP3    H1 1539   5.392   5.686   5.303
  532TIP3    H2 1540   5.261   5.610   5.312
  533TIP3   OH2 1541   3.128   6.020   2.348
  533TIP3    H1 1542   3.112   5.959   2.276
  533TIP3    H2 1543   3.040   6.042   2.380
  534TIP3   OH2 1544   0.853   4.375   5.186
  534TIP3    H1 1545   0.946   4.351   5.192
  534TIP3    H2 1546   0.850   4.436   5.112
  535TIP3   OH2 1547   1.093   0.651   3.586
  535TIP3    H1 1548   1.033   0.582   3.559
  535TIP3    H2 1549   1.171   0.637   3.533
  536TIP3   OH2 1550   0.965   4.320   0.072
  536TIP3    H1 1551   0.967   4.276  -0.013
  536TIP3    H2 1552   0.873   4.326   0.094
  537TIP3   OH2 1553   4.799   3.318   0.819
  537TIP3    H1 1554   4.876   3.325   0.875
  537TIP3    H2 1555   4.725   3.326   0.879
  538TIP3   OH2 1556   7.558   3.076   1.494
  538TIP3    H1 1557   7.558   2.987   1.459
  538TIP3    H2 1558   7.522   3.067   1.583
  539TIP3   OH2 1559   0.257   2.562   1.878
  539TIP3    H1 1560   0.243   2.623   1.805
  539TIP3    H2 1561   0.342   2.521   1.859
  540TIP3   OH2 1562   2.779   6.844   3.559
  540TIP3    H1 1563   2.735   6.912   3.509
  540TIP3    H2 1564   2.872   6.865   3.552
  541TIP3   OH2 1565   3.415   0.194   2.405
  541TIP3    H1 1566   3.461   0.158   2.329
  541TIP3    H2 1567   3.397   0.118   2.460
  542TIP3   OH2 1568   2.817   4.438   6.526
  542TIP3    H1 1569   2.879   4.496   6.481
  542TIP3    H2 1570   2.779   4.493   6.595
  543TIP3   OH2 1571   5.209   6.147   0.589
  543TIP3    H1 1572   5.119   6.171   0.570
  543TIP3    H2 1573   5.251   6.230   0.614
  544TIP3   OH2 1574   2.849   0.773   2.091
  544TIP3    H1 1575   2.767   0.782   2.044
  544TIP3    H2 1576   2.872   0.863   2.117
  545TIP3   OH2 1577   8.027   6.854   3.714
  545TIP3    H1 1578   8.049   6.927   3.656
  545TIP3    H2 1579   8.072   6.874   3.796
  546TIP3   OH2 1580   5.092   5.731   2.975
  546TIP3    H1 1581   5.163   5.737   2.910
  546TIP3    H2 1582   5.133   5.689   3.051
  547TIP3   OH2 1583   5.643   4.348   5.072
  547TIP3    H1 1584   5.714   4.291   5.042
  547TIP3    H2 1585   5.626   4.320   5.162
  548TIP3   OH2 1586   7.220   5.206   0.227
  548TIP3    H1 1587   7.149   5.234   0.286
  548TIP3    H2 1588   7.237   5.283   0.173
  549TIP3   OH2 1589   3.455   2.764   4.120
  549TIP3    H1 1590   3.422   2.848   4.151
  549TIP3    H2 1591   3.391   2.700   4.150
  550TIP3   OH2 1592   7.607   4.631   6.056
  550TIP3    H1 1593   7.666   4.561   6.026
  550TIP3    H2 1594   7.657   4.677   6.124
  551TIP3   OH2 1595   1.486   4.849   3.846
  551TIP3    H1 1596   1.534   4.772   3.874
  551TIP3    H2 1597   1.513   4.918   3.907
  552TIP3   OH2 1598   3.022   3.496   0.403
  552TIP3    H1 1599   3.079   3.426   0.435
  552TIP3    H2 1600   2.937   3.478   0.442
  553TIP3   OH2 1601   2.225   0.114   2.196
  553TIP3    H1 1602   2.174   0.055   2.251
  553TIP3    H2 1603   2.171   0.193   2.190
  554TIP3   OH2 1604   4.751   1.276   0.244
  554TIP3    H1 1605   4.695   1.335   0.194
  554TIP3    H2 1606   4.839   1.291   0.209
  555TIP3   OH2 1607   5.933   5.051   4.533
  555TIP3    H1 1608   5.902   4.966   4.565
  555TIP3    H2 1609   5.925   5.046   4.438
  556TIP3   OH2 1610   8.018   3.112   6.606
  556TIP3    H1 1611   8.009   3.207   6.614
  556TIP3    H2 1612   7.928   3.081   6.590
  557TIP3   OH2 1613   7.965   4.161   1.190
  557TIP3    H1 1614   7.985   4.075   1.226
  557TIP3    H2 1615   7.977   4.221   1.264
  558TIP3   OH2 1616   2.210   0.206   4.273
  558TIP3    H1 1617   2.221   0.163   4.358
  558TIP3    H2 1618   2.254   0.290   4.282
  559TIP3   OH2 1619   3.512   2.880   1.368
  559TIP3    H1 1620   3.478   2.954   1.418
  559TIP3    H2 1621   3.585   2.916   1.317
  560TIP3   OH2 1622   3.100   5.860   3.680
  560TIP3    H1 1623   3.147   5.787   3.640
  560TIP3    H2 1624   3.163   5.932   3.679
  561TIP3   OH2 1625   8.109   1.483   3.690
  561TIP3    H1 1626   8.176   1.426   3.728
  561TIP3    H2 1627   8.120   1.474   3.596
  562TIP3   OH2 1628   2.999   6.442   0.824
  562TIP3    H1 1629   3.063   6.432   0.895
  562TIP3    H2 1630   3.050   6.475   0.750
  563TIP3   OH2 1631   6.845   2.606   6.123
  563TIP3    H1 1632   6.794   2.677   6.160
  563TIP3    H2 1633   6.888   2.644   6.047
  564TIP3   OH2 1634   4.433   6.566   4.983
  564TIP3    H1 1635   4.444   6.473   5.002
  564TIP3    H2 1636   4.349   6.571   4.936
  565TIP3   OH2 1637   7.912   2.844   6.060
  565TIP3    H1 1638   7.974   2.882   6.122
  565TIP3    H2 1639   7.844   2.806   6.116
  566TIP3   OH2 1640   1.544   3.306   2.976
  566TIP3    H1 1641   1.513   3.347   3.056
  566TIP3    H2 1642   1.622   3.257   3.003
  567TIP3   OH2 1643   1.327   2.441   0.426
  567TIP3    H1 1644   1.377   2.499   0.368
  567TIP3    H2 1645   1.328   2.356   0.381
  568TIP3   OH2 1646   0.270   2.002   3.730
  568TIP3    H1 1647   0.258   2.095   3.747
  568TIP3    H2 1648   0.246   1.959   3.812
  569TIP3   OH2 1649   1.765   4.296   6.388
  569TIP3    H1 1650   1.811   4.218   6.419
  569TIP3    H2 1651   1.730   4.270   6.302
  570TIP3   OH2 1652   2.617   2.856   4.778
  570TIP3    H1 1653   2.612   2.763   4.800
  570TIP3    H2 1654   2.711   2.875   4.775
  571TIP3   OH2 1655   8.006   2.284   1.176
  571TIP3    H1 1656   7.983   2.194   1.151
  571TIP3    H2 1657   8.029   2.326   1.093
  572TIP3   OH2 1658   3.794   0.852   6.342
  572TIP3    H1 1659   3.699   0.845   6.339
  572TIP3    H2 1660   3.825   0.780   6.287
  573TIP3   OH2 1661   3.209   3.155   5.535
  573TIP3    H1 1662   3.244   3.205   5.609
  573TIP3    H2 1663   3.281   3.153   5.472
  574TIP3   OH2 1664   3.984   2.257   1.919
  574TIP3    H1 1665   3.895   2.293   1.920
  574TIP3    H2 1666   4.037   2.323   1.875
  575TIP3   OH2 1667   2.732   2.899   6.352
  575TIP3    H1 1668   2.734   2.977   6.408
  575TIP3    H2 1669   2.682   2.927   6.275
  576TIP3   OH2 1670   2.093   3.557   5.141
  576TIP3    H1 1671   2.081   3.591   5.052
  576TIP3    H2 1672   2.166   3.607   5.176
  577TIP3   OH2 1673   4.310   1.779   3.322
  577TIP3    H1 1674   4.228   1.742   3.290
  577TIP3    H2 1675   4.298   1.787   3.416
  578TIP3   OH2 1676   3.546   2.031   4.523
  578TIP3    H1 1677   3.636   1.999   4.530
  578TIP3    H2 1678   3.524   2.020   4.430
  579TIP3   OH2 1679   3.382   4.832   0.059
  579TIP3    H1 1680   3.302   4.866   0.097
  579TIP3    H2 1681   3.386   4.741   0.088
  580TIP3   OH2 1682   2.536   5.664   4.807
  580TIP3    H1 1683   2.531   5.751   4.845
  580TIP3    H2 1684   2.612   5.623   4.848
  581TIP3   OH2 1685   5.548   2.595   2.274
  581TIP3    H1 1686   5.633   2.616   2.312
  581TIP3    H2 1687   5.522   2.675   2.230
  582TIP3   OH2 1688   0.079   4.239   2.382
  582TIP3    H1 1689   0.056   4.329   2.405
  582TIP3    H2 1690   0.144   4.213   2.447
  583TIP3   OH2 1691   2.062   7.206   6.122
  583TIP3    H1 1692   2.127   7.275   6.136
  583TIP3    H2 1693   2.114   7.125   6.120
  584TIP3   OH2 1694   4.653   6.015   4.677
  584TIP3    H1 1695   4.575   5.995   4.728
  584TIP3    H2 1696   4.621   6.028   4.588
  585TIP3   OH2 1697   5.210   5.875   0.611
  585TIP3    H1 1698   5.179   5.857   0.523
  585TIP3    H2 1699   5.222   5.970   0.614
  586TIP3   OH2 1700   5.749   6.182   0.340
  586TIP3    H1 1701   5.737   6.221   0.426
  586TIP3    H2 1702   5.664   6.192   0.297
  587TIP3   OH2 1703   1.212   6.960   1.661
  587TIP3    H1 1704   1.196   6.867   1.678
  587TIP3    H2 1705   1.125   6.996   1.644
  588TIP3   OH2 1706   3.755   5.335   1.621
  588TIP3    H1 1707   3.807   5.397   1.571
  588TIP3    H2 1708   3.816   5.264   1.644
  589TIP3   OH2 1709   4.053   2.905   3.209
  589TIP3    H1 1710   3.959   2.905   3.194
  589TIP3    H2 1711   4.071   2.989   3.252
  590TIP3   OH2 1712   7.572   6.104   5.167
  590TIP3    H1 1713   7.548   6.157   5.243
  590TIP3    H2 1714   7.659   6.135   5.142
  591TIP3   OH2 1715   3.872   6.757   2.476
  591TIP3    H1 1716   3.871   6.684   2.414
  591TIP3    H2 1717   3.861   6.834   2.421
  592TIP3   OH2 1718   7.395   2.554   4.631
  592TIP3    H1 1719   7.464   2.524   4.571
  592TIP3    H2 1720   7.315   2.551   4.578
  593TIP3   OH2 1721   5.981   5.340   4.281
  593TIP3    H1 1722   5.899   5.314   4.240
  593TIP3    H2 1723   6.024   5.396   4.217
  594TIP3   OH2 1724   3.250   6.156   2.724
  594TIP3    H1 1725   3.290   6.119   2.803
  594TIP3    H2 1726   3.157   6.165   2.745
  595TIP3   OH2 1727   6.809   5.553   0.055
  595TIP3    H1 1728   6.814   5.474   0.108
  595TIP3    H2 1729   6.772   5.619   0.113
  596TIP3   OH2 1730   1.196   4.258   1.275
  596TIP3    H1 1731   1.280   4.291   1.244
  596TIP3    H2 1732   1.161   4.209   1.200
  597TIP3   OH2 1733   7.145   7.163   3.802
  597TIP3    H1 1734   7.109   7.133   3.718
  597TIP3    H2 1735   7.083   7.130   3.867
  598TIP3   OH2 1736   2.712   2.660   1.884
  598TIP3    H1 1737   2.658   2.681   1.808
  598TIP3    H2 1738   2.797   2.637   1.847
  599TIP3   OH2 1739   4.065   1.405   2.664
  599TIP3    H1 1740   4.100   1.415   2.576
  599TIP3    H2 1741   4.059   1.310   2.676
  600TIP3   OH2 1742   4.222   4.613   4.002
  600TIP3    H1 1743   4.243   4.521   3.987
  600TIP3    H2 1744   4.192   4.645   3.917
  601TIP3   OH2 1745   6.855   6.076   3.959
  601TIP3    H1 1746   6.765   6.065   3.928
  601TIP3    H2 1747   6.908   6.023   3.899
  602TIP3   OH2 1748   2.339   5.282   2.431
  602TIP3    H1 1749   2.297   5.359   2.393
  602TIP3    H2 1750   2.365   5.310   2.519
  603TIP3   OH2 1751   1.845   7.181   4.859
  603TIP3    H1 1752   1.837   7.230   4.777
  603TIP3    H2 1753   1.896   7.238   4.916
  604TIP3   OH2 1754   2.752   4.495   4.678
  604TIP3    H1 1755   2.742   4.587   4.703
  604TIP3    H2 1756   2.786   4.453   4.757
  605TIP3   OH2 1757   3.729   5.851   2.806
  605TIP3    H1 1758   3.734   5.872   2.712
  605TIP3    H2 1759   3.678   5.770   2.809
  606TIP3   OH2 1760   0.499   3.696   5.242
  606TIP3    H1 1761   0.471   3.787   5.254
  606TIP3    H2 1762   0.545   3.674   5.323
  607TIP3   OH2 1763   2.079   6.757   4.679
  607TIP3    H1 1764   2.072   6.763   4.774
  607TIP3    H2 1765   1.998   6.796   4.647
  608TIP3   OH2 1766   3.269   5.376   0.151
  608TIP3    H1 1767   3.329   5.338   0.087
  608TIP3    H2 1768   3.215   5.303   0.181
  609TIP3   OH2 1769   5.944   2.441   5.358
  609TIP3    H1 1770   6.000   2.393   5.298
  609TIP3    H2 1771   5.855   2.416   5.332
  610TIP3   OH2 1772   7.003   5.057   6.535
  610TIP3    H1 1773   7.026   5.148   6.557
  610TIP3    H2 1774   7.073   5.027   6.479
  611TIP3   OH2 1775   4.961   6.832   6.044
  611TIP3    H1 1776   5.040   6.815   5.992
  611TIP3    H2 1777   4.957   6.759   6.105
  612TIP3   OH2 1778   5.554   7.204   6.426
  612TIP3    H1 1779   5.483   7.144   6.402
  612TIP3    H2 1780   5.566   7.191   6.520
  613TIP3   OH2 1781   0.588   6.473   6.694
  613TIP3    H1 1782   0.500   6.441   6.674
  613TIP3    H2 1783   0.592   6.560   6.654
  614TIP3   OH2 1784   7.199   0.566   0.699
  614TIP3    H1 1785   7.167   0.627   0.633
  614TIP3    H2 1786   7.155   0.591   0.779
  615TIP3   OH2 1787   2.413   3.460   2.699
  615TIP3    H1 1788   2.361   3.538   2.718
  615TIP3    H2 1789   2.358   3.407   2.641
  616TIP3   OH2 1790   6.660   5.491   4.789
  616TIP3    H1 1791   6.630   5.545   4.716
  616TIP3    H2 1792   6.635   5.402   4.764
  617TIP3   OH2 1793   1.648   0.265   1.818
  617TIP3    H1 1794   1.671   0.345   1.772
  617TIP3    H2 1795   1.635   0.292   1.909
  618TIP3   OH2 1796   2.808   0.148   0.324
  618TIP3    H1 1797   2.780   0.238   0.337
  618TIP3    H2 1798   2.865   0.151   0.248
  619TIP3   OH2 1799   1.646   4.584   1.785
  619TIP3    H1 1800   1.655   4.497   1.747
  619TIP3    H2 1801   1.735   4.611   1.805
  620TIP3   OH2 1802   0.853   0.602   4.635
  620TIP3    H1 1803   0.810   0.585   4.552
  620TIP3    H2 1804   0.945   0.616   4.613
  621TIP3   OH2 1805   7.443   2.311   5.420
  621TIP3    H1 1806   7.363   2.307   5.473
  621TIP3    H2 1807   7.457   2.221   5.391
  622TIP3   OH2 1808   2.615   4.822   2.667
  622TIP3    H1 1809   2.530   4.795   2.700
  622TIP3    H2 1810   2.670   4.830   2.746
  623TIP3   OH2 1811   0.945   0.790   3.403
  623TIP3    H1 1812   0.993   0.768   3.483
  623TIP3    H2 1813   0.945   0.709   3.352
  624TIP3   OH2 1814   1.568   6.401   4.995
  624TIP3    H1 1815   1.595   6.420   4.905
  624TIP3    H2 1816   1.526   6.315   4.989
  625TIP3   OH2 1817   5.412   1.934   5.182
  625TIP3    H1 1818   5.355   1.915   5.107
  625TIP3    H2 1819   5.406   2.029   5.194
  626TIP3   OH2 1820   6.939   5.355   1.871
  626TIP3    H1 1821   6.851   5.319   1.875
  626TIP3    H2 1822   6.991   5.296   1.926
  627TIP3   OH2 1823   0.861   5.809   0.410
  627TIP3    H1 1824   0.844   5.811   0.504
  627TIP3    H2 1825   0.936   5.868   0.398
  628TIP3   OH2 1826   3.048   7.600   1.570
  628TIP3    H1 1827   3.135   7.575   1.604
  628TIP3    H2 1828   2.991   7.595   1.647
  629TIP3   OH2 1829   1.535   2.532   0.951
  629TIP3    H1 1830   1.504   2.449   0.915
  629TIP3    H2 1831   1.591   2.507   1.024
  630TIP3   OH2 1832   5.041   7.387   0.274
  630TIP3    H1 1833   4.983   7.461   0.261
  630TIP3    H2 1834   5.022   7.328   0.201
  631TIP3   OH2 1835   2.684   7.602   0.530
  631TIP3    H1 1836   2.757   7.562   0.577
  631TIP3    H2 1837   2.724   7.651   0.458
  632TIP3   OH2 1838   4.706   7.220   6.162
  632TIP3    H1 1839   4.677   7.129   6.164
  632TIP3    H2 1840   4.740   7.232   6.073
  633TIP3   OH2 1841   1.525   3.699   6.538
  633TIP3    H1 1842   1.519   3.612   6.500
  633TIP3    H2 1843   1.455   3.701   6.603
  634TIP3   OH2 1844   3.617   4.416   4.335
  634TIP3    H1 1845   3.645   4.345   4.392
  634TIP3    H2 1846   3.534   4.387   4.298
  635TIP3   OH2 1847   0.850   5.186   1.945
  635TIP3    H1 1848   0.844   5.177   2.040
  635TIP3    H2 1849   0.886   5.274   1.932
  636TIP3   OH2 1850   3.879   1.997   5.324
  636TIP3    H1 1851   3.870   1.945   5.404
  636TIP3    H2 1852   3.869   2.087   5.353
  637TIP3   OH2 1853   6.086   5.842   3.170
  637TIP3    H1 1854   6.011   5.783   3.171
  637TIP3    H2 1855   6.158   5.791   3.209
  638TIP3   OH2 1856   1.719   6.494   0.229
  638TIP3    H1 1857   1.738   6.420   0.171
  638TIP3    H2 1858   1.689   6.454   0.310
  639TIP3   OH2 1859   2.348   0.132   0.750
  639TIP3    H1 1860   2.399   0.103   0.825
  639TIP3    H2 1861   2.271   0.174   0.787
  640TIP3   OH2 1862   7.769   6.737   6.038
  640TIP3    H1 1863   7.682   6.759   6.072
  640TIP3    H2 1864   7.757   6.653   5.994
  641TIP3   OH2 1865   1.565   5.862   5.735
  641TIP3    H1 1866   1.620   5.826   5.804
  641TIP3    H2 1867   1.515   5.932   5.778
  642TIP3   OH2 1868   5.299   7.595   5.881
  642TIP3    H1 1869   5.266   7.508   5.856
  642TIP3    H2 1870   5.387   7.598   5.843
  643TIP3   OH2 1871   6.713   7.213   2.328
  643TIP3    H1 1872   6.782   7.259   2.281
  643TIP3    H2 1873   6.701   7.131   2.280
  644TIP3   OH2 1874   0.536   2.127   0.334
  644TIP3    H1 1875   0.602   2.080   0.283
  644TIP3    H2 1876   0.454   2.111   0.287
  645TIP3   OH2 1877   7.445   1.667   2.287
  645TIP3    H1 1878   7.387   1.624   2.351
  645TIP3    H2 1879   7.423   1.626   2.203
  646TIP3   OH2 1880   1.236   3.159   1.447
  646TIP3    H1 1881   1.169   3.118   1.502
  646TIP3    H2 1882   1.255   3.242   1.491
  647TIP3   OH2 1883   7.240   6.104   3.204
  647TIP3    H1 1884   7.295   6.046   3.257
  647TIP3    H2 1885   7.268   6.088   3.114
  648TIP3   OH2 1886   4.724   2.239   5.133
  648TIP3    H1 1887   4.680   2.212   5.214
  648TIP3    H2 1888   4.721   2.163   5.076
  649TIP3   OH2 1889   6.714   4.113   1.227
  649TIP3    H1 1890   6.710   4.164   1.307
  649TIP3    H2 1891   6.662   4.035   1.246
  650TIP3   OH2 1892   3.125   2.097   1.131
  650TIP3    H1 1893   3.104   2.044   1.055
  650TIP3    H2 1894   3.089   2.049   1.205
  651TIP3   OH2 1895   4.993   4.297   5.287
  651TIP3    H1 1896   4.899   4.309   5.302
  651TIP3    H2 1897   5.030   4.292   5.375
  652TIP3   OH2 1898   4.517   7.470   0.219
  652TIP3    H1 1899   4.428   7.471   0.254
  652TIP3    H2 1900   4.506   7.485   0.125
  653TIP3   OH2 1901   1.088   2.616   3.615
  653TIP3    H1 1902   1.005   2.629   3.661
  653TIP3    H2 1903   1.098   2.693   3.560
  654TIP3   OH2 1904   2.207   2.177   1.460
  654TIP3    H1 1905   2.234   2.187   1.369
  654TIP3    H2 1906   2.218   2.264   1.499
  655TIP3   OH2 1907   0.135   0.541   2.523
  655TIP3    H1 1908   0.212   0.528   2.578
  655TIP3    H2 1909   0.120   0.636   2.525
  656TIP3   OH2 1910   8.084   2.644   0.173
  656TIP3    H1 1911   8.033   2.660   0.094
  656TIP3    H2 1912   8.170   2.680   0.154
  657TIP3   OH2 1913   1.208   3.983   5.640
  657TIP3    H1 1914   1.181   4.075   5.635
  657TIP3    H2 1915   1.181   3.954   5.727
  658TIP3   OH2 1916   5.202   6.299   5.047
  658TIP3    H1 1917   5.245   6.257   5.120
  658TIP3    H2 1918   5.125   6.245   5.029
  659TIP3   OH2 1919   5.786   3.027   5.833
  659TIP3    H1 1920   5.799   2.934   5.820
  659TIP3    H2 1921   5.772   3.062   5.745
  660TIP3   OH2 1922   2.594   4.305   5.860
  660TIP3    H1 1923   2.634   4.376   5.810
  660TIP3    H2 1924   2.563   4.244   5.794
  661TIP3   OH2 1925   7.444   4.307   2.136
  661TIP3    H1 1926   7.468   4.399   2.129
  661TIP3    H2 1927   7.474   4.281   2.224
  662TIP3   OH2 1928   3.872   5.708   4.869
  662TIP3    H1 1929   3.818   5.778   4.906
  662TIP3    H2 1930   3.929   5.681   4.941
  663TIP3   OH2 1931   6.809   6.451   6.550
  663TIP3    H1 1932   6.841   6.538   6.574
  663TIP3    H2 1933   6.740   6.468   6.486
  664TIP3   OH2 1934   3.152   2.823   4.100
  664TIP3    H1 1935   3.075   2.859   4.144
  664TIP3    H2 1936   3.118   2.758   4.039
  665TIP3   OH2 1937   5.170   1.890   0.417
  665TIP3    H1 1938   5.084   1.925   0.396
  665TIP3    H2 1939   5.171   1.803   0.376
  666TIP3   OH2 1940   8.257   2.684   3.683
  666TIP3    H1 1941   8.315   2.617   3.646
  666TIP3    H2 1942   8.238   2.742   3.609
  667TIP3   OH2 1943   3.064   6.086   6.669
  667TIP3    H1 1944   2.977   6.075   6.629
  667TIP3    H2 1945   3.111   6.007   6.644
  668TIP3   OH2 1946   5.619   5.612   0.104
  668TIP3    H1 1947   5.646   5.702   0.086
  668TIP3    H2 1948   5.576   5.616   0.190
  669TIP3   OH2 1949   5.591   4.561   0.715
  669TIP3    H1 1950   5.552   4.590   0.633
  669TIP3    H2 1951   5.544   4.608   0.783
  670TIP3   OH2 1952   3.402   1.034   3.787
  670TIP3    H1 1953   3.325   1.048   3.843
  670TIP3    H2 1954   3.436   0.949   3.814
  671TIP3   OH2 1955   4.934   7.553   1.077
  671TIP3    H1 1956   4.973   7.591   1.156
  671TIP3    H2 1957   4.912   7.463   1.102
  672TIP3   OH2 1958   0.618   5.485   2.573
  672TIP3    H1 1959   0.651   5.548   2.638
  672TIP3    H2 1960   0.533   5.521   2.546
  673TIP3   OH2 1961   4.152   1.551   1.392
  673TIP3    H1 1962   4.100   1.472   1.374
  673TIP3    H2 1963   4.095   1.606   1.445
  674TIP3   OH2 1964   3.076   0.029   4.619
  674TIP3    H1 1965   3.095   0.112   4.664
  674TIP3    H2 1966   3.094  -0.038   4.685
  675TIP3   OH2 1967   6.404   3.505   1.938
  675TIP3    H1 1968   6.480   3.559   1.919
  675TIP3    H2 1969   6.361   3.548   2.011
  676TIP3   OH2 1970   2.383   5.550   3.740
  676TIP3    H1 1971   2.449   5.503   3.688
  676TIP3    H2 1972   2.356   5.487   3.806
  677TIP3   OH2 1973   2.840   4.886   3.067
  677TIP3    H1 1974   2.934   4.882   3.085
  677TIP3    H2 1975   2.815   4.974   3.097
  678TIP3   OH2 1976   4.832   6.748   0.422
  678TIP3    H1 1977   4.760   6.795   0.381
  678TIP3    H2 1978   4.904   6.811   0.423
  679TIP3   OH2 1979   0.030   1.738   3.052
  679TIP3    H1 1980   0.063   1.793   3.123
  679TIP3    H2 1981   0.099   1.740   2.986
  680TIP3   OH2 1982   0.888   3.628   3.591
  680TIP3    H1 1983   0.899   3.711   3.636
  680TIP3    H2 1984   0.918   3.644   3.502
  681TIP3   OH2 1985   2.283   6.263   4.139
  681TIP3    H1 1986   2.323   6.235   4.221
  681TIP3    H2 1987   2.299   6.357   4.135
  682TIP3   OH2 1988   7.421   0.372   2.795
  682TIP3    H1 1989   7.478   0.356   2.719
  682TIP3    H2 1990   7.478   0.414   2.859
  683TIP3   OH2 1991   2.289   3.362   0.542
  683TIP3    H1 1992   2.210   3.386   0.590
  683TIP3    H2 1993   2.267   3.376   0.450
  684TIP3   OH2 1994   4.447   6.724   6.697
  684TIP3    H1 1995   4.424   6.786   6.628
  684TIP3    H2 1996   4.512   6.770   6.749
  685TIP3   OH2 1997   3.395   5.702   3.633
  685TIP3    H1 1998   3.414   5.608   3.636
  685TIP3    H2 1999   3.359   5.721   3.719
  686TIP3   OH2 2000   6.562   0.927   1.570
  686TIP3    H1 2001   6.577   1.006   1.622
  686TIP3    H2 2002   6.646   0.880   1.575
  687TIP3   OH2 2003   0.005   1.268   6.102
  687TIP3    H1 2004   0.086   1.224   6.078
  687TIP3    H2 2005   0.017   1.292   6.194
  688TIP3   OH2 2006   4.114   2.831   3.599
  688TIP3    H1 2007   4.075   2.859   3.681
  688TIP3    H2 2008   4.178   2.899   3.578
  689TIP3   OH2 2009   5.592   0.922   6.535
  689TIP3    H1 2010   5.615   0.852   6.473
  689TIP3    H2 2011   5.670   0.976   6.540
  690TIP3   OH2 2012   7.797   0.440   1.148
  690TIP3    H1 2013   7.721   0.478   1.191
  690TIP3    H2 2014   7.849   0.515   1.120
  691TIP3   OH2 2015   0.915   2.233   2.616
  691TIP3    H1 2016   0.906   2.256   2.708
  691TIP3    H2 2017   0.903   2.138   2.613
  692TIP3   OH2 2018   0.563   2.392   6.175
  692TIP3    H1 2019   0.495   2.458   6.170
  692TIP3    H2 2020   0.556   2.343   6.093
  693TIP3   OH2 2021   1.888   4.911   1.838
  693TIP3    H1 2022   1.938   4.932   1.917
  693TIP3    H2 2023   1.884   4.815   1.837
  694TIP3   OH2 2024   2.130   7.086   3.429
  694TIP3    H1 2025   2.176   7.067   3.347
  694TIP3    H2 2026   2.101   7.000   3.460
  695TIP3   OH2 2027   1.246   2.528   5.500
  695TIP3    H1 2028   1.209   2.611   5.530
  695TIP3    H2 2029   1.339   2.533   5.524
  696TIP3   OH2 2030   6.276   5.445   4.342
  696TIP3    H1 2031   6.334   5.444   4.265
  696TIP3    H2 2032   6.194   5.482   4.310
  697TIP3   OH2 2033   7.001   3.021   6.490
  697TIP3    H1 2034   6.977   3.021   6.582
  697TIP3    H2 2035   7.079   3.076   6.485
  698TIP3   OH2 2036   1.480   3.189   0.074
  698TIP3    H1 2037   1.524   3.256   0.021
  698TIP3    H2 2038   1.541   3.172   0.146
  699TIP3   OH2 2039   3.953   7.604   1.325
  699TIP3    H1 2040   4.015   7.656   1.377
  699TIP3    H2 2041   3.911   7.668   1.267
  700TIP3   OH2 2042   5.818   2.894   1.156
  700TIP3    H1 2043   5.873   2.973   1.149
  700TIP3    H2 2044   5.730   2.925   1.135
  701TIP3   OH2 2045   1.519   6.970   2.276
  701TIP3    H1 2046   1.425   6.971   2.296
  701TIP3    H2 2047   1.525   6.991   2.183
  702TIP3   OH2 2048   1.126   5.270   4.582
  702TIP3    H1 2049   1.118   5.355   4.539
  702TIP3    H2 2050   1.063   5.275   4.655
  703TIP3   OH2 2051   2.697   2.329   0.736
  703TIP3    H1 2052   2.777   2.289   0.770
  703TIP3    H2 2053   2.706   2.422   0.755
  704TIP3   OH2 2054   0.444   1.676   0.371
  704TIP3    H1 2055   0.485   1.724   0.443
  704TIP3    H2 2056   0.353   1.664   0.399
  705TIP3   OH2 2057   0.744   0.906   1.252
  705TIP3    H1 2058   0.721   0.936   1.164
  705TIP3    H2 2059   0.754   0.812   1.244
  706TIP3   OH2 2060   0.674   6.941   6.000
  706TIP3    H1 2061   0.608   6.876   6.022
  706TIP3    H2 2062   0.753   6.911   6.046
  707TIP3   OH2 2063   6.300   0.652   4.012
  707TIP3    H1 2064   6.253   0.731   4.037
  707TIP3    H2 2065   6.249   0.615   3.939
  708TIP3   OH2 2066   2.913   4.039   1.419
  708TIP3    H1 2067   2.913   4.102   1.347
  708TIP3    H2 2068   2.842   4.067   1.476
  709TIP3   OH2 2069   4.250   1.819   2.185
  709TIP3    H1 2070   4.318   1.870   2.228
  709TIP3    H2 2071   4.169   1.846   2.228
  710TIP3   OH2 2072   2.458   2.638   1.737
  710TIP3    H1 2073   2.475   2.549   1.706
  710TIP3    H2 2074   2.439   2.688   1.657
  711TIP3   OH2 2075   4.033   1.525   0.943
  711TIP3    H1 2076   4.115   1.572   0.929
  711TIP3    H2 2077   4.029   1.463   0.870
  712TIP3   OH2 2078   3.938   6.629   1.284
  712TIP3    H1 2079   3.864   6.605   1.227
  712TIP3    H2 2080   3.963   6.717   1.254
  713TIP3   OH2 2081   2.907   1.650   5.663
  713TIP3    H1 2082   2.813   1.636   5.668
  713TIP3    H2 2083   2.920   1.692   5.578
  714TIP3   OH2 2084   7.205   7.361   0.364
  714TIP3    H1 2085   7.178   7.269   0.362
  714TIP3    H2 2086   7.153   7.400   0.435
  715TIP3   OH2 2087   3.504   5.312   5.189
  715TIP3    H1 2088   3.592   5.340   5.165
  715TIP3    H2 2089   3.517   5.227   5.232
  716TIP3   OH2 2090   2.981   1.768   1.857
  716TIP3    H1 2091   2.919   1.841   1.850
  716TIP3    H2 2092   2.987   1.751   1.951
  717TIP3   OH2 2093   7.566   2.775   1.509
  717TIP3    H1 2094   7.541   2.724   1.586
  717TIP3    H2 2095   7.531   2.725   1.435
  718TIP3   OH2 2096   4.328   1.299   5.533
  718TIP3    H1 2097   4.405   1.252   5.500
  718TIP3    H2 2098   4.358   1.343   5.612
  719TIP3   OH2 2099   4.074   5.213   5.270
  719TIP3    H1 2100   4.073   5.308   5.256
  719TIP3    H2 2101   4.152   5.197   5.323
  720TIP3   OH2 2102   4.718   6.071   5.998
  720TIP3    H1 2103   4.707   6.157   5.958
  720TIP3    H2 2104   4.748   6.089   6.087
  721TIP3   OH2 2105   5.374   6.347   3.674
  721TIP3    H1 2106   5.359   6.419   3.735
  721TIP3    H2 2107   5.297   6.291   3.684
  722TIP3   OH2 2108   0.685   7.626   4.183
  722TIP3    H1 2109   0.715   7.552   4.237
  722TIP3    H2 2110   0.628   7.676   4.242
  723TIP3   OH2 2111   7.925   6.063   5.972
  723TIP3    H1 2112   7.898   6.084   6.061
  723TIP3    H2 2113   7.931   6.147   5.927
  724TIP3   OH2 2114   7.902   5.334   3.734
  724TIP3    H1 2115   7.949   5.399   3.683
  724TIP3    H2 2116   7.825   5.380   3.768
  725TIP3   OH2 2117   3.378   2.589   0.762
  725TIP3    H1 2118   3.456   2.562   0.714
  725TIP3    H2 2119   3.369   2.682   0.740
  726TIP3   OH2 2120   7.476   7.492   2.037
  726TIP3    H1 2121   7.485   7.461   2.127
  726TIP3    H2 2122   7.560   7.471   1.996
  727TIP3   OH2 2123   7.207   1.826   1.947
  727TIP3    H1 2124   7.217   1.779   1.864
  727TIP3    H2 2125   7.149   1.899   1.927
  728TIP3   OH2 2126   6.845   6.858   0.336
  728TIP3    H1 2127   6.930   6.838   0.375
  728TIP3    H2 2128   6.790   6.884   0.410
  729TIP3   OH2 2129   5.003   1.350   3.757
  729TIP3    H1 2130   5.056   1.365   3.836
  729TIP3    H2 2131   5.043   1.274   3.716
  730TIP3   OH2 2132   8.101   5.438   1.533
  730TIP3    H1 2133   8.027   5.395   1.577
  730TIP3    H2 2134   8.059   5.494   1.468
  731TIP3   OH2 2135   6.043   2.440   5.626
  731TIP3    H1 2136   5.994   2.449   5.544
  731TIP3    H2 2137   6.103   2.367   5.609
  732TIP3   OH2 2138   1.526   4.072   2.726
  732TIP3    H1 2139   1.577   4.153   2.719
  732TIP3    H2 2140   1.486   4.077   2.813
  733TIP3   OH2 2141   3.676   6.119   3.402
  733TIP3    H1 2142   3.711   6.077   3.324
  733TIP3    H2 2143   3.632   6.049   3.450
  734TIP3   OH2 2144   7.711   3.385   5.518
  734TIP3    H1 2145   7.736   3.466   5.562
  734TIP3    H2 2146   7.776   3.321   5.547
  735TIP3   OH2 2147   3.584   1.239   3.650
  735TIP3    H1 2148   3.489   1.239   3.661
  735TIP3    H2 2149   3.614   1.161   3.696
  736TIP3   OH2 2150   7.797   2.778   1.909
  736TIP3    H1 2151   7.845   2.861   1.907
  736TIP3    H2 2152   7.706   2.802   1.898
  737TIP3   OH2 2153   5.945   2.449   0.819
  737TIP3    H1 2154   5.931   2.525   0.876
  737TIP3    H2 2155   5.985   2.383   0.875
  738TIP3   OH2 2156   3.409   1.798   3.004
  738TIP3    H1 2157   3.483   1.746   3.035
  738TIP3    H2 2158   3.344   1.793   3.074
  739TIP3   OH2 2159   6.778   6.394   2.360
  739TIP3    H1 2160   6.845   6.421   2.423
  739TIP3    H2 2161   6.776   6.299   2.366
  740TIP3   OH2 2162   3.919   4.639   4.543
  740TIP3    H1 2163   3.985   4.583   4.503
  740TIP3    H2 2164   3.963   4.724   4.553
  741TIP3   OH2 2165   3.126   3.863   1.442
  741TIP3    H1 2166   3.044   3.913   1.443
  741TIP3    H2 2167   3.191   3.923   1.479
  742TIP3   OH2 2168   3.914   1.499   6.125
  742TIP3    H1 2169   3.869   1.583   6.112
  742TIP3    H2 2170   3.847   1.442   6.163
  743TIP3   OH2 2171   2.685   1.526   2.630
  743TIP3    H1 2172   2.739   1.510   2.708
  743TIP3    H2 2173   2.596   1.533   2.664
  744TIP3   OH2 2174   5.991   2.044   2.609
  744TIP3    H1 2175   6.039   2.048   2.526
  744TIP3    H2 2176   5.920   1.983   2.592
  745TIP3   OH2 2177   7.081   4.369   4.609
  745TIP3    H1 2178   7.126   4.312   4.546
  745TIP3    H2 2179   7.086   4.322   4.692
  746TIP3   OH2 2180   0.307   6.660   1.749
  746TIP3    H1 2181   0.291   6.710   1.829
  746TIP3    H2 2182   0.220   6.636   1.719
  747TIP3   OH2 2183   5.894   1.608   1.040
  747TIP3    H1 2184   5.903   1.512   1.038
  747TIP3    H2 2185   5.803   1.624   1.014
  748TIP3   OH2 2186   1.362   4.551   1.910
  748TIP3    H1 2187   1.439   4.518   1.863
  748TIP3    H2 2188   1.362   4.504   1.993
  749TIP3   OH2 2189   3.863   5.546   4.019
  749TIP3    H1 2190   3.915   5.511   3.947
  749TIP3    H2 2191   3.914   5.526   4.097
  750TIP3   OH2 2192   1.333   2.427   2.686
  750TIP3    H1 2193   1.293   2.343   2.668
  750TIP3    H2 2194   1.291   2.488   2.625
  751TIP3   OH2 2195   7.011   2.814   4.947
  751TIP3    H1 2196   6.931   2.766   4.924
  751TIP3    H2 2197   7.075   2.786   4.881
  752TIP3   OH2 2198   4.923   1.601   5.412
  752TIP3    H1 2199   4.976   1.636   5.484
  752TIP3    H2 2200   4.986   1.575   5.345
  753TIP3   OH2 2201   7.544   3.376   5.856
  753TIP3    H1 2202   7.634   3.401   5.876
  753TIP3    H2 2203   7.552   3.304   5.793
  754TIP3   OH2 2204   5.980   3.315   6.020
  754TIP3    H1 2205   5.965   3.338   6.112
  754TIP3    H2 2206   6.007   3.397   5.979
  755TIP3   OH2 2207   1.396   1.697   1.145
  755TIP3    H1 2208   1.348   1.773   1.180
  755TIP3    H2 2209   1.427   1.651   1.223
  756TIP3   OH2 2210   0.731   2.673   6.378
  756TIP3    H1 2211   0.718   2.671   6.473
  756TIP3    H2 2212   0.649   2.710   6.344
  757TIP3   OH2 2213   5.344   7.503   0.745
  757TIP3    H1 2214   5.414   7.531   0.804
  757TIP3    H2 2215   5.387   7.491   0.660
  758TIP3   OH2 2216   5.720   0.125   2.588
  758TIP3    H1 2217   5.808   0.122   2.625
  758TIP3    H2 2218   5.667   0.166   2.657
  759TIP3   OH2 2219   3.023   4.536   5.379
  759TIP3    H1 2220   3.042   4.629   5.362
  759TIP3    H2 2221   3.109   4.497   5.394
  760TIP3   OH2 2222   6.176   3.013   6.360
  760TIP3    H1 2223   6.225   2.980   6.285
  760TIP3    H2 2224   6.197   2.951   6.430
  761TIP3   OH2 2225   6.288   7.167   3.114
  761TIP3    H1 2226   6.197   7.135   3.112
  761TIP3    H2 2227   6.341   7.088   3.109
  762TIP3   OH2 2228   1.499   5.296   6.599
  762TIP3    H1 2229   1.527   5.205   6.613
  762TIP3    H2 2230   1.404   5.292   6.602
  763TIP3   OH2 2231   0.345   0.793   1.559
  763TIP3    H1 2232   0.389   0.784   1.475
  763TIP3    H2 2233   0.272   0.730   1.555
  764TIP3   OH2 2234   3.841   6.942   5.964
  764TIP3    H1 2235   3.747   6.925   5.957
  764TIP3    H2 2236   3.865   6.980   5.880
  765TIP3   OH2 2237   0.827   2.783   0.942
  765TIP3    H1 2238   0.749   2.764   0.995
  765TIP3    H2 2239   0.872   2.853   0.989
  766TIP3   OH2 2240   3.278   0.267   1.741
  766TIP3    H1 2241   3.266   0.177   1.711
  766TIP3    H2 2242   3.189   0.299   1.754
  767TIP3   OH2 2243   6.695   1.713   4.635
  767TIP3    H1 2244   6.670   1.623   4.657
  767TIP3    H2 2245   6.744   1.705   4.553
  768TIP3   OH2 2246   7.367   4.337   6.534
  768TIP3    H1 2247   7.301   4.359   6.469
  768TIP3    H2 2248   7.423   4.415   6.539
  769TIP3   OH2 2249   0.356   4.485   0.991
  769TIP3    H1 2250   0.399   4.560   0.950
  769TIP3    H2 2251   0.330   4.429   0.918
  770TIP3   OH2 2252   4.917   2.366   3.326
  770TIP3    H1 2253   4.897   2.293   3.268
  770TIP3    H2 2254   4.857   2.354   3.401
  771TIP3   OH2 2255   5.985   6.716   4.649
  771TIP3    H1 2256   5.961   6.640   4.702
  771TIP3    H2 2257   6.008   6.784   4.713
  772TIP3   OH2 2258   2.659   1.488   5.123
  772TIP3    H1 2259   2.746   1.465   5.156
  772TIP3    H2 2260   2.661   1.464   5.031
  773TIP3   OH2 2261   4.491   3.547   2.774
  773TIP3    H1 2262   4.532   3.475   2.726
  773TIP3    H2 2263   4.402   3.516   2.792
  774TIP3   OH2 2264   0.273   5.072   3.570
  774TIP3    H1 2265   0.242   4.985   3.594
  774TIP3    H2 2266   0.362   5.076   3.605
  775TIP3   OH2 2267   5.454   4.797   4.425
  775TIP3    H1 2268   5.544   4.775   4.448
  775TIP3    H2 2269   5.422   4.850   4.498
  776TIP3   OH2 2270   0.892   4.988   5.243
  776TIP3    H1 2271   0.809   5.011   5.201
  776TIP3    H2 2272   0.872   4.991   5.337
  777TIP3   OH2 2273   2.665   5.703   0.055
  777TIP3    H1 2274   2.636   5.744   0.136
  777TIP3    H2 2275   2.605   5.737  -0.011
  778TIP3   OH2 2276   7.757   4.037   4.795
  778TIP3    H1 2277   7.774   3.999   4.709
  778TIP3    H2 2278   7.700   3.973   4.838
  779TIP3   OH2 2279   5.208   0.382   6.075
  779TIP3    H1 2280   5.233   0.290   6.062
  779TIP3    H2 2281   5.170   0.408   5.992
  780TIP3   OH2 2282   6.931   5.314   5.128
  780TIP3    H1 2283   7.002   5.331   5.066
  780TIP3    H2 2284   6.910   5.399   5.166
  781TIP3   OH2 2285   6.142   1.270   0.066
  781TIP3    H1 2286   6.159   1.188   0.021
  781TIP3    H2 2287   6.047   1.271   0.079
  782TIP3   OH2 2288   7.699   5.562   5.378
  782TIP3    H1 2289   7.734   5.551   5.466
  782TIP3    H2 2290   7.649   5.644   5.381
  783TIP3   OH2 2291   6.923   1.062   2.040
  783TIP3    H1 2292   6.908   0.988   1.982
  783TIP3    H2 2293   6.923   1.139   1.983
  784TIP3   OH2 2294   7.796   1.720   0.341
  784TIP3    H1 2295   7.713   1.756   0.310
  784TIP3    H2 2296   7.816   1.770   0.420
  785TIP3   OH2 2297   1.363   7.611   3.220
  785TIP3    H1 2298   1.367   7.672   3.293
  785TIP3    H2 2299   1.454   7.601   3.192
  786TIP3   OH2 2300   7.358   2.189   1.809
  786TIP3    H1 2301   7.422   2.261   1.801
  786TIP3    H2 2302   7.313   2.205   1.891
  787TIP3   OH2 2303   7.391   2.049   4.612
  787TIP3    H1 2304   7.386   1.965   4.565
  787TIP3    H2 2305   7.429   2.109   4.548
  788TIP3   OH2 2306   2.089   1.777   1.314
  788TIP3    H1 2307   2.021   1.832   1.275
  788TIP3    H2 2308   2.050   1.744   1.396
  789TIP3   OH2 2309   8.158   5.744   1.476
  789TIP3    H1 2310   8.069   5.710   1.472
  789TIP3    H2 2311   8.195   5.705   1.556
  790TIP3   OH2 2312   6.829   2.702   3.076
  790TIP3    H1 2313   6.757   2.641   3.091
  790TIP3    H2 2314   6.799   2.785   3.111
  791TIP3   OH2 2315   0.529   5.201   1.372
  791TIP3    H1 2316   0.443   5.198   1.414
  791TIP3    H2 2317   0.539   5.116   1.331
  792TIP3   OH2 2318   1.257   4.259   3.119
  792TIP3    H1 2319   1.162   4.244   3.119
  792TIP3    H2 2320   1.291   4.202   3.187
  793TIP3   OH2 2321   0.341   7.020   2.202
  793TIP3    H1 2322   0.368   6.931   2.224
  793TIP3    H2 2323   0.416   7.057   2.154
  794TIP3   OH2 2324   6.253   3.399   6.564
  794TIP3    H1 2325   6.323   3.356   6.615
  794TIP3    H2 2326   6.172   3.365   6.603
  795TIP3   OH2 2327   8.132   6.407   4.122
  795TIP3    H1 2328   8.102   6.423   4.211
  795TIP3    H2 2329   8.178   6.323   4.127
  796TIP3   OH2 2330   2.926   6.795   2.555
  796TIP3    H1 2331   2.869   6.732   2.599
  796TIP3    H2 2332   2.865   6.856   2.512
  797TIP3   OH2 2333   1.638   1.696   5.804
  797TIP3    H1 2334   1.638   1.782   5.763
  797TIP3    H2 2335   1.725   1.660   5.783
  798TIP3   OH2 2336   7.058   2.397   3.214
  798TIP3    H1 2337   7.086   2.307   3.202
  798TIP3    H2 2338   7.024   2.400   3.304
  799TIP3   OH2 2339   8.156   0.893   0.677
  799TIP3    H1 2340   8.238   0.905   0.629
  799TIP3    H2 2341   8.181   0.844   0.756
  800TIP3   OH2 2342   0.070   5.020   0.572
  800TIP3    H1 2343  -0.010   4.986   0.613
  800TIP3    H2 2344   0.043   5.044   0.483
  801TIP3   OH2 2345   6.507   2.305   2.916
  801TIP3    H1 2346   6.506   2.209   2.913
  801TIP3    H2 2347   6.454   2.332   2.841
  802TIP3   OH2 2348   8.311   6.224   5.791
  802TIP3    H1 2349   8.281   6.250   5.878
  802TIP3    H2 2350   8.231   6.212   5.740
  803TIP3   OH2 2351   3.185   1.440   3.295
  803TIP3    H1 2352   3.229   1.487   3.366
  803TIP3    H2 2353   3.255   1.398   3.246
  804TIP3   OH2 2354   3.538   5.393   2.345
  804TIP3    H1 2355   3.591   5.355   2.276
  804TIP3    H2 2356   3.588   5.468   2.376
  805TIP3   OH2 2357   4.471   6.757   6.358
  805TIP3    H1 2358   4.448   6.739   6.267
  805TIP3    H2 2359   4.474   6.853   6.363
  806TIP3   OH2 2360   1.089   4.053   1.863
  806TIP3    H1 2361   1.029   4.125   1.843
  806TIP3    H2 2362   1.164   4.096   1.903
  807TIP3   OH2 2363   1.158   1.805   2.783
  807TIP3    H1 2364   1.137   1.764   2.867
  807TIP3    H2 2365   1.247   1.777   2.764
  808TIP3   OH2 2366   8.099   1.508   1.618
  808TIP3    H1 2367   8.025   1.563   1.592
  808TIP3    H2 2368   8.069   1.464   1.698
  809TIP3   OH2 2369   3.610   2.120   5.990
  809TIP3    H1 2370   3.544   2.179   5.955
  809TIP3    H2 2371   3.667   2.175   6.043
  810TIP3   OH2 2372   6.477   2.379   6.236
  810TIP3    H1 2373   6.444   2.289   6.228
  810TIP3    H2 2374   6.517   2.382   6.323
  811TIP3   OH2 2375   6.592   5.185   3.741
  811TIP3    H1 2376   6.582   5.271   3.700
  811TIP3    H2 2377   6.670   5.193   3.795
  812TIP3   OH2 2378   6.596   1.426   4.102
  812TIP3    H1 2379   6.538   1.396   4.032
  812TIP3    H2 2380   6.542   1.486   4.154
  813TIP3   OH2 2381   3.084   2.192   4.890
  813TIP3    H1 2382   3.011   2.245   4.922
  813TIP3    H2 2383   3.072   2.188   4.795
  814TIP3   OH2 2384   6.279   1.788   2.574
  814TIP3    H1 2385   6.270   1.877   2.607
  814TIP3    H2 2386   6.261   1.732   2.650
  815TIP3   OH2 2387   3.875   5.806   4.154
  815TIP3    H1 2388   3.876   5.752   4.074
  815TIP3    H2 2389   3.788   5.794   4.190
  816TIP3   OH2 2390   6.444   2.646   2.088
  816TIP3    H1 2391   6.509   2.603   2.144
  816TIP3    H2 2392   6.360   2.617   2.123
  817TIP3   OH2 2393   4.345   0.227   1.375
  817TIP3    H1 2394   4.390   0.146   1.350
  817TIP3    H2 2395   4.362   0.287   1.303
  818TIP3   OH2 2396   7.288   4.470   1.067
  818TIP3    H1 2397   7.335   4.554   1.072
  818TIP3    H2 2398   7.333   4.413   1.130
  819TIP3   OH2 2399   0.995   5.135   4.370
  819TIP3    H1 2400   1.011   5.144   4.464
  819TIP3    H2 2401   1.016   5.044   4.351
  820TIP3   OH2 2402   5.472   4.833   1.141
  820TIP3    H1 2403   5.499   4.749   1.177
  820TIP3    H2 2404   5.493   4.827   1.048
  821TIP3   OH2 2405   6.233   0.936   4.351
  821TIP3    H1 2406   6.218   0.939   4.256
  821TIP3    H2 2407   6.153   0.898   4.387
  822TIP3   OH2 2408   6.225   0.793   1.288
  822TIP3    H1 2409   6.244   0.702   1.265
  822TIP3    H2 2410   6.208   0.836   1.205
  823TIP3   OH2 2411   0.028   0.724   0.330
  823TIP3    H1 2412   0.107   0.672   0.313
  823TIP3    H2 2413   0.001   0.698   0.418
  824TIP3   OH2 2414   2.633   7.439   3.222
  824TIP3    H1 2415   2.637   7.410   3.313
  824TIP3    H2 2416   2.595   7.365   3.175
  825TIP3   OH2 2417   7.613   5.618   0.478
  825TIP3    H1 2418   7.570   5.560   0.416
  825TIP3    H2 2419   7.704   5.623   0.447
  826TIP3   OH2 2420   4.289   0.967   2.311
  826TIP3    H1 2421   4.228   0.962   2.237
  826TIP3    H2 2422   4.235   1.000   2.383
  827TIP3   OH2 2423   0.975   3.853   0.902
  827TIP3    H1 2424   1.013   3.922   0.848
  827TIP3    H2 2425   0.923   3.800   0.842
  828TIP3   OH2 2426   7.698   0.232   2.331
  828TIP3    H1 2427   7.615   0.273   2.353
  828TIP3    H2 2428   7.744   0.224   2.414
  829TIP3   OH2 2429   6.650   3.846   6.479
  829TIP3    H1 2430   6.662   3.758   6.514
  829TIP3    H2 2431   6.578   3.837   6.417
  830TIP3   OH2 2432   6.340   0.227   3.338
  830TIP3    H1 2433   6.308   0.159   3.279
  830TIP3    H2 2434   6.409   0.184   3.389
  831TIP3   OH2 2435   2.755   3.978   0.340
  831TIP3    H1 2436   2.739   3.883   0.342
  831TIP3    H2 2437   2.799   3.994   0.257
  832TIP3   OH2 2438   3.614   6.467   3.746
  832TIP3    H1 2439   3.605   6.431   3.658
  832TIP3    H2 2440   3.668   6.404   3.793
  833TIP3   OH2 2441   0.061   6.485   6.451
  833TIP3    H1 2442   0.050   6.420   6.382
  833TIP3    H2 2443   0.051   6.436   6.533
  834TIP3   OH2 2444   0.735   1.833   2.529
  834TIP3    H1 2445   0.687   1.804   2.451
  834TIP3    H2 2446   0.770   1.752   2.567
  835TIP3   OH2 2447   1.324   0.581   6.259
  835TIP3    H1 2448   1.242   0.594   6.307
  835TIP3    H2 2449   1.314   0.636   6.181
  836TIP3   OH2 2450   6.914   0.850   1.874
  836TIP3    H1 2451   6.962   0.899   1.807
  836TIP3    H2 2452   6.975   0.781   1.902
  837TIP3   OH2 2453   0.603   6.376   5.425
  837TIP3    H1 2454   0.529   6.392   5.483
  837TIP3    H2 2455   0.571   6.399   5.338
  838TIP3   OH2 2456   5.929   0.913  -0.035
  838TIP3    H1 2457   6.010   0.938   0.008
  838TIP3    H2 2458   5.865   0.906   0.036
  839TIP3   OH2 2459   8.201   7.419   3.610
  839TIP3    H1 2460   8.140   7.426   3.536
  839TIP3    H2 2461   8.287   7.407   3.568
  840TIP3   OH2 2462   1.809   5.621   4.500
  840TIP3    H1 2463   1.775   5.669   4.575
  840TIP3    H2 2464   1.754   5.542   4.495
  841TIP3   OH2 2465   5.285   4.581   4.349
  841TIP3    H1 2466   5.293   4.528   4.428
  841TIP3    H2 2467   5.327   4.664   4.371
  842TIP3   OH2 2468   1.689   7.743   5.674
  842TIP3    H1 2469   1.688   7.838   5.664
  842TIP3    H2 2470   1.653   7.710   5.592
  843TIP3   OH2 2471   6.833   3.636   4.874
  843TIP3    H1 2472   6.784   3.596   4.802
  843TIP3    H2 2473   6.769   3.692   4.919
  844TIP3   OH2 2474   5.690   3.724   2.693
  844TIP3    H1 2475   5.644   3.789   2.746
  844TIP3    H2 2476   5.730   3.775   2.622
  845TIP3   OH2 2477   0.312   3.093   3.240
  845TIP3    H1 2478   0.271   3.049   3.314
  845TIP3    H2 2479   0.402   3.059   3.238
  846TIP3   OH2 2480   5.155   5.712   3.790
  846TIP3    H1 2481   5.154   5.789   3.847
  846TIP3    H2 2482   5.154   5.637   3.850
  847TIP3   OH2 2483   6.033   7.219   6.317
  847TIP3    H1 2484   6.043   7.168   6.236
  847TIP3    H2 2485   5.944   7.255   6.311
  848TIP3   OH2 2486   6.592   7.328   4.972
  848TIP3    H1 2487   6.557   7.405   5.016
  848TIP3    H2 2488   6.678   7.355   4.940
  849TIP3   OH2 2489   0.551   2.804   0.028
  849TIP3    H1 2490   0.622   2.792   0.092
  849TIP3    H2 2491   0.586   2.867  -0.035
  850TIP3   OH2 2492   2.805   2.251   1.668
  850TIP3    H1 2493   2.875   2.209   1.718
  850TIP3    H2 2494   2.836   2.340   1.653
  851TIP3   OH2 2495   5.542   2.955   4.363
  851TIP3    H1 2496   5.529   2.905   4.283
  851TIP3    H2 2497   5.636   2.972   4.367
  852TIP3   OH2 2498   1.099   3.137   4.428
  852TIP3    H1 2499   1.082   3.090   4.346
  852TIP3    H2 2500   1.074   3.227   4.409
  853TIP3   OH2 2501   4.312   6.242   3.251
  853TIP3    H1 2502   4.336   6.221   3.161
  853TIP3    H2 2503   4.226   6.285   3.243
  854TIP3   OH2 2504   2.024   6.844   1.327
  854TIP3    H1 2505   2.047   6.752   1.338
  854TIP3    H2 2506   2.069   6.870   1.246
  855TIP3   OH2 2507   7.982   3.821   5.233
  855TIP3    H1 2508   8.076   3.806   5.221
  855TIP3    H2 2509   7.976   3.910   5.266
  856TIP3   OH2 2510   6.685   4.290   0.720
  856TIP3    H1 2511   6.663   4.201   0.748
  856TIP3    H2 2512   6.717   4.333   0.800
  857TIP3   OH2 2513   7.612   0.722   2.699
  857TIP3    H1 2514   7.580   0.672   2.624
  857TIP3    H2 2515   7.694   0.762   2.668
  858TIP3   OH2 2516   1.214   3.559   1.247
  858TIP3    H1 2517   1.171   3.599   1.172
  858TIP3    H2 2518   1.272   3.627   1.281
  859TIP3   OH2 2519   0.253   0.192   4.190
  859TIP3    H1 2520   0.292   0.209   4.105
  859TIP3    H2 2521   0.221   0.101   4.184
  860TIP3   OH2 2522   8.322   7.756   5.287
  860TIP3    H1 2523   8.319   7.845   5.251
  860TIP3    H2 2524   8.232   7.726   5.284
  861TIP3   OH2 2525   6.962   6.117   5.901
  861TIP3    H1 2526   7.041   6.120   5.955
  861TIP3    H2 2527   6.929   6.028   5.912
  862TIP3   OH2 2528   6.889   7.110   1.670
  862TIP3    H1 2529   6.901   7.105   1.765
  862TIP3    H2 2530   6.800   7.143   1.659
  863TIP3   OH2 2531   7.889   0.342   0.879
  863TIP3    H1 2532   7.839   0.406   0.829
  863TIP3    H2 2533   7.864   0.358   0.970
  864TIP3   OH2 2534   7.735   6.784   0.483
  864TIP3    H1 2535   7.714   6.718   0.549
  864TIP3    H2 2536   7.828   6.802   0.496
  865TIP3   OH2 2537   0.126   4.336   5.399
  865TIP3    H1 2538   0.197   4.357   5.459
  865TIP3    H2 2539   0.162   4.353   5.312
  866TIP3   OH2 2540   5.476   3.951   1.471
  866TIP3    H1 2541   5.537   4.020   1.497
  866TIP3    H2 2542   5.394   3.975   1.514
  867TIP3   OH2 2543   2.826   4.904   1.266
  867TIP3    H1 2544   2.787   4.884   1.181
  867TIP3    H2 2545   2.915   4.934   1.245
  868TIP3   OH2 2546   7.222   0.573   2.250
  868TIP3    H1 2547   7.153   0.507   2.244
  868TIP3    H2 2548   7.272   0.564   2.168
  869TIP3   OH2 2549   3.647   4.690   4.496
  869TIP3    H1 2550   3.589   4.620   4.466
  869TIP3    H2 2551   3.731   4.646   4.511
  870TIP3   OH2 2552   7.782   7.685   6.479
  870TIP3    H1 2553   7.735   7.656   6.401
  870TIP3    H2 2554   7.773   7.780   6.478
  871TIP3   OH2 2555   2.318   6.142   4.895
  871TIP3    H1 2556   2.386   6.209   4.885
  871TIP3    H2 2557   2.364   6.060   4.876
  872TIP3   OH2 2558   6.216   1.772   2.234
  872TIP3    H1 2559   6.170   1.850   2.266
  872TIP3    H2 2560   6.259   1.802   2.154
  873TIP3   OH2 2561   6.646   4.993   0.627
  873TIP3    H1 2562   6.649   5.082   0.662
  873TIP3    H2 2563   6.576   4.951   0.676
  874TIP3   OH2 2564   5.846   6.958   3.979
  874TIP3    H1 2565   5.857   7.053   3.982
  874TIP3    H2 2566   5.773   6.939   4.038
  875TIP3   OH2 2567   8.299   0.071   3.332
  875TIP3    H1 2568   8.225   0.129   3.354
  875TIP3    H2 2569   8.266  -0.017   3.351
  876TIP3   OH2 2570   6.372   1.645   5.455
  876TIP3    H1 2571   6.442   1.648   5.389
  876TIP3    H2 2572   6.327   1.729   5.446
  877TIP3   OH2 2573   6.363   3.089   3.680
  877TIP3    H1 2574   6.289   3.060   3.734
  877TIP3    H2 2575   6.326   3.150   3.617
  878TIP3   OH2 2576   5.013   0.324   3.740
  878TIP3    H1 2577   5.061   0.363   3.667
  878TIP3    H2 2578   5.069   0.251   3.769
  879TIP3   OH2 2579   7.184   1.011   2.609
  879TIP3    H1 2580   7.112   1.039   2.553
  879TIP3    H2 2581   7.261   1.011   2.552
  880TIP3   OH2 2582   5.900   3.583   3.189
  880TIP3    H1 2583   5.858   3.497   3.199
  880TIP3    H2 2584   5.892   3.624   3.275
  881TIP3   OH2 2585   4.189   5.482   4.682
  881TIP3    H1 2586   4.261   5.476   4.745
  881TIP3    H2 2587   4.167   5.575   4.680
  882TIP3   OH2 2588   0.419   1.953   3.512
  882TIP3    H1 2589   0.376   1.982   3.593
  882TIP3    H2 2590   0.354   1.969   3.444
  883TIP3   OH2 2591   0.925   0.327   0.127
  883TIP3    H1 2592   0.895   0.242   0.159
  883TIP3    H2 2593   0.964   0.370   0.204
  884TIP3   OH2 2594   8.017   3.418   5.761
  884TIP3    H1 2595   7.990   3.509   5.763
  884TIP3    H2 2596   8.030   3.399   5.668
  885TIP3   OH2 2597   6.920   6.566   1.308
  885TIP3    H1 2598   6.891   6.584   1.398
  885TIP3    H2 2599   6.839   6.559   1.258
  886TIP3   OH2 2600   8.074   6.184   6.588
  886TIP3    H1 2601   8.076   6.188   6.683
  886TIP3    H2 2602   8.163   6.208   6.561
  887TIP3   OH2 2603   0.565   1.511   4.380
  887TIP3    H1 2604   0.639   1.464   4.341
  887TIP3    H2 2605   0.593   1.532   4.469
  888TIP3   OH2 2606   3.140   2.692   6.403
  888TIP3    H1 2607   3.161   2.722   6.315
  888TIP3    H2 2608   3.209   2.727   6.458
  889TIP3   OH2 2609   3.001   0.053   4.285
  889TIP3    H1 2610   2.920   0.079   4.329
  889TIP3    H2 2611   2.977   0.046   4.192
  890TIP3   OH2 2612   7.589   0.425   3.388
  890TIP3    H1 2613   7.557   0.436   3.477
  890TIP3    H2 2614   7.642   0.504   3.372
  891TIP3   OH2 2615   2.021   0.680   5.715
  891TIP3    H1 2616   2.064   0.640   5.790
  891TIP3    H2 2617   1.929   0.659   5.727
  892TIP3   OH2 2618   3.394   1.417   5.979
  892TIP3    H1 2619   3.443   1.473   5.918
  892TIP3    H2 2620   3.371   1.476   6.051
  893TIP3   OH2 2621   8.045   4.517   5.717
  893TIP3    H1 2622   8.123   4.573   5.717
  893TIP3    H2 2623   8.046   4.475   5.803
  894TIP3   OH2 2624   0.982   5.627   3.964
  894TIP3    H1 2625   0.998   5.685   4.038
  894TIP3    H2 2626   0.896   5.588   3.982
  895TIP3   OH2 2627   2.539   4.604   5.803
  895TIP3    H1 2628   2.593   4.623   5.727
  895TIP3    H2 2629   2.601   4.584   5.873
  896TIP3   OH2 2630   1.319   5.349   1.273
  896TIP3    H1 2631   1.395   5.292   1.270
  896TIP3    H2 2632   1.245   5.292   1.252
  897TIP3   OH2 2633   3.961   4.491   3.047
  897TIP3    H1 2634   3.892   4.556   3.033
  897TIP3    H2 2635   3.946   4.424   2.981
  898TIP3   OH2 2636   2.051   6.750   2.663
  898TIP3    H1 2637   2.024   6.683   2.725
  898TIP3    H2 2638   2.120   6.709   2.611
  899TIP3   OH2 2639   1.586   6.166   1.477
  899TIP3    H1 2640   1.627   6.252   1.485
  899TIP3    H2 2641   1.615   6.133   1.392
  900TIP3   OH2 2642   6.517   2.309   2.040
  900TIP3    H1 2643   6.551   2.393   2.072
  900TIP3    H2 2644   6.587   2.247   2.060
  901TIP3   OH2 2645   6.767   2.214   0.376
  901TIP3    H1 2646   6.794   2.142   0.319
  901TIP3    H2 2647   6.786   2.293   0.325
  902TIP3   OH2 2648   4.984   0.073   0.654
  902TIP3    H1 2649   5.032   0.156   0.657
  902TIP3    H2 2650   5.044   0.014   0.608
  903TIP3   OH2 2651   7.663   5.500   2.621
  903TIP3    H1 2652   7.744   5.451   2.628
  903TIP3    H2 2653   7.638   5.520   2.712
  904TIP3   OH2 2654   3.687   0.461   2.656
  904TIP3    H1 2655   3.725   0.453   2.743
  904TIP3    H2 2656   3.601   0.499   2.670
  905TIP3   OH2 2657   6.684   0.202   6.178
  905TIP3    H1 2658   6.733   0.124   6.206
  905TIP3    H2 2659   6.689   0.199   6.082
  906TIP3   OH2 2660   7.399   1.256   1.137
  906TIP3    H1 2661   7.464   1.228   1.073
  906TIP3    H2 2662   7.320   1.206   1.114
  907TIP3   OH2 2663   2.747   4.951   4.965
  907TIP3    H1 2664   2.695   4.919   5.039
  907TIP3    H2 2665   2.831   4.976   5.003
  908TIP3   OH2 2666   8.247   1.085   2.507
  908TIP3    H1 2667   8.155   1.073   2.483
  908TIP3    H2 2668   8.249   1.170   2.550
  909TIP3   OH2 2669   6.203   3.627   6.782
  909TIP3    H1 2670   6.242   3.710   6.810
  909TIP3    H2 2671   6.250   3.605   6.701
  910TIP3   OH2 2672   7.302   7.115   0.027
  910TIP3    H1 2673   7.392   7.112   0.058
  910TIP3    H2 2674   7.249   7.107   0.107
  911TIP3   OH2 2675   8.240   1.482   5.915
  911TIP3    H1 2676   8.276   1.552   5.969
  911TIP3    H2 2677   8.283   1.402   5.947
  912TIP3   OH2 2678   0.773   5.864   4.275
  912TIP3    H1 2679   0.782   5.932   4.341
  912TIP3    H2 2680   0.862   5.835   4.256
  913TIP3   OH2 2681   7.413   4.517   3.781
  913TIP3    H1 2682   7.462   4.511   3.699
  913TIP3    H2 2683   7.331   4.559   3.756
  914TIP3   OH2 2684   4.245   5.791   0.668
  914TIP3    H1 2685   4.302   5.763   0.739
  914TIP3    H2 2686   4.280   5.747   0.591
  915TIP3   OH2 2687   1.760   6.327   6.317
  915TIP3    H1 2688   1.846   6.288   6.332
  915TIP3    H2 2689   1.729   6.351   6.404
  916TIP3   OH2 2690   0.169   0.428   2.003
  916TIP3    H1 2691   0.242   0.423   1.942
  916TIP3    H2 2692   0.091   0.429   1.948
  917TIP3   OH2 2693   1.252   6.150   6.179
  917TIP3    H1 2694   1.292   6.227   6.138
  917TIP3    H2 2695   1.160   6.155   6.153
  918TIP3   OH2 2696   1.751   6.588   3.540
  918TIP3    H1 2697   1.757   6.573   3.445
  918TIP3    H2 2698   1.804   6.518   3.578
  919TIP3   OH2 2699   6.341   7.134   1.689
  919TIP3    H1 2700   6.324   7.142   1.596
  919TIP3    H2 2701   6.395   7.055   1.697
  920TIP3   OH2 2702   5.675   4.450   2.298
  920TIP3    H1 2703   5.719   4.521   2.252
  920TIP3    H2 2704   5.746   4.401   2.340
  921TIP3   OH2 2705   0.983   2.890   2.841
  921TIP3    H1 2706   1.068   2.853   2.819
  921TIP3    H2 2707   0.976   2.968   2.786
  922TIP3   OH2 2708   6.720   1.148   1.011
  922TIP3    H1 2709   6.640   1.199   1.005
  922TIP3    H2 2710   6.776   1.181   0.941
  923TIP3   OH2 2711   0.028   7.560   1.591
  923TIP3    H1 2712   0.089   7.501   1.636
  923TIP3    H2 2713   0.003   7.513   1.511
  924TIP3   OH2 2714   4.961   5.740   4.667
  924TIP3    H1 2715   4.969   5.663   4.611
  924TIP3    H2 2716   5.010   5.718   4.746
  925TIP3   OH2 2717   0.526   0.990   3.703
  925TIP3    H1 2718   0.531   1.050   3.629
  925TIP3    H2 2719   0.553   1.042   3.778
  926TIP3   OH2 2720   7.305   5.543   6.608
  926TIP3    H1 2721   7.240   5.606   6.637
  926TIP3    H2 2722   7.386   5.570   6.651
  927TIP3   OH2 2723   0.219   2.649   5.043
  927TIP3    H1 2724   0.235   2.558   5.016
  927TIP3    H2 2725   0.163   2.685   4.974
  928TIP3   OH2 2726   4.481   5.395   0.140
  928TIP3    H1 2727   4.412   5.436   0.090
  928TIP3    H2 2728   4.442   5.378   0.226
  929TIP3   OH2 2729   3.078   6.164   1.606
  929TIP3    H1 2730   3.082   6.071   1.629
  929TIP3    H2 2731   2.988   6.176   1.576
  930TIP3   OH2 2732   4.930   6.074   1.958
  930TIP3    H1 2733   4.958   6.022   1.883
  930TIP3    H2 2734   4.997   6.142   1.967
  931TIP3   OH2 2735   1.761   6.921   0.115
  931TIP3    H1 2736   1.679   6.873   0.125
  931TIP3    H2 2737   1.815   6.891   0.189
  932TIP3   OH2 2738   5.585   3.729   4.155
  932TIP3    H1 2739   5.574   3.682   4.238
  932TIP3    H2 2740   5.546   3.814   4.171
  933TIP3   OH2 2741   0.459   4.707   6.024
  933TIP3    H1 2742   0.442   4.613   6.034
  933TIP3    H2 2743   0.377   4.749   6.048
  934TIP3   OH2 2744   2.234   0.471   6.403
  934TIP3    H1 2745   2.319   0.437   6.433
  934TIP3    H2 2746   2.180   0.472   6.482
  935TIP3   OH2 2747   2.808   2.888   0.376
  935TIP3    H1 2748   2.722   2.856   0.404
  935TIP3    H2 2749   2.793   2.979   0.353
  936TIP3   OH2 2750   3.726   1.293   5.249
  936TIP3    H1 2751   3.708   1.386   5.256
  936TIP3    H2 2752   3.712   1.259   5.337
  937TIP3   OH2 2753   5.818   3.434   0.621
  937TIP3    H1 2754   5.842   3.447   0.529
  937TIP3    H2 2755   5.899   3.447   0.669
  938TIP3   OH2 2756   6.869   0.751   2.635
  938TIP3    H1 2757   6.791   0.721   2.682
  938TIP3    H2 2758   6.935   0.684   2.653
  939TIP3   OH2 2759   0.768   1.228   4.821
  939TIP3    H1 2760   0.739   1.316   4.846
  939TIP3    H2 2761   0.758   1.175   4.900
  940TIP3   OH2 2762   7.874   4.752   5.686
  940TIP3    H1 2763   7.927   4.674   5.705
  940TIP3    H2 2764   7.798   4.718   5.639
  941TIP3   OH2 2765   1.687   4.442   4.595
  941TIP3    H1 2766   1.665   4.477   4.509
  941TIP3    H2 2767   1.608   4.456   4.647
  942TIP3   OH2 2768   1.824   1.457   2.335
  942TIP3    H1 2769   1.786   1.371   2.319
  942TIP3    H2 2770   1.764   1.518   2.292
  943TIP3   OH2 2771   1.771   7.781   2.490
  943TIP3    H1 2772   1.762   7.855   2.431
  943TIP3    H2 2773   1.858   7.746   2.472
  944TIP3   OH2 2774   7.942   2.442   5.229
  944TIP3    H1 2775   7.887   2.370   5.260
  944TIP3    H2 2776   7.962   2.420   5.139
  945TIP3   OH2 2777   3.246   0.390   2.168
  945TIP3    H1 2778   3.288   0.431   2.244
  945TIP3    H2 2779   3.318   0.344   2.124
  946TIP3   OH2 2780   3.375   1.400   3.096
  946TIP3    H1 2781   3.448   1.459   3.078
  946TIP3    H2 2782   3.298   1.444   3.060
  947TIP3   OH2 2783   0.666   7.282   2.364
  947TIP3    H1 2784   0.574   7.270   2.386
  947TIP3    H2 2785   0.699   7.194   2.350
  948TIP3   OH2 2786   8.257   6.149   1.281
  948TIP3    H1 2787   8.194   6.076   1.284
  948TIP3    H2 2788   8.261   6.172   1.188
  949TIP3   OH2 2789   1.169   5.178   4.851
  949TIP3    H1 2790   1.119   5.097   4.865
  949TIP3    H2 2791   1.252   5.163   4.896
  950TIP3   OH2 2792   0.841   5.918   0.757
  950TIP3    H1 2793   0.906   5.926   0.827
  950TIP3    H2 2794   0.830   5.823   0.745
  951TIP3   OH2 2795   3.086   6.832   1.294
  951TIP3    H1 2796   3.037   6.750   1.280
  951TIP3    H2 2797   3.043   6.896   1.239
  952TIP3   OH2 2798   3.060   2.079   2.724
  952TIP3    H1 2799   2.971   2.045   2.732
  952TIP3    H2 2800   3.115   2.001   2.723
  953TIP3   OH2 2801   3.843   3.922   2.881
  953TIP3    H1 2802   3.867   3.830   2.871
  953TIP3    H2 2803   3.759   3.929   2.836
  954TIP3   OH2 2804   2.355   0.618   2.221
  954TIP3    H1 2805   2.400   0.696   2.189
  954TIP3    H2 2806   2.344   0.563   2.143
  955TIP3   OH2 2807   5.967   4.794   6.599
  955TIP3    H1 2808   5.993   4.886   6.595
  955TIP3    H2 2809   5.885   4.791   6.548
  956TIP3   OH2 2810   6.563   5.006   3.243
  956TIP3    H1 2811   6.474   5.025   3.214
  956TIP3    H2 2812   6.579   4.917   3.214
  957TIP3   OH2 2813   7.213   6.329   0.591
  957TIP3    H1 2814   7.306   6.310   0.586
  957TIP3    H2 2815   7.206   6.421   0.564
  958TIP3   OH2 2816   7.763   2.623   1.347
  958TIP3    H1 2817   7.818   2.669   1.411
  958TIP3    H2 2818   7.763   2.532   1.377
  959TIP3   OH2 2819   5.377   5.634   4.795
  959TIP3    H1 2820   5.355   5.590   4.712
  959TIP3    H2 2821   5.430   5.709   4.769
  960TIP3   OH2 2822   0.754   3.336   1.541
  960TIP3    H1 2823   0.668   3.296   1.529
  960TIP3    H2 2824   0.753   3.413   1.484
  961TIP3   OH2 2825   1.793   4.189   1.705
  961TIP3    H1 2826   1.820   4.236   1.783
  961TIP3    H2 2827   1.835   4.103   1.713
  962TIP3   OH2 2828   0.772   0.387   5.888
  962TIP3    H1 2829   0.687   0.431   5.891
  962TIP3    H2 2830   0.752   0.298   5.859
  963TIP3   OH2 2831   5.270   4.694   5.707
  963TIP3    H1 2832   5.330   4.761   5.740
  963TIP3    H2 2833   5.248   4.641   5.784
  964TIP3   OH2 2834   5.321   4.599   5.303
  964TIP3    H1 2835   5.379   4.613   5.378
  964TIP3    H2 2836   5.381   4.580   5.230
  965TIP3   OH2 2837   6.425   6.708   0.110
  965TIP3    H1 2838   6.460   6.653   0.181
  965TIP3    H2 2839   6.418   6.795   0.149
  966TIP3   OH2 2840   6.988   1.059   6.480
  966TIP3    H1 2841   7.009   0.974   6.441
  966TIP3    H2 2842   7.070   1.091   6.517
  967TIP3   OH2 2843   3.265   0.683   3.460
  967TIP3    H1 2844   3.333   0.628   3.500
  967TIP3    H2 2845   3.284   0.771   3.493
  968TIP3   OH2 2846   1.101   6.927   0.266
  968TIP3    H1 2847   1.149   6.852   0.304
  968TIP3    H2 2848   1.065   6.894   0.185
  969TIP3   OH2 2849   8.176   6.164   5.073
  969TIP3    H1 2850   8.150   6.191   4.984
  969TIP3    H2 2851   8.157   6.239   5.128
  970TIP3   OH2 2852   7.117   4.574   1.477
  970TIP3    H1 2853   7.047   4.550   1.416
  970TIP3    H2 2854   7.130   4.668   1.463
  971TIP3   OH2 2855   2.787   0.339   6.219
  971TIP3    H1 2856   2.811   0.335   6.127
  971TIP3    H2 2857   2.692   0.327   6.220
  972TIP3   OH2 2858   4.705   0.593   3.360
  972TIP3    H1 2859   4.768   0.529   3.327
  972TIP3    H2 2860   4.743   0.678   3.337
  973TIP3   OH2 2861   8.086   4.030   1.965
  973TIP3    H1 2862   8.159   3.992   1.917
  973TIP3    H2 2863   8.044   4.089   1.902
  974TIP3   OH2 2864   0.994   3.119   0.852
  974TIP3    H1 2865   0.932   3.141   0.782
  974TIP3    H2 2866   0.948   3.141   0.932
  975TIP3   OH2 2867   5.490   6.856   2.891
  975TIP3    H1 2868   5.440   6.788   2.937
  975TIP3    H2 2869   5.515   6.917   2.959
  976TIP3   OH2 2870   4.806   6.262   0.812
  976TIP3    H1 2871   4.833   6.171   0.803
  976TIP3    H2 2872   4.887   6.310   0.830
  977TIP3   OH2 2873   8.213   4.451   2.807
  977TIP3    H1 2874   8.195   4.493   2.891
  977TIP3    H2 2875   8.222   4.358   2.828
  978TIP3   OH2 2876   5.028   0.352   5.845
  978TIP3    H1 2877   5.079   0.384   5.771
  978TIP3    H2 2878   5.040   0.257   5.845
  979TIP3   OH2 2879   6.707   3.667   0.159
  979TIP3    H1 2880   6.691   3.740   0.218
  979TIP3    H2 2881   6.786   3.692   0.111
  980TIP3   OH2 2882   6.394   5.454   0.131
  980TIP3    H1 2883   6.446   5.450   0.212
  980TIP3    H2 2884   6.450   5.415   0.064
  981TIP3   OH2 2885   3.716   4.739   6.072
  981TIP3    H1 2886   3.682   4.764   6.158
  981TIP3    H2 2887   3.810   4.753   6.078
  982TIP3   OH2 2888   5.436   1.267   2.448
  982TIP3    H1 2889   5.354   1.310   2.470
  982TIP3    H2 2890   5.414   1.173   2.444
  983TIP3   OH2 2891   4.866   6.822   1.220
  983TIP3    H1 2892   4.854   6.761   1.293
  983TIP3    H2 2893   4.897   6.767   1.148
  984TIP3   OH2 2894   4.564   6.256   2.732
  984TIP3    H1 2895   4.618   6.209   2.796
  984TIP3    H2 2896   4.627   6.295   2.672
  985TIP3   OH2 2897   1.620   6.451   1.812
  985TIP3    H1 2898   1.540   6.504   1.811
  985TIP3    H2 2899   1.671   6.486   1.885
  986TIP3   OH2 2900   7.270   7.137   6.491
  986TIP3    H1 2901   7.278   7.204   6.423
  986TIP3    H2 2902   7.176   7.130   6.508
  987TIP3   OH2 2903   3.929   6.457   4.511
  987TIP3    H1 2904   3.896   6.390   4.452
  987TIP3    H2 2905   4.024   6.452   4.503
  988TIP3   OH2 2906   6.529   1.692   3.344
  988TIP3    H1 2907   6.532   1.787   3.336
  988TIP3    H2 2908   6.608   1.662   3.299
  989TIP3   OH2 2909   2.536   1.535   4.016
  989TIP3    H1 2910   2.510   1.471   4.083
  989TIP3    H2 2911   2.562   1.612   4.066
  990TIP3   OH2 2912   6.387   7.429   2.530
  990TIP3    H1 2913   6.405   7.343   2.492
  990TIP3    H2 2914   6.452   7.438   2.600
  991TIP3   OH2 2915   8.206   1.010   4.760
  991TIP3    H1 2916   8.171   0.937   4.812
  991TIP3    H2 2917   8.150   1.084   4.782
  992TIP3   OH2 2918   6.098   0.753   3.783
  992TIP3    H1 2919   6.032   0.697   3.824
  992TIP3    H2 2920   6.174   0.696   3.770
  993TIP3   OH2 2921   3.357   1.133   3.043
  993TIP3    H1 2922   3.451   1.128   3.022
  993TIP3    H2 2923   3.348   1.215   3.091
  994TIP3   OH2 2924   3.276   7.570   1.698
  994TIP3    H1 2925   3.337   7.641   1.681
  994TIP3    H2 2926   3.233   7.593   1.780
  995TIP3   OH2 2927   3.797   1.661   5.512
  995TIP3    H1 2928   3.814   1.587   5.569
  995TIP3    H2 2929   3.878   1.670   5.461
  996TIP3   OH2 2930   2.660   0.534   4.093
  996TIP3    H1 2931   2.729   0.601   4.098
  996TIP3    H2 2932   2.644   0.523   3.999
  997TIP3   OH2 2933   7.985   1.225   2.885
  997TIP3    H1 2934   7.928   1.285   2.837
  997TIP3    H2 2935   7.973   1.141   2.840
  998TIP3   OH2 2936   6.392   5.812   4.780
  998TIP3    H1 2937   6.380   5.724   4.816
  998TIP3    H2 2938   6.451   5.799   4.706
  999TIP3   OH2 2939   5.506   7.684   6.728
  999TIP3    H1 2940   5.434   7.694   6.790
  999TIP3    H2 2941   5.579   7.653   6.781
 1000TIP3   OH2 2942   6.723   7.671   1.777
 1000TIP3    H1 2943   6.675   7.752   1.763
 1000TIP3    H2 2944   6.726   7.661   1.872
 1001TIP3   OH2 2945   7.913   7.358   5.615
 1001TIP3    H1 2946   7.823   7.391   5.611
 1001TIP3    H2 2947   7.934   7.334   5.525
 1002TIP3   OH2 2948   4.606   3.739   4.932
 1002TIP3    H1 2949   4.587   3.806   4.998
 1002TIP3    H2 2950   4.533   3.678   4.939
 1003TIP3   OH2 2951   1.743   2.033   6.587
 1003TIP3    H1 2952   1.727   1.983   6.667
 1003TIP3    H2 2953   1.764   2.121   6.618
 1004TIP3   OH2 2954   6.048   7.241   5.623
 1004TIP3    H1 2955   6.127   7.280   5.584
 1004TIP3    H2 2956   5.980   7.255   5.558
 1005TIP3   OH2 2957   2.602   4.130   4.936
 1005TIP3    H1 2958   2.691   4.155   4.911
 1005TIP3    H2 2959   2.548   4.155   4.861
 1006TIP3   OH2 2960   7.152   6.239   3.846
 1006TIP3    H1 2961   7.190   6.289   3.919
 1006TIP3    H2 2962   7.210   6.164   3.835
 1007TIP3   OH2 2963   1.367   1.818   0.780
 1007TIP3    H1 2964   1.313   1.740   0.774
 1007TIP3    H2 2965   1.457   1.787   0.770
 1008TIP3   OH2 2966   8.317   2.280   0.331
 1008TIP3    H1 2967   8.368   2.252   0.255
 1008TIP3    H2 2968   8.228   2.288   0.298
 1009TIP3   OH2 2969   6.282   2.593   5.721
 1009TIP3    H1 2970   6.214   2.526   5.723
 1009TIP3    H2 2971   6.342   2.564   5.653
 1010TIP3   OH2 2972   5.469   4.137   3.299
 1010TIP3    H1 2973   5.397   4.200   3.288
 1010TIP3    H2 2974   5.480   4.130   3.393
 1011TIP3   OH2 2975   1.625   5.961   6.263
 1011TIP3    H1 2976   1.715   5.933   6.281
 1011TIP3    H2 2977   1.573   5.882   6.274
 1012TIP3   OH2 2978   5.775   2.243   5.030
 1012TIP3    H1 2979   5.741   2.237   5.119
 1012TIP3    H2 2980   5.792   2.336   5.017
 1013TIP3   OH2 2981   5.136   6.499   2.374
 1013TIP3    H1 2982   5.112   6.445   2.450
 1013TIP3    H2 2983   5.052   6.530   2.340
 1014TIP3   OH2 2984   7.622   4.815   2.658
 1014TIP3    H1 2985   7.606   4.768   2.576
 1014TIP3    H2 2986   7.632   4.746   2.724
 1015TIP3   OH2 2987   2.116   5.669   0.230
 1015TIP3    H1 2988   2.134   5.596   0.170
 1015TIP3    H2 2989   2.195   5.723   0.227
 1016TIP3   OH2 2990   4.308   5.356   0.366
 1016TIP3    H1 2991   4.217   5.334   0.386
 1016TIP3    H2 2992   4.345   5.386   0.449
 1017TIP3   OH2 2993   0.036   4.875   1.055
 1017TIP3    H1 2994   0.066   4.963   1.035
 1017TIP3    H2 2995   0.113   4.832   1.094
 1018TIP3   OH2 2996   0.205   5.302   3.072
 1018TIP3    H1 2997   0.218   5.255   3.154
 1018TIP3    H2 2998   0.120   5.273   3.040
 1019TIP3   OH2 2999   0.415   2.983   0.711
 1019TIP3    H1 3000   0.323   2.969   0.735
 1019TIP3    H2 3001   0.454   2.896   0.716
 1020TIP3   OH2 3002   0.330   6.343   0.322
 1020TIP3    H1 3003   0.383   6.280   0.370
 1020TIP3    H2 3004   0.392   6.395   0.272
 1021TIP3   OH2 3005   4.413   0.105   4.458
 1021TIP3    H1 3006   4.445   0.188   4.422
 1021TIP3    H2 3007   4.484   0.075   4.515
 1022TIP3   OH2 3008   4.305   1.514   0.521
 1022TIP3    H1 3009   4.399   1.513   0.506
 1022TIP3    H2 3010   4.269   1.463   0.448
 1023TIP3   OH2 3011   1.843   7.042   1.217
 1023TIP3    H1 3012   1.768   7.040   1.277
 1023TIP3    H2 3013   1.891   6.962   1.235
 1024TIP3   OH2 3014   7.804   1.561   4.584
 1024TIP3    H1 3015   7.789   1.499   4.655
 1024TIP3    H2 3016   7.883   1.530   4.541
 1025TIP3   OH2 3017   2.206   2.709   3.788
 1025TIP3    H1 3018   2.193   2.687   3.880
 1025TIP3    H2 3019   2.122   2.688   3.746
 1026TIP3   OH2 3020   2.594   5.458   3.597
 1026TIP3    H1 3021   2.658   5.492   3.535
 1026TIP3    H2 3022   2.605   5.363   3.593
 1027TIP3   OH2 3023   7.790   3.271   6.233
 1027TIP3    H1 3024   7.797   3.304   6.143
 1027TIP3    H2 3025   7.867   3.216   6.244
 1028TIP3   OH2 3026   2.634   3.073   5.405
 1028TIP3    H1 3027   2.716   3.035   5.439
 1028TIP3    H2 3028   2.568   3.047   5.470
 1029TIP3   OH2 3029   4.428   4.533   1.150
 1029TIP3    H1 3030   4.459   4.597   1.086
 1029TIP3    H2 3031   4.345   4.502   1.114
 1030TIP3   OH2 3032   3.024   7.689   0.037
 1030TIP3    H1 3033   2.934   7.716   0.019
 1030TIP3    H2 3034   3.027   7.598   0.009
 1031TIP3   OH2 3035   7.797   0.703   6.407
 1031TIP3    H1 3036   7.746   0.628   6.377
 1031TIP3    H2 3037   7.888   0.677   6.395
 1032TIP3   OH2 3038   0.798   3.974   4.749
 1032TIP3    H1 3039   0.883   3.980   4.704
 1032TIP3    H2 3040   0.770   4.065   4.758
 1033TIP3   OH2 3041   4.294   1.604   0.933
 1033TIP3    H1 3042   4.276   1.680   0.877
 1033TIP3    H2 3043   4.363   1.557   0.887
 1034TIP3   OH2 3044   7.450   3.030   1.754
 1034TIP3    H1 3045   7.459   3.094   1.825
 1034TIP3    H2 3046   7.476   2.947   1.793
 1035TIP3   OH2 3047   7.098   4.217   5.484
 1035TIP3    H1 3048   7.003   4.213   5.501
 1035TIP3    H2 3049   7.110   4.162   5.407
 1036TIP3   OH2 3050   3.258   2.411   3.750
 1036TIP3    H1 3051   3.347   2.437   3.774
 1036TIP3    H2 3052   3.213   2.494   3.734
 1037TIP3   OH2 3053   5.655   2.296   3.590
 1037TIP3    H1 3054   5.649   2.208   3.627
 1037TIP3    H2 3055   5.642   2.355   3.665
 1038TIP3   OH2 3056   5.844   4.026   5.897
 1038TIP3    H1 3057   5.875   4.114   5.915
 1038TIP3    H2 3058   5.891   3.971   5.960
 1039TIP3   OH2 3059   6.344   5.970   2.553
 1039TIP3    H1 3060   6.429   5.967   2.597
 1039TIP3    H2 3061   6.340   6.057   2.515
 1040TIP3   OH2 3062   7.328   0.722   5.360
 1040TIP3    H1 3063   7.421   0.701   5.366
 1040TIP3    H2 3064   7.300   0.687   5.275
 1041TIP3   OH2 3065   2.789   4.086   2.241
 1041TIP3    H1 3066   2.731   4.109   2.314
 1041TIP3    H2 3067   2.783   4.161   2.182
 1042TIP3   OH2 3068   5.919   0.335   5.985
 1042TIP3    H1 3069   5.922   0.390   5.906
 1042TIP3    H2 3070   5.956   0.391   6.053
 1043TIP3   OH2 3071   5.166   5.012   4.863
 1043TIP3    H1 3072   5.177   5.101   4.830
 1043TIP3    H2 3073   5.252   4.988   4.898
 1044TIP3   OH2 3074   6.059   4.467   4.538
 1044TIP3    H1 3075   5.989   4.507   4.486
 1044TIP3    H2 3076   6.105   4.542   4.577
 1045TIP3   OH2 3077   1.986   1.653   6.560
 1045TIP3    H1 3078   1.965   1.638   6.652
 1045TIP3    H2 3079   1.952   1.740   6.542
 1046TIP3   OH2 3080   2.812   1.180   0.728
 1046TIP3    H1 3081   2.754   1.158   0.655
 1046TIP3    H2 3082   2.899   1.151   0.699
 1047TIP3   OH2 3083   2.371   6.586   6.713
 1047TIP3    H1 3084   2.321   6.655   6.757
 1047TIP3    H2 3085   2.349   6.595   6.620
 1048TIP3   OH2 3086   3.645   2.946   6.650
 1048TIP3    H1 3087   3.600   2.898   6.580
 1048TIP3    H2 3088   3.692   2.879   6.699
 1049TIP3   OH2 3089   5.087   2.706   6.233
 1049TIP3    H1 3090   5.004   2.746   6.205
 1049TIP3    H2 3091   5.098   2.631   6.174
 1050TIP3   OH2 3092   0.018   3.943   0.229
 1050TIP3    H1 3093   0.082   4.012   0.214
 1050TIP3    H2 3094  -0.035   3.974   0.302
 1051TIP3   OH2 3095   5.143   0.236   3.257
 1051TIP3    H1 3096   5.135   0.184   3.177
 1051TIP3    H2 3097   5.136   0.173   3.328
 1052TIP3   OH2 3098   6.412   5.531   6.450
 1052TIP3    H1 3099   6.398   5.567   6.363
 1052TIP3    H2 3100   6.395   5.437   6.441
 1053TIP3   OH2 3101   2.561   7.618   2.547
 1053TIP3    H1 3102   2.572   7.542   2.604
 1053TIP3    H2 3103   2.565   7.583   2.458
 1054TIP3   OH2 3104   6.285   6.202   4.054
 1054TIP3    H1 3105   6.196   6.236   4.053
 1054TIP3    H2 3106   6.331   6.254   3.988
 1055TIP3   OH2 3107   7.231   3.300   2.063
 1055TIP3    H1 3108   7.209   3.376   2.117
 1055TIP3    H2 3109   7.146   3.261   2.042
 1056TIP3   OH2 3110   6.361   7.706   5.464
 1056TIP3    H1 3111   6.285   7.651   5.485
 1056TIP3    H2 3112   6.330   7.763   5.393
 1057TIP3   OH2 3113   0.665   3.432   3.658
 1057TIP3    H1 3114   0.750   3.467   3.630
 1057TIP3    H2 3115   0.652   3.467   3.746
 1058TIP3   OH2 3116   0.113   3.359   0.015
 1058TIP3    H1 3117   0.166   3.388  -0.059
 1058TIP3    H2 3118   0.176   3.338   0.084
 1059TIP3   OH2 3119   3.937   3.423   5.569
 1059TIP3    H1 3120   3.920   3.342   5.617
 1059TIP3    H2 3121   3.862   3.479   5.588
 1060TIP3   OH2 3122   5.338   0.744   1.099
 1060TIP3    H1 3123   5.333   0.695   1.181
 1060TIP3    H2 3124   5.250   0.782   1.088
 1061TIP3   OH2 3125   7.796   6.942   1.241
 1061TIP3    H1 3126   7.758   6.944   1.153
 1061TIP3    H2 3127   7.758   6.865   1.282
 1062TIP3   OH2 3128   2.611   5.134   1.000
 1062TIP3    H1 3129   2.517   5.120   1.004
 1062TIP3    H2 3130   2.639   5.091   0.920
 1063TIP3   OH2 3131   6.885   5.249   0.714
 1063TIP3    H1 3132   6.873   5.172   0.770
 1063TIP3    H2 3133   6.974   5.241   0.681
 1064TIP3   OH2 3134   4.878   0.457   1.234
 1064TIP3    H1 3135   4.972   0.441   1.221
 1064TIP3    H2 3136   4.837   0.372   1.220
 1065TIP3   OH2 3137   5.444   6.663   5.106
 1065TIP3    H1 3138   5.477   6.596   5.165
 1065TIP3    H2 3139   5.521   6.714   5.081
 1066TIP3   OH2 3140   2.144   6.750   0.238
 1066TIP3    H1 3141   2.153   6.657   0.216
 1066TIP3    H2 3142   2.156   6.753   0.333
 1067TIP3   OH2 3143   5.495   4.623   6.440
 1067TIP3    H1 3144   5.481   4.703   6.388
 1067TIP3    H2 3145   5.409   4.604   6.477
 1068TIP3   OH2 3146   5.040   6.880   2.899
 1068TIP3    H1 3147   5.082   6.873   2.985
 1068TIP3    H2 3148   5.045   6.973   2.877
 1069TIP3   OH2 3149   6.217   5.593   0.577
 1069TIP3    H1 3150   6.181   5.641   0.503
 1069TIP3    H2 3151   6.308   5.621   0.582
 1070TIP3   OH2 3152   6.621   1.631   5.302
 1070TIP3    H1 3153   6.616   1.614   5.208
 1070TIP3    H2 3154   6.660   1.718   5.309
 1071TIP3   OH2 3155   1.598   7.450   0.293
 1071TIP3    H1 3156   1.520   7.499   0.265
 1071TIP3    H2 3157   1.662   7.517   0.314
 1072TIP3   OH2 3158   4.418   3.907   0.893
 1072TIP3    H1 3159   4.339   3.860   0.866
 1072TIP3    H2 3160   4.406   3.921   0.987
 1073TIP3   OH2 3161   4.839   7.462   5.556
 1073TIP3    H1 3162   4.792   7.443   5.475
 1073TIP3    H2 3163   4.786   7.528   5.600
 1074TIP3   OH2 3164   6.917   2.904   5.985
 1074TIP3    H1 3165   6.830   2.940   6.003
 1074TIP3    H2 3166   6.901   2.831   5.924
 1075TIP3   OH2 3167   4.453   2.746   4.742
 1075TIP3    H1 3168   4.548   2.752   4.730
 1075TIP3    H2 3169   4.427   2.833   4.774
 1076TIP3   OH2 3170   8.108   6.967   2.520
 1076TIP3    H1 3171   8.162   6.996   2.593
 1076TIP3    H2 3172   8.158   6.991   2.442
 1077TIP3   OH2 3173   2.084   1.421   5.878
 1077TIP3    H1 3174   1.992   1.446   5.872
 1077TIP3    H2 3175   2.086   1.353   5.945
 1078TIP3   OH2 3176   5.502   5.100   5.671
 1078TIP3    H1 3177   5.566   5.155   5.716
 1078TIP3    H2 3178   5.423   5.108   5.724
 1079TIP3   OH2 3179   7.774   6.182   2.784
 1079TIP3    H1 3180   7.683   6.188   2.813
 1079TIP3    H2 3181   7.822   6.239   2.844
 1080TIP3   OH2 3182   5.747   5.619   4.691
 1080TIP3    H1 3183   5.687   5.641   4.620
 1080TIP3    H2 3184   5.691   5.576   4.757
 1081TIP3   OH2 3185   7.364   4.833   2.199
 1081TIP3    H1 3186   7.329   4.879   2.123
 1081TIP3    H2 3187   7.289   4.823   2.257
 1082TIP3   OH2 3188   2.859   5.496   3.435
 1082TIP3    H1 3189   2.865   5.452   3.351
 1082TIP3    H2 3190   2.853   5.425   3.499
 1083TIP3   OH2 3191   4.315   1.659   6.198
 1083TIP3    H1 3192   4.313   1.700   6.285
 1083TIP3    H2 3193   4.400   1.616   6.194
 1084TIP3   OH2 3194   4.418   1.684   4.558
 1084TIP3    H1 3195   4.496   1.673   4.502
 1084TIP3    H2 3196   4.446   1.745   4.625
 1085TIP3   OH2 3197   6.303   4.154   3.883
 1085TIP3    H1 3198   6.378   4.098   3.863
 1085TIP3    H2 3199   6.330   4.241   3.851
 1086TIP3   OH2 3200   0.494   4.191   6.105
 1086TIP3    H1 3201   0.429   4.123   6.124
 1086TIP3    H2 3202   0.531   4.213   6.191
 1087TIP3   OH2 3203   3.308   4.114   3.255
 1087TIP3    H1 3204   3.382   4.080   3.205
 1087TIP3    H2 3205   3.348   4.157   3.331
 1088TIP3   OH2 3206   0.194   6.124   1.407
 1088TIP3    H1 3207   0.108   6.133   1.366
 1088TIP3    H2 3208   0.216   6.032   1.396
 1089TIP3   OH2 3209   3.161   3.836   4.420
 1089TIP3    H1 3210   3.200   3.865   4.503
 1089TIP3    H2 3211   3.236   3.805   4.369
 1090TIP3   OH2 3212   3.645   0.123   1.602
 1090TIP3    H1 3213   3.576   0.152   1.542
 1090TIP3    H2 3214   3.664   0.200   1.656
 1091TIP3   OH2 3215   2.294   7.059   5.717
 1091TIP3    H1 3216   2.234   7.027   5.649
 1091TIP3    H2 3217   2.241   7.061   5.796
 1092TIP3   OH2 3218   6.539   6.331   1.913
 1092TIP3    H1 3219   6.444   6.332   1.909
 1092TIP3    H2 3220   6.560   6.322   2.006
 1093TIP3   OH2 3221   4.142   5.054   0.859
 1093TIP3    H1 3222   4.174   4.970   0.825
 1093TIP3    H2 3223   4.063   5.072   0.809
 1094TIP3   OH2 3224   1.848   6.598   4.860
 1094TIP3    H1 3225   1.869   6.577   4.951
 1094TIP3    H2 3226   1.807   6.684   4.864
 1095TIP3   OH2 3227   1.289   4.538   2.597
 1095TIP3    H1 3228   1.358   4.478   2.629
 1095TIP3    H2 3229   1.247   4.490   2.526
 1096TIP3   OH2 3230   2.191   4.839   0.331
 1096TIP3    H1 3231   2.115   4.782   0.324
 1096TIP3    H2 3232   2.160   4.924   0.299
 1097TIP3   OH2 3233   4.434   7.520   6.537
 1097TIP3    H1 3234   4.458   7.465   6.462
 1097TIP3    H2 3235   4.457   7.468   6.614
 1098TIP3   OH2 3236   0.733   2.770   3.175
 1098TIP3    H1 3237   0.659   2.724   3.135
 1098TIP3    H2 3238   0.775   2.705   3.231
 1099TIP3   OH2 3239   7.125   4.408   2.649
 1099TIP3    H1 3240   7.034   4.417   2.676
 1099TIP3    H2 3241   7.122   4.411   2.553
 1100TIP3   OH2 3242   0.925   1.141   2.972
 1100TIP3    H1 3243   0.936   1.055   2.933
 1100TIP3    H2 3244   1.013   1.169   2.996
 1101TIP3   OH2 3245   2.176   5.670   3.587
 1101TIP3    H1 3246   2.255   5.637   3.629
 1101TIP3    H2 3247   2.114   5.682   3.660
 1102TIP3   OH2 3248   0.124   0.373   0.493
 1102TIP3    H1 3249   0.100   0.336   0.408
 1102TIP3    H2 3250   0.193   0.315   0.525
 1103TIP3   OH2 3251   5.562   5.104   4.700
 1103TIP3    H1 3252   5.508   5.069   4.771
 1103TIP3    H2 3253   5.599   5.185   4.736
 1104TIP3   OH2 3254   3.301   3.639   4.330
 1104TIP3    H1 3255   3.264   3.609   4.413
 1104TIP3    H2 3256   3.387   3.598   4.325
 1105TIP3   OH2 3257   7.465   7.347   0.236
 1105TIP3    H1 3258   7.463   7.260   0.195
 1105TIP3    H2 3259   7.379   7.356   0.277
 1106TIP3   OH2 3260   6.995   5.097   0.109
 1106TIP3    H1 3261   7.027   5.110   0.020
 1106TIP3    H2 3262   7.074   5.094   0.163
 1107TIP3   OH2 3263   0.512   6.796   2.240
 1107TIP3    H1 3264   0.605   6.818   2.232
 1107TIP3    H2 3265   0.510   6.723   2.303
 1108TIP3   OH2 3266   2.387   1.552   6.171
 1108TIP3    H1 3267   2.322   1.608   6.128
 1108TIP3    H2 3268   2.389   1.472   6.118
 1109TIP3   OH2 3269   4.860   1.946   1.712
 1109TIP3    H1 3270   4.887   2.037   1.719
 1109TIP3    H2 3271   4.863   1.927   1.619
 1110TIP3   OH2 3272   5.231   4.561   5.968
 1110TIP3    H1 3273   5.219   4.488   6.028
 1110TIP3    H2 3274   5.143   4.598   5.957
 1111TIP3   OH2 3275   2.766   4.668   2.139
 1111TIP3    H1 3276   2.735   4.740   2.083
 1111TIP3    H2 3277   2.844   4.703   2.182
 1112TIP3   OH2 3278   5.067   7.519   2.879
 1112TIP3    H1 3279   5.151   7.549   2.845
 1112TIP3    H2 3280   5.026   7.473   2.806
 1113TIP3   OH2 3281   3.505   3.544   2.420
 1113TIP3    H1 3282   3.525   3.535   2.326
 1113TIP3    H2 3283   3.577   3.598   2.454
 1114TIP3   OH2 3284   5.174   4.227   5.481
 1114TIP3    H1 3285   5.154   4.134   5.491
 1114TIP3    H2 3286   5.264   4.229   5.448
 1115TIP3   OH2 3287   4.019   2.316   5.169
 1115TIP3    H1 3288   3.989   2.289   5.256
 1115TIP3    H2 3289   4.098   2.368   5.186
 1116TIP3   OH2 3290   2.085   2.636   0.262
 1116TIP3    H1 3291   2.026   2.599   0.327
 1116TIP3    H2 3292   2.150   2.567   0.247
 1117TIP3   OH2 3293   3.021   3.667   1.222
 1117TIP3    H1 3294   3.011   3.702   1.133
 1117TIP3    H2 3295   3.096   3.715   1.257
 1118TIP3   OH2 3296   6.552   5.794   2.933
 1118TIP3    H1 3297   6.575   5.826   2.846
 1118TIP3    H2 3298   6.636   5.770   2.973
 1119TIP3   OH2 3299   4.531   4.394   0.347
 1119TIP3    H1 3300   4.591   4.319   0.342
 1119TIP3    H2 3301   4.484   4.392   0.264
 1120TIP3   OH2 3302   5.686   1.800   4.501
 1120TIP3    H1 3303   5.651   1.802   4.412
 1120TIP3    H2 3304   5.632   1.864   4.549
 1121TIP3   OH2 3305   4.817   4.712   5.682
 1121TIP3    H1 3306   4.798   4.732   5.774
 1121TIP3    H2 3307   4.897   4.760   5.663
 1122TIP3   OH2 3308   1.055   4.788   3.346
 1122TIP3    H1 3309   1.150   4.778   3.350
 1122TIP3    H2 3310   1.040   4.847   3.272
 1123TIP3   OH2 3311   0.958   2.312   0.465
 1123TIP3    H1 3312   0.941   2.305   0.559
 1123TIP3    H2 3313   0.879   2.353   0.430
 1124TIP3   OH2 3314   7.024   5.943   3.005
 1124TIP3    H1 3315   6.956   6.007   2.986
 1124TIP3    H2 3316   7.106   5.990   2.994
 1125TIP3   OH2 3317   2.842   1.747   6.254
 1125TIP3    H1 3318   2.760   1.768   6.211
 1125TIP3    H2 3319   2.848   1.651   6.250
 1126TIP3   OH2 3320   2.430   0.364   0.379
 1126TIP3    H1 3321   2.521   0.386   0.356
 1126TIP3    H2 3322   2.409   0.425   0.450
 1127TIP3   OH2 3323   5.116   4.788   4.488
 1127TIP3    H1 3324   5.076   4.816   4.405
 1127TIP3    H2 3325   5.166   4.710   4.465
 1128TIP3   OH2 3326   0.001   3.400   3.216
 1128TIP3    H1 3327   0.091   3.396   3.248
 1128TIP3    H2 3328  -0.034   3.313   3.233
 1129TIP3   OH2 3329   6.735   1.036   4.135
 1129TIP3    H1 3330   6.770   1.115   4.178
 1129TIP3    H2 3331   6.738   0.969   4.203
 1130TIP3   OH2 3332   4.484   6.039   1.441
 1130TIP3    H1 3333   4.413   5.989   1.402
 1130TIP3    H2 3334   4.446   6.126   1.457
 1131TIP3   OH2 3335   3.732   5.512   6.519
 1131TIP3    H1 3336   3.810   5.567   6.510
 1131TIP3    H2 3337   3.670   5.547   6.455
 1132TIP3   OH2 3338   3.319   1.633   2.661
 1132TIP3    H1 3339   3.391   1.611   2.602
 1132TIP3    H2 3340   3.244   1.584   2.627
 1133TIP3   OH2 3341   3.402   5.834   2.937
 1133TIP3    H1 3342   3.418   5.923   2.905
 1133TIP3    H2 3343   3.435   5.777   2.867
 1134TIP3   OH2 3344   5.484   7.028   0.845
 1134TIP3    H1 3345   5.422   7.060   0.910
 1134TIP3    H2 3346   5.565   7.076   0.863
 1135TIP3   OH2 3347   1.055   1.597   5.060
 1135TIP3    H1 3348   1.116   1.606   5.132
 1135TIP3    H2 3349   1.077   1.512   5.020
 1136TIP3   OH2 3350   2.242   1.952   6.326
 1136TIP3    H1 3351   2.226   1.912   6.412
 1136TIP3    H2 3352   2.257   1.878   6.267
 1137TIP3   OH2 3353   4.154   1.915   4.260
 1137TIP3    H1 3354   4.139   1.828   4.299
 1137TIP3    H2 3355   4.236   1.945   4.300
 1138TIP3   OH2 3356   7.787   0.550   0.687
 1138TIP3    H1 3357   7.710   0.499   0.662
 1138TIP3    H2 3358   7.803   0.607   0.612
 1139TIP3   OH2 3359   4.529   5.454   5.828
 1139TIP3    H1 3360   4.484   5.372   5.848
 1139TIP3    H2 3361   4.459   5.516   5.811
 1140TIP3   OH2 3362   5.563   1.951   0.606
 1140TIP3    H1 3363   5.640   1.980   0.558
 1140TIP3    H2 3364   5.489   1.983   0.555
 1141TIP3   OH2 3365   2.193   1.201   5.308
 1141TIP3    H1 3366   2.201   1.230   5.399
 1141TIP3    H2 3367   2.182   1.106   5.314
 1142TIP3   OH2 3368   4.864   1.058   1.644
 1142TIP3    H1 3369   4.816   1.060   1.561
 1142TIP3    H2 3370   4.954   1.078   1.619
 1143TIP3   OH2 3371   0.830   1.640   1.756
 1143TIP3    H1 3372   0.918   1.604   1.755
 1143TIP3    H2 3373   0.789   1.601   1.833
 1144TIP3   OH2 3374   2.340   6.602   2.704
 1144TIP3    H1 3375   2.348   6.671   2.638
 1144TIP3    H2 3376   2.280   6.538   2.664
 1145TIP3   OH2 3377   2.008   3.677   3.026
 1145TIP3    H1 3378   2.041   3.721   3.105
 1145TIP3    H2 3379   1.916   3.659   3.046
 1146TIP3   OH2 3380   5.817   0.991   4.205
 1146TIP3    H1 3381   5.844   1.082   4.213
 1146TIP3    H2 3382   5.803   0.963   4.295
 1147TIP3   OH2 3383   1.311   7.156   5.434
 1147TIP3    H1 3384   1.281   7.244   5.455
 1147TIP3    H2 3385   1.404   7.165   5.416
 1148TIP3   OH2 3386   1.707   3.856   3.750
 1148TIP3    H1 3387   1.799   3.880   3.764
 1148TIP3    H2 3388   1.698   3.772   3.794
 1149TIP3   OH2 3389   7.554   4.565   2.145
 1149TIP3    H1 3390   7.567   4.659   2.135
 1149TIP3    H2 3391   7.641   4.530   2.166
 1150TIP3   OH2 3392   3.491   7.369   3.081
 1150TIP3    H1 3393   3.561   7.432   3.066
 1150TIP3    H2 3394   3.521   7.316   3.155
 1151TIP3   OH2 3395   5.163   1.317   0.853
 1151TIP3    H1 3396   5.219   1.286   0.782
 1151TIP3    H2 3397   5.127   1.400   0.820
 1152TIP3   OH2 3398   5.985   1.834   4.485
 1152TIP3    H1 3399   6.000   1.927   4.468
 1152TIP3    H2 3400   5.891   1.826   4.499
 1153TIP3   OH2 3401   7.466   5.594   5.641
 1153TIP3    H1 3402   7.428   5.507   5.631
 1153TIP3    H2 3403   7.465   5.610   5.735
 1154TIP3   OH2 3404   0.035   7.487   3.941
 1154TIP3    H1 3405   0.049   7.581   3.931
 1154TIP3    H2 3406  -0.057   7.479   3.966
 1155TIP3   OH2 3407   3.675   1.219   6.487
 1155TIP3    H1 3408   3.631   1.142   6.451
 1155TIP3    H2 3409   3.707   1.267   6.411
 1156TIP3   OH2 3410   8.056   6.154   5.644
 1156TIP3    H1 3411   8.099   6.084   5.595
 1156TIP3    H2 3412   8.021   6.212   5.576
 1157TIP3   OH2 3413   6.854   4.625   2.349
 1157TIP3    H1 3414   6.788   4.563   2.318
 1157TIP3    H2 3415   6.836   4.706   2.300
 1158TIP3   OH2 3416   4.339   1.164   1.642
 1158TIP3    H1 3417   4.375   1.247   1.673
 1158TIP3    H2 3418   4.408   1.100   1.656
 1159TIP3   OH2 3419   4.085   7.344   2.982
 1159TIP3    H1 3420   4.013   7.302   2.935
 1159TIP3    H2 3421   4.131   7.395   2.916
 1160TIP3   OH2 3422   5.703   7.784   4.694
 1160TIP3    H1 3423   5.756   7.844   4.747
 1160TIP3    H2 3424   5.646   7.842   4.643
 1161TIP3   OH2 3425   7.660   0.983   4.750
 1161TIP3    H1 3426   7.741   0.932   4.747
 1161TIP3    H2 3427   7.594   0.920   4.780
 1162TIP3   OH2 3428   2.133   4.707   0.000
 1162TIP3    H1 3429   2.178   4.628  -0.030
 1162TIP3    H2 3430   2.065   4.675   0.059
 1163TIP3   OH2 3431   1.769   5.499   3.496
 1163TIP3    H1 3432   1.823   5.448   3.556
 1163TIP3    H2 3433   1.727   5.433   3.440
 1164TIP3   OH2 3434   5.969   1.423   0.505
 1164TIP3    H1 3435   6.032   1.402   0.574
 1164TIP3    H2 3436   6.023   1.457   0.433
 1165TIP3   OH2 3437   5.868   1.424   6.528
 1165TIP3    H1 3438   5.956   1.405   6.559
 1165TIP3    H2 3439   5.834   1.489   6.589
 1166TIP3   OH2 3440   4.859   4.328   2.339
 1166TIP3    H1 3441   4.932   4.364   2.389
 1166TIP3    H2 3442   4.867   4.366   2.252
 1167TIP3   OH2 3443   5.695   1.442   5.256
 1167TIP3    H1 3444   5.723   1.497   5.328
 1167TIP3    H2 3445   5.718   1.353   5.283
 1168TIP3   OH2 3446   0.694   0.253   0.876
 1168TIP3    H1 3447   0.688   0.345   0.850
 1168TIP3    H2 3448   0.686   0.204   0.794
 1169TIP3   OH2 3449   0.043   0.156   2.103
 1169TIP3    H1 3450   0.102   0.117   2.168
 1169TIP3    H2 3451   0.021   0.242   2.138
 1170TIP3   OH2 3452   0.872   5.976   0.077
 1170TIP3    H1 3453   0.968   5.970   0.076
 1170TIP3    H2 3454   0.845   5.934  -0.005
 1171TIP3   OH2 3455   2.403   4.275   1.007
 1171TIP3    H1 3456   2.478   4.308   1.056
 1171TIP3    H2 3457   2.433   4.271   0.917
 1172TIP3   OH2 3458   4.702   3.702   0.099
 1172TIP3    H1 3459   4.751   3.646   0.038
 1172TIP3    H2 3460   4.627   3.649   0.126
 1173TIP3   OH2 3461   2.980   5.350   5.203
 1173TIP3    H1 3462   3.005   5.353   5.111
 1173TIP3    H2 3463   2.976   5.441   5.230
 1174TIP3   OH2 3464   5.316   7.591   1.570
 1174TIP3    H1 3465   5.320   7.546   1.486
 1174TIP3    H2 3466   5.381   7.660   1.563
 1175TIP3   OH2 3467   3.184   0.660   3.195
 1175TIP3    H1 3468   3.196   0.748   3.161
 1175TIP3    H2 3469   3.217   0.664   3.285
 1176TIP3   OH2 3470   3.099   3.132   5.902
 1176TIP3    H1 3471   3.169   3.151   5.964
 1176TIP3    H2 3472   3.099   3.037   5.895
 1177TIP3   OH2 3473   5.409   6.089   6.631
 1177TIP3    H1 3474   5.452   6.063   6.712
 1177TIP3    H2 3475   5.440   6.179   6.615
 1178TIP3   OH2 3476   4.252   0.779   3.520
 1178TIP3    H1 3477   4.292   0.693   3.534
 1178TIP3    H2 3478   4.162   0.759   3.494
 1179TIP3   OH2 3479   5.468   3.612   1.187
 1179TIP3    H1 3480   5.465   3.537   1.129
 1179TIP3    H2 3481   5.562   3.630   1.198
 1180TIP3   OH2 3482   0.497   7.713   1.872
 1180TIP3    H1 3483   0.449   7.774   1.926
 1180TIP3    H2 3484   0.480   7.741   1.782
 1181TIP3   OH2 3485   2.053   1.481   1.851
 1181TIP3    H1 3486   1.987   1.501   1.917
 1181TIP3    H2 3487   2.100   1.563   1.838
 1182TIP3   OH2 3488   8.265   6.008   3.498
 1182TIP3    H1 3489   8.238   5.918   3.482
 1182TIP3    H2 3490   8.322   6.002   3.574
 1183TIP3   OH2 3491   6.861   4.662   1.062
 1183TIP3    H1 3492   6.806   4.710   1.124
 1183TIP3    H2 3493   6.826   4.684   0.976
 1184TIP3   OH2 3494   1.395   0.176   5.425
 1184TIP3    H1 3495   1.358   0.111   5.484
 1184TIP3    H2 3496   1.324   0.197   5.365
 1185TIP3   OH2 3497   1.586   2.319   3.155
 1185TIP3    H1 3498   1.530   2.254   3.196
 1185TIP3    H2 3499   1.538   2.348   3.077
 1186TIP3   OH2 3500   4.814   5.849   5.559
 1186TIP3    H1 3501   4.820   5.787   5.632
 1186TIP3    H2 3502   4.826   5.796   5.481
 1187TIP3   OH2 3503   6.913   6.541   5.394
 1187TIP3    H1 3504   6.840   6.502   5.346
 1187TIP3    H2 3505   6.944   6.612   5.338
 1188TIP3   OH2 3506   0.335   1.301   4.238
 1188TIP3    H1 3507   0.297   1.380   4.201
 1188TIP3    H2 3508   0.291   1.229   4.192
 1189TIP3   OH2 3509   2.290   0.116   5.004
 1189TIP3    H1 3510   2.318   0.136   4.915
 1189TIP3    H2 3511   2.286   0.020   5.006
 1190TIP3   OH2 3512   1.332   4.224   1.962
 1190TIP3    H1 3513   1.339   4.280   2.040
 1190TIP3    H2 3514   1.377   4.143   1.987
 1191TIP3   OH2 3515   7.612   7.353   5.124
 1191TIP3    H1 3516   7.568   7.398   5.196
 1191TIP3    H2 3517   7.604   7.260   5.146
 1192TIP3   OH2 3518   4.422   2.748   5.311
 1192TIP3    H1 3519   4.356   2.759   5.243
 1192TIP3    H2 3520   4.502   2.726   5.264
 1193TIP3   OH2 3521   4.865   1.360   1.749
 1193TIP3    H1 3522   4.793   1.362   1.812
 1193TIP3    H2 3523   4.838   1.296   1.683
 1194TIP3   OH2 3524   0.155   7.140   6.113
 1194TIP3    H1 3525   0.187   7.053   6.090
 1194TIP3    H2 3526   0.063   7.139   6.084
 1195TIP3   OH2 3527   2.588   3.719   5.499
 1195TIP3    H1 3528   2.522   3.756   5.440
 1195TIP3    H2 3529   2.655   3.787   5.506
 1196TIP3   OH2 3530   2.872   0.257   0.613
 1196TIP3    H1 3531   2.861   0.244   0.519
 1196TIP3    H2 3532   2.790   0.226   0.652
 1197TIP3   OH2 3533   4.747   4.156   0.366
 1197TIP3    H1 3534   4.836   4.188   0.382
 1197TIP3    H2 3535   4.758   4.086   0.301
 1198TIP3   OH2 3536   3.624   3.108   0.138
 1198TIP3    H1 3537   3.588   3.072   0.057
 1198TIP3    H2 3538   3.565   3.180   0.160
 1199TIP3   OH2 3539   3.606   1.313   2.908
 1199TIP3    H1 3540   3.583   1.247   2.842
 1199TIP3    H2 3541   3.648   1.263   2.978
 1200TIP3   OH2 3542   7.035   0.826   3.282
 1200TIP3    H1 3543   7.015   0.792   3.195
 1200TIP3    H2 3544   7.083   0.754   3.325
 1201TIP3   OH2 3545   6.968   1.206   3.435
 1201TIP3    H1 3546   7.040   1.235   3.379
 1201TIP3    H2 3547   6.961   1.274   3.502
 1202TIP3   OH2 3548   5.865   1.210   0.070
 1202TIP3    H1 3549   5.859   1.249   0.157
 1202TIP3    H2 3550   5.776   1.180   0.051
 1203TIP3   OH2 3551   0.195   2.789   1.235
 1203TIP3    H1 3552   0.154   2.706   1.257
 1203TIP3    H2 3553   0.185   2.797   1.140
 1204TIP3   OH2 3554   0.997   7.442   0.738
 1204TIP3    H1 3555   0.991   7.375   0.806
 1204TIP3    H2 3556   0.990   7.525   0.785
 1205TIP3   OH2 3557   3.494   7.051   5.351
 1205TIP3    H1 3558   3.482   7.110   5.426
 1205TIP3    H2 3559   3.518   6.968   5.391
 1206TIP3   OH2 3560   4.742   3.076   5.367
 1206TIP3    H1 3561   4.741   3.013   5.295
 1206TIP3    H2 3562   4.816   3.134   5.347
 1207TIP3   OH2 3563   7.455   2.780   4.092
 1207TIP3    H1 3564   7.412   2.812   4.013
 1207TIP3    H2 3565   7.525   2.722   4.060
 1208TIP3   OH2 3566   5.028   4.876   1.491
 1208TIP3    H1 3567   4.941   4.902   1.520
 1208TIP3    H2 3568   5.012   4.814   1.420
 1209TIP3   OH2 3569   0.766   5.169   1.506
 1209TIP3    H1 3570   0.753   5.131   1.592
 1209TIP3    H2 3571   0.678   5.180   1.470
 1210TIP3   OH2 3572   5.120   7.151   2.902
 1210TIP3    H1 3573   5.178   7.099   2.847
 1210TIP3    H2 3574   5.176   7.179   2.975
 1211TIP3   OH2 3575   3.461   3.086   5.415
 1211TIP3    H1 3576   3.511   3.042   5.484
 1211TIP3    H2 3577   3.442   3.017   5.351
 1212TIP3   OH2 3578   0.957   1.360   6.503
 1212TIP3    H1 3579   1.003   1.293   6.554
 1212TIP3    H2 3580   0.878   1.315   6.471
 1213TIP3   OH2 3581   0.511   5.616   6.355
 1213TIP3    H1 3582   0.463   5.666   6.289
 1213TIP3    H2 3583   0.499   5.666   6.436
 1214TIP3   OH2 3584   1.373   2.242   2.387
 1214TIP3    H1 3585   1.295   2.215   2.435
 1214TIP3    H2 3586   1.446   2.212   2.441
 1215TIP3   OH2 3587   2.158   2.627   4.060
 1215TIP3    H1 3588   2.210   2.685   4.116
 1215TIP3    H2 3589   2.210   2.547   4.054
 1216TIP3   OH2 3590   3.782   3.318   5.008
 1216TIP3    H1 3591   3.724   3.257   5.052
 1216TIP3    H2 3592   3.748   3.324   4.919
 1217TIP3   OH2 3593   1.823   5.512   2.539
 1217TIP3    H1 3594   1.899   5.455   2.548
 1217TIP3    H2 3595   1.845   5.569   2.465
 1218TIP3   OH2 3596   5.955   1.281   2.476
 1218TIP3    H1 3597   5.929   1.368   2.445
 1218TIP3    H2 3598   6.024   1.254   2.416
 1219TIP3   OH2 3599   7.977   7.802   2.023
 1219TIP3    H1 3600   8.061   7.822   2.064
 1219TIP3    H2 3601   7.913   7.856   2.070
 1220TIP3   OH2 3602   6.311   5.096   2.890
 1220TIP3    H1 3603   6.366   5.021   2.913
 1220TIP3    H2 3604   6.247   5.062   2.828
 1221TIP3   OH2 3605   4.676   1.944   1.380
 1221TIP3    H1 3606   4.611   1.955   1.311
 1221TIP3    H2 3607   4.738   1.879   1.344
 1222TIP3   OH2 3608   5.604   0.968   4.727
 1222TIP3    H1 3609   5.623   0.950   4.818
 1222TIP3    H2 3610   5.530   1.029   4.729
 1223TIP3   OH2 3611   4.966   6.370   2.833
 1223TIP3    H1 3612   4.888   6.397   2.785
 1223TIP3    H2 3613   4.961   6.418   2.916
 1224TIP3   OH2 3614   1.143   0.240   5.317
 1224TIP3    H1 3615   1.178   0.262   5.231
 1224TIP3    H2 3616   1.110   0.324   5.351
 1225TIP3   OH2 3617   5.321   1.977   2.834
 1225TIP3    H1 3618   5.298   2.011   2.747
 1225TIP3    H2 3619   5.355   1.889   2.817
 1226TIP3   OH2 3620   7.371   1.882   3.336
 1226TIP3    H1 3621   7.276   1.876   3.341
 1226TIP3    H2 3622   7.402   1.848   3.420
 1227TIP3   OH2 3623   6.780   1.066   6.293
 1227TIP3    H1 3624   6.736   0.983   6.279
 1227TIP3    H2 3625   6.855   1.045   6.349
 1228TIP3   OH2 3626   8.030   6.634   0.595
 1228TIP3    H1 3627   8.074   6.550   0.606
 1228TIP3    H2 3628   8.073   6.675   0.520
 1229TIP3   OH2 3629   6.672   1.302   2.503
 1229TIP3    H1 3630   6.745   1.364   2.508
 1229TIP3    H2 3631   6.644   1.305   2.412
 1230TIP3   OH2 3632   1.914   6.122   1.754
 1230TIP3    H1 3633   1.999   6.080   1.743
 1230TIP3    H2 3634   1.905   6.133   1.849
 1231TIP3   OH2 3635   6.558   3.868   1.293
 1231TIP3    H1 3636   6.629   3.823   1.338
 1231TIP3    H2 3637   6.509   3.911   1.363
 1232TIP3   OH2 3638   4.011   6.927   4.722
 1232TIP3    H1 3639   3.999   6.848   4.670
 1232TIP3    H2 3640   4.106   6.939   4.727
 1233TIP3   OH2 3641   6.351   2.463   5.113
 1233TIP3    H1 3642   6.442   2.473   5.140
 1233TIP3    H2 3643   6.301   2.514   5.176
 1234TIP3   OH2 3644   4.220   3.939   3.560
 1234TIP3    H1 3645   4.278   3.948   3.484
 1234TIP3    H2 3646   4.279   3.938   3.635
 1235TIP3   OH2 3647   6.923   5.546   0.491
 1235TIP3    H1 3648   6.949   5.638   0.486
 1235TIP3    H2 3649   6.846   5.545   0.548
 1236TIP3   OH2 3650   3.591   0.592   1.242
 1236TIP3    H1 3651   3.502   0.556   1.235
 1236TIP3    H2 3652   3.589   0.641   1.325
 1237TIP3   OH2 3653   7.961   3.802   6.604
 1237TIP3    H1 3654   8.004   3.717   6.611
 1237TIP3    H2 3655   7.900   3.792   6.531
 1238TIP3   OH2 3656   1.860   6.730   2.189
 1238TIP3    H1 3657   1.952   6.751   2.204
 1238TIP3    H2 3658   1.842   6.760   2.100
 1239TIP3   OH2 3659   4.421   5.691   0.872
 1239TIP3    H1 3660   4.454   5.765   0.921
 1239TIP3    H2 3661   4.370   5.641   0.936
 1240TIP3   OH2 3662   1.372   4.166   3.349
 1240TIP3    H1 3663   1.327   4.233   3.400
 1240TIP3    H2 3664   1.319   4.087   3.362
 1241TIP3   OH2 3665   3.919   1.506   4.555
 1241TIP3    H1 3666   3.953   1.486   4.642
 1241TIP3    H2 3667   3.982   1.467   4.494
 1242TIP3   OH2 3668   3.256   1.458   4.613
 1242TIP3    H1 3669   3.196   1.467   4.686
 1242TIP3    H2 3670   3.203   1.477   4.535
 1243TIP3   OH2 3671   4.894   6.662   5.796
 1243TIP3    H1 3672   4.894   6.641   5.702
 1243TIP3    H2 3673   4.802   6.669   5.819
 1244TIP3   OH2 3674   8.106   1.559   2.283
 1244TIP3    H1 3675   8.034   1.620   2.298
 1244TIP3    H2 3676   8.159   1.565   2.362
 1245TIP3   OH2 3677   3.675   3.369   4.100
 1245TIP3    H1 3678   3.615   3.294   4.107
 1245TIP3    H2 3679   3.738   3.356   4.171
 1246TIP3   OH2 3680   7.820   1.786   0.631
 1246TIP3    H1 3681   7.847   1.699   0.659
 1246TIP3    H2 3682   7.882   1.845   0.673
 1247TIP3   OH2 3683   2.158   3.649   2.053
 1247TIP3    H1 3684   2.078   3.599   2.037
 1247TIP3    H2 3685   2.154   3.671   2.146
 1248TIP3   OH2 3686   1.156   1.082   3.639
 1248TIP3    H1 3687   1.131   1.141   3.568
 1248TIP3    H2 3688   1.183   1.140   3.710
 1249TIP3   OH2 3689   2.596   5.011   3.392
 1249TIP3    H1 3690   2.560   4.935   3.345
 1249TIP3    H2 3691   2.538   5.083   3.370
 1250TIP3   OH2 3692   7.723   2.030   4.249
 1250TIP3    H1 3693   7.674   1.977   4.186
 1250TIP3    H2 3694   7.724   1.977   4.329
 1251TIP3   OH2 3695   1.487   5.117   1.327
 1251TIP3    H1 3696   1.515   5.077   1.409
 1251TIP3    H2 3697   1.566   5.122   1.274
 1252TIP3   OH2 3698   5.633   6.607   6.538
 1252TIP3    H1 3699   5.578   6.646   6.606
 1252TIP3    H2 3700   5.637   6.674   6.469
 1253TIP3   OH2 3701   1.100   7.196   6.478
 1253TIP3    H1 3702   1.139   7.280   6.457
 1253TIP3    H2 3703   1.006   7.208   6.465
 1254TIP3   OH2 3704   7.891   5.196   1.011
 1254TIP3    H1 3705   7.888   5.243   0.928
 1254TIP3    H2 3706   7.896   5.104   0.986
 1255TIP3   OH2 3707   3.483   2.168   1.740
 1255TIP3    H1 3708   3.470   2.176   1.645
 1255TIP3    H2 3709   3.429   2.238   1.777
 1256TIP3   OH2 3710   3.299   0.893   5.960
 1256TIP3    H1 3711   3.302   0.804   5.924
 1256TIP3    H2 3712   3.383   0.903   6.005
 1257TIP3   OH2 3713   2.680   4.760   6.497
 1257TIP3    H1 3714   2.685   4.852   6.522
 1257TIP3    H2 3715   2.625   4.719   6.564
 1258TIP3   OH2 3716   6.554   5.348   0.403
 1258TIP3    H1 3717   6.624   5.300   0.359
 1258TIP3    H2 3718   6.475   5.297   0.384
 1259TIP3   OH2 3719   4.373   6.462   0.745
 1259TIP3    H1 3720   4.296   6.423   0.786
 1259TIP3    H2 3721   4.407   6.524   0.809
 1260TIP3   OH2 3722   2.312   6.553   3.261
 1260TIP3    H1 3723   2.288   6.553   3.353
 1260TIP3    H2 3724   2.399   6.512   3.259
 1261TIP3   OH2 3725   4.598   2.954   0.248
 1261TIP3    H1 3726   4.684   2.939   0.286
 1261TIP3    H2 3727   4.538   2.942   0.322
 1262TIP3   OH2 3728   6.747   0.229   2.667
 1262TIP3    H1 3729   6.657   0.261   2.659
 1262TIP3    H2 3730   6.741   0.156   2.729
 1263TIP3   OH2 3731   0.106   6.892   3.237
 1263TIP3    H1 3732   0.134   6.871   3.326
 1263TIP3    H2 3733   0.095   6.807   3.194
 1264TIP3   OH2 3734   2.851   5.905   2.242
 1264TIP3    H1 3735   2.811   5.916   2.328
 1264TIP3    H2 3736   2.788   5.942   2.180
 1265TIP3   OH2 3737   5.298   3.626   1.931
 1265TIP3    H1 3738   5.254   3.711   1.934
 1265TIP3    H2 3739   5.229   3.565   1.905
 1266TIP3   OH2 3740   7.992   1.529   0.360
 1266TIP3    H1 3741   8.042   1.598   0.404
 1266TIP3    H2 3742   7.910   1.573   0.334
 1267TIP3   OH2 3743   0.084   3.734   0.972
 1267TIP3    H1 3744   0.062   3.646   1.003
 1267TIP3    H2 3745   0.073   3.790   1.049
 1268TIP3   OH2 3746   6.414   4.127   1.751
 1268TIP3    H1 3747   6.322   4.106   1.738
 1268TIP3    H2 3748   6.417   4.176   1.832
 1269TIP3   OH2 3749   7.208   3.273   5.436
 1269TIP3    H1 3750   7.289   3.263   5.486
 1269TIP3    H2 3751   7.145   3.216   5.480
 1270TIP3   OH2 3752   0.558   3.560   5.535
 1270TIP3    H1 3753   0.503   3.609   5.595
 1270TIP3    H2 3754   0.585   3.483   5.586
 1271TIP3   OH2 3755   1.131   4.637   3.861
 1271TIP3    H1 3756   1.216   4.595   3.849
 1271TIP3    H2 3757   1.073   4.591   3.800
 1272TIP3   OH2 3758   5.612   0.795   1.129
 1272TIP3    H1 3759   5.521   0.805   1.100
 1272TIP3    H2 3760   5.618   0.851   1.206
 1273TIP3   OH2 3761   6.999   3.849   3.167
 1273TIP3    H1 3762   7.063   3.821   3.102
 1273TIP3    H2 3763   6.924   3.878   3.114
 1274TIP3   OH2 3764   6.655   1.095   4.486
 1274TIP3    H1 3765   6.606   1.176   4.470
 1274TIP3    H2 3766   6.700   1.110   4.568
 1275TIP3   OH2 3767   0.870   7.561   6.055
 1275TIP3    H1 3768   0.785   7.598   6.080
 1275TIP3    H2 3769   0.907   7.625   5.993
 1276TIP3   OH2 3770   2.096   0.943   2.192
 1276TIP3    H1 3771   2.085   0.855   2.155
 1276TIP3    H2 3772   2.096   1.001   2.116
 1277TIP3   OH2 3773   7.102   1.962   3.017
 1277TIP3    H1 3774   7.061   2.015   2.949
 1277TIP3    H2 3775   7.189   1.942   2.983
 1278TIP3   OH2 3776   8.280   2.722   4.935
 1278TIP3    H1 3777   8.250   2.685   4.852
 1278TIP3    H2 3778   8.277   2.816   4.922
 1279TIP3   OH2 3779   2.228   2.252   2.839
 1279TIP3    H1 3780   2.232   2.331   2.785
 1279TIP3    H2 3781   2.295   2.265   2.906
 1280TIP3   OH2 3782   6.348   6.396   0.669
 1280TIP3    H1 3783   6.329   6.469   0.727
 1280TIP3    H2 3784   6.406   6.432   0.603
 1281TIP3   OH2 3785   8.116   1.579   1.120
 1281TIP3    H1 3786   8.057   1.589   1.045
 1281TIP3    H2 3787   8.081   1.637   1.187
 1282TIP3   OH2 3788   4.253   0.630   5.856
 1282TIP3    H1 3789   4.345   0.652   5.837
 1282TIP3    H2 3790   4.256   0.582   5.938
 1283TIP3   OH2 3791   1.137   4.114   2.324
 1283TIP3    H1 3792   1.181   4.094   2.406
 1283TIP3    H2 3793   1.166   4.045   2.264
 1284TIP3   OH2 3794   4.290   2.304   2.036
 1284TIP3    H1 3795   4.275   2.306   1.941
 1284TIP3    H2 3796   4.382   2.330   2.046
 1285TIP3   OH2 3797   5.033   2.650   5.758
 1285TIP3    H1 3798   5.087   2.704   5.815
 1285TIP3    H2 3799   4.971   2.711   5.718
 1286TIP3   OH2 3800   3.722   4.402   6.607
 1286TIP3    H1 3801   3.751   4.316   6.639
 1286TIP3    H2 3802   3.799   4.438   6.563
 1287TIP3   OH2 3803   1.693   3.150   5.044
 1287TIP3    H1 3804   1.640   3.227   5.023
 1287TIP3    H2 3805   1.783   3.184   5.052
 1288TIP3   OH2 3806   2.761   5.847   1.071
 1288TIP3    H1 3807   2.731   5.788   1.002
 1288TIP3    H2 3808   2.682   5.870   1.119
 1289TIP3   OH2 3809   6.559   5.570   2.249
 1289TIP3    H1 3810   6.473   5.571   2.207
 1289TIP3    H2 3811   6.540   5.574   2.342
 1290TIP3   OH2 3812   3.546   7.265   3.339
 1290TIP3    H1 3813   3.565   7.282   3.431
 1290TIP3    H2 3814   3.542   7.169   3.333
 1291TIP3   OH2 3815   5.210   2.100   0.704
 1291TIP3    H1 3816   5.287   2.043   0.699
 1291TIP3    H2 3817   5.156   2.061   0.773
 1292TIP3   OH2 3818   8.205   4.440   6.099
 1292TIP3    H1 3819   8.223   4.389   6.178
 1292TIP3    H2 3820   8.289   4.446   6.054
 1293TIP3   OH2 3821   0.716   0.879   0.956
 1293TIP3    H1 3822   0.645   0.823   0.987
 1293TIP3    H2 3823   0.770   0.821   0.902
 1294TIP3   OH2 3824   6.097   1.887   3.924
 1294TIP3    H1 3825   6.186   1.876   3.956
 1294TIP3    H2 3826   6.107   1.917   3.834
 1295TIP3   OH2 3827   2.556   6.445   2.811
 1295TIP3    H1 3828   2.541   6.517   2.872
 1295TIP3    H2 3829   2.486   6.454   2.746
 1296TIP3   OH2 3830   5.210   0.338   2.074
 1296TIP3    H1 3831   5.193   0.359   1.982
 1296TIP3    H2 3832   5.185   0.417   2.122
 1297TIP3   OH2 3833   1.061   6.824   3.032
 1297TIP3    H1 3834   0.997   6.820   3.103
 1297TIP3    H2 3835   1.078   6.732   3.010
 1298TIP3   OH2 3836   4.234   5.212   3.425
 1298TIP3    H1 3837   4.305   5.165   3.382
 1298TIP3    H2 3838   4.155   5.177   3.384
 1299TIP3   OH2 3839   5.158   3.612   5.470
 1299TIP3    H1 3840   5.231   3.675   5.466
 1299TIP3    H2 3841   5.182   3.553   5.542
 1300TIP3   OH2 3842   6.104   6.061   2.229
 1300TIP3    H1 3843   6.156   6.003   2.174
 1300TIP3    H2 3844   6.013   6.035   2.211
 1301TIP3   OH2 3845   5.857   0.317   3.144
 1301TIP3    H1 3846   5.931   0.321   3.204
 1301TIP3    H2 3847   5.840   0.409   3.121
 1302TIP3   OH2 3848   2.435   5.353   5.772
 1302TIP3    H1 3849   2.445   5.274   5.826
 1302TIP3    H2 3850   2.366   5.403   5.817
 1303TIP3   OH2 3851   8.314   1.953   5.862
 1303TIP3    H1 3852   8.350   1.894   5.796
 1303TIP3    H2 3853   8.220   1.936   5.860
 1304TIP3   OH2 3854   4.858   2.758   5.596
 1304TIP3    H1 3855   4.791   2.692   5.615
 1304TIP3    H2 3856   4.808   2.838   5.577
 1305TIP3   OH2 3857   2.838   4.089   4.835
 1305TIP3    H1 3858   2.896   4.097   4.760
 1305TIP3    H2 3859   2.823   3.995   4.844
 1306TIP3   OH2 3860   1.143   7.153   3.173
 1306TIP3    H1 3861   1.134   7.105   3.255
 1306TIP3    H2 3862   1.145   7.245   3.199
 1307TIP3   OH2 3863   1.381   0.467   5.653
 1307TIP3    H1 3864   1.443   0.394   5.657
 1307TIP3    H2 3865   1.369   0.482   5.559
 1308TIP3   OH2 3866   4.574   7.715   4.364
 1308TIP3    H1 3867   4.537   7.643   4.415
 1308TIP3    H2 3868   4.608   7.776   4.429
 1309TIP3   OH2 3869   1.856   0.302   5.796
 1309TIP3    H1 3870   1.881   0.267   5.882
 1309TIP3    H2 3871   1.932   0.285   5.740
 1310TIP3   OH2 3872   5.927   0.961   5.978
 1310TIP3    H1 3873   5.969   1.029   6.031
 1310TIP3    H2 3874   5.972   0.965   5.893
 1311TIP3   OH2 3875   3.314   2.860   3.064
 1311TIP3    H1 3876   3.382   2.855   3.131
 1311TIP3    H2 3877   3.360   2.848   2.981
 1312TIP3   OH2 3878   1.715   0.451   0.429
 1312TIP3    H1 3879   1.622   0.466   0.444
 1312TIP3    H2 3880   1.718   0.390   0.355
 1313TIP3   OH2 3881   6.153   7.628   3.135
 1313TIP3    H1 3882   6.073   7.584   3.108
 1313TIP3    H2 3883   6.156   7.616   3.230
 1314TIP3   OH2 3884   5.900   2.963   4.650
 1314TIP3    H1 3885   5.831   3.026   4.671
 1314TIP3    H2 3886   5.976   3.016   4.627
 1315TIP3   OH2 3887   5.140   5.380   0.176
 1315TIP3    H1 3888   5.105   5.468   0.163
 1315TIP3    H2 3889   5.232   5.387   0.152
 1316TIP3   OH2 3890   6.269   4.516   4.162
 1316TIP3    H1 3891   6.291   4.594   4.212
 1316TIP3    H2 3892   6.352   4.489   4.122
 1317TIP3   OH2 3893   4.564   0.464   6.726
 1317TIP3    H1 3894   4.532   0.551   6.701
 1317TIP3    H2 3895   4.653   0.480   6.757
 1318TIP3   OH2 3896   7.115   4.608   3.972
 1318TIP3    H1 3897   7.151   4.520   3.966
 1318TIP3    H2 3898   7.086   4.616   4.064
 1319TIP3   OH2 3899   3.046   4.459   4.211
 1319TIP3    H1 3900   3.034   4.406   4.133
 1319TIP3    H2 3901   3.138   4.485   4.208
 1320TIP3   OH2 3902   0.266   0.339   4.981
 1320TIP3    H1 3903   0.301   0.402   4.918
 1320TIP3    H2 3904   0.307   0.362   5.064
 1321TIP3   OH2 3905   2.211   2.779   5.608
 1321TIP3    H1 3906   2.143   2.833   5.566
 1321TIP3    H2 3907   2.194   2.789   5.702
 1322TIP3   OH2 3908   6.078   0.666   6.656
 1322TIP3    H1 3909   6.077   0.752   6.612
 1322TIP3    H2 3910   5.999   0.622   6.624
 1323TIP3   OH2 3911   1.168   3.756   0.638
 1323TIP3    H1 3912   1.143   3.667   0.665
 1323TIP3    H2 3913   1.104   3.778   0.570
 1324TIP3   OH2 3914   3.006   2.995   2.563
 1324TIP3    H1 3915   2.994   3.089   2.567
 1324TIP3    H2 3916   3.062   2.975   2.638
 1325TIP3   OH2 3917   2.171   5.982   3.015
 1325TIP3    H1 3918   2.264   6.006   3.017
 1325TIP3    H2 3919   2.169   5.895   2.976
 1326TIP3   OH2 3920   0.806   0.235   2.409
 1326TIP3    H1 3921   0.843   0.195   2.488
 1326TIP3    H2 3922   0.882   0.270   2.362
 1327TIP3   OH2 3923   6.697   5.411   2.482
 1327TIP3    H1 3924   6.719   5.464   2.560
 1327TIP3    H2 3925   6.768   5.429   2.420
 1328TIP3   OH2 3926   0.485   6.067   5.885
 1328TIP3    H1 3927   0.483   6.132   5.955
 1328TIP3    H2 3928   0.395   6.063   5.853
 1329TIP3   OH2 3929   5.979   4.048   4.197
 1329TIP3    H1 3930   5.974   4.072   4.105
 1329TIP3    H2 3931   6.005   4.129   4.242
 1330TIP3   OH2 3932   5.148   3.437   1.552
 1330TIP3    H1 3933   5.068   3.390   1.530
 1330TIP3    H2 3934   5.190   3.454   1.467
 1331TIP3   OH2 3935   2.658   5.476   1.298
 1331TIP3    H1 3936   2.748   5.494   1.272
 1331TIP3    H2 3937   2.631   5.553   1.347
 1332TIP3   OH2 3938   5.741   0.118   5.979
 1332TIP3    H1 3939   5.798   0.194   5.990
 1332TIP3    H2 3940   5.752   0.093   5.888
 1333TIP3   OH2 3941   8.212   0.651   6.512
 1333TIP3    H1 3942   8.282   0.585   6.510
 1333TIP3    H2 3943   8.220   0.692   6.598
 1334TIP3   OH2 3944   3.844   7.337   4.076
 1334TIP3    H1 3945   3.797   7.315   4.156
 1334TIP3    H2 3946   3.920   7.387   4.106
 1335TIP3   OH2 3947   0.374   3.135   1.072
 1335TIP3    H1 3948   0.415   3.130   0.986
 1335TIP3    H2 3949   0.280   3.134   1.054
 1336TIP3   OH2 3950   5.264   2.960   3.465
 1336TIP3    H1 3951   5.272   3.053   3.488
 1336TIP3    H2 3952   5.249   2.916   3.549
 1337TIP3   OH2 3953   3.830   6.729   5.626
 1337TIP3    H1 3954   3.796   6.710   5.713
 1337TIP3    H2 3955   3.870   6.648   5.597
 1338TIP3   OH2 3956   0.571   0.715   3.647
 1338TIP3    H1 3957   0.653   0.706   3.696
 1338TIP3    H2 3958   0.556   0.810   3.642
 1339TIP3   OH2 3959   7.982   4.397   6.678
 1339TIP3    H1 3960   7.911   4.343   6.645
 1339TIP3    H2 3961   7.957   4.417   6.768
 1340TIP3   OH2 3962   2.392   3.679   1.355
 1340TIP3    H1 3963   2.356   3.684   1.444
 1340TIP3    H2 3964   2.344   3.745   1.306
 1341TIP3   OH2 3965   5.325   5.773   2.774
 1341TIP3    H1 3966   5.328   5.723   2.692
 1341TIP3    H2 3967   5.374   5.720   2.836
 1342TIP3   OH2 3968   4.484   4.935   3.791
 1342TIP3    H1 3969   4.456   4.955   3.880
 1342TIP3    H2 3970   4.536   4.855   3.800
 1343TIP3   OH2 3971   6.880   4.828   0.694
 1343TIP3    H1 3972   6.822   4.882   0.641
 1343TIP3    H2 3973   6.839   4.742   0.696
 1344TIP3   OH2 3974   2.929   7.696   3.080
 1344TIP3    H1 3975   2.883   7.649   3.010
 1344TIP3    H2 3976   2.973   7.769   3.036
 1345TIP3   OH2 3977   0.459   6.763   6.065
 1345TIP3    H1 3978   0.483   6.800   6.150
 1345TIP3    H2 3979   0.427   6.675   6.085
 1346TIP3   OH2 3980   7.295   0.888   5.853
 1346TIP3    H1 3981   7.244   0.854   5.926
 1346TIP3    H2 3982   7.300   0.815   5.792
 1347TIP3   OH2 3983   3.825   3.124   1.710
 1347TIP3    H1 3984   3.747   3.176   1.729
 1347TIP3    H2 3985   3.858   3.098   1.796
 1348TIP3   OH2 3986   5.858   0.137   4.705
 1348TIP3    H1 3987   5.767   0.152   4.730
 1348TIP3    H2 3988   5.852   0.090   4.622
 1349TIP3   OH2 3989   6.335   0.880   1.026
 1349TIP3    H1 3990   6.385   0.919   0.954
 1349TIP3    H2 3991   6.255   0.848   0.984
 1350TIP3   OH2 3992   4.697   3.604   4.035
 1350TIP3    H1 3993   4.733   3.541   4.097
 1350TIP3    H2 3994   4.608   3.620   4.066
 1351TIP3   OH2 3995   1.750   5.106   3.813
 1351TIP3    H1 3996   1.671   5.109   3.760
 1351TIP3    H2 3997   1.719   5.094   3.903
 1352TIP3   OH2 3998   1.578   7.593   2.456
 1352TIP3    H1 3999   1.630   7.532   2.404
 1352TIP3    H2 4000   1.629   7.674   2.457
 1353TIP3   OH2 4001   1.442   2.195   4.647
 1353TIP3    H1 4002   1.500   2.173   4.719
 1353TIP3    H2 4003   1.500   2.225   4.577
 1354TIP3   OH2 4004   1.188   2.191   2.612
 1354TIP3    H1 4005   1.094   2.211   2.611
 1354TIP3    H2 4006   1.200   2.140   2.692
 1355TIP3   OH2 4007   6.470   7.412   0.732
 1355TIP3    H1 4008   6.489   7.495   0.690
 1355TIP3    H2 4009   6.375   7.412   0.744
 1356TIP3   OH2 4010   7.160   3.052   0.290
 1356TIP3    H1 4011   7.239   3.009   0.257
 1356TIP3    H2 4012   7.119   2.988   0.348
 1357TIP3   OH2 4013   2.962   7.019   1.132
 1357TIP3    H1 4014   2.983   7.112   1.146
 1357TIP3    H2 4015   2.868   7.019   1.116
 1358TIP3   OH2 4016   4.694   4.778   6.421
 1358TIP3    H1 4017   4.747   4.844   6.466
 1358TIP3    H2 4018   4.705   4.698   6.472
 1359TIP3   OH2 4019   3.537   0.592   3.351
 1359TIP3    H1 4020   3.584   0.653   3.293
 1359TIP3    H2 4021   3.458   0.570   3.302
 1360TIP3   OH2 4022   3.481   6.850   6.634
 1360TIP3    H1 4023   3.576   6.850   6.623
 1360TIP3    H2 4024   3.452   6.934   6.599
 1361TIP3   OH2 4025   2.600   6.953   0.902
 1361TIP3    H1 4026   2.630   6.958   0.992
 1361TIP3    H2 4027   2.660   7.010   0.853
 1362TIP3   OH2 4028   3.067   3.437   2.889
 1362TIP3    H1 4029   3.035   3.497   2.821
 1362TIP3    H2 4030   3.068   3.490   2.969
 1363TIP3   OH2 4031   0.901   2.070   6.507
 1363TIP3    H1 4032   0.830   2.069   6.443
 1363TIP3    H2 4033   0.904   2.161   6.538
 1364TIP3   OH2 4034   7.173   6.458   4.588
 1364TIP3    H1 4035   7.204   6.531   4.642
 1364TIP3    H2 4036   7.077   6.464   4.592
 1365TIP3   OH2 4037   7.890   3.184   3.334
 1365TIP3    H1 4038   7.859   3.124   3.266
 1365TIP3    H2 4039   7.870   3.271   3.300
 1366TIP3   OH2 4040   0.358   0.413   5.251
 1366TIP3    H1 4041   0.271   0.420   5.290
 1366TIP3    H2 4042   0.410   0.367   5.317
 1367TIP3   OH2 4043   6.266   7.676   2.571
 1367TIP3    H1 4044   6.300   7.587   2.558
 1367TIP3    H2 4045   6.225   7.698   2.488
 1368TIP3   OH2 4046   1.204   3.296   1.175
 1368TIP3    H1 4047   1.213   3.389   1.195
 1368TIP3    H2 4048   1.221   3.252   1.258
 1369TIP3   OH2 4049   7.081   3.646   5.508
 1369TIP3    H1 4050   7.026   3.702   5.453
 1369TIP3    H2 4051   7.157   3.626   5.453
 1370TIP3   OH2 4052   2.665   3.001   3.692
 1370TIP3    H1 4053   2.707   3.053   3.760
 1370TIP3    H2 4054   2.584   2.969   3.732
 1371TIP3   OH2 4055   3.632   4.244   0.700
 1371TIP3    H1 4056   3.540   4.271   0.703
 1371TIP3    H2 4057   3.643   4.190   0.778
 1372TIP3   OH2 4058   2.228   1.732   0.925
 1372TIP3    H1 4059   2.240   1.685   0.843
 1372TIP3    H2 4060   2.180   1.671   0.981
 1373TIP3   OH2 4061   8.071   2.591   5.468
 1373TIP3    H1 4062   8.123   2.652   5.521
 1373TIP3    H2 4063   8.049   2.520   5.528
 1374TIP3   OH2 4064   3.233   4.159   6.540
 1374TIP3    H1 4065   3.268   4.070   6.535
 1374TIP3    H2 4066   3.288   4.204   6.602
 1375TIP3   OH2 4067   1.927   3.285   1.145
 1375TIP3    H1 4068   1.880   3.204   1.120
 1375TIP3    H2 4069   1.873   3.324   1.213
 1376TIP3   OH2 4070   4.145   0.592   0.487
 1376TIP3    H1 4071   4.119   0.559   0.401
 1376TIP3    H2 4072   4.166   0.514   0.538
 1377TIP3   OH2 4073   5.601   3.303   6.157
 1377TIP3    H1 4074   5.655   3.275   6.230
 1377TIP3    H2 4075   5.648   3.274   6.079
 1378TIP3   OH2 4076   6.625   1.173   3.532
 1378TIP3    H1 4077   6.583   1.198   3.615
 1378TIP3    H2 4078   6.636   1.256   3.485
 1379TIP3   OH2 4079   8.078   0.541   0.239
 1379TIP3    H1 4080   8.109   0.555   0.329
 1379TIP3    H2 4081   8.061   0.629   0.206
 1380TIP3   OH2 4082   5.830   5.459   1.529
 1380TIP3    H1 4083   5.874   5.376   1.547
 1380TIP3    H2 4084   5.900   5.525   1.536
 1381TIP3   OH2 4085   0.385   1.789   4.283
 1381TIP3    H1 4086   0.435   1.724   4.234
 1381TIP3    H2 4087   0.410   1.873   4.244
 1382TIP3   OH2 4088   3.208   4.846   0.275
 1382TIP3    H1 4089   3.114   4.850   0.294
 1382TIP3    H2 4090   3.241   4.932   0.303
 1383TIP3   OH2 4091   2.827   4.260   6.021
 1383TIP3    H1 4092   2.762   4.327   5.998
 1383TIP3    H2 4093   2.777   4.179   6.027
 1384TIP3   OH2 4094   5.370   0.308   3.365
 1384TIP3    H1 4095   5.297   0.287   3.308
 1384TIP3    H2 4096   5.338   0.288   3.453
 1385TIP3   OH2 4097   4.016   3.087   6.663
 1385TIP3    H1 4098   3.998   3.076   6.570
 1385TIP3    H2 4099   3.956   3.156   6.691
 1386TIP3   OH2 4100   2.875   7.123   2.598
 1386TIP3    H1 4101   2.808   7.142   2.533
 1386TIP3    H2 4102   2.935   7.197   2.594
 1387TIP3   OH2 4103   1.148   2.135   1.045
 1387TIP3    H1 4104   1.212   2.142   0.974
 1387TIP3    H2 4105   1.122   2.225   1.063
 1388TIP3   OH2 4106   1.197   2.389   2.219
 1388TIP3    H1 4107   1.277   2.418   2.262
 1388TIP3    H2 4108   1.193   2.295   2.238
 1389TIP3   OH2 4109   4.328   7.214   4.081
 1389TIP3    H1 4110   4.296   7.206   3.991
 1389TIP3    H2 4111   4.402   7.153   4.085
 1390TIP3   OH2 4112   0.260   5.424   0.710
 1390TIP3    H1 4113   0.297   5.493   0.655
 1390TIP3    H2 4114   0.333   5.364   0.724
 1391TIP3   OH2 4115   3.341   7.615   0.770
 1391TIP3    H1 4116   3.363   7.590   0.859
 1391TIP3    H2 4117   3.325   7.710   0.775
 1392TIP3   OH2 4118   7.341   6.527   3.800
 1392TIP3    H1 4119   7.320   6.620   3.809
 1392TIP3    H2 4120   7.325   6.491   3.888
 1393TIP3   OH2 4121   6.485   2.861   3.588
 1393TIP3    H1 4122   6.502   2.799   3.659
 1393TIP3    H2 4123   6.493   2.947   3.628
 1394TIP3   OH2 4124   4.432   0.783   0.424
 1394TIP3    H1 4125   4.370   0.794   0.352
 1394TIP3    H2 4126   4.381   0.798   0.503
 1395TIP3   OH2 4127   5.165   0.318   5.612
 1395TIP3    H1 4128   5.175   0.404   5.570
 1395TIP3    H2 4129   5.114   0.266   5.549
 1396TIP3   OH2 4130   3.848   5.096   5.391
 1396TIP3    H1 4131   3.876   5.005   5.392
 1396TIP3    H2 4132   3.919   5.142   5.347
 1397TIP3   OH2 4133   5.408   3.588   5.931
 1397TIP3    H1 4134   5.461   3.616   6.006
 1397TIP3    H2 4135   5.452   3.627   5.855
 1398TIP3   OH2 4136   0.211   2.033   0.374
 1398TIP3    H1 4137   0.232   2.108   0.319
 1398TIP3    H2 4138   0.215   1.958   0.315
 1399TIP3   OH2 4139   1.796   3.104   3.023
 1399TIP3    H1 4140   1.776   3.134   3.111
 1399TIP3    H2 4141   1.726   3.042   3.002
 1400TIP3   OH2 4142   8.168   2.397   3.866
 1400TIP3    H1 4143   8.144   2.337   3.936
 1400TIP3    H2 4144   8.205   2.473   3.912
 1401TIP3   OH2 4145   3.301   5.251   1.007
 1401TIP3    H1 4146   3.268   5.329   0.962
 1401TIP3    H2 4147   3.230   5.187   0.998
 1402TIP3   OH2 4148   2.625   2.537   0.141
 1402TIP3    H1 4149   2.582   2.598   0.201
 1402TIP3    H2 4150   2.556   2.510   0.081
 1403TIP3   OH2 4151   0.086   5.136   4.378
 1403TIP3    H1 4152   0.048   5.132   4.290
 1403TIP3    H2 4153   0.125   5.050   4.390
 1404TIP3   OH2 4154   4.881   2.193   0.051
 1404TIP3    H1 4155   4.815   2.160  -0.010
 1404TIP3    H2 4156   4.841   2.271   0.089
 1405TIP3   OH2 4157   1.106   4.293   3.484
 1405TIP3    H1 4158   1.024   4.252   3.509
 1405TIP3    H2 4159   1.090   4.328   3.396
 1406TIP3   OH2 4160   7.630   6.134   3.797
 1406TIP3    H1 4161   7.595   6.220   3.777
 1406TIP3    H2 4162   7.691   6.149   3.869
 1407TIP3   OH2 4163   0.533   3.826   5.942
 1407TIP3    H1 4164   0.460   3.869   5.986
 1407TIP3    H2 4165   0.563   3.759   6.004
 1408TIP3   OH2 4166   1.583   7.615   0.698
 1408TIP3    H1 4167   1.616   7.563   0.771
 1408TIP3    H2 4168   1.545   7.550   0.638
 1409TIP3   OH2 4169   4.852   5.224   4.990
 1409TIP3    H1 4170   4.837   5.181   5.074
 1409TIP3    H2 4171   4.912   5.297   5.011
 1410TIP3   OH2 4172   0.408   3.693   5.722
 1410TIP3    H1 4173   0.453   3.735   5.795
 1410TIP3    H2 4174   0.316   3.720   5.731
 1411TIP3   OH2 4175   4.663   3.082   1.253
 1411TIP3    H1 4176   4.684   2.988   1.255
 1411TIP3    H2 4177   4.743   3.123   1.219
 1412TIP3   OH2 4178   2.753   6.990   6.148
 1412TIP3    H1 4179   2.744   6.905   6.106
 1412TIP3    H2 4180   2.703   7.050   6.092
 1413TIP3   OH2 4181   6.908   6.701   6.587
 1413TIP3    H1 4182   6.976   6.734   6.528
 1413TIP3    H2 4183   6.933   6.732   6.673
 1414TIP3   OH2 4184   2.820   2.217   5.400
 1414TIP3    H1 4185   2.909   2.223   5.366
 1414TIP3    H2 4186   2.764   2.232   5.324
 1415TIP3   OH2 4187   7.157   1.031   0.909
 1415TIP3    H1 4188   7.252   1.039   0.918
 1415TIP3    H2 4189   7.122   1.079   0.984
 1416TIP3   OH2 4190   2.822   4.402   2.278
 1416TIP3    H1 4191   2.790   4.488   2.251
 1416TIP3    H2 4192   2.871   4.419   2.359
 1417TIP3   OH2 4193   2.837   6.161   2.117
 1417TIP3    H1 4194   2.896   6.220   2.071
 1417TIP3    H2 4195   2.756   6.163   2.066
 1418TIP3   OH2 4196   7.686   7.498   4.172
 1418TIP3    H1 4197   7.753   7.445   4.215
 1418TIP3    H2 4198   7.722   7.587   4.171
 1419TIP3   OH2 4199   3.463   6.038   0.765
 1419TIP3    H1 4200   3.430   5.964   0.714
 1419TIP3    H2 4201   3.417   6.114   0.730
 1420TIP3   OH2 4202   3.099   4.507   0.978
 1420TIP3    H1 4203   3.157   4.521   0.903
 1420TIP3    H2 4204   3.132   4.428   1.020
 1421TIP3   OH2 4205   7.469   6.562   1.200
 1421TIP3    H1 4206   7.377   6.588   1.196
 1421TIP3    H2 4207   7.517   6.637   1.167
 1422TIP3   OH2 4208   7.971   2.390   2.034
 1422TIP3    H1 4209   7.947   2.349   2.117
 1422TIP3    H2 4210   7.983   2.483   2.055
 1423TIP3   OH2 4211   7.359   1.930   4.911
 1423TIP3    H1 4212   7.355   1.940   4.816
 1423TIP3    H2 4213   7.447   1.898   4.929
 1424TIP3   OH2 4214   6.690   6.549   5.907
 1424TIP3    H1 4215   6.657   6.478   5.853
 1424TIP3    H2 4216   6.785   6.548   5.892
 1425TIP3   OH2 4217   5.637   7.729   1.038
 1425TIP3    H1 4218   5.563   7.789   1.035
 1425TIP3    H2 4219   5.714   7.786   1.032
 1426TIP3   OH2 4220   2.782   5.627   0.887
 1426TIP3    H1 4221   2.734   5.561   0.936
 1426TIP3    H2 4222   2.858   5.580   0.851
 1427TIP3   OH2 4223   6.097   2.335   2.579
 1427TIP3    H1 4224   6.146   2.268   2.626
 1427TIP3    H2 4225   6.020   2.289   2.546
 1428TIP3   OH2 4226   2.171   0.601   3.679
 1428TIP3    H1 4227   2.189   0.507   3.676
 1428TIP3    H2 4228   2.094   0.608   3.734
 1429TIP3   OH2 4229   4.441   6.544   5.991
 1429TIP3    H1 4230   4.379   6.471   5.989
 1429TIP3    H2 4231   4.388   6.621   6.011
 1430TIP3   OH2 4232   3.341   4.292   0.803
 1430TIP3    H1 4233   3.320   4.300   0.896
 1430TIP3    H2 4234   3.300   4.367   0.762
 1431TIP3   OH2 4235   2.869   0.814   2.927
 1431TIP3    H1 4236   2.804   0.875   2.962
 1431TIP3    H2 4237   2.906   0.858   2.850
 1432TIP3   OH2 4238   7.801   4.401   2.122
 1432TIP3    H1 4239   7.867   4.335   2.142
 1432TIP3    H2 4240   7.777   4.384   2.031
 1433TIP3   OH2 4241   2.331   6.810   4.583
 1433TIP3    H1 4242   2.302   6.901   4.576
 1433TIP3    H2 4243   2.255   6.762   4.614
 1434TIP3   OH2 4244   3.627   5.682   3.864
 1434TIP3    H1 4245   3.651   5.670   3.956
 1434TIP3    H2 4246   3.532   5.691   3.865
 1435TIP3   OH2 4247   8.091   5.783   2.250
 1435TIP3    H1 4248   8.163   5.770   2.311
 1435TIP3    H2 4249   8.025   5.830   2.301
 1436TIP3   OH2 4250   7.871   2.668   4.304
 1436TIP3    H1 4251   7.906   2.675   4.393
 1436TIP3    H2 4252   7.944   2.692   4.247
 1437TIP3   OH2 4253   5.888   0.096   1.759
 1437TIP3    H1 4254   5.902   0.012   1.803
 1437TIP3    H2 4255   5.899   0.162   1.827
 1438TIP3   OH2 4256   3.213   2.453   2.351
 1438TIP3    H1 4257   3.303   2.481   2.363
 1438TIP3    H2 4258   3.206   2.433   2.257
 1439TIP3   OH2 4259   5.260   5.038   5.976
 1439TIP3    H1 4260   5.348   5.001   5.972
 1439TIP3    H2 4261   5.232   5.026   6.066
 1440TIP3   OH2 4262   8.296   6.608   3.341
 1440TIP3    H1 4263   8.210   6.631   3.377
 1440TIP3    H2 4264   8.277   6.573   3.254
 1441TIP3   OH2 4265   6.419   1.861   1.193
 1441TIP3    H1 4266   6.352   1.849   1.260
 1441TIP3    H2 4267   6.370   1.891   1.116
 1442TIP3   OH2 4268   5.285   3.624   2.881
 1442TIP3    H1 4269   5.339   3.653   2.808
 1442TIP3    H2 4270   5.329   3.659   2.959
 1443TIP3   OH2 4271   1.197   6.871   5.961
 1443TIP3    H1 4272   1.257   6.798   5.943
 1443TIP3    H2 4273   1.126   6.859   5.897
 1444TIP3   OH2 4274   2.953   3.931   4.249
 1444TIP3    H1 4275   2.882   3.869   4.268
 1444TIP3    H2 4276   3.031   3.891   4.286
 1445TIP3   OH2 4277   0.952   1.333   1.850
 1445TIP3    H1 4278   0.993   1.325   1.764
 1445TIP3    H2 4279   1.009   1.394   1.898
 1446TIP3   OH2 4280   3.240   6.630   2.121
 1446TIP3    H1 4281   3.264   6.675   2.203
 1446TIP3    H2 4282   3.190   6.553   2.150
 1447TIP3   OH2 4283   7.537   6.900   1.534
 1447TIP3    H1 4284   7.598   6.828   1.549
 1447TIP3    H2 4285   7.457   6.873   1.579
 1448TIP3   OH2 4286   3.546   0.962   3.432
 1448TIP3    H1 4287   3.561   0.911   3.511
 1448TIP3    H2 4288   3.609   0.926   3.368
 1449TIP3   OH2 4289   1.614   0.425   3.623
 1449TIP3    H1 4290   1.569   0.386   3.698
 1449TIP3    H2 4291   1.544   0.456   3.566
 1450TIP3   OH2 4292   7.198   5.190   1.450
 1450TIP3    H1 4293   7.265   5.237   1.500
 1450TIP3    H2 4294   7.118   5.241   1.463
 1451TIP3   OH2 4295   3.651   7.102   3.797
 1451TIP3    H1 4296   3.571   7.057   3.821
 1451TIP3    H2 4297   3.714   7.077   3.865
 1452TIP3   OH2 4298   1.787   4.214   6.687
 1452TIP3    H1 4299   1.831   4.298   6.703
 1452TIP3    H2 4300   1.839   4.172   6.619
 1453TIP3   OH2 4301   7.273   4.810   4.986
 1453TIP3    H1 4302   7.338   4.802   5.055
 1453TIP3    H2 4303   7.244   4.720   4.971
 1454TIP3   OH2 4304   6.318   2.620   6.191
 1454TIP3    H1 4305   6.382   2.553   6.214
 1454TIP3    H2 4306   6.264   2.629   6.270
 1455TIP3   OH2 4307   7.166   0.854   4.175
 1455TIP3    H1 4308   7.201   0.811   4.253
 1455TIP3    H2 4309   7.088   0.804   4.153
 1456TIP3   OH2 4310   8.072   0.269   3.417
 1456TIP3    H1 4311   7.978   0.250   3.425
 1456TIP3    H2 4312   8.078   0.339   3.352
 1457TIP3   OH2 4313   7.176   4.701   1.819
 1457TIP3    H1 4314   7.192   4.788   1.855
 1457TIP3    H2 4315   7.194   4.710   1.725
 1458TIP3   OH2 4316   3.207   2.039   6.158
 1458TIP3    H1 4317   3.155   2.108   6.200
 1458TIP3    H2 4318   3.188   1.960   6.209
 1459TIP3   OH2 4319   0.621   0.425   2.494
 1459TIP3    H1 4320   0.607   0.363   2.566
 1459TIP3    H2 4321   0.657   0.372   2.423
 1460TIP3   OH2 4322   0.570   4.611   2.851
 1460TIP3    H1 4323   0.564   4.658   2.768
 1460TIP3    H2 4324   0.592   4.521   2.825
 1461TIP3   OH2 4325   7.796   0.218   3.411
 1461TIP3    H1 4326   7.768   0.152   3.348
 1461TIP3    H2 4327   7.721   0.278   3.417
 1462TIP3   OH2 4328   1.070   1.658   0.433
 1462TIP3    H1 4329   1.082   1.725   0.365
 1462TIP3    H2 4330   1.084   1.575   0.387
 1463TIP3   OH2 4331   4.665   5.699   5.759
 1463TIP3    H1 4332   4.659   5.745   5.843
 1463TIP3    H2 4333   4.662   5.606   5.782
 1464TIP3   OH2 4334   0.978   0.500   0.967
 1464TIP3    H1 4335   0.933   0.469   1.046
 1464TIP3    H2 4336   1.011   0.586   0.992
 1465TIP3   OH2 4337   0.901   5.296   4.815
 1465TIP3    H1 4338   0.979   5.253   4.850
 1465TIP3    H2 4339   0.838   5.225   4.803
 1466TIP3   OH2 4340   2.990   5.286   2.297
 1466TIP3    H1 4341   2.948   5.342   2.363
 1466TIP3    H2 4342   3.079   5.321   2.290
 1467TIP3   OH2 4343   0.773   7.250   4.113
 1467TIP3    H1 4344   0.735   7.290   4.035
 1467TIP3    H2 4345   0.702   7.199   4.151
 1468TIP3   OH2 4346   0.752   2.198   0.644
 1468TIP3    H1 4347   0.704   2.173   0.564
 1468TIP3    H2 4348   0.816   2.128   0.656
 1469TIP3   OH2 4349   7.124   1.798   4.641
 1469TIP3    H1 4350   7.119   1.798   4.546
 1469TIP3    H2 4351   7.053   1.740   4.669
 1470TIP3   OH2 4352   6.039   7.052   3.139
 1470TIP3    H1 4353   5.998   6.984   3.193
 1470TIP3    H2 4354   5.976   7.069   3.069
 1471TIP3   OH2 4355   4.871   1.281   4.662
 1471TIP3    H1 4356   4.794   1.338   4.663
 1471TIP3    H2 4357   4.864   1.232   4.580
 1472TIP3   OH2 4358   3.550   2.018   0.504
 1472TIP3    H1 4359   3.596   2.048   0.582
 1472TIP3    H2 4360   3.618   1.987   0.445
 1473TIP3   OH2 4361   7.393   3.492   1.399
 1473TIP3    H1 4362   7.344   3.547   1.337
 1473TIP3    H2 4363   7.381   3.403   1.366
 1474TIP3   OH2 4364   7.278   5.733   0.260
 1474TIP3    H1 4365   7.211   5.666   0.268
 1474TIP3    H2 4366   7.349   5.690   0.211
 1475TIP3   OH2 4367   7.246   7.144   1.638
 1475TIP3    H1 4368   7.309   7.196   1.589
 1475TIP3    H2 4369   7.250   7.178   1.727
 1476TIP3   OH2 4370   1.512   3.365   3.499
 1476TIP3    H1 4371   1.529   3.271   3.501
 1476TIP3    H2 4372   1.472   3.384   3.583
 1477TIP3   OH2 4373   7.670   2.653   5.387
 1477TIP3    H1 4374   7.701   2.566   5.413
 1477TIP3    H2 4375   7.712   2.713   5.449
 1478TIP3   OH2 4376   8.227   0.909   2.757
 1478TIP3    H1 4377   8.132   0.912   2.759
 1478TIP3    H2 4378   8.251   0.962   2.681
 1479TIP3   OH2 4379   0.209   3.367   0.271
 1479TIP3    H1 4380   0.141   3.430   0.297
 1479TIP3    H2 4381   0.250   3.342   0.354
 1480TIP3   OH2 4382   3.055   5.847   6.454
 1480TIP3    H1 4383   3.010   5.763   6.464
 1480TIP3    H2 4384   3.119   5.848   6.525
 1481TIP3   OH2 4385   7.183   6.746   2.464
 1481TIP3    H1 4386   7.150   6.832   2.438
 1481TIP3    H2 4387   7.113   6.685   2.442
 1482TIP3   OH2 4388   4.282   3.208   1.729
 1482TIP3    H1 4389   4.199   3.200   1.681
 1482TIP3    H2 4390   4.267   3.278   1.792
 1483TIP3   OH2 4391   2.440   2.417   2.994
 1483TIP3    H1 4392   2.476   2.374   3.072
 1483TIP3    H2 4393   2.480   2.504   2.994
 1484TIP3   OH2 4394   1.652   3.295   0.955
 1484TIP3    H1 4395   1.592   3.275   0.883
 1484TIP3    H2 4396   1.605   3.360   1.008
 1485TIP3   OH2 4397   3.104   0.708   4.481
 1485TIP3    H1 4398   3.197   0.684   4.480
 1485TIP3    H2 4399   3.073   0.687   4.393
 1486TIP3   OH2 4400   1.281   4.714   0.899
 1486TIP3    H1 4401   1.254   4.631   0.861
 1486TIP3    H2 4402   1.239   4.781   0.845
 1487TIP3   OH2 4403   1.923   0.829   2.612
 1487TIP3    H1 4404   1.960   0.885   2.545
 1487TIP3    H2 4405   1.909   0.745   2.568
 1488TIP3   OH2 4406  -0.021   4.193   0.400
 1488TIP3    H1 4407   0.057   4.213   0.348
 1488TIP3    H2 4408   0.010   4.192   0.490
 1489TIP3   OH2 4409   5.677   4.886   4.202
 1489TIP3    H1 4410   5.644   4.840   4.125
 1489TIP3    H2 4411   5.620   4.963   4.210
 1490TIP3   OH2 4412   0.866   3.542   5.170
 1490TIP3    H1 4413   0.780   3.509   5.147
 1490TIP3    H2 4414   0.927   3.479   5.131
 1491TIP3   OH2 4415   7.797   5.409   5.642
 1491TIP3    H1 4416   7.855   5.369   5.578
 1491TIP3    H2 4417   7.778   5.340   5.705
 1492TIP3   OH2 4418   2.742   7.747   3.301
 1492TIP3    H1 4419   2.723   7.654   3.297
 1492TIP3    H2 4420   2.818   7.759   3.244
 1493TIP3   OH2 4421   2.121   0.606   4.808
 1493TIP3    H1 4422   2.073   0.523   4.820
 1493TIP3    H2 4423   2.191   0.584   4.746
 1494TIP3   OH2 4424  -0.017   0.282   5.228
 1494TIP3    H1 4425   0.046   0.354   5.232
 1494TIP3    H2 4426   0.036   0.203   5.238
 1495TIP3   OH2 4427   3.168   1.115   4.014
 1495TIP3    H1 4428   3.210   1.048   4.067
 1495TIP3    H2 4429   3.192   1.198   4.056
 1496TIP3   OH2 4430   3.470   2.188   4.074
 1496TIP3    H1 4431   3.544   2.236   4.111
 1496TIP3    H2 4432   3.480   2.196   3.980
 1497TIP3   OH2 4433   3.975   6.095   5.744
 1497TIP3    H1 4434   3.909   6.077   5.812
 1497TIP3    H2 4435   4.049   6.038   5.768
 1498TIP3   OH2 4436   6.714   2.498   2.475
 1498TIP3    H1 4437   6.700   2.582   2.519
 1498TIP3    H2 4438   6.768   2.448   2.537
 1499TIP3   OH2 4439   3.337   2.453   5.571
 1499TIP3    H1 4440   3.388   2.387   5.524
 1499TIP3    H2 4441   3.308   2.409   5.651
 1500TIP3   OH2 4442   4.552   0.122   5.879
 1500TIP3    H1 4443   4.641   0.092   5.862
 1500TIP3    H2 4444   4.543   0.117   5.974
 1501TIP3   OH2 4445   4.310   1.292   0.361
 1501TIP3    H1 4446   4.323   1.268   0.452
 1501TIP3    H2 4447   4.320   1.210   0.312
 1502TIP3   OH2 4448   7.461   0.104   0.501
 1502TIP3    H1 4449   7.459   0.165   0.427
 1502TIP3    H2 4450   7.545   0.061   0.493
 1503TIP3   OH2 4451   2.124   5.968   1.810
 1503TIP3    H1 4452   2.094   5.877   1.805
 1503TIP3    H2 4453   2.219   5.963   1.807
 1504TIP3   OH2 4454   2.522   7.762   0.253
 1504TIP3    H1 4455   2.603   7.720   0.224
 1504TIP3    H2 4456   2.493   7.815   0.178
 1505TIP3   OH2 4457   3.050   5.422   2.012
 1505TIP3    H1 4458   2.962   5.402   2.046
 1505TIP3    H2 4459   3.053   5.378   1.927
 1506TIP3   OH2 4460   1.222   3.156   5.610
 1506TIP3    H1 4461   1.210   3.246   5.640
 1506TIP3    H2 4462   1.213   3.161   5.515
 1507TIP3   OH2 4463   5.176   2.821   6.623
 1507TIP3    H1 4464   5.270   2.811   6.639
 1507TIP3    H2 4465   5.170   2.893   6.560
 1508TIP3   OH2 4466   3.512   5.081   0.924
 1508TIP3    H1 4467   3.534   5.122   0.840
 1508TIP3    H2 4468   3.449   5.140   0.964
 1509TIP3   OH2 4469   3.579   1.180   4.140
 1509TIP3    H1 4470   3.560   1.242   4.211
 1509TIP3    H2 4471   3.542   1.097   4.171
 1510TIP3   OH2 4472   2.544   4.497   2.053
 1510TIP3    H1 4473   2.523   4.555   2.125
 1510TIP3    H2 4474   2.493   4.418   2.070
 1511TIP3   OH2 4475   4.664   6.389   5.970
 1511TIP3    H1 4476   4.602   6.459   5.990
 1511TIP3    H2 4477   4.658   6.378   5.875
 1512TIP3   OH2 4478   8.123   3.379   1.075
 1512TIP3    H1 4479   8.077   3.462   1.082
 1512TIP3    H2 4480   8.075   3.329   1.009
 1513TIP3   OH2 4481   6.997   0.674   1.267
 1513TIP3    H1 4482   7.014   0.593   1.219
 1513TIP3    H2 4483   7.038   0.660   1.352
 1514TIP3   OH2 4484   4.033   5.859   2.158
 1514TIP3    H1 4485   4.013   5.952   2.147
 1514TIP3    H2 4486   3.952   5.814   2.134
 1515TIP3   OH2 4487   4.766   2.411   5.398
 1515TIP3    H1 4488   4.685   2.366   5.373
 1515TIP3    H2 4489   4.743   2.464   5.474
 1516TIP3   OH2 4490   1.430   5.107   2.482
 1516TIP3    H1 4491   1.449   5.024   2.525
 1516TIP3    H2 4492   1.449   5.091   2.390
 1517TIP3   OH2 4493   4.246   6.122   5.122
 1517TIP3    H1 4494   4.289   6.207   5.120
 1517TIP3    H2 4495   4.219   6.110   5.213
 1518TIP3   OH2 4496   3.125   6.847   0.999
 1518TIP3    H1 4497   3.081   6.918   1.046
 1518TIP3    H2 4498   3.093   6.854   0.909
 1519TIP3   OH2 4499   3.707   6.544   1.145
 1519TIP3    H1 4500   3.685   6.454   1.119
 1519TIP3    H2 4501   3.624   6.583   1.170
 1520TIP3   OH2 4502   3.349   4.098   2.958
 1520TIP3    H1 4503   3.403   4.149   2.898
 1520TIP3    H2 4504   3.266   4.146   2.963
 1521TIP3   OH2 4505   6.356   4.982   6.445
 1521TIP3    H1 4506   6.289   4.965   6.510
 1521TIP3    H2 4507   6.420   4.912   6.456
 1522TIP3   OH2 4508   3.095   3.459   1.978
 1522TIP3    H1 4509   3.104   3.555   1.976
 1522TIP3    H2 4510   3.057   3.441   2.064
 1523TIP3   OH2 4511   7.322   7.164   4.961
 1523TIP3    H1 4512   7.250   7.101   4.969
 1523TIP3    H2 4513   7.374   7.131   4.887
 1524TIP3   OH2 4514   7.155   4.851   1.444
 1524TIP3    H1 4515   7.120   4.918   1.386
 1524TIP3    H2 4516   7.129   4.880   1.532
 1525TIP3   OH2 4517   7.668   3.435   4.828
 1525TIP3    H1 4518   7.657   3.387   4.746
 1525TIP3    H2 4519   7.608   3.392   4.889
 1526TIP3   OH2 4520   6.478   0.538   0.997
 1526TIP3    H1 4521   6.565   0.498   1.003
 1526TIP3    H2 4522   6.437   0.495   0.922
 1527TIP3   OH2 4523   3.454   2.892   5.235
 1527TIP3    H1 4524   3.396   2.881   5.159
 1527TIP3    H2 4525   3.461   2.805   5.273
 1528TIP3   OH2 4526  -0.010   7.086   1.893
 1528TIP3    H1 4527  -0.032   7.003   1.937
 1528TIP3    H2 4528   0.060   7.123   1.946
 1529TIP3   OH2 4529   8.160   3.096   1.127
 1529TIP3    H1 4530   8.130   3.186   1.119
 1529TIP3    H2 4531   8.237   3.091   1.070
 1530TIP3   OH2 4532   0.636   2.906   1.645
 1530TIP3    H1 4533   0.630   2.849   1.569
 1530TIP3    H2 4534   0.730   2.924   1.655
 1531TIP3   OH2 4535   4.716   1.622   0.249
 1531TIP3    H1 4536   4.650   1.560   0.219
 1531TIP3    H2 4537   4.765   1.646   0.171
 1532TIP3   OH2 4538   3.216   2.047   5.347
 1532TIP3    H1 4539   3.192   2.002   5.427
 1532TIP3    H2 4540   3.301   2.012   5.323
 1533TIP3   OH2 4541   1.516   1.482   1.802
 1533TIP3    H1 4542   1.514   1.386   1.791
 1533TIP3    H2 4543   1.502   1.495   1.896
 1534TIP3   OH2 4544   1.762   6.511   2.055
 1534TIP3    H1 4545   1.802   6.588   2.094
 1534TIP3    H2 4546   1.677   6.504   2.098
 1535TIP3   OH2 4547   8.032   0.620   5.600
 1535TIP3    H1 4548   8.053   0.545   5.545
 1535TIP3    H2 4549   8.009   0.689   5.538
 1536TIP3   OH2 4550   0.333   5.673   5.686
 1536TIP3    H1 4551   0.280   5.728   5.628
 1536TIP3    H2 4552   0.289   5.679   5.771
 1537TIP3   OH2 4553   3.777   3.940   2.476
 1537TIP3    H1 4554   3.866   3.973   2.467
 1537TIP3    H2 4555   3.727   3.988   2.409
 1538TIP3   OH2 4556   1.239   5.180   1.600
 1538TIP3    H1 4557   1.309   5.116   1.585
 1538TIP3    H2 4558   1.181   5.138   1.664
 1539TIP3   OH2 4559   7.398   7.127   5.668
 1539TIP3    H1 4560   7.376   7.190   5.599
 1539TIP3    H2 4561   7.361   7.166   5.748
 1540TIP3   OH2 4562   5.412   2.885   1.331
 1540TIP3    H1 4563   5.496   2.843   1.348
 1540TIP3    H2 4564   5.378   2.841   1.253
 1541TIP3   OH2 4565   8.169   4.035   0.978
 1541TIP3    H1 4566   8.214   4.003   1.056
 1541TIP3    H2 4567   8.079   4.051   1.006
 1542TIP3   OH2 4568   3.154   0.947   3.044
 1542TIP3    H1 4569   3.152   0.885   2.971
 1542TIP3    H2 4570   3.240   0.990   3.036
 1543TIP3   OH2 4571   5.542   1.205   4.953
 1543TIP3    H1 4572   5.625   1.251   4.944
 1543TIP3    H2 4573   5.492   1.230   4.876
 1544TIP3   OH2 4574   1.323   3.760   2.632
 1544TIP3    H1 4575   1.389   3.804   2.578
 1544TIP3    H2 4576   1.240   3.791   2.598
 1545TIP3   OH2 4577   2.001   1.549   2.960
 1545TIP3    H1 4578   2.066   1.481   2.942
 1545TIP3    H2 4579   1.933   1.505   3.012
 1546TIP3   OH2 4580   3.759   2.601   2.518
 1546TIP3    H1 4581   3.748   2.624   2.610
 1546TIP3    H2 4582   3.851   2.574   2.510
 1547TIP3   OH2 4583   4.810   2.743   6.270
 1547TIP3    H1 4584   4.857   2.661   6.258
 1547TIP3    H2 4585   4.721   2.724   6.239
 1548TIP3   OH2 4586   1.322   3.931   6.065
 1548TIP3    H1 4587   1.297   4.023   6.066
 1548TIP3    H2 4588   1.327   3.907   6.157
 1549TIP3   OH2 4589   2.802   1.626   0.853
 1549TIP3    H1 4590   2.715   1.649   0.885
 1549TIP3    H2 4591   2.811   1.533   0.870
 1550TIP3   OH2 4592   5.847   2.066   2.253
 1550TIP3    H1 4593   5.935   2.080   2.217
 1550TIP3    H2 4594   5.803   2.012   2.187
 1551TIP3   OH2 4595   4.146   1.305   2.408
 1551TIP3    H1 4596   4.151   1.294   2.313
 1551TIP3    H2 4597   4.069   1.253   2.433
 1552TIP3   OH2 4598   8.245   5.671   6.255
 1552TIP3    H1 4599   8.248   5.588   6.207
 1552TIP3    H2 4600   8.196   5.731   6.198
 1553TIP3   OH2 4601   2.378   3.932   5.342
 1553TIP3    H1 4602   2.314   3.994   5.375
 1553TIP3    H2 4603   2.454   3.985   5.319
 1554TIP3   OH2 4604   2.978   5.380   3.201
 1554TIP3    H1 4605   3.036   5.449   3.170
 1554TIP3    H2 4606   3.036   5.306   3.220
 1555TIP3   OH2 4607   0.811   0.688   3.772
 1555TIP3    H1 4608   0.856   0.610   3.739
 1555TIP3    H2 4609   0.880   0.752   3.785
 1556TIP3   OH2 4610   7.510   5.518   0.925
 1556TIP3    H1 4611   7.584   5.486   0.874
 1556TIP3    H2 4612   7.523   5.613   0.929
 1557TIP3   OH2 4613   3.301   1.658   6.163
 1557TIP3    H1 4614   3.381   1.709   6.162
 1557TIP3    H2 4615   3.240   1.709   6.216
 1558TIP3   OH2 4616   3.531   5.809   2.399
 1558TIP3    H1 4617   3.473   5.783   2.327
 1558TIP3    H2 4618   3.472   5.842   2.467
 1559TIP3   OH2 4619   1.135   4.009   3.401
 1559TIP3    H1 4620   1.069   3.951   3.363
 1559TIP3    H2 4621   1.092   4.051   3.474
 1560TIP3   OH2 4622   3.010   4.765   3.469
 1560TIP3    H1 4623   2.934   4.732   3.421
 1560TIP3    H2 4624   3.085   4.722   3.427
 1561TIP3   OH2 4625   3.294   5.448   4.742
 1561TIP3    H1 4626   3.279   5.493   4.825
 1561TIP3    H2 4627   3.253   5.505   4.676
 1562TIP3   OH2 4628   7.041   2.139   1.334
 1562TIP3    H1 4629   7.027   2.087   1.255
 1562TIP3    H2 4630   7.127   2.111   1.366
 1563TIP3   OH2 4631   8.182   1.448   0.587
 1563TIP3    H1 4632   8.242   1.464   0.660
 1563TIP3    H2 4633   8.138   1.532   0.574
 1564TIP3   OH2 4634   7.719   2.512   1.983
 1564TIP3    H1 4635   7.747   2.602   1.964
 1564TIP3    H2 4636   7.796   2.471   2.022
 1565TIP3   OH2 4637   3.297   1.335   2.450
 1565TIP3    H1 4638   3.247   1.305   2.526
 1565TIP3    H2 4639   3.365   1.391   2.486
 1566TIP3   OH2 4640   4.228   4.984   4.276
 1566TIP3    H1 4641   4.145   4.997   4.321
 1566TIP3    H2 4642   4.286   4.949   4.344
 1567TIP3   OH2 4643   3.832   4.189   5.698
 1567TIP3    H1 4644   3.833   4.283   5.718
 1567TIP3    H2 4645   3.740   4.168   5.687
 1568TIP3   OH2 4646   5.319   2.847   6.323
 1568TIP3    H1 4647   5.230   2.826   6.294
 1568TIP3    H2 4648   5.309   2.926   6.375
 1569TIP3   OH2 4649   6.786   4.857   1.855
 1569TIP3    H1 4650   6.857   4.892   1.910
 1569TIP3    H2 4651   6.723   4.823   1.918
 1570TIP3   OH2 4652   5.260   4.916   4.250
 1570TIP3    H1 4653   5.289   5.007   4.261
 1570TIP3    H2 4654   5.327   4.864   4.295
 1571TIP3   OH2 4655   5.322   5.134   4.448
 1571TIP3    H1 4656   5.404   5.179   4.467
 1571TIP3    H2 4657   5.306   5.079   4.526
 1572TIP3   OH2 4658   4.027   4.027   0.911
 1572TIP3    H1 4659   3.955   3.976   0.949
 1572TIP3    H2 4660   4.066   4.073   0.985
 1573TIP3   OH2 4661   0.320   1.843   5.596
 1573TIP3    H1 4662   0.378   1.918   5.588
 1573TIP3    H2 4663   0.271   1.841   5.514
 1574TIP3   OH2 4664   2.462   5.622   3.065
 1574TIP3    H1 4665   2.396   5.553   3.057
 1574TIP3    H2 4666   2.534   5.593   3.009
 1575TIP3   OH2 4667   2.363   4.535   4.641
 1575TIP3    H1 4668   2.348   4.614   4.588
 1575TIP3    H2 4669   2.344   4.462   4.582
 1576TIP3   OH2 4670   1.182   5.685   2.433
 1576TIP3    H1 4671   1.268   5.726   2.445
 1576TIP3    H2 4672   1.193   5.596   2.467
 1577TIP3   OH2 4673   2.251   6.688   2.946
 1577TIP3    H1 4674   2.337   6.698   2.987
 1577TIP3    H2 4675   2.267   6.629   2.872
 1578TIP3   OH2 4676   2.746   0.788   4.703
 1578TIP3    H1 4677   2.718   0.770   4.793
 1578TIP3    H2 4678   2.690   0.733   4.649
 1579TIP3   OH2 4679   0.220   4.594   2.764
 1579TIP3    H1 4680   0.207   4.580   2.670
 1579TIP3    H2 4681   0.138   4.633   2.794
 1580TIP3   OH2 4682   4.911   3.449   6.627
 1580TIP3    H1 4683   4.929   3.459   6.720
 1580TIP3    H2 4684   4.827   3.403   6.624
 1581TIP3   OH2 4685   1.624   6.616   0.690
 1581TIP3    H1 4686   1.618   6.712   0.685
 1581TIP3    H2 4687   1.553   6.585   0.634
 1582TIP3   OH2 4688   2.201   5.118   5.297
 1582TIP3    H1 4689   2.126   5.164   5.258
 1582TIP3    H2 4690   2.255   5.187   5.335
 1583TIP3   OH2 4691   7.752   5.961   1.565
 1583TIP3    H1 4692   7.677   5.915   1.527
 1583TIP3    H2 4693   7.812   5.892   1.593
 1584TIP3   OH2 4694   5.860   0.543   6.553
 1584TIP3    H1 4695   5.778   0.528   6.600
 1584TIP3    H2 4696   5.893   0.455   6.535
 1585TIP3   OH2 4697   1.707   7.099   3.013
 1585TIP3    H1 4698   1.729   7.108   2.920
 1585TIP3    H2 4699   1.792   7.090   3.057
 1586TIP3   OH2 4700   2.709   1.495   1.956
 1586TIP3    H1 4701   2.626   1.542   1.954
 1586TIP3    H2 4702   2.734   1.488   1.864
 1587TIP3   OH2 4703   2.730   5.601   3.832
 1587TIP3    H1 4704   2.673   5.587   3.757
 1587TIP3    H2 4705   2.752   5.694   3.829
 1588TIP3   OH2 4706   3.958   7.196   0.670
 1588TIP3    H1 4707   4.003   7.146   0.602
 1588TIP3    H2 4708   3.865   7.174   0.659
 1589TIP3   OH2 4709   2.846   0.740   4.028
 1589TIP3    H1 4710   2.866   0.710   3.939
 1589TIP3    H2 4711   2.803   0.825   4.016
 1590TIP3   OH2 4712   1.308   0.757   1.347
 1590TIP3    H1 4713   1.372   0.769   1.276
 1590TIP3    H2 4714   1.358   0.714   1.417
 1591TIP3   OH2 4715   6.840   1.445   0.427
 1591TIP3    H1 4716   6.746   1.454   0.442
 1591TIP3    H2 4717   6.852   1.351   0.410
 1592TIP3   OH2 4718   1.089   3.406   6.237
 1592TIP3    H1 4719   1.037   3.411   6.157
 1592TIP3    H2 4720   1.067   3.487   6.285
 1593TIP3   OH2 4721   2.257   4.734   2.457
 1593TIP3    H1 4722   2.237   4.661   2.398
 1593TIP3    H2 4723   2.192   4.726   2.527
 1594TIP3   OH2 4724   2.551   7.704   3.933
 1594TIP3    H1 4725   2.634   7.748   3.950
 1594TIP3    H2 4726   2.556   7.679   3.841
 1595TIP3   OH2 4727   0.965   2.865   2.472
 1595TIP3    H1 4728   0.983   2.773   2.453
 1595TIP3    H2 4729   0.878   2.865   2.511
 1596TIP3   OH2 4730   7.140   4.374   0.592
 1596TIP3    H1 4731   7.123   4.448   0.651
 1596TIP3    H2 4732   7.196   4.409   0.524
 1597TIP3   OH2 4733   5.397   3.092   0.330
 1597TIP3    H1 4734   5.361   3.174   0.361
 1597TIP3    H2 4735   5.370   3.087   0.238
 1598TIP3   OH2 4736   0.320   4.658   1.434
 1598TIP3    H1 4737   0.379   4.595   1.475
 1598TIP3    H2 4738   0.253   4.675   1.501
 1599TIP3   OH2 4739   3.676   7.759   2.573
 1599TIP3    H1 4740   3.670   7.744   2.479
 1599TIP3    H2 4741   3.596   7.721   2.609
 1600TIP3   OH2 4742   8.281   2.036   4.052
 1600TIP3    H1 4743   8.226   1.962   4.077
 1600TIP3    H2 4744   8.362   1.996   4.021
 1601TIP3   OH2 4745   4.845   5.112   4.490
 1601TIP3    H1 4746   4.813   5.164   4.564
 1601TIP3    H2 4747   4.831   5.021   4.517
 1602TIP3   OH2 4748   7.117   0.871   4.497
 1602TIP3    H1 4749   7.208   0.896   4.513
 1602TIP3    H2 4750   7.079   0.863   4.584
 1603TIP3   OH2 4751   0.124   7.203   0.254
 1603TIP3    H1 4752   0.205   7.209   0.204
 1603TIP3    H2 4753   0.060   7.253   0.204
 1604TIP3   OH2 4754   2.231   2.825   2.593
 1604TIP3    H1 4755   2.256   2.746   2.545
 1604TIP3    H2 4756   2.139   2.810   2.617
 1605TIP3   OH2 4757   7.108   2.623   6.229
 1605TIP3    H1 4758   7.017   2.627   6.259
 1605TIP3    H2 4759   7.117   2.535   6.193
 1606TIP3   OH2 4760   1.981   6.519   3.771
 1606TIP3    H1 4761   1.919   6.577   3.814
 1606TIP3    H2 4762   2.067   6.555   3.793
 1607TIP3   OH2 4763   0.234   1.859   4.812
 1607TIP3    H1 4764   0.279   1.804   4.748
 1607TIP3    H2 4765   0.142   1.854   4.788
 1608TIP3   OH2 4766   1.919   2.681   0.689
 1608TIP3    H1 4767   1.971   2.750   0.730
 1608TIP3    H2 4768   1.829   2.703   0.710
 1609TIP3   OH2 4769   6.276   5.178   3.585
 1609TIP3    H1 4770   6.245   5.208   3.499
 1609TIP3    H2 4771   6.367   5.207   3.588
 1610TIP3   OH2 4772   1.497   0.119   4.213
 1610TIP3    H1 4773   1.566   0.053   4.210
 1610TIP3    H2 4774   1.425   0.081   4.162
 1611TIP3   OH2 4775   1.753   4.204   6.106
 1611TIP3    H1 4776   1.746   4.277   6.044
 1611TIP3    H2 4777   1.711   4.131   6.061
 1612TIP3   OH2 4778   2.546   3.248   3.070
 1612TIP3    H1 4779   2.596   3.315   3.023
 1612TIP3    H2 4780   2.461   3.246   3.026
 1613TIP3   OH2 4781   1.845   6.623   0.511
 1613TIP3    H1 4782   1.877   6.534   0.500
 1613TIP3    H2 4783   1.781   6.618   0.582
 1614TIP3   OH2 4784   0.612   3.239   5.267
 1614TIP3    H1 4785   0.580   3.255   5.178
 1614TIP3    H2 4786   0.548   3.281   5.324
 1615TIP3   OH2 4787   4.223   6.630   4.790
 1615TIP3    H1 4788   4.275   6.694   4.741
 1615TIP3    H2 4789   4.201   6.675   4.872
 1616TIP3   OH2 4790   5.635   3.830   4.694
 1616TIP3    H1 4791   5.566   3.858   4.634
 1616TIP3    H2 4792   5.683   3.763   4.645
 1617TIP3   OH2 4793   7.014   6.138   0.756
 1617TIP3    H1 4794   7.010   6.134   0.851
 1617TIP3    H2 4795   7.100   6.104   0.734
 1618TIP3   OH2 4796   6.187   3.408   1.308
 1618TIP3    H1 4797   6.119   3.457   1.262
 1618TIP3    H2 4798   6.139   3.345   1.361
 1619TIP3   OH2 4799   4.948   5.926   5.261
 1619TIP3    H1 4800   4.941   5.853   5.199
 1619TIP3    H2 4801   5.019   5.901   5.319
 1620TIP3   OH2 4802   4.044   1.176   0.692
 1620TIP3    H1 4803   3.991   1.159   0.614
 1620TIP3    H2 4804   4.067   1.268   0.685
 1621TIP3   OH2 4805   5.661   2.094   1.574
 1621TIP3    H1 4806   5.689   2.133   1.657
 1621TIP3    H2 4807   5.690   2.003   1.579
 1622TIP3   OH2 4808   7.697   5.566   1.973
 1622TIP3    H1 4809   7.760   5.574   1.901
 1622TIP3    H2 4810   7.663   5.655   1.985
 1623TIP3   OH2 4811   5.692   2.050   4.844
 1623TIP3    H1 4812   5.716   2.126   4.898
 1623TIP3    H2 4813   5.705   1.975   4.901
 1624TIP3   OH2 4814   7.223   0.318   4.726
 1624TIP3    H1 4815   7.269   0.391   4.683
 1624TIP3    H2 4816   7.174   0.276   4.655
 1625TIP3   OH2 4817   5.055   3.277   6.435
 1625TIP3    H1 4818   5.129   3.333   6.410
 1625TIP3    H2 4819   5.004   3.331   6.496
 1626TIP3   OH2 4820   2.114   7.315   5.784
 1626TIP3    H1 4821   2.067   7.398   5.789
 1626TIP3    H2 4822   2.188   7.326   5.844
 1627TIP3   OH2 4823   7.949   2.150   2.614
 1627TIP3    H1 4824   7.927   2.242   2.599
 1627TIP3    H2 4825   7.981   2.147   2.704
 1628TIP3   OH2 4826   0.157   6.541   4.977
 1628TIP3    H1 4827   0.216   6.470   5.000
 1628TIP3    H2 4828   0.153   6.595   5.056
 1629TIP3   OH2 4829   2.148   7.378   0.937
 1629TIP3    H1 4830   2.098   7.300   0.962
 1629TIP3    H2 4831   2.155   7.373   0.842
 1630TIP3   OH2 4832   4.537   1.482   3.681
 1630TIP3    H1 4833   4.615   1.430   3.660
 1630TIP3    H2 4834   4.570   1.554   3.735
 1631TIP3   OH2 4835   7.127   5.545   1.810
 1631TIP3    H1 4836   7.188   5.497   1.866
 1631TIP3    H2 4837   7.043   5.502   1.824
 1632TIP3   OH2 4838   5.186   2.645   3.831
 1632TIP3    H1 4839   5.162   2.629   3.923
 1632TIP3    H2 4840   5.237   2.569   3.805
 1633TIP3   OH2 4841   1.408   6.288   2.671
 1633TIP3    H1 4842   1.422   6.201   2.708
 1633TIP3    H2 4843   1.476   6.342   2.710
 1634TIP3   OH2 4844   1.937   0.965   0.685
 1634TIP3    H1 4845   1.926   1.054   0.718
 1634TIP3    H2 4846   1.944   0.975   0.590
 1635TIP3   OH2 4847   3.987   0.220   2.123
 1635TIP3    H1 4848   3.894   0.207   2.142
 1635TIP3    H2 4849   3.995   0.206   2.029
 1636TIP3   OH2 4850   4.811   4.724   3.143
 1636TIP3    H1 4851   4.721   4.758   3.142
 1636TIP3    H2 4852   4.838   4.731   3.235
 1637TIP3   OH2 4853   7.125   5.130   0.573
 1637TIP3    H1 4854   7.184   5.099   0.642
 1637TIP3    H2 4855   7.113   5.054   0.516
 1638TIP3   OH2 4856   3.334   7.581   5.351
 1638TIP3    H1 4857   3.337   7.517   5.279
 1638TIP3    H2 4858   3.354   7.664   5.309
 1639TIP3   OH2 4859   7.455   3.018   5.930
 1639TIP3    H1 4860   7.383   3.075   5.903
 1639TIP3    H2 4861   7.530   3.051   5.882
 1640TIP3   OH2 4862   4.956   1.890   1.986
 1640TIP3    H1 4863   4.976   1.965   2.042
 1640TIP3    H2 4864   4.940   1.927   1.900
 1641TIP3   OH2 4865   0.375   2.120   3.265
 1641TIP3    H1 4866   0.325   2.178   3.209
 1641TIP3    H2 4867   0.396   2.173   3.342
 1642TIP3   OH2 4868   5.886   0.672   5.305
 1642TIP3    H1 4869   5.960   0.625   5.345
 1642TIP3    H2 4870   5.920   0.703   5.221
 1643TIP3   OH2 4871   3.737   0.745   1.065
 1643TIP3    H1 4872   3.668   0.804   1.034
 1643TIP3    H2 4873   3.690   0.675   1.111
 1644TIP3   OH2 4874   3.088   3.816   6.336
 1644TIP3    H1 4875   3.049   3.841   6.252
 1644TIP3    H2 4876   3.112   3.724   6.325
 1645TIP3   OH2 4877   3.490   0.110   3.327
 1645TIP3    H1 4878   3.418   0.084   3.270
 1645TIP3    H2 4879   3.560   0.136   3.267
 1646TIP3   OH2 4880   6.349   7.472   3.513
 1646TIP3    H1 4881   6.367   7.394   3.461
 1646TIP3    H2 4882   6.299   7.529   3.455
 1647TIP3   OH2 4883   4.343   6.579   1.198
 1647TIP3    H1 4884   4.266   6.606   1.147
 1647TIP3    H2 4885   4.348   6.642   1.269
 1648TIP3   OH2 4886   7.310   4.265   5.118
 1648TIP3    H1 4887   7.248   4.206   5.160
 1648TIP3    H2 4888   7.395   4.222   5.128
 1649TIP3   OH2 4889   7.463   0.917   1.190
 1649TIP3    H1 4890   7.433   0.972   1.118
 1649TIP3    H2 4891   7.411   0.837   1.183
 1650TIP3   OH2 4892   4.091   2.295   0.415
 1650TIP3    H1 4893   4.032   2.365   0.389
 1650TIP3    H2 4894   4.089   2.296   0.511
 1651TIP3   OH2 4895   4.636   5.847   2.756
 1651TIP3    H1 4896   4.668   5.898   2.682
 1651TIP3    H2 4897   4.714   5.801   2.788
 1652TIP3   OH2 4898   1.436   1.626   3.804
 1652TIP3    H1 4899   1.444   1.708   3.852
 1652TIP3    H2 4900   1.385   1.569   3.861
 1653TIP3   OH2 4901   0.731   0.632   5.692
 1653TIP3    H1 4902   0.741   0.625   5.787
 1653TIP3    H2 4903   0.765   0.549   5.658
 1654TIP3   OH2 4904   3.853   4.457   5.735
 1654TIP3    H1 4905   3.835   4.479   5.826
 1654TIP3    H2 4906   3.854   4.542   5.690
 1655TIP3   OH2 4907   6.585   7.465   4.593
 1655TIP3    H1 4908   6.526   7.389   4.595
 1655TIP3    H2 4909   6.588   7.495   4.684
 1656TIP3   OH2 4910   6.830   0.754   0.232
 1656TIP3    H1 4911   6.753   0.766   0.176
 1656TIP3    H2 4912   6.902   0.737   0.172
 1657TIP3   OH2 4913   7.441   5.293   1.592
 1657TIP3    H1 4914   7.403   5.380   1.585
 1657TIP3    H2 4915   7.472   5.274   1.503
 1658TIP3   OH2 4916   2.798   5.342   0.737
 1658TIP3    H1 4917   2.779   5.276   0.670
 1658TIP3    H2 4918   2.713   5.359   0.779
 1659TIP3   OH2 4919   6.941   1.055   3.959
 1659TIP3    H1 4920   6.859   1.080   4.001
 1659TIP3    H2 4921   7.008   1.070   4.026
 1660TIP3   OH2 4922   5.758   1.160   1.306
 1660TIP3    H1 4923   5.690   1.219   1.273
 1660TIP3    H2 4924   5.822   1.218   1.347
 1661TIP3   OH2 4925   6.196   6.812   6.355
 1661TIP3    H1 4926   6.212   6.891   6.406
 1661TIP3    H2 4927   6.138   6.760   6.411
 1662TIP3   OH2 4928   3.877   3.986   6.444
 1662TIP3    H1 4929   3.786   4.010   6.459
 1662TIP3    H2 4930   3.873   3.914   6.381
 1663TIP3   OH2 4931   3.993   3.494   1.452
 1663TIP3    H1 4932   3.973   3.471   1.543
 1663TIP3    H2 4933   4.062   3.560   1.459
 1664TIP3   OH2 4934   2.976   2.595   2.680
 1664TIP3    H1 4935   2.982   2.668   2.742
 1664TIP3    H2 4936   2.995   2.517   2.733
 1665TIP3   OH2 4937   1.535   2.587   2.216
 1665TIP3    H1 4938   1.572   2.499   2.225
 1665TIP3    H2 4939   1.589   2.629   2.149
 1666TIP3   OH2 4940   6.523   4.181   2.340
 1666TIP3    H1 4941   6.468   4.260   2.334
 1666TIP3    H2 4942   6.468   4.117   2.384
 1667TIP3   OH2 4943   2.841   7.384   6.362
 1667TIP3    H1 4944   2.873   7.474   6.365
 1667TIP3    H2 4945   2.896   7.337   6.425
 1668TIP3   OH2 4946   3.317   7.610   6.556
 1668TIP3    H1 4947   3.275   7.578   6.636
 1668TIP3    H2 4948   3.358   7.532   6.517
 1669TIP3   OH2 4949   1.933   5.097   1.076
 1669TIP3    H1 4950   1.978   5.145   1.006
 1669TIP3    H2 4951   2.003   5.048   1.119
 1670TIP3   OH2 4952   5.168   3.581   0.530
 1670TIP3    H1 4953   5.213   3.662   0.505
 1670TIP3    H2 4954   5.172   3.579   0.625
 1671TIP3   OH2 4955   6.179   6.077   3.783
 1671TIP3    H1 4956   6.212   6.121   3.704
 1671TIP3    H2 4957   6.156   6.149   3.842
 1672TIP3   OH2 4958   4.212   1.817   0.777
 1672TIP3    H1 4959   4.267   1.895   0.780
 1672TIP3    H2 4960   4.206   1.795   0.684
 1673TIP3   OH2 4961   1.377   3.027   2.546
 1673TIP3    H1 4962   1.463   3.018   2.588
 1673TIP3    H2 4963   1.391   2.999   2.456
 1674TIP3   OH2 4964   0.585   2.800   1.113
 1674TIP3    H1 4965   0.503   2.849   1.101
 1674TIP3    H2 4966   0.562   2.710   1.092
 1675TIP3   OH2 4967   5.795   4.411   0.573
 1675TIP3    H1 4968   5.881   4.402   0.613
 1675TIP3    H2 4969   5.741   4.452   0.640
 1676TIP3   OH2 4970   1.938   0.522   4.473
 1676TIP3    H1 4971   1.980   0.597   4.516
 1676TIP3    H2 4972   1.929   0.548   4.382
 1677TIP3   OH2 4973   5.571   6.209   0.157
 1677TIP3    H1 4974   5.476   6.216   0.165
 1677TIP3    H2 4975   5.594   6.277   0.093
 1678TIP3   OH2 4976   3.747   1.840   6.643
 1678TIP3    H1 4977   3.675   1.793   6.600
 1678TIP3    H2 4978   3.814   1.848   6.575
 1679TIP3   OH2 4979   4.908   2.452   1.977
 1679TIP3    H1 4980   4.861   2.372   1.954
 1679TIP3    H2 4981   4.890   2.464   2.070
 1680TIP3   OH2 4982   2.798   2.892   5.886
 1680TIP3    H1 4983   2.764   2.982   5.887
 1680TIP3    H2 4984   2.745   2.845   5.950
 1681TIP3   OH2 4985   2.115   2.223   2.089
 1681TIP3    H1 4986   2.145   2.304   2.049
 1681TIP3    H2 4987   2.020   2.226   2.082
 1682TIP3   OH2 4988   7.710   3.621   3.277
 1682TIP3    H1 4989   7.657   3.592   3.351
 1682TIP3    H2 4990   7.683   3.565   3.205
 1683TIP3   OH2 4991   0.948   6.076   4.897
 1683TIP3    H1 4992   0.972   5.986   4.874
 1683TIP3    H2 4993   1.015   6.104   4.959
 1684TIP3   OH2 4994   0.838   7.413   6.746
 1684TIP3    H1 4995   0.928   7.396   6.720
 1684TIP3    H2 4996   0.811   7.334   6.793
 1685TIP3   OH2 4997   1.881   3.271   2.519
 1685TIP3    H1 4998   1.827   3.350   2.521
 1685TIP3    H2 4999   1.950   3.287   2.584
 1686TIP3   OH2 5000   5.979   5.322   4.554
 1686TIP3    H1 5001   5.978   5.227   4.559
 1686TIP3    H2 5002   6.002   5.340   4.462
 1687TIP3   OH2 5003   5.047   7.483   3.138
 1687TIP3    H1 5004   4.971   7.426   3.150
 1687TIP3    H2 5005   5.034   7.521   3.051
 1688TIP3   OH2 5006   2.954   0.703   1.258
 1688TIP3    H1 5007   2.921   0.762   1.190
 1688TIP3    H2 5008   2.930   0.615   1.227
 1689TIP3   OH2 5009   3.451   1.206   0.394
 1689TIP3    H1 5010   3.516   1.269   0.426
 1689TIP3    H2 5011   3.453   1.135   0.458
 1690TIP3   OH2 5012   3.831   5.837   3.741
 1690TIP3    H1 5013   3.776   5.882   3.805
 1690TIP3    H2 5014   3.823   5.744   3.763
 1691TIP3   OH2 5015   5.104   2.040   5.674
 1691TIP3    H1 5016   5.055   1.959   5.687
 1691TIP3    H2 5017   5.039   2.102   5.641
 1692TIP3   OH2 5018   7.919   3.953   0.386
 1692TIP3    H1 5019   7.969   3.884   0.429
 1692TIP3    H2 5020   7.896   4.014   0.456
 1693TIP3   OH2 5021   5.881   1.292   1.765
 1693TIP3    H1 5022   5.883   1.388   1.759
 1693TIP3    H2 5023   5.788   1.270   1.772
 1694TIP3   OH2 5024   3.336   0.032   0.268
 1694TIP3    H1 5025   3.428   0.058   0.266
 1694TIP3    H2 5026   3.335  -0.047   0.321
 1695TIP3   OH2 5027   1.743   6.955   5.614
 1695TIP3    H1 5028   1.807   7.022   5.589
 1695TIP3    H2 5029   1.718   6.979   5.703
 1696TIP3   OH2 5030   2.917   1.437   2.126
 1696TIP3    H1 5031   2.964   1.493   2.187
 1696TIP3    H2 5032   2.847   1.493   2.092
 1697TIP3   OH2 5033   3.478   0.746   1.510
 1697TIP3    H1 5034   3.472   0.811   1.581
 1697TIP3    H2 5035   3.408   0.772   1.449
 1698TIP3   OH2 5036   1.272   3.990   4.309
 1698TIP3    H1 5037   1.321   3.928   4.364
 1698TIP3    H2 5038   1.243   4.058   4.370
 1699TIP3   OH2 5039   4.182   5.006   2.299
 1699TIP3    H1 5040   4.191   5.050   2.214
 1699TIP3    H2 5041   4.264   4.958   2.310
 1700TIP3   OH2 5042   3.172   4.484   0.251
 1700TIP3    H1 5043   3.146   4.413   0.192
 1700TIP3    H2 5044   3.188   4.441   0.335
 1701TIP3   OH2 5045   3.196   7.484   3.747
 1701TIP3    H1 5046   3.137   7.506   3.675
 1701TIP3    H2 5047   3.203   7.388   3.744
 1702TIP3   OH2 5048   6.447   1.017   0.188
 1702TIP3    H1 5049   6.424   0.930   0.155
 1702TIP3    H2 5050   6.519   1.046   0.132
 1703TIP3   OH2 5051   3.323   2.736   1.217
 1703TIP3    H1 5052   3.384   2.750   1.289
 1703TIP3    H2 5053   3.247   2.789   1.239
 1704TIP3   OH2 5054   2.113   4.878   5.424
 1704TIP3    H1 5055   2.164   4.950   5.387
 1704TIP3    H2 5056   2.025   4.914   5.435
 1705TIP3   OH2 5057   1.350   6.710   1.151
 1705TIP3    H1 5058   1.426   6.660   1.183
 1705TIP3    H2 5059   1.377   6.739   1.064
 1706TIP3   OH2 5060   0.383   2.334   3.447
 1706TIP3    H1 5061   0.290   2.357   3.446
 1706TIP3    H2 5062   0.414   2.362   3.533
 1707TIP3   OH2 5063   5.634   2.078   5.678
 1707TIP3    H1 5064   5.642   2.091   5.583
 1707TIP3    H2 5065   5.674   1.992   5.693
 1708TIP3   OH2 5066   7.447   0.089   2.493
 1708TIP3    H1 5067   7.533   0.067   2.527
 1708TIP3    H2 5068   7.439   0.183   2.505
 1709TIP3   OH2 5069   6.372   6.334   6.703
 1709TIP3    H1 5070   6.396   6.255   6.655
 1709TIP3    H2 5071   6.276   6.336   6.699
 1710TIP3   OH2 5072   1.580   6.213   6.165
 1710TIP3    H1 5073   1.638   6.267   6.219
 1710TIP3    H2 5074   1.592   6.124   6.198
 1711TIP3   OH2 5075   1.942   2.316   3.587
 1711TIP3    H1 5076   1.992   2.294   3.509
 1711TIP3    H2 5077   1.883   2.242   3.600
 1712TIP3   OH2 5078   0.599   7.383   3.645
 1712TIP3    H1 5079   0.625   7.414   3.558
 1712TIP3    H2 5080   0.682   7.360   3.688
 1713TIP3   OH2 5081   6.021   2.316   1.484
 1713TIP3    H1 5082   6.001   2.394   1.431
 1713TIP3    H2 5083   6.053   2.351   1.567
 1714TIP3   OH2 5084   7.465   1.340   2.821
 1714TIP3    H1 5085   7.500   1.398   2.888
 1714TIP3    H2 5086   7.379   1.377   2.799
 1715TIP3   OH2 5087   2.837   3.664   4.210
 1715TIP3    H1 5088   2.749   3.632   4.187
 1715TIP3    H2 5089   2.854   3.626   4.296
 1716TIP3   OH2 5090   1.704   5.350   1.709
 1716TIP3    H1 5091   1.757   5.287   1.659
 1716TIP3    H2 5092   1.673   5.300   1.785
 1717TIP3   OH2 5093   2.580   2.095   3.390
 1717TIP3    H1 5094   2.601   2.154   3.317
 1717TIP3    H2 5095   2.513   2.141   3.440
 1718TIP3   OH2 5096   2.237   1.412   2.945
 1718TIP3    H1 5097   2.259   1.323   2.973
 1718TIP3    H2 5098   2.321   1.457   2.940
 1719TIP3   OH2 5099   0.382   6.528   6.223
 1719TIP3    H1 5100   0.334   6.566   6.297
 1719TIP3    H2 5101   0.439   6.463   6.264
 1720TIP3   OH2 5102   1.306   5.860   4.862
 1720TIP3    H1 5103   1.386   5.820   4.896
 1720TIP3    H2 5104   1.335   5.910   4.786
 1721TIP3   OH2 5105   2.347   5.900   4.769
 1721TIP3    H1 5106   2.275   5.925   4.712
 1721TIP3    H2 5107   2.406   5.849   4.713
 1722TIP3   OH2 5108   6.495   2.277   1.076
 1722TIP3    H1 5109   6.531   2.189   1.085
 1722TIP3    H2 5110   6.403   2.268   1.099
 1723TIP3   OH2 5111   1.091   2.717   1.840
 1723TIP3    H1 5112   1.130   2.630   1.841
 1723TIP3    H2 5113   1.114   2.753   1.754
 1724TIP3   OH2 5114   4.816   7.762   3.026
 1724TIP3    H1 5115   4.775   7.715   2.954
 1724TIP3    H2 5116   4.829   7.696   3.094
 1725TIP3   OH2 5117   5.554   3.203   2.895
 1725TIP3    H1 5118   5.602   3.285   2.886
 1725TIP3    H2 5119   5.606   3.151   2.956
 1726TIP3   OH2 5120   0.823   3.977   0.043
 1726TIP3    H1 5121   0.774   4.048   0.085
 1726TIP3    H2 5122   0.771   3.954  -0.033
 1727TIP3   OH2 5123   1.016   2.482   3.041
 1727TIP3    H1 5124   0.937   2.502   3.090
 1727TIP3    H2 5125   0.991   2.493   2.949
 1728TIP3   OH2 5126   7.437   3.108   4.012
 1728TIP3    H1 5127   7.375   3.040   4.036
 1728TIP3    H2 5128   7.384   3.180   3.979
 1729TIP3   OH2 5129   4.129   0.733   0.041
 1729TIP3    H1 5130   4.082   0.756  -0.039
 1729TIP3    H2 5131   4.201   0.677   0.011
 1730TIP3   OH2 5132   4.800   0.336   2.531
 1730TIP3    H1 5133   4.875   0.281   2.512
 1730TIP3    H2 5134   4.829   0.391   2.604
 1731TIP3   OH2 5135   1.226   2.157   6.616
 1731TIP3    H1 5136   1.310   2.112   6.604
 1731TIP3    H2 5137   1.160   2.094   6.586
 1732TIP3   OH2 5138   0.675   4.714   5.363
 1732TIP3    H1 5139   0.685   4.723   5.458
 1732TIP3    H2 5140   0.765   4.704   5.330
 1733TIP3   OH2 5141   7.649   2.557   6.255
 1733TIP3    H1 5142   7.744   2.549   6.251
 1733TIP3    H2 5143   7.617   2.508   6.179
 1734TIP3   OH2 5144   3.308   0.079   6.126
 1734TIP3    H1 5145   3.351   0.098   6.043
 1734TIP3    H2 5146   3.214   0.088   6.107
 1735TIP3   OH2 5147   4.478   5.950   0.950
 1735TIP3    H1 5148   4.565   5.990   0.955
 1735TIP3    H2 5149   4.423   6.007   1.003
 1736TIP3   OH2 5150   4.230   5.790   3.052
 1736TIP3    H1 5151   4.230   5.850   3.126
 1736TIP3    H2 5152   4.199   5.842   2.978
 1737TIP3   OH2 5153   1.754   1.400   6.646
 1737TIP3    H1 5154   1.715   1.484   6.621
 1737TIP3    H2 5155   1.767   1.407   6.741
 1738TIP3   OH2 5156   2.291   6.129   2.595
 1738TIP3    H1 5157   2.330   6.066   2.656
 1738TIP3    H2 5158   2.366   6.176   2.559
 1739TIP3   OH2 5159   1.606   7.471   1.787
 1739TIP3    H1 5160   1.517   7.475   1.822
 1739TIP3    H2 5161   1.612   7.384   1.747
 1740TIP3   OH2 5162   6.970   0.527   3.249
 1740TIP3    H1 5163   6.953   0.562   3.162
 1740TIP3    H2 5164   6.995   0.436   3.235
 1741TIP3   OH2 5165   4.684   4.932   5.469
 1741TIP3    H1 5166   4.663   4.900   5.382
 1741TIP3    H2 5167   4.654   4.862   5.528
 1742TIP3   OH2 5168   1.832   5.981   6.734
 1742TIP3    H1 5169   1.840   6.027   6.817
 1742TIP3    H2 5170   1.900   6.019   6.679
 1743TIP3   OH2 5171   1.204   6.338   4.222
 1743TIP3    H1 5172   1.132   6.361   4.280
 1743TIP3    H2 5173   1.283   6.363   4.271
 1744TIP3   OH2 5174   1.664   4.253   0.918
 1744TIP3    H1 5175   1.683   4.346   0.933
 1744TIP3    H2 5176   1.739   4.221   0.868
 1745TIP3   OH2 5177   4.833   1.550   2.131
 1745TIP3    H1 5178   4.777   1.501   2.071
 1745TIP3    H2 5179   4.771   1.601   2.184
 1746TIP3   OH2 5180   1.868   0.183   5.114
 1746TIP3    H1 5181   1.941   0.139   5.069
 1746TIP3    H2 5182   1.791   0.131   5.090
 1747TIP3   OH2 5183   7.716   6.983   5.696
 1747TIP3    H1 5184   7.650   7.023   5.752
 1747TIP3    H2 5185   7.798   6.994   5.743
 1748TIP3   OH2 5186   3.535   4.162   5.692
 1748TIP3    H1 5187   3.525   4.076   5.650
 1748TIP3    H2 5188   3.526   4.144   5.785
 1749TIP3   OH2 5189   2.187   6.436   5.915
 1749TIP3    H1 5190   2.196   6.421   5.821
 1749TIP3    H2 5191   2.264   6.488   5.938
 1750TIP3   OH2 5192   2.675   6.518   2.466
 1750TIP3    H1 5193   2.738   6.546   2.533
 1750TIP3    H2 5194   2.611   6.589   2.462
 1751TIP3   OH2 5195   2.773   6.392   5.069
 1751TIP3    H1 5196   2.791   6.453   4.998
 1751TIP3    H2 5197   2.859   6.371   5.106
 1752TIP3   OH2 5198   0.340   4.265   0.839
 1752TIP3    H1 5199   0.378   4.207   0.905
 1752TIP3    H2 5200   0.394   4.252   0.761
 1753TIP3   OH2 5201   6.383   4.405   2.277
 1753TIP3    H1 5202   6.378   4.492   2.316
 1753TIP3    H2 5203   6.322   4.408   2.203
 1754TIP3   OH2 5204   7.024   6.819   1.867
 1754TIP3    H1 5205   7.010   6.913   1.868
 1754TIP3    H2 5206   7.094   6.804   1.931
 1755TIP3   OH2 5207   4.685   2.888   3.594
 1755TIP3    H1 5208   4.730   2.949   3.652
 1755TIP3    H2 5209   4.755   2.840   3.550
 1756TIP3   OH2 5210   4.144   7.415   3.765
 1756TIP3    H1 5211   4.136   7.499   3.809
 1756TIP3    H2 5212   4.064   7.408   3.712
 1757TIP3   OH2 5213   2.849   7.430   0.273
 1757TIP3    H1 5214   2.930   7.463   0.312
 1757TIP3    H2 5215   2.831   7.489   0.201
 1758TIP3   OH2 5216   2.817   5.075   5.621
 1758TIP3    H1 5217   2.813   5.170   5.619
 1758TIP3    H2 5218   2.796   5.048   5.532
 1759TIP3   OH2 5219   7.484   4.557   6.299
 1759TIP3    H1 5220   7.547   4.511   6.355
 1759TIP3    H2 5221   7.518   4.544   6.210
 1760TIP3   OH2 5222   1.119   3.847   0.398
 1760TIP3    H1 5223   1.179   3.891   0.337
 1760TIP3    H2 5224   1.031   3.871   0.366
 1761TIP3   OH2 5225   6.687   7.404   5.253
 1761TIP3    H1 5226   6.759   7.456   5.288
 1761TIP3    H2 5227   6.623   7.468   5.221
 1762TIP3   OH2 5228   1.943   6.468   2.577
 1762TIP3    H1 5229   1.996   6.523   2.519
 1762TIP3    H2 5230   2.006   6.407   2.617
 1763TIP3   OH2 5231   5.327   5.984   1.926
 1763TIP3    H1 5232   5.280   6.065   1.946
 1763TIP3    H2 5233   5.419   6.004   1.942
 1764TIP3   OH2 5234   3.506   7.228   5.585
 1764TIP3    H1 5235   3.560   7.284   5.640
 1764TIP3    H2 5236   3.428   7.281   5.565
 1765TIP3   OH2 5237   5.041   4.059   4.395
 1765TIP3    H1 5238   4.966   4.091   4.345
 1765TIP3    H2 5239   5.117   4.098   4.351
 1766TIP3   OH2 5240   6.452   7.697   2.305
 1766TIP3    H1 5241   6.357   7.694   2.312
 1766TIP3    H2 5242   6.469   7.743   2.223
 1767TIP3   OH2 5243   4.570   3.131   5.046
 1767TIP3    H1 5244   4.613   3.195   5.103
 1767TIP3    H2 5245   4.639   3.069   5.023
 1768TIP3   OH2 5246   8.208   5.818   2.017
 1768TIP3    H1 5247   8.150   5.799   2.090
 1768TIP3    H2 5248   8.288   5.850   2.057
 1769TIP3   OH2 5249   3.376   1.157   2.222
 1769TIP3    H1 5250   3.455   1.112   2.253
 1769TIP3    H2 5251   3.350   1.213   2.295
 1770TIP3   OH2 5252   7.260   4.433   1.874
 1770TIP3    H1 5253   7.351   4.406   1.859
 1770TIP3    H2 5254   7.250   4.514   1.823
 1771TIP3   OH2 5255   1.223   7.784   4.248
 1771TIP3    H1 5256   1.187   7.782   4.160
 1771TIP3    H2 5257   1.245   7.693   4.267
 1772TIP3   OH2 5258   5.786   1.542   4.532
 1772TIP3    H1 5259   5.733   1.622   4.538
 1772TIP3    H2 5260   5.732   1.475   4.575
 1773TIP3   OH2 5261   2.579   4.647   3.449
 1773TIP3    H1 5262   2.617   4.614   3.530
 1773TIP3    H2 5263   2.653   4.657   3.390
 1774TIP3   OH2 5264   5.153   4.900   6.211
 1774TIP3    H1 5265   5.093   4.827   6.200
 1774TIP3    H2 5266   5.123   4.945   6.289
 1775TIP3   OH2 5267   4.733   0.057   0.552
 1775TIP3    H1 5268   4.817   0.091   0.583
 1775TIP3    H2 5269   4.740  -0.038   0.566
 1776TIP3   OH2 5270   1.412   4.840   5.502
 1776TIP3    H1 5271   1.450   4.919   5.463
 1776TIP3    H2 5272   1.332   4.824   5.451
 1777TIP3   OH2 5273   0.393   0.263   5.800
 1777TIP3    H1 5274   0.454   0.332   5.826
 1777TIP3    H2 5275   0.384   0.209   5.879
 1778TIP3   OH2 5276   1.819   2.345   5.317
 1778TIP3    H1 5277   1.760   2.420   5.323
 1778TIP3    H2 5278   1.789   2.298   5.238
 1779TIP3   OH2 5279   1.963   3.900   1.305
 1779TIP3    H1 5280   2.039   3.856   1.268
 1779TIP3    H2 5281   1.998   3.980   1.345
 1780TIP3   OH2 5282   3.948   3.054   3.735
 1780TIP3    H1 5283   3.907   3.113   3.672
 1780TIP3    H2 5284   3.897   3.065   3.815
 1781TIP3   OH2 5285   1.460   5.577   4.891
 1781TIP3    H1 5286   1.471   5.484   4.873
 1781TIP3    H2 5287   1.386   5.581   4.952
 1782TIP3   OH2 5288   5.529   0.168   6.137
 1782TIP3    H1 5289   5.575   0.226   6.198
 1782TIP3    H2 5290   5.592   0.152   6.067
 1783TIP3   OH2 5291   6.026   1.960   0.080
 1783TIP3    H1 5292   6.078   1.900   0.134
 1783TIP3    H2 5293   5.977   2.013   0.144
 1784TIP3   OH2 5294   2.815   6.180   4.340
 1784TIP3    H1 5295   2.777   6.268   4.343
 1784TIP3    H2 5296   2.775   6.140   4.263
 1785TIP3   OH2 5297   0.899   7.042   0.400
 1785TIP3    H1 5298   0.973   6.994   0.363
 1785TIP3    H2 5299   0.879   6.997   0.481
 1786TIP3   OH2 5300   5.823   2.957   5.282
 1786TIP3    H1 5301   5.890   2.889   5.288
 1786TIP3    H2 5302   5.871   3.039   5.289
 1787TIP3   OH2 5303   6.245   2.128   6.405
 1787TIP3    H1 5304   6.173   2.164   6.352
 1787TIP3    H2 5305   6.222   2.036   6.417
 1788TIP3   OH2 5306   1.431   2.888   3.674
 1788TIP3    H1 5307   1.368   2.826   3.637
 1788TIP3    H2 5308   1.379   2.966   3.694
 1789TIP3   OH2 5309   4.420   5.596   4.754
 1789TIP3    H1 5310   4.494   5.646   4.720
 1789TIP3    H2 5311   4.345   5.655   4.745
 1790TIP3   OH2 5312   3.591   3.088   1.010
 1790TIP3    H1 5313   3.558   2.999   0.998
 1790TIP3    H2 5314   3.520   3.134   1.053
 1791TIP3   OH2 5315   1.260   4.247   3.692
 1791TIP3    H1 5316   1.324   4.316   3.710
 1791TIP3    H2 5317   1.216   4.275   3.612
 1792TIP3   OH2 5318   8.166   4.293   0.754
 1792TIP3    H1 5319   8.109   4.217   0.745
 1792TIP3    H2 5320   8.217   4.276   0.833
 1793TIP3   OH2 5321   1.471   3.723   1.241
 1793TIP3    H1 5322   1.412   3.798   1.233
 1793TIP3    H2 5323   1.505   3.729   1.330
 1794TIP3   OH2 5324   8.253   2.591   5.956
 1794TIP3    H1 5325   8.177   2.625   5.908
 1794TIP3    H2 5326   8.258   2.645   6.035
 1795TIP3   OH2 5327   7.610   3.138   3.593
 1795TIP3    H1 5328   7.648   3.058   3.557
 1795TIP3    H2 5329   7.684   3.200   3.597
 1796TIP3   OH2 5330   0.482   7.619   3.845
 1796TIP3    H1 5331   0.495   7.689   3.782
 1796TIP3    H2 5332   0.544   7.551   3.818
 1797TIP3   OH2 5333   1.078   1.435   3.255
 1797TIP3    H1 5334   1.077   1.377   3.331
 1797TIP3    H2 5335   1.056   1.521   3.290
 1798TIP3   OH2 5336   5.564   3.481   0.655
 1798TIP3    H1 5337   5.584   3.561   0.608
 1798TIP3    H2 5338   5.639   3.424   0.639
 1799TIP3   OH2 5339   3.346   2.107   2.829
 1799TIP3    H1 5340   3.275   2.043   2.826
 1799TIP3    H2 5341   3.426   2.055   2.830
 1800TIP3   OH2 5342   3.731   1.060   0.803
 1800TIP3    H1 5343   3.702   1.025   0.887
 1800TIP3    H2 5344   3.823   1.080   0.816
 1801TIP3   OH2 5345   5.228   2.902   2.398
 1801TIP3    H1 5346   5.209   2.820   2.444
 1801TIP3    H2 5347   5.319   2.893   2.370
 1802TIP3   OH2 5348   5.797   1.091   0.795
 1802TIP3    H1 5349   5.879   1.093   0.845
 1802TIP3    H2 5350   5.774   0.998   0.790
 1803TIP3   OH2 5351   6.794   3.388   0.214
 1803TIP3    H1 5352   6.847   3.411   0.290
 1803TIP3    H2 5353   6.765   3.472   0.178
 1804TIP3   OH2 5354   0.861   3.663   2.980
 1804TIP3    H1 5355   0.768   3.665   3.003
 1804TIP3    H2 5356   0.874   3.576   2.942
 1805TIP3   OH2 5357   3.066   2.066   2.162
 1805TIP3    H1 5358   3.139   2.008   2.139
 1805TIP3    H2 5359   3.081   2.087   2.254
 1806TIP3   OH2 5360   0.622   6.337   0.814
 1806TIP3    H1 5361   0.639   6.343   0.908
 1806TIP3    H2 5362   0.659   6.253   0.788
 1807TIP3   OH2 5363   0.975   6.926   6.114
 1807TIP3    H1 5364   0.991   6.926   6.209
 1807TIP3    H2 5365   1.059   6.897   6.076
 1808TIP3   OH2 5366   3.080   4.362   0.601
 1808TIP3    H1 5367   3.158   4.325   0.558
 1808TIP3    H2 5368   3.078   4.321   0.687
 1809TIP3   OH2 5369   7.792   6.453   3.148
 1809TIP3    H1 5370   7.728   6.433   3.080
 1809TIP3    H2 5371   7.869   6.401   3.124
 1810TIP3   OH2 5372   6.060   0.329   3.344
 1810TIP3    H1 5373   6.100   0.410   3.372
 1810TIP3    H2 5374   6.123   0.261   3.368
 1811TIP3   OH2 5375   3.261   0.993   2.438
 1811TIP3    H1 5376   3.278   1.057   2.370
 1811TIP3    H2 5377   3.247   0.911   2.392
 1812TIP3   OH2 5378   2.639   3.799   1.328
 1812TIP3    H1 5379   2.550   3.778   1.357
 1812TIP3    H2 5380   2.694   3.733   1.370
 1813TIP3   OH2 5381   0.342   4.196   2.099
 1813TIP3    H1 5382   0.267   4.254   2.115
 1813TIP3    H2 5383   0.413   4.233   2.151
 1814TIP3   OH2 5384   4.513   5.316   3.174
 1814TIP3    H1 5385   4.592   5.325   3.120
 1814TIP3    H2 5386   4.519   5.385   3.239
 1815TIP3   OH2 5387   8.115   0.005   4.273
 1815TIP3    H1 5388   8.079   0.077   4.325
 1815TIP3    H2 5389   8.076   0.017   4.186
 1816TIP3   OH2 5390   0.207   2.893   3.846
 1816TIP3    H1 5391   0.246   2.942   3.774
 1816TIP3    H2 5392   0.192   2.805   3.810
 1817TIP3   OH2 5393   2.231   1.686   3.043
 1817TIP3    H1 5394   2.226   1.709   3.136
 1817TIP3    H2 5395   2.165   1.618   3.032
 1818TIP3   OH2 5396   0.608   6.158   2.243
 1818TIP3    H1 5397   0.700   6.135   2.233
 1818TIP3    H2 5398   0.600   6.187   2.334
 1819TIP3   OH2 5399   1.067   5.851   5.432
 1819TIP3    H1 5400   0.976   5.836   5.405
 1819TIP3    H2 5401   1.061   5.893   5.517
 1820TIP3   OH2 5402   5.707   0.285   4.275
 1820TIP3    H1 5403   5.744   0.324   4.354
 1820TIP3    H2 5404   5.649   0.216   4.307
 1821TIP3   OH2 5405   1.701   2.473   4.105
 1821TIP3    H1 5406   1.710   2.567   4.091
 1821TIP3    H2 5407   1.787   2.445   4.135
 1822TIP3   OH2 5408   4.469   2.709   6.374
 1822TIP3    H1 5409   4.519   2.688   6.452
 1822TIP3    H2 5410   4.418   2.787   6.398
 1823TIP3   OH2 5411   7.637   7.415   3.050
 1823TIP3    H1 5412   7.644   7.480   2.980
 1823TIP3    H2 5413   7.589   7.460   3.120
 1824TIP3   OH2 5414   2.924   5.548   1.202
 1824TIP3    H1 5415   3.011   5.583   1.216
 1824TIP3    H2 5416   2.901   5.576   1.113
 1825TIP3   OH2 5417   0.711   7.586   4.941
 1825TIP3    H1 5418   0.777   7.517   4.930
 1825TIP3    H2 5419   0.721   7.615   5.032
 1826TIP3   OH2 5420   0.630   6.250   2.491
 1826TIP3    H1 5421   0.601   6.324   2.545
 1826TIP3    H2 5422   0.726   6.256   2.492
 1827TIP3   OH2 5423   4.836   6.764   5.373
 1827TIP3    H1 5424   4.873   6.685   5.412
 1827TIP3    H2 5425   4.870   6.766   5.284
 1828TIP3   OH2 5426   5.892   6.590   3.378
 1828TIP3    H1 5427   5.880   6.617   3.469
 1828TIP3    H2 5428   5.875   6.496   3.377
 1829TIP3   OH2 5429   6.975   7.603   5.766
 1829TIP3    H1 5430   6.966   7.662   5.692
 1829TIP3    H2 5431   6.909   7.632   5.829
 1830TIP3   OH2 5432   1.300   4.443   0.187
 1830TIP3    H1 5433   1.348   4.499   0.248
 1830TIP3    H2 5434   1.334   4.466   0.101
 1831TIP3   OH2 5435   4.271   7.782   4.170
 1831TIP3    H1 5436   4.363   7.758   4.167
 1831TIP3    H2 5437   4.235   7.729   4.242
 1832TIP3   OH2 5438   7.337   0.662   1.152
 1832TIP3    H1 5439   7.247   0.635   1.137
 1832TIP3    H2 5440   7.384   0.635   1.073
 1833TIP3   OH2 5441   6.172   3.955   0.275
 1833TIP3    H1 5442   6.130   3.883   0.227
 1833TIP3    H2 5443   6.204   4.014   0.207
 1834TIP3   OH2 5444   2.617   5.634   0.640
 1834TIP3    H1 5445   2.565   5.688   0.701
 1834TIP3    H2 5446   2.665   5.574   0.697
 1835TIP3   OH2 5447   3.295   2.683   1.975
 1835TIP3    H1 5448   3.284   2.757   1.915
 1835TIP3    H2 5449   3.365   2.712   2.035
 1836TIP3   OH2 5450   2.108   7.645   3.253
 1836TIP3    H1 5451   2.201   7.631   3.239
 1836TIP3    H2 5452   2.065   7.591   3.186
 1837TIP3   OH2 5453   3.408   1.768   1.027
 1837TIP3    H1 5454   3.410   1.843   1.087
 1837TIP3    H2 5455   3.464   1.703   1.069
 1838TIP3   OH2 5456   6.478   1.015   2.018
 1838TIP3    H1 5457   6.527   0.951   2.070
 1838TIP3    H2 5458   6.542   1.081   1.993
 1839TIP3   OH2 5459   2.377   0.993   6.585
 1839TIP3    H1 5460   2.395   1.050   6.660
 1839TIP3    H2 5461   2.333   1.050   6.521
 1840TIP3   OH2 5462   5.162   0.895   3.758
 1840TIP3    H1 5463   5.231   0.830   3.748
 1840TIP3    H2 5464   5.165   0.918   3.851
 1841TIP3   OH2 5465   7.176   2.602   5.412
 1841TIP3    H1 5466   7.250   2.612   5.353
 1841TIP3    H2 5467   7.131   2.523   5.382
 1842TIP3   OH2 5468   5.058   2.921   0.030
 1842TIP3    H1 5469   4.970   2.895   0.001
 1842TIP3    H2 5470   5.069   3.010  -0.003
 1843TIP3   OH2 5471   6.694   0.853   4.732
 1843TIP3    H1 5472   6.749   0.804   4.793
 1843TIP3    H2 5473   6.744   0.933   4.713
 1844TIP3   OH2 5474   1.577   5.800   1.532
 1844TIP3    H1 5475   1.575   5.705   1.543
 1844TIP3    H2 5476   1.504   5.832   1.585
 1845TIP3   OH2 5477   5.005   7.026   0.679
 1845TIP3    H1 5478   4.939   6.963   0.709
 1845TIP3    H2 5479   4.959   7.110   0.680
 1846TIP3   OH2 5480   7.492   2.917   4.587
 1846TIP3    H1 5481   7.443   2.926   4.668
 1846TIP3    H2 5482   7.434   2.952   4.519
 1847TIP3   OH2 5483   0.348   1.336   1.529
 1847TIP3    H1 5484   0.418   1.375   1.581
 1847TIP3    H2 5485   0.276   1.324   1.591
 1848TIP3   OH2 5486   1.669   4.515   2.375
 1848TIP3    H1 5487   1.629   4.561   2.302
 1848TIP3    H2 5488   1.662   4.576   2.449
 1849TIP3   OH2 5489   2.800   3.123   4.734
 1849TIP3    H1 5490   2.849   3.078   4.802
 1849TIP3    H2 5491   2.770   3.204   4.774
 1850TIP3   OH2 5492   4.165   6.244   1.725
 1850TIP3    H1 5493   4.108   6.291   1.785
 1850TIP3    H2 5494   4.120   6.162   1.707
 1851TIP3   OH2 5495   2.870   0.102   3.471
 1851TIP3    H1 5496   2.849   0.143   3.556
 1851TIP3    H2 5497   2.959   0.133   3.452
 1852TIP3   OH2 5498   1.975   3.655   2.742
 1852TIP3    H1 5499   2.012   3.597   2.676
 1852TIP3    H2 5500   1.997   3.614   2.826
 1853TIP3   OH2 5501   7.131   0.437   4.066
 1853TIP3    H1 5502   7.175   0.474   3.989
 1853TIP3    H2 5503   7.041   0.468   4.059
 1854TIP3   OH2 5504   0.733   0.250   2.116
 1854TIP3    H1 5505   0.696   0.188   2.179
 1854TIP3    H2 5506   0.686   0.332   2.131
 1855TIP3   OH2 5507   1.351   7.468   1.894
 1855TIP3    H1 5508   1.296   7.428   1.827
 1855TIP3    H2 5509   1.304   7.548   1.920
 1856TIP3   OH2 5510   2.628   1.198   3.728
 1856TIP3    H1 5511   2.708   1.147   3.742
 1856TIP3    H2 5512   2.651   1.262   3.660
 1857TIP3   OH2 5513   3.595   5.022   0.075
 1857TIP3    H1 5514   3.507   4.987   0.086
 1857TIP3    H2 5515   3.647   4.946   0.049
 1858TIP3   OH2 5516   4.983   7.509   6.230
 1858TIP3    H1 5517   5.043   7.461   6.287
 1858TIP3    H2 5518   4.967   7.450   6.157
 1859TIP3   OH2 5519   8.188   3.613   1.392
 1859TIP3    H1 5520   8.238   3.564   1.456
 1859TIP3    H2 5521   8.190   3.704   1.424
 1860TIP3   OH2 5522   0.299   0.071   1.510
 1860TIP3    H1 5523   0.262   0.074   1.422
 1860TIP3    H2 5524   0.330  -0.020   1.520
 1861TIP3   OH2 5525   7.154   3.812   2.956
 1861TIP3    H1 5526   7.213   3.745   2.921
 1861TIP3    H2 5527   7.189   3.894   2.924
 1862TIP3   OH2 5528   6.096   3.330   0.692
 1862TIP3    H1 5529   6.163   3.291   0.637
 1862TIP3    H2 5530   6.055   3.256   0.737
 1863TIP3   OH2 5531   0.389   4.753   3.413
 1863TIP3    H1 5532   0.416   4.842   3.391
 1863TIP3    H2 5533   0.338   4.763   3.494
 1864TIP3   OH2 5534   3.897   4.836   2.212
 1864TIP3    H1 5535   3.969   4.816   2.272
 1864TIP3    H2 5536   3.857   4.916   2.246
 1865TIP3   OH2 5537   6.291   5.231   1.532
 1865TIP3    H1 5538   6.354   5.293   1.569
 1865TIP3    H2 5539   6.289   5.159   1.595
 1866TIP3   OH2 5540   1.437   0.848   5.317
 1866TIP3    H1 5541   1.425   0.762   5.357
 1866TIP3    H2 5542   1.463   0.829   5.227
 1867TIP3   OH2 5543   1.851   2.928   1.852
 1867TIP3    H1 5544   1.878   2.994   1.788
 1867TIP3    H2 5545   1.796   2.868   1.802
 1868TIP3   OH2 5546   3.998   7.750   0.411
 1868TIP3    H1 5547   4.086   7.765   0.447
 1868TIP3    H2 5548   3.954   7.696   0.476
 1869TIP3   OH2 5549   0.185   4.008   0.852
 1869TIP3    H1 5550   0.090   4.010   0.845
 1869TIP3    H2 5551   0.203   4.009   0.946
 1870TIP3   OH2 5552   6.560   0.882   0.394
 1870TIP3    H1 5553   6.567   0.934   0.314
 1870TIP3    H2 5554   6.503   0.934   0.451
 1871TIP3   OH2 5555   0.559   4.114   2.355
 1871TIP3    H1 5556   0.593   4.110   2.266
 1871TIP3    H2 5557   0.519   4.201   2.363
 1872TIP3   OH2 5558   4.657   4.351   2.059
 1872TIP3    H1 5559   4.571   4.370   2.021
 1872TIP3    H2 5560   4.637   4.312   2.144
 1873TIP3   OH2 5561   2.122   1.607   4.250
 1873TIP3    H1 5562   2.093   1.525   4.290
 1873TIP3    H2 5563   2.057   1.671   4.277
 1874TIP3   OH2 5564   4.620   4.332   5.805
 1874TIP3    H1 5565   4.701   4.345   5.754
 1874TIP3    H2 5566   4.574   4.262   5.759
 1875TIP3   OH2 5567   6.495   4.597   5.567
 1875TIP3    H1 5568   6.556   4.634   5.503
 1875TIP3    H2 5569   6.447   4.673   5.601
 1876TIP3   OH2 5570   5.835   5.123   2.225
 1876TIP3    H1 5571   5.789   5.173   2.293
 1876TIP3    H2 5572   5.912   5.175   2.206
 1877TIP3   OH2 5573   5.868   5.612   1.057
 1877TIP3    H1 5574   5.941   5.649   1.107
 1877TIP3    H2 5575   5.840   5.683   0.999
 1878TIP3   OH2 5576   0.255   6.695   4.442
 1878TIP3    H1 5577   0.276   6.774   4.492
 1878TIP3    H2 5578   0.337   6.672   4.398
 1879TIP3   OH2 5579   2.799   6.718   0.570
 1879TIP3    H1 5580   2.800   6.813   0.557
 1879TIP3    H2 5581   2.782   6.707   0.664
 1880TIP3   OH2 5582   1.504   2.130   0.031
 1880TIP3    H1 5583   1.546   2.212   0.055
 1880TIP3    H2 5584   1.410   2.146   0.043
 1881TIP3   OH2 5585   7.989   1.963   0.774
 1881TIP3    H1 5586   8.079   1.997   0.769
 1881TIP3    H2 5587   7.963   1.977   0.865
 1882TIP3   OH2 5588   0.714   3.960   3.551
 1882TIP3    H1 5589   0.619   3.955   3.550
 1882TIP3    H2 5590   0.741   3.908   3.626
 1883TIP3   OH2 5591   7.780   3.896   2.200
 1883TIP3    H1 5592   7.780   3.808   2.239
 1883TIP3    H2 5593   7.737   3.885   2.115
 1884TIP3   OH2 5594   7.295   5.426   1.028
 1884TIP3    H1 5595   7.233   5.498   1.033
 1884TIP3    H2 5596   7.370   5.462   0.980
 1885TIP3   OH2 5597   2.819   3.522   5.418
 1885TIP3    H1 5598   2.778   3.467   5.484
 1885TIP3    H2 5599   2.809   3.611   5.450
 1886TIP3   OH2 5600   3.170   2.168   1.492
 1886TIP3    H1 5601   3.116   2.095   1.523
 1886TIP3    H2 5602   3.120   2.205   1.419
 1887TIP3   OH2 5603   0.539   3.432   3.933
 1887TIP3    H1 5604   0.587   3.493   3.989
 1887TIP3    H2 5605   0.588   3.350   3.937
 1888TIP3   OH2 5606   6.382   3.462   5.894
 1888TIP3    H1 5607   6.380   3.411   5.975
 1888TIP3    H2 5608   6.409   3.399   5.827
 1889TIP3   OH2 5609   7.252   4.004   4.172
 1889TIP3    H1 5610   7.331   3.953   4.188
 1889TIP3    H2 5611   7.282   4.079   4.120
 1890TIP3   OH2 5612   4.461   4.031   5.995
 1890TIP3    H1 5613   4.476   3.937   5.991
 1890TIP3    H2 5614   4.460   4.059   5.904
 1891TIP3   OH2 5615   0.447   7.051   2.563
 1891TIP3    H1 5616   0.426   7.140   2.535
 1891TIP3    H2 5617   0.540   7.042   2.545
 1892TIP3   OH2 5618   7.629   0.203   1.049
 1892TIP3    H1 5619   7.690   0.139   1.011
 1892TIP3    H2 5620   7.684   0.259   1.103
 1893TIP3   OH2 5621   4.690   7.308   5.331
 1893TIP3    H1 5622   4.617   7.318   5.270
 1893TIP3    H2 5623   4.697   7.214   5.345
 1894TIP3   OH2 5624   2.627   2.047   2.147
 1894TIP3    H1 5625   2.678   2.126   2.166
 1894TIP3    H2 5626   2.536   2.074   2.160
 1895TIP3   OH2 5627   1.693   1.730   5.413
 1895TIP3    H1 5628   1.635   1.772   5.476
 1895TIP3    H2 5629   1.642   1.723   5.333
 1896TIP3   OH2 5630   6.960   7.149   2.709
 1896TIP3    H1 5631   7.040   7.143   2.761
 1896TIP3    H2 5632   6.967   7.234   2.665
 1897TIP3   OH2 5633   3.385   4.397   4.180
 1897TIP3    H1 5634   3.343   4.314   4.203
 1897TIP3    H2 5635   3.404   4.388   4.086
 1898TIP3   OH2 5636   6.999   0.435   0.074
 1898TIP3    H1 5637   6.915   0.434   0.028
 1898TIP3    H2 5638   7.059   0.392   0.014
 1899TIP3   OH2 5639   4.053   4.834   1.646
 1899TIP3    H1 5640   4.055   4.831   1.742
 1899TIP3    H2 5641   4.034   4.744   1.620
 1900TIP3   OH2 5642   4.549   6.442   5.589
 1900TIP3    H1 5643   4.579   6.533   5.594
 1900TIP3    H2 5644   4.606   6.394   5.649
 1901TIP3   OH2 5645   1.145   0.969   4.924
 1901TIP3    H1 5646   1.164   0.880   4.896
 1901TIP3    H2 5647   1.223   1.019   4.902
 1902TIP3   OH2 5648   2.675   6.308   3.538
 1902TIP3    H1 5649   2.627   6.262   3.606
 1902TIP3    H2 5650   2.657   6.259   3.458
 1903TIP3   OH2 5651   2.026   5.251   0.886
 1903TIP3    H1 5652   2.057   5.266   0.797
 1903TIP3    H2 5653   2.064   5.323   0.937
 1904TIP3   OH2 5654   6.266   4.657   5.352
 1904TIP3    H1 5655   6.263   4.658   5.256
 1904TIP3    H2 5656   6.357   4.636   5.373
 1905TIP3   OH2 5657   2.269   5.986   3.409
 1905TIP3    H1 5658   2.294   5.953   3.495
 1905TIP3    H2 5659   2.242   6.076   3.424
 1906TIP3   OH2 5660   6.848   6.815   0.727
 1906TIP3    H1 5661   6.870   6.895   0.682
 1906TIP3    H2 5662   6.920   6.800   0.788
 1907TIP3   OH2 5663   6.924   4.528   3.242
 1907TIP3    H1 5664   6.894   4.548   3.331
 1907TIP3    H2 5665   6.888   4.442   3.223
 1908TIP3   OH2 5666   6.484   6.776   2.803
 1908TIP3    H1 5667   6.573   6.768   2.838
 1908TIP3    H2 5668   6.490   6.742   2.714
 1909TIP3   OH2 5669   1.071   1.027   1.654
 1909TIP3    H1 5670   1.025   1.105   1.686
 1909TIP3    H2 5671   1.132   1.060   1.587
 1910TIP3   OH2 5672   7.521   6.064   0.880
 1910TIP3    H1 5673   7.566   6.126   0.823
 1910TIP3    H2 5674   7.438   6.047   0.837
 1911TIP3   OH2 5675   6.335   1.836   5.169
 1911TIP3    H1 5676   6.324   1.847   5.075
 1911TIP3    H2 5677   6.414   1.885   5.190
 1912TIP3   OH2 5678   1.184   4.773   2.713
 1912TIP3    H1 5679   1.232   4.708   2.663
 1912TIP3    H2 5680   1.196   4.746   2.804
 1913TIP3   OH2 5681   2.368   5.282   3.884
 1913TIP3    H1 5682   2.320   5.227   3.945
 1913TIP3    H2 5683   2.347   5.247   3.797
 1914TIP3   OH2 5684   2.194   0.448   0.107
 1914TIP3    H1 5685   2.139   0.424   0.032
 1914TIP3    H2 5686   2.231   0.365   0.137
 1915TIP3   OH2 5687   7.810   4.102   3.935
 1915TIP3    H1 5688   7.758   4.180   3.952
 1915TIP3    H2 5689   7.900   4.134   3.928
 1916TIP3   OH2 5690   5.895   1.166   0.388
 1916TIP3    H1 5691   5.922   1.254   0.365
 1916TIP3    H2 5692   5.829   1.178   0.457
 1917TIP3   OH2 5693   0.587   7.516   5.939
 1917TIP3    H1 5694   0.539   7.433   5.946
 1917TIP3    H2 5695   0.538   7.578   5.993
 1918TIP3   OH2 5696   3.698   0.933   5.280
 1918TIP3    H1 5697   3.726   0.960   5.367
 1918TIP3    H2 5698   3.756   0.980   5.220
 1919TIP3   OH2 5699   5.119   2.047   6.677
 1919TIP3    H1 5700   5.126   2.104   6.754
 1919TIP3    H2 5701   5.067   2.097   6.615
 1920TIP3   OH2 5702   3.026   2.098   4.262
 1920TIP3    H1 5703   3.016   2.193   4.255
 1920TIP3    H2 5704   2.974   2.074   4.339
 1921TIP3   OH2 5705   6.099   1.225   6.613
 1921TIP3    H1 5706   6.143   1.267   6.539
 1921TIP3    H2 5707   6.134   1.269   6.690
 1922TIP3   OH2 5708   7.316   7.413   0.891
 1922TIP3    H1 5709   7.258   7.383   0.821
 1922TIP3    H2 5710   7.268   7.393   0.971
 1923TIP3   OH2 5711   7.373   5.255   4.748
 1923TIP3    H1 5712   7.340   5.165   4.758
 1923TIP3    H2 5713   7.359   5.295   4.834
 1924TIP3   OH2 5714   7.755   5.218  -0.010
 1924TIP3    H1 5715   7.709   5.138   0.016
 1924TIP3    H2 5716   7.847   5.198   0.004
 1925TIP3   OH2 5717   1.473   3.475   6.362
 1925TIP3    H1 5718   1.516   3.516   6.286
 1925TIP3    H2 5719   1.428   3.398   6.325
 1926TIP3   OH2 5720   1.529   1.997   6.402
 1926TIP3    H1 5721   1.467   1.975   6.472
 1926TIP3    H2 5722   1.608   2.025   6.449
 1927TIP3   OH2 5723   2.765   4.221   6.361
 1927TIP3    H1 5724   2.770   4.293   6.423
 1927TIP3    H2 5725   2.708   4.253   6.291
 1928TIP3   OH2 5726   6.116   1.128   5.195
 1928TIP3    H1 5727   6.092   1.188   5.265
 1928TIP3    H2 5728   6.183   1.072   5.232
 1929TIP3   OH2 5729   2.641   6.238   1.250
 1929TIP3    H1 5730   2.673   6.306   1.310
 1929TIP3    H2 5731   2.689   6.255   1.168
 1930TIP3   OH2 5732   0.000   5.444   6.592
 1930TIP3    H1 5733   0.084   5.399   6.594
 1930TIP3    H2 5734   0.006   5.511   6.660
 1931TIP3   OH2 5735   1.336   7.825   0.805
 1931TIP3    H1 5736   1.382   7.787   0.730
 1931TIP3    H2 5737   1.264   7.763   0.822
 1932TIP3   OH2 5738   2.748   3.289   2.330
 1932TIP3    H1 5739   2.712   3.200   2.327
 1932TIP3    H2 5740   2.699   3.332   2.399
 1933TIP3   OH2 5741   5.684   1.004   1.869
 1933TIP3    H1 5742   5.662   1.097   1.875
 1933TIP3    H2 5743   5.741   0.987   1.943
 1934TIP3   OH2 5744   7.551   5.852   1.418
 1934TIP3    H1 5745   7.457   5.856   1.439
 1934TIP3    H2 5746   7.557   5.884   1.328
 1935TIP3   OH2 5747   2.206   5.151   4.061
 1935TIP3    H1 5748   2.161   5.105   4.132
 1935TIP3    H2 5749   2.138   5.168   3.996
 1936TIP3   OH2 5750   5.359   7.054   6.646
 1936TIP3    H1 5751   5.309   7.032   6.567
 1936TIP3    H2 5752   5.329   6.990   6.711
 1937TIP3   OH2 5753   7.218   6.312   2.036
 1937TIP3    H1 5754   7.130   6.321   2.072
 1937TIP3    H2 5755   7.276   6.320   2.112
 1938TIP3   OH2 5756   6.279   4.580   0.723
 1938TIP3    H1 5757   6.195   4.617   0.694
 1938TIP3    H2 5758   6.291   4.502   0.669
 1939TIP3   OH2 5759   4.314   0.542   6.094
 1939TIP3    H1 5760   4.385   0.479   6.095
 1939TIP3    H2 5761   4.357   0.628   6.092
 1940TIP3   OH2 5762   7.204   3.921   3.855
 1940TIP3    H1 5763   7.218   3.831   3.883
 1940TIP3    H2 5764   7.293   3.955   3.839
 1941TIP3   OH2 5765   4.724   2.215   2.253
 1941TIP3    H1 5766   4.733   2.160   2.175
 1941TIP3    H2 5767   4.654   2.277   2.232
 1942TIP3   OH2 5768   2.762   5.922   2.552
 1942TIP3    H1 5769   2.691   5.894   2.495
 1942TIP3    H2 5770   2.830   5.856   2.540
 1943TIP3   OH2 5771   1.809   4.547   6.481
 1943TIP3    H1 5772   1.813   4.453   6.464
 1943TIP3    H2 5773   1.818   4.587   6.395
 1944TIP3   OH2 5774   1.420   1.023   4.904
 1944TIP3    H1 5775   1.409   0.946   4.960
 1944TIP3    H2 5776   1.494   1.070   4.942
 1945TIP3   OH2 5777   5.526   7.194   5.026
 1945TIP3    H1 5778   5.514   7.146   5.108
 1945TIP3    H2 5779   5.585   7.266   5.049
 1946TIP3   OH2 5780   4.220   0.144   6.384
 1946TIP3    H1 5781   4.274   0.223   6.374
 1946TIP3    H2 5782   4.171   0.138   6.303
 1947TIP3   OH2 5783   2.493   2.177   6.226
 1947TIP3    H1 5784   2.465   2.144   6.141
 1947TIP3    H2 5785   2.479   2.104   6.286
 1948TIP3   OH2 5786   6.275   7.426   4.028
 1948TIP3    H1 5787   6.200   7.377   4.060
 1948TIP3    H2 5788   6.321   7.364   3.971
 1949TIP3   OH2 5789   5.666   1.832   1.501
 1949TIP3    H1 5790   5.669   1.833   1.406
 1949TIP3    H2 5791   5.613   1.755   1.523
 1950TIP3   OH2 5792   1.407   5.978   2.104
 1950TIP3    H1 5793   1.502   5.962   2.099
 1950TIP3    H2 5794   1.393   6.058   2.054
 1951TIP3   OH2 5795   5.830   1.647   6.691
 1951TIP3    H1 5796   5.760   1.677   6.748
 1951TIP3    H2 5797   5.835   1.713   6.621
 1952TIP3   OH2 5798   6.128   5.118   5.324
 1952TIP3    H1 5799   6.053   5.149   5.274
 1952TIP3    H2 5800   6.129   5.175   5.402
 1953TIP3   OH2 5801   1.764   1.904   0.525
 1953TIP3    H1 5802   1.750   1.862   0.440
 1953TIP3    H2 5803   1.841   1.959   0.512
 1954TIP3   OH2 5804   1.320   5.019   3.156
 1954TIP3    H1 5805   1.341   5.112   3.145
 1954TIP3    H2 5806   1.236   5.019   3.202
 1955TIP3   OH2 5807   1.573   3.797   4.720
 1955TIP3    H1 5808   1.600   3.719   4.769
 1955TIP3    H2 5809   1.652   3.850   4.715
 1956TIP3   OH2 5810   6.215   1.502   3.595
 1956TIP3    H1 5811   6.176   1.589   3.588
 1956TIP3    H2 5812   6.309   1.517   3.590
 1957TIP3   OH2 5813   7.171   4.158   4.409
 1957TIP3    H1 5814   7.223   4.114   4.476
 1957TIP3    H2 5815   7.083   4.123   4.420
 1958TIP3   OH2 5816   4.104   0.567   3.823
 1958TIP3    H1 5817   4.077   0.649   3.866
 1958TIP3    H2 5818   4.022   0.521   3.805
 1959TIP3   OH2 5819   6.672   5.398   1.602
 1959TIP3    H1 5820   6.664   5.458   1.676
 1959TIP3    H2 5821   6.602   5.424   1.542
 1960TIP3   OH2 5822   5.234   5.990   3.850
 1960TIP3    H1 5823   5.166   6.057   3.852
 1960TIP3    H2 5824   5.256   5.975   3.942
 1961TIP3   OH2 5825   4.504   4.054   0.118
 1961TIP3    H1 5826   4.427   4.030   0.171
 1961TIP3    H2 5827   4.577   4.013   0.164
 1962TIP3   OH2 5828   0.231   1.630   1.619
 1962TIP3    H1 5829   0.317   1.664   1.594
 1962TIP3    H2 5830   0.174   1.655   1.547
 1963TIP3   OH2 5831   0.913   7.029   1.369
 1963TIP3    H1 5832   0.964   6.977   1.306
 1963TIP3    H2 5833   0.901   7.114   1.326
 1964TIP3   OH2 5834   1.731   1.407   4.156
 1964TIP3    H1 5835   1.680   1.344   4.206
 1964TIP3    H2 5836   1.685   1.415   4.073
 1965TIP3   OH2 5837   6.935   3.376   4.372
 1965TIP3    H1 5838   6.845   3.404   4.388
 1965TIP3    H2 5839   6.983   3.406   4.449
 1966TIP3   OH2 5840   5.553   6.580   6.242
 1966TIP3    H1 5841   5.584   6.662   6.280
 1966TIP3    H2 5842   5.493   6.544   6.308
 1967TIP3   OH2 5843   4.179   0.233   0.946
 1967TIP3    H1 5844   4.144   0.144   0.942
 1967TIP3    H2 5845   4.226   0.244   0.863
 1968TIP3   OH2 5846   8.305   1.590   1.890
 1968TIP3    H1 5847   8.235   1.626   1.835
 1968TIP3    H2 5848   8.276   1.604   1.979
 1969TIP3   OH2 5849   3.413   7.638   5.995
 1969TIP3    H1 5850   3.413   7.542   5.995
 1969TIP3    H2 5851   3.339   7.661   5.938
 1970TIP3   OH2 5852   7.513   1.778   5.330
 1970TIP3    H1 5853   7.519   1.851   5.269
 1970TIP3    H2 5854   7.428   1.789   5.372
 1971TIP3   OH2 5855   1.656   1.772   1.085
 1971TIP3    H1 5856   1.562   1.769   1.069
 1971TIP3    H2 5857   1.665   1.772   1.180
 1972TIP3   OH2 5858   0.566   6.943   4.638
 1972TIP3    H1 5859   0.601   7.019   4.590
 1972TIP3    H2 5860   0.604   6.950   4.725
 1973TIP3   OH2 5861   2.317   5.939   3.679
 1973TIP3    H1 5862   2.222   5.943   3.683
 1973TIP3    H2 5863   2.344   5.919   3.768
 1974TIP3   OH2 5864   3.483   3.886   3.655
 1974TIP3    H1 5865   3.451   3.885   3.565
 1974TIP3    H2 5866   3.406   3.908   3.708
 1975TIP3   OH2 5867   4.315   6.626   0.518
 1975TIP3    H1 5868   4.344   6.582   0.598
 1975TIP3    H2 5869   4.388   6.684   0.495
 1976TIP3   OH2 5870   4.704   1.913   4.007
 1976TIP3    H1 5871   4.639   1.926   4.076
 1976TIP3    H2 5872   4.706   1.998   3.961
 1977TIP3   OH2 5873   6.513   5.855   6.014
 1977TIP3    H1 5874   6.421   5.848   6.041
 1977TIP3    H2 5875   6.542   5.939   6.048
 1978TIP3   OH2 5876   3.206   7.157   5.767
 1978TIP3    H1 5877   3.229   7.200   5.684
 1978TIP3    H2 5878   3.111   7.143   5.760
 1979TIP3   OH2 5879   3.185   1.215   2.023
 1979TIP3    H1 5880   3.152   1.271   2.093
 1979TIP3    H2 5881   3.252   1.161   2.065
 1980TIP3   OH2 5882   4.002   0.076   3.418
 1980TIP3    H1 5883   3.949   0.155   3.432
 1980TIP3    H2 5884   4.090   0.110   3.402
 1981TIP3   OH2 5885   7.018   1.388   5.362
 1981TIP3    H1 5886   7.037   1.448   5.434
 1981TIP3    H2 5887   6.925   1.402   5.342
 1982TIP3   OH2 5888   5.768   7.503   2.849
 1982TIP3    H1 5889   5.815   7.538   2.924
 1982TIP3    H2 5890   5.721   7.578   2.812
 1983TIP3   OH2 5891   1.544   6.768   3.880
 1983TIP3    H1 5892   1.475   6.821   3.921
 1983TIP3    H2 5893   1.623   6.822   3.887
 1984TIP3   OH2 5894   5.196   6.387   4.426
 1984TIP3    H1 5895   5.244   6.451   4.477
 1984TIP3    H2 5896   5.263   6.341   4.375
 1985TIP3   OH2 5897   6.213   7.185   4.501
 1985TIP3    H1 5898   6.267   7.229   4.436
 1985TIP3    H2 5899   6.131   7.235   4.502
 1986TIP3   OH2 5900   7.777   4.885   3.186
 1986TIP3    H1 5901   7.725   4.815   3.148
 1986TIP3    H2 5902   7.734   4.907   3.268
 1987TIP3   OH2 5903   0.713   7.207   2.662
 1987TIP3    H1 5904   0.800   7.238   2.686
 1987TIP3    H2 5905   0.674   7.280   2.614
 1988TIP3   OH2 5906   4.517   5.254   1.991
 1988TIP3    H1 5907   4.442   5.198   2.010
 1988TIP3    H2 5908   4.483   5.343   1.999
 1989TIP3   OH2 5909   2.102   4.715   1.263
 1989TIP3    H1 5910   2.040   4.644   1.276
 1989TIP3    H2 5911   2.178   4.674   1.220
 1990TIP3   OH2 5912   0.111   6.199   3.344
 1990TIP3    H1 5913   0.180   6.191   3.411
 1990TIP3    H2 5914   0.037   6.150   3.380
 1991TIP3   OH2 5915   4.953   4.716   6.214
 1991TIP3    H1 5916   4.992   4.629   6.210
 1991TIP3    H2 5917   4.879   4.706   6.274
 1992TIP3   OH2 5918   4.169   4.110   1.172
 1992TIP3    H1 5919   4.132   4.190   1.209
 1992TIP3    H2 5920   4.180   4.051   1.247
 1993TIP3   OH2 5921   6.020   2.123   5.037
 1993TIP3    H1 5922   5.945   2.164   4.996
 1993TIP3    H2 5923   6.022   2.034   5.002
 1994TIP3   OH2 5924   1.177   4.503   0.519
 1994TIP3    H1 5925   1.138   4.589   0.505
 1994TIP3    H2 5926   1.240   4.494   0.447
 1995TIP3   OH2 5927   6.833   3.777   2.259
 1995TIP3    H1 5928   6.850   3.761   2.166
 1995TIP3    H2 5929   6.805   3.868   2.263
 1996TIP3   OH2 5930   7.650   3.426   3.087
 1996TIP3    H1 5931   7.639   3.336   3.119
 1996TIP3    H2 5932   7.604   3.428   3.003
 1997TIP3   OH2 5933   0.859   3.352   3.323
 1997TIP3    H1 5934   0.781   3.297   3.328
 1997TIP3    H2 5935   0.905   3.322   3.244
 1998TIP3   OH2 5936   1.866   5.316   4.735
 1998TIP3    H1 5937   1.781   5.294   4.697
 1998TIP3    H2 5938   1.858   5.408   4.761
 1999TIP3   OH2 5939   4.802   7.110   3.851
 1999TIP3    H1 5940   4.745   7.068   3.916
 1999TIP3    H2 5941   4.764   7.087   3.767
 2000TIP3   OH2 5942   2.888   4.683   4.148
 2000TIP3    H1 5943   2.932   4.630   4.214
 2000TIP3    H2 5944   2.919   4.648   4.065
 2001TIP3   OH2 5945   3.722   0.920   1.531
 2001TIP3    H1 5946   3.749   0.926   1.440
 2001TIP3    H2 5947   3.732   0.828   1.553
 2002TIP3   OH2 5948   5.536   1.005   1.634
 2002TIP3    H1 5949   5.583   0.994   1.716
 2002TIP3    H2 5950   5.505   1.096   1.636
 2003TIP3   OH2 5951   4.667   6.088   2.971
 2003TIP3    H1 5952   4.759   6.088   2.996
 2003TIP3    H2 5953   4.636   6.001   2.993
 2004TIP3   OH2 5954   0.890   3.897   2.249
 2004TIP3    H1 5955   0.958   3.836   2.221
 2004TIP3    H2 5956   0.808   3.858   2.219
 2005TIP3   OH2 5957   5.032   1.570   4.894
 2005TIP3    H1 5958   4.980   1.511   4.948
 2005TIP3    H2 5959   5.056   1.642   4.953
 2006TIP3   OH2 5960   6.853   1.439   6.124
 2006TIP3    H1 5961   6.822   1.350   6.110
 2006TIP3    H2 5962   6.814   1.465   6.207
 2007TIP3   OH2 5963   5.948   1.022   1.533
 2007TIP3    H1 5964   5.934   1.097   1.591
 2007TIP3    H2 5965   5.938   0.945   1.590
 2008TIP3   OH2 5966   5.642   5.945   5.545
 2008TIP3    H1 5967   5.575   5.896   5.593
 2008TIP3    H2 5968   5.679   5.882   5.483
 2009TIP3   OH2 5969   1.870   7.766   1.061
 2009TIP3    H1 5970   1.890   7.672   1.062
 2009TIP3    H2 5971   1.936   7.804   1.005
 2010TIP3   OH2 5972   2.093   0.778   3.989
 2010TIP3    H1 5973   2.025   0.801   3.926
 2010TIP3    H2 5974   2.175   0.796   3.944
 2011TIP3   OH2 5975   3.424   0.591   0.674
 2011TIP3    H1 5976   3.343   0.570   0.628
 2011TIP3    H2 5977   3.434   0.685   0.664
 2012TIP3   OH2 5978   5.515   0.057   5.010
 2012TIP3    H1 5979   5.464  -0.018   5.040
 2012TIP3    H2 5980   5.452   0.110   4.961
 2013TIP3   OH2 5981   7.809   6.248   5.158
 2013TIP3    H1 5982   7.826   6.336   5.123
 2013TIP3    H2 5983   7.762   6.264   5.240
 2014TIP3   OH2 5984   3.389   6.941   1.006
 2014TIP3    H1 5985   3.309   6.890   1.018
 2014TIP3    H2 5986   3.360   7.032   1.010
 2015TIP3   OH2 5987   5.574   2.970   1.069
 2015TIP3    H1 5988   5.538   3.054   1.043
 2015TIP3    H2 5989   5.501   2.909   1.062
 2016TIP3   OH2 5990   0.699   2.815   3.896
 2016TIP3    H1 5991   0.608   2.836   3.916
 2016TIP3    H2 5992   0.750   2.880   3.945
 2017TIP3   OH2 5993   8.103   5.526   6.439
 2017TIP3    H1 5994   8.171   5.472   6.480
 2017TIP3    H2 5995   8.149   5.604   6.409
 2018TIP3   OH2 5996   3.403   7.515   0.506
 2018TIP3    H1 5997   3.363   7.601   0.495
 2018TIP3    H2 5998   3.378   7.488   0.595
 2019TIP3   OH2 5999   6.939   0.263   4.163
 2019TIP3    H1 6000   7.018   0.314   4.145
 2019TIP3    H2 6001   6.972   0.178   4.192
 2020TIP3   OH2 6002   3.642   7.788   0.813
 2020TIP3    H1 6003   3.573   7.795   0.748
 2020TIP3    H2 6004   3.600   7.809   0.896
 2021TIP3   OH2 6005   1.744   0.632   3.928
 2021TIP3    H1 6006   1.663   0.596   3.965
 2021TIP3    H2 6007   1.717   0.714   3.887
 2022TIP3   OH2 6008   2.687   0.924   2.414
 2022TIP3    H1 6009   2.775   0.960   2.408
 2022TIP3    H2 6010   2.630   1.000   2.428
 2023TIP3   OH2 6011   7.657   2.878   6.677
 2023TIP3    H1 6012   7.703   2.806   6.721
 2023TIP3    H2 6013   7.564   2.855   6.684
 2024TIP3   OH2 6014   5.288   4.728   0.507
 2024TIP3    H1 6015   5.226   4.787   0.552
 2024TIP3    H2 6016   5.233   4.657   0.475
 2025TIP3   OH2 6017   8.219   1.263   3.047
 2025TIP3    H1 6018   8.267   1.191   3.006
 2025TIP3    H2 6019   8.136   1.267   2.999
 2026TIP3   OH2 6020   1.236   2.675   2.628
 2026TIP3    H1 6021   1.269   2.712   2.546
 2026TIP3    H2 6022   1.247   2.745   2.692
 2027TIP3   OH2 6023   7.029   7.312   2.465
 2027TIP3    H1 6024   7.117   7.280   2.449
 2027TIP3    H2 6025   7.013   7.377   2.397
 2028TIP3   OH2 6026   1.069   3.679   4.854
 2028TIP3    H1 6027   1.126   3.752   4.828
 2028TIP3    H2 6028   1.121   3.629   4.917
 2029TIP3   OH2 6029   0.319   7.328   3.671
 2029TIP3    H1 6030   0.316   7.233   3.684
 2029TIP3    H2 6031   0.412   7.348   3.665
 2030TIP3   OH2 6032   1.335   0.936   6.618
 2030TIP3    H1 6033   1.311   0.931   6.711
 2030TIP3    H2 6034   1.368   0.849   6.597
 2031TIP3   OH2 6035   1.361   1.591   3.264
 2031TIP3    H1 6036   1.299   1.643   3.315
 2031TIP3    H2 6037   1.338   1.500   3.284
 2032TIP3   OH2 6038   4.561   1.264   3.927
 2032TIP3    H1 6039   4.471   1.246   3.898
 2032TIP3    H2 6040   4.569   1.217   4.010
 2033TIP3   OH2 6041   3.103   4.244   2.353
 2033TIP3    H1 6042   3.037   4.285   2.409
 2033TIP3    H2 6043   3.116   4.307   2.282
 2034TIP3   OH2 6044   1.432   1.903   2.352
 2034TIP3    H1 6045   1.474   1.988   2.363
 2034TIP3    H2 6046   1.501   1.848   2.312
 2035TIP3   OH2 6047   1.839   6.260   4.296
 2035TIP3    H1 6048   1.834   6.174   4.254
 2035TIP3    H2 6049   1.747   6.286   4.307
 2036TIP3   OH2 6050   6.314   3.220   4.114
 2036TIP3    H1 6051   6.367   3.213   4.035
 2036TIP3    H2 6052   6.260   3.141   4.114
 2037TIP3   OH2 6053   5.898   5.534   5.357
 2037TIP3    H1 6054   5.977   5.535   5.303
 2037TIP3    H2 6055   5.874   5.627   5.365
 2038TIP3   OH2 6056   4.402   0.431   0.123
 2038TIP3    H1 6057   4.398   0.498   0.055
 2038TIP3    H2 6058   4.311   0.419   0.149
 2039TIP3   OH2 6059   3.277   1.473   6.370
 2039TIP3    H1 6060   3.309   1.518   6.292
 2039TIP3    H2 6061   3.342   1.492   6.438
 2040TIP3   OH2 6062   2.756   0.122   5.736
 2040TIP3    H1 6063   2.837   0.088   5.773
 2040TIP3    H2 6064   2.723   0.183   5.803
 2041TIP3   OH2 6065   1.198   2.816   3.411
 2041TIP3    H1 6066   1.199   2.877   3.337
 2041TIP3    H2 6067   1.236   2.735   3.374
 2042TIP3   OH2 6068   4.202   6.060   0.560
 2042TIP3    H1 6069   4.171   6.092   0.645
 2042TIP3    H2 6070   4.262   5.989   0.582
 2043TIP3   OH2 6071   3.696   6.839   0.466
 2043TIP3    H1 6072   3.616   6.863   0.420
 2043TIP3    H2 6073   3.676   6.756   0.510
 2044TIP3   OH2 6074   0.388   2.131   6.287
 2044TIP3    H1 6075   0.475   2.169   6.297
 2044TIP3    H2 6076   0.332   2.205   6.265
 2045TIP3   OH2 6077   0.087   3.546   2.403
 2045TIP3    H1 6078   0.045   3.464   2.429
 2045TIP3    H2 6079   0.079   3.548   2.308
 2046TIP3   OH2 6080   0.977   7.374   4.523
 2046TIP3    H1 6081   1.004   7.465   4.516
 2046TIP3    H2 6082   1.047   7.332   4.573
 2047TIP3   OH2 6083   6.941   7.831   0.113
 2047TIP3    H1 6084   6.904   7.743   0.104
 2047TIP3    H2 6085   7.026   7.817   0.156
 2048TIP3   OH2 6086   4.152   5.037   3.072
 2048TIP3    H1 6087   4.094   5.042   2.996
 2048TIP3    H2 6088   4.101   5.076   3.144
 2049TIP3   OH2 6089   0.701   5.964   3.174
 2049TIP3    H1 6090   0.719   5.983   3.267
 2049TIP3    H2 6091   0.660   6.045   3.142
 2050TIP3   OH2 6092   5.711   0.761   0.112
 2050TIP3    H1 6093   5.642   0.821   0.083
 2050TIP3    H2 6094   5.712   0.691   0.047
 2051TIP3   OH2 6095   0.784   0.069   4.399
 2051TIP3    H1 6096   0.719   0.010   4.436
 2051TIP3    H2 6097   0.753   0.088   4.310
 2052TIP3   OH2 6098   1.247   6.584   6.157
 2052TIP3    H1 6099   1.246   6.610   6.065
 2052TIP3    H2 6100   1.278   6.493   6.156
 2053TIP3   OH2 6101   4.740   5.478   0.026
 2053TIP3    H1 6102   4.662   5.471   0.081
 2053TIP3    H2 6103   4.814   5.466   0.086
 2054TIP3   OH2 6104   4.149   4.443   1.938
 2054TIP3    H1 6105   4.109   4.388   1.870
 2054TIP3    H2 6106   4.076   4.466   1.996
 2055TIP3   OH2 6107   3.477   0.200   0.784
 2055TIP3    H1 6108   3.561   0.154   0.792
 2055TIP3    H2 6109   3.424   0.165   0.856
 2056TIP3   OH2 6110   1.958   5.617   6.036
 2056TIP3    H1 6111   2.026   5.657   6.091
 2056TIP3    H2 6112   2.004   5.548   5.989
 2057TIP3   OH2 6113   6.858   3.123   3.891
 2057TIP3    H1 6114   6.885   3.172   3.969
 2057TIP3    H2 6115   6.895   3.172   3.818
 2058TIP3   OH2 6116   3.521   6.583   3.084
 2058TIP3    H1 6117   3.478   6.520   3.026
 2058TIP3    H2 6118   3.595   6.536   3.121
 2059TIP3   OH2 6119   0.623   5.714   4.429
 2059TIP3    H1 6120   0.574   5.651   4.376
 2059TIP3    H2 6121   0.684   5.755   4.368
 2060TIP3   OH2 6122   5.747   2.271   2.428
 2060TIP3    H1 6123   5.786   2.349   2.389
 2060TIP3    H2 6124   5.808   2.200   2.409
 2061TIP3   OH2 6125   1.694   3.213   3.269
 2061TIP3    H1 6126   1.654   3.160   3.338
 2061TIP3    H2 6127   1.649   3.297   3.274
 2062TIP3   OH2 6128   6.606   3.554   0.574
 2062TIP3    H1 6129   6.619   3.460   0.567
 2062TIP3    H2 6130   6.668   3.583   0.640
 2063TIP3   OH2 6131   8.237   0.800   5.719
 2063TIP3    H1 6132   8.148   0.770   5.699
 2063TIP3    H2 6133   8.232   0.833   5.808
 2064TIP3   OH2 6134   6.825   1.824   4.098
 2064TIP3    H1 6135   6.753   1.811   4.161
 2064TIP3    H2 6136   6.869   1.903   4.128
 2065TIP3   OH2 6137   7.686   4.811   4.812
 2065TIP3    H1 6138   7.603   4.801   4.858
 2065TIP3    H2 6139   7.751   4.818   4.882
 2066TIP3   OH2 6140   0.276   0.204   2.557
 2066TIP3    H1 6141   0.184   0.202   2.581
 2066TIP3    H2 6142   0.277   0.186   2.463
 2067TIP3   OH2 6143   7.520   2.828   5.229
 2067TIP3    H1 6144   7.445   2.860   5.279
 2067TIP3    H2 6145   7.561   2.764   5.287
 2068TIP3   OH2 6146   4.141   3.861   0.165
 2068TIP3    H1 6147   4.115   3.827   0.080
 2068TIP3    H2 6148   4.224   3.815   0.184
 2069TIP3   OH2 6149   2.572   5.963   0.494
 2069TIP3    H1 6150   2.591   6.029   0.427
 2069TIP3    H2 6151   2.621   5.886   0.467
 2070TIP3   OH2 6152   1.572   5.852   2.453
 2070TIP3    H1 6153   1.567   5.847   2.549
 2070TIP3    H2 6154   1.634   5.922   2.436
 2071TIP3   OH2 6155   5.062   1.616   0.861
 2071TIP3    H1 6156   5.075   1.696   0.809
 2071TIP3    H2 6157   4.971   1.622   0.890
 2072TIP3   OH2 6158   7.118   6.327   5.305
 2072TIP3    H1 6159   7.079   6.399   5.355
 2072TIP3    H2 6160   7.046   6.291   5.254
 2073TIP3   OH2 6161   3.083   3.750   2.378
 2073TIP3    H1 6162   3.083   3.762   2.283
 2073TIP3    H2 6163   3.173   3.764   2.404
 2074TIP3   OH2 6164   1.321   6.603   6.439
 2074TIP3    H1 6165   1.321   6.601   6.343
 2074TIP3    H2 6166   1.414   6.606   6.462
 2075TIP3   OH2 6167   5.171   2.341   1.994
 2075TIP3    H1 6168   5.215   2.380   2.069
 2075TIP3    H2 6169   5.083   2.380   1.995
 2076TIP3   OH2 6170   1.817   4.121   0.104
 2076TIP3    H1 6171   1.906   4.092   0.126
 2076TIP3    H2 6172   1.820   4.137   0.010
 2077TIP3   OH2 6173   0.753   2.019   4.443
 2077TIP3    H1 6174   0.705   2.016   4.525
 2077TIP3    H2 6175   0.739   1.932   4.404
 2078TIP3   OH2 6176   2.906   2.065   1.396
 2078TIP3    H1 6177   2.871   1.997   1.453
 2078TIP3    H2 6178   2.842   2.136   1.400
 2079TIP3   OH2 6179   7.710   2.149   3.335
 2079TIP3    H1 6180   7.757   2.068   3.314
 2079TIP3    H2 6181   7.737   2.170   3.425
 2080TIP3   OH2 6182   6.989   1.923   4.940
 2080TIP3    H1 6183   6.993   1.830   4.965
 2080TIP3    H2 6184   7.043   1.968   5.005
 2081TIP3   OH2 6185   3.300   4.821   3.419
 2081TIP3    H1 6186   3.286   4.742   3.367
 2081TIP3    H2 6187   3.361   4.874   3.367
 2082TIP3   OH2 6188   2.073   3.994   0.103
 2082TIP3    H1 6189   2.129   4.062   0.068
 2082TIP3    H2 6190   2.060   3.934   0.030
 2083TIP3   OH2 6191   4.295   7.208   2.738
 2083TIP3    H1 6192   4.224   7.267   2.761
 2083TIP3    H2 6193   4.315   7.230   2.647
 2084TIP3   OH2 6194   6.502   4.710   3.217
 2084TIP3    H1 6195   6.519   4.670   3.302
 2084TIP3    H2 6196   6.525   4.642   3.154
 2085TIP3   OH2 6197   7.806   4.113   5.922
 2085TIP3    H1 6198   7.711   4.125   5.931
 2085TIP3    H2 6199   7.840   4.118   6.011
 2086TIP3   OH2 6200   3.700   3.490   5.691
 2086TIP3    H1 6201   3.656   3.529   5.766
 2086TIP3    H2 6202   3.638   3.426   5.656
 2087TIP3   OH2 6203   3.890   7.309   6.579
 2087TIP3    H1 6204   3.868   7.223   6.617
 2087TIP3    H2 6205   3.865   7.372   6.647
 2088TIP3   OH2 6206   8.203   3.281   4.600
 2088TIP3    H1 6207   8.181   3.365   4.640
 2088TIP3    H2 6208   8.122   3.251   4.560
 2089TIP3   OH2 6209   4.102   4.276   5.877
 2089TIP3    H1 6210   4.117   4.190   5.839
 2089TIP3    H2 6211   4.188   4.303   5.910
 2090TIP3   OH2 6212   1.674   2.040   3.407
 2090TIP3    H1 6213   1.602   2.044   3.471
 2090TIP3    H2 6214   1.664   1.954   3.365
 2091TIP3   OH2 6215   1.823   6.468   0.837
 2091TIP3    H1 6216   1.753   6.527   0.808
 2091TIP3    H2 6217   1.829   6.483   0.931
 2092TIP3   OH2 6218   4.450   4.158   1.897
 2092TIP3    H1 6219   4.424   4.195   1.981
 2092TIP3    H2 6220   4.426   4.066   1.903
 2093TIP3   OH2 6221   5.953   4.755   3.695
 2093TIP3    H1 6222   5.870   4.783   3.734
 2093TIP3    H2 6223   6.014   4.826   3.715
 2094TIP3   OH2 6224   0.362   6.007   4.688
 2094TIP3    H1 6225   0.307   6.085   4.699
 2094TIP3    H2 6226   0.450   6.042   4.676
 2095TIP3   OH2 6227   0.055   6.581   1.350
 2095TIP3    H1 6228   0.039   6.574   1.444
 2095TIP3    H2 6229   0.132   6.526   1.334
 2096TIP3   OH2 6230   8.051   1.512   2.748
 2096TIP3    H1 6231   7.961   1.487   2.770
 2096TIP3    H2 6232   8.070   1.585   2.807
 2097TIP3   OH2 6233   3.773   1.345   1.498
 2097TIP3    H1 6234   3.707   1.328   1.565
 2097TIP3    H2 6235   3.840   1.396   1.544
 2098TIP3   OH2 6236   1.069   6.809   5.341
 2098TIP3    H1 6237   1.078   6.889   5.290
 2098TIP3    H2 6238   0.980   6.779   5.324
 2099TIP3   OH2 6239   4.015   1.124   1.091
 2099TIP3    H1 6240   4.040   1.122   0.999
 2099TIP3    H2 6241   3.975   1.038   1.108
 2100TIP3   OH2 6242   5.200   0.399   5.340
 2100TIP3    H1 6243   5.171   0.338   5.272
 2100TIP3    H2 6244   5.152   0.480   5.322
 2101TIP3   OH2 6245   1.447   3.844   5.020
 2101TIP3    H1 6246   1.383   3.851   5.091
 2101TIP3    H2 6247   1.492   3.761   5.036
 2102TIP3   OH2 6248   4.516   3.007   3.985
 2102TIP3    H1 6249   4.510   3.102   3.997
 2102TIP3    H2 6250   4.488   2.992   3.895
 2103TIP3   OH2 6251   3.153   1.731   3.120
 2103TIP3    H1 6252   3.103   1.811   3.103
 2103TIP3    H2 6253   3.118   1.698   3.202
 2104TIP3   OH2 6254   0.883   1.981   5.310
 2104TIP3    H1 6255   0.911   2.073   5.305
 2104TIP3    H2 6256   0.789   1.986   5.327
 2105TIP3   OH2 6257   7.884   3.778   0.852
 2105TIP3    H1 6258   7.934   3.713   0.902
 2105TIP3    H2 6259   7.795   3.744   0.851
 2106TIP3   OH2 6260   7.411   7.118   0.786
 2106TIP3    H1 6261   7.375   7.203   0.763
 2106TIP3    H2 6262   7.409   7.117   0.882
 2107TIP3   OH2 6263   0.186   3.820   3.847
 2107TIP3    H1 6264   0.194   3.912   3.825
 2107TIP3    H2 6265   0.131   3.819   3.925
 2108TIP3   OH2 6266   4.599   2.252   0.609
 2108TIP3    H1 6267   4.601   2.283   0.518
 2108TIP3    H2 6268   4.519   2.200   0.615
 2109TIP3   OH2 6269   4.504   0.543   0.563
 2109TIP3    H1 6270   4.473   0.613   0.506
 2109TIP3    H2 6271   4.538   0.477   0.503
 2110TIP3   OH2 6272   5.516   4.723   3.966
 2110TIP3    H1 6273   5.432   4.705   4.008
 2110TIP3    H2 6274   5.566   4.643   3.979
 2111TIP3   OH2 6275   2.865   5.484   6.118
 2111TIP3    H1 6276   2.868   5.433   6.037
 2111TIP3    H2 6277   2.787   5.453   6.163
 2112TIP3   OH2 6278   1.826   2.343   6.357
 2112TIP3    H1 6279   1.743   2.391   6.356
 2112TIP3    H2 6280   1.839   2.319   6.448
 2113TIP3   OH2 6281   5.637   6.763   1.357
 2113TIP3    H1 6282   5.562   6.744   1.415
 2113TIP3    H2 6283   5.645   6.858   1.359
 2114TIP3   OH2 6284   5.397   6.807   4.160
 2114TIP3    H1 6285   5.459   6.734   4.165
 2114TIP3    H2 6286   5.449   6.880   4.125
 2115TIP3   OH2 6287   6.200   2.261   3.290
 2115TIP3    H1 6288   6.250   2.180   3.284
 2115TIP3    H2 6289   6.128   2.250   3.227
 2116TIP3   OH2 6290   6.649   5.624   1.035
 2116TIP3    H1 6291   6.676   5.702   1.084
 2116TIP3    H2 6292   6.559   5.608   1.063
 2117TIP3   OH2 6293   6.208   7.381   6.669
 2117TIP3    H1 6294   6.300   7.360   6.686
 2117TIP3    H2 6295   6.202   7.388   6.574
 2118TIP3   OH2 6296   3.386   1.751   1.708
 2118TIP3    H1 6297   3.405   1.661   1.681
 2118TIP3    H2 6298   3.308   1.775   1.658
 2119TIP3   OH2 6299   2.930   1.754   5.008
 2119TIP3    H1 6300   2.951   1.785   4.920
 2119TIP3    H2 6301   2.982   1.809   5.066
 2120TIP3   OH2 6302   2.265   3.238   6.631
 2120TIP3    H1 6303   2.279   3.152   6.669
 2120TIP3    H2 6304   2.345   3.287   6.650
 2121TIP3   OH2 6305   7.670   6.161   5.769
 2121TIP3    H1 6306   7.590   6.116   5.741
 2121TIP3    H2 6307   7.641   6.224   5.835
 2122TIP3   OH2 6308   1.125   7.107   2.919
 2122TIP3    H1 6309   1.094   7.017   2.934
 2122TIP3    H2 6310   1.134   7.144   3.007
 2123TIP3   OH2 6311   3.936   2.485   1.280
 2123TIP3    H1 6312   3.983   2.507   1.360
 2123TIP3    H2 6313   3.875   2.416   1.305
 2124TIP3   OH2 6314   6.915   5.316   4.814
 2124TIP3    H1 6315   6.971   5.360   4.878
 2124TIP3    H2 6316   6.840   5.375   4.804
 2125TIP3   OH2 6317   5.691   2.907   2.039
 2125TIP3    H1 6318   5.769   2.962   2.038
 2125TIP3    H2 6319   5.618   2.968   2.032
 2126TIP3   OH2 6320   7.065   2.397   4.582
 2126TIP3    H1 6321   7.124   2.352   4.522
 2126TIP3    H2 6322   7.060   2.487   4.549
 2127TIP3   OH2 6323   5.665   4.637   1.169
 2127TIP3    H1 6324   5.736   4.599   1.117
 2127TIP3    H2 6325   5.653   4.575   1.241
 2128TIP3   OH2 6326   5.609   0.868   2.565
 2128TIP3    H1 6327   5.603   0.919   2.484
 2128TIP3    H2 6328   5.560   0.919   2.629
 2129TIP3   OH2 6329   7.646   3.432   4.359
 2129TIP3    H1 6330   7.560   3.465   4.334
 2129TIP3    H2 6331   7.660   3.355   4.304
 2130TIP3   OH2 6332   4.756   1.887   3.267
 2130TIP3    H1 6333   4.687   1.825   3.244
 2130TIP3    H2 6334   4.715   1.946   3.331
 2131TIP3   OH2 6335   7.525   5.954   2.856
 2131TIP3    H1 6336   7.523   5.861   2.831
 2131TIP3    H2 6337   7.594   5.961   2.921
 2132TIP3   OH2 6338   3.411   0.844   0.642
 2132TIP3    H1 6339   3.449   0.909   0.702
 2132TIP3    H2 6340   3.335   0.888   0.605
 2133TIP3   OH2 6341   1.665   4.720   0.477
 2133TIP3    H1 6342   1.606   4.784   0.517
 2133TIP3    H2 6343   1.710   4.678   0.551
 2134TIP3   OH2 6344   4.560   6.786   1.121
 2134TIP3    H1 6345   4.640   6.788   1.174
 2134TIP3    H2 6346   4.524   6.698   1.135
 2135TIP3   OH2 6347   1.868   2.259   6.086
 2135TIP3    H1 6348   1.862   2.345   6.044
 2135TIP3    H2 6349   1.862   2.277   6.179
 2136TIP3   OH2 6350   4.068   4.397   2.289
 2136TIP3    H1 6351   4.015   4.319   2.271
 2136TIP3    H2 6352   4.025   4.467   2.240
 2137TIP3   OH2 6353   7.895   2.937   1.117
 2137TIP3    H1 6354   7.858   3.002   1.175
 2137TIP3    H2 6355   7.979   2.974   1.090
 2138TIP3   OH2 6356   4.257   0.805   1.524
 2138TIP3    H1 6357   4.244   0.899   1.525
 2138TIP3    H2 6358   4.348   0.793   1.551
 2139TIP3   OH2 6359   7.285   0.304   6.640
 2139TIP3    H1 6360   7.247   0.391   6.651
 2139TIP3    H2 6361   7.294   0.293   6.545
 2140TIP3   OH2 6362   5.847   3.665   0.352
 2140TIP3    H1 6363   5.926   3.656   0.405
 2140TIP3    H2 6364   5.877   3.655   0.262
 2141TIP3   OH2 6365   1.398   6.018   3.035
 2141TIP3    H1 6366   1.448   6.059   3.105
 2141TIP3    H2 6367   1.352   5.945   3.078
 2142TIP3   OH2 6368   5.449   6.461   0.424
 2142TIP3    H1 6369   5.534   6.494   0.455
 2142TIP3    H2 6370   5.446   6.488   0.332
 2143TIP3   OH2 6371   3.524   3.206   6.554
 2143TIP3    H1 6372   3.438   3.248   6.554
 2143TIP3    H2 6373   3.555   3.214   6.464
 2144TIP3   OH2 6374   2.466   7.520   0.727
 2144TIP3    H1 6375   2.524   7.521   0.651
 2144TIP3    H2 6376   2.460   7.612   0.754
 2145TIP3   OH2 6377   6.947   1.602   4.765
 2145TIP3    H1 6378   6.997   1.522   4.782
 2145TIP3    H2 6379   6.864   1.589   4.811
 2146TIP3   OH2 6380   2.770   6.648   1.324
 2146TIP3    H1 6381   2.851   6.646   1.376
 2146TIP3    H2 6382   2.796   6.619   1.237
 2147TIP3   OH2 6383   5.237   0.698   4.244
 2147TIP3    H1 6384   5.187   0.746   4.310
 2147TIP3    H2 6385   5.241   0.758   4.170
 2148TIP3   OH2 6386   2.949   5.040   6.347
 2148TIP3    H1 6387   2.912   5.111   6.401
 2148TIP3    H2 6388   2.881   5.021   6.283
 2149TIP3   OH2 6389   3.287   0.967   3.529
 2149TIP3    H1 6390   3.363   0.971   3.470
 2149TIP3    H2 6391   3.306   1.030   3.598
 2150TIP3   OH2 6392   6.820   6.057   0.413
 2150TIP3    H1 6393   6.837   6.028   0.323
 2150TIP3    H2 6394   6.725   6.058   0.420
 2151TIP3   OH2 6395   5.471   0.390   5.229
 2151TIP3    H1 6396   5.392   0.379   5.283
 2151TIP3    H2 6397   5.524   0.453   5.278
 2152TIP3   OH2 6398   0.070   7.465   0.968
 2152TIP3    H1 6399   0.007   7.397   0.992
 2152TIP3    H2 6400   0.077   7.459   0.873
 2153TIP3   OH2 6401   4.915   4.076   3.893
 2153TIP3    H1 6402   4.835   4.026   3.909
 2153TIP3    H2 6403   4.920   4.082   3.797
 2154TIP3   OH2 6404   3.071   7.235   0.167
 2154TIP3    H1 6405   3.097   7.294   0.237
 2154TIP3    H2 6406   3.027   7.291   0.103
 2155TIP3   OH2 6407   0.338   2.928   4.983
 2155TIP3    H1 6408   0.344   2.918   4.889
 2155TIP3    H2 6409   0.315   2.841   5.015
 2156TIP3   OH2 6410   2.629   5.225   1.822
 2156TIP3    H1 6411   2.693   5.259   1.885
 2156TIP3    H2 6412   2.681   5.172   1.761
 2157TIP3   OH2 6413   1.044   2.041   1.824
 2157TIP3    H1 6414   0.994   1.987   1.885
 2157TIP3    H2 6415   1.046   1.990   1.743
 2158TIP3   OH2 6416   6.979   1.549   4.088
 2158TIP3    H1 6417   7.030   1.527   4.011
 2158TIP3    H2 6418   6.948   1.638   4.071
 2159TIP3   OH2 6419   5.820   5.392   0.544
 2159TIP3    H1 6420   5.749   5.382   0.481
 2159TIP3    H2 6421   5.854   5.304   0.557
 2160TIP3   OH2 6422   4.620   2.797   4.332
 2160TIP3    H1 6423   4.559   2.785   4.259
 2160TIP3    H2 6424   4.571   2.769   4.409
 2161TIP3   OH2 6425   6.360   6.411   6.227
 2161TIP3    H1 6426   6.378   6.318   6.234
 2161TIP3    H2 6427   6.265   6.417   6.222
 2162TIP3   OH2 6428   3.781   2.912   3.184
 2162TIP3    H1 6429   3.764   3.003   3.161
 2162TIP3    H2 6430   3.694   2.874   3.197
 2163TIP3   OH2 6431   2.483   0.356   3.100
 2163TIP3    H1 6432   2.573   0.385   3.085
 2163TIP3    H2 6433   2.462   0.388   3.188
 2164TIP3   OH2 6434   0.306   2.094   4.470
 2164TIP3    H1 6435   0.227   2.046   4.492
 2164TIP3    H2 6436   0.311   2.090   4.374
 2165TIP3   OH2 6437   2.939   2.702   4.942
 2165TIP3    H1 6438   3.031   2.679   4.955
 2165TIP3    H2 6439   2.891   2.628   4.978
 2166TIP3   OH2 6440   5.151   5.613   2.309
 2166TIP3    H1 6441   5.114   5.569   2.233
 2166TIP3    H2 6442   5.082   5.610   2.375
 2167TIP3   OH2 6443   6.183   2.473   4.572
 2167TIP3    H1 6444   6.276   2.479   4.592
 2167TIP3    H2 6445   6.162   2.380   4.582
 2168TIP3   OH2 6446   5.635   1.014   5.542
 2168TIP3    H1 6447   5.628   1.031   5.636
 2168TIP3    H2 6448   5.710   0.955   5.534
 2169TIP3   OH2 6449   0.428   7.470   2.707
 2169TIP3    H1 6450   0.519   7.468   2.675
 2169TIP3    H2 6451   0.427   7.538   2.774
 2170TIP3   OH2 6452   6.533   0.205   3.554
 2170TIP3    H1 6453   6.512   0.297   3.544
 2170TIP3    H2 6454   6.614   0.205   3.606
 2171TIP3   OH2 6455   5.625   0.494   1.817
 2171TIP3    H1 6456   5.606   0.515   1.908
 2171TIP3    H2 6457   5.679   0.567   1.787
 2172TIP3   OH2 6458   6.610   1.198   6.479
 2172TIP3    H1 6459   6.664   1.163   6.550
 2172TIP3    H2 6460   6.671   1.207   6.405
 2173TIP3   OH2 6461   5.152   5.100   2.793
 2173TIP3    H1 6462   5.144   5.007   2.769
 2173TIP3    H2 6463   5.246   5.114   2.803
 2174TIP3   OH2 6464   2.011   1.579   2.629
 2174TIP3    H1 6465   2.050   1.520   2.564
 2174TIP3    H2 6466   2.060   1.563   2.709
 2175TIP3   OH2 6467   4.130   5.738   4.673
 2175TIP3    H1 6468   4.049   5.722   4.722
 2175TIP3    H2 6469   4.103   5.791   4.598
 2176TIP3   OH2 6470   5.561   1.603   0.535
 2176TIP3    H1 6471   5.655   1.609   0.521
 2176TIP3    H2 6472   5.523   1.633   0.452
 2177TIP3   OH2 6473   2.356   3.080   5.542
 2177TIP3    H1 6474   2.369   3.029   5.622
 2177TIP3    H2 6475   2.262   3.076   5.525
 2178TIP3   OH2 6476   5.770   5.011   0.873
 2178TIP3    H1 6477   5.746   5.085   0.929
 2178TIP3    H2 6478   5.686   4.970   0.850
 2179TIP3   OH2 6479   5.863   5.383   1.909
 2179TIP3    H1 6480   5.779   5.427   1.920
 2179TIP3    H2 6481   5.889   5.360   1.998
 2180TIP3   OH2 6482   1.798   7.150   6.050
 2180TIP3    H1 6483   1.800   7.070   5.997
 2180TIP3    H2 6484   1.890   7.170   6.067
 2181TIP3   OH2 6485   1.550   7.814   3.797
 2181TIP3    H1 6486   1.519   7.886   3.852
 2181TIP3    H2 6487   1.634   7.788   3.835
 2182TIP3   OH2 6488   0.416   6.577   0.894
 2182TIP3    H1 6489   0.412   6.671   0.875
 2182TIP3    H2 6490   0.508   6.554   0.880
 2183TIP3   OH2 6491   3.319   4.957   1.619
 2183TIP3    H1 6492   3.333   4.945   1.525
 2183TIP3    H2 6493   3.399   5.000   1.649
 2184TIP3   OH2 6494   0.653   3.006   5.428
 2184TIP3    H1 6495   0.632   3.099   5.414
 2184TIP3    H2 6496   0.594   2.959   5.369
 2185TIP3   OH2 6497   1.904   6.892   4.205
 2185TIP3    H1 6498   1.843   6.835   4.252
 2185TIP3    H2 6499   1.962   6.832   4.158
 2186TIP3   OH2 6500   8.011   6.045   4.102
 2186TIP3    H1 6501   8.000   6.135   4.072
 2186TIP3    H2 6502   8.040   6.054   4.193
 2187TIP3   OH2 6503   0.502   5.667   4.160
 2187TIP3    H1 6504   0.578   5.609   4.152
 2187TIP3    H2 6505   0.492   5.706   4.073
 2188TIP3   OH2 6506   5.631   4.928   6.128
 2188TIP3    H1 6507   5.613   4.847   6.079
 2188TIP3    H2 6508   5.690   4.977   6.070
 2189TIP3   OH2 6509   1.437   7.155   2.860
 2189TIP3    H1 6510   1.467   7.179   2.947
 2189TIP3    H2 6511   1.343   7.139   2.870
 2190TIP3   OH2 6512   3.907  -0.017   3.979
 2190TIP3    H1 6513   3.887   0.068   3.938
 2190TIP3    H2 6514   3.822  -0.048   4.011
 2191TIP3   OH2 6515   4.806   6.835   0.734
 2191TIP3    H1 6516   4.725   6.883   0.754
 2191TIP3    H2 6517   4.795   6.807   0.643
 2192TIP3   OH2 6518   8.201   0.000   5.630
 2192TIP3    H1 6519   8.217  -0.030   5.540
 2192TIP3    H2 6520   8.243   0.085   5.634
 2193TIP3   OH2 6521   0.587   1.052   1.472
 2193TIP3    H1 6522   0.531   1.110   1.421
 2193TIP3    H2 6523   0.644   1.010   1.408
 2194TIP3   OH2 6524   2.705   6.446   3.866
 2194TIP3    H1 6525   2.693   6.473   3.957
 2194TIP3    H2 6526   2.757   6.516   3.827
 2195TIP3   OH2 6527   5.073   0.518   3.962
 2195TIP3    H1 6528   5.027   0.458   3.903
 2195TIP3    H2 6529   5.051   0.605   3.931
 2196TIP3   OH2 6530   7.971   7.489   0.413
 2196TIP3    H1 6531   7.931   7.442   0.486
 2196TIP3    H2 6532   8.013   7.565   0.453
 2197TIP3   OH2 6533   3.650   0.377   6.294
 2197TIP3    H1 6534   3.605   0.338   6.219
 2197TIP3    H2 6535   3.634   0.471   6.285
 2198TIP3   OH2 6536   7.697   5.215   5.004
 2198TIP3    H1 6537   7.745   5.161   4.942
 2198TIP3    H2 6538   7.763   5.247   5.066
 2199TIP3   OH2 6539   6.967   7.744   0.623
 2199TIP3    H1 6540   6.898   7.713   0.681
 2199TIP3    H2 6541   7.033   7.675   0.624
 2200TIP3   OH2 6542   5.174   1.581   3.299
 2200TIP3    H1 6543   5.121   1.534   3.364
 2200TIP3    H2 6544   5.133   1.667   3.292
 2201TIP3   OH2 6545   6.625   6.562   2.235
 2201TIP3    H1 6546   6.659   6.486   2.283
 2201TIP3    H2 6547   6.689   6.632   2.253
 2202TIP3   OH2 6548   5.126   3.814   0.111
 2202TIP3    H1 6549   5.068   3.803   0.187
 2202TIP3    H2 6550   5.129   3.908   0.097
 2203TIP3   OH2 6551   4.357   3.091   5.526
 2203TIP3    H1 6552   4.341   2.999   5.504
 2203TIP3    H2 6553   4.296   3.109   5.598
 2204TIP3   OH2 6554   6.797   0.409   4.711
 2204TIP3    H1 6555   6.835   0.334   4.665
 2204TIP3    H2 6556   6.706   0.413   4.679
 2205TIP3   OH2 6557   2.588   1.767   6.126
 2205TIP3    H1 6558   2.547   1.836   6.074
 2205TIP3    H2 6559   2.517   1.734   6.183
 2206TIP3   OH2 6560   4.918   2.567   2.247
 2206TIP3    H1 6561   4.964   2.512   2.311
 2206TIP3    H2 6562   4.981   2.635   2.225
 2207TIP3   OH2 6563   4.346   5.839   6.234
 2207TIP3    H1 6564   4.374   5.930   6.244
 2207TIP3    H2 6565   4.403   5.790   6.293
 2208TIP3   OH2 6566   7.237   5.268   2.433
 2208TIP3    H1 6567   7.158   5.286   2.484
 2208TIP3    H2 6568   7.271   5.186   2.469
 2209TIP3   OH2 6569   3.376   5.362   3.950
 2209TIP3    H1 6570   3.299   5.380   3.895
 2209TIP3    H2 6571   3.341   5.321   4.028
 2210TIP3   OH2 6572   1.908   6.689   1.652
 2210TIP3    H1 6573   1.883   6.742   1.727
 2210TIP3    H2 6574   1.929   6.603   1.689
 2211TIP3   OH2 6575   3.631   3.420   4.455
 2211TIP3    H1 6576   3.537   3.415   4.434
 2211TIP3    H2 6577   3.664   3.332   4.437
 2212TIP3   OH2 6578   7.578   6.828   0.256
 2212TIP3    H1 6579   7.596   6.781   0.174
 2212TIP3    H2 6580   7.654   6.810   0.311
 2213TIP3   OH2 6581   8.106   7.311   0.938
 2213TIP3    H1 6582   8.028   7.287   0.988
 2213TIP3    H2 6583   8.125   7.233   0.885
 2214TIP3   OH2 6584   0.280   5.748   6.168
 2214TIP3    H1 6585   0.218   5.675   6.179
 2214TIP3    H2 6586   0.230   5.815   6.123
 2215TIP3   OH2 6587   7.422   6.658   5.778
 2215TIP3    H1 6588   7.438   6.712   5.855
 2215TIP3    H2 6589   7.502   6.608   5.766
 2216TIP3   OH2 6590   1.567   4.060   5.967
 2216TIP3    H1 6591   1.482   4.059   6.010
 2216TIP3    H2 6592   1.561   4.130   5.903
 2217TIP3   OH2 6593   7.851   6.410   1.436
 2217TIP3    H1 6594   7.884   6.418   1.525
 2217TIP3    H2 6595   7.879   6.323   1.407
 2218TIP3   OH2 6596   4.044   0.884   5.182
 2218TIP3    H1 6597   4.000   0.960   5.143
 2218TIP3    H2 6598   4.101   0.851   5.112
 2219TIP3   OH2 6599   1.139   4.690   4.146
 2219TIP3    H1 6600   1.130   4.689   4.051
 2219TIP3    H2 6601   1.219   4.640   4.164
 2220TIP3   OH2 6602   0.316   6.367   5.766
 2220TIP3    H1 6603   0.350   6.349   5.678
 2220TIP3    H2 6604   0.254   6.296   5.783
 2221TIP3   OH2 6605   4.949   1.509   0.369
 2221TIP3    H1 6606   4.953   1.443   0.438
 2221TIP3    H2 6607   4.867   1.557   0.386
 2222TIP3   OH2 6608   1.482   3.826   0.377
 2222TIP3    H1 6609   1.415   3.808   0.312
 2222TIP3    H2 6610   1.540   3.750   0.374
 2223TIP3   OH2 6611   3.580   6.896   1.372
 2223TIP3    H1 6612   3.492   6.861   1.389
 2223TIP3    H2 6613   3.639   6.835   1.415
 2224TIP3   OH2 6614   3.933   4.063   5.499
 2224TIP3    H1 6615   3.887   4.116   5.564
 2224TIP3    H2 6616   3.902   3.974   5.514
 2225TIP3   OH2 6617   5.599   5.805   0.361
 2225TIP3    H1 6618   5.577   5.768   0.447
 2225TIP3    H2 6619   5.690   5.833   0.370
 2226TIP3   OH2 6620   6.884   5.921   0.190
 2226TIP3    H1 6621   6.847   5.836   0.216
 2226TIP3    H2 6622   6.972   5.900   0.160
 2227TIP3   OH2 6623   6.269   1.857   4.919
 2227TIP3    H1 6624   6.290   1.900   4.836
 2227TIP3    H2 6625   6.202   1.794   4.897
 2228TIP3   OH2 6626   5.654   4.017   3.114
 2228TIP3    H1 6627   5.577   3.963   3.097
 2228TIP3    H2 6628   5.650   4.036   3.208
 2229TIP3   OH2 6629   0.315   2.023   1.560
 2229TIP3    H1 6630   0.240   1.991   1.510
 2229TIP3    H2 6631   0.358   2.084   1.501
 2230TIP3   OH2 6632   3.974   1.613   2.248
 2230TIP3    H1 6633   4.055   1.659   2.269
 2230TIP3    H2 6634   3.904   1.675   2.271
 2231TIP3   OH2 6635   2.482   7.026   1.562
 2231TIP3    H1 6636   2.475   7.121   1.568
 2231TIP3    H2 6637   2.427   7.003   1.488
 2232TIP3   OH2 6638   3.493   1.577   4.510
 2232TIP3    H1 6639   3.532   1.579   4.598
 2232TIP3    H2 6640   3.414   1.523   4.520
 2233TIP3   OH2 6641   6.697   3.295   0.615
 2233TIP3    H1 6642   6.659   3.299   0.703
 2233TIP3    H2 6643   6.745   3.213   0.612
 2234TIP3   OH2 6644   4.837   1.269   2.714
 2234TIP3    H1 6645   4.778   1.255   2.787
 2234TIP3    H2 6646   4.805   1.211   2.645
 2235TIP3   OH2 6647   6.480   0.230   1.158
 2235TIP3    H1 6648   6.486   0.242   1.253
 2235TIP3    H2 6649   6.546   0.290   1.123
 2236TIP3   OH2 6650   6.183   6.856   0.976
 2236TIP3    H1 6651   6.222   6.801   1.044
 2236TIP3    H2 6652   6.225   6.828   0.895
 2237TIP3   OH2 6653   6.073   5.872   0.841
 2237TIP3    H1 6654   6.140   5.899   0.778
 2237TIP3    H2 6655   6.097   5.782   0.865
 2238TIP3   OH2 6656   7.234   6.041   5.365
 2238TIP3    H1 6657   7.324   6.058   5.337
 2238TIP3    H2 6658   7.196   6.128   5.376
 2239TIP3   OH2 6659   2.111   6.746   4.079
 2239TIP3    H1 6660   2.124   6.658   4.115
 2239TIP3    H2 6661   2.166   6.803   4.133
 2240TIP3   OH2 6662   1.132   2.587   0.056
 2240TIP3    H1 6663   1.082   2.596   0.137
 2240TIP3    H2 6664   1.207   2.645   0.067
 2241TIP3   OH2 6665   4.614   0.368   5.713
 2241TIP3    H1 6666   4.588   0.286   5.755
 2241TIP3    H2 6667   4.533   0.416   5.702
 2242TIP3   OH2 6668   2.410   5.921   2.716
 2242TIP3    H1 6669   2.503   5.898   2.720
 2242TIP3    H2 6670   2.368   5.865   2.781
 2243TIP3   OH2 6671   0.533   0.051   2.415
 2243TIP3    H1 6672   0.619   0.072   2.378
 2243TIP3    H2 6673   0.540   0.075   2.508
 2244TIP3   OH2 6674   5.227   7.307   6.663
 2244TIP3    H1 6675   5.292   7.374   6.685
 2244TIP3    H2 6676   5.279   7.229   6.644
 2245TIP3   OH2 6677   1.558   6.282   4.349
 2245TIP3    H1 6678   1.571   6.317   4.437
 2245TIP3    H2 6679   1.501   6.206   4.361
 2246TIP3   OH2 6680   3.403   6.315   2.568
 2246TIP3    H1 6681   3.364   6.254   2.630
 2246TIP3    H2 6682   3.330   6.369   2.538
 2247TIP3   OH2 6683   2.876   1.457   4.557
 2247TIP3    H1 6684   2.851   1.372   4.593
 2247TIP3    H2 6685   2.808   1.477   4.493
 2248TIP3   OH2 6686   7.971   5.871   3.380
 2248TIP3    H1 6687   7.881   5.838   3.378
 2248TIP3    H2 6688   8.011   5.827   3.456
 2249TIP3   OH2 6689   5.477   0.474   6.154
 2249TIP3    H1 6690   5.441   0.408   6.093
 2249TIP3    H2 6691   5.520   0.422   6.222
 2250TIP3   OH2 6692   8.270   3.775   4.450
 2250TIP3    H1 6693   8.322   3.702   4.484
 2250TIP3    H2 6694   8.181   3.756   4.477
 2251TIP3   OH2 6695   0.745   6.623   0.750
 2251TIP3    H1 6696   0.765   6.609   0.657
 2251TIP3    H2 6697   0.785   6.548   0.794
 2252TIP3   OH2 6698   3.898   0.804   3.951
 2252TIP3    H1 6699   3.895   0.790   3.856
 2252TIP3    H2 6700   3.856   0.889   3.964
 2253TIP3   OH2 6701   7.392   5.031   2.489
 2253TIP3    H1 6702   7.387   4.935   2.488
 2253TIP3    H2 6703   7.397   5.056   2.397
 2254TIP3   OH2 6704   1.737   3.082   5.993
 2254TIP3    H1 6705   1.696   3.008   6.038
 2254TIP3    H2 6706   1.801   3.042   5.934
 2255TIP3   OH2 6707   7.933   6.353   0.324
 2255TIP3    H1 6708   8.012   6.406   0.318
 2255TIP3    H2 6709   7.871   6.397   0.265
 2256TIP3   OH2 6710   0.837   4.936   4.642
 2256TIP3    H1 6711   0.852   4.980   4.726
 2256TIP3    H2 6712   0.742   4.941   4.629
 2257TIP3   OH2 6713   8.017   1.995   0.086
 2257TIP3    H1 6714   8.111   2.015   0.081
 2257TIP3    H2 6715   7.982   2.060   0.147
 2258TIP3   OH2 6716   6.245   1.977   0.990
 2258TIP3    H1 6717   6.162   1.943   1.023
 2258TIP3    H2 6718   6.248   1.950   0.899
 2259TIP3   OH2 6719   1.554   1.195   4.245
 2259TIP3    H1 6720   1.588   1.178   4.333
 2259TIP3    H2 6721   1.485   1.260   4.258
 2260TIP3   OH2 6722   0.975   5.027   3.992
 2260TIP3    H1 6723   0.925   4.946   4.002
 2260TIP3    H2 6724   1.064   5.003   4.015
 2261TIP3   OH2 6725   7.243   7.672   5.324
 2261TIP3    H1 6726   7.173   7.613   5.353
 2261TIP3    H2 6727   7.239   7.745   5.386
 2262TIP3   OH2 6728   2.838   3.619   3.561
 2262TIP3    H1 6729   2.774   3.548   3.554
 2262TIP3    H2 6730   2.795   3.695   3.522
 2263TIP3   OH2 6731   5.362   0.729   4.938
 2263TIP3    H1 6732   5.270   0.729   4.965
 2263TIP3    H2 6733   5.408   0.778   5.006
 2264TIP3   OH2 6734   1.901   6.978   2.572
 2264TIP3    H1 6735   1.845   6.931   2.510
 2264TIP3    H2 6736   1.952   6.909   2.614
 2265TIP3   OH2 6737   0.996   4.108   3.118
 2265TIP3    H1 6738   0.920   4.095   3.062
 2265TIP3    H2 6739   0.988   4.040   3.185
 2266TIP3   OH2 6740   0.808   6.329   4.830
 2266TIP3    H1 6741   0.838   6.239   4.846
 2266TIP3    H2 6742   0.866   6.361   4.760
 2267TIP3   OH2 6743   4.704   2.553   5.127
 2267TIP3    H1 6744   4.786   2.580   5.168
 2267TIP3    H2 6745   4.676   2.476   5.176
 2268TIP3   OH2 6746   0.504   5.932   5.126
 2268TIP3    H1 6747   0.549   5.914   5.043
 2268TIP3    H2 6748   0.566   5.983   5.177
 2269TIP3   OH2 6749   4.766   1.174   5.725
 2269TIP3    H1 6750   4.799   1.162   5.814
 2269TIP3    H2 6751   4.821   1.244   5.688
 2270TIP3   OH2 6752   5.261   1.106   3.430
 2270TIP3    H1 6753   5.312   1.030   3.401
 2270TIP3    H2 6754   5.269   1.169   3.358
 2271TIP3   OH2 6755   4.990   3.367   3.453
 2271TIP3    H1 6756   4.963   3.445   3.500
 2271TIP3    H2 6757   5.079   3.350   3.483
 2272TIP3   OH2 6758   2.236   7.538   6.268
 2272TIP3    H1 6759   2.151   7.513   6.305
 2272TIP3    H2 6760   2.281   7.583   6.340
 2273TIP3   OH2 6761   2.406   0.537   6.202
 2273TIP3    H1 6762   2.448   0.453   6.217
 2273TIP3    H2 6763   2.327   0.535   6.257
 2274TIP3   OH2 6764   3.584   0.046   6.318
 2274TIP3    H1 6765   3.631   0.034   6.235
 2274TIP3    H2 6766   3.643   0.010   6.384
 2275TIP3   OH2 6767   3.382   4.873   6.650
 2275TIP3    H1 6768   3.458   4.815   6.642
 2275TIP3    H2 6769   3.417   4.961   6.639
 2276TIP3   OH2 6770   7.846   5.671   5.635
 2276TIP3    H1 6771   7.823   5.580   5.653
 2276TIP3    H2 6772   7.818   5.719   5.713
 2277TIP3   OH2 6773   0.035   2.330   5.201
 2277TIP3    H1 6774   0.130   2.340   5.206
 2277TIP3    H2 6775   0.005   2.336   5.291
 2278TIP3   OH2 6776   6.886   1.085   1.688
 2278TIP3    H1 6777   6.881   1.011   1.629
 2278TIP3    H2 6778   6.796   1.100   1.717
 2279TIP3   OH2 6779   6.181   3.014   3.887
 2279TIP3    H1 6780   6.127   3.089   3.911
 2279TIP3    H2 6781   6.133   2.971   3.816
 2280TIP3   OH2 6782   0.642   1.692   2.227
 2280TIP3    H1 6783   0.573   1.643   2.183
 2280TIP3    H2 6784   0.716   1.631   2.233
 2281TIP3   OH2 6785   1.737   5.720   0.664
 2281TIP3    H1 6786   1.797   5.712   0.738
 2281TIP3    H2 6787   1.670   5.782   0.694
 2282TIP3   OH2 6788   7.918   4.652   2.139
 2282TIP3    H1 6789   8.006   4.628   2.168
 2282TIP3    H2 6790   7.867   4.572   2.153
 2283TIP3   OH2 6791   0.707   2.496   3.968
 2283TIP3    H1 6792   0.674   2.439   3.898
 2283TIP3    H2 6793   0.691   2.585   3.937
 2284TIP3   OH2 6794   1.005   1.772   5.446
 2284TIP3    H1 6795   1.085   1.752   5.398
 2284TIP3    H2 6796   0.955   1.829   5.387
 2285TIP3   OH2 6797   1.880   1.115   4.767
 2285TIP3    H1 6798   1.864   1.189   4.707
 2285TIP3    H2 6799   1.805   1.057   4.754
 2286TIP3   OH2 6800   7.259   7.593   5.770
 2286TIP3    H1 6801   7.172   7.618   5.738
 2286TIP3    H2 6802   7.246   7.507   5.810
 2287TIP3   OH2 6803   6.308   1.705   5.861
 2287TIP3    H1 6804   6.335   1.670   5.946
 2287TIP3    H2 6805   6.382   1.760   5.834
 2288TIP3   OH2 6806   5.925   4.197   4.824
 2288TIP3    H1 6807   5.905   4.120   4.771
 2288TIP3    H2 6808   5.849   4.207   4.882
 2289TIP3   OH2 6809   3.513   2.126   5.679
 2289TIP3    H1 6810   3.437   2.149   5.732
 2289TIP3    H2 6811   3.490   2.156   5.591
 2290TIP3   OH2 6812   1.858   0.623   4.190
 2290TIP3    H1 6813   1.842   0.654   4.101
 2290TIP3    H2 6814   1.848   0.528   4.185
 2291TIP3   OH2 6815   4.025   2.490   3.617
 2291TIP3    H1 6816   3.941   2.527   3.644
 2291TIP3    H2 6817   4.074   2.564   3.582
 2292TIP3   OH2 6818   5.269   3.875   0.586
 2292TIP3    H1 6819   5.326   3.874   0.509
 2292TIP3    H2 6820   5.264   3.967   0.611
 2293TIP3   OH2 6821   6.554   3.299   2.710
 2293TIP3    H1 6822   6.606   3.290   2.790
 2293TIP3    H2 6823   6.614   3.272   2.639
 2294TIP3   OH2 6824   8.118   0.513   2.086
 2294TIP3    H1 6825   8.152   0.499   2.174
 2294TIP3    H2 6826   8.190   0.490   2.028
 2295TIP3   OH2 6827   3.965   3.261   1.260
 2295TIP3    H1 6828   3.994   3.350   1.281
 2295TIP3    H2 6829   4.042   3.220   1.222
 2296TIP3   OH2 6830   0.720   5.198   0.405
 2296TIP3    H1 6831   0.795   5.257   0.399
 2296TIP3    H2 6832   0.757   5.114   0.428
 2297TIP3   OH2 6833   4.752   5.366   1.093
 2297TIP3    H1 6834   4.752   5.397   1.002
 2297TIP3    H2 6835   4.731   5.444   1.145
 2298TIP3   OH2 6836   2.103   2.768   3.163
 2298TIP3    H1 6837   2.148   2.827   3.102
 2298TIP3    H2 6838   2.172   2.709   3.194
 2299TIP3   OH2 6839   1.365   0.056   2.163
 2299TIP3    H1 6840   1.443   0.101   2.196
 2299TIP3    H2 6841   1.303   0.058   2.237
 2300TIP3   OH2 6842   1.992   7.810   4.112
 2300TIP3    H1 6843   2.007   7.898   4.146
 2300TIP3    H2 6844   2.040   7.753   4.172
 2301TIP3   OH2 6845   2.148   7.683   5.083
 2301TIP3    H1 6846   2.131   7.590   5.066
 2301TIP3    H2 6847   2.062   7.721   5.101
 2302TIP3   OH2 6848   6.279   6.249   2.499
 2302TIP3    H1 6849   6.236   6.221   2.418
 2302TIP3    H2 6850   6.242   6.336   2.517
 2303TIP3   OH2 6851   4.782   5.345   5.790
 2303TIP3    H1 6852   4.696   5.386   5.797
 2303TIP3    H2 6853   4.787   5.314   5.700
 2304TIP3   OH2 6854   4.969   1.192   2.392
 2304TIP3    H1 6855   4.874   1.201   2.392
 2304TIP3    H2 6856   4.993   1.196   2.299
 2305TIP3   OH2 6857   3.828   2.867   4.165
 2305TIP3    H1 6858   3.775   2.787   4.166
 2305TIP3    H2 6859   3.883   2.861   4.242
 2306TIP3   OH2 6860   7.940   5.920   4.386
 2306TIP3    H1 6861   7.884   5.939   4.311
 2306TIP3    H2 6862   7.928   5.827   4.402
 2307TIP3   OH2 6863   0.538   0.456   3.804
 2307TIP3    H1 6864   0.523   0.509   3.726
 2307TIP3    H2 6865   0.547   0.367   3.771
 2308TIP3   OH2 6866   0.419   4.295   5.082
 2308TIP3    H1 6867   0.358   4.226   5.056
 2308TIP3    H2 6868   0.501   4.249   5.101
 2309TIP3   OH2 6869   3.769   5.146   5.642
 2309TIP3    H1 6870   3.803   5.155   5.553
 2309TIP3    H2 6871   3.684   5.190   5.639
 2310TIP3   OH2 6872   2.441   0.636   3.606
 2310TIP3    H1 6873   2.443   0.732   3.611
 2310TIP3    H2 6874   2.361   0.611   3.651
 2311TIP3   OH2 6875   6.262   6.409   5.102
 2311TIP3    H1 6876   6.290   6.366   5.183
 2311TIP3    H2 6877   6.333   6.470   5.081
 2312TIP3   OH2 6878   5.195   5.202   1.303
 2312TIP3    H1 6879   5.251   5.146   1.249
 2312TIP3    H2 6880   5.112   5.154   1.310
 2313TIP3   OH2 6881   2.138   6.184   0.521
 2313TIP3    H1 6882   2.122   6.238   0.597
 2313TIP3    H2 6883   2.174   6.102   0.556
 2314TIP3   OH2 6884   3.031   5.612   6.657
 2314TIP3    H1 6885   3.095   5.614   6.728
 2314TIP3    H2 6886   3.057   5.538   6.603
 2315TIP3   OH2 6887   3.710   6.456   2.567
 2315TIP3    H1 6888   3.624   6.475   2.605
 2315TIP3    H2 6889   3.771   6.509   2.618
 2316TIP3   OH2 6890   1.507   0.390   4.353
 2316TIP3    H1 6891   1.503   0.297   4.330
 2316TIP3    H2 6892   1.506   0.436   4.269
 2317TIP3   OH2 6893   5.084   5.593   5.958
 2317TIP3    H1 6894   5.163   5.618   6.006
 2317TIP3    H2 6895   5.073   5.499   5.975
 2318TIP3   OH2 6896   7.474   3.992   2.720
 2318TIP3    H1 6897   7.389   4.019   2.755
 2318TIP3    H2 6898   7.486   4.045   2.641
 2319TIP3   OH2 6899   1.444   3.932   4.057
 2319TIP3    H1 6900   1.381   3.946   4.127
 2319TIP3    H2 6901   1.404   3.865   4.001
 2320TIP3   OH2 6902   3.757   3.208   6.734
 2320TIP3    H1 6903   3.737   3.299   6.754
 2320TIP3    H2 6904   3.677   3.174   6.694
 2321TIP3   OH2 6905   1.373   1.052   0.835
 2321TIP3    H1 6906   1.372   1.062   0.931
 2321TIP3    H2 6907   1.317   0.976   0.819
 2322TIP3   OH2 6908   0.259   7.140   4.780
 2322TIP3    H1 6909   0.258   7.223   4.827
 2322TIP3    H2 6910   0.309   7.080   4.836
 2323TIP3   OH2 6911   3.969   1.509   5.001
 2323TIP3    H1 6912   3.917   1.573   5.050
 2323TIP3    H2 6913   4.039   1.484   5.061
 2324TIP3   OH2 6914   5.254   7.160   5.143
 2324TIP3    H1 6915   5.175   7.110   5.160
 2324TIP3    H2 6916   5.324   7.109   5.184
 2325TIP3   OH2 6917   1.815   1.187   5.470
 2325TIP3    H1 6918   1.869   1.206   5.547
 2325TIP3    H2 6919   1.870   1.212   5.396
 2326TIP3   OH2 6920   0.631   0.315   4.778
 2326TIP3    H1 6921   0.677   0.231   4.770
 2326TIP3    H2 6922   0.622   0.346   4.688
 2327TIP3   OH2 6923   0.320   5.483   6.015
 2327TIP3    H1 6924   0.237   5.462   5.972
 2327TIP3    H2 6925   0.304   5.466   6.108
 2328TIP3   OH2 6926   1.413   5.290   5.285
 2328TIP3    H1 6927   1.466   5.370   5.287
 2328TIP3    H2 6928   1.397   5.270   5.378
 2329TIP3   OH2 6929   3.369   4.306   4.529
 2329TIP3    H1 6930   3.387   4.216   4.555
 2329TIP3    H2 6931   3.431   4.358   4.578
 2330TIP3   OH2 6932   7.724   7.364   0.148
 2330TIP3    H1 6933   7.632   7.364   0.174
 2330TIP3    H2 6934   7.770   7.323   0.221
 2331TIP3   OH2 6935   6.563   7.452   4.219
 2331TIP3    H1 6936   6.575   7.463   4.124
 2331TIP3    H2 6937   6.620   7.379   4.242
 2332TIP3   OH2 6938   2.455   5.276   5.521
 2332TIP3    H1 6939   2.382   5.314   5.471
 2332TIP3    H2 6940   2.447   5.313   5.608
 2333TIP3   OH2 6941   4.580   2.448   2.396
 2333TIP3    H1 6942   4.632   2.523   2.367
 2333TIP3    H2 6943   4.639   2.399   2.453
 2334TIP3   OH2 6944   7.583   1.537   3.004
 2334TIP3    H1 6945   7.649   1.483   3.049
 2334TIP3    H2 6946   7.623   1.623   2.996
 2335TIP3   OH2 6947   1.886   7.003   3.197
 2335TIP3    H1 6948   1.859   6.917   3.165
 2335TIP3    H2 6949   1.815   7.030   3.255
 2336TIP3   OH2 6950   0.472   3.693   0.040
 2336TIP3    H1 6951   0.384   3.722   0.066
 2336TIP3    H2 6952   0.531   3.747   0.092
 2337TIP3   OH2 6953   5.408   6.119   5.791
 2337TIP3    H1 6954   5.344   6.147   5.857
 2337TIP3    H2 6955   5.478   6.185   5.796
 2338TIP3   OH2 6956   2.105   5.865   1.149
 2338TIP3    H1 6957   2.081   5.924   1.220
 2338TIP3    H2 6958   2.083   5.777   1.181
 2339TIP3   OH2 6959   5.890   4.328   2.947
 2339TIP3    H1 6960   5.907   4.349   3.039
 2339TIP3    H2 6961   5.798   4.303   2.944
 2340TIP3   OH2 6962   7.449   4.084   3.378
 2340TIP3    H1 6963   7.461   4.012   3.441
 2340TIP3    H2 6964   7.361   4.070   3.342
 2341TIP3   OH2 6965   4.151   1.458   5.191
 2341TIP3    H1 6966   4.125   1.400   5.263
 2341TIP3    H2 6967   4.203   1.526   5.233
 2342TIP3   OH2 6968   0.189   2.667   2.447
 2342TIP3    H1 6969   0.208   2.603   2.379
 2342TIP3    H2 6970   0.108   2.709   2.417
 2343TIP3   OH2 6971   1.771   4.180   3.474
 2343TIP3    H1 6972   1.718   4.120   3.422
 2343TIP3    H2 6973   1.838   4.212   3.413
 2344TIP3   OH2 6974   4.307   4.035   2.546
 2344TIP3    H1 6975   4.358   4.091   2.604
 2344TIP3    H2 6976   4.332   3.946   2.571
 2345TIP3   OH2 6977   7.900   7.165   2.146
 2345TIP3    H1 6978   7.995   7.173   2.153
 2345TIP3    H2 6979   7.885   7.139   2.056
 2346TIP3   OH2 6980   8.266   2.400   4.413
 2346TIP3    H1 6981   8.239   2.311   4.393
 2346TIP3    H2 6982   8.242   2.413   4.505
 2347TIP3   OH2 6983   2.330   5.090   0.232
 2347TIP3    H1 6984   2.367   5.152   0.169
 2347TIP3    H2 6985   2.273   5.033   0.179
 2348TIP3   OH2 6986   7.082   3.256   5.182
 2348TIP3    H1 6987   7.161   3.300   5.150
 2348TIP3    H2 6988   7.083   3.269   5.276
 2349TIP3   OH2 6989   2.592   3.025   6.158
 2349TIP3    H1 6990   2.536   3.077   6.216
 2349TIP3    H2 6991   2.669   3.080   6.142
 2350TIP3   OH2 6992   2.132   3.728   0.782
 2350TIP3    H1 6993   2.071   3.756   0.851
 2350TIP3    H2 6994   2.111   3.636   0.767
 2351TIP3   OH2 6995   2.121   1.569   0.348
 2351TIP3    H1 6996   2.131   1.652   0.393
 2351TIP3    H2 6997   2.080   1.592   0.264
 2352TIP3   OH2 6998   3.463   4.135   2.122
 2352TIP3    H1 6999   3.418   4.198   2.067
 2352TIP3    H2 7000   3.526   4.093   2.064
 2353TIP3   OH2 7001   7.952   0.827   3.012
 2353TIP3    H1 7002   7.930   0.825   2.919
 2353TIP3    H2 7003   8.045   0.802   3.015
 2354TIP3   OH2 7004   2.899   5.817   5.718
 2354TIP3    H1 7005   2.905   5.800   5.812
 2354TIP3    H2 7006   2.927   5.908   5.709
 2355TIP3   OH2 7007   4.814   0.078   3.202
 2355TIP3    H1 7008   4.843   0.085   3.111
 2355TIP3    H2 7009   4.839  -0.011   3.228
 2356TIP3   OH2 7010   7.835   7.200   6.373
 2356TIP3    H1 7011   7.759   7.176   6.427
 2356TIP3    H2 7012   7.814   7.289   6.342
 2357TIP3   OH2 7013   4.771   6.474   0.409
 2357TIP3    H1 7014   4.803   6.563   0.421
 2357TIP3    H2 7015   4.850   6.420   0.409
 2358TIP3   OH2 7016   0.284   2.326   4.595
 2358TIP3    H1 7017   0.305   2.235   4.571
 2358TIP3    H2 7018   0.197   2.322   4.633
 2359TIP3   OH2 7019   7.701   2.833   2.997
 2359TIP3    H1 7020   7.651   2.756   2.971
 2359TIP3    H2 7021   7.764   2.846   2.926
 2360TIP3   OH2 7022   1.297   1.980   0.372
 2360TIP3    H1 7023   1.253   2.000   0.455
 2360TIP3    H2 7024   1.306   1.885   0.373
 2361TIP3   OH2 7025   1.786   7.184   0.963
 2361TIP3    H1 7026   1.804   7.134   1.042
 2361TIP3    H2 7027   1.848   7.150   0.898
 2362TIP3   OH2 7028   8.310   4.482   4.721
 2362TIP3    H1 7029   8.216   4.470   4.709
 2362TIP3    H2 7030   8.335   4.545   4.653
 2363TIP3   OH2 7031   3.650   5.192   2.532
 2363TIP3    H1 7032   3.558   5.207   2.557
 2363TIP3    H2 7033   3.682   5.277   2.504
 2364TIP3   OH2 7034   7.489   6.333   3.663
 2364TIP3    H1 7035   7.442   6.393   3.721
 2364TIP3    H2 7036   7.429   6.317   3.590
 2365TIP3   OH2 7037   4.525   4.517   2.853
 2365TIP3    H1 7038   4.467   4.457   2.900
 2365TIP3    H2 7039   4.500   4.604   2.885
 2366TIP3   OH2 7040   3.958   5.303   6.492
 2366TIP3    H1 7041   4.013   5.232   6.458
 2366TIP3    H2 7042   3.976   5.377   6.435
 2367TIP3   OH2 7043   5.485   7.667   5.418
 2367TIP3    H1 7044   5.466   7.581   5.379
 2367TIP3    H2 7045   5.575   7.659   5.450
 2368TIP3   OH2 7046   6.781   2.016   0.197
 2368TIP3    H1 7047   6.716   2.039   0.130
 2368TIP3    H2 7048   6.854   1.979   0.147
 2369TIP3   OH2 7049   4.847   3.838   4.215
 2369TIP3    H1 7050   4.817   3.928   4.203
 2369TIP3    H2 7051   4.767   3.789   4.234
 2370TIP3   OH2 7052   6.631   4.314   3.651
 2370TIP3    H1 7053   6.678   4.255   3.592
 2370TIP3    H2 7054   6.700   4.354   3.704
 2371TIP3   OH2 7055   4.508   5.342   6.163
 2371TIP3    H1 7056   4.590   5.296   6.143
 2371TIP3    H2 7057   4.469   5.358   6.077
 2372TIP3   OH2 7058   6.121   0.550   5.374
 2372TIP3    H1 7059   6.153   0.459   5.379
 2372TIP3    H2 7060   6.180   0.592   5.312
 2373TIP3   OH2 7061   5.460   0.767   1.936
 2373TIP3    H1 7062   5.508   0.842   1.971
 2373TIP3    H2 7063   5.441   0.713   2.014
 2374TIP3   OH2 7064   0.564   0.145   6.344
 2374TIP3    H1 7065   0.473   0.130   6.322
 2374TIP3    H2 7066   0.609   0.153   6.260
 2375TIP3   OH2 7067   4.133   2.961   0.026
 2375TIP3    H1 7068   4.074   3.015  -0.027
 2375TIP3    H2 7069   4.182   3.024   0.079
 2376TIP3   OH2 7070   0.583   2.261   3.755
 2376TIP3    H1 7071   0.512   2.220   3.806
 2376TIP3    H2 7072   0.621   2.188   3.705
 2377TIP3   OH2 7073   6.459   6.048   4.253
 2377TIP3    H1 7074   6.404   6.112   4.209
 2377TIP3    H2 7075   6.430   6.050   4.344
 2378TIP3   OH2 7076   3.735   1.275   2.251
 2378TIP3    H1 7077   3.734   1.338   2.323
 2378TIP3    H2 7078   3.655   1.225   2.261
 2379TIP3   OH2 7079   2.280   0.601   1.372
 2379TIP3    H1 7080   2.337   0.660   1.323
 2379TIP3    H2 7081   2.328   0.584   1.453
 2380TIP3   OH2 7082   7.175   7.089   4.622
 2380TIP3    H1 7083   7.255   7.088   4.675
 2380TIP3    H2 7084   7.186   7.017   4.561
 2381TIP3   OH2 7085   3.681   4.484   5.048
 2381TIP3    H1 7086   3.672   4.403   4.997
 2381TIP3    H2 7087   3.678   4.455   5.139
 2382TIP3   OH2 7088   5.411   5.511   0.405
 2382TIP3    H1 7089   5.333   5.458   0.418
 2382TIP3    H2 7090   5.427   5.551   0.491
 2383TIP3   OH2 7091   2.473   6.876   4.806
 2383TIP3    H1 7092   2.406   6.868   4.738
 2383TIP3    H2 7093   2.553   6.843   4.765
 2384TIP3   OH2 7094   6.765   0.251   5.608
 2384TIP3    H1 7095   6.671   0.241   5.616
 2384TIP3    H2 7096   6.779   0.289   5.521
 2385TIP3   OH2 7097   3.400   0.034   3.961
 2385TIP3    H1 7098   3.385  -0.053   3.997
 2385TIP3    H2 7099   3.324   0.051   3.906
 2386TIP3   OH2 7100   3.911   2.254   3.616
 2386TIP3    H1 7101   3.971   2.328   3.621
 2386TIP3    H2 7102   3.939   2.205   3.538
 2387TIP3   OH2 7103   0.090   4.903   5.982
 2387TIP3    H1 7104   0.123   4.823   5.941
 2387TIP3    H2 7105   0.011   4.925   5.933
 2388TIP3   OH2 7106   0.539   3.697   3.812
 2388TIP3    H1 7107   0.532   3.615   3.861
 2388TIP3    H2 7108   0.472   3.690   3.744
 2389TIP3   OH2 7109   2.074   4.071   4.370
 2389TIP3    H1 7110   2.153   4.104   4.328
 2389TIP3    H2 7111   2.023   4.150   4.389
 2390TIP3   OH2 7112   6.020   1.720   2.498
 2390TIP3    H1 7113   6.116   1.715   2.498
 2390TIP3    H2 7114   5.995   1.692   2.586
 2391TIP3   OH2 7115   4.341   2.926   3.308
 2391TIP3    H1 7116   4.315   2.960   3.393
 2391TIP3    H2 7117   4.259   2.911   3.261
 2392TIP3   OH2 7118   7.862   4.717   3.796
 2392TIP3    H1 7119   7.823   4.679   3.718
 2392TIP3    H2 7120   7.918   4.788   3.764
 2393TIP3   OH2 7121   4.564   0.343   2.034
 2393TIP3    H1 7122   4.585   0.374   2.122
 2393TIP3    H2 7123   4.643   0.298   2.005
 2394TIP3   OH2 7124   6.610   0.056   4.622
 2394TIP3    H1 7125   6.565   0.051   4.538
 2394TIP3    H2 7126   6.683   0.117   4.608
 2395TIP3   OH2 7127   5.040   7.133   6.081
 2395TIP3    H1 7128   5.068   7.046   6.053
 2395TIP3    H2 7129   4.945   7.131   6.076
 2396TIP3   OH2 7130   3.593   3.322   2.918
 2396TIP3    H1 7131   3.603   3.320   2.823
 2396TIP3    H2 7132   3.499   3.324   2.932
 2397TIP3   OH2 7133   2.691   7.719   5.953
 2397TIP3    H1 7134   2.636   7.787   5.915
 2397TIP3    H2 7135   2.719   7.755   6.037
 2398TIP3   OH2 7136   3.711   5.909   0.705
 2398TIP3    H1 7137   3.671   5.843   0.649
 2398TIP3    H2 7138   3.638   5.961   0.738
 2399TIP3   OH2 7139   0.190   3.114   2.963
 2399TIP3    H1 7140   0.223   3.109   3.053
 2399TIP3    H2 7141   0.233   3.041   2.918
 2400TIP3   OH2 7142   1.858   3.258   5.749
 2400TIP3    H1 7143   1.830   3.297   5.832
 2400TIP3    H2 7144   1.877   3.333   5.692
 2401TIP3   OH2 7145   0.248   7.447   1.406
 2401TIP3    H1 7146   0.184   7.380   1.384
 2401TIP3    H2 7147   0.267   7.490   1.322
 2402TIP3   OH2 7148   0.290   0.965   3.872
 2402TIP3    H1 7149   0.303   0.873   3.851
 2402TIP3    H2 7150   0.303   1.011   3.789
 2403TIP3   OH2 7151   3.276   3.603   5.488
 2403TIP3    H1 7152   3.321   3.678   5.526
 2403TIP3    H2 7153   3.228   3.564   5.562
 2404TIP3   OH2 7154   6.509   6.463   0.439
 2404TIP3    H1 7155   6.603   6.467   0.456
 2404TIP3    H2 7156   6.487   6.553   0.413
 2405TIP3   OH2 7157   7.802   5.644   0.283
 2405TIP3    H1 7158   7.882   5.598   0.258
 2405TIP3    H2 7159   7.738   5.620   0.217
 2406TIP3   OH2 7160   5.210   2.876   1.732
 2406TIP3    H1 7161   5.257   2.862   1.650
 2406TIP3    H2 7162   5.250   2.813   1.793
 2407TIP3   OH2 7163   3.311   6.281   0.706
 2407TIP3    H1 7164   3.254   6.238   0.643
 2407TIP3    H2 7165   3.285   6.373   0.704
 2408TIP3   OH2 7166   7.292   1.186   1.407
 2408TIP3    H1 7167   7.327   1.221   1.325
 2408TIP3    H2 7168   7.240   1.110   1.381
 2409TIP3   OH2 7169   3.393   7.469   4.340
 2409TIP3    H1 7170   3.359   7.462   4.250
 2409TIP3    H2 7171   3.314   7.467   4.395
 2410TIP3   OH2 7172   0.163   4.139   0.015
 2410TIP3    H1 7173   0.218   4.091  -0.047
 2410TIP3    H2 7174   0.218   4.211   0.046
 2411TIP3   OH2 7175   6.287   1.501   2.264
 2411TIP3    H1 7176   6.262   1.592   2.279
 2411TIP3    H2 7177   6.272   1.487   2.171
 2412TIP3   OH2 7178   1.162   3.769   5.326
 2412TIP3    H1 7179   1.125   3.854   5.302
 2412TIP3    H2 7180   1.257   3.782   5.321
 2413TIP3   OH2 7181   7.870   3.805   1.873
 2413TIP3    H1 7182   7.946   3.834   1.924
 2413TIP3    H2 7183   7.799   3.861   1.902
 2414TIP3   OH2 7184   7.861   3.183   5.620
 2414TIP3    H1 7185   7.889   3.145   5.703
 2414TIP3    H2 7186   7.917   3.142   5.554
 2415TIP3   OH2 7187   0.132   4.350   4.133
 2415TIP3    H1 7188   0.109   4.347   4.226
 2415TIP3    H2 7189   0.052   4.381   4.090
 2416TIP3   OH2 7190   2.757   6.134   0.775
 2416TIP3    H1 7191   2.671   6.132   0.733
 2416TIP3    H2 7192   2.780   6.042   0.786
 2417TIP3   OH2 7193   4.962   0.722  -0.016
 2417TIP3    H1 7194   4.966   0.721   0.079
 2417TIP3    H2 7195   4.954   0.630  -0.041
 2418TIP3   OH2 7196   5.938   6.374   0.394
 2418TIP3    H1 7197   5.980   6.322   0.463
 2418TIP3    H2 7198   5.869   6.317   0.359
 2419TIP3   OH2 7199   5.905   7.523   3.093
 2419TIP3    H1 7200   5.897   7.605   3.141
 2419TIP3    H2 7201   5.844   7.463   3.137
 2420TIP3   OH2 7202   5.987   0.305   1.055
 2420TIP3    H1 7203   6.078   0.320   1.031
 2420TIP3    H2 7204   5.989   0.226   1.109
 2421TIP3   OH2 7205   1.382   1.343   6.107
 2421TIP3    H1 7206   1.393   1.355   6.201
 2421TIP3    H2 7207   1.288   1.333   6.094
 2422TIP3   OH2 7208   4.011   6.498   0.076
 2422TIP3    H1 7209   4.066   6.509   0.153
 2422TIP3    H2 7210   3.973   6.411   0.085
 2423TIP3   OH2 7211   1.626   1.220   2.162
 2423TIP3    H1 7212   1.598   1.138   2.203
 2423TIP3    H2 7213   1.720   1.210   2.149
 2424TIP3   OH2 7214   5.500   1.671   2.478
 2424TIP3    H1 7215   5.453   1.675   2.395
 2424TIP3    H2 7216   5.526   1.579   2.486
 2425TIP3   OH2 7217   2.817   7.772   3.956
 2425TIP3    H1 7218   2.830   7.854   3.907
 2425TIP3    H2 7219   2.904   7.730   3.955
 2426TIP3   OH2 7220   7.556   1.360   6.454
 2426TIP3    H1 7221   7.611   1.331   6.381
 2426TIP3    H2 7222   7.481   1.402   6.413
 2427TIP3   OH2 7223   7.471   0.540   0.440
 2427TIP3    H1 7224   7.564   0.537   0.464
 2427TIP3    H2 7225   7.440   0.622   0.478
 2428TIP3   OH2 7226   1.080   0.731   2.617
 2428TIP3    H1 7227   1.154   0.781   2.651
 2428TIP3    H2 7228   1.031   0.793   2.564
 2429TIP3   OH2 7229   7.242   0.994   6.770
 2429TIP3    H1 7230   7.251   1.034   6.683
 2429TIP3    H2 7231   7.297   0.917   6.767
 2430TIP3   OH2 7232   6.944   4.789   2.813
 2430TIP3    H1 7233   6.903   4.784   2.727
 2430TIP3    H2 7234   7.038   4.787   2.796
 2431TIP3   OH2 7235   4.529   6.630   5.251
 2431TIP3    H1 7236   4.441   6.599   5.232
 2431TIP3    H2 7237   4.549   6.691   5.180
 2432TIP3   OH2 7238   2.738   1.831   3.739
 2432TIP3    H1 7239   2.740   1.910   3.684
 2432TIP3    H2 7240   2.647   1.802   3.735
 2433TIP3   OH2 7241   7.118   7.781   3.795
 2433TIP3    H1 7242   7.106   7.707   3.735
 2433TIP3    H2 7243   7.191   7.754   3.851
 2434TIP3   OH2 7244   7.677   1.810   1.017
 2434TIP3    H1 7245   7.640   1.809   1.105
 2434TIP3    H2 7246   7.634   1.736   0.972
 2435TIP3   OH2 7247   6.420   3.242   6.703
 2435TIP3    H1 7248   6.365   3.185   6.756
 2435TIP3    H2 7249   6.509   3.221   6.729
 2436TIP3   OH2 7250   1.292   7.417   0.713
 2436TIP3    H1 7251   1.219   7.369   0.673
 2436TIP3    H2 7252   1.330   7.467   0.640
 2437TIP3   OH2 7253   1.500   3.396   6.636
 2437TIP3    H1 7254   1.527   3.304   6.631
 2437TIP3    H2 7255   1.485   3.421   6.545
 2438TIP3   OH2 7256   4.399   3.459   2.110
 2438TIP3    H1 7257   4.451   3.539   2.105
 2438TIP3    H2 7258   4.440   3.408   2.181
 2439TIP3   OH2 7259   0.526   6.644   1.967
 2439TIP3    H1 7260   0.540   6.632   2.061
 2439TIP3    H2 7261   0.439   6.684   1.960
 2440TIP3   OH2 7262   0.396   7.180   1.730
 2440TIP3    H1 7263   0.452   7.258   1.736
 2440TIP3    H2 7264   0.456   7.107   1.738
 2441TIP3   OH2 7265   5.600   1.906   4.247
 2441TIP3    H1 7266   5.648   1.968   4.192
 2441TIP3    H2 7267   5.552   1.851   4.186
 2442TIP3   OH2 7268   2.079   6.535   3.497
 2442TIP3    H1 7269   2.043   6.471   3.435
 2442TIP3    H2 7270   2.074   6.492   3.582
 2443TIP3   OH2 7271   4.273   5.338   3.017
 2443TIP3    H1 7272   4.274   5.247   2.987
 2443TIP3    H2 7273   4.359   5.349   3.060
 2444TIP3   OH2 7274   8.066   2.743   4.483
 2444TIP3    H1 7275   8.155   2.716   4.506
 2444TIP3    H2 7276   8.077   2.829   4.444
 2445TIP3   OH2 7277   5.843   6.624   2.817
 2445TIP3    H1 7278   5.820   6.624   2.910
 2445TIP3    H2 7279   5.938   6.612   2.816
 2446TIP3   OH2 7280   2.418   5.574   0.246
 2446TIP3    H1 7281   2.417   5.651   0.189
 2446TIP3    H2 7282   2.380   5.504   0.193
 2447TIP3   OH2 7283   3.984   0.426   0.878
 2447TIP3    H1 7284   3.995   0.521   0.887
 2447TIP3    H2 7285   4.065   0.389   0.913
 2448TIP3   OH2 7286   6.145   6.581   1.542
 2448TIP3    H1 7287   6.182   6.621   1.464
 2448TIP3    H2 7288   6.171   6.488   1.537
 2449TIP3   OH2 7289   1.451   4.475   1.204
 2449TIP3    H1 7290   1.412   4.501   1.288
 2449TIP3    H2 7291   1.535   4.521   1.201
 2450TIP3   OH2 7292   7.705   5.844   2.031
 2450TIP3    H1 7293   7.772   5.886   1.978
 2450TIP3    H2 7294   7.655   5.917   2.068
 2451TIP3   OH2 7295   5.180   4.612   0.061
 2451TIP3    H1 7296   5.229   4.693   0.073
 2451TIP3    H2 7297   5.149   4.616  -0.030
 2452TIP3   OH2 7298   3.877   4.920   2.699
 2452TIP3    H1 7299   3.810   4.923   2.630
 2452TIP3    H2 7300   3.828   4.927   2.781
 2453TIP3   OH2 7301   4.077   0.184   1.867
 2453TIP3    H1 7302   4.101   0.126   1.795
 2453TIP3    H2 7303   4.155   0.237   1.882
 2454TIP3   OH2 7304   4.268   2.117   0.678
 2454TIP3    H1 7305   4.252   2.200   0.722
 2454TIP3    H2 7306   4.182   2.088   0.648
 2455TIP3   OH2 7307   8.249   0.638   1.392
 2455TIP3    H1 7308   8.257   0.675   1.304
 2455TIP3    H2 7309   8.324   0.675   1.440
 2456TIP3   OH2 7310   4.640   1.883   2.141
 2456TIP3    H1 7311   4.730   1.909   2.123
 2456TIP3    H2 7312   4.598   1.878   2.056
 2457TIP3   OH2 7313   7.966   0.429   4.335
 2457TIP3    H1 7314   8.011   0.513   4.339
 2457TIP3    H2 7315   7.875   0.452   4.315
 2458TIP3   OH2 7316   5.687   6.491   1.490
 2458TIP3    H1 7317   5.701   6.566   1.433
 2458TIP3    H2 7318   5.614   6.443   1.450
 2459TIP3   OH2 7319   6.373   6.686   3.696
 2459TIP3    H1 7320   6.462   6.663   3.724
 2459TIP3    H2 7321   6.329   6.602   3.684
 2460TIP3   OH2 7322   1.597   7.722   3.319
 2460TIP3    H1 7323   1.648   7.648   3.287
 2460TIP3    H2 7324   1.652   7.798   3.301
 2461TIP3   OH2 7325   2.042   7.241   2.924
 2461TIP3    H1 7326   1.955   7.218   2.890
 2461TIP3    H2 7327   2.098   7.168   2.897
 2462TIP3   OH2 7328   1.414   7.666   0.251
 2462TIP3    H1 7329   1.335   7.652   0.198
 2462TIP3    H2 7330   1.449   7.749   0.219
 2463TIP3   OH2 7331   7.504   5.718   3.200
 2463TIP3    H1 7332   7.535   5.663   3.128
 2463TIP3    H2 7333   7.466   5.795   3.156
 2464TIP3   OH2 7334   4.823   6.036   0.463
 2464TIP3    H1 7335   4.745   5.996   0.423
 2464TIP3    H2 7336   4.896   6.004   0.409
 2465TIP3   OH2 7337   2.220   6.970   6.686
 2465TIP3    H1 7338   2.280   6.963   6.611
 2465TIP3    H2 7339   2.137   6.996   6.648
 2466TIP3   OH2 7340   3.781   0.707   4.885
 2466TIP3    H1 7341   3.732   0.734   4.807
 2466TIP3    H2 7342   3.792   0.787   4.936
 2467TIP3   OH2 7343   3.534   6.337   1.310
 2467TIP3    H1 7344   3.454   6.385   1.292
 2467TIP3    H2 7345   3.549   6.285   1.231
 2468TIP3   OH2 7346   8.046   1.941   5.786
 2468TIP3    H1 7347   8.004   1.873   5.840
 2468TIP3    H2 7348   7.984   2.014   5.787
 2469TIP3   OH2 7349   5.015   2.968   2.893
 2469TIP3    H1 7350   5.075   2.977   2.819
 2469TIP3    H2 7351   5.008   2.874   2.907
 2470TIP3   OH2 7352   7.129   3.390   2.993
 2470TIP3    H1 7353   7.059   3.454   3.007
 2470TIP3    H2 7354   7.152   3.360   3.081
 2471TIP3   OH2 7355   5.229   3.080   1.404
 2471TIP3    H1 7356   5.276   3.130   1.470
 2471TIP3    H2 7357   5.275   2.996   1.400
 2472TIP3   OH2 7358   7.788   5.101   2.508
 2472TIP3    H1 7359   7.719   5.089   2.574
 2472TIP3    H2 7360   7.742   5.099   2.424
 2473TIP3   OH2 7361   6.105   4.981   0.927
 2473TIP3    H1 7362   6.042   4.910   0.917
 2473TIP3    H2 7363   6.165   4.972   0.853
 2474TIP3   OH2 7364   7.431   6.362   2.225
 2474TIP3    H1 7365   7.426   6.449   2.265
 2474TIP3    H2 7366   7.492   6.374   2.152
 2475TIP3   OH2 7367   0.929   2.310   1.353
 2475TIP3    H1 7368   0.856   2.260   1.392
 2475TIP3    H2 7369   0.983   2.243   1.311
 2476TIP3   OH2 7370   3.972   0.468   6.343
 2476TIP3    H1 7371   3.922   0.487   6.423
 2476TIP3    H2 7372   4.062   0.461   6.373
 2477TIP3   OH2 7373   4.826   6.247   6.545
 2477TIP3    H1 7374   4.763   6.296   6.597
 2477TIP3    H2 7375   4.822   6.158   6.579
 2478TIP3   OH2 7376   5.851   2.595   1.603
 2478TIP3    H1 7377   5.935   2.639   1.610
 2478TIP3    H2 7378   5.786   2.664   1.616
 2479TIP3   OH2 7379   5.403   3.726   0.769
 2479TIP3    H1 7380   5.358   3.774   0.699
 2479TIP3    H2 7381   5.370   3.637   0.761
 2480TIP3   OH2 7382   4.206   3.926   1.357
 2480TIP3    H1 7383   4.140   3.857   1.349
 2480TIP3    H2 7384   4.161   3.997   1.402
 2481TIP3   OH2 7385   3.811   7.592   5.301
 2481TIP3    H1 7386   3.758   7.627   5.230
 2481TIP3    H2 7387   3.896   7.574   5.260
 2482TIP3   OH2 7388   5.712   4.324   5.983
 2482TIP3    H1 7389   5.768   4.268   6.037
 2482TIP3    H2 7390   5.762   4.405   5.973
 2483TIP3   OH2 7391   4.957   3.884   0.444
 2483TIP3    H1 7392   5.023   3.953   0.449
 2483TIP3    H2 7393   4.940   3.860   0.535
 2484TIP3   OH2 7394   7.591   6.170   0.171
 2484TIP3    H1 7395   7.554   6.121   0.244
 2484TIP3    H2 7396   7.672   6.123   0.149
 2485TIP3   OH2 7397   6.958   4.506   4.232
 2485TIP3    H1 7398   6.917   4.508   4.318
 2485TIP3    H2 7399   7.052   4.496   4.249
 2486TIP3   OH2 7400   3.559   1.928   4.258
 2486TIP3    H1 7401   3.534   2.008   4.211
 2486TIP3    H2 7402   3.590   1.869   4.189
 2487TIP3   OH2 7403   3.762   1.353   6.722
 2487TIP3    H1 7404   3.718   1.298   6.658
 2487TIP3    H2 7405   3.854   1.352   6.695
 2488TIP3   OH2 7406   0.275   2.537   0.579
 2488TIP3    H1 7407   0.212   2.519   0.648
 2488TIP3    H2 7408   0.335   2.463   0.581
 2489TIP3   OH2 7409   4.221   1.731   3.581
 2489TIP3    H1 7410   4.247   1.782   3.658
 2489TIP3    H2 7411   4.194   1.646   3.617
 2490TIP3   OH2 7412   5.217   5.939   5.737
 2490TIP3    H1 7413   5.302   5.946   5.780
 2490TIP3    H2 7414   5.159   5.992   5.791
 2491TIP3   OH2 7415   4.149   7.546   5.736
 2491TIP3    H1 7416   4.098   7.510   5.809
 2491TIP3    H2 7417   4.087   7.600   5.688
 2492TIP3   OH2 7418   5.927   3.925   3.036
 2492TIP3    H1 7419   5.939   3.831   3.045
 2492TIP3    H2 7420   5.833   3.939   3.043
 2493TIP3   OH2 7421   2.886   6.155   2.647
 2493TIP3    H1 7422   2.837   6.073   2.654
 2493TIP3    H2 7423   2.865   6.188   2.560
 2494TIP3   OH2 7424   4.234   6.051   5.395
 2494TIP3    H1 7425   4.181   5.973   5.379
 2494TIP3    H2 7426   4.178   6.107   5.448
 2495TIP3   OH2 7427   2.512   6.930   5.307
 2495TIP3    H1 7428   2.514   6.860   5.373
 2495TIP3    H2 7429   2.522   7.010   5.358
 2496TIP3   OH2 7430   1.232   7.281   5.816
 2496TIP3    H1 7431   1.156   7.282   5.873
 2496TIP3    H2 7432   1.278   7.362   5.835
 2497TIP3   OH2 7433   7.217   2.026   5.122
 2497TIP3    H1 7434   7.276   2.011   5.048
 2497TIP3    H2 7435   7.275   2.057   5.192
 2498TIP3   OH2 7436   6.497   5.280   1.208
 2498TIP3    H1 7437   6.438   5.206   1.215
 2498TIP3    H2 7438   6.478   5.334   1.285
 2499TIP3   OH2 7439   4.596   6.294   1.009
 2499TIP3    H1 7440   4.592   6.366   1.072
 2499TIP3    H2 7441   4.636   6.331   0.931
 2500TIP3   OH2 7442   7.972   1.440   5.889
 2500TIP3    H1 7443   8.065   1.459   5.904
 2500TIP3    H2 7444   7.956   1.357   5.934
 2501TIP3   OH2 7445   5.374   1.011   2.173
 2501TIP3    H1 7446   5.292   0.968   2.152
 2501TIP3    H2 7447   5.370   1.027   2.267
 2502TIP3   OH2 7448   2.911   2.592   0.564
 2502TIP3    H1 7449   2.897   2.500   0.541
 2502TIP3    H2 7450   2.872   2.602   0.651
 2503TIP3   OH2 7451   5.124   1.238   5.488
 2503TIP3    H1 7452   5.215   1.208   5.483
 2503TIP3    H2 7453   5.126   1.306   5.556
 2504TIP3   OH2 7454   5.773   4.990   1.807
 2504TIP3    H1 7455   5.792   4.960   1.896
 2504TIP3    H2 7456   5.723   4.918   1.768
 2505TIP3   OH2 7457   0.592   7.471   5.352
 2505TIP3    H1 7458   0.678   7.438   5.325
 2505TIP3    H2 7459   0.606   7.564   5.369
 2506TIP3   OH2 7460   6.650   0.703   4.276
 2506TIP3    H1 7461   6.610   0.647   4.210
 2506TIP3    H2 7462   6.586   0.773   4.290
 2507TIP3   OH2 7463   0.117   0.851   2.501
 2507TIP3    H1 7464   0.065   0.932   2.504
 2507TIP3    H2 7465   0.172   0.855   2.579
 2508TIP3   OH2 7466   5.350   1.239   5.147
 2508TIP3    H1 7467   5.368   1.328   5.177
 2508TIP3    H2 7468   5.424   1.218   5.090
 2509TIP3   OH2 7469   7.478   2.661   3.660
 2509TIP3    H1 7470   7.507   2.583   3.709
 2509TIP3    H2 7471   7.491   2.638   3.568
 2510TIP3   OH2 7472   6.340   6.729   0.751
 2510TIP3    H1 7473   6.418   6.782   0.772
 2510TIP3    H2 7474   6.304   6.769   0.673
 2511TIP3   OH2 7475   7.331   1.008   5.025
 2511TIP3    H1 7476   7.397   0.941   5.040
 2511TIP3    H2 7477   7.267   0.995   5.095
 2512TIP3   OH2 7478   4.336   5.256   4.416
 2512TIP3    H1 7479   4.328   5.169   4.377
 2512TIP3    H2 7480   4.246   5.289   4.421
 2513TIP3   OH2 7481   0.888   3.772   5.019
 2513TIP3    H1 7482   0.966   3.751   4.968
 2513TIP3    H2 7483   0.884   3.705   5.087
 2514TIP3   OH2 7484   5.697   4.863   3.814
 2514TIP3    H1 7485   5.643   4.785   3.820
 2514TIP3    H2 7486   5.653   4.927   3.869
 2515TIP3   OH2 7487   6.895   2.074   4.200
 2515TIP3    H1 7488   6.814   2.123   4.189
 2515TIP3    H2 7489   6.910   2.072   4.294
 2516TIP3   OH2 7490   7.497   3.442   1.072
 2516TIP3    H1 7491   7.573   3.423   1.126
 2516TIP3    H2 7492   7.533   3.475   0.990
 2517TIP3   OH2 7493   5.829   2.105   3.321
 2517TIP3    H1 7494   5.865   2.152   3.396
 2517TIP3    H2 7495   5.889   2.125   3.249
 2518TIP3   OH2 7496   3.188   0.655   6.291
 2518TIP3    H1 7497   3.222   0.583   6.345
 2518TIP3    H2 7498   3.238   0.732   6.319
 2519TIP3   OH2 7499   6.416   5.212   5.177
 2519TIP3    H1 7500   6.485   5.168   5.127
 2519TIP3    H2 7501   6.452   5.221   5.265
 2520TIP3   OH2 7502   7.940   1.718   1.597
 2520TIP3    H1 7503   7.894   1.777   1.657
 2520TIP3    H2 7504   7.871   1.670   1.553
 2521TIP3   OH2 7505   3.673   4.046   5.311
 2521TIP3    H1 7506   3.650   3.994   5.388
 2521TIP3    H2 7507   3.755   4.008   5.281
 2522TIP3   OH2 7508   3.123   4.841   3.945
 2522TIP3    H1 7509   3.119   4.861   3.851
 2522TIP3    H2 7510   3.189   4.773   3.952
 2523TIP3   OH2 7511   4.071   4.081   5.263
 2523TIP3    H1 7512   4.030   4.082   5.349
 2523TIP3    H2 7513   4.092   3.989   5.248
 2524TIP3   OH2 7514   1.327   2.162   3.961
 2524TIP3    H1 7515   1.245   2.205   3.986
 2524TIP3    H2 7516   1.358   2.120   4.041
 2525TIP3   OH2 7517   8.045   2.130   2.877
 2525TIP3    H1 7518   8.004   2.190   2.939
 2525TIP3    H2 7519   8.130   2.109   2.915
 2526TIP3   OH2 7520   3.964   5.718   0.489
 2526TIP3    H1 7521   4.036   5.735   0.428
 2526TIP3    H2 7522   3.955   5.799   0.539
 2527TIP3   OH2 7523   3.522   3.818   0.599
 2527TIP3    H1 7524   3.433   3.784   0.603
 2527TIP3    H2 7525   3.568   3.773   0.670
 2528TIP3   OH2 7526   7.148   5.562   5.573
 2528TIP3    H1 7527   7.175   5.580   5.663
 2528TIP3    H2 7528   7.181   5.637   5.523
 2529TIP3   OH2 7529   4.118   3.063   1.119
 2529TIP3    H1 7530   4.102   3.003   1.192
 2529TIP3    H2 7531   4.213   3.059   1.106
 2530TIP3   OH2 7532   1.506   6.883   6.322
 2530TIP3    H1 7533   1.438   6.942   6.355
 2530TIP3    H2 7534   1.521   6.913   6.232
 2531TIP3   OH2 7535   0.982   0.778   3.066
 2531TIP3    H1 7536   0.899   0.730   3.066
 2531TIP3    H2 7537   1.005   0.784   3.158
 2532TIP3   OH2 7538   2.421   0.481   1.152
 2532TIP3    H1 7539   2.333   0.468   1.187
 2532TIP3    H2 7540   2.407   0.508   1.061
 2533TIP3   OH2 7541   2.960   6.355   2.803
 2533TIP3    H1 7542   3.017   6.336   2.877
 2533TIP3    H2 7543   2.926   6.270   2.776
 2534TIP3   OH2 7544   7.204   3.096   3.022
 2534TIP3    H1 7545   7.217   3.052   3.106
 2534TIP3    H2 7546   7.147   3.170   3.042
 2535TIP3   OH2 7547   4.811   3.584   2.376
 2535TIP3    H1 7548   4.802   3.636   2.455
 2535TIP3    H2 7549   4.838   3.646   2.309
 2536TIP3   OH2 7550   3.123   0.803   2.040
 2536TIP3    H1 7551   3.031   0.809   2.066
 2536TIP3    H2 7552   3.122   0.820   1.946
 2537TIP3   OH2 7553   0.921   7.275   0.958
 2537TIP3    H1 7554   0.825   7.265   0.960
 2537TIP3    H2 7555   0.954   7.194   0.994
 2538TIP3   OH2 7556   2.779   4.342   5.333
 2538TIP3    H1 7557   2.858   4.310   5.376
 2538TIP3    H2 7558   2.780   4.436   5.348
 2539TIP3   OH2 7559   4.122   5.309   4.223
 2539TIP3    H1 7560   4.063   5.384   4.225
 2539TIP3    H2 7561   4.189   5.332   4.159
 2540TIP3   OH2 7562   2.321   0.781   5.799
 2540TIP3    H1 7563   2.302   0.772   5.893
 2540TIP3    H2 7564   2.370   0.703   5.777
 2541TIP3   OH2 7565   2.434   6.461   0.999
 2541TIP3    H1 7566   2.427   6.369   1.026
 2541TIP3    H2 7567   2.457   6.456   0.906
 2542TIP3   OH2 7568   6.499   6.742   5.914
 2542TIP3    H1 7569   6.566   6.674   5.920
 2542TIP3    H2 7570   6.458   6.743   6.000
 2543TIP3   OH2 7571   5.076   6.505   3.255
 2543TIP3    H1 7572   5.120   6.549   3.327
 2543TIP3    H2 7573   5.146   6.458   3.210
 2544TIP3   OH2 7574   4.581   2.131   0.204
 2544TIP3    H1 7575   4.615   2.219   0.213
 2544TIP3    H2 7576   4.493   2.135   0.242
 2545TIP3   OH2 7577   1.591   2.171   0.345
 2545TIP3    H1 7578   1.502   2.193   0.318
 2545TIP3    H2 7579   1.581   2.096   0.403
 2546TIP3   OH2 7580   7.804   6.713   3.826
 2546TIP3    H1 7581   7.817   6.777   3.756
 2546TIP3    H2 7582   7.779   6.632   3.780
 2547TIP3   OH2 7583   7.112   1.646   2.668
 2547TIP3    H1 7584   7.037   1.685   2.712
 2547TIP3    H2 7585   7.188   1.686   2.712
 2548TIP3   OH2 7586   8.142   4.236   3.277
 2548TIP3    H1 7587   8.208   4.172   3.250
 2548TIP3    H2 7588   8.193   4.314   3.302
 2549TIP3   OH2 7589   4.371   4.896   5.476
 2549TIP3    H1 7590   4.441   4.865   5.534
 2549TIP3    H2 7591   4.409   4.891   5.388
 2550TIP3   OH2 7592   2.479   2.843   1.546
 2550TIP3    H1 7593   2.523   2.928   1.554
 2550TIP3    H2 7594   2.391   2.865   1.515
 2551TIP3   OH2 7595   7.508   4.758   1.464
 2551TIP3    H1 7596   7.544   4.826   1.520
 2551TIP3    H2 7597   7.424   4.794   1.434
 2552TIP3   OH2 7598   7.366   5.432   3.061
 2552TIP3    H1 7599   7.435   5.372   3.088
 2552TIP3    H2 7600   7.413   5.508   3.027
 2553TIP3   OH2 7601   2.908   1.711   4.702
 2553TIP3    H1 7602   2.815   1.713   4.725
 2553TIP3    H2 7603   2.919   1.627   4.656
 2554TIP3   OH2 7604   4.649   5.706   1.630
 2554TIP3    H1 7605   4.720   5.645   1.648
 2554TIP3    H2 7606   4.665   5.779   1.690
 2555TIP3   OH2 7607   5.759   6.413   1.035
 2555TIP3    H1 7608   5.774   6.428   0.941
 2555TIP3    H2 7609   5.835   6.361   1.063
 2556TIP3   OH2 7610   7.322   6.110   4.591
 2556TIP3    H1 7611   7.281   6.149   4.668
 2556TIP3    H2 7612   7.325   6.180   4.527
 2557TIP3   OH2 7613   0.397   0.756   4.858
 2557TIP3    H1 7614   0.334   0.761   4.930
 2557TIP3    H2 7615   0.478   0.791   4.895
 2558TIP3   OH2 7616   5.998   3.728   0.966
 2558TIP3    H1 7617   5.978   3.813   0.928
 2558TIP3    H2 7618   6.047   3.682   0.898
 2559TIP3   OH2 7619   7.223   7.147   4.195
 2559TIP3    H1 7620   7.267   7.221   4.239
 2559TIP3    H2 7621   7.142   7.185   4.160
 2560TIP3   OH2 7622   3.063   6.883   3.646
 2560TIP3    H1 7623   3.099   6.806   3.601
 2560TIP3    H2 7624   3.100   6.879   3.734
 2561TIP3   OH2 7625   1.118   7.078   5.270
 2561TIP3    H1 7626   1.181   7.098   5.339
 2561TIP3    H2 7627   1.114   7.157   5.217
 2562TIP3   OH2 7628   6.646   4.801   2.245
 2562TIP3    H1 7629   6.628   4.892   2.221
 2562TIP3    H2 7630   6.571   4.776   2.300
 2563TIP3   OH2 7631   1.661   2.076   4.820
 2563TIP3    H1 7632   1.730   2.136   4.793
 2563TIP3    H2 7633   1.702   1.989   4.818
 2564TIP3   OH2 7634   5.028   0.978   2.546
 2564TIP3    H1 7635   5.033   1.051   2.485
 2564TIP3    H2 7636   4.937   0.976   2.575
 2565TIP3   OH2 7637   3.736   3.673   2.509
 2565TIP3    H1 7638   3.773   3.761   2.518
 2565TIP3    H2 7639   3.804   3.623   2.464
 2566TIP3   OH2 7640   1.188   5.585   1.324
 2566TIP3    H1 7641   1.115   5.576   1.262
 2566TIP3    H2 7642   1.238   5.504   1.313
 2567TIP3   OH2 7643   4.824   2.657   4.138
 2567TIP3    H1 7644   4.795   2.710   4.212
 2567TIP3    H2 7645   4.764   2.682   4.067
 2568TIP3   OH2 7646   3.950   7.654   2.367
 2568TIP3    H1 7647   4.029   7.611   2.334
 2568TIP3    H2 7648   3.921   7.598   2.439
 2569TIP3   OH2 7649   0.435   1.233   5.833
 2569TIP3    H1 7650   0.495   1.160   5.813
 2569TIP3    H2 7651   0.352   1.206   5.794
 2570TIP3   OH2 7652   4.897   4.306   5.020
 2570TIP3    H1 7653   4.958   4.278   5.088
 2570TIP3    H2 7654   4.935   4.273   4.939
 2571TIP3   OH2 7655   3.064   6.808   0.292
 2571TIP3    H1 7656   3.002   6.754   0.244
 2571TIP3    H2 7657   3.098   6.870   0.228
 2572TIP3   OH2 7658   4.445   4.171   1.146
 2572TIP3    H1 7659   4.480   4.153   1.233
 2572TIP3    H2 7660   4.361   4.123   1.143
 2573TIP3   OH2 7661   1.427   0.969   0.129
 2573TIP3    H1 7662   1.445   1.057   0.097
 2573TIP3    H2 7663   1.386   0.982   0.215
 2574TIP3   OH2 7664   3.356   7.596   3.265
 2574TIP3    H1 7665   3.265   7.581   3.291
 2574TIP3    H2 7666   3.383   7.515   3.222
 2575TIP3   OH2 7667   2.675   0.324   3.569
 2575TIP3    H1 7668   2.646   0.280   3.649
 2575TIP3    H2 7669   2.594   0.351   3.526
 2576TIP3   OH2 7670   3.650   5.947   4.841
 2576TIP3    H1 7671   3.581   5.888   4.812
 2576TIP3    H2 7672   3.610   5.997   4.913
 2577TIP3   OH2 7673   7.108   1.696   4.348
 2577TIP3    H1 7674   7.139   1.606   4.337
 2577TIP3    H2 7675   7.167   1.749   4.295
 2578TIP3   OH2 7676   1.643   7.569   4.678
 2578TIP3    H1 7677   1.608   7.608   4.597
 2578TIP3    H2 7678   1.566   7.558   4.734
 2579TIP3   OH2 7679   6.478   5.676   0.763
 2579TIP3    H1 7680   6.498   5.624   0.841
 2579TIP3    H2 7681   6.560   5.676   0.713
 2580TIP3   OH2 7682   1.458   1.301   1.001
 2580TIP3    H1 7683   1.418   1.227   1.047
 2580TIP3    H2 7684   1.526   1.261   0.946
 2581TIP3   OH2 7685   2.337   7.084   2.777
 2581TIP3    H1 7686   2.409   7.023   2.764
 2581TIP3    H2 7687   2.274   7.037   2.832
 2582TIP3   OH2 7688   5.689   2.134   4.452
 2582TIP3    H1 7689   5.661   2.084   4.375
 2582TIP3    H2 7690   5.616   2.127   4.513
 2583TIP3   OH2 7691   5.450   0.440   4.699
 2583TIP3    H1 7692   5.441   0.528   4.662
 2583TIP3    H2 7693   5.426   0.450   4.791
 2584TIP3   OH2 7694   2.719   4.599   5.584
 2584TIP3    H1 7695   2.720   4.643   5.499
 2584TIP3    H2 7696   2.811   4.599   5.612
 2585TIP3   OH2 7697   4.032   5.316   3.602
 2585TIP3    H1 7698   4.107   5.312   3.543
 2585TIP3    H2 7699   4.042   5.240   3.660
 2586TIP3   OH2 7700   1.675   3.924   2.922
 2586TIP3    H1 7701   1.631   3.866   2.984
 2586TIP3    H2 7702   1.609   3.941   2.854
 2587TIP3   OH2 7703   3.798   6.934   2.265
 2587TIP3    H1 7704   3.778   6.901   2.177
 2587TIP3    H2 7705   3.844   7.016   2.250
 2588TIP3   OH2 7706   8.296   4.469   2.499
 2588TIP3    H1 7707   8.260   4.470   2.587
 2588TIP3    H2 7708   8.349   4.549   2.493
 2589TIP3   OH2 7709   3.834   3.345   2.093
 2589TIP3    H1 7710   3.764   3.320   2.032
 2589TIP3    H2 7711   3.900   3.277   2.081
 2590TIP3   OH2 7712   8.103   1.252   4.827
 2590TIP3    H1 7713   8.168   1.275   4.893
 2590TIP3    H2 7714   8.102   1.327   4.767
 2591TIP3   OH2 7715   6.066   3.124   4.249
 2591TIP3    H1 7716   6.085   3.197   4.309
 2591TIP3    H2 7717   5.974   3.136   4.226
 2592TIP3   OH2 7718   6.331   1.688   2.897
 2592TIP3    H1 7719   6.274   1.673   2.822
 2592TIP3    H2 7720   6.333   1.604   2.943
 2593TIP3   OH2 7721   0.130   0.925   1.432
 2593TIP3    H1 7722   0.207   0.903   1.379
 2593TIP3    H2 7723   0.082   0.988   1.380
 2594TIP3   OH2 7724   2.516   5.368   0.742
 2594TIP3    H1 7725   2.494   5.410   0.825
 2594TIP3    H2 7726   2.495   5.433   0.676
 2595TIP3   OH2 7727   4.368   1.236   3.091
 2595TIP3    H1 7728   4.395   1.321   3.126
 2595TIP3    H2 7729   4.367   1.178   3.168
 2596TIP3   OH2 7730   6.708   0.256   5.887
 2596TIP3    H1 7731   6.736   0.298   5.806
 2596TIP3    H2 7732   6.697   0.164   5.864
 2597TIP3   OH2 7733   2.631   2.641   3.705
 2597TIP3    H1 7734   2.661   2.684   3.625
 2597TIP3    H2 7735   2.563   2.699   3.740
 2598TIP3   OH2 7736   4.905   1.520   5.910
 2598TIP3    H1 7737   4.993   1.547   5.882
 2598TIP3    H2 7738   4.901   1.542   6.003
 2599TIP3   OH2 7739   4.544   7.409   5.875
 2599TIP3    H1 7740   4.491   7.376   5.803
 2599TIP3    H2 7741   4.605   7.471   5.835
 2600TIP3   OH2 7742   8.195   3.145   5.911
 2600TIP3    H1 7743   8.244   3.072   5.950
 2600TIP3    H2 7744   8.259   3.216   5.905
 2601TIP3   OH2 7745   7.726   7.235   3.578
 2601TIP3    H1 7746   7.809   7.213   3.621
 2601TIP3    H2 7747   7.689   7.305   3.632
 2602TIP3   OH2 7748   2.457   4.561   0.757
 2602TIP3    H1 7749   2.423   4.637   0.710
 2602TIP3    H2 7750   2.491   4.504   0.687
 2603TIP3   OH2 7751   5.580   5.986   3.454
 2603TIP3    H1 7752   5.510   5.976   3.518
 2603TIP3    H2 7753   5.537   6.017   3.375
 2604TIP3   OH2 7754   7.004   4.276   3.898
 2604TIP3    H1 7755   7.028   4.230   3.818
 2604TIP3    H2 7756   7.088   4.294   3.941
 2605TIP3   OH2 7757   5.829   2.493   6.751
 2605TIP3    H1 7758   5.768   2.482   6.824
 2605TIP3    H2 7759   5.775   2.524   6.679
 2606TIP3   OH2 7760   4.951   2.183   1.782
 2606TIP3    H1 7761   5.039   2.146   1.787
 2606TIP3    H2 7762   4.961   2.263   1.731
 2607TIP3   OH2 7763   7.975   7.811   0.471
 2607TIP3    H1 7764   7.908   7.796   0.404
 2607TIP3    H2 7765   7.926   7.845   0.546
 2608TIP3   OH2 7766   4.789   3.549   2.077
 2608TIP3    H1 7767   4.842   3.606   2.020
 2608TIP3    H2 7768   4.793   3.463   2.036
 2609TIP3   OH2 7769   2.379   5.584   1.205
 2609TIP3    H1 7770   2.395   5.504   1.154
 2609TIP3    H2 7771   2.366   5.652   1.139
 2610TIP3   OH2 7772   7.941   5.699   6.670
 2610TIP3    H1 7773   8.022   5.725   6.626
 2610TIP3    H2 7774   7.917   5.774   6.724
 2611TIP3   OH2 7775   4.479   6.114   5.821
 2611TIP3    H1 7776   4.408   6.096   5.759
 2611TIP3    H2 7777   4.464   6.052   5.892
 2612TIP3   OH2 7778   5.566   0.164   6.553
 2612TIP3    H1 7779   5.474   0.139   6.560
 2612TIP3    H2 7780   5.586   0.208   6.636
 2613TIP3   OH2 7781   4.037   2.697   5.281
 2613TIP3    H1 7782   4.098   2.728   5.214
 2613TIP3    H2 7783   3.951   2.727   5.252
 2614TIP3   OH2 7784   0.514   4.876   1.796
 2614TIP3    H1 7785   0.475   4.923   1.722
 2614TIP3    H2 7786   0.462   4.797   1.805
 2615TIP3   OH2 7787   2.908   0.575   1.805
 2615TIP3    H1 7788   2.945   0.540   1.724
 2615TIP3    H2 7789   2.981   0.578   1.866
 2616TIP3   OH2 7790   6.853   3.563   3.935
 2616TIP3    H1 7791   6.894   3.648   3.922
 2616TIP3    H2 7792   6.840   3.528   3.847
 2617TIP3   OH2 7793   8.189   3.902  -0.003
 2617TIP3    H1 7794   8.238   3.942   0.070
 2617TIP3    H2 7795   8.236   3.821  -0.021
 2618TIP3   OH2 7796   4.656   3.412   1.550
 2618TIP3    H1 7797   4.589   3.365   1.500
 2618TIP3    H2 7798   4.607   3.459   1.618
 2619TIP3   OH2 7799   2.099   0.457   0.788
 2619TIP3    H1 7800   2.126   0.375   0.830
 2619TIP3    H2 7801   2.051   0.504   0.856
 2620TIP3   OH2 7802   2.609   7.796   4.621
 2620TIP3    H1 7803   2.650   7.722   4.666
 2620TIP3    H2 7804   2.550   7.756   4.558
 2621TIP3   OH2 7805   2.676   6.949   1.165
 2621TIP3    H1 7806   2.684   7.031   1.214
 2621TIP3    H2 7807   2.642   6.886   1.229
 2622TIP3   OH2 7808   0.160   2.470   0.056
 2622TIP3    H1 7809   0.103   2.545   0.040
 2622TIP3    H2 7810   0.202   2.489   0.140
 2623TIP3   OH2 7811   4.455   3.770   3.745
 2623TIP3    H1 7812   4.499   3.770   3.660
 2623TIP3    H2 7813   4.501   3.837   3.795
 2624TIP3   OH2 7814   0.679   4.932   6.740
 2624TIP3    H1 7815   0.766   4.929   6.780
 2624TIP3    H2 7816   0.692   4.899   6.651
 2625TIP3   OH2 7817   1.846   2.652   6.178
 2625TIP3    H1 7818   1.843   2.598   6.098
 2625TIP3    H2 7819   1.916   2.614   6.230
 2626TIP3   OH2 7820   1.457   1.302   2.513
 2626TIP3    H1 7821   1.537   1.342   2.547
 2626TIP3    H2 7822   1.416   1.371   2.461
 2627TIP3   OH2 7823   3.240   3.991   0.432
 2627TIP3    H1 7824   3.273   4.017   0.518
 2627TIP3    H2 7825   3.196   3.907   0.447
 2628TIP3   OH2 7826   5.298   2.240   3.012
 2628TIP3    H1 7827   5.330   2.301   2.946
 2628TIP3    H2 7828   5.362   2.245   3.083
 2629TIP3   OH2 7829   8.278   2.853   2.250
 2629TIP3    H1 7830   8.240   2.766   2.243
 2629TIP3    H2 7831   8.353   2.851   2.192
 2630TIP3   OH2 7832   4.142   6.678   1.043
 2630TIP3    H1 7833   4.090   6.757   1.058
 2630TIP3    H2 7834   4.207   6.703   0.977
 2631TIP3   OH2 7835   3.830   4.250   2.210
 2631TIP3    H1 7836   3.790   4.181   2.263
 2631TIP3    H2 7837   3.772   4.325   2.219
 2632TIP3   OH2 7838   1.360   7.209   6.170
 2632TIP3    H1 7839   1.380   7.145   6.102
 2632TIP3    H2 7840   1.301   7.271   6.128
 2633TIP3   OH2 7841   1.995   6.227   2.987
 2633TIP3    H1 7842   2.060   6.157   2.990
 2633TIP3    H2 7843   1.924   6.192   2.933
 2634TIP3   OH2 7844   6.024   1.324   5.397
 2634TIP3    H1 7845   6.090   1.381   5.359
 2634TIP3    H2 7846   6.074   1.262   5.450
 2635TIP3   OH2 7847   1.351   4.313   0.997
 2635TIP3    H1 7848   1.415   4.243   1.010
 2635TIP3    H2 7849   1.387   4.387   1.048
 2636TIP3   OH2 7850   0.164   1.512   4.203
 2636TIP3    H1 7851   0.085   1.472   4.166
 2636TIP3    H2 7852   0.135   1.596   4.237
 2637TIP3   OH2 7853   4.035   6.799   4.136
 2637TIP3    H1 7854   4.028   6.863   4.065
 2637TIP3    H2 7855   4.047   6.715   4.091
 2638TIP3   OH2 7856   7.106   2.663   3.165
 2638TIP3    H1 7857   7.013   2.669   3.143
 2638TIP3    H2 7858   7.120   2.571   3.187
 2639TIP3   OH2 7859   3.888   0.469   5.488
 2639TIP3    H1 7860   3.945   0.510   5.423
 2639TIP3    H2 7861   3.800   0.495   5.464
 2640TIP3   OH2 7862   4.708   2.391   1.407
 2640TIP3    H1 7863   4.778   2.455   1.414
 2640TIP3    H2 7864   4.703   2.371   1.313
 2641TIP3   OH2 7865   2.120   2.032   3.826
 2641TIP3    H1 7866   2.035   2.068   3.850
 2641TIP3    H2 7867   2.172   2.036   3.906
 2642TIP3   OH2 7868   0.707   7.138   2.939
 2642TIP3    H1 7869   0.703   7.043   2.945
 2642TIP3    H2 7870   0.689   7.157   2.847
 2643TIP3   OH2 7871   0.294   6.999   6.459
 2643TIP3    H1 7872   0.232   6.940   6.418
 2643TIP3    H2 7873   0.263   7.087   6.436
 2644TIP3   OH2 7874   1.049   4.578   0.241
 2644TIP3    H1 7875   0.988   4.549   0.174
 2644TIP3    H2 7876   1.122   4.517   0.235
 2645TIP3   OH2 7877   6.550   6.139   0.432
 2645TIP3    H1 7878   6.573   6.161   0.341
 2645TIP3    H2 7879   6.515   6.220   0.468
 2646TIP3   OH2 7880   1.601   4.752   5.114
 2646TIP3    H1 7881   1.627   4.660   5.116
 2646TIP3    H2 7882   1.505   4.750   5.113
 2647TIP3   OH2 7883   5.750   7.565   0.081
 2647TIP3    H1 7884   5.754   7.660   0.068
 2647TIP3    H2 7885   5.749   7.528  -0.007
 2648TIP3   OH2 7886   4.657   0.450   2.932
 2648TIP3    H1 7887   4.634   0.493   2.850
 2648TIP3    H2 7888   4.691   0.520   2.988
 2649TIP3   OH2 7889   5.887   0.376   2.790
 2649TIP3    H1 7890   5.912   0.306   2.852
 2649TIP3    H2 7891   5.880   0.454   2.844
 2650TIP3   OH2 7892   8.062   2.669   4.755
 2650TIP3    H1 7893   8.053   2.669   4.660
 2650TIP3    H2 7894   8.000   2.735   4.786
 2651TIP3   OH2 7895   8.328   1.317   5.365
 2651TIP3    H1 7896   8.265   1.377   5.404
 2651TIP3    H2 7897   8.301   1.230   5.396
 2652TIP3   OH2 7898   3.235   3.892   6.557
 2652TIP3    H1 7899   3.172   3.912   6.626
 2652TIP3    H2 7900   3.181   3.879   6.479
 2653TIP3   OH2 7901   1.164   3.579   4.452
 2653TIP3    H1 7902   1.080   3.548   4.484
 2653TIP3    H2 7903   1.145   3.659   4.405
 2654TIP3   OH2 7904   2.891   2.530   1.722
 2654TIP3    H1 7905   2.965   2.556   1.776
 2654TIP3    H2 7906   2.885   2.598   1.655
 2655TIP3   OH2 7907   2.384   5.775   0.052
 2655TIP3    H1 7908   2.434   5.856   0.046
 2655TIP3    H2 7909   2.344   5.764  -0.035
 2656TIP3   OH2 7910   7.236   6.303   4.393
 2656TIP3    H1 7911   7.320   6.341   4.370
 2656TIP3    H2 7912   7.208   6.352   4.471
 2657TIP3   OH2 7913   1.121   6.410   6.510
 2657TIP3    H1 7914   1.209   6.441   6.486
 2657TIP3    H2 7915   1.071   6.490   6.526
 2658TIP3   OH2 7916   7.811   7.587   1.845
 2658TIP3    H1 7917   7.906   7.595   1.837
 2658TIP3    H2 7918   7.797   7.500   1.881
 2659TIP3   OH2 7919   3.627   6.256   5.021
 2659TIP3    H1 7920   3.612   6.311   5.097
 2659TIP3    H2 7921   3.721   6.238   5.021
 2660TIP3   OH2 7922   1.939   1.380   0.371
 2660TIP3    H1 7923   1.867   1.432   0.407
 2660TIP3    H2 7924   2.013   1.440   0.368
 2661TIP3   OH2 7925   5.977   7.714   2.727
 2661TIP3    H1 7926   6.034   7.777   2.683
 2661TIP3    H2 7927   6.031   7.635   2.736
 2662TIP3   OH2 7928   3.192   7.650   5.826
 2662TIP3    H1 7929   3.098   7.631   5.827
 2662TIP3    H2 7930   3.207   7.691   5.740
 2663TIP3   OH2 7931   2.468   1.702   6.490
 2663TIP3    H1 7932   2.375   1.679   6.498
 2663TIP3    H2 7933   2.486   1.756   6.567
 2664TIP3   OH2 7934   7.267   1.296   3.553
 2664TIP3    H1 7935   7.320   1.349   3.612
 2664TIP3    H2 7936   7.331   1.250   3.498
 2665TIP3   OH2 7937   6.963   1.707   5.337
 2665TIP3    H1 7938   6.943   1.701   5.244
 2665TIP3    H2 7939   6.987   1.798   5.351
 2666TIP3   OH2 7940   6.574   2.806   6.543
 2666TIP3    H1 7941   6.664   2.782   6.520
 2666TIP3    H2 7942   6.530   2.722   6.556
 2667TIP3   OH2 7943   7.595   5.035   1.594
 2667TIP3    H1 7944   7.579   5.006   1.684
 2667TIP3    H2 7945   7.517   5.083   1.570
 2668TIP3   OH2 7946   3.968   0.691   3.453
 2668TIP3    H1 7947   3.914   0.702   3.375
 2668TIP3    H2 7948   3.968   0.597   3.470
 2669TIP3   OH2 7949   6.221   5.121   2.295
 2669TIP3    H1 7950   6.223   5.125   2.199
 2669TIP3    H2 7951   6.261   5.037   2.316
 2670TIP3   OH2 7952   1.603   6.693   6.490
 2670TIP3    H1 7953   1.689   6.670   6.455
 2670TIP3    H2 7954   1.573   6.765   6.434
 2671TIP3   OH2 7955   2.760   5.885   6.803
 2671TIP3    H1 7956   2.769   5.978   6.780
 2671TIP3    H2 7957   2.754   5.840   6.719
 2672TIP3   OH2 7958   0.787   0.938   2.647
 2672TIP3    H1 7959   0.711   0.989   2.616
 2672TIP3    H2 7960   0.755   0.848   2.652
 2673TIP3   OH2 7961   4.054   2.413   2.133
 2673TIP3    H1 7962   4.015   2.352   2.070
 2673TIP3    H2 7963   4.148   2.404   2.120
 2674TIP3   OH2 7964   4.574   0.515   4.736
 2674TIP3    H1 7965   4.517   0.440   4.746
 2674TIP3    H2 7966   4.656   0.489   4.778
 2675TIP3   OH2 7967   2.951   7.728   4.839
 2675TIP3    H1 7968   2.889   7.656   4.825
 2675TIP3    H2 7969   2.897   7.806   4.847
 2676TIP3   OH2 7970   1.659   5.841   6.562
 2676TIP3    H1 7971   1.698   5.887   6.488
 2676TIP3    H2 7972   1.712   5.867   6.638
 2677TIP3   OH2 7973   6.434   3.313   2.277
 2677TIP3    H1 7974   6.435   3.243   2.342
 2677TIP3    H2 7975   6.341   3.325   2.256
 2678TIP3   OH2 7976   7.877   6.475   1.695
 2678TIP3    H1 7977   7.826   6.404   1.734
 2678TIP3    H2 7978   7.859   6.550   1.751
 2679TIP3   OH2 7979   7.432   5.307   5.027
 2679TIP3    H1 7980   7.522   5.274   5.018
 2679TIP3    H2 7981   7.443   5.400   5.044
 2680TIP3   OH2 7982   5.931   6.798   6.498
 2680TIP3    H1 7983   5.933   6.783   6.404
 2680TIP3    H2 7984   5.852   6.850   6.513
 2681TIP3   OH2 7985   0.122   6.939   5.153
 2681TIP3    H1 7986   0.153   6.983   5.233
 2681TIP3    H2 7987   0.101   6.850   5.181
 2682TIP3   OH2 7988   0.555   7.733   5.658
 2682TIP3    H1 7989   0.634   7.679   5.661
 2682TIP3    H2 7990   0.483   7.671   5.650
 2683TIP3   OH2 7991   5.802   1.566   1.702
 2683TIP3    H1 7992   5.709   1.572   1.679
 2683TIP3    H2 7993   5.832   1.657   1.703
 2684TIP3   OH2 7994   1.693   0.899   3.818
 2684TIP3    H1 7995   1.778   0.906   3.775
 2684TIP3    H2 7996   1.701   0.955   3.895
 2685TIP3   OH2 7997   0.223   4.681   3.091
 2685TIP3    H1 7998   0.184   4.737   3.158
 2685TIP3    H2 7999   0.247   4.741   3.021
 2686TIP3   OH2 8000   0.378   5.036   6.577
 2686TIP3    H1 8001   0.380   4.949   6.616
 2686TIP3    H2 8002   0.365   5.095   6.652
 2687TIP3   OH2 8003   7.579   2.380   3.231
 2687TIP3    H1 8004   7.513   2.322   3.194
 2687TIP3    H2 8005   7.630   2.324   3.290
 2688TIP3   OH2 8006   7.138   5.179   1.760
 2688TIP3    H1 8007   7.130   5.191   1.855
 2688TIP3    H2 8008   7.200   5.246   1.732
 2689TIP3   OH2 8009   5.983   0.541   5.802
 2689TIP3    H1 8010   6.056   0.580   5.754
 2689TIP3    H2 8011   5.968   0.600   5.876
 2690TIP3   OH2 8012   4.703   2.719   2.307
 2690TIP3    H1 8013   4.784   2.669   2.311
 2690TIP3    H2 8014   4.712   2.776   2.231
 2691TIP3   OH2 8015   3.608   0.808   6.037
 2691TIP3    H1 8016   3.662   0.853   5.972
 2691TIP3    H2 8017   3.585   0.725   5.996
 2692TIP3   OH2 8018   1.980   4.619   0.911
 2692TIP3    H1 8019   2.010   4.709   0.920
 2692TIP3    H2 8020   2.058   4.566   0.926
 2693TIP3   OH2 8021   3.391   0.789   2.070
 2693TIP3    H1 8022   3.396   0.772   1.976
 2693TIP3    H2 8023   3.299   0.812   2.085
 2694TIP3   OH2 8024   3.423   1.402   4.928
 2694TIP3    H1 8025   3.414   1.340   4.855
 2694TIP3    H2 8026   3.486   1.467   4.898
 2695TIP3   OH2 8027   5.539   1.273   2.145
 2695TIP3    H1 8028   5.519   1.181   2.159
 2695TIP3    H2 8029   5.454   1.317   2.152
 2696TIP3   OH2 8030   2.158   6.734   3.801
 2696TIP3    H1 8031   2.124   6.750   3.889
 2696TIP3    H2 8032   2.252   6.750   3.808
 2697TIP3   OH2 8033   3.990   4.741   0.120
 2697TIP3    H1 8034   3.955   4.704   0.202
 2697TIP3    H2 8035   4.083   4.719   0.122
 2698TIP3   OH2 8036   7.921   5.948   2.391
 2698TIP3    H1 8037   7.850   5.894   2.426
 2698TIP3    H2 8038   7.965   5.983   2.469
 2699TIP3   OH2 8039   2.241   7.580   1.813
 2699TIP3    H1 8040   2.263   7.578   1.720
 2699TIP3    H2 8041   2.148   7.601   1.815
 2700TIP3   OH2 8042   1.516   4.119   2.149
 2700TIP3    H1 8043   1.594   4.097   2.097
 2700TIP3    H2 8044   1.550   4.171   2.221
 2701TIP3   OH2 8045   4.982   7.264   3.960
 2701TIP3    H1 8046   4.916   7.198   3.938
 2701TIP3    H2 8047   5.064   7.214   3.966
 2702TIP3   OH2 8048   7.779   6.291   4.521
 2702TIP3    H1 8049   7.830   6.345   4.581
 2702TIP3    H2 8050   7.804   6.201   4.543
 2703TIP3   OH2 8051   1.393   3.847   0.890
 2703TIP3    H1 8052   1.386   3.890   0.804
 2703TIP3    H2 8053   1.410   3.755   0.870
 2704TIP3   OH2 8054   7.732   3.874   5.536
 2704TIP3    H1 8055   7.757   3.960   5.502
 2704TIP3    H2 8056   7.812   3.839   5.576
 2705TIP3   OH2 8057   0.939   4.489   1.239
 2705TIP3    H1 8058   0.942   4.492   1.144
 2705TIP3    H2 8059   1.025   4.522   1.267
 2706TIP3   OH2 8060   1.431   2.637   0.265
 2706TIP3    H1 8061   1.510   2.673   0.305
 2706TIP3    H2 8062   1.400   2.706   0.206
 2707TIP3   OH2 8063   6.029   4.341   3.662
 2707TIP3    H1 8064   6.027   4.421   3.609
 2707TIP3    H2 8065   6.024   4.270   3.598
 2708TIP3   OH2 8066   2.251   5.312   5.044
 2708TIP3    H1 8067   2.170   5.304   4.993
 2708TIP3    H2 8068   2.297   5.230   5.028
 2709TIP3   OH2 8069   3.354   4.992   1.312
 2709TIP3    H1 8070   3.266   5.008   1.277
 2709TIP3    H2 8071   3.402   5.072   1.293
 2710TIP3   OH2 8072   8.139   1.117   2.136
 2710TIP3    H1 8073   8.173   1.163   2.213
 2710TIP3    H2 8074   8.102   1.036   2.171
 2711TIP3   OH2 8075   7.562   6.064   2.147
 2711TIP3    H1 8076   7.508   6.082   2.224
 2711TIP3    H2 8077   7.510   6.095   2.073
 2712TIP3   OH2 8078   0.688   1.878   5.061
 2712TIP3    H1 8079   0.725   1.922   5.138
 2712TIP3    H2 8080   0.597   1.908   5.059
 2713TIP3   OH2 8081   3.352   4.716   1.275
 2713TIP3    H1 8082   3.419   4.701   1.342
 2713TIP3    H2 8083   3.330   4.809   1.284
 2714TIP3   OH2 8084   2.921   6.441   5.472
 2714TIP3    H1 8085   2.913   6.348   5.451
 2714TIP3    H2 8086   2.855   6.484   5.417
 2715TIP3   OH2 8087   1.625   6.355   0.435
 2715TIP3    H1 8088   1.660   6.316   0.516
 2715TIP3    H2 8089   1.565   6.288   0.401
 2716TIP3   OH2 8090   0.163   1.930   6.228
 2716TIP3    H1 8091   0.105   1.977   6.168
 2716TIP3    H2 8092   0.191   1.996   6.291
 2717TIP3   OH2 8093   2.207   7.045   4.504
 2717TIP3    H1 8094   2.117   7.035   4.473
 2717TIP3    H2 8095   2.210   7.134   4.540
 2718TIP3   OH2 8096   0.468   0.949   0.751
 2718TIP3    H1 8097   0.546   0.964   0.698
 2718TIP3    H2 8098   0.452   0.855   0.747
 2719TIP3   OH2 8099   0.263   6.251   2.337
 2719TIP3    H1 8100   0.227   6.280   2.253
 2719TIP3    H2 8101   0.199   6.189   2.371
 2720TIP3   OH2 8102   1.872   6.863   0.875
 2720TIP3    H1 8103   1.968   6.862   0.868
 2720TIP3    H2 8104   1.853   6.801   0.945
 2721TIP3   OH2 8105   2.283   3.543   3.834
 2721TIP3    H1 8106   2.247   3.460   3.866
 2721TIP3    H2 8107   2.299   3.594   3.913
 2722TIP3   OH2 8108   5.377   0.404   0.200
 2722TIP3    H1 8109   5.377   0.451   0.283
 2722TIP3    H2 8110   5.310   0.448   0.148
 2723TIP3   OH2 8111   7.554   3.450   2.817
 2723TIP3    H1 8112   7.573   3.496   2.736
 2723TIP3    H2 8113   7.487   3.386   2.792
 2724TIP3   OH2 8114   5.447   2.927   5.753
 2724TIP3    H1 8115   5.516   2.861   5.751
 2724TIP3    H2 8116   5.487   3.004   5.712
 2725TIP3   OH2 8117   0.058   5.864   1.337
 2725TIP3    H1 8118   0.040   5.859   1.243
 2725TIP3    H2 8119  -0.017   5.822   1.378
 2726TIP3   OH2 8120   0.444   0.155   2.011
 2726TIP3    H1 8121   0.415   0.113   1.930
 2726TIP3    H2 8122   0.389   0.117   2.079
 2727TIP3   OH2 8123   4.250   7.213   3.454
 2727TIP3    H1 8124   4.312   7.284   3.437
 2727TIP3    H2 8125   4.164   7.250   3.434
 2728TIP3   OH2 8126   7.346   1.069   0.357
 2728TIP3    H1 8127   7.271   1.116   0.321
 2728TIP3    H2 8128   7.362   1.110   0.442
 2729TIP3   OH2 8129   3.559   3.827   2.195
 2729TIP3    H1 8130   3.598   3.913   2.179
 2729TIP3    H2 8131   3.560   3.784   2.109
 2730TIP3   OH2 8132   7.847   0.867   4.140
 2730TIP3    H1 8133   7.923   0.824   4.101
 2730TIP3    H2 8134   7.794   0.895   4.065
 2731TIP3   OH2 8135   5.663   5.583   1.947
 2731TIP3    H1 8136   5.584   5.529   1.943
 2731TIP3    H2 8137   5.633   5.665   1.988
 2732TIP3   OH2 8138   0.747   4.889   0.417
 2732TIP3    H1 8139   0.692   4.884   0.339
 2732TIP3    H2 8140   0.816   4.824   0.403
 2733TIP3   OH2 8141   6.407   5.371   4.101
 2733TIP3    H1 8142   6.486   5.320   4.115
 2733TIP3    H2 8143   6.355   5.320   4.039
 2734TIP3   OH2 8144   4.393   3.069   1.116
 2734TIP3    H1 8145   4.440   3.105   1.040
 2734TIP3    H2 8146   4.456   3.074   1.188
 2735TIP3   OH2 8147   7.506   0.607   4.950
 2735TIP3    H1 8148   7.477   0.680   4.896
 2735TIP3    H2 8149   7.553   0.648   5.023
 2736TIP3   OH2 8150   7.481   2.467   0.709
 2736TIP3    H1 8151   7.551   2.418   0.666
 2736TIP3    H2 8152   7.412   2.471   0.643
 2737TIP3   OH2 8153   3.988   6.015   2.602
 2737TIP3    H1 8154   3.906   5.975   2.574
 2737TIP3    H2 8155   3.971   6.109   2.599
 2738TIP3   OH2 8156   7.135   2.638   4.444
 2738TIP3    H1 8157   7.223   2.659   4.413
 2738TIP3    H2 8158   7.077   2.678   4.380
 2739TIP3   OH2 8159   6.178   7.607   2.317
 2739TIP3    H1 8160   6.134   7.538   2.366
 2739TIP3    H2 8161   6.118   7.629   2.246
 2740TIP3   OH2 8162   5.159   1.169   4.912
 2740TIP3    H1 8163   5.102   1.219   4.970
 2740TIP3    H2 8164   5.246   1.175   4.952
 2741TIP3   OH2 8165   0.165   6.015   0.424
 2741TIP3    H1 8166   0.248   5.979   0.394
 2741TIP3    H2 8167   0.141   5.959   0.498
 2742TIP3   OH2 8168   5.852   1.909   6.521
 2742TIP3    H1 8169   5.823   1.968   6.591
 2742TIP3    H2 8170   5.947   1.922   6.516
 2743TIP3   OH2 8171   0.710   3.178   4.849
 2743TIP3    H1 8172   0.712   3.083   4.856
 2743TIP3    H2 8173   0.624   3.197   4.810
 2744TIP3   OH2 8174   5.093   1.352   2.793
 2744TIP3    H1 8175   5.173   1.359   2.742
 2744TIP3    H2 8176   5.025   1.333   2.729
 2745TIP3   OH2 8177   4.534   7.530   5.499
 2745TIP3    H1 8178   4.609   7.487   5.459
 2745TIP3    H2 8179   4.469   7.461   5.507
 2746TIP3   OH2 8180   6.681   3.981   1.805
 2746TIP3    H1 8181   6.741   4.039   1.758
 2746TIP3    H2 8182   6.598   3.988   1.757
 2747TIP3   OH2 8183   7.075   5.146   0.917
 2747TIP3    H1 8184   7.007   5.087   0.948
 2747TIP3    H2 8185   7.138   5.090   0.872
 2748TIP3   OH2 8186   6.166   0.830   2.426
 2748TIP3    H1 8187   6.211   0.915   2.428
 2748TIP3    H2 8188   6.230   0.769   2.462
 2749TIP3   OH2 8189   2.954   0.002   6.439
 2749TIP3    H1 8190   3.011   0.023   6.365
 2749TIP3    H2 8191   2.923   0.087   6.470
 2750TIP3   OH2 8192   3.767   7.627   3.733
 2750TIP3    H1 8193   3.754   7.661   3.821
 2750TIP3    H2 8194   3.741   7.535   3.738
 2751TIP3   OH2 8195   3.456   5.018   3.080
 2751TIP3    H1 8196   3.452   5.014   3.175
 2751TIP3    H2 8197   3.460   5.111   3.059
 2752TIP3   OH2 8198   0.280   6.506   5.347
 2752TIP3    H1 8199   0.340   6.471   5.282
 2752TIP3    H2 8200   0.336   6.540   5.417
 2753TIP3   OH2 8201   6.974   0.793   3.016
 2753TIP3    H1 8202   7.019   0.855   2.958
 2753TIP3    H2 8203   7.024   0.712   3.007
 2754TIP3   OH2 8204   2.982   4.724   2.331
 2754TIP3    H1 8205   3.071   4.709   2.298
 2754TIP3    H2 8206   2.968   4.818   2.319
 2755TIP3   OH2 8207   6.547   6.946   3.305
 2755TIP3    H1 8208   6.487   6.922   3.375
 2755TIP3    H2 8209   6.496   6.935   3.224
 2756TIP3   OH2 8210   3.226   5.756   0.096
 2756TIP3    H1 8211   3.231   5.719   0.008
 2756TIP3    H2 8212   3.136   5.741   0.124
 2757TIP3   OH2 8213   3.616   5.436   0.140
 2757TIP3    H1 8214   3.611   5.389   0.056
 2757TIP3    H2 8215   3.563   5.514   0.126
 2758TIP3   OH2 8216   0.114   2.538   1.276
 2758TIP3    H1 8217   0.150   2.519   1.362
 2758TIP3    H2 8218   0.058   2.463   1.256
 2759TIP3   OH2 8219   6.226   1.003   3.744
 2759TIP3    H1 8220   6.291   0.943   3.705
 2759TIP3    H2 8221   6.167   0.945   3.793
 2760TIP3   OH2 8222   1.221   6.268   1.226
 2760TIP3    H1 8223   1.244   6.311   1.143
 2760TIP3    H2 8224   1.125   6.273   1.228
 2761TIP3   OH2 8225   4.358   1.175   2.557
 2761TIP3    H1 8226   4.366   1.182   2.652
 2761TIP3    H2 8227   4.306   1.251   2.532
 2762TIP3   OH2 8228   6.568   2.793   2.893
 2762TIP3    H1 8229   6.486   2.766   2.853
 2762TIP3    H2 8230   6.543   2.852   2.963
 2763TIP3   OH2 8231   6.014   1.522   4.765
 2763TIP3    H1 8232   6.030   1.455   4.832
 2763TIP3    H2 8233   6.031   1.476   4.682
 2764TIP3   OH2 8234   0.919   1.992   0.575
 2764TIP3    H1 8235   0.998   2.033   0.540
 2764TIP3    H2 8236   0.927   1.900   0.551
 2765TIP3   OH2 8237   0.509   5.851   1.080
 2765TIP3    H1 8238   0.572   5.781   1.063
 2765TIP3    H2 8239   0.542   5.926   1.031
 2766TIP3   OH2 8240   0.273   1.237   6.755
 2766TIP3    H1 8241   0.264   1.151   6.714
 2766TIP3    H2 8242   0.268   1.220   6.849
 2767TIP3   OH2 8243   2.628   7.243   2.069
 2767TIP3    H1 8244   2.594   7.169   2.119
 2767TIP3    H2 8245   2.671   7.203   1.993
 2768TIP3   OH2 8246   2.838   3.145   6.123
 2768TIP3    H1 8247   2.826   3.228   6.170
 2768TIP3    H2 8248   2.900   3.167   6.052
 2769TIP3   OH2 8249   3.530   1.478   0.465
 2769TIP3    H1 8250   3.560   1.536   0.536
 2769TIP3    H2 8251   3.441   1.509   0.446
 2770TIP3   OH2 8252   2.293   0.144   6.520
 2770TIP3    H1 8253   2.279   0.136   6.614
 2770TIP3    H2 8254   2.388   0.156   6.511
 2771TIP3   OH2 8255   7.104   5.162   3.593
 2771TIP3    H1 8256   7.039   5.168   3.524
 2771TIP3    H2 8257   7.185   5.136   3.548
 2772TIP3   OH2 8258   7.864   6.148   1.395
 2772TIP3    H1 8259   7.817   6.092   1.457
 2772TIP3    H2 8260   7.947   6.102   1.380
 2773TIP3   OH2 8261   7.560   3.046   5.032
 2773TIP3    H1 8262   7.559   2.983   5.104
 2773TIP3    H2 8263   7.638   3.099   5.048
 2774TIP3   OH2 8264   6.669   2.943   2.549
 2774TIP3    H1 8265   6.754   2.903   2.570
 2774TIP3    H2 8266   6.690   3.033   2.526
 2775TIP3   OH2 8267   2.078   0.714   2.034
 2775TIP3    H1 8268   2.124   0.689   1.954
 2775TIP3    H2 8269   2.037   0.633   2.065
 2776TIP3   OH2 8270   6.772   6.245   0.827
 2776TIP3    H1 8271   6.852   6.247   0.774
 2776TIP3    H2 8272   6.778   6.322   0.883
 2777TIP3   OH2 8273   7.530   7.782   6.644
 2777TIP3    H1 8274   7.594   7.741   6.587
 2777TIP3    H2 8275   7.558   7.758   6.733
 2778TIP3   OH2 8276   1.415   1.987   4.896
 2778TIP3    H1 8277   1.440   1.902   4.932
 2778TIP3    H2 8278   1.499   2.027   4.869
 2779TIP3   OH2 8279   5.802   7.594   1.935
 2779TIP3    H1 8280   5.810   7.667   1.874
 2779TIP3    H2 8281   5.750   7.529   1.888
 2780TIP3   OH2 8282   8.294   1.094   1.287
 2780TIP3    H1 8283   8.236   1.146   1.343
 2780TIP3    H2 8284   8.304   1.146   1.207
 2781TIP3   OH2 8285   3.088   4.330   6.056
 2781TIP3    H1 8286   3.083   4.419   6.091
 2781TIP3    H2 8287   2.997   4.304   6.044
 2782TIP3   OH2 8288   6.216   3.751   3.984
 2782TIP3    H1 8289   6.245   3.675   4.035
 2782TIP3    H2 8290   6.258   3.740   3.899
 2783TIP3   OH2 8291   7.212   2.920   5.698
 2783TIP3    H1 8292   7.167   2.992   5.741
 2783TIP3    H2 8293   7.146   2.877   5.644
 2784TIP3   OH2 8294   6.847   0.336   2.427
 2784TIP3    H1 8295   6.820   0.303   2.513
 2784TIP3    H2 8296   6.798   0.283   2.364
 2785TIP3   OH2 8297   3.527   0.257   0.506
 2785TIP3    H1 8298   3.530   0.164   0.529
 2785TIP3    H2 8299   3.513   0.301   0.590
 2786TIP3   OH2 8300   0.319   1.403   0.508
 2786TIP3    H1 8301   0.400   1.383   0.461
 2786TIP3    H2 8302   0.254   1.416   0.439
 2787TIP3   OH2 8303   3.742   5.133   3.939
 2787TIP3    H1 8304   3.706   5.202   3.883
 2787TIP3    H2 8305   3.797   5.179   4.002
 2788TIP3   OH2 8306   0.803   1.589   6.601
 2788TIP3    H1 8307   0.859   1.515   6.576
 2788TIP3    H2 8308   0.860   1.666   6.592
 2789TIP3   OH2 8309   5.527   3.535   3.447
 2789TIP3    H1 8310   5.463   3.495   3.389
 2789TIP3    H2 8311   5.557   3.463   3.503
 2790TIP3   OH2 8312   2.678   0.393   2.571
 2790TIP3    H1 8313   2.725   0.476   2.564
 2790TIP3    H2 8314   2.593   0.410   2.531
 2791TIP3   OH2 8315   0.175   1.492   3.503
 2791TIP3    H1 8316   0.145   1.456   3.586
 2791TIP3    H2 8317   0.221   1.572   3.528
 2792TIP3   OH2 8318   5.925   0.571   1.521
 2792TIP3    H1 8319   5.873   0.619   1.586
 2792TIP3    H2 8320   5.885   0.595   1.437
 2793TIP3   OH2 8321   4.073   4.345   1.278
 2793TIP3    H1 8322   4.091   4.419   1.335
 2793TIP3    H2 8323   4.053   4.385   1.193
 2794TIP3   OH2 8324   4.707   5.435   2.333
 2794TIP3    H1 8325   4.744   5.523   2.326
 2794TIP3    H2 8326   4.783   5.378   2.339
 2795TIP3   OH2 8327   4.230   5.066   6.703
 2795TIP3    H1 8328   4.232   5.091   6.611
 2795TIP3    H2 8329   4.221   5.148   6.751
 2796TIP3   OH2 8330   6.771   5.256   6.393
 2796TIP3    H1 8331   6.717   5.210   6.328
 2796TIP3    H2 8332   6.771   5.199   6.469
 2797TIP3   OH2 8333   2.073   0.192   6.310
 2797TIP3    H1 8334   2.144   0.148   6.263
 2797TIP3    H2 8335   2.112   0.275   6.340
 2798TIP3   OH2 8336   1.566   6.075   1.737
 2798TIP3    H1 8337   1.479   6.037   1.727
 2798TIP3    H2 8338   1.595   6.093   1.647
 2799TIP3   OH2 8339   3.565   7.613   1.182
 2799TIP3    H1 8340   3.582   7.525   1.215
 2799TIP3    H2 8341   3.481   7.605   1.137
 2800TIP3   OH2 8342   5.665   2.781   1.366
 2800TIP3    H1 8343   5.724   2.815   1.298
 2800TIP3    H2 8344   5.697   2.820   1.447
 2801TIP3   OH2 8345   6.468   5.269   2.372
 2801TIP3    H1 8346   6.390   5.305   2.414
 2801TIP3    H2 8347   6.535   5.336   2.384
 2802TIP3   OH2 8348   4.601   5.602   0.405
 2802TIP3    H1 8349   4.675   5.621   0.463
 2802TIP3    H2 8350   4.570   5.516   0.433
 2803TIP3   OH2 8351   0.826   1.872   1.579
 2803TIP3    H1 8352   0.817   1.797   1.638
 2803TIP3    H2 8353   0.737   1.906   1.570
 2804TIP3   OH2 8354   1.844   5.640   5.698
 2804TIP3    H1 8355   1.791   5.684   5.765
 2804TIP3    H2 8356   1.847   5.548   5.726
 2805TIP3   OH2 8357   7.838   2.858   2.280
 2805TIP3    H1 8358   7.752   2.820   2.263
 2805TIP3    H2 8359   7.823   2.918   2.353
 2806TIP3   OH2 8360   7.109   0.587   4.440
 2806TIP3    H1 8361   7.016   0.566   4.436
 2806TIP3    H2 8362   7.114   0.681   4.424
 2807TIP3   OH2 8363   0.609   1.984   5.334
 2807TIP3    H1 8364   0.526   1.936   5.335
 2807TIP3    H2 8365   0.591   2.062   5.282
 2808TIP3   OH2 8366   4.834   1.858   5.316
 2808TIP3    H1 8367   4.878   1.934   5.354
 2808TIP3    H2 8368   4.864   1.784   5.368
 2809TIP3   OH2 8369   3.729   4.977   4.517
 2809TIP3    H1 8370   3.710   4.901   4.571
 2809TIP3    H2 8371   3.717   5.052   4.575
 2810TIP3   OH2 8372   6.037   4.568   3.520
 2810TIP3    H1 8373   6.027   4.639   3.583
 2810TIP3    H2 8374   6.000   4.602   3.438
 2811TIP3   OH2 8375   7.168   3.337   3.246
 2811TIP3    H1 8376   7.252   3.358   3.287
 2811TIP3    H2 8377   7.119   3.290   3.313
 2812TIP3   OH2 8378   5.612   0.604   0.910
 2812TIP3    H1 8379   5.699   0.643   0.902
 2812TIP3    H2 8380   5.575   0.645   0.989
 2813TIP3   OH2 8381   4.121   6.807   0.161
 2813TIP3    H1 8382   4.120   6.885   0.106
 2813TIP3    H2 8383   4.031   6.775   0.158
 2814TIP3   OH2 8384   2.431   6.862   3.244
 2814TIP3    H1 8385   2.381   6.792   3.288
 2814TIP3    H2 8386   2.517   6.859   3.285
 2815TIP3   OH2 8387   1.658   0.365   6.643
 2815TIP3    H1 8388   1.742   0.319   6.651
 2815TIP3    H2 8389   1.639   0.363   6.550
 2816TIP3   OH2 8390   3.178   0.142   5.050
 2816TIP3    H1 8391   3.117   0.074   5.078
 2816TIP3    H2 8392   3.141   0.177   4.969
 2817TIP3   OH2 8393   6.203   0.507   1.475
 2817TIP3    H1 8394   6.236   0.509   1.385
 2817TIP3    H2 8395   6.124   0.560   1.473
 2818TIP3   OH2 8396   3.118   0.585   0.135
 2818TIP3    H1 8397   3.120   0.616   0.045
 2818TIP3    H2 8398   3.030   0.608   0.167
 2819TIP3   OH2 8399   2.865   5.333   0.389
 2819TIP3    H1 8400   2.931   5.316   0.321
 2819TIP3    H2 8401   2.806   5.397   0.349
 2820TIP3   OH2 8402   7.468   2.190   6.655
 2820TIP3    H1 8403   7.429   2.277   6.664
 2820TIP3    H2 8404   7.419   2.149   6.584
 2821TIP3   OH2 8405   4.153   1.793   1.536
 2821TIP3    H1 8406   4.183   1.882   1.516
 2821TIP3    H2 8407   4.093   1.804   1.609
 2822TIP3   OH2 8408   5.140   5.016   0.928
 2822TIP3    H1 8409   5.163   4.941   0.983
 2822TIP3    H2 8410   5.129   5.088   0.990
 2823TIP3   OH2 8411   4.738   2.861   5.207
 2823TIP3    H1 8412   4.787   2.779   5.201
 2823TIP3    H2 8413   4.664   2.849   5.148
 2824TIP3   OH2 8414   0.608   2.969   2.859
 2824TIP3    H1 8415   0.649   2.884   2.845
 2824TIP3    H2 8416   0.638   3.022   2.785
 2825TIP3   OH2 8417   0.369   3.566   4.868
 2825TIP3    H1 8418   0.418   3.492   4.832
 2825TIP3    H2 8419   0.436   3.627   4.897
 2826TIP3   OH2 8420   2.043   1.127   4.397
 2826TIP3    H1 8421   2.079   1.064   4.334
 2826TIP3    H2 8422   2.021   1.204   4.345
 2827TIP3   OH2 8423   6.234   4.555   1.772
 2827TIP3    H1 8424   6.219   4.531   1.680
 2827TIP3    H2 8425   6.146   4.563   1.809
 2828TIP3   OH2 8426   2.074   0.734   0.066
 2828TIP3    H1 8427   2.117   0.814   0.096
 2828TIP3    H2 8428   2.142   0.666   0.072
 2829TIP3   OH2 8429   2.690   1.469   4.845
 2829TIP3    H1 8430   2.767   1.413   4.834
 2829TIP3    H2 8431   2.639   1.455   4.765
 2830TIP3   OH2 8432   3.985   7.071   3.651
 2830TIP3    H1 8433   3.943   7.157   3.652
 2830TIP3    H2 8434   4.001   7.054   3.558
 2831TIP3   OH2 8435   5.309   3.379   3.024
 2831TIP3    H1 8436   5.345   3.456   3.068
 2831TIP3    H2 8437   5.310   3.311   3.091
 2832TIP3   OH2 8438   4.579   3.695   2.144
 2832TIP3    H1 8439   4.672   3.679   2.128
 2832TIP3    H2 8440   4.578   3.750   2.222
 2833TIP3   OH2 8441   1.676   4.556   4.359
 2833TIP3    H1 8442   1.745   4.512   4.309
 2833TIP3    H2 8443   1.661   4.638   4.312
 2834TIP3   OH2 8444   1.454   5.756   0.547
 2834TIP3    H1 8445   1.539   5.754   0.590
 2834TIP3    H2 8446   1.474   5.761   0.453
 2835TIP3   OH2 8447   1.677   2.347   0.633
 2835TIP3    H1 8448   1.594   2.385   0.662
 2835TIP3    H2 8449   1.687   2.379   0.543
 2836TIP3   OH2 8450   0.233   5.145   2.333
 2836TIP3    H1 8451   0.229   5.131   2.238
 2836TIP3    H2 8452   0.142   5.156   2.360
 2837TIP3   OH2 8453   0.665   0.318   4.482
 2837TIP3    H1 8454   0.581   0.276   4.463
 2837TIP3    H2 8455   0.731   0.258   4.448
 2838TIP3   OH2 8456   4.720   1.966   0.556
 2838TIP3    H1 8457   4.753   2.007   0.636
 2838TIP3    H2 8458   4.633   2.004   0.544
 2839TIP3   OH2 8459   1.957   6.483   1.833
 2839TIP3    H1 8460   2.026   6.446   1.888
 2839TIP3    H2 8461   1.875   6.454   1.874
 2840TIP3   OH2 8462   7.938   4.640   0.849
 2840TIP3    H1 8463   7.937   4.544   0.849
 2840TIP3    H2 8464   8.030   4.663   0.860
 2841TIP3   OH2 8465   5.342   4.350   0.728
 2841TIP3    H1 8466   5.317   4.429   0.776
 2841TIP3    H2 8467   5.333   4.373   0.636
 2842TIP3   OH2 8468   4.242   2.558   1.255
 2842TIP3    H1 8469   4.334   2.546   1.278
 2842TIP3    H2 8470   4.194   2.543   1.337
 2843TIP3   OH2 8471   0.602   4.332   2.798
 2843TIP3    H1 8472   0.636   4.243   2.798
 2843TIP3    H2 8473   0.518   4.326   2.843
 2844TIP3   OH2 8474   4.296   7.327   4.772
 2844TIP3    H1 8475   4.378   7.337   4.820
 2844TIP3    H2 8476   4.261   7.243   4.803
 2845TIP3   OH2 8477   6.395   2.412   1.821
 2845TIP3    H1 8478   6.454   2.483   1.800
 2845TIP3    H2 8479   6.444   2.356   1.882
 2846TIP3   OH2 8480   6.082   6.810   3.844
 2846TIP3    H1 8481   6.012   6.855   3.892
 2846TIP3    H2 8482   6.079   6.720   3.876
 2847TIP3   OH2 8483   1.292   3.840   4.752
 2847TIP3    H1 8484   1.316   3.876   4.837
 2847TIP3    H2 8485   1.370   3.794   4.722
 2848TIP3   OH2 8486   4.822   0.479   6.461
 2848TIP3    H1 8487   4.827   0.383   6.464
 2848TIP3    H2 8488   4.899   0.508   6.509
 2849TIP3   OH2 8489   1.106   4.978   6.730
 2849TIP3    H1 8490   1.175   4.956   6.793
 2849TIP3    H2 8491   1.153   5.002   6.650
 2850TIP3   OH2 8492   7.876   7.312   1.097
 2850TIP3    H1 8493   7.878   7.248   1.168
 2850TIP3    H2 8494   7.811   7.279   1.035
 2851TIP3   OH2 8495   7.196   6.112   5.750
 2851TIP3    H1 8496   7.215   6.204   5.769
 2851TIP3    H2 8497   7.101   6.105   5.757
 2852TIP3   OH2 8498   5.802   6.132   3.589
 2852TIP3    H1 8499   5.857   6.099   3.518
 2852TIP3    H2 8500   5.712   6.110   3.562
 2853TIP3   OH2 8501   0.186   1.826   0.189
 2853TIP3    H1 8502   0.265   1.798   0.144
 2853TIP3    H2 8503   0.138   1.877   0.124
 2854TIP3   OH2 8504   0.663   2.438   5.268
 2854TIP3    H1 8505   0.649   2.465   5.359
 2854TIP3    H2 8506   0.614   2.357   5.259
 2855TIP3   OH2 8507   6.653   5.272   4.161
 2855TIP3    H1 8508   6.725   5.237   4.214
 2855TIP3    H2 8509   6.675   5.247   4.072
 2856TIP3   OH2 8510   0.513   5.164   4.303
 2856TIP3    H1 8511   0.473   5.143   4.387
 2856TIP3    H2 8512   0.461   5.237   4.269
 2857TIP3   OH2 8513   5.146   2.958   5.284
 2857TIP3    H1 8514   5.126   2.877   5.331
 2857TIP3    H2 8515   5.152   3.025   5.353
 2858TIP3   OH2 8516   5.029   4.175   4.820
 2858TIP3    H1 8517   5.052   4.129   4.901
 2858TIP3    H2 8518   5.097   4.149   4.758
 2859TIP3   OH2 8519   6.489   3.889   2.964
 2859TIP3    H1 8520   6.519   3.817   2.908
 2859TIP3    H2 8521   6.394   3.893   2.949
 2860TIP3   OH2 8522   5.596   0.852   2.189
 2860TIP3    H1 8523   5.529   0.914   2.220
 2860TIP3    H2 8524   5.679   0.894   2.213
 2861TIP3   OH2 8525   3.516   4.094   1.400
 2861TIP3    H1 8526   3.599   4.049   1.389
 2861TIP3    H2 8527   3.518   4.165   1.336
 2862TIP3   OH2 8528   1.167   6.602   2.909
 2862TIP3    H1 8529   1.258   6.629   2.908
 2862TIP3    H2 8530   1.147   6.582   2.817
 2863TIP3   OH2 8531   0.981   1.660   0.914
 2863TIP3    H1 8532   1.034   1.716   0.971
 2863TIP3    H2 8533   1.034   1.649   0.835
 2864TIP3   OH2 8534   6.440   7.160   6.617
 2864TIP3    H1 8535   6.457   7.066   6.621
 2864TIP3    H2 8536   6.454   7.183   6.525
 2865TIP3   OH2 8537   1.090   0.542   2.811
 2865TIP3    H1 8538   1.099   0.632   2.780
 2865TIP3    H2 8539   0.995   0.526   2.813
 2866TIP3   OH2 8540   3.766   5.314   6.061
 2866TIP3    H1 8541   3.804   5.400   6.080
 2866TIP3    H2 8542   3.842   5.257   6.049
 2867TIP3   OH2 8543   5.377   1.874   1.143
 2867TIP3    H1 8544   5.468   1.903   1.141
 2867TIP3    H2 8545   5.362   1.838   1.055
 2868TIP3   OH2 8546   0.852   6.485   2.823
 2868TIP3    H1 8547   0.932   6.508   2.775
 2868TIP3    H2 8548   0.871   6.398   2.858
 2869TIP3   OH2 8549   4.245   3.727   2.181
 2869TIP3    H1 8550   4.260   3.669   2.106
 2869TIP3    H2 8551   4.284   3.680   2.255
 2870TIP3   OH2 8552   7.629   7.707   6.210
 2870TIP3    H1 8553   7.553   7.740   6.160
 2870TIP3    H2 8554   7.705   7.737   6.160
 2871TIP3   OH2 8555   4.043   5.236   5.656
 2871TIP3    H1 8556   3.962   5.189   5.638
 2871TIP3    H2 8557   4.015   5.325   5.677
 2872TIP3   OH2 8558   4.027   3.119   0.418
 2872TIP3    H1 8559   4.089   3.059   0.459
 2872TIP3    H2 8560   4.001   3.178   0.489
 2873TIP3   OH2 8561   3.056   7.281   4.716
 2873TIP3    H1 8562   3.025   7.328   4.794
 2873TIP3    H2 8563   2.977   7.263   4.666
 2874TIP3   OH2 8564   5.181   6.884   3.131
 2874TIP3    H1 8565   5.153   6.856   3.218
 2874TIP3    H2 8566   5.238   6.959   3.147
 2875TIP3   OH2 8567   0.254   3.428   3.289
 2875TIP3    H1 8568   0.291   3.341   3.282
 2875TIP3    H2 8569   0.298   3.468   3.364
 2876TIP3   OH2 8570   7.908   6.887   6.457
 2876TIP3    H1 8571   8.004   6.889   6.453
 2876TIP3    H2 8572   7.885   6.951   6.524
 2877TIP3   OH2 8573   4.855   7.781   3.536
 2877TIP3    H1 8574   4.841   7.687   3.534
 2877TIP3    H2 8575   4.795   7.816   3.470
 2878TIP3   OH2 8576   5.836   1.171   3.537
 2878TIP3    H1 8577   5.793   1.142   3.618
 2878TIP3    H2 8578   5.925   1.194   3.563
 2879TIP3   OH2 8579   0.198   1.452   0.274
 2879TIP3    H1 8580   0.120   1.398   0.292
 2879TIP3    H2 8581   0.229   1.421   0.189
 2880TIP3   OH2 8582   2.023   3.263   0.184
 2880TIP3    H1 8583   2.058   3.179   0.155
 2880TIP3    H2 8584   2.100   3.309   0.219
 2881TIP3   OH2 8585   1.612   2.777   1.372
 2881TIP3    H1 8586   1.601   2.683   1.361
 2881TIP3    H2 8587   1.596   2.814   1.285
 2882TIP3   OH2 8588   6.419   2.388   2.636
 2882TIP3    H1 8589   6.437   2.450   2.566
 2882TIP3    H2 8590   6.327   2.404   2.659
 2883TIP3   OH2 8591   4.500   7.325   6.328
 2883TIP3    H1 8592   4.437   7.351   6.261
 2883TIP3    H2 8593   4.583   7.316   6.281
 2884TIP3   OH2 8594   2.937   2.162   6.256
 2884TIP3    H1 8595   2.885   2.101   6.309
 2884TIP3    H2 8596   2.943   2.121   6.170
 2885TIP3   OH2 8597   7.633   1.541   5.279
 2885TIP3    H1 8598   7.557   1.485   5.260
 2885TIP3    H2 8599   7.598   1.629   5.284
 2886TIP3   OH2 8600   4.301   2.452   2.371
 2886TIP3    H1 8601   4.273   2.365   2.342
 2886TIP3    H2 8602   4.396   2.447   2.375
 2887TIP3   OH2 8603   7.960   7.748   5.673
 2887TIP3    H1 8604   7.893   7.726   5.609
 2887TIP3    H2 8605   8.041   7.712   5.636
 2888TIP3   OH2 8606   4.647   3.068   1.554
 2888TIP3    H1 8607   4.562   3.023   1.557
 2888TIP3    H2 8608   4.674   3.063   1.463
 2889TIP3   OH2 8609   7.764   1.055   1.256
 2889TIP3    H1 8610   7.762   1.107   1.176
 2889TIP3    H2 8611   7.773   0.964   1.226
 2890TIP3   OH2 8612   7.288   6.625   1.549
 2890TIP3    H1 8613   7.287   6.707   1.600
 2890TIP3    H2 8614   7.210   6.578   1.578
 2891TIP3   OH2 8615   6.705   2.717   5.011
 2891TIP3    H1 8616   6.692   2.635   5.057
 2891TIP3    H2 8617   6.687   2.696   4.919
 2892TIP3   OH2 8618   7.900   2.496   5.926
 2892TIP3    H1 8619   7.813   2.482   5.888
 2892TIP3    H2 8620   7.935   2.572   5.879
 2893TIP3   OH2 8621   0.240   4.586   2.467
 2893TIP3    H1 8622   0.247   4.616   2.376
 2893TIP3    H2 8623   0.324   4.543   2.484
 2894TIP3   OH2 8624   7.342   7.385   2.736
 2894TIP3    H1 8625   7.421   7.405   2.687
 2894TIP3    H2 8626   7.357   7.298   2.772
 2895TIP3   OH2 8627   5.636   0.179   3.832
 2895TIP3    H1 8628   5.669   0.263   3.863
 2895TIP3    H2 8629   5.585   0.201   3.754
 2896TIP3   OH2 8630   2.205   0.942   3.573
 2896TIP3    H1 8631   2.208   1.030   3.536
 2896TIP3    H2 8632   2.204   0.884   3.498
 2897TIP3   OH2 8633   8.200   7.746   6.538
 2897TIP3    H1 8634   8.288   7.711   6.527
 2897TIP3    H2 8635   8.157   7.684   6.596
 2898TIP3   OH2 8636   0.382   1.685   3.604
 2898TIP3    H1 8637   0.374   1.777   3.578
 2898TIP3    H2 8638   0.415   1.641   3.526
 2899TIP3   OH2 8639   4.992   5.835   6.274
 2899TIP3    H1 8640   5.020   5.923   6.300
 2899TIP3    H2 8641   5.000   5.835   6.179
 2900TIP3   OH2 8642   5.242   4.463   6.743
 2900TIP3    H1 8643   5.225   4.498   6.831
 2900TIP3    H2 8644   5.180   4.508   6.686
 2901TIP3   OH2 8645   7.020   6.158   0.076
 2901TIP3    H1 8646   7.053   6.077   0.115
 2901TIP3    H2 8647   7.081   6.177   0.005
 2902TIP3   OH2 8648   7.630   7.302   5.900
 2902TIP3    H1 8649   7.590   7.309   5.813
 2902TIP3    H2 8650   7.684   7.380   5.908
 2903TIP3   OH2 8651   1.118   7.205   3.851
 2903TIP3    H1 8652   1.186   7.267   3.877
 2903TIP3    H2 8653   1.088   7.236   3.765
 2904TIP3   OH2 8654   8.220   0.812   3.137
 2904TIP3    H1 8655   8.309   0.778   3.137
 2904TIP3    H2 8656   8.228   0.899   3.177
 2905TIP3   OH2 8657   5.043   4.860   5.643
 2905TIP3    H1 8658   5.041   4.886   5.551
 2905TIP3    H2 8659   5.124   4.810   5.652
 2906TIP3   OH2 8660   2.620   0.596   6.449
 2906TIP3    H1 8661   2.589   0.662   6.387
 2906TIP3    H2 8662   2.570   0.517   6.428
 2907TIP3   OH2 8663   7.364   3.220   1.354
 2907TIP3    H1 8664   7.437   3.177   1.398
 2907TIP3    H2 8665   7.291   3.158   1.363
 2908TIP3   OH2 8666   3.788   7.738   4.881
 2908TIP3    H1 8667   3.861   7.676   4.878
 2908TIP3    H2 8668   3.819   7.814   4.832
 2909TIP3   OH2 8669   7.815   5.446   1.185
 2909TIP3    H1 8670   7.818   5.371   1.126
 2909TIP3    H2 8671   7.723   5.473   1.186
 2910TIP3   OH2 8672   1.397   1.304   3.233
 2910TIP3    H1 8673   1.451   1.240   3.186
 2910TIP3    H2 8674   1.309   1.290   3.200
 2911TIP3   OH2 8675   1.722   6.118   2.534
 2911TIP3    H1 8676   1.815   6.095   2.542
 2911TIP3    H2 8677   1.721   6.194   2.476
 2912TIP3   OH2 8678   2.645   6.992   3.378
 2912TIP3    H1 8679   2.710   7.050   3.339
 2912TIP3    H2 8680   2.562   7.037   3.365
 2913TIP3   OH2 8681   3.663   7.629   0.463
 2913TIP3    H1 8682   3.724   7.573   0.511
 2913TIP3    H2 8683   3.581   7.580   0.465
 2914TIP3   OH2 8684   1.492   3.747   3.064
 2914TIP3    H1 8685   1.427   3.749   3.134
 2914TIP3    H2 8686   1.448   3.701   2.992
 2915TIP3   OH2 8687   4.680   7.542   6.213
 2915TIP3    H1 8688   4.680   7.502   6.126
 2915TIP3    H2 8689   4.766   7.521   6.249
 2916TIP3   OH2 8690   1.877   3.477   0.297
 2916TIP3    H1 8691   1.893   3.543   0.230
 2916TIP3    H2 8692   1.924   3.399   0.267
 2917TIP3   OH2 8693   2.416   7.771   0.876
 2917TIP3    H1 8694   2.471   7.848   0.892
 2917TIP3    H2 8695   2.332   7.793   0.916
 2918TIP3   OH2 8696   1.410   7.448   4.404
 2918TIP3    H1 8697   1.457   7.528   4.427
 2918TIP3    H2 8698   1.347   7.475   4.338
 2919TIP3   OH2 8699   3.455   6.251   6.202
 2919TIP3    H1 8700   3.513   6.232   6.276
 2919TIP3    H2 8701   3.424   6.341   6.219
 2920TIP3   OH2 8702   8.096   4.135   3.936
 2920TIP3    H1 8703   8.139   4.151   3.852
 2920TIP3    H2 8704   8.167   4.113   3.996
 2921TIP3   OH2 8705   1.210   6.498   2.256
 2921TIP3    H1 8706   1.209   6.505   2.352
 2921TIP3    H2 8707   1.233   6.406   2.240
 2922TIP3   OH2 8708   1.569   4.679   2.622
 2922TIP3    H1 8709   1.474   4.694   2.623
 2922TIP3    H2 8710   1.606   4.756   2.665
 2923TIP3   OH2 8711   5.478   7.064   5.258
 2923TIP3    H1 8712   5.477   6.969   5.272
 2923TIP3    H2 8713   5.567   7.090   5.283
 2924TIP3   OH2 8714   2.493   2.264   5.308
 2924TIP3    H1 8715   2.487   2.301   5.396
 2924TIP3    H2 8716   2.529   2.335   5.255
 2925TIP3   OH2 8717   5.819  -0.013   5.418
 2925TIP3    H1 8718   5.740   0.025   5.379
 2925TIP3    H2 8719   5.884  -0.011   5.347
 2926TIP3   OH2 8720   2.828   1.552   1.122
 2926TIP3    H1 8721   2.867   1.636   1.100
 2926TIP3    H2 8722   2.871   1.489   1.063
 2927TIP3   OH2 8723   2.193   3.199   6.344
 2927TIP3    H1 8724   2.204   3.235   6.432
 2927TIP3    H2 8725   2.100   3.208   6.326
 2928TIP3   OH2 8726   4.903   1.912   4.800
 2928TIP3    H1 8727   4.837   1.851   4.767
 2928TIP3    H2 8728   4.876   1.932   4.889
 2929TIP3   OH2 8729   5.616   3.879   6.017
 2929TIP3    H1 8730   5.591   3.871   5.925
 2929TIP3    H2 8731   5.687   3.816   6.028
 2930TIP3   OH2 8732   5.374   7.292   1.517
 2930TIP3    H1 8733   5.286   7.328   1.512
 2930TIP3    H2 8734   5.384   7.266   1.609
 2931TIP3   OH2 8735   1.412   1.237   3.502
 2931TIP3    H1 8736   1.486   1.175   3.500
 2931TIP3    H2 8737   1.407   1.271   3.413
 2932TIP3   OH2 8738   1.122   6.710   3.637
 2932TIP3    H1 8739   1.183   6.783   3.651
 2932TIP3    H2 8740   1.050   6.749   3.587
 2933TIP3   OH2 8741   5.897   6.312   4.215
 2933TIP3    H1 8742   5.810   6.333   4.182
 2933TIP3    H2 8743   5.882   6.247   4.284
 2934TIP3   OH2 8744   7.599   0.826   3.537
 2934TIP3    H1 8745   7.626   0.916   3.556
 2934TIP3    H2 8746   7.524   0.811   3.593
 2935TIP3   OH2 8747   3.948   3.111   4.782
 2935TIP3    H1 8748   3.938   3.031   4.730
 2935TIP3    H2 8749   3.984   3.081   4.866
 2936TIP3   OH2 8750   0.388   7.692   2.896
 2936TIP3    H1 8751   0.352   7.779   2.912
 2936TIP3    H2 8752   0.336   7.633   2.951
 2937TIP3   OH2 8753   2.798   7.317   5.868
 2937TIP3    H1 8754   2.869   7.269   5.827
 2937TIP3    H2 8755   2.835   7.349   5.950
 2938TIP3   OH2 8756   7.881   4.681   1.116
 2938TIP3    H1 8757   7.967   4.714   1.143
 2938TIP3    H2 8758   7.892   4.658   1.024
 2939TIP3   OH2 8759   3.190   4.479   1.475
 2939TIP3    H1 8760   3.135   4.522   1.541
 2939TIP3    H2 8761   3.156   4.512   1.392
 2940TIP3   OH2 8762   3.477   0.581   4.772
 2940TIP3    H1 8763   3.398   0.604   4.822
 2940TIP3    H2 8764   3.471   0.632   4.692
 2941TIP3   OH2 8765   6.847   0.914   4.346
 2941TIP3    H1 8766   6.792   0.954   4.413
 2941TIP3    H2 8767   6.928   0.890   4.392
 2942TIP3   OH2 8768   7.525   1.282   3.393
 2942TIP3    H1 8769   7.461   1.334   3.344
 2942TIP3    H2 8770   7.606   1.333   3.388
 2943TIP3   OH2 8771   3.508   6.244   0.947
 2943TIP3    H1 8772   3.491   6.163   0.900
 2943TIP3    H2 8773   3.587   6.226   0.998
 2944TIP3   OH2 8774   0.445   6.915   4.135
 2944TIP3    H1 8775   0.472   6.837   4.184
 2944TIP3    H2 8776   0.350   6.918   4.147
 2945TIP3   OH2 8777   5.609   4.595   4.562
 2945TIP3    H1 8778   5.659   4.660   4.611
 2945TIP3    H2 8779   5.662   4.579   4.483
 2946TIP3   OH2 8780   3.902   7.339   3.617
 2946TIP3    H1 8781   3.872   7.371   3.532
 2946TIP3    H2 8782   3.825   7.346   3.673
 2947TIP3   OH2 8783   5.387   4.499   2.654
 2947TIP3    H1 8784   5.476   4.464   2.651
 2947TIP3    H2 8785   5.342   4.441   2.716
 2948TIP3   OH2 8786   6.897   5.427   1.283
 2948TIP3    H1 8787   6.936   5.394   1.364
 2948TIP3    H2 8788   6.863   5.513   1.307
 2949TIP3   OH2 8789   3.773   4.437   1.392
 2949TIP3    H1 8790   3.798   4.522   1.355
 2949TIP3    H2 8791   3.838   4.376   1.356
 2950TIP3   OH2 8792   6.786   7.103   5.025
 2950TIP3    H1 8793   6.724   7.173   5.048
 2950TIP3    H2 8794   6.757   7.028   5.075
 2951TIP3   OH2 8795   5.222   2.288   0.882
 2951TIP3    H1 8796   5.316   2.297   0.897
 2951TIP3    H2 8797   5.215   2.211   0.825
 2952TIP3   OH2 8798   1.477   0.478   2.720
 2952TIP3    H1 8799   1.460   0.391   2.755
 2952TIP3    H2 8800   1.431   0.480   2.636
 2953TIP3   OH2 8801   1.903   6.894   4.947
 2953TIP3    H1 8802   1.924   6.969   4.891
 2953TIP3    H2 8803   1.818   6.916   4.986
 2954TIP3   OH2 8804   3.947   0.381   4.466
 2954TIP3    H1 8805   3.993   0.387   4.549
 2954TIP3    H2 8806   3.932   0.288   4.454
 2955TIP3   OH2 8807   6.076   6.341   3.143
 2955TIP3    H1 8808   6.020   6.278   3.097
 2955TIP3    H2 8809   6.160   6.295   3.153
 2956TIP3   OH2 8810   1.035   3.617   1.659
 2956TIP3    H1 8811   1.071   3.537   1.697
 2956TIP3    H2 8812   1.104   3.682   1.670
 2957TIP3   OH2 8813   7.817   5.150   1.846
 2957TIP3    H1 8814   7.818   5.065   1.891
 2957TIP3    H2 8815   7.728   5.182   1.859
 2958TIP3   OH2 8816   6.246   5.599   1.699
 2958TIP3    H1 8817   6.189   5.592   1.622
 2958TIP3    H2 8818   6.306   5.671   1.678
 2959TIP3   OH2 8819   7.275   6.885   5.698
 2959TIP3    H1 8820   7.337   6.819   5.729
 2959TIP3    H2 8821   7.330   6.958   5.669
 2960TIP3   OH2 8822   1.570   7.258   3.358
 2960TIP3    H1 8823   1.644   7.315   3.339
 2960TIP3    H2 8824   1.584   7.230   3.449
 2961TIP3   OH2 8825   4.240   2.697   0.400
 2961TIP3    H1 8826   4.272   2.623   0.451
 2961TIP3    H2 8827   4.234   2.664   0.311
 2962TIP3   OH2 8828   2.405   6.194   4.373
 2962TIP3    H1 8829   2.467   6.249   4.421
 2962TIP3    H2 8830   2.443   6.107   4.374
 2963TIP3   OH2 8831   6.658   5.528   6.537
 2963TIP3    H1 8832   6.686   5.457   6.480
 2963TIP3    H2 8833   6.562   5.524   6.535
 2964TIP3   OH2 8834   7.190   6.472   2.787
 2964TIP3    H1 8835   7.122   6.501   2.726
 2964TIP3    H2 8836   7.241   6.550   2.806
 2965TIP3   OH2 8837   3.546   0.825   0.389
 2965TIP3    H1 8838   3.520   0.735   0.368
 2965TIP3    H2 8839   3.465   0.869   0.415
 2966TIP3   OH2 8840   4.606   6.284   6.708
 2966TIP3    H1 8841   4.597   6.196   6.670
 2966TIP3    H2 8842   4.581   6.273   6.800
 2967TIP3   OH2 8843   8.100   2.386   4.669
 2967TIP3    H1 8844   8.131   2.457   4.726
 2967TIP3    H2 8845   8.009   2.410   4.650
 2968TIP3   OH2 8846   5.410   3.467   4.571
 2968TIP3    H1 8847   5.400   3.460   4.666
 2968TIP3    H2 8848   5.340   3.528   4.545
 2969TIP3   OH2 8849   2.308   2.588   2.461
 2969TIP3    H1 8850   2.386   2.632   2.426
 2969TIP3    H2 8851   2.340   2.538   2.536
 2970TIP3   OH2 8852   5.564   2.826   2.845
 2970TIP3    H1 8853   5.577   2.738   2.808
 2970TIP3    H2 8854   5.629   2.880   2.799
 2971TIP3   OH2 8855   7.770   0.462   3.684
 2971TIP3    H1 8856   7.676   0.478   3.680
 2971TIP3    H2 8857   7.791   0.465   3.777
 2972TIP3   OH2 8858   7.527   4.490   1.329
 2972TIP3    H1 8859   7.600   4.466   1.271
 2972TIP3    H2 8860   7.556   4.571   1.371
 2973TIP3   OH2 8861   7.053   2.376   2.300
 2973TIP3    H1 8862   6.978   2.327   2.268
 2973TIP3    H2 8863   7.044   2.463   2.262
 2974TIP3   OH2 8864   7.638   4.465   0.088
 2974TIP3    H1 8865   7.692   4.392   0.119
 2974TIP3    H2 8866   7.646   4.531   0.156
 2975TIP3   OH2 8867   6.531   2.320   3.462
 2975TIP3    H1 8868   6.559   2.294   3.374
 2975TIP3    H2 8869   6.610   2.357   3.502
 2976TIP3   OH2 8870   3.181   3.497   4.526
 2976TIP3    H1 8871   3.086   3.505   4.534
 2976TIP3    H2 8872   3.194   3.420   4.471
 2977TIP3   OH2 8873   8.247   7.262   5.943
 2977TIP3    H1 8874   8.156   7.238   5.959
 2977TIP3    H2 8875   8.242   7.334   5.880
 2978TIP3   OH2 8876   1.039   0.460   2.536
 2978TIP3    H1 8877   1.047   0.525   2.605
 2978TIP3    H2 8878   1.029   0.377   2.582
 2979TIP3   OH2 8879   3.284   6.585   1.858
 2979TIP3    H1 8880   3.316   6.495   1.864
 2979TIP3    H2 8881   3.268   6.611   1.948
 2980TIP3   OH2 8882   2.134   6.786   2.241
 2980TIP3    H1 8883   2.196   6.853   2.270
 2980TIP3    H2 8884   2.148   6.713   2.301
 2981TIP3   OH2 8885   3.721   6.120   6.016
 2981TIP3    H1 8886   3.627   6.110   6.031
 2981TIP3    H2 8887   3.743   6.050   5.955
 2982TIP3   OH2 8888   6.251   3.229   0.439
 2982TIP3    H1 8889   6.175   3.172   0.451
 2982TIP3    H2 8890   6.323   3.181   0.481
 2983TIP3   OH2 8891   2.116   2.411   3.086
 2983TIP3    H1 8892   2.083   2.430   2.998
 2983TIP3    H2 8893   2.207   2.440   3.084
 2984TIP3   OH2 8894   4.213   4.514   3.138
 2984TIP3    H1 8895   4.130   4.521   3.091
 2984TIP3    H2 8896   4.188   4.500   3.229
 2985TIP3   OH2 8897   2.927   6.093   5.709
 2985TIP3    H1 8898   2.894   6.118   5.795
 2985TIP3    H2 8899   2.955   6.175   5.669
 2986TIP3   OH2 8900   4.703   7.411   4.753
 2986TIP3    H1 8901   4.683   7.465   4.829
 2986TIP3    H2 8902   4.798   7.413   4.746
 2987TIP3   OH2 8903   4.591   4.995   1.812
 2987TIP3    H1 8904   4.520   4.938   1.844
 2987TIP3    H2 8905   4.611   5.052   1.887
 2988TIP3   OH2 8906   4.845   5.741   2.014
 2988TIP3    H1 8907   4.810   5.803   1.951
 2988TIP3    H2 8908   4.908   5.689   1.964
 2989TIP3   OH2 8909   4.690   0.496   2.289
 2989TIP3    H1 8910   4.700   0.453   2.374
 2989TIP3    H2 8911   4.677   0.588   2.310
 2990TIP3   OH2 8912   2.486   1.620   3.770
 2990TIP3    H1 8913   2.397   1.649   3.791
 2990TIP3    H2 8914   2.510   1.562   3.842
 2991TIP3   OH2 8915   1.439   2.654   6.073
 2991TIP3    H1 8916   1.479   2.640   5.987
 2991TIP3    H2 8917   1.497   2.718   6.116
 2992TIP3   OH2 8918   7.571   4.050   4.369
 2992TIP3    H1 8919   7.489   4.053   4.418
 2992TIP3    H2 8920   7.554   3.988   4.298
 2993TIP3   OH2 8921   4.829   3.970   1.817
 2993TIP3    H1 8922   4.908   4.006   1.778
 2993TIP3    H2 8923   4.757   4.022   1.780
 2994TIP3   OH2 8924   7.189   1.119   5.743
 2994TIP3    H1 8925   7.177   1.101   5.649
 2994TIP3    H2 8926   7.249   1.051   5.773
 2995TIP3   OH2 8927   0.744   2.976   5.663
 2995TIP3    H1 8928   0.835   2.987   5.635
 2995TIP3    H2 8929   0.694   2.975   5.582
 2996TIP3   OH2 8930   5.762   1.672   5.964
 2996TIP3    H1 8931   5.679   1.628   5.948
 2996TIP3    H2 8932   5.766   1.741   5.897
 2997TIP3   OH2 8933   7.193   1.577   0.802
 2997TIP3    H1 8934   7.214   1.663   0.766
 2997TIP3    H2 8935   7.136   1.537   0.737
 2998TIP3   OH2 8936   2.958   5.717   5.991
 2998TIP3    H1 8937   2.889   5.671   6.040
 2998TIP3    H2 8938   3.028   5.729   6.055
 2999TIP3   OH2 8939   4.718   6.056   1.032
 2999TIP3    H1 8940   4.773   6.055   0.954
 2999TIP3    H2 8941   4.680   6.144   1.034
 3000TIP3   OH2 8942   1.641   0.086   5.467
 3000TIP3    H1 8943   1.559   0.112   5.427
 3000TIP3    H2 8944   1.703   0.154   5.440
 3001TIP3   OH2 8945   0.082   6.206   3.966
 3001TIP3    H1 8946   0.112   6.131   4.017
 3001TIP3    H2 8947  -0.002   6.178   3.928
 3002TIP3   OH2 8948   3.801   2.540   2.157
 3002TIP3    H1 8949   3.869   2.474   2.145
 3002TIP3    H2 8950   3.834   2.616   2.108
 3003TIP3   OH2 8951   0.671   7.199   0.934
 3003TIP3    H1 8952   0.604   7.200   1.002
 3003TIP3    H2 8953   0.680   7.107   0.910
 3004TIP3   OH2 8954   3.481   0.782   6.763
 3004TIP3    H1 8955   3.458   0.690   6.774
 3004TIP3    H2 8956   3.574   0.787   6.787
 3005TIP3   OH2 8957   1.931   2.797   3.457
 3005TIP3    H1 8958   1.933   2.726   3.521
 3005TIP3    H2 8959   1.917   2.755   3.373
 3006TIP3   OH2 8960   2.887   0.413   3.334
 3006TIP3    H1 8961   2.829   0.397   3.409
 3006TIP3    H2 8962   2.971   0.436   3.374
 3007TIP3   OH2 8963   1.311   1.663   2.125
 3007TIP3    H1 8964   1.285   1.572   2.111
 3007TIP3    H2 8965   1.230   1.707   2.154
 3008TIP3   OH2 8966   3.583   0.359   4.998
 3008TIP3    H1 8967   3.526   0.435   4.987
 3008TIP3    H2 8968   3.604   0.331   4.909
 3009TIP3   OH2 8969   0.418   2.839   2.425
 3009TIP3    H1 8970   0.327   2.814   2.442
 3009TIP3    H2 8971   0.429   2.826   2.331
 3010TIP3   OH2 8972   0.715   2.994   6.618
 3010TIP3    H1 8973   0.805   3.002   6.649
 3010TIP3    H2 8974   0.668   3.064   6.663
 3011TIP3   OH2 8975   2.028   0.159   0.264
 3011TIP3    H1 8976   2.104   0.144   0.208
 3011TIP3    H2 8977   1.958   0.108   0.224
 3012TIP3   OH2 8978   7.208   4.011   5.910
 3012TIP3    H1 8979   7.194   4.101   5.938
 3012TIP3    H2 8980   7.175   4.008   5.821
 3013TIP3   OH2 8981   6.053   6.111   5.444
 3013TIP3    H1 8982   5.963   6.110   5.412
 3013TIP3    H2 8983   6.048   6.155   5.529
 3014TIP3   OH2 8984   3.048   4.859   0.863
 3014TIP3    H1 8985   3.143   4.851   0.860
 3014TIP3    H2 8986   3.016   4.801   0.793
 3015TIP3   OH2 8987   5.394   1.798   1.768
 3015TIP3    H1 8988   5.377   1.849   1.688
 3015TIP3    H2 8989   5.340   1.841   1.835
 3016TIP3   OH2 8990   1.246   2.306   3.638
 3016TIP3    H1 8991   1.250   2.381   3.579
 3016TIP3    H2 8992   1.334   2.299   3.674
 3017TIP3   OH2 8993   4.504   0.291   3.571
 3017TIP3    H1 8994   4.435   0.226   3.559
 3017TIP3    H2 8995   4.583   0.240   3.588
 3018TIP3   OH2 8996   0.767   1.789   4.777
 3018TIP3    H1 8997   0.854   1.753   4.796
 3018TIP3    H2 8998   0.744   1.839   4.855
 3019TIP3   OH2 8999   6.124   2.427   1.718
 3019TIP3    H1 9000   6.213   2.394   1.732
 3019TIP3    H2 9001   6.134   2.522   1.717
 3020TIP3   OH2 9002   1.203   6.345   2.518
 3020TIP3    H1 9003   1.272   6.349   2.584
 3020TIP3    H2 9004   1.210   6.257   2.481
 3021TIP3   OH2 9005   4.552   1.428   0.120
 3021TIP3    H1 9006   4.497   1.499   0.090
 3021TIP3    H2 9007   4.493   1.353   0.130
 3022TIP3   OH2 9008   2.534   3.785   6.611
 3022TIP3    H1 9009   2.543   3.877   6.632
 3022TIP3    H2 9010   2.510   3.743   6.694
 3023TIP3   OH2 9011   1.946   1.189   5.712
 3023TIP3    H1 9012   2.001   1.112   5.720
 3023TIP3    H2 9013   1.907   1.201   5.798
 3024TIP3   OH2 9014   1.911   4.506   4.213
 3024TIP3    H1 9015   1.939   4.546   4.130
 3024TIP3    H2 9016   1.947   4.417   4.210
 3025TIP3   OH2 9017   3.685   6.899   2.888
 3025TIP3    H1 9018   3.670   6.969   2.825
 3025TIP3    H2 9019   3.776   6.873   2.874
 3026TIP3   OH2 9020   5.576   5.204   5.330
 3026TIP3    H1 9021   5.518   5.242   5.396
 3026TIP3    H2 9022   5.610   5.280   5.282
 3027TIP3   OH2 9023   0.128   3.762   5.646
 3027TIP3    H1 9024   0.128   3.789   5.738
 3027TIP3    H2 9025   0.158   3.839   5.598
 3028TIP3   OH2 9026   2.258   6.960   0.070
 3028TIP3    H1 9027   2.247   6.907   0.149
 3028TIP3    H2 9028   2.206   6.915   0.003
 3029TIP3   OH2 9029   6.574   2.119   0.048
 3029TIP3    H1 9030   6.568   2.141  -0.045
 3029TIP3    H2 9031   6.520   2.185   0.092
 3030TIP3   OH2 9032   8.013   1.800   1.262
 3030TIP3    H1 9033   8.027   1.890   1.291
 3030TIP3    H2 9034   8.007   1.749   1.343
 3031TIP3   OH2 9035   3.204   1.529   3.923
 3031TIP3    H1 9036   3.227   1.546   3.832
 3031TIP3    H2 9037   3.204   1.615   3.964
 3032TIP3   OH2 9038   3.859   2.755   1.376
 3032TIP3    H1 9039   3.804   2.693   1.327
 3032TIP3    H2 9040   3.828   2.841   1.347
 3033TIP3   OH2 9041   0.451   2.586   2.559
 3033TIP3    H1 9042   0.359   2.612   2.547
 3033TIP3    H2 9043   0.497   2.626   2.485
 3034TIP3   OH2 9044   0.330   1.872   5.285
 3034TIP3    H1 9045   0.354   1.906   5.199
 3034TIP3    H2 9046   0.365   1.783   5.286
 3035TIP3   OH2 9047   7.051   5.562   0.216
 3035TIP3    H1 9048   6.964   5.567   0.257
 3035TIP3    H2 9049   7.096   5.492   0.264
 3036TIP3   OH2 9050   4.423   5.361   2.758
 3036TIP3    H1 9051   4.385   5.364   2.846
 3036TIP3    H2 9052   4.494   5.426   2.761
 3037TIP3   OH2 9053   3.112   7.064   3.437
 3037TIP3    H1 9054   3.170   7.134   3.468
 3037TIP3    H2 9055   3.122   6.995   3.502
 3038TIP3   OH2 9056   4.077   3.002   5.225
 3038TIP3    H1 9057   4.026   2.992   5.145
 3038TIP3    H2 9058   4.012   3.008   5.294
 3039TIP3   OH2 9059   1.550   2.814   5.325
 3039TIP3    H1 9060   1.611   2.883   5.352
 3039TIP3    H2 9061   1.509   2.847   5.245
 3040TIP3   OH2 9062   1.073   7.727   6.669
 3040TIP3    H1 9063   1.100   7.815   6.644
 3040TIP3    H2 9064   1.113   7.713   6.755
 3041TIP3   OH2 9065   1.525   0.623   1.476
 3041TIP3    H1 9066   1.599   0.571   1.507
 3041TIP3    H2 9067   1.555   0.714   1.484
 3042TIP3   OH2 9068   2.146   2.793   5.884
 3042TIP3    H1 9069   2.111   2.879   5.862
 3042TIP3    H2 9070   2.198   2.808   5.964
 3043TIP3   OH2 9071   2.798   5.327   5.479
 3043TIP3    H1 9072   2.872   5.387   5.465
 3043TIP3    H2 9073   2.729   5.382   5.516
 3044TIP3   OH2 9074   1.374   3.495   4.201
 3044TIP3    H1 9075   1.365   3.519   4.293
 3044TIP3    H2 9076   1.437   3.558   4.166
 3045TIP3   OH2 9077   5.838   2.546   5.047
 3045TIP3    H1 9078   5.791   2.612   4.996
 3045TIP3    H2 9079   5.884   2.596   5.114
 3046TIP3   OH2 9080   0.389   2.852   2.140
 3046TIP3    H1 9081   0.446   2.847   2.064
 3046TIP3    H2 9082   0.307   2.889   2.106
 3047TIP3   OH2 9083   3.911   3.822   5.296
 3047TIP3    H1 9084   3.883   3.765   5.368
 3047TIP3    H2 9085   4.003   3.800   5.282
 3048TIP3   OH2 9086   6.786   5.158   4.424
 3048TIP3    H1 9087   6.723   5.119   4.485
 3048TIP3    H2 9088   6.771   5.252   4.432
 3049TIP3   OH2 9089   1.958   7.228   3.822
 3049TIP3    H1 9090   1.898   7.186   3.884
 3049TIP3    H2 9091   1.968   7.318   3.855
 3050TIP3   OH2 9092   1.807   7.283   6.606
 3050TIP3    H1 9093   1.730   7.279   6.549
 3050TIP3    H2 9094   1.771   7.294   6.694
 3051TIP3   OH2 9095   8.182   2.561   2.364
 3051TIP3    H1 9096   8.214   2.512   2.440
 3051TIP3    H2 9097   8.227   2.522   2.289
 3052TIP3   OH2 9098   5.993   1.483   3.309
 3052TIP3    H1 9099   6.068   1.538   3.288
 3052TIP3    H2 9100   5.951   1.528   3.383
 3053TIP3   OH2 9101   7.112   7.810   3.070
 3053TIP3    H1 9102   7.035   7.775   3.025
 3053TIP3    H2 9103   7.183   7.751   3.046
 3054TIP3   OH2 9104   4.487   4.425   1.639
 3054TIP3    H1 9105   4.415   4.475   1.677
 3054TIP3    H2 9106   4.448   4.339   1.620
 3055TIP3   OH2 9107   0.199   7.585   1.166
 3055TIP3    H1 9108   0.154   7.537   1.096
 3055TIP3    H2 9109   0.129   7.626   1.217
 3056TIP3   OH2 9110   5.898   0.079   6.643
 3056TIP3    H1 9111   5.877  -0.010   6.615
 3056TIP3    H2 9112   5.982   0.071   6.688
 3057TIP3   OH2 9113   3.074   5.751   2.808
 3057TIP3    H1 9114   2.998   5.756   2.750
 3057TIP3    H2 9115   3.063   5.825   2.867
 3058TIP3   OH2 9116   2.431   0.898   3.937
 3058TIP3    H1 9117   2.475   0.904   4.021
 3058TIP3    H2 9118   2.412   0.989   3.913
 3059TIP3   OH2 9119   6.905   0.865   5.963
 3059TIP3    H1 9120   6.818   0.876   5.926
 3059TIP3    H2 9121   6.956   0.937   5.925
 3060TIP3   OH2 9122   4.886   7.719   0.439
 3060TIP3    H1 9123   4.884   7.643   0.498
 3060TIP3    H2 9124   4.893   7.681   0.351
 3061TIP3   OH2 9125   6.488   4.404   6.297
 3061TIP3    H1 9126   6.407   4.385   6.249
 3061TIP3    H2 9127   6.490   4.499   6.304
 3062TIP3   OH2 9128   4.383   3.724   0.078
 3062TIP3    H1 9129   4.349   3.637   0.056
 3062TIP3    H2 9130   4.431   3.751   0.000
 3063TIP3   OH2 9131   7.363   5.480   1.903
 3063TIP3    H1 9132   7.369   5.564   1.859
 3063TIP3    H2 9133   7.353   5.501   1.996
 3064TIP3   OH2 9134   1.997   0.891   6.524
 3064TIP3    H1 9135   2.056   0.910   6.452
 3064TIP3    H2 9136   2.000   0.969   6.579
 3065TIP3   OH2 9137   7.059   7.028   0.997
 3065TIP3    H1 9138   6.989   6.969   1.026
 3065TIP3    H2 9139   7.128   6.970   0.965
 3066TIP3   OH2 9140   0.413   1.477   3.843
 3066TIP3    H1 9141   0.398   1.516   3.757
 3066TIP3    H2 9142   0.413   1.383   3.827
 3067TIP3   OH2 9143   5.851   0.786   6.418
 3067TIP3    H1 9144   5.859   0.762   6.326
 3067TIP3    H2 9145   5.838   0.702   6.463
 3068TIP3   OH2 9146   7.922   3.643   4.256
 3068TIP3    H1 9147   7.850   3.615   4.200
 3068TIP3    H2 9148   7.888   3.635   4.345
 3069TIP3   OH2 9149   6.105   3.581   0.782
 3069TIP3    H1 9150   6.090   3.487   0.766
 3069TIP3    H2 9151   6.190   3.598   0.742
 3070TIP3   OH2 9152   6.178   5.619   0.870
 3070TIP3    H1 9153   6.103   5.559   0.871
 3070TIP3    H2 9154   6.218   5.605   0.785
 3071TIP3   OH2 9155   4.770   2.134   3.868
 3071TIP3    H1 9156   4.731   2.219   3.851
 3071TIP3    H2 9157   4.859   2.154   3.897
 3072TIP3   OH2 9158   1.913   6.339   3.339
 3072TIP3    H1 9159   1.968   6.275   3.293
 3072TIP3    H2 9160   1.869   6.287   3.406
 3073TIP3   OH2 9161   7.420   1.022   0.928
 3073TIP3    H1 9162   7.468   0.942   0.907
 3073TIP3    H2 9163   7.440   1.081   0.855
 3074TIP3   OH2 9164   3.591   6.859   5.879
 3074TIP3    H1 9165   3.603   6.764   5.874
 3074TIP3    H2 9166   3.534   6.880   5.805
 3075TIP3   OH2 9167   4.345   6.463   0.100
 3075TIP3    H1 9168   4.432   6.493   0.127
 3075TIP3    H2 9169   4.284   6.510   0.157
 3076TIP3   OH2 9170   1.771   1.450   3.189
 3076TIP3    H1 9171   1.787   1.382   3.124
 3076TIP3    H2 9172   1.739   1.402   3.265
 3077TIP3   OH2 9173   4.424   0.492   3.328
 3077TIP3    H1 9174   4.443   0.440   3.250
 3077TIP3    H2 9175   4.510   0.505   3.370
 3078TIP3   OH2 9176   0.252   2.687   6.698
 3078TIP3    H1 9177   0.244   2.691   6.793
 3078TIP3    H2 9178   0.171   2.727   6.666
 3079TIP3   OH2 9179   1.103   5.952   2.275
 3079TIP3    H1 9180   1.155   5.875   2.249
 3079TIP3    H2 9181   1.157   5.995   2.341
 3080TIP3   OH2 9182   0.206   5.900   3.275
 3080TIP3    H1 9183   0.192   5.879   3.368
 3080TIP3    H2 9184   0.301   5.891   3.263
 3081TIP3   OH2 9185   5.507   6.067   4.609
 3081TIP3    H1 9186   5.580   6.121   4.638
 3081TIP3    H2 9187   5.535   6.030   4.526
 3082TIP3   OH2 9188   3.570   3.730  -0.011
 3082TIP3    H1 9189   3.614   3.783   0.055
 3082TIP3    H2 9190   3.482   3.767  -0.017
 3083TIP3   OH2 9191   6.367   4.732   1.968
 3083TIP3    H1 9192   6.318   4.679   1.905
 3083TIP3    H2 9193   6.457   4.699   1.961
 3084TIP3   OH2 9194   3.856   6.193   0.607
 3084TIP3    H1 9195   3.829   6.276   0.647
 3084TIP3    H2 9196   3.775   6.142   0.600
 3085TIP3   OH2 9197   8.130   3.104   0.690
 3085TIP3    H1 9198   8.200   3.159   0.653
 3085TIP3    H2 9199   8.141   3.020   0.647
 3086TIP3   OH2 9200   3.142   7.503   4.462
 3086TIP3    H1 9201   3.048   7.499   4.474
 3086TIP3    H2 9202   3.169   7.586   4.501
 3087TIP3   OH2 9203   7.507   4.964   6.662
 3087TIP3    H1 9204   7.543   4.924   6.584
 3087TIP3    H2 9205   7.557   5.044   6.674
 3088TIP3   OH2 9206   3.098   5.887   2.086
 3088TIP3    H1 9207   3.010   5.916   2.110
 3088TIP3    H2 9208   3.084   5.822   2.018
 3089TIP3   OH2 9209   8.064   7.507   1.779
 3089TIP3    H1 9210   8.034   7.567   1.711
 3089TIP3    H2 9211   8.135   7.554   1.823
 3090TIP3   OH2 9212   1.518   2.680   1.913
 3090TIP3    H1 9213   1.596   2.679   1.858
 3090TIP3    H2 9214   1.537   2.743   1.982
 3091TIP3   OH2 9215   2.362   3.477   1.583
 3091TIP3    H1 9216   2.450   3.451   1.610
 3091TIP3    H2 9217   2.345   3.426   1.503
 3092TIP3   OH2 9218   1.601   7.351   6.175
 3092TIP3    H1 9219   1.646   7.291   6.116
 3092TIP3    H2 9220   1.514   7.314   6.186
 3093TIP3   OH2 9221   2.583   3.635   5.789
 3093TIP3    H1 9222   2.576   3.723   5.825
 3093TIP3    H2 9223   2.581   3.648   5.694
 3094TIP3   OH2 9224   7.762   7.762   4.203
 3094TIP3    H1 9225   7.722   7.843   4.234
 3094TIP3    H2 9226   7.805   7.787   4.120
 3095TIP3   OH2 9227   2.053   3.179   4.363
 3095TIP3    H1 9228   2.147   3.193   4.371
 3095TIP3    H2 9229   2.014   3.259   4.397
 3096TIP3   OH2 9230   7.672   7.415   6.261
 3096TIP3    H1 9231   7.703   7.501   6.232
 3096TIP3    H2 9232   7.608   7.389   6.195
 3097TIP3   OH2 9233   5.568   2.051   1.294
 3097TIP3    H1 9234   5.592   2.070   1.385
 3097TIP3    H2 9235   5.483   2.093   1.282
 3098TIP3   OH2 9236   3.847   6.810   1.781
 3098TIP3    H1 9237   3.779   6.755   1.743
 3098TIP3    H2 9238   3.852   6.885   1.722
 3099TIP3   OH2 9239   4.900   2.783   4.549
 3099TIP3    H1 9240   4.995   2.788   4.560
 3099TIP3    H2 9241   4.885   2.701   4.503
 3100TIP3   OH2 9242   1.692   1.423   0.105
 3100TIP3    H1 9243   1.757   1.385   0.047
 3100TIP3    H2 9244   1.649   1.348   0.147
 3101TIP3   OH2 9245   3.297   2.146   4.279
 3101TIP3    H1 9246   3.338   2.125   4.195
 3101TIP3    H2 9247   3.216   2.094   4.280
 3102TIP3   OH2 9248   7.793   5.959   6.481
 3102TIP3    H1 9249   7.722   5.919   6.531
 3102TIP3    H2 9250   7.873   5.929   6.525
 3103TIP3   OH2 9251   0.745   4.939   3.459
 3103TIP3    H1 9252   0.738   4.879   3.385
 3103TIP3    H2 9253   0.797   5.013   3.425
 3104TIP3   OH2 9254   5.936   3.966   4.677
 3104TIP3    H1 9255   5.870   3.949   4.610
 3104TIP3    H2 9256   5.918   3.902   4.746
 3105TIP3   OH2 9257   0.532   1.078   0.117
 3105TIP3    H1 9258   0.526   1.056   0.210
 3105TIP3    H2 9259   0.566   0.999   0.076
 3106TIP3   OH2 9260   1.611   1.905   6.155
 3106TIP3    H1 9261   1.596   1.974   6.091
 3106TIP3    H2 9262   1.592   1.945   6.239
 3107TIP3   OH2 9263   8.054   1.698   1.925
 3107TIP3    H1 9264   7.968   1.727   1.896
 3107TIP3    H2 9265   8.042   1.605   1.946
 3108TIP3   OH2 9266   4.534   7.160   3.162
 3108TIP3    H1 9267   4.447   7.133   3.191
 3108TIP3    H2 9268   4.528   7.162   3.066
 3109TIP3   OH2 9269   4.543   1.041   5.889
 3109TIP3    H1 9270   4.503   1.125   5.864
 3109TIP3    H2 9271   4.628   1.066   5.927
 3110TIP3   OH2 9272   1.481   4.188   0.688
 3110TIP3    H1 9273   1.447   4.099   0.696
 3110TIP3    H2 9274   1.510   4.212   0.776
 3111TIP3   OH2 9275   1.997   4.327   3.368
 3111TIP3    H1 9276   1.985   4.371   3.284
 3111TIP3    H2 9277   2.089   4.344   3.391
 3112TIP3   OH2 9278   1.644   1.331   0.711
 3112TIP3    H1 9279   1.681   1.390   0.645
 3112TIP3    H2 9280   1.714   1.322   0.776
 3113TIP3   OH2 9281   4.095   5.456   3.210
 3113TIP3    H1 9282   4.142   5.465   3.127
 3113TIP3    H2 9283   4.150   5.399   3.263
 3114TIP3   OH2 9284   3.446   3.412   0.963
 3114TIP3    H1 9285   3.395   3.343   0.920
 3114TIP3    H2 9286   3.432   3.398   1.057
 3115TIP3   OH2 9287   2.700   6.100   3.828
 3115TIP3    H1 9288   2.781   6.137   3.793
 3115TIP3    H2 9289   2.643   6.089   3.751
 3116TIP3   OH2 9290   2.976   0.140   1.134
 3116TIP3    H1 9291   2.934   0.113   1.216
 3116TIP3    H2 9292   2.932   0.088   1.067
 3117TIP3   OH2 9293   5.514   0.492   4.971
 3117TIP3    H1 9294   5.475   0.579   4.958
 3117TIP3    H2 9295   5.499   0.473   5.064
 3118TIP3   OH2 9296   1.391   1.081   4.608
 3118TIP3    H1 9297   1.384   1.091   4.703
 3118TIP3    H2 9298   1.453   1.149   4.581
 3119TIP3   OH2 9299   2.232   5.962   1.463
 3119TIP3    H1 9300   2.308   5.987   1.515
 3119TIP3    H2 9301   2.228   5.866   1.469
 3120TIP3   OH2 9302   3.806   5.675   3.493
 3120TIP3    H1 9303   3.883   5.620   3.508
 3120TIP3    H2 9304   3.801   5.732   3.570
 3121TIP3   OH2 9305   0.227   0.193   3.294
 3121TIP3    H1 9306   0.211   0.275   3.341
 3121TIP3    H2 9307   0.142   0.148   3.295
 3122TIP3   OH2 9308   6.908   5.504   3.717
 3122TIP3    H1 9309   6.887   5.498   3.623
 3122TIP3    H2 9310   6.925   5.414   3.743
 3123TIP3   OH2 9311   0.970   5.510   1.147
 3123TIP3    H1 9312   0.964   5.423   1.187
 3123TIP3    H2 9313   0.895   5.558   1.183
 3124TIP3   OH2 9314   0.681   5.886   5.965
 3124TIP3    H1 9315   0.656   5.794   5.954
 3124TIP3    H2 9316   0.607   5.935   5.930
 3125TIP3   OH2 9317   4.208   3.012   1.917
 3125TIP3    H1 9318   4.237   3.073   1.849
 3125TIP3    H2 9319   4.260   2.933   1.902
 3126TIP3   OH2 9320   2.656   1.771   2.112
 3126TIP3    H1 9321   2.750   1.763   2.126
 3126TIP3    H2 9322   2.638   1.864   2.129
 3127TIP3   OH2 9323   6.059   2.765   3.133
 3127TIP3    H1 9324   6.130   2.708   3.162
 3127TIP3    H2 9325   6.020   2.797   3.214
 3128TIP3   OH2 9326   6.122   7.379   2.466
 3128TIP3    H1 9327   6.085   7.418   2.546
 3128TIP3    H2 9328   6.216   7.379   2.481
 3129TIP3   OH2 9329   0.890   5.172   1.119
 3129TIP3    H1 9330   0.902   5.084   1.155
 3129TIP3    H2 9331   0.853   5.223   1.191
 3130TIP3   OH2 9332   0.597   0.303   6.639
 3130TIP3    H1 9333   0.552   0.386   6.656
 3130TIP3    H2 9334   0.624   0.309   6.548
 3131TIP3   OH2 9335   4.307   6.687   1.897
 3131TIP3    H1 9336   4.217   6.660   1.875
 3131TIP3    H2 9337   4.333   6.628   1.967
 3132TIP3   OH2 9338   7.257   2.386   3.719
 3132TIP3    H1 9339   7.348   2.401   3.743
 3132TIP3    H2 9340   7.237   2.299   3.754
 3133TIP3   OH2 9341   3.948   6.051   0.384
 3133TIP3    H1 9342   3.884   6.005   0.329
 3133TIP3    H2 9343   3.896   6.092   0.453
 3134TIP3   OH2 9344   4.221   0.109   2.209
 3134TIP3    H1 9345   4.229   0.023   2.168
 3134TIP3    H2 9346   4.138   0.144   2.175
 3135TIP3   OH2 9347   6.186   6.030   4.837
 3135TIP3    H1 9348   6.241   5.961   4.801
 3135TIP3    H2 9349   6.243   6.107   4.840
 3136TIP3   OH2 9350   5.449   3.209   1.560
 3136TIP3    H1 9351   5.448   3.281   1.622
 3136TIP3    H2 9352   5.476   3.250   1.477
 3137TIP3   OH2 9353   8.148   1.851   3.454
 3137TIP3    H1 9354   8.146   1.887   3.365
 3137TIP3    H2 9355   8.240   1.857   3.481
 3138TIP3   OH2 9356   0.198   4.667   0.327
 3138TIP3    H1 9357   0.146   4.642   0.250
 3138TIP3    H2 9358   0.187   4.762   0.333
 3139TIP3   OH2 9359   5.098   4.235   1.320
 3139TIP3    H1 9360   5.152   4.282   1.256
 3139TIP3    H2 9361   5.076   4.152   1.277
 3140TIP3   OH2 9362   0.966   4.246   2.133
 3140TIP3    H1 9363   0.977   4.340   2.145
 3140TIP3    H2 9364   1.015   4.206   2.204
 3141TIP3   OH2 9365   4.711   1.107   3.754
 3141TIP3    H1 9366   4.662   1.126   3.833
 3141TIP3    H2 9367   4.793   1.069   3.785
 3142TIP3   OH2 9368   6.061   4.761   0.702
 3142TIP3    H1 9369   6.000   4.758   0.775
 3142TIP3    H2 9370   6.007   4.783   0.626
 3143TIP3   OH2 9371   6.454   3.080   0.585
 3143TIP3    H1 9372   6.505   3.007   0.552
 3143TIP3    H2 9373   6.487   3.095   0.673
 3144TIP3   OH2 9374   2.168   3.298   2.124
 3144TIP3    H1 9375   2.231   3.354   2.170
 3144TIP3    H2 9376   2.178   3.323   2.032
 3145TIP3   OH2 9377   7.695   3.078   5.321
 3145TIP3    H1 9378   7.735   3.101   5.404
 3145TIP3    H2 9379   7.602   3.066   5.342
 3146TIP3   OH2 9380   1.758   7.490   5.815
 3146TIP3    H1 9381   1.833   7.489   5.874
 3146TIP3    H2 9382   1.720   7.577   5.825
 3147TIP3   OH2 9383   0.155   5.032   4.061
 3147TIP3    H1 9384   0.067   5.048   4.096
 3147TIP3    H2 9385   0.206   5.004   4.137
 3148TIP3   OH2 9386   3.025   7.322   1.061
 3148TIP3    H1 9387   3.068   7.326   1.147
 3148TIP3    H2 9388   2.942   7.368   1.073
 3149TIP3   OH2 9389   5.486   4.259   3.939
 3149TIP3    H1 9390   5.502   4.284   4.030
 3149TIP3    H2 9391   5.391   4.263   3.929
 3150TIP3   OH2 9392   1.805   5.152   5.856
 3150TIP3    H1 9393   1.730   5.142   5.915
 3150TIP3    H2 9394   1.768   5.135   5.769
 3151TIP3   OH2 9395   1.852   1.109   0.394
 3151TIP3    H1 9396   1.876   1.078   0.307
 3151TIP3    H2 9397   1.881   1.200   0.396
 3152TIP3   OH2 9398   0.381   1.202   1.818
 3152TIP3    H1 9399   0.352   1.137   1.754
 3152TIP3    H2 9400   0.313   1.201   1.885
 3153TIP3   OH2 9401   6.890   6.331   2.772
 3153TIP3    H1 9402   6.882   6.383   2.692
 3153TIP3    H2 9403   6.971   6.362   2.812
 3154TIP3   OH2 9404   7.475   7.771   3.393
 3154TIP3    H1 9405   7.556   7.756   3.442
 3154TIP3    H2 9406   7.416   7.811   3.457
 3155TIP3   OH2 9407   2.938   2.229   0.817
 3155TIP3    H1 9408   3.030   2.243   0.792
 3155TIP3    H2 9409   2.930   2.269   0.903
 3156TIP3   OH2 9410   2.762   2.594   0.798
 3156TIP3    H1 9411   2.848   2.625   0.825
 3156TIP3    H2 9412   2.711   2.591   0.879
 3157TIP3   OH2 9413   6.442   7.579   6.110
 3157TIP3    H1 9414   6.506   7.548   6.047
 3157TIP3    H2 9415   6.381   7.507   6.121
 3158TIP3   OH2 9416   4.832   4.399   3.152
 3158TIP3    H1 9417   4.836   4.388   3.057
 3158TIP3    H2 9418   4.739   4.402   3.173
 3159TIP3   OH2 9419   0.632   0.498   6.380
 3159TIP3    H1 9420   0.561   0.478   6.320
 3159TIP3    H2 9421   0.707   0.516   6.323
 3160TIP3   OH2 9422   2.142   4.673   5.217
 3160TIP3    H1 9423   2.079   4.601   5.205
 3160TIP3    H2 9424   2.105   4.725   5.289
 3161TIP3   OH2 9425   5.766   3.563   0.923
 3161TIP3    H1 9426   5.826   3.636   0.935
 3161TIP3    H2 9427   5.751   3.560   0.829
 3162TIP3   OH2 9428   5.675   5.441   0.831
 3162TIP3    H1 9429   5.738   5.477   0.768
 3162TIP3    H2 9430   5.632   5.518   0.868
 3163TIP3   OH2 9431   4.284   0.416   4.400
 3163TIP3    H1 9432   4.378   0.401   4.399
 3163TIP3    H2 9433   4.257   0.394   4.490
 3164TIP3   OH2 9434   0.586   2.995   3.125
 3164TIP3    H1 9435   0.574   2.969   3.034
 3164TIP3    H2 9436   0.643   2.928   3.162
 3165TIP3   OH2 9437   2.864   5.703   1.667
 3165TIP3    H1 9438   2.914   5.731   1.590
 3165TIP3    H2 9439   2.824   5.784   1.700
 3166TIP3   OH2 9440   6.160   2.131   5.302
 3166TIP3    H1 9441   6.200   2.044   5.305
 3166TIP3    H2 9442   6.088   2.121   5.239
 3167TIP3   OH2 9443   5.507   3.092   3.207
 3167TIP3    H1 9444   5.413   3.107   3.219
 3167TIP3    H2 9445   5.512   3.016   3.149
 3168TIP3   OH2 9446   3.757   5.104   6.320
 3168TIP3    H1 9447   3.750   5.176   6.383
 3168TIP3    H2 9448   3.824   5.132   6.259
 3169TIP3   OH2 9449   2.924   5.084   5.130
 3169TIP3    H1 9450   2.992   5.061   5.067
 3169TIP3    H2 9451   2.951   5.168   5.166
 3170TIP3   OH2 9452   3.778   2.252   1.618
 3170TIP3    H1 9453   3.729   2.170   1.630
 3170TIP3    H2 9454   3.757   2.304   1.695
 3171TIP3   OH2 9455   1.094   5.158   5.953
 3171TIP3    H1 9456   1.030   5.140   5.884
 3171TIP3    H2 9457   1.169   5.195   5.907
 3172TIP3   OH2 9458   6.639   2.624   4.098
 3172TIP3    H1 9459   6.562   2.666   4.060
 3172TIP3    H2 9460   6.711   2.645   4.039
 3173TIP3   OH2 9461   1.494   5.233   0.242
 3173TIP3    H1 9462   1.552   5.306   0.263
 3173TIP3    H2 9463   1.543   5.155   0.267
 3174TIP3   OH2 9464   6.672   4.663   0.850
 3174TIP3    H1 9465   6.637   4.576   0.871
 3174TIP3    H2 9466   6.606   4.702   0.793
 3175TIP3   OH2 9467   1.914   3.147   1.663
 3175TIP3    H1 9468   1.977   3.209   1.627
 3175TIP3    H2 9469   1.859   3.123   1.588
 3176TIP3   OH2 9470   5.367   4.750   2.831
 3176TIP3    H1 9471   5.364   4.668   2.782
 3176TIP3    H2 9472   5.284   4.793   2.809
 3177TIP3   OH2 9473   4.348   0.690   4.475
 3177TIP3    H1 9474   4.308   0.708   4.560
 3177TIP3    H2 9475   4.284   0.636   4.429
 3178TIP3   OH2 9476   1.163   4.863   5.382
 3178TIP3    H1 9477   1.198   4.947   5.353
 3178TIP3    H2 9478   1.098   4.887   5.448
 3179TIP3   OH2 9479   0.080   5.464   4.278
 3179TIP3    H1 9480   0.031   5.501   4.205
 3179TIP3    H2 9481   0.063   5.523   4.351
 3180TIP3   OH2 9482   8.148   5.041   2.088
 3180TIP3    H1 9483   8.155   5.122   2.139
 3180TIP3    H2 9484   8.173   5.067   1.999
 3181TIP3   OH2 9485   5.000   4.665   3.548
 3181TIP3    H1 9486   5.053   4.734   3.588
 3181TIP3    H2 9487   5.026   4.666   3.456
 3182TIP3   OH2 9488   4.956   3.512   1.191
 3182TIP3    H1 9489   4.900   3.577   1.233
 3182TIP3    H2 9490   5.039   3.558   1.177
 3183TIP3   OH2 9491   1.236   4.741   2.233
 3183TIP3    H1 9492   1.177   4.779   2.299
 3183TIP3    H2 9493   1.252   4.812   2.171
 3184TIP3   OH2 9494   2.297   5.015   2.792
 3184TIP3    H1 9495   2.242   5.062   2.730
 3184TIP3    H2 9496   2.387   5.039   2.767
 3185TIP3   OH2 9497   2.560   3.688   1.072
 3185TIP3    H1 9498   2.577   3.752   1.140
 3185TIP3    H2 9499   2.496   3.730   1.014
 3186TIP3   OH2 9500   4.695   4.032   2.054
 3186TIP3    H1 9501   4.682   4.109   2.000
 3186TIP3    H2 9502   4.783   4.001   2.032
 3187TIP3   OH2 9503   3.374   0.805   6.514
 3187TIP3    H1 9504   3.305   0.872   6.521
 3187TIP3    H2 9505   3.411   0.800   6.602
 3188TIP3   OH2 9506   5.863   1.036   3.844
 3188TIP3    H1 9507   5.942   1.088   3.836
 3188TIP3    H2 9508   5.811   1.080   3.911
 3189TIP3   OH2 9509   0.416   4.525   4.422
 3189TIP3    H1 9510   0.404   4.468   4.498
 3189TIP3    H2 9511   0.335   4.577   4.418
 3190TIP3   OH2 9512   0.304   1.262   3.674
 3190TIP3    H1 9513   0.271   1.192   3.619
 3190TIP3    H2 9514   0.394   1.276   3.645
 3191TIP3   OH2 9515   6.898   7.391   3.862
 3191TIP3    H1 9516   6.875   7.384   3.769
 3191TIP3    H2 9517   6.969   7.455   3.864
 3192TIP3   OH2 9518   6.335   3.678   3.435
 3192TIP3    H1 9519   6.311   3.586   3.429
 3192TIP3    H2 9520   6.256   3.723   3.464
 3193TIP3   OH2 9521   1.319   2.234   0.250
 3193TIP3    H1 9522   1.248   2.280   0.204
 3193TIP3    H2 9523   1.283   2.147   0.269
 3194TIP3   OH2 9524   3.911   3.872   2.012
 3194TIP3    H1 9525   3.845   3.850   1.946
 3194TIP3    H2 9526   3.912   3.967   2.015
 3195TIP3   OH2 9527   6.359   5.923   0.806
 3195TIP3    H1 9528   6.431   5.978   0.775
 3195TIP3    H2 9529   6.392   5.834   0.795
 3196TIP3   OH2 9530   1.495   3.498   1.092
 3196TIP3    H1 9531   1.476   3.557   1.165
 3196TIP3    H2 9532   1.471   3.549   1.014
 3197TIP3   OH2 9533   1.674   3.078   5.313
 3197TIP3    H1 9534   1.765   3.055   5.293
 3197TIP3    H2 9535   1.641   3.118   5.233
 3198TIP3   OH2 9536   1.014   5.017   3.156
 3198TIP3    H1 9537   1.049   4.985   3.073
 3198TIP3    H2 9538   0.936   5.066   3.132
 3199TIP3   OH2 9539   0.203   2.567   4.389
 3199TIP3    H1 9540   0.128   2.508   4.399
 3199TIP3    H2 9541   0.213   2.577   4.295
 3200TIP3   OH2 9542   7.387   2.471   1.710
 3200TIP3    H1 9543   7.354   2.490   1.622
 3200TIP3    H2 9544   7.475   2.438   1.697
 3201TIP3   OH2 9545   6.685   1.799   6.713
 3201TIP3    H1 9546   6.749   1.811   6.642
 3201TIP3    H2 9547   6.699   1.709   6.742
 3202TIP3   OH2 9548   0.179   0.086   5.245
 3202TIP3    H1 9549   0.159  -0.006   5.265
 3202TIP3    H2 9550   0.270   0.096   5.274
 3203TIP3   OH2 9551   2.580   3.017   1.838
 3203TIP3    H1 9552   2.513   2.949   1.832
 3203TIP3    H2 9553   2.652   2.985   1.784
 3204TIP3   OH2 9554   5.506   4.944   5.350
 3204TIP3    H1 9555   5.423   4.960   5.397
 3204TIP3    H2 9556   5.545   5.031   5.342
 3205TIP3   OH2 9557   5.424   1.806   6.458
 3205TIP3    H1 9558   5.331   1.824   6.449
 3205TIP3    H2 9559   5.437   1.798   6.553
 3206TIP3   OH2 9560   0.166   2.945   2.024
 3206TIP3    H1 9561   0.124   3.028   2.046
 3206TIP3    H2 9562   0.145   2.931   1.932
 3207TIP3   OH2 9563   7.308   3.785   2.388
 3207TIP3    H1 9564   7.316   3.841   2.311
 3207TIP3    H2 9565   7.249   3.833   2.446
 3208TIP3   OH2 9566   2.862   0.257   6.466
 3208TIP3    H1 9567   2.867   0.252   6.371
 3208TIP3    H2 9568   2.907   0.338   6.489
 3209TIP3   OH2 9569   7.671   0.228   1.500
 3209TIP3    H1 9570   7.575   0.222   1.495
 3209TIP3    H2 9571   7.687   0.304   1.557
 3210TIP3   OH2 9572   5.771   3.127   3.067
 3210TIP3    H1 9573   5.771   3.063   3.138
 3210TIP3    H2 9574   5.851   3.108   3.018
 3211TIP3   OH2 9575   2.809   6.925   6.729
 3211TIP3    H1 9576   2.721   6.928   6.767
 3211TIP3    H2 9577   2.801   6.970   6.645
 3212TIP3   OH2 9578   0.616   1.743   1.200
 3212TIP3    H1 9579   0.663   1.812   1.247
 3212TIP3    H2 9580   0.530   1.781   1.183
 3213TIP3   OH2 9581   4.184   2.141   4.660
 3213TIP3    H1 9582   4.205   2.232   4.681
 3213TIP3    H2 9583   4.171   2.099   4.745
 3214TIP3   OH2 9584   5.377   2.549   6.402
 3214TIP3    H1 9585   5.349   2.638   6.381
 3214TIP3    H2 9586   5.365   2.500   6.320
 3215TIP3   OH2 9587   0.579   6.381   6.362
 3215TIP3    H1 9588   0.648   6.446   6.374
 3215TIP3    H2 9589   0.523   6.391   6.439
 3216TIP3   OH2 9590   7.680   7.257   5.434
 3216TIP3    H1 9591   7.602   7.258   5.491
 3216TIP3    H2 9592   7.700   7.350   5.420
 3217TIP3   OH2 9593   0.754   5.440   6.784
 3217TIP3    H1 9594   0.675   5.386   6.794
 3217TIP3    H2 9595   0.721   5.526   6.757
 3218TIP3   OH2 9596   0.192   7.182   2.039
 3218TIP3    H1 9597   0.244   7.260   2.061
 3218TIP3    H2 9598   0.241   7.109   2.077
 3219TIP3   OH2 9599   1.703   1.201   1.615
 3219TIP3    H1 9600   1.791   1.236   1.614
 3219TIP3    H2 9601   1.697   1.154   1.698
 3220TIP3   OH2 9602   8.284   7.123   2.739
 3220TIP3    H1 9603   8.369   7.168   2.744
 3220TIP3    H2 9604   8.225   7.179   2.789
 3221TIP3   OH2 9605   3.259   5.863   6.642
 3221TIP3    H1 9606   3.318   5.925   6.684
 3221TIP3    H2 9607   3.302   5.778   6.651
 3222TIP3   OH2 9608   2.168   1.748   1.806
 3222TIP3    H1 9609   2.183   1.836   1.773
 3222TIP3    H2 9610   2.160   1.759   1.901
 3223TIP3   OH2 9611   3.118   6.402   6.645
 3223TIP3    H1 9612   3.114   6.307   6.645
 3223TIP3    H2 9613   3.052   6.429   6.710
 3224TIP3   OH2 9614   1.107   6.071   3.516
 3224TIP3    H1 9615   1.020   6.096   3.547
 3224TIP3    H2 9616   1.115   6.114   3.431
 3225TIP3   OH2 9617   7.684   3.451   2.542
 3225TIP3    H1 9618   7.614   3.496   2.495
 3225TIP3    H2 9619   7.645   3.367   2.566
 3226TIP3   OH2 9620   4.675   2.689   0.132
 3226TIP3    H1 9621   4.615   2.663   0.063
 3226TIP3    H2 9622   4.639   2.770   0.167
 3227TIP3   OH2 9623   2.262   1.167   1.585
 3227TIP3    H1 9624   2.259   1.257   1.617
 3227TIP3    H2 9625   2.318   1.170   1.508
 3228TIP3   OH2 9626   5.024   7.554   2.053
 3228TIP3    H1 9627   4.995   7.561   1.962
 3228TIP3    H2 9628   5.063   7.639   2.073
 3229TIP3   OH2 9629   4.924   7.302   2.753
 3229TIP3    H1 9630   4.868   7.349   2.815
 3229TIP3    H2 9631   4.969   7.237   2.806
 3230TIP3   OH2 9632   1.309   5.365   0.592
 3230TIP3    H1 9633   1.395   5.393   0.626
 3230TIP3    H2 9634   1.283   5.294   0.650
 3231TIP3   OH2 9635   1.766   6.588   3.906
 3231TIP3    H1 9636   1.795   6.618   3.992
 3231TIP3    H2 9637   1.679   6.627   3.895
 3232TIP3   OH2 9638   3.324   5.266   1.816
 3232TIP3    H1 9639   3.241   5.219   1.821
 3232TIP3    H2 9640   3.324   5.304   1.728
 3233TIP3   OH2 9641   4.785   6.354   2.584
 3233TIP3    H1 9642   4.869   6.324   2.547
 3233TIP3    H2 9643   4.772   6.441   2.546
 3234TIP3   OH2 9644   2.743   3.969   5.540
 3234TIP3    H1 9645   2.697   4.042   5.498
 3234TIP3    H2 9646   2.835   3.987   5.525
 3235TIP3   OH2 9647   5.012   4.567   3.810
 3235TIP3    H1 9648   5.011   4.602   3.720
 3235TIP3    H2 9649   4.941   4.503   3.811
 3236TIP3   OH2 9650   3.775   1.441   2.470
 3236TIP3    H1 9651   3.769   1.444   2.565
 3236TIP3    H2 9652   3.822   1.521   2.446
 3237TIP3   OH2 9653   1.798   2.544   1.512
 3237TIP3    H1 9654   1.793   2.562   1.418
 3237TIP3    H2 9655   1.842   2.459   1.518
 3238TIP3   OH2 9656   2.491   6.193   3.361
 3238TIP3    H1 9657   2.453   6.115   3.401
 3238TIP3    H2 9658   2.429   6.263   3.381
 3239TIP3   OH2 9659   4.422   0.817   0.137
 3239TIP3    H1 9660   4.368   0.745   0.103
 3239TIP3    H2 9661   4.453   0.863   0.059
 3240TIP3   OH2 9662   1.309   2.801   0.091
 3240TIP3    H1 9663   1.267   2.864   0.150
 3240TIP3    H2 9664   1.334   2.853   0.014
 3241TIP3   OH2 9665   6.452   0.049   0.359
 3241TIP3    H1 9666   6.433  -0.036   0.398
 3241TIP3    H2 9667   6.408   0.047   0.273
 3242TIP3   OH2 9668   6.875   3.158   4.815
 3242TIP3    H1 9669   6.814   3.087   4.796
 3242TIP3    H2 9670   6.961   3.120   4.799
 3243TIP3   OH2 9671   2.435   1.198   5.777
 3243TIP3    H1 9672   2.518   1.210   5.730
 3243TIP3    H2 9673   2.397   1.286   5.782
 3244TIP3   OH2 9674   5.234   1.553   5.988
 3244TIP3    H1 9675   5.322   1.581   6.011
 3244TIP3    H2 9676   5.236   1.542   5.893
 3245TIP3   OH2 9677   0.217   0.473   3.776
 3245TIP3    H1 9678   0.199   0.431   3.692
 3245TIP3    H2 9679   0.152   0.543   3.782
 3246TIP3   OH2 9680   6.953   2.109   0.841
 3246TIP3    H1 9681   6.944   2.063   0.757
 3246TIP3    H2 9682   6.951   2.202   0.817
 3247TIP3   OH2 9683   4.426   6.995   5.580
 3247TIP3    H1 9684   4.357   7.051   5.616
 3247TIP3    H2 9685   4.508   7.037   5.608
 3248TIP3   OH2 9686   3.720   5.266   6.622
 3248TIP3    H1 9687   3.812   5.243   6.611
 3248TIP3    H2 9688   3.713   5.355   6.586
 3249TIP3   OH2 9689   7.107   1.426   0.568
 3249TIP3    H1 9690   7.160   1.494   0.526
 3249TIP3    H2 9691   7.034   1.411   0.508
 3250TIP3   OH2 9692   0.671   5.962   5.550
 3250TIP3    H1 9693   0.642   5.909   5.623
 3250TIP3    H2 9694   0.742   5.912   5.510
 3251TIP3   OH2 9695   1.719   4.958   6.108
 3251TIP3    H1 9696   1.809   4.948   6.138
 3251TIP3    H2 9697   1.716   4.910   6.025
 3252TIP3   OH2 9698   4.171   7.649   3.946
 3252TIP3    H1 9699   4.107   7.610   4.005
 3252TIP3    H2 9700   4.213   7.718   3.999
 3253TIP3   OH2 9701   0.672   1.853   5.775
 3253TIP3    H1 9702   0.663   1.940   5.813
 3253TIP3    H2 9703   0.764   1.847   5.750
 3254TIP3   OH2 9704   7.426   1.387   5.188
 3254TIP3    H1 9705   7.349   1.444   5.181
 3254TIP3    H2 9706   7.429   1.341   5.105
 3255TIP3   OH2 9707   5.372   5.166   4.089
 3255TIP3    H1 9708   5.422   5.131   4.163
 3255TIP3    H2 9709   5.284   5.179   4.124
 3256TIP3   OH2 9710  -0.010   4.008   4.076
 3256TIP3    H1 9711  -0.056   3.924   4.082
 3256TIP3    H2 9712   0.071   3.995   4.126
 3257TIP3   OH2 9713   0.195   4.446   6.248
 3257TIP3    H1 9714   0.210   4.536   6.218
 3257TIP3    H2 9715   0.242   4.440   6.331
 3258TIP3   OH2 9716   5.354   2.738   0.622
 3258TIP3    H1 9717   5.409   2.713   0.548
 3258TIP3    H2 9718   5.299   2.809   0.588
 3259TIP3   OH2 9719   6.245   3.519   3.766
 3259TIP3    H1 9720   6.152   3.540   3.760
 3259TIP3    H2 9721   6.250   3.449   3.831
 3260TIP3   OH2 9722   1.726   6.376   1.562
 3260TIP3    H1 9723   1.689   6.393   1.649
 3260TIP3    H2 9724   1.796   6.313   1.578
 3261TIP3   OH2 9725   3.768   3.426   6.034
 3261TIP3    H1 9726   3.809   3.351   6.077
 3261TIP3    H2 9727   3.837   3.462   5.978
 3262TIP3   OH2 9728   5.438   7.340   3.652
 3262TIP3    H1 9729   5.383   7.398   3.706
 3262TIP3    H2 9730   5.377   7.300   3.590
 3263TIP3   OH2 9731   2.211   6.340   1.686
 3263TIP3    H1 9732   2.240   6.326   1.776
 3263TIP3    H2 9733   2.122   6.306   1.684
 3264TIP3   OH2 9734   1.398   0.777   5.044
 3264TIP3    H1 9735   1.317   0.728   5.033
 3264TIP3    H2 9736   1.465   0.721   5.005
 3265TIP3   OH2 9737   4.846   6.540   6.707
 3265TIP3    H1 9738   4.767   6.534   6.654
 3265TIP3    H2 9739   4.822   6.499   6.790
 3266TIP3   OH2 9740   4.736   3.065   6.490
 3266TIP3    H1 9741   4.760   3.143   6.541
 3266TIP3    H2 9742   4.668   3.096   6.431
 3267TIP3   OH2 9743   4.770   0.225   3.854
 3267TIP3    H1 9744   4.828   0.284   3.807
 3267TIP3    H2 9745   4.826   0.183   3.920
 3268TIP3   OH2 9746   4.169   4.127   0.092
 3268TIP3    H1 9747   4.205   4.169   0.170
 3268TIP3    H2 9748   4.176   4.034   0.109
 3269TIP3   OH2 9749   3.929   6.011   4.869
 3269TIP3    H1 9750   3.834   6.017   4.877
 3269TIP3    H2 9751   3.961   6.093   4.908
 3270TIP3   OH2 9752   3.103   4.607   1.240
 3270TIP3    H1 9753   3.191   4.644   1.239
 3270TIP3    H2 9754   3.082   4.590   1.149
 3271TIP3   OH2 9755   6.461   4.683   3.912
 3271TIP3    H1 9756   6.504   4.756   3.867
 3271TIP3    H2 9757   6.531   4.639   3.960
 3272TIP3   OH2 9758   0.150   4.390   1.699
 3272TIP3    H1 9759   0.060   4.387   1.731
 3272TIP3    H2 9760   0.156   4.475   1.654
 3273TIP3   OH2 9761   1.795   5.202   3.341
 3273TIP3    H1 9762   1.736   5.160   3.279
 3273TIP3    H2 9763   1.880   5.202   3.297
 3274TIP3   OH2 9764   5.476   3.431   0.930
 3274TIP3    H1 9765   5.536   3.434   0.855
 3274TIP3    H2 9766   5.389   3.431   0.891
 3275TIP3   OH2 9767   1.208   0.514   3.070
 3275TIP3    H1 9768   1.151   0.508   2.994
 3275TIP3    H2 9769   1.282   0.458   3.048
 3276TIP3   OH2 9770   6.876   6.968   2.507
 3276TIP3    H1 9771   6.943   6.979   2.440
 3276TIP3    H2 9772   6.887   7.044   2.564
 3277TIP3   OH2 9773   7.311   1.662   2.863
 3277TIP3    H1 9774   7.388   1.672   2.806
 3277TIP3    H2 9775   7.338   1.702   2.946
 3278TIP3   OH2 9776   6.214   3.006   6.760
 3278TIP3    H1 9777   6.256   2.985   6.677
 3278TIP3    H2 9778   6.176   2.923   6.790
 3279TIP3   OH2 9779   5.942   1.638   5.127
 3279TIP3    H1 9780   5.980   1.553   5.105
 3279TIP3    H2 9781   5.917   1.630   5.219
 3280TIP3   OH2 9782   1.508   0.654   4.387
 3280TIP3    H1 9783   1.462   0.570   4.396
 3280TIP3    H2 9784   1.439   0.720   4.391
 3281TIP3   OH2 9785   3.357   5.013   6.011
 3281TIP3    H1 9786   3.380   4.960   6.088
 3281TIP3    H2 9787   3.372   5.103   6.039
 3282TIP3   OH2 9788   5.557   1.206   5.372
 3282TIP3    H1 9789   5.541   1.164   5.288
 3282TIP3    H2 9790   5.594   1.136   5.427
 3283TIP3   OH2 9791   0.237   6.877   1.044
 3283TIP3    H1 9792   0.292   6.859   0.968
 3283TIP3    H2 9793   0.250   6.970   1.062
 3284TIP3   OH2 9794   0.941   1.901   5.703
 3284TIP3    H1 9795   1.000   1.976   5.707
 3284TIP3    H2 9796   0.967   1.855   5.623
 3285TIP3   OH2 9797   1.749   5.430   5.347
 3285TIP3    H1 9798   1.805   5.486   5.399
 3285TIP3    H2 9799   1.680   5.488   5.314
 3286TIP3   OH2 9800   8.127   0.765   4.942
 3286TIP3    H1 9801   8.209   0.720   4.926
 3286TIP3    H2 9802   8.128   0.784   5.036
 3287TIP3   OH2 9803   7.178   7.296   3.513
 3287TIP3    H1 9804   7.229   7.234   3.461
 3287TIP3    H2 9805   7.155   7.247   3.592
 3288TIP3   OH2 9806   1.224   0.448   4.416
 3288TIP3    H1 9807   1.146   0.479   4.371
 3288TIP3    H2 9808   1.287   0.431   4.346
 3289TIP3   OH2 9809   0.821   2.438   6.249
 3289TIP3    H1 9810   0.727   2.423   6.242
 3289TIP3    H2 9811   0.828   2.527   6.283
 3290TIP3   OH2 9812   0.921   6.122   2.516
 3290TIP3    H1 9813   0.928   6.113   2.421
 3290TIP3    H2 9814   1.010   6.108   2.548
 3291TIP3   OH2 9815   0.950   4.454   4.222
 3291TIP3    H1 9816   0.937   4.408   4.139
 3291TIP3    H2 9817   0.997   4.534   4.197
 3292TIP3   OH2 9818   6.861   3.270   3.349
 3292TIP3    H1 9819   6.872   3.259   3.255
 3292TIP3    H2 9820   6.881   3.362   3.366
 3293TIP3   OH2 9821   2.956   1.137   5.512
 3293TIP3    H1 9822   3.028   1.074   5.520
 3293TIP3    H2 9823   2.984   1.211   5.566
 3294TIP3   OH2 9824   7.751   7.226   2.767
 3294TIP3    H1 9825   7.705   7.279   2.833
 3294TIP3    H2 9826   7.729   7.136   2.790
 3295TIP3   OH2 9827   5.542   3.362   2.094
 3295TIP3    H1 9828   5.605   3.362   2.167
 3295TIP3    H2 9829   5.459   3.337   2.134
 3296TIP3   OH2 9830   3.670   7.532   1.888
 3296TIP3    H1 9831   3.749   7.586   1.888
 3296TIP3    H2 9832   3.672   7.485   1.804
 3297TIP3   OH2 9833   7.023   3.037   1.186
 3297TIP3    H1 9834   7.059   3.117   1.147
 3297TIP3    H2 9835   7.054   3.038   1.276
 3298TIP3   OH2 9836   3.771   7.495   2.782
 3298TIP3    H1 9837   3.721   7.574   2.803
 3298TIP3    H2 9838   3.863   7.524   2.784
 3299TIP3   OH2 9839   6.565   0.080   3.854
 3299TIP3    H1 9840   6.647   0.073   3.903
 3299TIP3    H2 9841   6.556   0.174   3.836
 3300TIP3   OH2 9842   3.792   0.638   3.218
 3300TIP3    H1 9843   3.869   0.581   3.225
 3300TIP3    H2 9844   3.744   0.605   3.142
 3301TIP3   OH2 9845   2.681   0.690   4.954
 3301TIP3    H1 9846   2.701   0.659   5.043
 3301TIP3    H2 9847   2.588   0.714   4.957
 3302TIP3   OH2 9848   6.837   3.762   6.069
 3302TIP3    H1 9849   6.828   3.825   6.140
 3302TIP3    H2 9850   6.805   3.809   5.991
 3303TIP3   OH2 9851   5.737   1.846   5.723
 3303TIP3    H1 9852   5.689   1.767   5.698
 3303TIP3    H2 9853   5.819   1.840   5.674
 3304TIP3   OH2 9854   2.294   4.069   6.214
 3304TIP3    H1 9855   2.212   4.115   6.230
 3304TIP3    H2 9856   2.347   4.085   6.292
 3305TIP3   OH2 9857   7.962   5.703   2.794
 3305TIP3    H1 9858   7.913   5.631   2.754
 3305TIP3    H2 9859   8.039   5.713   2.738
 3306TIP3   OH2 9860   2.294   1.819   5.444
 3306TIP3    H1 9861   2.369   1.875   5.426
 3306TIP3    H2 9862   2.294   1.754   5.374
 3307TIP3   OH2 9863   6.443   0.990   6.442
 3307TIP3    H1 9864   6.378   1.029   6.383
 3307TIP3    H2 9865   6.507   1.060   6.456
 3308TIP3   OH2 9866   7.664   0.332   0.561
 3308TIP3    H1 9867   7.644   0.255   0.615
 3308TIP3    H2 9868   7.753   0.317   0.530
 3309TIP3   OH2 9869   4.926   7.225   1.921
 3309TIP3    H1 9870   4.860   7.258   1.982
 3309TIP3    H2 9871   4.997   7.195   1.978
 3310TIP3   OH2 9872   7.362   0.746   4.374
 3310TIP3    H1 9873   7.437   0.772   4.322
 3310TIP3    H2 9874   7.385   0.770   4.464
 3311TIP3   OH2 9875   1.388   0.641   2.225
 3311TIP3    H1 9876   1.364   0.692   2.303
 3311TIP3    H2 9877   1.348   0.555   2.240
 3312TIP3   OH2 9878   7.365   2.315   2.598
 3312TIP3    H1 9879   7.279   2.274   2.595
 3312TIP3    H2 9880   7.418   2.264   2.537
 3313TIP3   OH2 9881   8.149   1.959   1.630
 3313TIP3    H1 9882   8.107   1.877   1.605
 3313TIP3    H2 9883   8.233   1.957   1.584
 3314TIP3   OH2 9884   0.770   3.333   2.487
 3314TIP3    H1 9885   0.773   3.286   2.404
 3314TIP3    H2 9886   0.697   3.394   2.478
 3315TIP3   OH2 9887   8.269   3.382   4.312
 3315TIP3    H1 9888   8.326   3.458   4.326
 3315TIP3    H2 9889   8.202   3.390   4.380
 3316TIP3   OH2 9890   4.991   6.145   5.048
 3316TIP3    H1 9891   4.938   6.138   5.127
 3316TIP3    H2 9892   4.963   6.072   4.993
 3317TIP3   OH2 9893   5.486   0.302   1.672
 3317TIP3    H1 9894   5.566   0.250   1.665
 3317TIP3    H2 9895   5.515   0.389   1.698
 3318TIP3   OH2 9896   1.630   1.058   3.515
 3318TIP3    H1 9897   1.651   1.094   3.429
 3318TIP3    H2 9898   1.679   1.114   3.576
 3319TIP3   OH2 9899   5.474   5.448   1.196
 3319TIP3    H1 9900   5.566   5.442   1.224
 3319TIP3    H2 9901   5.450   5.539   1.212
 3320TIP3   OH2 9902   7.457   7.781   4.903
 3320TIP3    H1 9903   7.498   7.700   4.874
 3320TIP3    H2 9904   7.485   7.846   4.839
 3321TIP3   OH2 9905   2.777   0.455  -0.009
 3321TIP3    H1 9906   2.684   0.467  -0.029
 3321TIP3    H2 9907   2.799   0.529   0.048
 3322TIP3   OH2 9908   2.740   1.985   0.960
 3322TIP3    H1 9909   2.686   1.964   0.884
 3322TIP3    H2 9910   2.677   2.000   1.031
 3323TIP3   OH2 9911   7.595   3.144   5.702
 3323TIP3    H1 9912   7.596   3.050   5.682
 3323TIP3    H2 9913   7.687   3.170   5.699
 3324TIP3   OH2 9914   5.818   0.894   0.415
 3324TIP3    H1 9915   5.730   0.906   0.379
 3324TIP3    H2 9916   5.853   0.983   0.422
 3325TIP3   OH2 9917   7.808   4.734   0.592
 3325TIP3    H1 9918   7.735   4.741   0.653
 3325TIP3    H2 9919   7.854   4.818   0.598
 3326TIP3   OH2 9920   2.610   5.534   5.623
 3326TIP3    H1 9921   2.538   5.557   5.565
 3326TIP3    H2 9922   2.571   5.474   5.686
 3327TIP3   OH2 9923   1.290   1.699   6.180
 3327TIP3    H1 9924   1.302   1.727   6.089
 3327TIP3    H2 9925   1.211   1.646   6.179
 3328TIP3   OH2 9926   6.386   6.699   3.212
 3328TIP3    H1 9927   6.292   6.686   3.230
 3328TIP3    H2 9928   6.417   6.750   3.287
 3329TIP3   OH2 9929   5.627   3.121   5.618
 3329TIP3    H1 9930   5.626   3.079   5.532
 3329TIP3    H2 9931   5.594   3.210   5.602
 3330TIP3   OH2 9932   3.451   6.291   3.491
 3330TIP3    H1 9933   3.420   6.215   3.443
 3330TIP3    H2 9934   3.547   6.285   3.486
 3331TIP3   OH2 9935   7.423   0.730   0.675
 3331TIP3    H1 9936   7.358   0.663   0.694
 3331TIP3    H2 9937   7.374   0.800   0.632
 3332TIP3   OH2 9938   4.488   6.392   4.138
 3332TIP3    H1 9939   4.557   6.397   4.204
 3332TIP3    H2 9940   4.410   6.364   4.187
 3333TIP3   OH2 9941   7.334   2.699   5.031
 3333TIP3    H1 9942   7.375   2.709   5.117
 3333TIP3    H2 9943   7.280   2.621   5.039
 3334TIP3   OH2 9944   7.426   0.929   1.697
 3334TIP3    H1 9945   7.482   0.945   1.621
 3334TIP3    H2 9946   7.488   0.906   1.767
 3335TIP3   OH2 9947   2.241   1.793   2.081
 3335TIP3    H1 9948   2.218   1.884   2.099
 3335TIP3    H2 9949   2.189   1.743   2.145
 3336TIP3   OH2 9950   4.264   6.120   6.042
 3336TIP3    H1 9951   4.277   6.120   6.137
 3336TIP3    H2 9952   4.245   6.211   6.021
 3337TIP3   OH2 9953   4.026   1.503   6.416
 3337TIP3    H1 9954   3.992   1.511   6.327
 3337TIP3    H2 9955   4.121   1.506   6.405
 3338TIP3   OH2 9956   3.878   6.746   0.760
 3338TIP3    H1 9957   3.784   6.746   0.781
 3338TIP3    H2 9958   3.918   6.797   0.830
 3339TIP3   OH2 9959   4.344   1.417   4.124
 3339TIP3    H1 9960   4.337   1.325   4.147
 3339TIP3    H2 9961   4.285   1.428   4.049
 3340TIP3   OH2 9962   8.262   7.857   6.160
 3340TIP3    H1 9963   8.205   7.799   6.211
 3340TIP3    H2 9964   8.270   7.815   6.075
 3341TIP3   OH2 9965   2.287   6.219   6.421
 3341TIP3    H1 9966   2.209   6.274   6.419
 3341TIP3    H2 9967   2.355   6.274   6.380
 3342TIP3   OH2 9968   2.907   1.296   4.794
 3342TIP3    H1 9969   2.865   1.216   4.761
 3342TIP3    H2 9970   2.996   1.292   4.759
 3343TIP3   OH2 9971   5.551   5.431   1.598
 3343TIP3    H1 9972   5.639   5.460   1.578
 3343TIP3    H2 9973   5.534   5.360   1.536
 3344TIP3   OH2 9974   0.273   0.615   0.171
 3344TIP3    H1 9975   0.327   0.542   0.202
 3344TIP3    H2 9976   0.324   0.655   0.101
 3345TIP3   OH2 9977   0.945   5.716   1.539
 3345TIP3    H1 9978   1.037   5.704   1.561
 3345TIP3    H2 9979   0.910   5.627   1.533
 3346TIP3   OH2 9980   0.495   5.791   3.921
 3346TIP3    H1 9981   0.452   5.872   3.896
 3346TIP3    H2 9982   0.578   5.791   3.873
 3347TIP3   OH2 9983   0.360   7.647   4.799
 3347TIP3    H1 9984   0.405   7.566   4.825
 3347TIP3    H2 9985   0.317   7.677   4.878
 3348TIP3   OH2 9986   6.131   3.555   5.898
 3348TIP3    H1 9987   6.165   3.618   5.961
 3348TIP3    H2 9988   6.207   3.502   5.873
 3349TIP3   OH2 9989   0.900   7.787   2.433
 3349TIP3    H1 9990   0.854   7.809   2.352
 3349TIP3    H2 9991   0.931   7.870   2.467
 3350TIP3   OH2 9992   7.586   3.642   3.844
 3350TIP3    H1 9993   7.576   3.697   3.766
 3350TIP3    H2 9994   7.525   3.570   3.829
 3351TIP3   OH2 9995   7.388   1.210   4.449
 3351TIP3    H1 9996   7.414   1.203   4.357
 3351TIP3    H2 9997   7.467   1.243   4.493
 3352TIP3   OH2 9998   2.284   4.959   5.080
 3352TIP3    H1 9999   2.350   4.894   5.105
 3352TIP3    H210000   2.252   4.993   5.163
 3353TIP3   OH210001   5.689   7.490   4.812
 3353TIP3    H110002   5.593   7.483   4.816
 3353TIP3    H210003   5.718   7.400   4.796
 3354TIP3   OH210004   1.068   6.118   0.908
 3354TIP3    H110005   1.140   6.166   0.949
 3354TIP3    H210006   1.043   6.053   0.973
 3355TIP3   OH210007   5.857   2.660   0.959
 3355TIP3    H110008   5.812   2.741   0.984
 3355TIP3    H210009   5.833   2.598   1.027
 3356TIP3   OH210010   3.095   0.858   1.764
 3356TIP3    H110011   3.066   0.822   1.679
 3356TIP3    H210012   3.100   0.952   1.750
 3357TIP3   OH210013   4.427   0.312   4.832
 3357TIP3    H110014   4.458   0.224   4.852
 3357TIP3    H210015   4.392   0.345   4.915
 3358TIP3   OH210016   1.358   6.541   1.804
 3358TIP3    H110017   1.356   6.563   1.711
 3358TIP3    H210018   1.284   6.588   1.843
 3359TIP3   OH210019   6.386   4.839   0.438
 3359TIP3    H110020   6.448   4.873   0.373
 3359TIP3    H210021   6.305   4.887   0.421
 3360TIP3   OH210022   3.923   7.440   5.067
 3360TIP3    H110023   3.831   7.467   5.062
 3360TIP3    H210024   3.952   7.438   4.976
 3361TIP3   OH210025   0.718   5.989   4.006
 3361TIP3    H110026   0.738   5.997   4.100
 3361TIP3    H210027   0.670   5.907   3.999
 3362TIP3   OH210028   0.129   2.228   0.623
 3362TIP3    H110029   0.187   2.157   0.650
 3362TIP3    H210030   0.119   2.217   0.528
 3363TIP3   OH210031   4.070   3.731   5.696
 3363TIP3    H110032   4.156   3.747   5.657
 3363TIP3    H210033   4.045   3.815   5.733
 3364TIP3   OH210034   7.454   4.921   3.839
 3364TIP3    H110035   7.495   4.908   3.753
 3364TIP3    H210036   7.511   4.873   3.899
 3365TIP3   OH210037   3.833   2.110   4.767
 3365TIP3    H110038   3.852   2.114   4.860
 3365TIP3    H210039   3.863   2.023   4.740
 3366TIP3   OH210040   3.429   2.270   0.190
 3366TIP3    H110041   3.484   2.194   0.168
 3366TIP3    H210042   3.455   2.294   0.279
 3367TIP3   OH210043   0.669   0.039   4.851
 3367TIP3    H110044   0.679  -0.041   4.799
 3367TIP3    H210045   0.750   0.043   4.903
 3368TIP3   OH210046   4.900   6.498   5.556
 3368TIP3    H110047   4.969   6.441   5.590
 3368TIP3    H210048   4.838   6.438   5.513
 3369TIP3   OH210049   2.305   4.200   2.710
 3369TIP3    H110050   2.328   4.292   2.693
 3369TIP3    H210051   2.293   4.162   2.623
 3370TIP3   OH210052   1.371   5.398   3.471
 3370TIP3    H110053   1.447   5.399   3.413
 3370TIP3    H210054   1.401   5.438   3.552
 3371TIP3   OH210055   0.376   4.383   2.943
 3371TIP3    H110056   0.290   4.373   2.983
 3371TIP3    H210057   0.370   4.466   2.895
 3372TIP3   OH210058   3.191   4.901   3.676
 3372TIP3    H110059   3.212   4.853   3.596
 3372TIP3    H210060   3.262   4.963   3.687
 3373TIP3   OH210061   1.904   4.651   1.867
 3373TIP3    H110062   1.906   4.611   1.954
 3373TIP3    H210063   1.958   4.593   1.814
 3374TIP3   OH210064   1.857   2.279   2.086
 3374TIP3    H110065   1.869   2.310   2.176
 3374TIP3    H210066   1.770   2.238   2.086
 3375TIP3   OH210067   5.558   2.551   0.024
 3375TIP3    H110068   5.467   2.555  -0.007
 3375TIP3    H210069   5.551   2.514   0.112
 3376TIP3   OH210070   1.051   6.139   4.147
 3376TIP3    H110071   1.106   6.210   4.114
 3376TIP3    H210072   1.111   6.065   4.159
 3377TIP3   OH210073   0.276   1.560   1.924
 3377TIP3    H110074   0.265   1.549   1.829
 3377TIP3    H210075   0.193   1.596   1.954
 3378TIP3   OH210076   1.586   1.765   4.969
 3378TIP3    H110077   1.679   1.789   4.965
 3378TIP3    H210078   1.586   1.669   4.965
 3379TIP3   OH210079   2.368   0.406   2.029
 3379TIP3    H110080   2.279   0.381   2.052
 3379TIP3    H210081   2.424   0.357   2.090
 3380TIP3   OH210082   7.015   3.832   1.357
 3380TIP3    H110083   6.928   3.820   1.395
 3380TIP3    H210084   7.022   3.926   1.342
 3381TIP3   OH210085   7.123   3.167   3.514
 3381TIP3    H110086   7.080   3.083   3.499
 3381TIP3    H210087   7.169   3.156   3.597
 3382TIP3   OH210088   4.032   4.381   4.855
 3382TIP3    H110089   4.029   4.400   4.949
 3382TIP3    H210090   4.120   4.408   4.828
 3383TIP3   OH210091   1.920   2.262   0.693
 3383TIP3    H110092   1.825   2.261   0.704
 3383TIP3    H210093   1.942   2.354   0.682
 3384TIP3   OH210094   0.467   1.077   0.387
 3384TIP3    H110095   0.434   0.988   0.401
 3384TIP3    H210096   0.389   1.127   0.362
 3385TIP3   OH210097   5.222   2.408   4.561
 3385TIP3    H110098   5.185   2.410   4.649
 3385TIP3    H210099   5.310   2.373   4.572
 3386TIP3   OH210100   4.142   0.869   4.659
 3386TIP3    H110101   4.100   0.929   4.721
 3386TIP3    H210102   4.087   0.791   4.659
 3387TIP3   OH210103   6.258   1.304   1.688
 3387TIP3    H110104   6.301   1.389   1.675
 3387TIP3    H210105   6.180   1.325   1.740
 3388TIP3   OH210106   2.426   2.792   1.964
 3388TIP3    H110107   2.386   2.736   2.030
 3388TIP3    H210108   2.449   2.732   1.893
 3389TIP3   OH210109   5.007   2.429   2.550
 3389TIP3    H110110   5.032   2.395   2.636
 3389TIP3    H210111   4.929   2.380   2.527
 3390TIP3   OH210112   0.310   1.498   3.156
 3390TIP3    H110113   0.306   1.514   3.250
 3390TIP3    H210114   0.402   1.507   3.133
 3391TIP3   OH210115   7.582   0.775   5.310
 3391TIP3    H110116   7.628   0.811   5.234
 3391TIP3    H210117   7.647   0.776   5.380
 3392TIP3   OH210118   4.268   1.814   6.759
 3392TIP3    H110119   4.289   1.755   6.832
 3392TIP3    H210120   4.194   1.772   6.715
 3393TIP3   OH210121   5.969   2.597   2.623
 3393TIP3    H110122   6.036   2.650   2.668
 3393TIP3    H210123   5.982   2.509   2.657
 3394TIP3   OH210124   7.227   0.178   6.327
 3394TIP3    H110125   7.219   0.091   6.289
 3394TIP3    H210126   7.137   0.204   6.348
 3395TIP3   OH210127   5.051   3.033   3.891
 3395TIP3    H110128   4.985   2.997   3.950
 3395TIP3    H210129   5.019   3.121   3.870
 3396TIP3   OH210130   1.449   4.525   4.700
 3396TIP3    H110131   1.383   4.501   4.635
 3396TIP3    H210132   1.432   4.618   4.719
 3397TIP3   OH210133   5.152   1.890   6.405
 3397TIP3    H110134   5.162   1.938   6.487
 3397TIP3    H210135   5.122   1.956   6.343
 3398TIP3   OH210136   6.107   6.552   2.780
 3398TIP3    H110137   6.153   6.635   2.788
 3398TIP3    H210138   6.173   6.485   2.798
 3399TIP3   OH210139   0.317   7.305   5.144
 3399TIP3    H110140   0.256   7.374   5.172
 3399TIP3    H210141   0.298   7.232   5.203
 3400TIP3   OH210142   7.182   4.634   3.634
 3400TIP3    H110143   7.193   4.691   3.558
 3400TIP3    H210144   7.113   4.675   3.685
 3401TIP3   OH210145   6.786   3.317   5.646
 3401TIP3    H110146   6.795   3.288   5.737
 3401TIP3    H210147   6.747   3.404   5.653
 3402TIP3   OH210148   3.793   0.303   1.817
 3402TIP3    H110149   3.853   0.361   1.770
 3402TIP3    H210150   3.844   0.224   1.833
 3403TIP3   OH210151   7.905   2.110   4.516
 3403TIP3    H110152   7.950   2.171   4.457
 3403TIP3    H210153   7.813   2.117   4.491
 3404TIP3   OH210154   7.360   5.786   2.450
 3404TIP3    H110155   7.396   5.699   2.437
 3404TIP3    H210156   7.431   5.837   2.490
 3405TIP3   OH210157   8.231   5.287   5.688
 3405TIP3    H110158   8.165   5.266   5.623
 3405TIP3    H210159   8.315   5.276   5.642
 3406TIP3   OH210160   1.269   6.914   5.528
 3406TIP3    H110161   1.224   6.888   5.447
 3406TIP3    H210162   1.276   7.010   5.522
 3407TIP3   OH210163   5.465   1.680   5.891
 3407TIP3    H110164   5.458   1.745   5.960
 3407TIP3    H210165   5.401   1.708   5.825
 3408TIP3   OH210166   1.880   6.434   1.130
 3408TIP3    H110167   1.976   6.435   1.126
 3408TIP3    H210168   1.859   6.347   1.163
 3409TIP3   OH210169   7.187   5.475   1.309
 3409TIP3    H110170   7.275   5.476   1.271
 3409TIP3    H210171   7.133   5.430   1.245
 3410TIP3   OH210172   6.763   1.730   1.214
 3410TIP3    H110173   6.803   1.768   1.293
 3410TIP3    H210174   6.780   1.795   1.146
 3411TIP3   OH210175   4.213   4.553   3.477
 3411TIP3    H110176   4.135   4.518   3.434
 3411TIP3    H210177   4.199   4.648   3.480
 3412TIP3   OH210178   8.250   6.299   1.043
 3412TIP3    H110179   8.266   6.372   0.983
 3412TIP3    H210180   8.173   6.326   1.092
 3413TIP3   OH210181   2.361   7.276   4.630
 3413TIP3    H110182   2.434   7.250   4.575
 3413TIP3    H210183   2.360   7.212   4.701
 3414TIP3   OH210184   3.382   1.049   4.444
 3414TIP3    H110185   3.311   1.050   4.507
 3414TIP3    H210186   3.446   1.112   4.478
 3415TIP3   OH210187   4.048   4.278   1.751
 3415TIP3    H110188   4.044   4.224   1.829
 3415TIP3    H210189   3.957   4.289   1.724
 3416TIP3   OH210190   8.199   6.521   0.331
 3416TIP3    H110191   8.223   6.434   0.363
 3416TIP3    H210192   8.282   6.565   0.316
 3417TIP3   OH210193   6.894   7.423   3.564
 3417TIP3    H110194   6.835   7.402   3.493
 3417TIP3    H210195   6.977   7.382   3.539
 3418TIP3   OH210196   3.349   5.645   4.949
 3418TIP3    H110197   3.432   5.615   4.987
 3418TIP3    H210198   3.297   5.673   5.024
 3419TIP3   OH210199   4.916   0.657   0.745
 3419TIP3    H110200   4.922   0.687   0.836
 3419TIP3    H210201   5.004   0.628   0.723
 3420TIP3   OH210202   3.426   6.598   0.345
 3420TIP3    H110203   3.413   6.661   0.416
 3420TIP3    H210204   3.460   6.520   0.387
 3421TIP3   OH210205   0.358   4.763   4.805
 3421TIP3    H110206   0.277   4.805   4.836
 3421TIP3    H210207   0.343   4.669   4.817
 3422TIP3   OH210208   8.289   4.550   0.175
 3422TIP3    H110209   8.229   4.496   0.226
 3422TIP3    H210210   8.233   4.603   0.119
 3423TIP3   OH210211   4.438   2.458   1.448
 3423TIP3    H110212   4.467   2.545   1.474
 3423TIP3    H210213   4.519   2.410   1.430
 3424TIP3   OH210214   0.171   4.515   3.529
 3424TIP3    H110215   0.113   4.542   3.600
 3424TIP3    H210216   0.258   4.512   3.568
 3425TIP3   OH210217   6.240   6.204   3.564
 3425TIP3    H110218   6.185   6.275   3.598
 3425TIP3    H210219   6.312   6.250   3.521
 3426TIP3   OH210220   3.902   3.250   6.184
 3426TIP3    H110221   3.905   3.160   6.149
 3426TIP3    H210222   3.988   3.286   6.163
 3427TIP3   OH210223   3.231   1.641   3.687
 3427TIP3    H110224   3.299   1.640   3.619
 3427TIP3    H210225   3.151   1.664   3.641
 3428TIP3   OH210226   0.872   0.739   0.785
 3428TIP3    H110227   0.948   0.789   0.755
 3428TIP3    H210228   0.910   0.664   0.831
 3429TIP3   OH210229   1.147   3.429   1.972
 3429TIP3    H110230   1.067   3.388   2.006
 3429TIP3    H210231   1.195   3.357   1.930
 3430TIP3   OH210232   5.964   4.705   5.077
 3430TIP3    H110233   5.903   4.761   5.125
 3430TIP3    H210234   5.936   4.616   5.097
 3431TIP3   OH210235   3.930   1.944   6.384
 3431TIP3    H110236   3.913   1.918   6.293
 3431TIP3    H210237   3.955   2.036   6.378
 3432TIP3   OH210238   5.577   7.399   0.237
 3432TIP3    H110239   5.545   7.338   0.171
 3432TIP3    H210240   5.647   7.447   0.193
 3433TIP3   OH210241   7.374   2.334   5.056
 3433TIP3    H110242   7.363   2.298   4.968
 3433TIP3    H210243   7.452   2.388   5.051
 3434TIP3   OH210244   5.788   3.012   6.159
 3434TIP3    H110245   5.720   2.970   6.106
 3434TIP3    H210246   5.852   3.043   6.095
 3435TIP3   OH210247   0.173   4.764   5.157
 3435TIP3    H110248   0.226   4.744   5.234
 3435TIP3    H210249   0.126   4.683   5.137
 3436TIP3   OH210250   4.977   4.911   4.690
 3436TIP3    H110251   5.028   4.862   4.625
 3436TIP3    H210252   5.043   4.954   4.745
 3437TIP3   OH210253   2.203   2.911   6.442
 3437TIP3    H110254   2.219   2.840   6.380
 3437TIP3    H210255   2.199   2.990   6.388
 3438TIP3   OH210256   5.112   6.303   6.501
 3438TIP3    H110257   5.156   6.320   6.585
 3438TIP3    H210258   5.022   6.282   6.525
 3439TIP3   OH210259   4.048   1.263   3.779
 3439TIP3    H110260   3.956   1.287   3.775
 3439TIP3    H210261   4.089   1.332   3.831
 3440TIP3   OH210262   7.014   7.269   1.159
 3440TIP3    H110263   7.039   7.185   1.121
 3440TIP3    H210264   6.951   7.248   1.227
 3441TIP3   OH210265   4.697   6.443   5.353
 3441TIP3    H110266   4.662   6.518   5.304
 3441TIP3    H210267   4.623   6.413   5.406
 3442TIP3   OH210268   2.333   0.704   6.590
 3442TIP3    H110269   2.304   0.795   6.581
 3442TIP3    H210270   2.293   0.658   6.516
 3443TIP3   OH210271   5.382   1.911   6.081
 3443TIP3    H110272   5.373   1.966   6.159
 3443TIP3    H210273   5.406   1.973   6.012
 3444TIP3   OH210274   1.422   1.554   0.904
 3444TIP3    H110275   1.429   1.461   0.924
 3444TIP3    H210276   1.414   1.597   0.989
 3445TIP3   OH210277   0.235   0.779   2.219
 3445TIP3    H110278   0.181   0.802   2.295
 3445TIP3    H210279   0.309   0.731   2.256
 3446TIP3   OH210280   3.019   7.330   5.359
 3446TIP3    H110281   3.020   7.244   5.317
 3446TIP3    H210282   2.946   7.377   5.317
 3447TIP3   OH210283   5.003   6.829   1.513
 3447TIP3    H110284   5.086   6.854   1.554
 3447TIP3    H210285   4.993   6.736   1.534
 3448TIP3   OH210286   0.310   7.637   4.392
 3448TIP3    H110287   0.337   7.693   4.465
 3448TIP3    H210288   0.248   7.691   4.342
 3449TIP3   OH210289   3.726   6.288   3.928
 3449TIP3    H110290   3.810   6.244   3.937
 3449TIP3    H210291   3.709   6.328   4.013
 3450TIP3   OH210292   1.172   1.744   1.358
 3450TIP3    H110293   1.186   1.813   1.293
 3450TIP3    H210294   1.078   1.727   1.354
 3451TIP3   OH210295   5.532   0.072   2.210
 3451TIP3    H110296   5.530   0.019   2.130
 3451TIP3    H210297   5.447   0.056   2.252
 3452TIP3   OH210298   4.015   0.579   5.264
 3452TIP3    H110299   3.979   0.661   5.228
 3452TIP3    H210300   3.980   0.511   5.207
 3453TIP3   OH210301   2.888   5.294   1.446
 3453TIP3    H110302   2.945   5.354   1.397
 3453TIP3    H210303   2.842   5.244   1.379
 3454TIP3   OH210304   5.629   0.588   6.704
 3454TIP3    H110305   5.594   0.549   6.784
 3454TIP3    H210306   5.552   0.603   6.649
 3455TIP3   OH210307   3.117   1.176   4.338
 3455TIP3    H110308   3.129   1.113   4.267
 3455TIP3    H210309   3.185   1.242   4.323
 3456TIP3   OH210310   2.259   3.631   4.444
 3456TIP3    H110311   2.196   3.578   4.395
 3456TIP3    H210312   2.263   3.714   4.397
 3457TIP3   OH210313   4.924   1.863   6.688
 3457TIP3    H110314   5.013   1.829   6.701
 3457TIP3    H210315   4.936   1.953   6.660
 3458TIP3   OH210316   3.191   3.070   2.019
 3458TIP3    H110317   3.106   3.103   2.048
 3458TIP3    H210318   3.241   3.060   2.100
 3459TIP3   OH210319   4.635   1.706   3.818
 3459TIP3    H110320   4.599   1.767   3.753
 3459TIP3    H210321   4.644   1.759   3.898
 3460TIP3   OH210322   5.490   5.752   0.631
 3460TIP3    H110323   5.397   5.773   0.621
 3460TIP3    H210324   5.499   5.731   0.724
 3461TIP3   OH210325   5.039   3.864   3.653
 3461TIP3    H110326   5.105   3.889   3.718
 3461TIP3    H210327   4.985   3.942   3.641
 3462TIP3   OH210328   7.107   2.271   5.133
 3462TIP3    H110329   7.135   2.179   5.139
 3462TIP3    H210330   7.183   2.316   5.096
 3463TIP3   OH210331   1.940   3.318   3.405
 3463TIP3    H110332   1.866   3.280   3.358
 3463TIP3    H210333   2.010   3.325   3.339
 3464TIP3   OH210334   7.870   6.095   6.249
 3464TIP3    H110335   7.844   6.186   6.259
 3464TIP3    H210336   7.847   6.054   6.332
 3465TIP3   OH210337   5.437   1.483   2.762
 3465TIP3    H110338   5.503   1.414   2.753
 3465TIP3    H210339   5.427   1.493   2.857
 3466TIP3   OH210340   1.503   5.809   4.144
 3466TIP3    H110341   1.588   5.776   4.173
 3466TIP3    H210342   1.495   5.778   4.053
 3467TIP3   OH210343   0.660   3.664   2.234
 3467TIP3    H110344   0.585   3.694   2.184
 3467TIP3    H210345   0.628   3.656   2.324
 3468TIP3   OH210346   5.900   4.725   3.358
 3468TIP3    H110347   5.825   4.763   3.403
 3468TIP3    H210348   5.878   4.733   3.265
 3469TIP3   OH210349   7.478   0.877   3.154
 3469TIP3    H110350   7.475   0.881   3.059
 3469TIP3    H210351   7.514   0.962   3.181
 3470TIP3   OH210352   1.641   0.817   1.802
 3470TIP3    H110353   1.559   0.777   1.832
 3470TIP3    H210354   1.623   0.845   1.713
 3471TIP3   OH210355   0.303   1.541   4.442
 3471TIP3    H110356   0.241   1.515   4.374
 3471TIP3    H210357   0.389   1.530   4.402
 3472TIP3   OH210358   7.466   2.139   3.476
 3472TIP3    H110359   7.490   2.203   3.543
 3472TIP3    H210360   7.543   2.134   3.419
 3473TIP3   OH210361   3.187   1.434   1.682
 3473TIP3    H110362   3.106   1.467   1.640
 3473TIP3    H210363   3.163   1.424   1.774
 3474TIP3   OH210364   0.731   7.626   1.274
 3474TIP3    H110365   0.809   7.617   1.329
 3474TIP3    H210366   0.659   7.629   1.336
 3475TIP3   OH210367   0.788   3.775   1.163
 3475TIP3    H110368   0.830   3.749   1.245
 3475TIP3    H210369   0.861   3.799   1.105
 3476TIP3   OH210370   3.822   6.833   0.216
 3476TIP3    H110371   3.812   6.825   0.311
 3476TIP3    H210372   3.811   6.926   0.198
 3477TIP3   OH210373   0.830   3.603   0.368
 3477TIP3    H110374   0.818   3.693   0.338
 3477TIP3    H210375   0.769   3.594   0.441
 3478TIP3   OH210376   7.100   0.505   6.200
 3478TIP3    H110377   7.120   0.455   6.122
 3478TIP3    H210378   7.007   0.488   6.216
 3479TIP3   OH210379   4.606   4.656   5.478
 3479TIP3    H110380   4.531   4.615   5.523
 3479TIP3    H210381   4.660   4.690   5.549
 3480TIP3   OH210382   3.127   0.114   3.404
 3480TIP3    H110383   3.159   0.205   3.400
 3480TIP3    H210384   3.181   0.067   3.340
 3481TIP3   OH210385   7.813   6.099   3.591
 3481TIP3    H110386   7.742   6.095   3.655
 3481TIP3    H210387   7.878   6.037   3.623
 3482TIP3   OH210388   3.081   6.713   5.187
 3482TIP3    H110389   3.113   6.664   5.263
 3482TIP3    H210390   2.997   6.749   5.216
 3483TIP3   OH210391   3.776   3.320   4.723
 3483TIP3    H110392   3.833   3.249   4.752
 3483TIP3    H210393   3.767   3.306   4.629
 3484TIP3   OH210394   7.822   1.920   6.573
 3484TIP3    H110395   7.831   2.013   6.591
 3484TIP3    H210396   7.748   1.914   6.512
 3485TIP3   OH210397   6.828   2.074   3.203
 3485TIP3    H110398   6.837   2.032   3.288
 3485TIP3    H210399   6.864   2.011   3.141
 3486TIP3   OH210400   3.061   0.969   5.266
 3486TIP3    H110401   3.040   0.989   5.174
 3486TIP3    H210402   3.046   1.051   5.312
 3487TIP3   OH210403   4.710   0.500   3.640
 3487TIP3    H110404   4.736   0.544   3.559
 3487TIP3    H210405   4.686   0.412   3.612
 3488TIP3   OH210406   7.993   3.093   5.405
 3488TIP3    H110407   8.043   3.154   5.350
 3488TIP3    H210408   8.014   3.007   5.369
 3489TIP3   OH210409   7.449   7.070   2.132
 3489TIP3    H110410   7.398   7.136   2.179
 3489TIP3    H210411   7.534   7.070   2.175
 3490TIP3   OH210412   2.492   1.424   5.480
 3490TIP3    H110413   2.480   1.422   5.575
 3490TIP3    H210414   2.485   1.332   5.453
 3491TIP3   OH210415   1.892   2.506   5.943
 3491TIP3    H110416   1.985   2.500   5.966
 3491TIP3    H210417   1.891   2.518   5.848
 3492TIP3   OH210418   6.326   2.239   5.473
 3492TIP3    H110419   6.265   2.237   5.398
 3492TIP3    H210420   6.344   2.147   5.491
 3493TIP3   OH210421   4.227   5.450   2.412
 3493TIP3    H110422   4.245   5.505   2.335
 3493TIP3    H210423   4.226   5.512   2.485
 3494TIP3   OH210424   4.765   2.264   1.141
 3494TIP3    H110425   4.802   2.254   1.053
 3494TIP3    H210426   4.817   2.205   1.196
 3495TIP3   OH210427   1.999   0.143   4.719
 3495TIP3    H110428   2.076   0.143   4.662
 3495TIP3    H210429   1.999   0.230   4.759
 3496TIP3   OH210430   1.649   6.002   4.834
 3496TIP3    H110431   1.692   6.051   4.763
 3496TIP3    H210432   1.566   6.047   4.847
 3497TIP3   OH210433   0.399   6.808   3.359
 3497TIP3    H110434   0.492   6.787   3.351
 3497TIP3    H210435   0.397   6.902   3.374
 3498TIP3   OH210436   7.632   1.111   3.590
 3498TIP3    H110437   7.593   1.174   3.529
 3498TIP3    H210438   7.642   1.159   3.672
 3499TIP3   OH210439   2.410   3.493   3.205
 3499TIP3    H110440   2.456   3.413   3.182
 3499TIP3    H210441   2.478   3.552   3.237
 3500TIP3   OH210442   3.302   2.665   6.690
 3500TIP3    H110443   3.250   2.644   6.768
 3500TIP3    H210444   3.393   2.660   6.719
 3501TIP3   OH210445   4.850   5.596   3.627
 3501TIP3    H110446   4.908   5.575   3.553
 3501TIP3    H210447   4.849   5.692   3.630
 3502TIP3   OH210448   1.322   5.755   2.735
 3502TIP3    H110449   1.411   5.737   2.705
 3502TIP3    H210450   1.307   5.688   2.803
 3503TIP3   OH210451   0.187   0.781   3.019
 3503TIP3    H110452   0.276   0.817   3.013
 3503TIP3    H210453   0.192   0.696   2.976
 3504TIP3   OH210454   0.369   1.905   2.331
 3504TIP3    H110455   0.384   1.967   2.402
 3504TIP3    H210456   0.425   1.831   2.351
 3505TIP3   OH210457   7.776   5.484   4.748
 3505TIP3    H110458   7.745   5.426   4.678
 3505TIP3    H210459   7.697   5.505   4.797
 3506TIP3   OH210460   6.362   4.977   4.128
 3506TIP3    H110461   6.373   5.029   4.048
 3506TIP3    H210462   6.309   5.032   4.185
 3507TIP3   OH210463   0.575   4.943   1.302
 3507TIP3    H110464   0.634   4.893   1.246
 3507TIP3    H210465   0.605   4.925   1.391
 3508TIP3   OH210466   3.575   2.648   5.407
 3508TIP3    H110467   3.488   2.635   5.369
 3508TIP3    H210468   3.580   2.584   5.478
 3509TIP3   OH210469   2.121   5.681   3.073
 3509TIP3    H110470   2.030   5.653   3.066
 3509TIP3    H210471   2.132   5.705   3.165
 3510TIP3   OH210472   5.136   1.795   4.698
 3510TIP3    H110473   5.146   1.700   4.690
 3510TIP3    H210474   5.043   1.808   4.712
 3511TIP3   OH210475   1.039   3.729   3.162
 3511TIP3    H110476   0.992   3.707   3.242
 3511TIP3    H210477   0.977   3.710   3.092
 3512TIP3   OH210478   1.302   3.965   1.216
 3512TIP3    H110479   1.253   3.953   1.134
 3512TIP3    H210480   1.380   4.014   1.190
 3513TIP3   OH210481   3.779   5.841   6.758
 3513TIP3    H110482   3.737   5.874   6.679
 3513TIP3    H210483   3.872   5.835   6.735
 3514TIP3   OH210484   4.500   7.821   1.172
 3514TIP3    H110485   4.451   7.858   1.099
 3514TIP3    H210486   4.515   7.730   1.147
 3515TIP3   OH210487   4.051   1.724   6.578
 3515TIP3    H110488   4.020   1.692   6.663
 3515TIP3    H210489   4.042   1.648   6.520
 3516TIP3   OH210490   4.179   5.920   4.975
 3516TIP3    H110491   4.094   5.936   4.934
 3516TIP3    H210492   4.200   6.001   5.020
 3517TIP3   OH210493   1.157   3.974   3.676
 3517TIP3    H110494   1.228   4.037   3.691
 3517TIP3    H210495   1.088   4.001   3.736
 3518TIP3   OH210496   2.900   1.382   0.915
 3518TIP3    H110497   2.844   1.310   0.888
 3518TIP3    H210498   2.982   1.368   0.869
 3519TIP3   OH210499   3.923   2.329   6.259
 3519TIP3    H110500   3.983   2.273   6.308
 3519TIP3    H210501   3.981   2.388   6.210
 3520TIP3   OH210502   6.376   4.199   0.128
 3520TIP3    H110503   6.334   4.275   0.088
 3520TIP3    H210504   6.404   4.145   0.054
 3521TIP3   OH210505   3.939   2.895   0.963
 3521TIP3    H110506   3.959   2.814   1.011
 3521TIP3    H210507   3.994   2.962   1.004
 3522TIP3   OH210508   0.509   6.467   5.959
 3522TIP3    H110509   0.434   6.456   6.016
 3522TIP3    H210510   0.473   6.464   5.870
 3523TIP3   OH210511   6.241   2.959   2.273
 3523TIP3    H110512   6.298   2.990   2.202
 3523TIP3    H210513   6.256   2.864   2.276
 3524TIP3   OH210514   4.677   0.518   1.719
 3524TIP3    H110515   4.630   0.572   1.782
 3524TIP3    H210516   4.609   0.479   1.664
 3525TIP3   OH210517   6.456   2.247   6.623
 3525TIP3    H110518   6.484   2.160   6.595
 3525TIP3    H210519   6.365   2.236   6.648
 3526TIP3   OH210520   0.272   1.187   2.280
 3526TIP3    H110521   0.278   1.279   2.307
 3526TIP3    H210522   0.252   1.140   2.361
 3527TIP3   OH210523   2.083   7.382   1.542
 3527TIP3    H110524   2.132   7.380   1.625
 3527TIP3    H210525   1.996   7.350   1.565
 3528TIP3   OH210526   0.557   4.205   3.122
 3528TIP3    H110527   0.497   4.172   3.189
 3528TIP3    H210528   0.602   4.278   3.165
 3529TIP3   OH210529   7.928   7.605   3.555
 3529TIP3    H110530   7.916   7.559   3.472
 3529TIP3    H210531   7.998   7.668   3.537
 3530TIP3   OH210532   6.545   6.694   1.403
 3530TIP3    H110533   6.565   6.781   1.438
 3530TIP3    H210534   6.485   6.711   1.330
 3531TIP3   OH210535   1.135   7.165   2.109
 3531TIP3    H110536   1.143   7.257   2.135
 3531TIP3    H210537   1.175   7.161   2.022
 3532TIP3   OH210538   0.327   0.648   3.493
 3532TIP3    H110539   0.393   0.651   3.563
 3532TIP3    H210540   0.375   0.669   3.413
 3533TIP3   OH210541   5.134   7.173   0.435
 3533TIP3    H110542   5.211   7.196   0.488
 3533TIP3    H210543   5.129   7.242   0.369
 3534TIP3   OH210544   2.631   4.901   0.230
 3534TIP3    H110545   2.564   4.901   0.162
 3534TIP3    H210546   2.595   4.957   0.299
 3535TIP3   OH210547   1.195   0.566   1.895
 3535TIP3    H110548   1.273   0.614   1.923
 3535TIP3    H210549   1.131   0.634   1.874
 3536TIP3   OH210550   2.019   0.730   0.499
 3536TIP3    H110551   1.985   0.687   0.578
 3536TIP3    H210552   1.943   0.770   0.458
 3537TIP3   OH210553   7.123   7.154   2.943
 3537TIP3    H110554   7.211   7.143   2.909
 3537TIP3    H210555   7.112   7.082   3.006
 3538TIP3   OH210556   2.536   5.582   5.177
 3538TIP3    H110557   2.554   5.491   5.202
 3538TIP3    H210558   2.444   5.583   5.152
 3539TIP3   OH210559   4.761   5.356   3.033
 3539TIP3    H110560   4.849   5.331   3.003
 3539TIP3    H210561   4.776   5.399   3.117
 3540TIP3   OH210562   5.022   0.873   0.547
 3540TIP3    H110563   4.964   0.806   0.583
 3540TIP3    H210564   5.013   0.947   0.608
 3541TIP3   OH210565   2.658   1.328   6.636
 3541TIP3    H110566   2.669   1.350   6.543
 3541TIP3    H210567   2.748   1.324   6.670
 3542TIP3   OH210568   1.536   5.316   4.892
 3542TIP3    H110569   1.525   5.229   4.930
 3542TIP3    H210570   1.593   5.302   4.817
 3543TIP3   OH210571   2.745   7.326   2.910
 3543TIP3    H110572   2.674   7.295   2.968
 3543TIP3    H210573   2.825   7.301   2.956
 3544TIP3   OH210574   1.773   7.430   5.549
 3544TIP3    H110575   1.742   7.511   5.509
 3544TIP3    H210576   1.773   7.449   5.643
 3545TIP3   OH210577   0.945   1.970   3.500
 3545TIP3    H110578   0.900   1.899   3.547
 3545TIP3    H210579   0.875   2.031   3.477
 3546TIP3   OH210580   4.855   3.604   1.614
 3546TIP3    H110581   4.800   3.533   1.582
 3546TIP3    H210582   4.794   3.676   1.633
 3547TIP3   OH210583   1.208   5.294   0.309
 3547TIP3    H110584   1.297   5.264   0.291
 3547TIP3    H210585   1.213   5.333   0.396
 3548TIP3   OH210586   3.400   7.358   1.819
 3548TIP3    H110587   3.370   7.447   1.799
 3548TIP3    H210588   3.392   7.352   1.915
 3549TIP3   OH210589   2.073   7.748   6.451
 3549TIP3    H110590   2.021   7.669   6.437
 3549TIP3    H210591   2.147   7.719   6.505
 3550TIP3   OH210592   5.780   7.288   6.315
 3550TIP3    H110593   5.709   7.274   6.377
 3550TIP3    H210594   5.793   7.383   6.313
 3551TIP3   OH210595   0.774   5.508   5.069
 3551TIP3    H110596   0.830   5.469   5.137
 3551TIP3    H210597   0.685   5.495   5.102
 3552TIP3   OH210598   5.286   2.950   2.707
 3552TIP3    H110599   5.370   2.928   2.666
 3552TIP3    H210600   5.221   2.919   2.644
 3553TIP3   OH210601   2.732   2.080   3.615
 3553TIP3    H110602   2.734   2.176   3.618
 3553TIP3    H210603   2.690   2.060   3.531
 3554TIP3   OH210604   0.301   7.666   6.595
 3554TIP3    H110605   0.260   7.715   6.524
 3554TIP3    H210606   0.393   7.692   6.592
 3555TIP3   OH210607   0.829   4.324   2.598
 3555TIP3    H110608   0.902   4.264   2.611
 3555TIP3    H210609   0.794   4.339   2.686
 3556TIP3   OH210610   1.501   2.632   5.811
 3556TIP3    H110611   1.474   2.710   5.764
 3556TIP3    H210612   1.522   2.568   5.742
 3557TIP3   OH210613   3.551   4.626   0.619
 3557TIP3    H110614   3.527   4.685   0.690
 3557TIP3    H210615   3.475   4.627   0.561
 3558TIP3   OH210616   4.252   2.477   5.302
 3558TIP3    H110617   4.298   2.421   5.364
 3558TIP3    H210618   4.266   2.566   5.335
 3559TIP3   OH210619   2.394   3.667   1.903
 3559TIP3    H110620   2.455   3.648   1.974
 3559TIP3    H210621   2.307   3.660   1.944
 3560TIP3   OH210622   3.583   6.630   1.796
 3560TIP3    H110623   3.534   6.559   1.837
 3560TIP3    H210624   3.557   6.626   1.704
 3561TIP3   OH210625   7.226   2.540   0.930
 3561TIP3    H110626   7.321   2.528   0.934
 3561TIP3    H210627   7.191   2.474   0.990
 3562TIP3   OH210628   0.349   2.890   2.856
 3562TIP3    H110629   0.438   2.877   2.890
 3562TIP3    H210630   0.362   2.940   2.775
 3563TIP3   OH210631   1.085   5.598   6.122
 3563TIP3    H110632   1.088   5.584   6.216
 3563TIP3    H210633   1.122   5.686   6.110
 3564TIP3   OH210634   5.543   5.436   5.676
 3564TIP3    H110635   5.609   5.433   5.607
 3564TIP3    H210636   5.523   5.529   5.687
 3565TIP3   OH210637   1.412   6.908   4.540
 3565TIP3    H110638   1.386   6.999   4.523
 3565TIP3    H210639   1.406   6.865   4.454
 3566TIP3   OH210640   2.736   0.487   5.560
 3566TIP3    H110641   2.821   0.458   5.592
 3566TIP3    H210642   2.741   0.583   5.560
 3567TIP3   OH210643   4.517   4.172   1.429
 3567TIP3    H110644   4.565   4.144   1.508
 3567TIP3    H210645   4.428   4.186   1.459
 3568TIP3   OH210646   8.307   0.165   1.411
 3568TIP3    H110647   8.235   0.190   1.353
 3568TIP3    H210648   8.277   0.085   1.453
 3569TIP3   OH210649   4.578   6.846   4.301
 3569TIP3    H110650   4.559   6.835   4.394
 3569TIP3    H210651   4.529   6.775   4.259
 3570TIP3   OH210652   4.119   0.072   5.542
 3570TIP3    H110653   4.078   0.113   5.466
 3570TIP3    H210654   4.211   0.066   5.519
 3571TIP3   OH210655   0.738   5.925   4.728
 3571TIP3    H110656   0.707   5.894   4.813
 3571TIP3    H210657   0.827   5.889   4.721
 3572TIP3   OH210658   5.863   3.656   4.343
 3572TIP3    H110659   5.797   3.722   4.365
 3572TIP3    H210660   5.905   3.691   4.264
 3573TIP3   OH210661   4.284   0.188   2.637
 3573TIP3    H110662   4.343   0.126   2.677
 3573TIP3    H210663   4.285   0.166   2.544
 3574TIP3   OH210664   1.004   5.514   6.369
 3574TIP3    H110665   0.949   5.589   6.391
 3574TIP3    H210666   0.983   5.448   6.435
 3575TIP3   OH210667   4.314   1.210   2.019
 3575TIP3    H110668   4.354   1.127   1.992
 3575TIP3    H210669   4.239   1.220   1.960
 3576TIP3   OH210670   3.649   2.514   0.224
 3576TIP3    H110671   3.638   2.497   0.130
 3576TIP3    H210672   3.579   2.576   0.246
 3577TIP3   OH210673   0.038   6.570   1.633
 3577TIP3    H110674   0.034   6.504   1.702
 3577TIP3    H210675  -0.054   6.593   1.617
 3578TIP3   OH210676   0.540   3.843   4.193
 3578TIP3    H110677   0.544   3.869   4.101
 3578TIP3    H210678   0.631   3.841   4.221
 3579TIP3   OH210679   1.779   0.582   4.763
 3579TIP3    H110680   1.697   0.624   4.735
 3579TIP3    H210681   1.846   0.622   4.708
 3580TIP3   OH210682   1.793   7.752   2.087
 3580TIP3    H110683   1.882   7.740   2.120
 3580TIP3    H210684   1.741   7.688   2.135
 3581TIP3   OH210685   3.096   1.528   4.830
 3581TIP3    H110686   3.074   1.508   4.921
 3581TIP3    H210687   3.021   1.579   4.798
 3582TIP3   OH210688   7.039   0.043   2.098
 3582TIP3    H110689   7.054  -0.034   2.044
 3582TIP3    H210690   7.023   0.009   2.186
 3583TIP3   OH210691   0.903   6.839   3.515
 3583TIP3    H110692   0.831   6.817   3.574
 3583TIP3    H210693   0.861   6.849   3.430
 3584TIP3   OH210694   2.300   6.661   5.835
 3584TIP3    H110695   2.387   6.700   5.835
 3584TIP3    H210696   2.272   6.664   5.744
 3585TIP3   OH210697   1.262   2.695   4.615
 3585TIP3    H110698   1.346   2.676   4.572
 3585TIP3    H210699   1.267   2.649   4.699
 3586TIP3   OH210700   3.369   4.296   0.118
 3586TIP3    H110701   3.420   4.255   0.188
 3586TIP3    H210702   3.390   4.245   0.040
 3587TIP3   OH210703   2.633   2.586   1.063
 3587TIP3    H110704   2.660   2.604   1.153
 3587TIP3    H210705   2.572   2.512   1.071
 3588TIP3   OH210706   7.787   5.916   4.043
 3588TIP3    H110707   7.876   5.934   4.072
 3588TIP3    H210708   7.754   6.000   4.012
 3589TIP3   OH210709   3.276   1.934   5.919
 3589TIP3    H110710   3.190   1.892   5.922
 3589TIP3    H210711   3.279   1.987   5.998
 3590TIP3   OH210712   3.547   6.618   2.238
 3590TIP3    H110713   3.488   6.642   2.310
 3590TIP3    H210714   3.528   6.683   2.170
 3591TIP3   OH210715   0.606   5.888   1.733
 3591TIP3    H110716   0.629   5.808   1.686
 3591TIP3    H210717   0.686   5.912   1.779
 3592TIP3   OH210718   7.448   6.220   1.892
 3592TIP3    H110719   7.452   6.275   1.814
 3592TIP3    H210720   7.375   6.256   1.943
 3593TIP3   OH210721   4.028   2.810   4.368
 3593TIP3    H110722   3.978   2.785   4.446
 3593TIP3    H210723   4.082   2.883   4.397
 3594TIP3   OH210724   6.591   3.777   4.995
 3594TIP3    H110725   6.553   3.815   4.915
 3594TIP3    H210726   6.616   3.853   5.048
 3595TIP3   OH210727   3.045   7.430   1.306
 3595TIP3    H110728   3.042   7.349   1.357
 3595TIP3    H210729   3.017   7.498   1.367
 3596TIP3   OH210730   0.428   1.646   0.097
 3596TIP3    H110731   0.469   1.559   0.105
 3596TIP3    H210732   0.427   1.680   0.186
 3597TIP3   OH210733   0.932   1.088   4.439
 3597TIP3    H110734   0.854   1.069   4.491
 3597TIP3    H210735   0.905   1.073   4.349
 3598TIP3   OH210736   8.284   4.362   6.706
 3598TIP3    H110737   8.276   4.354   6.801
 3598TIP3    H210738   8.195   4.349   6.673
 3599TIP3   OH210739   7.135   1.361   3.221
 3599TIP3    H110740   7.129   1.378   3.127
 3599TIP3    H210741   7.193   1.285   3.228
 3600TIP3   OH210742   5.112   4.824   2.754
 3600TIP3    H110743   5.060   4.767   2.810
 3600TIP3    H210744   5.097   4.792   2.665
 3601TIP3   OH210745   8.062   1.206   0.884
 3601TIP3    H110746   8.028   1.225   0.971
 3601TIP3    H210747   8.122   1.132   0.897
 3602TIP3   OH210748   6.428   3.966   4.849
 3602TIP3    H110749   6.418   3.897   4.784
 3602TIP3    H210750   6.492   4.026   4.810
 3603TIP3   OH210751   8.229   3.567   0.563
 3603TIP3    H110752   8.319   3.539   0.580
 3603TIP3    H210753   8.179   3.485   0.561
 3604TIP3   OH210754   4.315   5.585   1.211
 3604TIP3    H110755   4.384   5.576   1.277
 3604TIP3    H210756   4.293   5.494   1.187
 3605TIP3   OH210757   2.459   0.977   5.997
 3605TIP3    H110758   2.452   0.995   5.903
 3605TIP3    H210759   2.411   0.894   6.009
 3606TIP3   OH210760   7.672   7.330   1.441
 3606TIP3    H110761   7.725   7.251   1.451
 3606TIP3    H210762   7.615   7.311   1.366
 3607TIP3   OH210763   1.314   5.900   3.625
 3607TIP3    H110764   1.327   5.834   3.557
 3607TIP3    H210765   1.236   5.948   3.598
 3608TIP3   OH210766   6.133   6.408   4.652
 3608TIP3    H110767   6.171   6.338   4.706
 3608TIP3    H210768   6.068   6.450   4.708
 3609TIP3   OH210769   0.465   1.909   3.998
 3609TIP3    H110770   0.433   1.999   3.985
 3609TIP3    H210771   0.556   1.920   4.027
 3610TIP3   OH210772   2.183   2.131   5.756
 3610TIP3    H110773   2.143   2.157   5.839
 3610TIP3    H210774   2.138   2.184   5.690
 3611TIP3   OH210775   0.228   5.289   0.441
 3611TIP3    H110776   0.237   5.294   0.536
 3611TIP3    H210777   0.299   5.231   0.413
 3612TIP3   OH210778   7.488   4.009  -0.011
 3612TIP3    H110779   7.399   4.042   0.002
 3612TIP3    H210780   7.542   4.057   0.052
 3613TIP3   OH210781   1.380   1.839   3.972
 3613TIP3    H110782   1.393   1.928   3.941
 3613TIP3    H210783   1.325   1.849   4.051
 3614TIP3   OH210784   6.906   7.395   2.199
 3614TIP3    H110785   6.974   7.432   2.143
 3614TIP3    H210786   6.857   7.471   2.232
 3615TIP3   OH210787   3.242   4.607   4.823
 3615TIP3    H110788   3.159   4.642   4.855
 3615TIP3    H210789   3.222   4.570   4.737
 3616TIP3   OH210790   3.489   0.782   3.888
 3616TIP3    H110791   3.422   0.714   3.885
 3616TIP3    H210792   3.533   0.769   3.973
 3617TIP3   OH210793   2.987   4.289   3.993
 3617TIP3    H110794   2.908   4.247   4.028
 3617TIP3    H210795   3.043   4.216   3.966
 3618TIP3   OH210796   7.214   1.501   3.932
 3618TIP3    H110797   7.305   1.521   3.912
 3618TIP3    H210798   7.212   1.405   3.938
 3619TIP3   OH210799   8.268   1.180   1.910
 3619TIP3    H110800   8.352   1.202   1.949
 3619TIP3    H210801   8.217   1.143   1.983
 3620TIP3   OH210802   4.397   3.247   0.719
 3620TIP3    H110803   4.415   3.279   0.630
 3620TIP3    H210804   4.302   3.251   0.727
 3621TIP3   OH210805   5.126   2.406   6.690
 3621TIP3    H110806   5.082   2.430   6.771
 3621TIP3    H210807   5.073   2.447   6.621
 3622TIP3   OH210808   8.165   7.746   3.452
 3622TIP3    H110809   8.252   7.783   3.438
 3622TIP3    H210810   8.141   7.708   3.368
 3623TIP3   OH210811   2.997   3.401   3.388
 3623TIP3    H110812   2.951   3.452   3.455
 3623TIP3    H210813   2.977   3.310   3.408
 3624TIP3   OH210814   4.978   7.576   2.470
 3624TIP3    H110815   4.962   7.666   2.499
 3624TIP3    H210816   5.067   7.557   2.497
 3625TIP3   OH210817   6.344   7.004   5.937
 3625TIP3    H110818   6.406   6.931   5.929
 3625TIP3    H210819   6.365   7.061   5.863
 3626TIP3   OH210820   5.547  -0.032   1.437
 3626TIP3    H110821   5.566   0.046   1.489
 3626TIP3    H210822   5.546   0.000   1.347
 3627TIP3   OH210823   4.535   3.158   3.561
 3627TIP3    H110824   4.593   3.234   3.570
 3627TIP3    H210825   4.589   3.091   3.520
 3628TIP3   OH210826   1.603   2.395   0.096
 3628TIP3    H110827   1.644   2.476   0.127
 3628TIP3    H210828   1.510   2.407   0.112
 3629TIP3   OH210829   3.936   4.593   1.675
 3629TIP3    H110830   3.913   4.500   1.676
 3629TIP3    H210831   3.883   4.632   1.744
 3630TIP3   OH210832   1.168   5.584   4.388
 3630TIP3    H110833   1.177   5.505   4.335
 3630TIP3    H210834   1.102   5.561   4.454
 3631TIP3   OH210835   3.725   7.535   0.878
 3631TIP3    H110836   3.694   7.613   0.832
 3631TIP3    H210837   3.764   7.569   0.959
 3632TIP3   OH210838   1.065   0.835   3.792
 3632TIP3    H110839   1.077   0.928   3.773
 3632TIP3    H210840   1.076   0.791   3.708
 3633TIP3   OH210841   3.176   1.350   4.123
 3633TIP3    H110842   3.143   1.406   4.193
 3633TIP3    H210843   3.185   1.408   4.047
 3634TIP3   OH210844   7.453   4.424   4.420
 3634TIP3    H110845   7.542   4.392   4.435
 3634TIP3    H210846   7.425   4.458   4.505
 3635TIP3   OH210847   1.311   1.822   5.913
 3635TIP3    H110848   1.402   1.847   5.898
 3635TIP3    H210849   1.297   1.746   5.857
 3636TIP3   OH210850   0.643   2.503   1.538
 3636TIP3    H110851   0.736   2.497   1.557
 3636TIP3    H210852   0.635   2.579   1.481
 3637TIP3   OH210853   7.087   3.207   0.515
 3637TIP3    H110854   7.164   3.223   0.569
 3637TIP3    H210855   7.122   3.188   0.428
 3638TIP3   OH210856   4.039   2.464   6.014
 3638TIP3    H110857   4.028   2.370   6.000
 3638TIP3    H210858   4.134   2.477   6.012
 3639TIP3   OH210859   5.628   4.221   2.915
 3639TIP3    H110860   5.564   4.170   2.866
 3639TIP3    H210861   5.647   4.168   2.993
 3640TIP3   OH210862   7.025   1.608   0.284
 3640TIP3    H110863   6.964   1.542   0.316
 3640TIP3    H210864   7.014   1.606   0.188
 3641TIP3   OH210865   1.780   4.257   2.275
 3641TIP3    H110866   1.744   4.200   2.342
 3641TIP3    H210867   1.735   4.341   2.288
 3642TIP3   OH210868   7.884   1.396   3.867
 3642TIP3    H110869   7.930   1.436   3.793
 3642TIP3    H210870   7.909   1.303   3.862
 3643TIP3   OH210871   1.765   6.125   2.864
 3643TIP3    H110872   1.695   6.133   2.799
 3643TIP3    H210873   1.746   6.045   2.911
 3644TIP3   OH210874   5.712   1.744   1.270
 3644TIP3    H110875   5.702   1.705   1.182
 3644TIP3    H210876   5.736   1.670   1.326
 3645TIP3   OH210877   6.203   6.456   3.695
 3645TIP3    H110878   6.198   6.484   3.787
 3645TIP3    H210879   6.112   6.447   3.669
 3646TIP3   OH210880   7.601   5.010   4.564
 3646TIP3    H110881   7.522   4.975   4.522
 3646TIP3    H210882   7.613   4.955   4.641
 3647TIP3   OH210883   7.733   7.078   6.652
 3647TIP3    H110884   7.664   7.078   6.718
 3647TIP3    H210885   7.786   7.154   6.673
 3648TIP3   OH210886   0.554   1.531   3.069
 3648TIP3    H110887   0.602   1.449   3.061
 3648TIP3    H210888   0.585   1.585   2.996
 3649TIP3   OH210889   6.293   2.162   2.092
 3649TIP3    H110890   6.243   2.243   2.079
 3649TIP3    H210891   6.384   2.187   2.077
 3650TIP3   OH210892   5.135   7.119   1.673
 3650TIP3    H110893   5.062   7.073   1.715
 3650TIP3    H210894   5.150   7.197   1.727
 3651TIP3   OH210895   1.939   6.562   0.019
 3651TIP3    H110896   1.897   6.626  -0.038
 3651TIP3    H210897   1.875   6.545   0.088
 3652TIP3   OH210898   2.779   4.329   0.982
 3652TIP3    H110899   2.757   4.248   0.937
 3652TIP3    H210900   2.749   4.316   1.072
 3653TIP3   OH210901   0.991   5.028   1.507
 3653TIP3    H110902   0.958   5.077   1.432
 3653TIP3    H210903   0.919   5.032   1.571
 3654TIP3   OH210904   7.378   6.873   4.974
 3654TIP3    H110905   7.456   6.874   5.030
 3654TIP3    H210906   7.316   6.816   5.020
 3655TIP3   OH210907   4.032   7.258   5.240
 3655TIP3    H110908   3.947   7.232   5.274
 3655TIP3    H210909   4.013   7.326   5.176
 3656TIP3   OH210910   4.064   0.168   0.329
 3656TIP3    H110911   3.974   0.178   0.362
 3656TIP3    H210912   4.109   0.120   0.399
 3657TIP3   OH210913   5.532   5.207   5.045
 3657TIP3    H110914   5.563   5.254   5.123
 3657TIP3    H210915   5.492   5.274   4.990
 3658TIP3   OH210916   2.570   3.865   4.953
 3658TIP3    H110917   2.645   3.842   5.008
 3658TIP3    H210918   2.567   3.960   4.957
 3659TIP3   OH210919   7.449   5.444   6.247
 3659TIP3    H110920   7.479   5.427   6.158
 3659TIP3    H210921   7.383   5.377   6.263
 3660TIP3   OH210922   4.894   1.510   3.084
 3660TIP3    H110923   4.972   1.564   3.071
 3660TIP3    H210924   4.913   1.458   3.161
 3661TIP3   OH210925   5.576   1.515   6.599
 3661TIP3    H110926   5.600   1.548   6.513
 3661TIP3    H210927   5.632   1.438   6.612
 3662TIP3   OH210928   3.233   6.546   0.664
 3662TIP3    H110929   3.300   6.612   0.646
 3662TIP3    H210930   3.169   6.556   0.594
 3663TIP3   OH210931   6.394   7.551   1.873
 3663TIP3    H110932   6.488   7.544   1.857
 3663TIP3    H210933   6.371   7.471   1.921
 3664TIP3   OH210934   0.553   4.826   0.954
 3664TIP3    H110935   0.459   4.827   0.936
 3664TIP3    H210936   0.577   4.919   0.962
 3665TIP3   OH210937   5.363   5.119   1.739
 3665TIP3    H110938   5.387   5.193   1.794
 3665TIP3    H210939   5.387   5.146   1.650
 3666TIP3   OH210940   1.820   3.903   6.140
 3666TIP3    H110941   1.827   3.996   6.123
 3666TIP3    H210942   1.734   3.878   6.107
 3667TIP3   OH210943   0.683   4.163   2.116
 3667TIP3    H110944   0.774   4.181   2.139
 3667TIP3    H210945   0.656   4.239   2.065
 3668TIP3   OH210946   8.288   1.301   2.730
 3668TIP3    H110947   8.356   1.335   2.787
 3668TIP3    H210948   8.218   1.367   2.734
 3669TIP3   OH210949   0.747   2.717   2.806
 3669TIP3    H110950   0.766   2.643   2.749
 3669TIP3    H210951   0.825   2.772   2.801
 3670TIP3   OH210952   6.288   4.154   0.667
 3670TIP3    H110953   6.257   4.091   0.603
 3670TIP3    H210954   6.367   4.192   0.628
 3671TIP3   OH210955   0.775   3.548   5.841
 3671TIP3    H110956   0.756   3.641   5.831
 3671TIP3    H210957   0.857   3.534   5.794
 3672TIP3   OH210958   5.632   0.342   6.334
 3672TIP3    H110959   5.726   0.345   6.348
 3672TIP3    H210960   5.600   0.278   6.398
 3673TIP3   OH210961   5.533   3.492   4.333
 3673TIP3    H110962   5.527   3.475   4.427
 3673TIP3    H210963   5.451   3.535   4.311
 3674TIP3   OH210964   4.944   0.022   1.580
 3674TIP3    H110965   4.932   0.116   1.566
 3674TIP3    H210966   4.972  -0.011   1.495
 3675TIP3   OH210967   5.957   3.616   6.439
 3675TIP3    H110968   6.038   3.666   6.429
 3675TIP3    H210969   5.903   3.669   6.498
 3676TIP3   OH210970   4.387   7.619   4.910
 3676TIP3    H110971   4.340   7.580   4.985
 3676TIP3    H210972   4.473   7.576   4.911
 3677TIP3   OH210973   6.913   3.460   0.438
 3677TIP3    H110974   6.865   3.415   0.507
 3677TIP3    H210975   6.911   3.552   0.465
 3678TIP3   OH210976   5.568   0.202   2.815
 3678TIP3    H110977   5.483   0.176   2.849
 3678TIP3    H210978   5.549   0.277   2.759
 3679TIP3   OH210979   3.643   7.732   5.829
 3679TIP3    H110980   3.590   7.727   5.749
 3679TIP3    H210981   3.581   7.713   5.900
 3680TIP3   OH210982   5.527   2.676   0.821
 3680TIP3    H110983   5.446   2.699   0.775
 3680TIP3    H210984   5.586   2.644   0.753
 3681TIP3   OH210985   5.425   3.535   4.941
 3681TIP3    H110986   5.412   3.458   4.885
 3681TIP3    H210987   5.493   3.509   5.003
 3682TIP3   OH210988   1.715   1.554   0.933
 3682TIP3    H110989   1.627   1.516   0.929
 3682TIP3    H210990   1.700   1.643   0.965
 3683TIP3   OH210991   7.622   1.759   4.171
 3683TIP3    H110992   7.602   1.723   4.258
 3683TIP3    H210993   7.643   1.682   4.118
 3684TIP3   OH210994   3.006   5.529   4.505
 3684TIP3    H110995   2.929   5.584   4.517
 3684TIP3    H210996   2.975   5.440   4.518
 3685TIP3   OH210997   0.970   3.173   1.600
 3685TIP3    H110998   0.910   3.244   1.579
 3685TIP3    H210999   0.928   3.126   1.671
 3686TIP3   OH211000   4.343   2.759   1.984
 3686TIP3    H111001   4.368   2.674   1.948
 3686TIP3    H211002   4.354   2.750   2.078
 3687TIP3   OH211003   6.664   2.519   2.187
 3687TIP3    H111004   6.657   2.508   2.282
 3687TIP3    H211005   6.750   2.560   2.174
 3688TIP3   OH211006   6.119   0.053   0.827
 3688TIP3    H111007   6.160   0.106   0.896
 3688TIP3    H211008   6.081   0.116   0.766
 3689TIP3   OH211009   7.449   6.968   1.882
 3689TIP3    H111010   7.524   6.910   1.895
 3689TIP3    H211011   7.461   7.038   1.946
 3690TIP3   OH211012   2.662   5.816   2.803
 3690TIP3    H111013   2.699   5.860   2.727
 3690TIP3    H211014   2.686   5.871   2.877
 3691TIP3   OH211015   5.911   3.199   0.208
 3691TIP3    H111016   5.996   3.218   0.247
 3691TIP3    H211017   5.922   3.116   0.163
 3692TIP3   OH211018   0.019   2.191   1.959
 3692TIP3    H111019   0.105   2.201   1.917
 3692TIP3    H211020  -0.028   2.271   1.938
 3693TIP3   OH211021   1.270   4.488   5.999
 3693TIP3    H111022   1.341   4.478   5.937
 3693TIP3    H211023   1.312   4.491   6.085
 3694TIP3   OH211024   8.337   0.943   6.636
 3694TIP3    H111025   8.279   1.018   6.647
 3694TIP3    H211026   8.279   0.867   6.639
 3695TIP3   OH211027   0.895   4.517   2.408
 3695TIP3    H111028   0.854   4.452   2.465
 3695TIP3    H211029   0.922   4.587   2.468
 3696TIP3   OH211030   3.572   6.270   3.062
 3696TIP3    H111031   3.665   6.272   3.082
 3696TIP3    H211032   3.529   6.286   3.146
 3697TIP3   OH211033   4.176   7.117   5.663
 3697TIP3    H111034   4.137   7.174   5.597
 3697TIP3    H211035   4.121   7.038   5.662
 3698TIP3   OH211036   3.892   3.705   3.697
 3698TIP3    H111037   3.904   3.691   3.603
 3698TIP3    H211038   3.975   3.742   3.727
 3699TIP3   OH211039   3.014   2.577   0.904
 3699TIP3    H111040   3.088   2.519   0.885
 3699TIP3    H211041   2.979   2.544   0.987
 3700TIP3   OH211042   4.717   6.129   2.300
 3700TIP3    H111043   4.707   6.100   2.210
 3700TIP3    H211044   4.643   6.188   2.315
 3701TIP3   OH211045   5.817   1.107   6.548
 3701TIP3    H111046   5.894   1.162   6.536
 3701TIP3    H211047   5.755   1.163   6.596
 3702TIP3   OH211048   3.074   6.530   4.702
 3702TIP3    H111049   3.126   6.463   4.746
 3702TIP3    H211050   3.066   6.601   4.766
 3703TIP3   OH211051   6.155   2.748   4.755
 3703TIP3    H111052   6.137   2.778   4.844
 3703TIP3    H211053   6.069   2.730   4.718
 3704TIP3   OH211054   5.213   4.945   0.673
 3704TIP3    H111055   5.147   4.986   0.618
 3704TIP3    H211056   5.198   4.982   0.760
 3705TIP3   OH211057   2.618   0.249   5.987
 3705TIP3    H111058   2.627   0.187   6.060
 3705TIP3    H211059   2.560   0.205   5.926
 3706TIP3   OH211060   7.645   1.331   4.952
 3706TIP3    H111061   7.598   1.414   4.948
 3706TIP3    H211062   7.592   1.270   4.902
 3707TIP3   OH211063   2.165   5.654   0.780
 3707TIP3    H111064   2.127   5.647   0.692
 3707TIP3    H211065   2.145   5.571   0.822
 3708TIP3   OH211066   7.296   6.609   5.467
 3708TIP3    H111067   7.344   6.667   5.526
 3708TIP3    H211068   7.236   6.561   5.524
 3709TIP3   OH211069   4.150   3.517   3.558
 3709TIP3    H111070   4.171   3.578   3.488
 3709TIP3    H211071   4.131   3.434   3.514
 3710TIP3   OH211072   5.340   2.295   6.494
 3710TIP3    H111073   5.390   2.255   6.566
 3710TIP3    H211074   5.361   2.389   6.500
 3711TIP3   OH211075   4.284   7.606   0.565
 3711TIP3    H111076   4.374   7.635   0.578
 3711TIP3    H211077   4.281   7.571   0.476
 3712TIP3   OH211078   0.760   2.871   5.946
 3712TIP3    H111079   0.795   2.925   6.016
 3712TIP3    H211080   0.752   2.930   5.871
 3713TIP3   OH211081   1.036   0.613   3.974
 3713TIP3    H111082   1.031   0.698   3.929
 3713TIP3    H211083   1.073   0.554   3.909
 3714TIP3   OH211084   8.085   2.071   5.281
 3714TIP3    H111085   8.180   2.081   5.276
 3714TIP3    H211086   8.072   2.016   5.359
 3715TIP3   OH211087   6.103   1.859   1.875
 3715TIP3    H111088   6.049   1.813   1.940
 3715TIP3    H211089   6.047   1.867   1.798
 3716TIP3   OH211090   6.795   0.188   1.512
 3716TIP3    H111091   6.863   0.235   1.562
 3716TIP3    H211092   6.835   0.174   1.426
 3717TIP3   OH211093   1.046   3.345   5.117
 3717TIP3    H111094   1.115   3.361   5.053
 3717TIP3    H211095   1.030   3.250   5.112
 3718TIP3   OH211096   6.593   7.010   3.843
 3718TIP3    H111097   6.629   6.922   3.851
 3718TIP3    H211098   6.500   6.996   3.826
 3719TIP3   OH211099   3.971   6.945   5.666
 3719TIP3    H111100   3.940   6.863   5.629
 3719TIP3    H211101   3.904   7.009   5.641
 3720TIP3   OH211102   1.203   1.788   6.624
 3720TIP3    H111103   1.182   1.707   6.671
 3720TIP3    H211104   1.271   1.762   6.562
 3721TIP3   OH211105   7.599   4.880   4.225
 3721TIP3    H111106   7.678   4.841   4.186
 3721TIP3    H211107   7.575   4.819   4.295
 3722TIP3   OH211108   8.071   1.687   0.780
 3722TIP3    H111109   7.981   1.660   0.802
 3722TIP3    H211110   8.065   1.782   0.769
 3723TIP3   OH211111   5.336   4.512   1.819
 3723TIP3    H111112   5.396   4.463   1.875
 3723TIP3    H211113   5.270   4.547   1.880
 3724TIP3   OH211114   7.732   3.029   4.481
 3724TIP3    H111115   7.663   2.978   4.523
 3724TIP3    H211116   7.716   3.019   4.387
 3725TIP3   OH211117   6.902   3.651   5.741
 3725TIP3    H111118   6.959   3.671   5.667
 3725TIP3    H211119   6.958   3.603   5.803
 3726TIP3   OH211120   5.811   7.071   0.818
 3726TIP3    H111121   5.849   7.155   0.845
 3726TIP3    H211122   5.838   7.009   0.887
 3727TIP3   OH211123   2.446   6.900   6.212
 3727TIP3    H111124   2.506   6.857   6.150
 3727TIP3    H211125   2.461   6.993   6.199
 3728TIP3   OH211126   2.059   5.529   1.024
 3728TIP3    H111127   1.994   5.579   0.974
 3728TIP3    H211128   2.043   5.554   1.115
 3729TIP3   OH211129   7.092   2.089   4.669
 3729TIP3    H111130   7.188   2.085   4.663
 3729TIP3    H211131   7.066   2.004   4.704
 3730TIP3   OH211132   6.203   4.387   4.853
 3730TIP3    H111133   6.147   4.339   4.793
 3730TIP3    H211134   6.268   4.429   4.797
 3731TIP3   OH211135   5.902   1.441   5.869
 3731TIP3    H111136   5.882   1.446   5.776
 3731TIP3    H211137   5.819   1.464   5.913
 3732TIP3   OH211138   5.029   3.592   0.879
 3732TIP3    H111139   5.028   3.653   0.953
 3732TIP3    H211140   4.969   3.631   0.815
 3733TIP3   OH211141   0.860   2.705   4.123
 3733TIP3    H111142   0.909   2.765   4.067
 3733TIP3    H211143   0.827   2.638   4.064
 3734TIP3   OH211144   1.761   1.111   2.472
 3734TIP3    H111145   1.820   1.096   2.546
 3734TIP3    H211146   1.819   1.116   2.396
 3735TIP3   OH211147   5.860   0.881   5.511
 3735TIP3    H111148   5.896   0.814   5.453
 3735TIP3    H211149   5.933   0.938   5.531
 3736TIP3   OH211150   1.741   7.503   3.182
 3736TIP3    H111151   1.676   7.466   3.123
 3736TIP3    H211152   1.823   7.501   3.133
 3737TIP3   OH211153   5.284   7.213   3.463
 3737TIP3    H111154   5.200   7.176   3.438
 3737TIP3    H211155   5.314   7.260   3.385
 3738TIP3   OH211156   7.501   7.571   5.275
 3738TIP3    H111157   7.414   7.597   5.242
 3738TIP3    H211158   7.503   7.606   5.364
 3739TIP3   OH211159   5.080   6.922   0.366
 3739TIP3    H111160   5.106   6.851   0.424
 3739TIP3    H211161   5.108   7.002   0.411
 3740TIP3   OH211162   3.712   0.998   4.977
 3740TIP3    H111163   3.618   0.997   4.960
 3740TIP3    H211164   3.740   1.087   4.956
 3741TIP3   OH211165   2.062   0.659   6.251
 3741TIP3    H111166   2.125   0.622   6.313
 3741TIP3    H211167   2.001   0.709   6.305
 3742TIP3   OH211168   7.228   6.507   3.500
 3742TIP3    H111169   7.134   6.486   3.499
 3742TIP3    H211170   7.255   6.485   3.590
 3743TIP3   OH211171   3.087   6.888   4.374
 3743TIP3    H111172   3.007   6.876   4.324
 3743TIP3    H211173   3.138   6.951   4.323
 3744TIP3   OH211174   7.919   6.648   1.989
 3744TIP3    H111175   7.921   6.558   2.022
 3744TIP3    H211176   7.845   6.689   2.033
 3745TIP3   OH211177   8.079   4.050   6.617
 3745TIP3    H111178   8.062   3.963   6.582
 3745TIP3    H211179   7.999   4.100   6.598
 3746TIP3   OH211180   0.054   4.467   5.004
 3746TIP3    H111181   0.063   4.469   4.908
 3746TIP3    H211182   0.139   4.494   5.037
 3747TIP3   OH211183   2.570   6.900   2.695
 3747TIP3    H111184   2.531   6.816   2.721
 3747TIP3    H211185   2.593   6.943   2.777
 3748TIP3   OH211186   3.535   6.180   5.577
 3748TIP3    H111187   3.605   6.217   5.630
 3748TIP3    H211188   3.455   6.199   5.626
 3749TIP3   OH211189   0.118   2.831   1.760
 3749TIP3    H111190   0.074   2.857   1.679
 3749TIP3    H211191   0.200   2.791   1.730
 3750TIP3   OH211192   4.671   4.684   1.130
 3750TIP3    H111193   4.716   4.754   1.177
 3750TIP3    H211194   4.585   4.720   1.108
 3751TIP3   OH211195   7.615   7.020   4.964
 3751TIP3    H111196   7.681   7.070   5.013
 3751TIP3    H211197   7.603   7.069   4.883
 3752TIP3   OH211198   1.087   6.980   4.997
 3752TIP3    H111199   1.163   6.926   4.975
 3752TIP3    H211200   1.105   7.014   5.084
 3753TIP3   OH211201   1.210   0.050   3.401
 3753TIP3    H111202   1.240  -0.016   3.339
 3753TIP3    H211203   1.268   0.039   3.477
 3754TIP3   OH211204   3.248   3.545   3.401
 3754TIP3    H111205   3.154   3.527   3.398
 3754TIP3    H211206   3.255   3.639   3.384
 3755TIP3   OH211207   4.172   7.415   0.790
 3755TIP3    H111208   4.171   7.457   0.704
 3755TIP3    H211209   4.154   7.323   0.772
 3756TIP3   OH211210   1.869   5.631   2.802
 3756TIP3    H111211   1.827   5.584   2.729
 3756TIP3    H211212   1.919   5.563   2.847
 3757TIP3   OH211213   2.282   2.587   3.284
 3757TIP3    H111214   2.268   2.579   3.378
 3757TIP3    H211215   2.374   2.614   3.276
 3758TIP3   OH211216   5.621   1.270   1.871
 3758TIP3    H111217   5.604   1.302   1.960
 3758TIP3    H211218   5.547   1.302   1.820
 3759TIP3   OH211219   6.092   5.970   0.514
 3759TIP3    H111220   6.117   6.060   0.492
 3759TIP3    H211221   6.165   5.916   0.482
 3760TIP3   OH211222   0.138   3.683   3.595
 3760TIP3    H111223   0.126   3.710   3.686
 3760TIP3    H211224   0.112   3.591   3.593
 3761TIP3   OH211225   6.777   5.767   6.516
 3761TIP3    H111226   6.734   5.683   6.533
 3761TIP3    H211227   6.862   5.744   6.478
 3762TIP3   OH211228   2.720   6.429   6.580
 3762TIP3    H111229   2.724   6.434   6.484
 3762TIP3    H211230   2.650   6.366   6.598
 3763TIP3   OH211231   0.724   0.730   1.699
 3763TIP3    H111232   0.666   0.805   1.713
 3763TIP3    H211233   0.789   0.761   1.636
 3764TIP3   OH211234   0.871   7.036   2.094
 3764TIP3    H111235   0.847   6.973   2.162
 3764TIP3    H211236   0.937   7.092   2.135
 3765TIP3   OH211237   5.950   2.421   2.858
 3765TIP3    H111238   5.929   2.340   2.812
 3765TIP3    H211239   5.868   2.470   2.858
 3766TIP3   OH211240   1.800   1.180   5.941
 3766TIP3    H111241   1.786   1.258   5.995
 3766TIP3    H211242   1.718   1.130   5.949
 3767TIP3   OH211243   3.781   1.390   3.765
 3767TIP3    H111244   3.730   1.457   3.811
 3767TIP3    H211245   3.715   1.338   3.718
 3768TIP3   OH211246   3.986   1.198   4.219
 3768TIP3    H111247   3.952   1.232   4.136
 3768TIP3    H211248   4.078   1.179   4.200
 3769TIP3   OH211249   2.694   5.474   0.220
 3769TIP3    H111250   2.600   5.494   0.223
 3769TIP3    H211251   2.701   5.401   0.159
 3770TIP3   OH211252   8.225   7.727   5.590
 3770TIP3    H111253   8.263   7.774   5.664
 3770TIP3    H211254   8.263   7.769   5.513
 3771TIP3   OH211255   7.255   0.137   6.023
 3771TIP3    H111256   7.169   0.111   5.990
 3771TIP3    H211257   7.296   0.054   6.048
 3772TIP3   OH211258   4.540   2.733   5.010
 3772TIP3    H111259   4.516   2.716   4.919
 3772TIP3    H211260   4.587   2.654   5.037
 3773TIP3   OH211261   7.396   5.182   2.227
 3773TIP3    H111262   7.325   5.244   2.248
 3773TIP3    H211263   7.465   5.237   2.189
 3774TIP3   OH211264   1.476   7.144   2.584
 3774TIP3    H111265   1.471   7.143   2.680
 3774TIP3    H211266   1.559   7.101   2.564
 3775TIP3   OH211267   6.894   6.693   6.266
 3775TIP3    H111268   6.916   6.617   6.212
 3775TIP3    H211269   6.953   6.687   6.341
 3776TIP3   OH211270   0.183   4.695   4.019
 3776TIP3    H111271   0.222   4.612   4.043
 3776TIP3    H211272   0.128   4.719   4.094
 3777TIP3   OH211273   2.078   5.933   0.042
 3777TIP3    H111274   2.057   5.949  -0.050
 3777TIP3    H211275   2.093   6.020   0.079
 3778TIP3   OH211276   6.191   4.249   5.345
 3778TIP3    H111277   6.226   4.329   5.383
 3778TIP3    H211278   6.205   4.258   5.251
 3779TIP3   OH211279   1.998   5.053   2.443
 3779TIP3    H111280   1.987   5.142   2.409
 3779TIP3    H211281   1.909   5.020   2.454
 3780TIP3   OH211282   3.429   1.498   1.592
 3780TIP3    H111283   3.481   1.423   1.619
 3780TIP3    H211284   3.339   1.473   1.610
 3781TIP3   OH211285   5.223   2.368   1.391
 3781TIP3    H111286   5.307   2.391   1.432
 3781TIP3    H211287   5.227   2.409   1.305
 3782TIP3   OH211288   1.121   6.769   6.315
 3782TIP3    H111289   1.169   6.710   6.258
 3782TIP3    H211290   1.188   6.830   6.348
 3783TIP3   OH211291   6.300   7.363   2.901
 3783TIP3    H111292   6.339   7.308   2.833
 3783TIP3    H211293   6.309   7.311   2.981
 3784TIP3   OH211294   2.347   7.671   5.351
 3784TIP3    H111295   2.374   7.579   5.358
 3784TIP3    H211296   2.275   7.670   5.288
 3785TIP3   OH211297   5.361   0.756   2.667
 3785TIP3    H111298   5.419   0.709   2.726
 3785TIP3    H211299   5.367   0.847   2.695
 3786TIP3   OH211300   7.000   2.277   3.927
 3786TIP3    H111301   6.915   2.276   3.972
 3786TIP3    H211302   7.062   2.305   3.994
 3787TIP3   OH211303   1.489   0.366   4.723
 3787TIP3    H111304   1.437   0.306   4.671
 3787TIP3    H211305   1.563   0.390   4.667
 3788TIP3   OH211306   0.294   3.987   6.084
 3788TIP3    H111307   0.342   3.956   6.161
 3788TIP3    H211308   0.218   4.033   6.120
 3789TIP3   OH211309   3.298   6.477   1.198
 3789TIP3    H111310   3.261   6.535   1.265
 3789TIP3    H211311   3.352   6.534   1.144
 3790TIP3   OH211312   5.433   2.561   1.497
 3790TIP3    H111313   5.459   2.502   1.568
 3790TIP3    H211314   5.512   2.570   1.444
 3791TIP3   OH211315   5.710   2.537   3.797
 3791TIP3    H111316   5.739   2.558   3.885
 3791TIP3    H211317   5.653   2.610   3.772
 3792TIP3   OH211318   2.178   2.508   5.915
 3792TIP3    H111319   2.218   2.461   5.841
 3792TIP3    H211320   2.181   2.600   5.888
 3793TIP3   OH211321   3.512   7.840   3.157
 3793TIP3    H111322   3.431   7.798   3.127
 3793TIP3    H211323   3.561   7.771   3.200
 3794TIP3   OH211324   6.267   3.361   4.744
 3794TIP3    H111325   6.332   3.336   4.810
 3794TIP3    H211326   6.319   3.401   4.674
 3795TIP3   OH211327   0.789   1.483   3.646
 3795TIP3    H111328   0.811   1.487   3.739
 3795TIP3    H211329   0.788   1.389   3.626
 3796TIP3   OH211330   7.903   7.666   6.055
 3796TIP3    H111331   7.972   7.616   6.100
 3796TIP3    H211332   7.882   7.613   5.978
 3797TIP3   OH211333   1.177   1.224   4.423
 3797TIP3    H111334   1.094   1.177   4.431
 3797TIP3    H211335   1.243   1.162   4.454
 3798TIP3   OH211336   7.807   4.101   2.397
 3798TIP3    H111337   7.897   4.127   2.378
 3798TIP3    H211338   7.802   4.011   2.365
 3799TIP3   OH211339   2.849   3.777   4.822
 3799TIP3    H111340   2.856   3.745   4.732
 3799TIP3    H211341   2.818   3.701   4.872
 3800TIP3   OH211342   8.168   5.141   3.410
 3800TIP3    H111343   8.234   5.171   3.347
 3800TIP3    H211344   8.133   5.060   3.372
 3801TIP3   OH211345   7.515   7.389   2.531
 3801TIP3    H111346   7.583   7.323   2.543
 3801TIP3    H211347   7.479   7.372   2.444
 3802TIP3   OH211348   6.308   0.979   1.804
 3802TIP3    H111349   6.351   0.990   1.889
 3802TIP3    H211350   6.304   0.884   1.792
 3803TIP3   OH211351   3.467   3.536   2.096
 3803TIP3    H111352   3.440   3.606   2.037
 3803TIP3    H211353   3.520   3.477   2.041
 3804TIP3   OH211354   2.312   2.498   5.452
 3804TIP3    H111355   2.344   2.542   5.374
 3804TIP3    H211356   2.303   2.567   5.517
 3805TIP3   OH211357   5.189   0.881   2.024
 3805TIP3    H111358   5.135   0.822   1.972
 3805TIP3    H211359   5.277   0.843   2.022
 3806TIP3   OH211360   5.983   3.491   1.150
 3806TIP3    H111361   5.989   3.570   1.096
 3806TIP3    H211362   5.906   3.445   1.117
 3807TIP3   OH211363   7.260   0.642   2.781
 3807TIP3    H111364   7.345   0.612   2.749
 3807TIP3    H211365   7.199   0.624   2.710
 3808TIP3   OH211366   3.748   4.542   0.026
 3808TIP3    H111367   3.736   4.448   0.019
 3808TIP3    H211368   3.842   4.555   0.026
 3809TIP3   OH211369   0.529   0.160   2.652
 3809TIP3    H111370   0.438   0.148   2.624
 3809TIP3    H211371   0.522   0.213   2.732
 3810TIP3   OH211372   0.947   3.127   5.877
 3810TIP3    H111373   0.994   3.088   5.950
 3810TIP3    H211374   0.979   3.078   5.800
 3811TIP3   OH211375   5.816   0.247   0.157
 3811TIP3    H111376   5.789   0.243   0.065
 3811TIP3    H211377   5.739   0.217   0.206
 3812TIP3   OH211378   6.467   5.919   2.199
 3812TIP3    H111379   6.383   5.924   2.153
 3812TIP3    H211380   6.519   5.989   2.161
 3813TIP3   OH211381   8.181   5.028   5.849
 3813TIP3    H111382   8.187   5.114   5.890
 3813TIP3    H211383   8.091   5.022   5.817
 3814TIP3   OH211384   1.730   7.114   1.622
 3814TIP3    H111385   1.682   7.105   1.540
 3814TIP3    H211386   1.820   7.088   1.600
 3815TIP3   OH211387   4.686   2.392   0.317
 3815TIP3    H111388   4.619   2.450   0.352
 3815TIP3    H211389   4.765   2.445   0.312
 3816TIP3   OH211390   3.073   3.777   0.445
 3816TIP3    H111391   2.998   3.800   0.389
 3816TIP3    H211392   3.075   3.682   0.444
 3817TIP3   OH211393   1.356   3.476   3.699
 3817TIP3    H111394   1.376   3.564   3.666
 3817TIP3    H211395   1.294   3.491   3.771
 3818TIP3   OH211396   7.388   7.781   0.539
 3818TIP3    H111397   7.424   7.725   0.470
 3818TIP3    H211398   7.456   7.846   0.555
 3819TIP3   OH211399   7.327   4.664   5.975
 3819TIP3    H111400   7.420   4.662   6.000
 3819TIP3    H211401   7.293   4.742   6.019
 3820TIP3   OH211402   4.883   0.416   0.241
 3820TIP3    H111403   4.877   0.324   0.266
 3820TIP3    H211404   4.830   0.462   0.305
 3821TIP3   OH211405   7.560   1.348   2.279
 3821TIP3    H111406   7.589   1.423   2.330
 3821TIP3    H211407   7.641   1.309   2.245
 3822TIP3   OH211408   6.480   1.221   3.764
 3822TIP3    H111409   6.387   1.198   3.768
 3822TIP3    H211410   6.525   1.149   3.808
 3823TIP3   OH211411   6.364   7.142   3.592
 3823TIP3    H111412   6.313   7.076   3.640
 3823TIP3    H211413   6.306   7.169   3.520
 3824TIP3   OH211414   1.837   4.722   3.002
 3824TIP3    H111415   1.843   4.813   3.031
 3824TIP3    H211416   1.927   4.690   3.004
 3825TIP3   OH211417   3.916   2.034   2.080
 3825TIP3    H111418   3.894   1.964   2.019
 3825TIP3    H211419   3.936   2.109   2.024
 3826TIP3   OH211420   5.266   3.216   0.646
 3826TIP3    H111421   5.326   3.270   0.595
 3826TIP3    H211422   5.186   3.213   0.594
 3827TIP3   OH211423   0.613   3.564   2.479
 3827TIP3    H111424   0.527   3.565   2.521
 3827TIP3    H211425   0.660   3.636   2.520
 3828TIP3   OH211426   2.356   7.373   5.109
 3828TIP3    H111427   2.432   7.326   5.075
 3828TIP3    H211428   2.321   7.316   5.177
 3829TIP3   OH211429   1.411   6.089   2.403
 3829TIP3    H111430   1.477   6.043   2.350
 3829TIP3    H211431   1.461   6.147   2.460
 3830TIP3   OH211432   1.447   1.762   5.209
 3830TIP3    H111433   1.501   1.775   5.131
 3830TIP3    H211434   1.398   1.844   5.218
 3831TIP3   OH211435   0.190   5.899   4.452
 3831TIP3    H111436   0.271   5.850   4.467
 3831TIP3    H211437   0.121   5.836   4.471
 3832TIP3   OH211438   4.027   1.821   1.772
 3832TIP3    H111439   4.073   1.765   1.835
 3832TIP3    H211440   3.944   1.842   1.815
 3833TIP3   OH211441   5.396   1.819   3.758
 3833TIP3    H111442   5.386   1.891   3.696
 3833TIP3    H211443   5.313   1.772   3.754
 3834TIP3   OH211444   6.009   5.408   0.869
 3834TIP3    H111445   6.008   5.330   0.813
 3834TIP3    H211446   5.920   5.414   0.903
 3835TIP3   OH211447   1.318   7.343   3.968
 3835TIP3    H111448   1.393   7.301   4.011
 3835TIP3    H211449   1.353   7.426   3.935
 3836TIP3   OH211450   2.111   3.002   3.340
 3836TIP3    H111451   2.119   2.921   3.289
 3836TIP3    H211452   2.035   2.988   3.396
 3837TIP3   OH211453   4.768   5.969   2.550
 3837TIP3    H111454   4.746   6.053   2.510
 3837TIP3    H211455   4.850   5.986   2.596
 3838TIP3   OH211456   5.823   5.564   3.973
 3838TIP3    H111457   5.739   5.606   3.954
 3838TIP3    H211458   5.888   5.632   3.956
 3839TIP3   OH211459   6.694   4.989   1.415
 3839TIP3    H111460   6.724   5.044   1.343
 3839TIP3    H211461   6.685   5.048   1.489
 3840TIP3   OH211462   7.770   6.212   1.708
 3840TIP3    H111463   7.693   6.172   1.667
 3840TIP3    H211464   7.842   6.153   1.686
 3841TIP3   OH211465   1.006   2.092   4.544
 3841TIP3    H111466   0.999   2.069   4.637
 3841TIP3    H211467   0.923   2.065   4.506
 3842TIP3   OH211468   0.475   1.070   3.293
 3842TIP3    H111469   0.558   1.029   3.315
 3842TIP3    H211470   0.463   1.052   3.199
 3843TIP3   OH211471   0.319   5.353   4.173
 3843TIP3    H111472   0.243   5.350   4.231
 3843TIP3    H211473   0.295   5.416   4.105
 3844TIP3   OH211474   8.209   0.793   2.026
 3844TIP3    H111475   8.248   0.720   1.978
 3844TIP3    H211476   8.228   0.870   1.972
 3845TIP3   OH211477   4.896   5.938   3.011
 3845TIP3    H111478   4.940   5.854   3.001
 3845TIP3    H211479   4.965   5.999   3.037
 3846TIP3   OH211480   4.555   0.657   6.399
 3846TIP3    H111481   4.531   0.680   6.309
 3846TIP3    H211482   4.580   0.565   6.395
 3847TIP3   OH211483   7.147   2.543   0.196
 3847TIP3    H111484   7.127   2.633   0.169
 3847TIP3    H211485   7.229   2.522   0.151
 3848TIP3   OH211486   0.968   1.954   2.637
 3848TIP3    H111487   0.909   1.888   2.601
 3848TIP3    H211488   1.017   1.907   2.704
 3849TIP3   OH211489   7.794   3.947   4.545
 3849TIP3    H111490   7.805   3.857   4.515
 3849TIP3    H211491   7.741   3.989   4.477
 3850TIP3   OH211492   7.637   2.437   4.784
 3850TIP3    H111493   7.597   2.520   4.809
 3850TIP3    H211494   7.566   2.373   4.785
 3851TIP3   OH211495   0.102   3.823   3.340
 3851TIP3    H111496   0.102   3.790   3.430
 3851TIP3    H211497   0.010   3.844   3.323
 3852TIP3   OH211498   7.345   4.915   4.522
 3852TIP3    H111499   7.322   4.965   4.600
 3852TIP3    H211500   7.279   4.847   4.515
 3853TIP3   OH211501   1.474   0.457   3.349
 3853TIP3    H111502   1.443   0.367   3.343
 3853TIP3    H211503   1.549   0.461   3.289
 3854TIP3   OH211504   4.247   5.780   6.489
 3854TIP3    H111505   4.335   5.746   6.501
 3854TIP3    H211506   4.258   5.875   6.477
 3855TIP3   OH211507   6.958   7.595   2.959
 3855TIP3    H111508   6.875   7.633   2.931
 3855TIP3    H211509   7.002   7.570   2.877
 3856TIP3   OH211510   3.627   1.271   4.420
 3856TIP3    H111511   3.704   1.215   4.416
 3856TIP3    H211512   3.618   1.294   4.513
 3857TIP3   OH211513   3.417   0.709   4.530
 3857TIP3    H111514   3.426   0.644   4.460
 3857TIP3    H211515   3.393   0.790   4.485
 3858TIP3   OH211516   3.994   5.519   1.774
 3858TIP3    H111517   4.053   5.556   1.840
 3858TIP3    H211518   4.026   5.430   1.760
 3859TIP3   OH211519   2.527   6.254   2.586
 3859TIP3    H111520   2.592   6.288   2.525
 3859TIP3    H211521   2.550   6.295   2.670
 3860TIP3   OH211522   2.426   1.066   5.162
 3860TIP3    H111523   2.389   1.125   5.097
 3860TIP3    H211524   2.495   1.117   5.205
 3861TIP3   OH211525   7.564   3.130   3.199
 3861TIP3    H111526   7.502   3.149   3.270
 3861TIP3    H211527   7.618   3.058   3.233
 3862TIP3   OH211528   0.965   5.955   1.827
 3862TIP3    H111529   1.028   6.026   1.840
 3862TIP3    H211530   1.004   5.881   1.873
 3863TIP3   OH211531   0.452   6.267   1.427
 3863TIP3    H111532   0.384   6.201   1.443
 3863TIP3    H211533   0.436   6.296   1.337
 3864TIP3   OH211534   8.108   1.659   4.438
 3864TIP3    H111535   8.193   1.649   4.394
 3864TIP3    H211536   8.047   1.682   4.368
 3865TIP3   OH211537   1.560   5.987   5.195
 3865TIP3    H111538   1.610   5.907   5.180
 3865TIP3    H211539   1.499   5.963   5.265
 3866TIP3   OH211540   4.996   3.511   5.288
 3866TIP3    H111541   5.070   3.488   5.232
 3866TIP3    H211542   5.036   3.557   5.362
 3867TIP3   OH211543   1.345   0.173   0.942
 3867TIP3    H111544   1.296   0.173   0.860
 3867TIP3    H211545   1.384   0.260   0.946
 3868TIP3   OH211546   5.678   1.035   5.806
 3868TIP3    H111547   5.760   0.992   5.832
 3868TIP3    H211548   5.641   1.067   5.888
 3869TIP3   OH211549   8.206   3.568   6.446
 3869TIP3    H111550   8.262   3.492   6.463
 3869TIP3    H211551   8.125   3.550   6.495
 3870TIP3   OH211552   6.666   5.312   0.998
 3870TIP3    H111553   6.623   5.304   1.083
 3870TIP3    H211554   6.689   5.405   0.991
 3871TIP3   OH211555   5.150   0.752   4.551
 3871TIP3    H111556   5.241   0.774   4.571
 3871TIP3    H211557   5.108   0.746   4.637
 3872TIP3   OH211558   2.866   6.639   3.785
 3872TIP3    H111559   2.954   6.646   3.822
 3872TIP3    H211560   2.837   6.729   3.774
 3873TIP3   OH211561   4.138   4.558   1.436
 3873TIP3    H111562   4.108   4.538   1.524
 3873TIP3    H211563   4.228   4.589   1.448
 3874TIP3   OH211564   6.301   5.254   4.784
 3874TIP3    H111565   6.344   5.301   4.713
 3874TIP3    H211566   6.293   5.164   4.752
 3875TIP3   OH211567   3.398   3.189   4.754
 3875TIP3    H111568   3.491   3.173   4.770
 3875TIP3    H211569   3.377   3.265   4.808
 3876TIP3   OH211570   3.013   2.671   3.533
 3876TIP3    H111571   3.038   2.663   3.625
 3876TIP3    H211572   3.086   2.717   3.492
 3877TIP3   OH211573   3.370   1.834   0.408
 3877TIP3    H111574   3.424   1.872   0.477
 3877TIP3    H211575   3.421   1.846   0.328
 3878TIP3   OH211576   4.658   5.295   0.435
 3878TIP3    H111577   4.593   5.230   0.462
 3878TIP3    H211578   4.706   5.253   0.364
 3879TIP3   OH211579   2.439   4.871   5.398
 3879TIP3    H111580   2.424   4.783   5.432
 3879TIP3    H211581   2.443   4.927   5.476
 3880TIP3   OH211582   0.926   5.198   3.762
 3880TIP3    H111583   0.934   5.152   3.678
 3880TIP3    H211584   0.947   5.132   3.828
 3881TIP3   OH211585   8.075   4.851   3.716
 3881TIP3    H111586   8.065   4.943   3.694
 3881TIP3    H211587   8.108   4.811   3.635
 3882TIP3   OH211588   5.106   7.357   4.221
 3882TIP3    H111589   5.087   7.330   4.131
 3882TIP3    H211590   5.186   7.408   4.214
 3883TIP3   OH211591   3.189   0.992   5.585
 3883TIP3    H111592   3.124   0.961   5.648
 3883TIP3    H211593   3.219   0.912   5.541
 3884TIP3   OH211594   8.142   6.784   4.404
 3884TIP3    H111595   8.050   6.760   4.413
 3884TIP3    H211596   8.181   6.711   4.356
 3885TIP3   OH211597   6.932   1.693   6.496
 3885TIP3    H111598   6.996   1.686   6.426
 3885TIP3    H211599   6.887   1.775   6.480
 3886TIP3   OH211600   7.338   1.989   4.351
 3886TIP3    H111601   7.398   2.037   4.293
 3886TIP3    H211602   7.291   1.929   4.292
 3887TIP3   OH211603   3.438   2.886   6.019
 3887TIP3    H111604   3.368   2.868   6.082
 3887TIP3    H211605   3.510   2.918   6.073
 3888TIP3   OH211606   1.963   5.873   4.717
 3888TIP3    H111607   1.976   5.940   4.650
 3888TIP3    H211608   1.869   5.872   4.731
 3889TIP3   OH211609   3.795   3.015   2.570
 3889TIP3    H111610   3.720   2.966   2.539
 3889TIP3    H211611   3.857   3.014   2.497
 3890TIP3   OH211612   1.296   5.007   5.054
 3890TIP3    H111613   1.229   4.962   5.105
 3890TIP3    H211614   1.311   4.951   4.978
 3891TIP3   OH211615   1.325   5.180   5.784
 3891TIP3    H111616   1.291   5.091   5.780
 3891TIP3    H211617   1.392   5.177   5.852
 3892TIP3   OH211618   1.740   5.932   3.125
 3892TIP3    H111619   1.825   5.930   3.169
 3892TIP3    H211620   1.696   6.008   3.164
 3893TIP3   OH211621   0.582   3.530   6.085
 3893TIP3    H111622   0.633   3.452   6.108
 3893TIP3    H211623   0.499   3.496   6.053
 3894TIP3   OH211624   7.956   6.966   0.952
 3894TIP3    H111625   7.868   7.001   0.971
 3894TIP3    H211626   7.940   6.892   0.894
 3895TIP3   OH211627   5.484   2.341   4.606
 3895TIP3    H111628   5.476   2.277   4.676
 3895TIP3    H211629   5.552   2.401   4.636
 3896TIP3   OH211630   2.128   7.486   5.573
 3896TIP3    H111631   2.107   7.409   5.626
 3896TIP3    H211632   2.220   7.474   5.549
 3897TIP3   OH211633   3.287   1.916   3.816
 3897TIP3    H111634   3.310   2.009   3.817
 3897TIP3    H211635   3.318   1.885   3.731
 3898TIP3   OH211636   0.621   6.041   6.693
 3898TIP3    H111637   0.563   6.018   6.766
 3898TIP3    H211638   0.565   6.092   6.634
 3899TIP3   OH211639   6.975   6.443   3.550
 3899TIP3    H111640   6.913   6.435   3.477
 3899TIP3    H211641   6.958   6.366   3.604
 3900TIP3   OH211642   7.591   2.758   2.590
 3900TIP3    H111643   7.629   2.683   2.545
 3900TIP3    H211644   7.504   2.728   2.617
 3901TIP3   OH211645   3.381   1.626   5.260
 3901TIP3    H111646   3.316   1.589   5.319
 3901TIP3    H211647   3.335   1.640   5.177
 3902TIP3   OH211648   4.966   4.015   2.550
 3902TIP3    H111649   5.050   3.982   2.519
 3902TIP3    H211650   4.907   4.004   2.476
 3903TIP3   OH211651   5.758   6.950   3.699
 3903TIP3    H111652   5.787   6.944   3.790
 3903TIP3    H211653   5.709   7.032   3.695
 3904TIP3   OH211654   3.455   6.481   5.987
 3904TIP3    H111655   3.392   6.523   5.929
 3904TIP3    H211656   3.428   6.389   5.990
 3905TIP3   OH211657   4.745   3.561   5.927
 3905TIP3    H111658   4.715   3.479   5.889
 3905TIP3    H211659   4.839   3.565   5.907
 3906TIP3   OH211660   6.997   4.692   0.421
 3906TIP3    H111661   7.083   4.713   0.459
 3906TIP3    H211662   6.964   4.622   0.477
 3907TIP3   OH211663   2.239   4.987   6.556
 3907TIP3    H111664   2.256   5.073   6.516
 3907TIP3    H211665   2.263   4.924   6.488
 3908TIP3   OH211666   1.724   2.755   4.166
 3908TIP3    H111667   1.811   2.784   4.193
 3908TIP3    H211668   1.665   2.787   4.235
 3909TIP3   OH211669   3.274   2.531   3.091
 3909TIP3    H111670   3.271   2.622   3.064
 3909TIP3    H211671   3.184   2.511   3.117
 3910TIP3   OH211672   7.986   7.690   2.467
 3910TIP3    H111673   7.956   7.679   2.377
 3910TIP3    H211674   7.906   7.707   2.517
 3911TIP3   OH211675   1.837   1.274   2.995
 3911TIP3    H111676   1.830   1.179   3.004
 3911TIP3    H211677   1.852   1.289   2.902
 3912TIP3   OH211678   3.729   3.591   4.720
 3912TIP3    H111679   3.672   3.558   4.650
 3912TIP3    H211680   3.756   3.512   4.768
 3913TIP3   OH211681   6.339   5.260   6.487
 3913TIP3    H111682   6.378   5.254   6.574
 3913TIP3    H211683   6.314   5.171   6.465
 3914TIP3   OH211684   6.923   2.114   4.460
 3914TIP3    H111685   6.856   2.072   4.514
 3914TIP3    H211686   7.001   2.116   4.515
 3915TIP3   OH211687   5.670   6.013   0.592
 3915TIP3    H111688   5.731   6.010   0.518
 3915TIP3    H211689   5.610   5.940   0.577
 3916TIP3   OH211690   4.135   7.440   6.762
 3916TIP3    H111691   4.090   7.488   6.692
 3916TIP3    H211692   4.210   7.399   6.719
 3917TIP3   OH211693   2.843   3.413   1.844
 3917TIP3    H111694   2.790   3.371   1.911
 3917TIP3    H211695   2.925   3.435   1.888
 3918TIP3   OH211696   2.999   1.748   5.405
 3918TIP3    H111697   3.035   1.661   5.388
 3918TIP3    H211698   3.043   1.805   5.341
 3919TIP3   OH211699   4.646   0.507   3.913
 3919TIP3    H111700   4.606   0.593   3.903
 3919TIP3    H211701   4.676   0.484   3.825
 3920TIP3   OH211702   5.053   7.551   4.000
 3920TIP3    H111703   4.998   7.474   4.008
 3920TIP3    H211704   4.997   7.616   3.956
 3921TIP3   OH211705   3.439   0.233   4.576
 3921TIP3    H111706   3.499   0.159   4.590
 3921TIP3    H211707   3.497   0.308   4.560
 3922TIP3   OH211708   4.039   0.993   4.878
 3922TIP3    H111709   4.050   1.073   4.825
 3922TIP3    H211710   3.995   1.023   4.957
 3923TIP3   OH211711   0.450   5.830   3.112
 3923TIP3    H111712   0.504   5.760   3.075
 3923TIP3    H211713   0.510   5.879   3.169
 3924TIP3   OH211714   3.218   3.989   3.686
 3924TIP3    H111715   3.147   4.051   3.668
 3924TIP3    H211716   3.176   3.903   3.683
 3925TIP3   OH211717   2.597   7.479   2.283
 3925TIP3    H111718   2.600   7.384   2.268
 3925TIP3    H211719   2.535   7.512   2.219
 3926TIP3   OH211720   3.260   4.436   5.399
 3926TIP3    H111721   3.305   4.371   5.346
 3926TIP3    H211722   3.300   4.430   5.485
 3927TIP3   OH211723   6.149   4.921   3.388
 3927TIP3    H111724   6.131   4.836   3.346
 3927TIP3    H211725   6.223   4.957   3.338
 3928TIP3   OH211726   1.865   6.768   3.007
 3928TIP3    H111727   1.879   6.738   2.917
 3928TIP3    H211728   1.935   6.726   3.057
 3929TIP3   OH211729   5.198   3.636   1.251
 3929TIP3    H111730   5.288   3.645   1.221
 3929TIP3    H211731   5.195   3.684   1.334
 3930TIP3   OH211732   2.227   3.762   4.759
 3930TIP3    H111733   2.193   3.822   4.693
 3930TIP3    H211734   2.168   3.773   4.834
 3931TIP3   OH211735   3.802   7.747   6.348
 3931TIP3    H111736   3.794   7.728   6.254
 3931TIP3    H211737   3.721   7.713   6.386
 3932TIP3   OH211738   3.251   7.114   3.937
 3932TIP3    H111739   3.225   7.025   3.961
 3932TIP3    H211740   3.273   7.109   3.844
 3933TIP3   OH211741   4.288   1.163   6.618
 3933TIP3    H111742   4.374   1.120   6.621
 3933TIP3    H211743   4.259   1.152   6.527
 3934TIP3   OH211744   5.870   7.328   0.875
 3934TIP3    H111745   5.821   7.386   0.934
 3934TIP3    H211746   5.892   7.383   0.800
 3935TIP3   OH211747   1.809   2.104   3.719
 3935TIP3    H111748   1.805   2.025   3.773
 3935TIP3    H211749   1.766   2.172   3.772
 3936TIP3   OH211750   7.265   3.610   0.164
 3936TIP3    H111751   7.309   3.650   0.089
 3936TIP3    H211752   7.240   3.523   0.134
 3937TIP3   OH211753   6.444   4.839   2.969
 3937TIP3    H111754   6.425   4.862   3.060
 3937TIP3    H211755   6.539   4.826   2.967
 3938TIP3   OH211756   4.753   3.375   3.606
 3938TIP3    H111757   4.810   3.401   3.678
 3938TIP3    H211758   4.812   3.332   3.543
 3939TIP3   OH211759   0.023   6.403   1.851
 3939TIP3    H111760   0.065   6.388   1.936
 3939TIP3    H211761   0.037   6.322   1.803
 3940TIP3   OH211762   1.634   2.362   2.300
 3940TIP3    H111763   1.716   2.385   2.343
 3940TIP3    H211764   1.566   2.383   2.364
 3941TIP3   OH211765   6.421   7.556   6.512
 3941TIP3    H111766   6.331   7.530   6.490
 3941TIP3    H211767   6.413   7.597   6.599
 3942TIP3   OH211768   0.138   4.236   3.524
 3942TIP3    H111769   0.149   4.330   3.514
 3942TIP3    H211770   0.158   4.200   3.437
 3943TIP3   OH211771   0.516   5.420   5.203
 3943TIP3    H111772   0.524   5.360   5.278
 3943TIP3    H211773   0.425   5.412   5.176
 3944TIP3   OH211774   1.375   5.694   5.987
 3944TIP3    H111775   1.403   5.785   5.985
 3944TIP3    H211776   1.370   5.668   5.895
 3945TIP3   OH211777   2.590   0.545   3.826
 3945TIP3    H111778   2.595   0.454   3.796
 3945TIP3    H211779   2.618   0.597   3.751
 3946TIP3   OH211780   3.549   5.202   0.280
 3946TIP3    H111781   3.593   5.274   0.235
 3946TIP3    H211782   3.551   5.129   0.218
 3947TIP3   OH211783   3.434   3.842   6.076
 3947TIP3    H111784   3.449   3.937   6.080
 3947TIP3    H211785   3.418   3.825   5.983
 3948TIP3   OH211786   0.401   3.413   6.517
 3948TIP3    H111787   0.449   3.478   6.569
 3948TIP3    H211788   0.435   3.423   6.428
 3949TIP3   OH211789   1.391   4.838   2.468
 3949TIP3    H111790   1.296   4.838   2.460
 3949TIP3    H211791   1.421   4.776   2.402
 3950TIP3   OH211792   8.270   6.067   4.639
 3950TIP3    H111793   8.348   6.056   4.585
 3950TIP3    H211794   8.280   6.004   4.710
 3951TIP3   OH211795   0.401   5.847   0.327
 3951TIP3    H111796   0.489   5.821   0.354
 3951TIP3    H211797   0.360   5.766   0.297
 3952TIP3   OH211798   2.203   2.474   1.260
 3952TIP3    H111799   2.285   2.492   1.216
 3952TIP3    H211800   2.163   2.404   1.208
 3953TIP3   OH211801   4.045   3.006   2.898
 3953TIP3    H111802   4.011   2.951   2.969
 3953TIP3    H211803   3.972   3.061   2.873
 3954TIP3   OH211804   5.769   7.429   1.593
 3954TIP3    H111805   5.817   7.357   1.551
 3954TIP3    H211806   5.725   7.388   1.668
 3955TIP3   OH211807   0.807   6.371   3.206
 3955TIP3    H111808   0.889   6.398   3.249
 3955TIP3    H211809   0.836   6.329   3.125
 3956TIP3   OH211810   3.945   6.844   2.846
 3956TIP3    H111811   4.025   6.816   2.890
 3956TIP3    H211812   3.971   6.920   2.794
 3957TIP3   OH211813   3.659   3.848   1.364
 3957TIP3    H111814   3.702   3.763   1.357
 3957TIP3    H211815   3.584   3.842   1.304
 3958TIP3   OH211816   1.620   3.336   5.970
 3958TIP3    H111817   1.661   3.254   5.997
 3958TIP3    H211818   1.574   3.314   5.889
 3959TIP3   OH211819   4.472   7.771   2.733
 3959TIP3    H111820   4.478   7.776   2.637
 3959TIP3    H211821   4.517   7.849   2.764
 3960TIP3   OH211822   1.765   2.179   5.633
 3960TIP3    H111823   1.754   2.261   5.683
 3960TIP3    H211824   1.679   2.164   5.594
 3961TIP3   OH211825   3.747   5.654   5.820
 3961TIP3    H111826   3.839   5.655   5.794
 3961TIP3    H211827   3.700   5.625   5.741
 3962TIP3   OH211828   1.603   7.724   1.669
 3962TIP3    H111829   1.617   7.633   1.695
 3962TIP3    H211830   1.685   7.768   1.693
 3963TIP3   OH211831   1.871   4.613   5.731
 3963TIP3    H111832   1.849   4.587   5.641
 3963TIP3    H211833   1.964   4.633   5.728
 3964TIP3   OH211834   4.434   4.503   0.587
 3964TIP3    H111835   4.340   4.513   0.570
 3964TIP3    H211836   4.464   4.439   0.523
 3965TIP3   OH211837   4.573   5.499   3.379
 3965TIP3    H111838   4.548   5.560   3.310
 3965TIP3    H211839   4.660   5.528   3.407
 3966TIP3   OH211840   2.813   2.651   6.340
 3966TIP3    H111841   2.784   2.735   6.375
 3966TIP3    H211842   2.732   2.603   6.323
 3967TIP3   OH211843   3.417   2.683   0.151
 3967TIP3    H111844   3.397   2.711   0.241
 3967TIP3    H211845   3.353   2.729   0.097
 3968TIP3   OH211846   2.814   2.425   5.073
 3968TIP3    H111847   2.748   2.356   5.063
 3968TIP3    H211848   2.889   2.381   5.114
 3969TIP3   OH211849   7.044   2.691   4.187
 3969TIP3    H111850   7.075   2.661   4.102
 3969TIP3    H211851   7.030   2.785   4.175
 3970TIP3   OH211852   0.615   1.427   5.832
 3970TIP3    H111853   0.545   1.365   5.810
 3970TIP3    H211854   0.593   1.506   5.783
 3971TIP3   OH211855   2.728   1.015   6.420
 3971TIP3    H111856   2.754   0.992   6.331
 3971TIP3    H211857   2.643   1.058   6.410
 3972TIP3   OH211858   6.285   1.995   3.263
 3972TIP3    H111859   6.271   1.913   3.311
 3972TIP3    H211860   6.238   1.982   3.180
 3973TIP3   OH211861   6.605   3.234   3.104
 3973TIP3    H111862   6.644   3.304   3.051
 3973TIP3    H211863   6.584   3.276   3.188
 3974TIP3   OH211864   2.645   2.619   2.253
 3974TIP3    H111865   2.723   2.652   2.208
 3974TIP3    H211866   2.668   2.620   2.346
 3975TIP3   OH211867   4.830   1.259   4.928
 3975TIP3    H111868   4.784   1.177   4.947
 3975TIP3    H211869   4.843   1.257   4.833
 3976TIP3   OH211870   2.227   3.843   1.213
 3976TIP3    H111871   2.237   3.911   1.146
 3976TIP3    H211872   2.246   3.887   1.295
 3977TIP3   OH211873   2.557   6.960   5.766
 3977TIP3    H111874   2.468   6.984   5.742
 3977TIP3    H211875   2.583   7.026   5.831
 3978TIP3   OH211876   4.291   0.980   0.964
 3978TIP3    H111877   4.292   0.946   1.054
 3978TIP3    H211878   4.342   0.917   0.914
 3979TIP3   OH211879   5.810   4.102   5.068
 3979TIP3    H111880   5.845   4.032   5.014
 3979TIP3    H211881   5.871   4.107   5.142
 3980TIP3   OH211882   3.616   7.614   3.383
 3980TIP3    H111883   3.525   7.585   3.383
 3980TIP3    H211884   3.622   7.673   3.458
 3981TIP3   OH211885   0.602   7.396   2.078
 3981TIP3    H111886   0.695   7.381   2.063
 3981TIP3    H211887   0.568   7.311   2.104
 3982TIP3   OH211888   7.570   6.810   3.425
 3982TIP3    H111889   7.494   6.806   3.483
 3982TIP3    H211890   7.619   6.731   3.445
 3983TIP3   OH211891   3.664   7.610   3.070
 3983TIP3    H111892   3.668   7.672   2.997
 3983TIP3    H211893   3.755   7.586   3.087
 3984TIP3   OH211894   2.311   2.866   4.547
 3984TIP3    H111895   2.403   2.849   4.527
 3984TIP3    H211896   2.312   2.947   4.597
 3985TIP3   OH211897   6.610   4.747   4.598
 3985TIP3    H111898   6.527   4.789   4.622
 3985TIP3    H211899   6.587   4.687   4.527
 3986TIP3   OH211900   6.039   4.339   0.686
 3986TIP3    H111901   6.107   4.291   0.639
 3986TIP3    H211902   6.058   4.325   0.779
 3987TIP3   OH211903   4.648   3.807   0.563
 3987TIP3    H111904   4.632   3.754   0.485
 3987TIP3    H211905   4.579   3.873   0.562
 3988TIP3   OH211906   6.711   3.914   0.305
 3988TIP3    H111907   6.761   3.951   0.232
 3988TIP3    H211908   6.629   3.962   0.304
 3989TIP3   OH211909   4.007   0.652   4.611
 3989TIP3    H111910   3.988   0.645   4.518
 3989TIP3    H211911   3.975   0.570   4.649
 3990TIP3   OH211912   7.624   2.745   4.750
 3990TIP3    H111913   7.556   2.801   4.786
 3990TIP3    H211914   7.604   2.738   4.657
 3991TIP3   OH211915   5.371   0.364   4.012
 3991TIP3    H111916   5.452   0.416   4.011
 3991TIP3    H211917   5.316   0.407   4.077
 3992TIP3   OH211918   2.412   3.703   0.422
 3992TIP3    H111919   2.475   3.720   0.352
 3992TIP3    H211920   2.332   3.674   0.377
 3993TIP3   OH211921   0.229   7.162   1.010
 3993TIP3    H111922   0.143   7.192   1.040
 3993TIP3    H211923   0.232   7.185   0.918
 3994TIP3   OH211924   3.389   3.233   5.954
 3994TIP3    H111925   3.398   3.298   6.023
 3994TIP3    H211926   3.410   3.150   5.997
 3995TIP3   OH211927   7.435   4.024   4.810
 3995TIP3    H111928   7.483   3.999   4.888
 3995TIP3    H211929   7.463   4.114   4.793
 3996TIP3   OH211930   3.088   4.322   2.948
 3996TIP3    H111931   3.024   4.385   2.915
 3996TIP3    H211932   3.114   4.271   2.872
 3997TIP3   OH211933   5.496   3.840   6.696
 3997TIP3    H111934   5.522   3.932   6.688
 3997TIP3    H211935   5.478   3.829   6.790
 3998TIP3   OH211936   3.867   5.979   3.216
 3998TIP3    H111937   3.808   5.905   3.209
 3998TIP3    H211938   3.922   5.959   3.292
 3999TIP3   OH211939   2.459   0.797   5.177
 3999TIP3    H111940   2.510   0.876   5.163
 3999TIP3    H211941   2.418   0.778   5.092
 4000TIP3   OH211942   6.145   1.806   0.296
 4000TIP3    H111943   6.092   1.813   0.376
 4000TIP3    H211944   6.213   1.872   0.306
 4001TIP3   OH211945   3.489   5.620   1.486
 4001TIP3    H111946   3.526   5.646   1.402
 4001TIP3    H211947   3.523   5.531   1.501
 4002TIP3   OH211948   2.063   4.555   6.041
 4002TIP3    H111949   2.154   4.525   6.035
 4002TIP3    H211950   2.063   4.640   5.998
 4003TIP3   OH211951   1.372   7.519   5.940
 4003TIP3    H111952   1.299   7.552   5.992
 4003TIP3    H211953   1.417   7.597   5.908
 4004TIP3   OH211954   1.127   4.036   0.751
 4004TIP3    H111955   1.159   4.100   0.687
 4004TIP3    H211956   1.157   3.952   0.717
 4005TIP3   OH211957   3.430   3.599   6.637
 4005TIP3    H111958   3.490   3.666   6.605
 4005TIP3    H211959   3.408   3.627   6.726
 4006TIP3   OH211960   2.563   3.319   0.420
 4006TIP3    H111961   2.533   3.334   0.330
 4006TIP3    H211962   2.483   3.309   0.471
 4007TIP3   OH211963   3.041   2.108   1.750
 4007TIP3    H111964   2.987   2.057   1.809
 4007TIP3    H211965   3.096   2.044   1.705
 4008TIP3   OH211966   8.241   3.699   4.179
 4008TIP3    H111967   8.265   3.697   4.272
 4008TIP3    H211968   8.151   3.732   4.178
 4009TIP3   OH211969   0.619   3.706   4.534
 4009TIP3    H111970   0.666   3.750   4.463
 4009TIP3    H211971   0.668   3.729   4.613
 4010TIP3   OH211972   2.904   7.038   1.730
 4010TIP3    H111973   2.959   6.985   1.673
 4010TIP3    H211974   2.950   7.039   1.814
 4011TIP3   OH211975   5.080   4.260   2.058
 4011TIP3    H111976   5.036   4.344   2.049
 4011TIP3    H211977   5.174   4.282   2.058
 4012TIP3   OH211978   0.430   6.162   5.563
 4012TIP3    H111979   0.358   6.125   5.615
 4012TIP3    H211980   0.469   6.087   5.519
 4013TIP3   OH211981   7.065   7.262   0.858
 4013TIP3    H111982   7.108   7.190   0.904
 4013TIP3    H211983   6.973   7.257   0.884
 4014TIP3   OH211984   1.061   1.657   3.880
 4014TIP3    H111985   0.983   1.602   3.888
 4014TIP3    H211986   1.033   1.731   3.826
 4015TIP3   OH211987   1.464   4.798   1.087
 4015TIP3    H111988   1.399   4.747   1.038
 4015TIP3    H211989   1.419   4.880   1.109
 4016TIP3   OH211990   2.295   1.812   4.874
 4016TIP3    H111991   2.236   1.841   4.943
 4016TIP3    H211992   2.326   1.727   4.904
 4017TIP3   OH211993   6.784   6.210   3.011
 4017TIP3    H111994   6.868   6.250   3.034
 4017TIP3    H211995   6.762   6.246   2.925
 4018TIP3   OH211996   1.219   5.777   0.230
 4018TIP3    H111997   1.175   5.798   0.148
 4018TIP3    H211998   1.187   5.843   0.292
 4019TIP3   OH211999   6.116   2.890   5.027
 4019TIP3    H112000   6.175   2.965   5.015
 4019TIP3    H212001   6.111   2.878   5.121
 4020TIP3   OH212002   1.246   0.285   2.786
 4020TIP3    H112003   1.254   0.373   2.748
 4020TIP3    H212004   1.231   0.301   2.879
 4021TIP3   OH212005   0.528   1.205   3.526
 4021TIP3    H112006   0.603   1.250   3.487
 4021TIP3    H212007   0.471   1.184   3.452
 4022TIP3   OH212008   6.981   6.794   2.718
 4022TIP3    H112009   6.980   6.707   2.679
 4022TIP3    H212010   6.944   6.851   2.650
 4023TIP3   OH212011   5.380   7.472   4.210
 4023TIP3    H112012   5.457   7.529   4.213
 4023TIP3    H212013   5.333   7.501   4.132
 4024TIP3   OH212014   6.616   3.930   5.580
 4024TIP3    H112015   6.597   3.839   5.559
 4024TIP3    H212016   6.533   3.976   5.565
 4025TIP3   OH212017   6.733   3.264   5.015
 4025TIP3    H112018   6.778   3.236   4.935
 4025TIP3    H212019   6.732   3.186   5.071
 4026TIP3   OH212020   6.678   5.709   3.820
 4026TIP3    H112021   6.702   5.706   3.728
 4026TIP3    H212022   6.730   5.640   3.861
 4027TIP3   OH212023   3.639   3.248   0.562
 4027TIP3    H112024   3.641   3.273   0.654
 4027TIP3    H212025   3.604   3.159   0.561
 4028TIP3   OH212026   8.321   6.381   4.754
 4028TIP3    H112027   8.246   6.328   4.783
 4028TIP3    H212028   8.346   6.431   4.831
 4029TIP3   OH212029   1.960   0.880   3.729
 4029TIP3    H112030   2.050   0.907   3.710
 4029TIP3    H212031   1.944   0.806   3.672
 4030TIP3   OH212032   4.755   7.275   0.174
 4030TIP3    H112033   4.799   7.286   0.090
 4030TIP3    H212034   4.672   7.322   0.165
 4031TIP3   OH212035   4.161   4.010   2.098
 4031TIP3    H112036   4.166   3.915   2.110
 4031TIP3    H212037   4.249   4.041   2.122
 4032TIP3   OH212038   7.723   0.926   3.898
 4032TIP3    H112039   7.694   1.010   3.861
 4032TIP3    H212040   7.778   0.887   3.830
 4033TIP3   OH212041   4.294   6.536   3.450
 4033TIP3    H112042   4.335   6.475   3.513
 4033TIP3    H212043   4.288   6.485   3.369
 4034TIP3   OH212044   0.023   5.309   4.615
 4034TIP3    H112045   0.000   5.280   4.527
 4034TIP3    H212046   0.118   5.319   4.614
 4035TIP3   OH212047   3.275   5.470   0.608
 4035TIP3    H112048   3.305   5.501   0.694
 4035TIP3    H212049   3.356   5.454   0.559
 4036TIP3   OH212050   4.985   6.141   3.353
 4036TIP3    H112051   4.995   6.166   3.262
 4036TIP3    H212052   5.040   6.063   3.363
 4037TIP3   OH212053   4.792   6.608   1.405
 4037TIP3    H112054   4.758   6.696   1.421
 4037TIP3    H212055   4.793   6.567   1.491
 4038TIP3   OH212056   0.654   7.517   6.553
 4038TIP3    H112057   0.606   7.440   6.522
 4038TIP3    H212058   0.731   7.481   6.596
 4039TIP3   OH212059   6.806   0.871   1.233
 4039TIP3    H112060   6.716   0.842   1.222
 4039TIP3    H212061   6.859   0.795   1.209
 4040TIP3   OH212062   0.856   3.803   5.804
 4040TIP3    H112063   0.952   3.794   5.800
 4040TIP3    H212064   0.835   3.867   5.736
 4041TIP3   OH212065   7.145   4.735   0.675
 4041TIP3    H112066   7.059   4.777   0.669
 4041TIP3    H212067   7.140   4.683   0.756
 4042TIP3   OH212068   7.935   4.360   0.871
 4042TIP3    H112069   8.028   4.356   0.846
 4042TIP3    H212070   7.933   4.324   0.959
 4043TIP3   OH212071   3.949   6.559   3.894
 4043TIP3    H112072   3.962   6.505   3.971
 4043TIP3    H212073   4.026   6.544   3.840
 4044TIP3   OH212074   3.589   5.620   2.736
 4044TIP3    H112075   3.500   5.616   2.702
 4044TIP3    H212076   3.628   5.536   2.711
 4045TIP3   OH212077   0.584   0.590   1.900
 4045TIP3    H112078   0.645   0.621   1.833
 4045TIP3    H212079   0.576   0.663   1.961
 4046TIP3   OH212080   1.777   6.662   1.052
 4046TIP3    H112081   1.824   6.585   1.084
 4046TIP3    H212082   1.690   6.654   1.090
 4047TIP3   OH212083   2.844   0.158   4.592
 4047TIP3    H112084   2.887   0.237   4.560
 4047TIP3    H212085   2.915   0.093   4.597
 4048TIP3   OH212086   2.427   3.328   5.540
 4048TIP3    H112087   2.405   3.235   5.535
 4048TIP3    H212088   2.518   3.330   5.567
 4049TIP3   OH212089   7.330   6.337   2.964
 4049TIP3    H112090   7.318   6.244   2.948
 4049TIP3    H212091   7.280   6.381   2.895
 4050TIP3   OH212092   5.301   1.468   1.526
 4050TIP3    H112093   5.244   1.505   1.594
 4050TIP3    H212094   5.310   1.539   1.462
 4051TIP3   OH212095   4.926   3.957   6.720
 4051TIP3    H112096   4.863   3.886   6.709
 4051TIP3    H212097   4.959   3.974   6.632
 4052TIP3   OH212098   7.050   1.506   1.070
 4052TIP3    H112099   7.046   1.575   1.004
 4052TIP3    H212100   6.959   1.480   1.083
 4053TIP3   OH212101   2.153   6.187   6.062
 4053TIP3    H112102   2.223   6.124   6.044
 4053TIP3    H212103   2.183   6.269   6.024
 4054TIP3   OH212104   1.076   1.320   5.114
 4054TIP3    H112105   1.073   1.308   5.020
 4054TIP3    H212106   0.985   1.327   5.141
 4055TIP3   OH212107   6.663   5.675   4.234
 4055TIP3    H112108   6.741   5.725   4.257
 4055TIP3    H212109   6.630   5.641   4.317
 4056TIP3   OH212110   4.043   4.382   0.931
 4056TIP3    H112111   4.020   4.339   0.849
 4056TIP3    H212112   3.963   4.379   0.983
 4057TIP3   OH212113   7.927   3.088   5.861
 4057TIP3    H112114   7.922   3.022   5.930
 4057TIP3    H212115   8.018   3.118   5.864
 4058TIP3   OH212116   5.763   6.674   1.131
 4058TIP3    H112117   5.759   6.594   1.078
 4058TIP3    H212118   5.699   6.660   1.200
 4059TIP3   OH212119   3.832   4.699   6.496
 4059TIP3    H112120   3.885   4.620   6.503
 4059TIP3    H212121   3.863   4.755   6.568
 4060TIP3   OH212122   3.308   7.236   0.746
 4060TIP3    H112123   3.389   7.269   0.785
 4060TIP3    H212124   3.312   7.142   0.758
 4061TIP3   OH212125   1.245   1.337   5.383
 4061TIP3    H112126   1.177   1.362   5.445
 4061TIP3    H212127   1.326   1.371   5.421
 4062TIP3   OH212128   6.847   2.075   5.733
 4062TIP3    H112129   6.799   2.001   5.769
 4062TIP3    H212130   6.907   2.100   5.803
 4063TIP3   OH212131   6.798   2.595   3.857
 4063TIP3    H112132   6.886   2.591   3.896
 4063TIP3    H212133   6.811   2.639   3.773
 4064TIP3   OH212134   0.481   6.432   5.168
 4064TIP3    H112135   0.425   6.372   5.118
 4064TIP3    H212136   0.544   6.465   5.104
 4065TIP3   OH212137   1.583   4.829   4.375
 4065TIP3    H112138   1.643   4.883   4.425
 4065TIP3    H212139   1.496   4.854   4.405
 4066TIP3   OH212140   6.094   7.237   3.784
 4066TIP3    H112141   6.041   7.310   3.816
 4066TIP3    H212142   6.183   7.272   3.779
 4067TIP3   OH212143   1.969   5.967   2.273
 4067TIP3    H112144   1.991   6.022   2.347
 4067TIP3    H212145   1.887   6.002   2.239
 4068TIP3   OH212146   0.641   5.382   1.184
 4068TIP3    H112147   0.567   5.433   1.216
 4068TIP3    H212148   0.630   5.295   1.221
 4069TIP3   OH212149   2.144   2.213   6.006
 4069TIP3    H112150   2.171   2.180   6.092
 4069TIP3    H212151   2.050   2.232   6.016
 4070TIP3   OH212152   1.489   1.298   2.876
 4070TIP3    H112153   1.492   1.358   2.951
 4070TIP3    H212154   1.535   1.345   2.806
 4071TIP3   OH212155   4.580   6.605   0.224
 4071TIP3    H112156   4.572   6.697   0.250
 4071TIP3    H212157   4.619   6.562   0.300
 4072TIP3   OH212158   3.928   6.472   0.716
 4072TIP3    H112159   3.934   6.466   0.812
 4072TIP3    H212160   3.889   6.558   0.700
 4073TIP3   OH212161   0.582   1.377   1.301
 4073TIP3    H112162   0.622   1.464   1.294
 4073TIP3    H212163   0.640   1.320   1.251
 4074TIP3   OH212164   1.639   4.127   4.343
 4074TIP3    H112165   1.638   4.201   4.283
 4074TIP3    H212166   1.656   4.051   4.288
 4075TIP3   OH212167   6.059   0.306   5.256
 4075TIP3    H112168   5.995   0.368   5.292
 4075TIP3    H212169   6.012   0.260   5.187
 4076TIP3   OH212170   6.283   3.466   0.283
 4076TIP3    H112171   6.375   3.464   0.257
 4076TIP3    H212172   6.273   3.389   0.340
 4077TIP3   OH212173   2.902   6.211   2.374
 4077TIP3    H112174   2.987   6.255   2.370
 4077TIP3    H212175   2.879   6.195   2.282
 4078TIP3   OH212176   0.898   5.450   2.486
 4078TIP3    H112177   0.811   5.413   2.475
 4078TIP3    H212178   0.901   5.524   2.426
 4079TIP3   OH212179   6.990   2.923   3.459
 4079TIP3    H112180   6.922   2.950   3.398
 4079TIP3    H212181   6.968   2.832   3.480
 4080TIP3   OH212182   4.222   0.977   3.115
 4080TIP3    H112183   4.213   0.885   3.140
 4080TIP3    H212184   4.314   0.985   3.090
 4081TIP3   OH212185   2.093   4.532   4.758
 4081TIP3    H112186   2.182   4.509   4.732
 4081TIP3    H212187   2.104   4.604   4.820
 4082TIP3   OH212188   2.050   7.677   4.493
 4082TIP3    H112189   2.074   7.673   4.400
 4082TIP3    H212190   2.132   7.702   4.537
 4083TIP3   OH212191   0.448   2.802   3.378
 4083TIP3    H112192   0.540   2.774   3.378
 4083TIP3    H212193   0.413   2.767   3.296
 4084TIP3   OH212194   2.162   3.218   1.329
 4084TIP3    H112195   2.089   3.255   1.279
 4084TIP3    H212196   2.240   3.258   1.289
 4085TIP3   OH212197   5.392   7.221   0.583
 4085TIP3    H112198   5.445   7.229   0.662
 4085TIP3    H212199   5.395   7.307   0.543
 4086TIP3   OH212200   1.850   3.338   4.487
 4086TIP3    H112201   1.784   3.307   4.549
 4086TIP3    H212202   1.877   3.423   4.521
 4087TIP3   OH212203   6.750   7.158   4.508
 4087TIP3    H112204   6.687   7.195   4.445
 4087TIP3    H212205   6.696   7.131   4.582
 4088TIP3   OH212206   5.927   1.512   2.362
 4088TIP3    H112207   5.975   1.581   2.407
 4088TIP3    H212208   5.835   1.536   2.373
 4089TIP3   OH212209   6.814   7.640   2.303
 4089TIP3    H112210   6.725   7.630   2.337
 4089TIP3    H212211   6.856   7.700   2.365
 4090TIP3   OH212212   1.041   5.551   0.884
 4090TIP3    H112213   1.019   5.466   0.846
 4090TIP3    H212214   1.007   5.546   0.974
 4091TIP3   OH212215   7.127   1.334   6.456
 4091TIP3    H112216   7.182   1.255   6.452
 4091TIP3    H212217   7.134   1.372   6.368
 4092TIP3   OH212218   6.971   1.837   1.372
 4092TIP3    H112219   7.014   1.754   1.352
 4092TIP3    H212220   7.029   1.879   1.436
 4093TIP3   OH212221   1.104   4.682   1.935
 4093TIP3    H112222   1.077   4.716   1.849
 4093TIP3    H212223   1.188   4.639   1.917
 4094TIP3   OH212224   6.298   2.221   4.982
 4094TIP3    H112225   6.219   2.179   5.017
 4094TIP3    H212226   6.318   2.289   5.046
 4095TIP3   OH212227   0.388   7.368   4.376
 4095TIP3    H112228   0.371   7.455   4.411
 4095TIP3    H212229   0.472   7.342   4.414
 4096TIP3   OH212230   1.570   2.273   1.253
 4096TIP3    H112231   1.647   2.218   1.238
 4096TIP3    H212232   1.516   2.222   1.313
 4097TIP3   OH212233   0.012   0.706   3.859
 4097TIP3    H112234   0.038   0.718   3.950
 4097TIP3    H212235   0.068   0.765   3.810
 4098TIP3   OH212236   0.570   6.432   2.680
 4098TIP3    H112237   0.496   6.489   2.700
 4098TIP3    H212238   0.639   6.461   2.739
 4099TIP3   OH212239   2.579   2.603   6.677
 4099TIP3    H112240   2.539   2.677   6.631
 4099TIP3    H212241   2.525   2.528   6.652
 4100TIP3   OH212242   1.490   3.741   5.330
 4100TIP3    H112243   1.465   3.759   5.421
 4100TIP3    H212244   1.560   3.677   5.336
 4101TIP3   OH212245   3.075   0.348   6.288
 4101TIP3    H112246   3.073   0.264   6.241
 4101TIP3    H212247   2.989   0.387   6.270
 4102TIP3   OH212248   0.681   6.892   4.915
 4102TIP3    H112249   0.621   6.837   4.966
 4102TIP3    H212250   0.735   6.829   4.866
 4103TIP3   OH212251   6.103   3.690   3.016
 4103TIP3    H112252   6.040   3.646   3.073
 4103TIP3    H212253   6.088   3.650   2.930
 4104TIP3   OH212254   6.365   5.045   1.079
 4104TIP3    H112255   6.372   5.000   1.163
 4104TIP3    H212256   6.288   5.006   1.037
 4105TIP3   OH212257   5.965   5.104   1.145
 4105TIP3    H112258   6.019   5.078   1.070
 4105TIP3    H212259   5.896   5.158   1.108
 4106TIP3   OH212260   5.392   5.381   6.033
 4106TIP3    H112261   5.470   5.424   6.066
 4106TIP3    H212262   5.417   5.289   6.022
 4107TIP3   OH212263   3.170   0.787   4.750
 4107TIP3    H112264   3.121   0.782   4.668
 4107TIP3    H212265   3.257   0.817   4.724
 4108TIP3   OH212266   1.091   4.675   1.665
 4108TIP3    H112267   1.123   4.724   1.590
 4108TIP3    H212268   1.108   4.583   1.644
 4109TIP3   OH212269   3.055   6.097   3.442
 4109TIP3    H112270   3.034   6.004   3.435
 4109TIP3    H212271   3.138   6.106   3.396
 4110TIP3   OH212272   7.537   5.487   4.434
 4110TIP3    H112273   7.515   5.560   4.492
 4110TIP3    H212274   7.588   5.428   4.488
 4111TIP3   OH212275   1.564   2.433   5.095
 4111TIP3    H112276   1.580   2.356   5.041
 4111TIP3    H212277   1.483   2.470   5.060
 4112TIP3   OH212278   3.712   5.467   5.610
 4112TIP3    H112279   3.647   5.420   5.556
 4112TIP3    H212280   3.711   5.422   5.694
 4113TIP3   OH212281   6.305   1.485   1.953
 4113TIP3    H112282   6.374   1.429   1.917
 4113TIP3    H212283   6.223   1.443   1.928
 4114TIP3   OH212284   4.738   2.130   1.971
 4114TIP3    H112285   4.806   2.144   1.904
 4114TIP3    H212286   4.677   2.068   1.931
 4115TIP3   OH212287   0.420   1.522   2.167
 4115TIP3    H112288   0.476   1.447   2.148
 4115TIP3    H212289   0.381   1.545   2.083
 4116TIP3   OH212290   4.550   0.800   3.901
 4116TIP3    H112291   4.466   0.771   3.937
 4116TIP3    H212292   4.600   0.829   3.978
 4117TIP3   OH212293   1.237   3.109   3.914
 4117TIP3    H112294   1.305   3.165   3.952
 4117TIP3    H212295   1.157   3.162   3.918
 4118TIP3   OH212296   5.107   4.304   5.750
 4118TIP3    H112297   5.138   4.284   5.662
 4118TIP3    H212298   5.185   4.335   5.796
 4119TIP3   OH212299   3.457   6.001   5.094
 4119TIP3    H112300   3.403   5.929   5.127
 4119TIP3    H212301   3.524   6.013   5.161
 4120TIP3   OH212302   2.557   1.063   0.800
 4120TIP3    H112303   2.637   1.113   0.811
 4120TIP3    H212304   2.585   0.971   0.802
 4121TIP3   OH212305   3.878   0.477   4.836
 4121TIP3    H112306   3.899   0.455   4.927
 4121TIP3    H212307   3.827   0.558   4.843
 4122TIP3   OH212308   6.824   7.277   0.084
 4122TIP3    H112309   6.880   7.201   0.070
 4122TIP3    H212310   6.800   7.306  -0.005
 4123TIP3   OH212311   2.218   0.704   2.824
 4123TIP3    H112312   2.209   0.707   2.919
 4123TIP3    H212313   2.211   0.796   2.797
 4124TIP3   OH212314   3.180   0.775   2.303
 4124TIP3    H112315   3.110   0.714   2.325
 4124TIP3    H212316   3.164   0.798   2.211
 4125TIP3   OH212317   0.888   0.869   1.484
 4125TIP3    H112318   0.940   0.932   1.534
 4125TIP3    H212319   0.875   0.910   1.399
 4126TIP3   OH212320   0.843   0.710   2.087
 4126TIP3    H112321   0.878   0.650   2.154
 4126TIP3    H212322   0.751   0.721   2.111
 4127TIP3   OH212323   3.776   0.259   3.390
 4127TIP3    H112324   3.708   0.258   3.457
 4127TIP3    H212325   3.738   0.211   3.317
 4128TIP3   OH212326   5.264   0.770   1.752
 4128TIP3    H112327   5.325   0.772   1.825
 4128TIP3    H212328   5.182   0.737   1.789
 4129TIP3   OH212329   6.096   3.167   4.666
 4129TIP3    H112330   6.156   3.221   4.718
 4129TIP3    H212331   6.056   3.228   4.605
 4130TIP3   OH212332   2.785   2.015   2.796
 4130TIP3    H112333   2.705   2.047   2.753
 4130TIP3    H212334   2.818   2.091   2.844
 4131TIP3   OH212335   1.014   6.259   0.677
 4131TIP3    H112336   1.027   6.206   0.756
 4131TIP3    H212337   0.964   6.334   0.706
 4132TIP3   OH212338   3.001   4.542   5.716
 4132TIP3    H112339   2.974   4.579   5.800
 4132TIP3    H212340   3.081   4.589   5.694
 4133TIP3   OH212341   4.061   1.834   5.758
 4133TIP3    H112342   4.099   1.785   5.831
 4133TIP3    H212343   3.994   1.776   5.722
 4134TIP3   OH212344   2.480   4.845   3.192
 4134TIP3    H112345   2.426   4.786   3.244
 4134TIP3    H212346   2.419   4.912   3.160
 4135TIP3   OH212347   8.324   4.820   2.113
 4135TIP3    H112348   8.336   4.810   2.208
 4135TIP3    H212349   8.254   4.884   2.104
 4136TIP3   OH212350   6.503   4.304   5.525
 4136TIP3    H112351   6.511   4.258   5.609
 4136TIP3    H212352   6.561   4.380   5.533
 4137TIP3   OH212353   6.521   1.594   6.494
 4137TIP3    H112354   6.517   1.685   6.463
 4137TIP3    H212355   6.466   1.592   6.572
 4138TIP3   OH212356   8.150   1.149   5.860
 4138TIP3    H112357   8.101   1.176   5.937
 4138TIP3    H212358   8.227   1.104   5.895
 4139TIP3   OH212359   2.854   7.105   5.359
 4139TIP3    H112360   2.885   7.016   5.343
 4139TIP3    H212361   2.848   7.112   5.454
 4140TIP3   OH212362   2.372   3.020   2.126
 4140TIP3    H112363   2.388   2.954   2.058
 4140TIP3    H212364   2.326   3.091   2.080
 4141TIP3   OH212365   4.228   2.764   5.721
 4141TIP3    H112366   4.209   2.678   5.685
 4141TIP3    H212367   4.310   2.790   5.680
 4142TIP3   OH212368   3.881   3.494   5.183
 4142TIP3    H112369   3.907   3.470   5.272
 4142TIP3    H212370   3.821   3.424   5.156
 4143TIP3   OH212371   4.402   2.180   5.094
 4143TIP3    H112372   4.398   2.118   5.021
 4143TIP3    H212373   4.343   2.143   5.160
 4144TIP3   OH212374   0.591   6.563   3.923
 4144TIP3    H112375   0.515   6.546   3.868
 4144TIP3    H212376   0.608   6.657   3.914
 4145TIP3   OH212377   1.044   0.743   1.030
 4145TIP3    H112378   1.027   0.820   1.084
 4145TIP3    H212379   1.136   0.752   1.004
 4146TIP3   OH212380   3.847   3.719   0.430
 4146TIP3    H112381   3.837   3.691   0.339
 4146TIP3    H212382   3.787   3.793   0.439
 4147TIP3   OH212383   3.336   4.835   4.955
 4147TIP3    H112384   3.321   4.761   4.896
 4147TIP3    H212385   3.419   4.815   4.998
 4148TIP3   OH212386   4.788   2.285   2.513
 4148TIP3    H112387   4.802   2.206   2.565
 4148TIP3    H212388   4.768   2.253   2.425
 4149TIP3   OH212389   5.671   6.867   0.685
 4149TIP3    H112390   5.582   6.900   0.700
 4149TIP3    H212391   5.726   6.927   0.735
 4150TIP3   OH212392   4.751   6.454   1.665
 4150TIP3    H112393   4.718   6.365   1.675
 4150TIP3    H212394   4.704   6.504   1.732
 4151TIP3   OH212395   5.910   2.244   2.016
 4151TIP3    H112396   5.924   2.202   1.931
 4151TIP3    H212397   5.816   2.262   2.019
 4152TIP3   OH212398   3.692   0.116   3.122
 4152TIP3    H112399   3.689   0.158   3.036
 4152TIP3    H212400   3.765   0.055   3.116
 4153TIP3   OH212401   7.906   5.660   4.500
 4153TIP3    H112402   7.952   5.581   4.473
 4153TIP3    H212403   7.934   5.674   4.591
 4154TIP3   OH212404   0.987   7.104   1.637
 4154TIP3    H112405   0.957   7.091   1.547
 4154TIP3    H212406   0.923   7.163   1.676
 4155TIP3   OH212407   2.506   4.621   4.871
 4155TIP3    H112408   2.544   4.706   4.851
 4155TIP3    H212409   2.442   4.606   4.800
 4156TIP3   OH212410   4.595   0.060   4.875
 4156TIP3    H112411   4.526   0.005   4.911
 4156TIP3    H212412   4.609   0.025   4.787
 4157TIP3   OH212413   0.342   5.845   3.520
 4157TIP3    H112414   0.332   5.937   3.544
 4157TIP3    H212415   0.426   5.841   3.475
 4158TIP3   OH212416   2.550   7.481   3.508
 4158TIP3    H112417   2.464   7.459   3.544
 4158TIP3    H212418   2.538   7.567   3.468
 4159TIP3   OH212419   5.320   6.039   1.580
 4159TIP3    H112420   5.403   5.992   1.580
 4159TIP3    H212421   5.308   6.067   1.490
 4160TIP3   OH212422   6.138   3.635   4.443
 4160TIP3    H112423   6.148   3.727   4.418
 4160TIP3    H212424   6.161   3.632   4.536
 4161TIP3   OH212425   5.089   3.531   3.149
 4161TIP3    H112426   5.012   3.475   3.146
 4161TIP3    H212427   5.139   3.507   3.071
 4162TIP3   OH212428   5.009   2.695   2.943
 4162TIP3    H112429   5.040   2.609   2.972
 4162TIP3    H212430   4.934   2.675   2.888
 4163TIP3   OH212431   0.447   5.024   2.476
 4163TIP3    H112432   0.477   4.938   2.445
 4163TIP3    H212433   0.382   5.052   2.411
 4164TIP3   OH212434   0.754   6.403   4.070
 4164TIP3    H112435   0.785   6.336   4.009
 4164TIP3    H212436   0.684   6.448   4.024
 4165TIP3   OH212437   0.365  -0.019   3.479
 4165TIP3    H112438   0.298   0.035   3.521
 4165TIP3    H212439   0.441  -0.013   3.538
 4166TIP3   OH212440   5.182   3.035   0.931
 4166TIP3    H112441   5.224   3.108   0.885
 4166TIP3    H212442   5.102   3.018   0.881
 4167TIP3   OH212443   8.210   2.020   0.457
 4167TIP3    H112444   8.245   2.083   0.394
 4167TIP3    H212445   8.274   2.017   0.527
 4168TIP3   OH212446   7.074   6.225   4.121
 4168TIP3    H112447   7.110   6.172   4.192
 4168TIP3    H212448   7.008   6.169   4.081
 4169TIP3   OH212449   4.453   5.264   2.320
 4169TIP3    H112450   4.360   5.276   2.303
 4169TIP3    H212451   4.491   5.351   2.309
 4170TIP3   OH212452   5.922   1.078   6.815
 4170TIP3    H112453   5.878   1.001   6.780
 4170TIP3    H212454   5.956   1.123   6.738
 4171TIP3   OH212455   3.753   4.182   0.133
 4171TIP3    H112456   3.827   4.242   0.141
 4171TIP3    H212457   3.708   4.209   0.054
 4172TIP3   OH212458   4.185   7.466   2.750
 4172TIP3    H112459   4.227   7.533   2.805
 4172TIP3    H212460   4.130   7.516   2.689
 4173TIP3   OH212461   4.609   5.617   4.989
 4173TIP3    H112462   4.557   5.693   5.016
 4173TIP3    H212463   4.636   5.638   4.900
 4174TIP3   OH212464   4.563   0.981   2.243
 4174TIP3    H112465   4.468   0.980   2.250
 4174TIP3    H212466   4.584   0.910   2.182
 4175TIP3   OH212467   3.406   0.928   4.743
 4175TIP3    H112468   3.487   0.961   4.703
 4175TIP3    H212469   3.405   0.966   4.831
 4176TIP3   OH212470   4.241   0.161   6.656
 4176TIP3    H112471   4.302   0.169   6.583
 4176TIP3    H212472   4.223   0.251   6.683
 4177TIP3   OH212473   0.080   3.366   3.712
 4177TIP3    H112474   0.170   3.369   3.743
 4177TIP3    H212475   0.037   3.303   3.770
 4178TIP3   OH212476   5.071   3.275   4.550
 4178TIP3    H112477   5.141   3.235   4.601
 4178TIP3    H212478   5.000   3.211   4.552
 4179TIP3   OH212479   1.897   5.475   3.016
 4179TIP3    H112480   1.979   5.429   2.999
 4179TIP3    H212481   1.907   5.508   3.105
 4180TIP3   OH212482   4.389   5.039   4.021
 4180TIP3    H112483   4.396   5.027   4.115
 4180TIP3    H212484   4.295   5.050   4.004
 4181TIP3   OH212485   4.709   4.634   0.472
 4181TIP3    H112486   4.727   4.680   0.390
 4181TIP3    H212487   4.645   4.567   0.449
 4182TIP3   OH212488   0.871   4.396   2.999
 4182TIP3    H112489   0.835   4.308   2.999
 4182TIP3    H212490   0.930   4.398   2.924
 4183TIP3   OH212491   7.044   7.646   6.485
 4183TIP3    H112492   7.092   7.688   6.556
 4183TIP3    H212493   7.072   7.693   6.406
 4184TIP3   OH212494   7.237   3.677   1.261
 4184TIP3    H112495   7.146   3.708   1.265
 4184TIP3    H212496   7.282   3.742   1.208
 4185TIP3   OH212497   2.360   1.550   4.897
 4185TIP3    H112498   2.354   1.498   4.817
 4185TIP3    H212499   2.372   1.486   4.967
 4186TIP3   OH212500   3.337   6.901   2.903
 4186TIP3    H112501   3.420   6.881   2.858
 4186TIP3    H212502   3.273   6.908   2.833
 4187TIP3   OH212503   8.149   5.667   3.246
 4187TIP3    H112504   8.097   5.743   3.271
 4187TIP3    H212505   8.219   5.663   3.311
 4188TIP3   OH212506   2.120   0.026   5.922
 4188TIP3    H112507   2.109   0.102   5.979
 4188TIP3    H212508   2.036  -0.019   5.927
 4189TIP3   OH212509   4.549   6.165   3.386
 4189TIP3    H112510   4.489   6.226   3.345
 4189TIP3    H212511   4.624   6.219   3.412
 4190TIP3   OH212512   5.178   7.715   6.094
 4190TIP3    H112513   5.117   7.643   6.114
 4190TIP3    H212514   5.239   7.678   6.030
 4191TIP3   OH212515   1.662   6.919   0.723
 4191TIP3    H112516   1.687   6.997   0.675
 4191TIP3    H212517   1.735   6.902   0.782
 4192TIP3   OH212518   2.049   0.434   0.345
 4192TIP3    H112519   2.102   0.453   0.268
 4192TIP3    H212520   2.003   0.353   0.323
 4193TIP3   OH212521   7.353   4.961   1.261
 4193TIP3    H112522   7.315   5.028   1.204
 4193TIP3    H212523   7.296   4.960   1.338
 4194TIP3   OH212524   6.782   5.443   2.156
 4194TIP3    H112525   6.705   5.491   2.186
 4194TIP3    H212526   6.849   5.510   2.146
 4195TIP3   OH212527   1.092   6.356   1.596
 4195TIP3    H112528   1.179   6.325   1.571
 4195TIP3    H212529   1.032   6.294   1.557
 4196TIP3   OH212530   3.451   4.389   1.510
 4196TIP3    H112531   3.498   4.465   1.475
 4196TIP3    H212532   3.364   4.424   1.533
 4197TIP3   OH212533   5.251   5.063   2.264
 4197TIP3    H112534   5.228   5.099   2.349
 4197TIP3    H212535   5.294   5.135   2.217
 4198TIP3   OH212536   0.329   7.654   0.847
 4198TIP3    H112537   0.306   7.687   0.760
 4198TIP3    H212538   0.340   7.560   0.835
 4199TIP3   OH212539   1.184   1.075   3.932
 4199TIP3    H112540   1.223   0.992   3.903
 4199TIP3    H212541   1.253   1.116   3.983
 4200TIP3   OH212542   6.023   1.609   4.336
 4200TIP3    H112543   6.012   1.700   4.363
 4200TIP3    H212544   5.965   1.560   4.394
 4201TIP3   OH212545   2.473   6.453   6.007
 4201TIP3    H112546   2.522   6.535   6.006
 4201TIP3    H212547   2.481   6.419   5.918
 4202TIP3   OH212548   7.838   2.665   3.346
 4202TIP3    H112549   7.831   2.626   3.434
 4202TIP3    H212550   7.889   2.601   3.296
 4203TIP3   OH212551   5.061   7.752   4.432
 4203TIP3    H112552   5.151   7.777   4.410
 4203TIP3    H212553   5.058   7.657   4.418
 4204TIP3   OH212554   7.610   2.188   4.445
 4204TIP3    H112555   7.630   2.156   4.357
 4204TIP3    H212556   7.579   2.277   4.432
 4205TIP3   OH212557   0.064   2.955   1.516
 4205TIP3    H112558   0.079   2.929   1.425
 4205TIP3    H212559  -0.010   3.015   1.511
 4206TIP3   OH212560   0.226   5.900   5.490
 4206TIP3    H112561   0.172   5.932   5.418
 4206TIP3    H212562   0.305   5.867   5.448
 4207TIP3   OH212563   0.835   4.154   6.136
 4207TIP3    H112564   0.822   4.204   6.055
 4207TIP3    H212565   0.911   4.194   6.177
 4208TIP3   OH212566   8.247   0.628   2.771
 4208TIP3    H112567   8.250   0.719   2.800
 4208TIP3    H212568   8.180   0.628   2.702
 4209TIP3   OH212569   5.139   5.435   5.483
 4209TIP3    H112570   5.141   5.524   5.517
 4209TIP3    H212571   5.047   5.410   5.484
 4210TIP3   OH212572   7.810   4.747   5.361
 4210TIP3    H112573   7.900   4.718   5.343
 4210TIP3    H212574   7.780   4.690   5.431
 4211TIP3   OH212575   6.918   6.919   4.552
 4211TIP3    H112576   6.844   6.961   4.508
 4211TIP3    H212577   6.984   6.911   4.483
 4212TIP3   OH212578   3.577   1.786   5.019
 4212TIP3    H112579   3.501   1.737   4.988
 4212TIP3    H212580   3.645   1.768   4.954
 4213TIP3   OH212581   6.625   4.332   2.853
 4213TIP3    H112582   6.600   4.325   2.761
 4213TIP3    H212583   6.563   4.275   2.900
 4214TIP3   OH212584   7.816   0.396   0.250
 4214TIP3    H112585   7.774   0.451   0.184
 4214TIP3    H212586   7.897   0.443   0.272
 4215TIP3   OH212587   3.244   0.946   4.223
 4215TIP3    H112588   3.282   0.963   4.310
 4215TIP3    H212589   3.283   0.863   4.197
 4216TIP3   OH212590   8.129   1.511   4.675
 4216TIP3    H112591   8.149   1.575   4.744
 4216TIP3    H212592   8.104   1.564   4.599
 4217TIP3   OH212593   2.175   1.616   5.205
 4217TIP3    H112594   2.267   1.612   5.231
 4217TIP3    H212595   2.128   1.572   5.276
 4218TIP3   OH212596   7.035   0.668   0.502
 4218TIP3    H112597   6.958   0.697   0.454
 4218TIP3    H212598   7.090   0.746   0.510
 4219TIP3   OH212599   1.673   0.322   6.226
 4219TIP3    H112600   1.670   0.402   6.172
 4219TIP3    H212601   1.616   0.342   6.300
 4220TIP3   OH212602   2.930   1.220   1.848
 4220TIP3    H112603   2.942   1.200   1.755
 4220TIP3    H212604   2.992   1.291   1.865
 4221TIP3   OH212605   0.737   4.523   4.711
 4221TIP3    H112606   0.687   4.544   4.632
 4221TIP3    H212607   0.723   4.598   4.769
 4222TIP3   OH212608   1.421   4.750   0.615
 4222TIP3    H112609   1.475   4.772   0.691
 4222TIP3    H212610   1.333   4.777   0.639
 4223TIP3   OH212611   1.341   0.061   3.859
 4223TIP3    H112612   1.298   0.007   3.792
 4223TIP3    H212613   1.428   0.023   3.868
 4224TIP3   OH212614   8.150   7.023   1.166
 4224TIP3    H112615   8.177   6.935   1.193
 4224TIP3    H212616   8.096   7.009   1.088
 4225TIP3   OH212617   1.040   5.807   4.757
 4225TIP3    H112618   0.992   5.725   4.772
 4225TIP3    H212619   1.117   5.800   4.813
 4226TIP3   OH212620   2.156   1.256   1.946
 4226TIP3    H112621   2.250   1.244   1.937
 4226TIP3    H212622   2.137   1.338   1.901
 4227TIP3   OH212623   5.092   1.138   0.330
 4227TIP3    H112624   5.052   1.192   0.262
 4227TIP3    H212625   5.048   1.165   0.411
 4228TIP3   OH212626   3.910   5.722   6.434
 4228TIP3    H112627   3.963   5.739   6.357
 4228TIP3    H212628   3.954   5.768   6.505
 4229TIP3   OH212629   3.070   6.916   1.540
 4229TIP3    H112630   3.156   6.898   1.576
 4229TIP3    H212631   3.070   6.874   1.454
 4230TIP3   OH212632   6.992   6.366   5.787
 4230TIP3    H112633   6.965   6.298   5.725
 4230TIP3    H212634   6.987   6.324   5.873
 4231TIP3   OH212635   1.448   6.942   6.049
 4231TIP3    H112636   1.487   6.975   5.968
 4231TIP3    H212637   1.356   6.926   6.026
 4232TIP3   OH212638   4.556   2.405   6.336
 4232TIP3    H112639   4.632   2.442   6.291
 4232TIP3    H212640   4.531   2.472   6.400
 4233TIP3   OH212641   4.087   0.978   2.039
 4233TIP3    H112642   4.038   1.057   2.061
 4233TIP3    H212643   4.097   0.982   1.944
 4234TIP3   OH212644   2.858   6.278   6.167
 4234TIP3    H112645   2.863   6.211   6.099
 4234TIP3    H212646   2.812   6.236   6.239
 4235TIP3   OH212647   6.390   6.217   2.777
 4235TIP3    H112648   6.324   6.184   2.716
 4235TIP3    H212649   6.406   6.144   2.837
 4236TIP3   OH212650   4.069   4.466   4.421
 4236TIP3    H112651   4.053   4.470   4.327
 4236TIP3    H212652   4.036   4.380   4.448
 4237TIP3   OH212653   0.126   4.139   1.889
 4237TIP3    H112654   0.142   4.198   1.816
 4237TIP3    H212655   0.091   4.195   1.958
 4238TIP3   OH212656   1.457   1.617   0.245
 4238TIP3    H112657   1.459   1.666   0.327
 4238TIP3    H212658   1.395   1.547   0.260
 4239TIP3   OH212659   5.024   5.737   0.770
 4239TIP3    H112660   5.032   5.762   0.861
 4239TIP3    H212661   5.097   5.781   0.726
 4240TIP3   OH212662   3.470   4.307   2.815
 4240TIP3    H112663   3.443   4.331   2.727
 4240TIP3    H212664   3.524   4.381   2.845
 4241TIP3   OH212665   1.794   6.892   3.839
 4241TIP3    H112666   1.793   6.867   3.747
 4241TIP3    H212667   1.862   6.960   3.845
 4242TIP3   OH212668   6.185   0.485   2.283
 4242TIP3    H112669   6.157   0.457   2.370
 4242TIP3    H212670   6.108   0.472   2.228
 4243TIP3   OH212671   5.264   6.534   4.162
 4243TIP3    H112672   5.250   6.519   4.256
 4243TIP3    H212673   5.216   6.615   4.144
 4244TIP3   OH212674   3.587   0.134   0.287
 4244TIP3    H112675   3.652   0.113   0.353
 4244TIP3    H212676   3.541   0.211   0.322
 4245TIP3   OH212677   3.095   0.477   4.784
 4245TIP3    H112678   3.038   0.487   4.861
 4245TIP3    H212679   3.128   0.565   4.767
 4246TIP3   OH212680   1.986   0.252   6.044
 4246TIP3    H112681   2.016   0.338   6.016
 4246TIP3    H212682   2.016   0.244   6.134
 4247TIP3   OH212683   2.572   1.983   4.863
 4247TIP3    H112684   2.627   1.909   4.837
 4247TIP3    H212685   2.553   2.029   4.782
 4248TIP3   OH212686   5.485   6.762   0.163
 4248TIP3    H112687   5.570   6.721   0.171
 4248TIP3    H212688   5.423   6.695   0.192
 4249TIP3   OH212689   5.419   1.213   0.156
 4249TIP3    H112690   5.458   1.241   0.239
 4249TIP3    H212691   5.494   1.195   0.100
 4250TIP3   OH212692   1.203   0.353   1.175
 4250TIP3    H112693   1.257   0.274   1.180
 4250TIP3    H212694   1.132   0.330   1.115
 4251TIP3   OH212695   7.447   4.808   0.036
 4251TIP3    H112696   7.457   4.779   0.127
 4251TIP3    H212697   7.364   4.770   0.007
 4252TIP3   OH212698   5.402   7.500   2.269
 4252TIP3    H112699   5.359   7.433   2.217
 4252TIP3    H212700   5.492   7.470   2.279
 4253TIP3   OH212701   5.575   7.008   3.111
 4253TIP3    H112702   5.598   6.987   3.202
 4253TIP3    H212703   5.642   7.071   3.083
 4254TIP3   OH212704   5.734   6.203   0.777
 4254TIP3    H112705   5.649   6.191   0.819
 4254TIP3    H212706   5.735   6.139   0.706
 4255TIP3   OH212707   6.964   7.181   3.998
 4255TIP3    H112708   6.941   7.260   3.949
 4255TIP3    H212709   6.924   7.194   4.084
 4256TIP3   OH212710   2.828   6.306   1.601
 4256TIP3    H112711   2.917   6.336   1.584
 4256TIP3    H212712   2.778   6.387   1.614
 4257TIP3   OH212713   0.453   5.567   1.262
 4257TIP3    H112714   0.403   5.649   1.255
 4257TIP3    H212715   0.540   5.595   1.290
 4258TIP3   OH212716   5.899   3.920   0.122
 4258TIP3    H112717   5.875   3.983   0.190
 4258TIP3    H212718   5.961   3.967   0.066
 4259TIP3   OH212719   1.091   4.493   6.627
 4259TIP3    H112720   1.134   4.412   6.599
 4259TIP3    H212721   1.136   4.562   6.578
 4260TIP3   OH212722   5.930   6.357   3.634
 4260TIP3    H112723   5.871   6.398   3.697
 4260TIP3    H212724   5.889   6.272   3.615
 4261TIP3   OH212725   0.679   5.686   3.041
 4261TIP3    H112726   0.685   5.609   3.097
 4261TIP3    H212727   0.751   5.743   3.071
 4262TIP3   OH212728   1.735   0.519   1.727
 4262TIP3    H112729   1.807   0.526   1.664
 4262TIP3    H212730   1.709   0.610   1.743
 4263TIP3   OH212731   7.743   3.621   6.491
 4263TIP3    H112732   7.677   3.635   6.423
 4263TIP3    H212733   7.693   3.591   6.567
 4264TIP3   OH212734   5.920   0.956   2.430
 4264TIP3    H112735   5.915   1.001   2.345
 4264TIP3    H212736   5.875   1.015   2.491
 4265TIP3   OH212737   5.111   6.662   1.056
 4265TIP3    H112738   5.086   6.587   1.110
 4265TIP3    H212739   5.172   6.627   0.992
 4266TIP3   OH212740   3.510   7.176   5.117
 4266TIP3    H112741   3.436   7.129   5.078
 4266TIP3    H212742   3.506   7.154   5.210
 4267TIP3   OH212743   3.264   0.962   0.426
 4267TIP3    H112744   3.231   1.041   0.383
 4267TIP3    H212745   3.195   0.897   0.413
 4268TIP3   OH212746   1.360   0.763   2.710
 4268TIP3    H112747   1.351   0.783   2.617
 4268TIP3    H212748   1.425   0.692   2.714
 4269TIP3   OH212749   2.982   0.484   5.703
 4269TIP3    H112750   3.073   0.510   5.697
 4269TIP3    H212751   2.941   0.551   5.757
 4270TIP3   OH212752   6.092   3.420   5.531
 4270TIP3    H112753   6.045   3.452   5.454
 4270TIP3    H212754   6.068   3.327   5.537
 4271TIP3   OH212755   7.220   4.941   0.317
 4271TIP3    H112756   7.263   5.022   0.290
 4271TIP3    H212757   7.289   4.888   0.357
 4272TIP3   OH212758   3.263   0.047   4.342
 4272TIP3    H112759   3.168   0.052   4.335
 4272TIP3    H212760   3.279  -0.030   4.397
 4273TIP3   OH212761   4.180   5.018   5.853
 4273TIP3    H112762   4.236   4.942   5.866
 4273TIP3    H212763   4.113   4.989   5.792
 4274TIP3   OH212764   0.442   7.256   3.057
 4274TIP3    H112765   0.422   7.190   2.991
 4274TIP3    H212766   0.537   7.249   3.069
 4275TIP3   OH212767   7.276   3.323   4.892
 4275TIP3    H112768   7.257   3.229   4.892
 4275TIP3    H212769   7.194   3.364   4.866
 4276TIP3   OH212770   0.545   6.900   6.296
 4276TIP3    H112771   0.634   6.898   6.332
 4276TIP3    H212772   0.501   6.969   6.346
 4277TIP3   OH212773   6.949   5.965   1.667
 4277TIP3    H112774   6.943   6.029   1.596
 4277TIP3    H212775   7.028   5.990   1.715
 4278TIP3   OH212776   5.641   2.529   6.539
 4278TIP3    H112777   5.670   2.619   6.529
 4278TIP3    H212778   5.550   2.536   6.570
 4279TIP3   OH212779   0.749   0.100   3.853
 4279TIP3    H112780   0.812   0.036   3.886
 4279TIP3    H212781   0.678   0.098   3.917
 4280TIP3   OH212782   0.222   3.460   1.861
 4280TIP3    H112783   0.295   3.466   1.799
 4280TIP3    H212784   0.175   3.381   1.835
 4281TIP3   OH212785   6.191   4.042   6.349
 4281TIP3    H112786   6.246   4.065   6.274
 4281TIP3    H212787   6.252   4.002   6.412
 4282TIP3   OH212788   4.881   5.289   1.507
 4282TIP3    H112789   4.798   5.274   1.551
 4282TIP3    H212790   4.891   5.215   1.447
 4283TIP3   OH212791   7.087   0.517   5.658
 4283TIP3    H112792   7.036   0.517   5.739
 4283TIP3    H212793   7.173   0.548   5.685
 4284TIP3   OH212794   4.335   2.811   0.748
 4284TIP3    H112795   4.420   2.769   0.739
 4284TIP3    H212796   4.301   2.780   0.832
 4285TIP3   OH212797   3.741   0.444   0.442
 4285TIP3    H112798   3.690   0.363   0.430
 4285TIP3    H212799   3.706   0.483   0.521
 4286TIP3   OH212800   7.281   7.384   6.389
 4286TIP3    H112801   7.220   7.417   6.323
 4286TIP3    H212802   7.324   7.463   6.423
 4287TIP3   OH212803   8.025   3.715   4.947
 4287TIP3    H112804   8.067   3.800   4.931
 4287TIP3    H212805   7.954   3.735   5.008
 4288TIP3   OH212806   2.389   0.113   5.843
 4288TIP3    H112807   2.295   0.102   5.857
 4288TIP3    H212808   2.409   0.050   5.773
 4289TIP3   OH212809   5.566   2.642   4.792
 4289TIP3    H112810   5.481   2.597   4.795
 4289TIP3    H212811   5.630   2.571   4.802
 4290TIP3   OH212812   5.236   1.013   1.270
 4290TIP3    H112813   5.320   1.049   1.242
 4290TIP3    H212814   5.258   0.959   1.346
 4291TIP3   OH212815   3.268   0.354   3.431
 4291TIP3    H112816   3.298   0.389   3.347
 4291TIP3    H212817   3.349   0.337   3.480
 4292TIP3   OH212818   2.936   0.983   2.410
 4292TIP3    H112819   2.995   0.908   2.418
 4292TIP3    H212820   2.971   1.033   2.336
 4293TIP3   OH212821   3.745   2.723   2.776
 4293TIP3    H112822   3.738   2.814   2.747
 4293TIP3    H212823   3.809   2.725   2.847
 4294TIP3   OH212824   4.508   4.575   2.576
 4294TIP3    H112825   4.591   4.623   2.567
 4294TIP3    H212826   4.494   4.570   2.670
 4295TIP3   OH212827   4.199   1.976   4.877
 4295TIP3    H112828   4.128   1.980   4.942
 4295TIP3    H212829   4.191   1.888   4.840
 4296TIP3   OH212830   0.953   1.582   6.331
 4296TIP3    H112831   0.958   1.506   6.388
 4296TIP3    H212832   0.943   1.656   6.391
 4297TIP3   OH212833   4.066   7.187   5.975
 4297TIP3    H112834   3.978   7.221   5.989
 4297TIP3    H212835   4.069   7.166   5.882
 4298TIP3   OH212836   0.965   4.857   6.052
 4298TIP3    H112837   0.885   4.905   6.029
 4298TIP3    H212838   1.026   4.926   6.080
 4299TIP3   OH212839   2.373   1.272   0.832
 4299TIP3    H112840   2.446   1.217   0.804
 4299TIP3    H212841   2.299   1.211   0.840
 4300TIP3   OH212842   4.438   4.155   5.751
 4300TIP3    H112843   4.357   4.106   5.742
 4300TIP3    H212844   4.433   4.223   5.684
 4301TIP3   OH212845   1.212   5.569   3.811
 4301TIP3    H112846   1.167   5.589   3.893
 4301TIP3    H212847   1.146   5.526   3.757
 4302TIP3   OH212848   6.465   1.555   1.370
 4302TIP3    H112849   6.398   1.566   1.437
 4302TIP3    H212850   6.441   1.473   1.326
 4303TIP3   OH212851   5.003   4.230   1.571
 4303TIP3    H112852   5.045   4.256   1.489
 4303TIP3    H212853   4.921   4.280   1.573
 4304TIP3   OH212854   5.410   6.600   5.978
 4304TIP3    H112855   5.319   6.612   5.952
 4304TIP3    H212856   5.409   6.523   6.036
 4305TIP3   OH212857   0.520   7.767   3.247
 4305TIP3    H112858   0.594   7.708   3.233
 4305TIP3    H212859   0.443   7.711   3.239
 4306TIP3   OH212860   5.601   1.437   5.870
 4306TIP3    H112861   5.558   1.396   5.795
 4306TIP3    H212862   5.550   1.516   5.887
 4307TIP3   OH212863   5.284   2.462   4.888
 4307TIP3    H112864   5.193   2.437   4.872
 4307TIP3    H212865   5.325   2.383   4.924
 4308TIP3   OH212866   7.308   5.442   2.760
 4308TIP3    H112867   7.326   5.452   2.854
 4308TIP3    H212868   7.361   5.509   2.718
 4309TIP3   OH212869   1.937   1.009   1.498
 4309TIP3    H112870   1.977   1.093   1.477
 4309TIP3    H212871   1.843   1.025   1.492
 4310TIP3   OH212872   6.981   0.973   5.633
 4310TIP3    H112873   7.022   1.052   5.667
 4310TIP3    H212874   6.891   0.999   5.612
 4311TIP3   OH212875   3.010   0.894   3.581
 4311TIP3    H112876   2.986   0.822   3.523
 4311TIP3    H212877   3.094   0.925   3.548
 4312TIP3   OH212878   6.325   3.632   4.987
 4312TIP3    H112879   6.401   3.574   4.982
 4312TIP3    H212880   6.343   3.689   5.063
 4313TIP3   OH212881   1.733   6.768   1.454
 4313TIP3    H112882   1.821   6.784   1.421
 4313TIP3    H212883   1.742   6.778   1.549
 4314TIP3   OH212884   0.025   4.156   6.485
 4314TIP3    H112885  -0.059   4.196   6.462
 4314TIP3    H212886   0.053   4.202   6.564
 4315TIP3   OH212887   4.443   6.094   6.264
 4315TIP3    H112888   4.536   6.086   6.285
 4315TIP3    H212889   4.433   6.185   6.237
 4316TIP3   OH212890   3.449   6.547   3.370
 4316TIP3    H112891   3.537   6.526   3.340
 4316TIP3    H212892   3.420   6.469   3.418
 4317TIP3   OH212893   5.082   3.840   1.413
 4317TIP3    H112894   5.117   3.895   1.343
 4317TIP3    H212895   4.995   3.814   1.383
 4318TIP3   OH212896   4.792   0.885   6.198
 4318TIP3    H112897   4.800   0.798   6.158
 4318TIP3    H212898   4.802   0.869   6.292
 4319TIP3   OH212899   0.508   1.663   5.689
 4319TIP3    H112900   0.571   1.709   5.745
 4319TIP3    H212901   0.438   1.726   5.674
 4320TIP3   OH212902   3.508   1.603   5.810
 4320TIP3    H112903   3.601   1.581   5.799
 4320TIP3    H212904   3.508   1.696   5.833
 4321TIP3   OH212905   4.317   1.875   3.809
 4321TIP3    H112906   4.383   1.908   3.748
 4321TIP3    H212907   4.353   1.894   3.896
 4322TIP3   OH212908   3.144   6.425   5.882
 4322TIP3    H112909   3.077   6.470   5.933
 4322TIP3    H212910   3.182   6.362   5.943
 4323TIP3   OH212911   7.149   0.276   5.464
 4323TIP3    H112912   7.112   0.356   5.500
 4323TIP3    H212913   7.223   0.256   5.522
 4324TIP3   OH212914   2.459   1.921   3.105
 4324TIP3    H112915   2.498   1.834   3.112
 4324TIP3    H212916   2.407   1.917   3.024
 4325TIP3   OH212917   1.309   6.015   5.667
 4325TIP3    H112918   1.367   6.082   5.703
 4325TIP3    H212919   1.311   6.029   5.572
 4326TIP3   OH212920   1.697   1.308   6.409
 4326TIP3    H112921   1.651   1.233   6.448
 4326TIP3    H212922   1.716   1.365   6.484
 4327TIP3   OH212923   1.252   7.160   1.460
 4327TIP3    H112924   1.226   7.083   1.510
 4327TIP3    H212925   1.267   7.126   1.371
 4328TIP3   OH212926   3.410   6.059   6.735
 4328TIP3    H112927   3.456   6.103   6.806
 4328TIP3    H212928   3.412   6.121   6.662
 4329TIP3   OH212929   6.408   3.098   2.457
 4329TIP3    H112930   6.332   3.060   2.413
 4329TIP3    H212931   6.415   3.050   2.539
 4330TIP3   OH212932   7.674   7.278   4.847
 4330TIP3    H112933   7.734   7.351   4.832
 4330TIP3    H212934   7.664   7.274   4.942
 4331TIP3   OH212935   5.016   4.246   0.385
 4331TIP3    H112936   5.090   4.237   0.444
 4331TIP3    H212937   4.964   4.318   0.421
 4332TIP3   OH212938   1.301   3.005   4.550
 4332TIP3    H112939   1.285   2.919   4.512
 4332TIP3    H212940   1.246   3.064   4.498
 4333TIP3   OH212941   3.070   6.861   2.324
 4333TIP3    H112942   3.011   6.812   2.381
 4333TIP3    H212943   3.107   6.929   2.380
 4334TIP3   OH212944   0.811   6.614   3.758
 4334TIP3    H112945   0.731   6.574   3.793
 4334TIP3    H212946   0.813   6.701   3.798
 4335TIP3   OH212947   6.940   4.725   5.426
 4335TIP3    H112948   6.913   4.800   5.478
 4335TIP3    H212949   6.864   4.706   5.370
 4336TIP3   OH212950   6.495   0.522   4.156
 4336TIP3    H112951   6.419   0.570   4.123
 4336TIP3    H212952   6.463   0.433   4.171
 4337TIP3   OH212953   3.326   4.938   2.866
 4337TIP3    H112954   3.337   4.843   2.867
 4337TIP3    H212955   3.359   4.967   2.951
 4338TIP3   OH212956   1.163   2.740   4.096
 4338TIP3    H112957   1.257   2.722   4.099
 4338TIP3    H212958   1.130   2.686   4.024
 4339TIP3   OH212959   0.717   2.187   1.502
 4339TIP3    H112960   0.756   2.196   1.589
 4339TIP3    H212961   0.632   2.231   1.509
 4340TIP3   OH212962   6.952   6.340   2.142
 4340TIP3    H112963   6.959   6.245   2.151
 4340TIP3    H212964   6.902   6.368   2.218
 4341TIP3   OH212965   1.452   7.420   6.599
 4341TIP3    H112966   1.514   7.385   6.535
 4341TIP3    H212967   1.394   7.347   6.619
 4342TIP3   OH212968   2.461   2.820   3.802
 4342TIP3    H112969   2.381   2.772   3.785
 4342TIP3    H212970   2.435   2.886   3.866
 4343TIP3   OH212971   6.601   2.968   4.208
 4343TIP3    H112972   6.547   2.983   4.130
 4343TIP3    H212973   6.600   2.874   4.221
 4344TIP3   OH212974   2.662   3.797   3.446
 4344TIP3    H112975   2.589   3.761   3.395
 4344TIP3    H212976   2.656   3.892   3.433
 4345TIP3   OH212977   2.452   7.425   4.102
 4345TIP3    H112978   2.535   7.380   4.085
 4345TIP3    H212979   2.444   7.426   4.198
 4346TIP3   OH212980   2.028   6.408   4.089
 4346TIP3    H112981   1.983   6.390   4.006
 4346TIP3    H212982   2.088   6.334   4.099
 4347TIP3   OH212983   7.567   3.438   5.241
 4347TIP3    H112984   7.623   3.401   5.309
 4347TIP3    H212985   7.616   3.513   5.207
 4348TIP3   OH212986   5.737   4.007   4.027
 4348TIP3    H112987   5.695   4.048   4.102
 4348TIP3    H212988   5.715   3.914   4.036
 4349TIP3   OH212989   1.652   4.383   0.523
 4349TIP3    H112990   1.659   4.322   0.449
 4349TIP3    H212991   1.626   4.329   0.597
 4350TIP3   OH212992   1.661   5.965   1.952
 4350TIP3    H112993   1.622   6.006   1.875
 4350TIP3    H212994   1.653   5.871   1.936
 4351TIP3   OH212995   5.795   7.158   3.051
 4351TIP3    H112996   5.824   7.183   2.964
 4351TIP3    H212997   5.768   7.240   3.093
 4352TIP3   OH212998   4.300   5.506   1.578
 4352TIP3    H112999   4.329   5.495   1.669
 4352TIP3    H213000   4.273   5.419   1.551
 4353TIP3   OH213001   6.526   5.244   0.763
 4353TIP3    H113002   6.579   5.236   0.842
 4353TIP3    H213003   6.437   5.258   0.795
 4354TIP3   OH213004   3.821   5.549   3.236
 4354TIP3    H113005   3.789   5.542   3.326
 4354TIP3    H213006   3.916   5.548   3.244
 4355TIP3   OH213007   4.245   4.734   4.716
 4355TIP3    H113008   4.175   4.787   4.753
 4355TIP3    H213009   4.314   4.797   4.696
 4356TIP3   OH213010   8.272   2.693   6.469
 4356TIP3    H113011   8.271   2.619   6.529
 4356TIP3    H213012   8.225   2.762   6.515
 4357TIP3   OH213013   6.123   7.157   4.907
 4357TIP3    H113014   6.211   7.177   4.939
 4357TIP3    H213015   6.106   7.223   4.840
 4358TIP3   OH213016   6.417   5.802   6.473
 4358TIP3    H113017   6.501   5.833   6.438
 4358TIP3    H213018   6.435   5.713   6.502
 4359TIP3   OH213019   4.183   6.896   6.690
 4359TIP3    H113020   4.206   6.973   6.742
 4359TIP3    H213021   4.163   6.931   6.603
 4360TIP3   OH213022   4.379   5.507   1.831
 4360TIP3    H113023   4.421   5.593   1.825
 4360TIP3    H213024   4.303   5.521   1.887
 4361TIP3   OH213025   2.942   3.073   2.137
 4361TIP3    H113026   2.849   3.054   2.126
 4361TIP3    H213027   2.981   2.991   2.166
 4362TIP3   OH213028   7.707   6.875   1.883
 4362TIP3    H113029   7.745   6.961   1.867
 4362TIP3    H213030   7.776   6.813   1.859
 4363TIP3   OH213031   2.223   2.771   5.231
 4363TIP3    H113032   2.273   2.772   5.150
 4363TIP3    H213033   2.279   2.815   5.295
 4364TIP3   OH213034   7.970   7.448   4.292
 4364TIP3    H113035   8.046   7.435   4.348
 4364TIP3    H213036   7.977   7.538   4.262
 4365TIP3   OH213037   3.208   1.873   4.596
 4365TIP3    H113038   3.150   1.797   4.592
 4365TIP3    H213039   3.251   1.875   4.510
 4366TIP3   OH213040   2.655   5.155   2.668
 4366TIP3    H113041   2.658   5.139   2.574
 4366TIP3    H213042   2.744   5.182   2.691
 4367TIP3   OH213043   4.432   5.056   6.049
 4367TIP3    H113044   4.475   5.025   6.129
 4367TIP3    H213045   4.407   4.976   6.003
 4368TIP3   OH213046   0.159   1.678   0.435
 4368TIP3    H113047   0.161   1.584   0.421
 4368TIP3    H213048   0.143   1.715   0.348
 4369TIP3   OH213049   0.140   6.788   3.478
 4369TIP3    H113050   0.235   6.784   3.465
 4369TIP3    H213051   0.105   6.714   3.428
 4370TIP3   OH213052   0.229   7.656   2.230
 4370TIP3    H113053   0.254   7.621   2.315
 4370TIP3    H213054   0.262   7.746   2.230
 4371TIP3   OH213055   1.576   2.902   4.882
 4371TIP3    H113056   1.640   2.954   4.930
 4371TIP3    H213057   1.520   2.864   4.950
 4372TIP3   OH213058   3.623   4.838   6.348
 4372TIP3    H113059   3.630   4.932   6.366
 4372TIP3    H213060   3.706   4.802   6.378
 4373TIP3   OH213061   8.132   5.914   6.016
 4373TIP3    H113062   8.067   5.984   6.001
 4373TIP3    H213063   8.084   5.833   6.000
 4374TIP3   OH213064   1.058   4.441   5.373
 4374TIP3    H113065   1.115   4.455   5.298
 4374TIP3    H213066   0.978   4.489   5.353
 4375TIP3   OH213067   5.003   5.883   6.010
 4375TIP3    H113068   5.018   5.800   5.964
 4375TIP3    H213069   4.951   5.935   5.948
 4376TIP3   OH213070   4.580   5.385   4.310
 4376TIP3    H113071   4.621   5.423   4.388
 4376TIP3    H213072   4.517   5.322   4.344
 4377TIP3   OH213073   6.123   4.508   1.513
 4377TIP3    H113074   6.148   4.580   1.454
 4377TIP3    H213075   6.194   4.444   1.505
 4378TIP3   OH213076   6.927   2.306   0.622
 4378TIP3    H113077   6.891   2.394   0.612
 4378TIP3    H213078   6.890   2.256   0.549
 4379TIP3   OH213079   5.777   1.358   4.976
 4379TIP3    H113080   5.759   1.379   5.068
 4379TIP3    H213081   5.868   1.330   4.975
 4380TIP3   OH213082   4.911   2.102   6.498
 4380TIP3    H113083   4.821   2.134   6.492
 4380TIP3    H213084   4.918   2.037   6.428
 4381TIP3   OH213085   4.643   5.176   3.940
 4381TIP3    H113086   4.568   5.117   3.929
 4381TIP3    H213087   4.714   5.120   3.971
 4382TIP3   OH213088   6.121   4.072   1.039
 4382TIP3    H113089   6.092   4.151   1.085
 4382TIP3    H213090   6.041   4.038   0.998
 4383TIP3   OH213091   8.207   2.927   5.718
 4383TIP3    H113092   8.277   2.930   5.654
 4383TIP3    H213093   8.218   3.007   5.770
 4384TIP3   OH213094   4.771   0.158   0.283
 4384TIP3    H113095   4.787   0.100   0.208
 4384TIP3    H213096   4.743   0.099   0.353
 4385TIP3   OH213097   1.306   5.724   2.129
 4385TIP3    H113098   1.372   5.658   2.147
 4385TIP3    H213099   1.356   5.805   2.116
 4386TIP3   OH213100   8.053   0.450   1.374
 4386TIP3    H113101   8.054   0.414   1.285
 4386TIP3    H213102   8.117   0.522   1.372
 4387TIP3   OH213103   6.688   3.559   1.389
 4387TIP3    H113104   6.779   3.552   1.359
 4387TIP3    H213105   6.649   3.475   1.365
 4388TIP3   OH213106   6.753   2.100   2.660
 4388TIP3    H113107   6.733   2.147   2.579
 4388TIP3    H213108   6.668   2.085   2.701
 4389TIP3   OH213109   6.162   4.092   3.600
 4389TIP3    H113110   6.228   4.161   3.588
 4389TIP3    H213111   6.142   4.095   3.694
 4390TIP3   OH213112   7.055   7.418   6.122
 4390TIP3    H113113   7.027   7.508   6.136
 4390TIP3    H213114   6.987   7.365   6.164
 4391TIP3   OH213115   1.823   7.174   2.764
 4391TIP3    H113116   1.817   7.090   2.718
 4391TIP3    H213117   1.787   7.238   2.702
 4392TIP3   OH213118   6.787   5.651   5.713
 4392TIP3    H113119   6.756   5.564   5.689
 4392TIP3    H213120   6.714   5.690   5.761
 4393TIP3   OH213121   5.655   5.412   3.081
 4393TIP3    H113122   5.648   5.346   3.150
 4393TIP3    H213123   5.737   5.457   3.100
 4394TIP3   OH213124   0.280   1.465   4.702
 4394TIP3    H113125   0.369   1.431   4.707
 4394TIP3    H213126   0.278   1.518   4.622
 4395TIP3   OH213127   6.682   3.568   0.967
 4395TIP3    H113128   6.642   3.654   0.978
 4395TIP3    H213129   6.759   3.584   0.912
 4396TIP3   OH213130   1.536   3.210   5.713
 4396TIP3    H113131   1.612   3.241   5.665
 4396TIP3    H213132   1.469   3.276   5.698
 4397TIP3   OH213133   2.811   1.995   1.838
 4397TIP3    H113134   2.756   1.979   1.762
 4397TIP3    H213135   2.751   1.994   1.913
 4398TIP3   OH213136   5.975   7.671   1.589
 4398TIP3    H113137   6.049   7.661   1.649
 4398TIP3    H213138   5.947   7.581   1.570
 4399TIP3   OH213139   2.884   7.691   2.592
 4399TIP3    H113140   2.911   7.782   2.578
 4399TIP3    H213141   2.805   7.697   2.645
 4400TIP3   OH213142   4.537   0.356   6.401
 4400TIP3    H113143   4.605   0.291   6.383
 4400TIP3    H213144   4.546   0.374   6.495
 4401TIP3   OH213145   5.117   1.874   2.568
 4401TIP3    H113146   5.055   1.860   2.639
 4401TIP3    H213147   5.150   1.963   2.582
 4402TIP3   OH213148   7.154   5.401   2.202
 4402TIP3    H113149   7.129   5.480   2.250
 4402TIP3    H213150   7.186   5.341   2.269
 4403TIP3   OH213151   4.878   5.754   5.062
 4403TIP3    H113152   4.830   5.673   5.046
 4403TIP3    H213153   4.952   5.751   5.001
 4404TIP3   OH213154   2.259   3.536   5.468
 4404TIP3    H113155   2.287   3.577   5.386
 4404TIP3    H213156   2.329   3.474   5.489
 4405TIP3   OH213157   4.872   3.683   0.680
 4405TIP3    H113158   4.849   3.611   0.622
 4405TIP3    H213159   4.795   3.740   0.679
 4406TIP3   OH213160   1.177   3.599   0.259
 4406TIP3    H113161   1.241   3.663   0.228
 4406TIP3    H213162   1.120   3.648   0.318
 4407TIP3   OH213163   7.641   6.827   6.393
 4407TIP3    H113164   7.736   6.837   6.399
 4407TIP3    H213165   7.606   6.915   6.402
 4408TIP3   OH213166   5.788   3.853   4.963
 4408TIP3    H113167   5.717   3.900   4.920
 4408TIP3    H213168   5.810   3.782   4.901
 4409TIP3   OH213169   5.881   1.323   6.278
 4409TIP3    H113170   5.862   1.342   6.370
 4409TIP3    H213171   5.853   1.232   6.266
 4410TIP3   OH213172   5.652   0.922   1.395
 4410TIP3    H113173   5.715   0.994   1.393
 4410TIP3    H213174   5.633   0.909   1.488
 4411TIP3   OH213175   6.421   3.465   4.561
 4411TIP3    H113176   6.405   3.396   4.496
 4411TIP3    H213177   6.516   3.471   4.567
 4412TIP3   OH213178   5.389   3.122   6.177
 4412TIP3    H113179   5.418   3.040   6.137
 4412TIP3    H213180   5.463   3.182   6.164
 4413TIP3   OH213181   0.119   0.509   5.358
 4413TIP3    H113182   0.030   0.544   5.357
 4413TIP3    H213183   0.156   0.540   5.441
 4414TIP3   OH213184   1.070   2.071   3.780
 4414TIP3    H113185   1.001   2.120   3.735
 4414TIP3    H213186   1.136   2.137   3.802
 4415TIP3   OH213187   1.202   1.195   3.054
 4415TIP3    H113188   1.236   1.151   2.976
 4415TIP3    H213189   1.220   1.135   3.126
 4416TIP3   OH213190   2.933   6.723   1.758
 4416TIP3    H113191   3.007   6.784   1.756
 4416TIP3    H213192   2.942   6.672   1.677
 4417TIP3   OH213193   4.990   0.131   5.481
 4417TIP3    H113194   4.961   0.158   5.394
 4417TIP3    H213195   4.951   0.045   5.494
 4418TIP3   OH213196   3.189   2.638   5.089
 4418TIP3    H113197   3.275   2.677   5.104
 4418TIP3    H213198   3.205   2.544   5.089
 4419TIP3   OH213199   1.931   5.552   2.101
 4419TIP3    H113200   1.946   5.587   2.013
 4419TIP3    H213201   1.865   5.485   2.090
 4420TIP3   OH213202   1.831   5.373   4.206
 4420TIP3    H113203   1.803   5.282   4.215
 4420TIP3    H213204   1.914   5.378   4.253
 4421TIP3   OH213205   3.532   2.470   2.891
 4421TIP3    H113206   3.522   2.565   2.900
 4421TIP3    H213207   3.453   2.433   2.931
 4422TIP3   OH213208   5.056   1.623   2.488
 4422TIP3    H113209   4.974   1.633   2.536
 4422TIP3    H213210   5.107   1.701   2.510
 4423TIP3   OH213211   1.165   5.221   1.078
 4423TIP3    H113212   1.194   5.258   0.994
 4423TIP3    H213213   1.072   5.200   1.064
 4424TIP3   OH213214   7.908   2.189   5.024
 4424TIP3    H113215   7.878   2.144   4.945
 4424TIP3    H213216   7.982   2.137   5.054
 4425TIP3   OH213217   1.406   2.984   5.683
 4425TIP3    H113218   1.344   3.054   5.660
 4425TIP3    H213219   1.492   3.025   5.677
 4426TIP3   OH213220   5.520   6.945   1.596
 4426TIP3    H113221   5.453   6.891   1.552
 4426TIP3    H213222   5.560   6.995   1.525
 4427TIP3   OH213223   1.859   0.403   2.290
 4427TIP3    H113224   1.783   0.425   2.235
 4427TIP3    H213225   1.875   0.482   2.340
 4428TIP3   OH213226   5.948   6.949   1.813
 4428TIP3    H113227   5.983   7.035   1.832
 4428TIP3    H213228   6.025   6.892   1.809
 4429TIP3   OH213229   0.263   1.260   5.172
 4429TIP3    H113230   0.316   1.195   5.217
 4429TIP3    H213231   0.192   1.280   5.234
 4430TIP3   OH213232   2.179   1.630   3.497
 4430TIP3    H113233   2.117   1.658   3.564
 4430TIP3    H213234   2.179   1.701   3.433
 4431TIP3   OH213235   5.493   2.136   1.875
 4431TIP3    H113236   5.481   2.106   1.965
 4431TIP3    H213237   5.585   2.115   1.856
 4432TIP3   OH213238   8.019   1.031   5.648
 4432TIP3    H113239   8.068   1.075   5.718
 4432TIP3    H213240   7.972   0.960   5.692
 4433TIP3   OH213241   5.136   6.684   0.504
 4433TIP3    H113242   5.137   6.619   0.433
 4433TIP3    H213243   5.212   6.662   0.557
 4434TIP3   OH213244   2.870   1.718   0.288
 4434TIP3    H113245   2.815   1.661   0.235
 4434TIP3    H213246   2.846   1.807   0.262
 4435TIP3   OH213247   3.648   7.713   5.120
 4435TIP3    H113248   3.706   7.731   5.047
 4435TIP3    H213249   3.570   7.673   5.080
 4436TIP3   OH213250   3.829   1.919   3.750
 4436TIP3    H113251   3.813   1.940   3.658
 4436TIP3    H213252   3.921   1.941   3.764
 4437TIP3   OH213253   5.461   7.541   3.035
 4437TIP3    H113254   5.489   7.554   2.944
 4437TIP3    H213255   5.405   7.616   3.053
 4438TIP3   OH213256   3.948   4.543   0.350
 4438TIP3    H113257   3.914   4.476   0.410
 4438TIP3    H213258   3.955   4.498   0.266
 4439TIP3   OH213259   7.796   1.221   1.485
 4439TIP3    H113260   7.784   1.155   1.417
 4439TIP3    H213261   7.708   1.247   1.510
 4440TIP3   OH213262   1.984   1.591   0.639
 4440TIP3    H113263   2.059   1.648   0.625
 4440TIP3    H213264   2.023   1.506   0.659
 4441TIP3   OH213265   1.327   1.358   0.042
 4441TIP3    H113266   1.381   1.371   0.119
 4441TIP3    H213267   1.278   1.440   0.032
 4442TIP3   OH213268   3.047   2.505   5.478
 4442TIP3    H113269   3.013   2.572   5.419
 4442TIP3    H213270   3.102   2.450   5.424
 4443TIP3   OH213271   6.904   1.372   1.704
 4443TIP3    H113272   6.998   1.381   1.687
 4443TIP3    H213273   6.890   1.277   1.705
 4444TIP3   OH213274   1.250   0.063   3.066
 4444TIP3    H113275   1.315   0.123   3.032
 4444TIP3    H213276   1.298   0.009   3.129
 4445TIP3   OH213277   1.508   5.516   0.133
 4445TIP3    H113278   1.430   5.464   0.154
 4445TIP3    H213279   1.507   5.522   0.038
 4446TIP3   OH213280   0.279   1.490   5.886
 4446TIP3    H113281   0.370   1.466   5.868
 4446TIP3    H213282   0.232   1.467   5.805
 4447TIP3   OH213283   5.347   1.089   5.558
 4447TIP3    H113284   5.372   1.013   5.504
 4447TIP3    H213285   5.324   1.051   5.643
 4448TIP3   OH213286   1.237   1.088   5.225
 4448TIP3    H113287   1.278   1.001   5.229
 4448TIP3    H213288   1.144   1.069   5.212
 4449TIP3   OH213289   1.442   0.465   6.468
 4449TIP3    H113290   1.478   0.547   6.501
 4449TIP3    H213291   1.408   0.488   6.381
 4450TIP3   OH213292   7.138   7.587   0.194
 4450TIP3    H113293   7.043   7.573   0.199
 4450TIP3    H213294   7.174   7.528   0.259
 4451TIP3   OH213295   4.918   2.184   4.618
 4451TIP3    H113296   4.851   2.137   4.667
 4451TIP3    H213297   4.958   2.118   4.562
 4452TIP3   OH213298   5.039   1.804   3.281
 4452TIP3    H113299   5.046   1.830   3.373
 4452TIP3    H213300   4.948   1.821   3.258
 4453TIP3   OH213301   6.346   5.492   2.556
 4453TIP3    H113302   6.300   5.569   2.587
 4453TIP3    H213303   6.309   5.474   2.470
 4454TIP3   OH213304   1.062   6.036   4.591
 4454TIP3    H113305   1.080   6.098   4.662
 4454TIP3    H213306   1.056   5.951   4.635
 4455TIP3   OH213307   8.129   2.870   3.147
 4455TIP3    H113308   8.139   2.811   3.072
 4455TIP3    H213309   8.180   2.947   3.124
 4456TIP3   OH213310   4.558   6.153   4.381
 4456TIP3    H113311   4.622   6.218   4.353
 4456TIP3    H213312   4.600   6.069   4.364
 4457TIP3   OH213313   7.210   2.082   6.102
 4457TIP3    H113314   7.274   2.096   6.032
 4457TIP3    H213315   7.136   2.137   6.078
 4458TIP3   OH213316   2.411   2.822   5.419
 4458TIP3    H113317   2.504   2.838   5.437
 4458TIP3    H213318   2.370   2.821   5.506
 4459TIP3   OH213319   6.651   2.467   5.166
 4459TIP3    H113320   6.696   2.499   5.244
 4459TIP3    H213321   6.715   2.411   5.122
 4460TIP3   OH213322   2.163   4.660   5.622
 4460TIP3    H113323   2.165   4.703   5.708
 4460TIP3    H213324   2.141   4.730   5.561
 4461TIP3   OH213325   2.941   3.460   1.396
 4461TIP3    H113326   2.954   3.508   1.478
 4461TIP3    H213327   2.958   3.525   1.327
 4462TIP3   OH213328   3.199   1.329   5.815
 4462TIP3    H113329   3.184   1.247   5.863
 4462TIP3    H213330   3.246   1.385   5.876
 4463TIP3   OH213331   5.932   7.172   1.208
 4463TIP3    H113332   5.978   7.249   1.176
 4463TIP3    H213333   5.863   7.156   1.143
 4464TIP3   OH213334   5.839   5.788   3.527
 4464TIP3    H113335   5.855   5.875   3.492
 4464TIP3    H213336   5.865   5.729   3.456
 4465TIP3   OH213337   0.832   4.050   2.472
 4465TIP3    H113338   0.866   3.979   2.417
 4465TIP3    H213339   0.756   4.083   2.425
 4466TIP3   OH213340   2.738   4.912   1.520
 4466TIP3    H113341   2.744   4.885   1.428
 4466TIP3    H213342   2.827   4.906   1.553
 4467TIP3   OH213343   5.278   5.056   5.427
 4467TIP3    H113344   5.194   5.034   5.468
 4467TIP3    H213345   5.290   5.149   5.444
 4468TIP3   OH213346   6.629   1.809   4.280
 4468TIP3    H113347   6.597   1.874   4.343
 4468TIP3    H213348   6.598   1.841   4.196
 4469TIP3   OH213349   6.565   5.347   5.400
 4469TIP3    H113350   6.613   5.268   5.426
 4469TIP3    H213351   6.630   5.417   5.406
 4470TIP3   OH213352   5.249   2.235   5.302
 4470TIP3    H113353   5.178   2.299   5.309
 4470TIP3    H213354   5.232   2.172   5.371
 4471TIP3   OH213355   3.594   4.761   4.083
 4471TIP3    H113356   3.635   4.820   4.146
 4471TIP3    H213357   3.643   4.679   4.092
 4472TIP3   OH213358   5.811   0.380   5.399
 4472TIP3    H113359   5.756   0.307   5.369
 4472TIP3    H213360   5.776   0.456   5.354
 4473TIP3   OH213361   6.932   2.376   1.122
 4473TIP3    H113362   6.905   2.445   1.060
 4473TIP3    H213363   6.851   2.354   1.169
 4474TIP3   OH213364   7.621   7.025   2.909
 4474TIP3    H113365   7.673   7.037   2.989
 4474TIP3    H213366   7.592   6.934   2.913
 4475TIP3   OH213367   4.802   3.575   5.041
 4475TIP3    H113368   4.794   3.567   5.136
 4475TIP3    H213369   4.713   3.593   5.011
 4476TIP3   OH213370   7.564   3.710   0.302
 4476TIP3    H113371   7.536   3.705   0.211
 4476TIP3    H213372   7.586   3.620   0.325
 4477TIP3   OH213373   0.955   0.071   3.540
 4477TIP3    H113374   0.873   0.112   3.513
 4477TIP3    H213375   1.014   0.086   3.466
 4478TIP3   OH213376   8.339   1.422   1.220
 4478TIP3    H113377   8.278   1.351   1.240
 4478TIP3    H213378   8.288   1.482   1.165
 4479TIP3   OH213379   3.253   3.762   0.697
 4479TIP3    H113380   3.275   3.853   0.715
 4479TIP3    H213381   3.159   3.763   0.677
 4480TIP3   OH213382   2.769   2.484   3.902
 4480TIP3    H113383   2.713   2.548   3.857
 4480TIP3    H213384   2.804   2.430   3.831
 4481TIP3   OH213385   6.395   2.392   1.506
 4481TIP3    H113386   6.406   2.301   1.532
 4481TIP3    H213387   6.455   2.441   1.562
 4482TIP3   OH213388   1.469   4.857   0.309
 4482TIP3    H113389   1.398   4.870   0.246
 4482TIP3    H213390   1.452   4.770   0.346
 4483TIP3   OH213391   4.280   1.993   2.571
 4483TIP3    H113392   4.259   2.061   2.506
 4483TIP3    H213393   4.339   1.934   2.524
 4484TIP3   OH213394   6.213   2.319   2.827
 4484TIP3    H113395   6.248   2.321   2.916
 4484TIP3    H213396   6.128   2.362   2.833
 4485TIP3   OH213397   3.631   5.155   4.286
 4485TIP3    H113398   3.718   5.127   4.257
 4485TIP3    H213399   3.604   5.089   4.349
 4486TIP3   OH213400   1.158   3.914   6.553
 4486TIP3    H113401   1.071   3.878   6.534
 4486TIP3    H213402   1.177   3.886   6.642
 4487TIP3   OH213403   7.743   5.644   5.021
 4487TIP3    H113404   7.830   5.610   5.043
 4487TIP3    H213405   7.730   5.717   5.082
 4488TIP3   OH213406   2.664   7.022   4.012
 4488TIP3    H113407   2.597   6.965   4.050
 4488TIP3    H213408   2.632   7.040   3.923
 4489TIP3   OH213409   5.236   7.365   1.750
 4489TIP3    H113410   5.241   7.441   1.692
 4489TIP3    H213411   5.226   7.403   1.838
 4490TIP3   OH213412   0.396   4.334   4.641
 4490TIP3    H113413   0.313   4.286   4.638
 4490TIP3    H213414   0.463   4.266   4.631
 4491TIP3   OH213415   8.114   0.440   2.940
 4491TIP3    H113416   8.171   0.483   2.877
 4491TIP3    H213417   8.025   0.451   2.905
 4492TIP3   OH213418   1.411   5.977   6.010
 4492TIP3    H113419   1.343   6.043   5.999
 4492TIP3    H213420   1.436   5.983   6.103
 4493TIP3   OH213421   7.092   2.576   3.926
 4493TIP3    H113422   7.113   2.501   3.982
 4493TIP3    H213423   7.104   2.543   3.837
 4494TIP3   OH213424   5.472   1.181   2.993
 4494TIP3    H113425   5.427   1.189   3.077
 4494TIP3    H213426   5.514   1.266   2.981
 4495TIP3   OH213427   0.284   6.492   2.459
 4495TIP3    H113428   0.375   6.509   2.438
 4495TIP3    H213429   0.263   6.411   2.413
 4496TIP3   OH213430   0.323   2.669   3.163
 4496TIP3    H113431   0.403   2.663   3.112
 4496TIP3    H213432   0.256   2.694   3.099
 4497TIP3   OH213433   5.523   2.422   0.988
 4497TIP3    H113434   5.599   2.456   1.035
 4497TIP3    H213435   5.493   2.495   0.934
 4498TIP3   OH213436   2.953   4.413   2.527
 4498TIP3    H113437   2.882   4.388   2.585
 4498TIP3    H213438   2.980   4.500   2.557
 4499TIP3   OH213439   1.503   2.498   5.576
 4499TIP3    H113440   1.501   2.408   5.609
 4499TIP3    H213441   1.558   2.494   5.498
 4500TIP3   OH213442   8.065   6.678   3.507
 4500TIP3    H113443   8.117   6.607   3.545
 4500TIP3    H213444   8.060   6.744   3.576
 4501TIP3   OH213445   6.661   6.746   4.440
 4501TIP3    H113446   6.639   6.804   4.512
 4501TIP3    H213447   6.604   6.774   4.368
 4502TIP3   OH213448   2.227   3.913   0.554
 4502TIP3    H113449   2.319   3.896   0.532
 4502TIP3    H213450   2.197   3.832   0.594
 4503TIP3   OH213451   2.963   3.768   5.596
 4503TIP3    H113452   2.930   3.858   5.594
 4503TIP3    H213453   2.946   3.738   5.685
 4504TIP3   OH213454   0.419   1.851   0.689
 4504TIP3    H113455   0.480   1.859   0.763
 4504TIP3    H213456   0.473   1.867   0.612
 4505TIP3   OH213457   0.304   4.931   1.266
 4505TIP3    H113458   0.260   4.847   1.280
 4505TIP3    H213459   0.397   4.911   1.272
 4506TIP3   OH213460   5.989   4.337   3.222
 4506TIP3    H113461   6.054   4.394   3.265
 4506TIP3    H213462   6.034   4.254   3.211
 4507TIP3   OH213463   6.211   3.279   6.249
 4507TIP3    H113464   6.121   3.307   6.265
 4507TIP3    H213465   6.215   3.191   6.285
 4508TIP3   OH213466   7.756   1.127   6.146
 4508TIP3    H113467   7.724   1.043   6.178
 4508TIP3    H213468   7.697   1.192   6.184
 4509TIP3   OH213469   7.509   2.386   4.021
 4509TIP3    H113470   7.540   2.377   3.931
 4509TIP3    H213471   7.570   2.449   4.061
 4510TIP3   OH213472   0.453   7.191   0.464
 4510TIP3    H113473   0.543   7.222   0.457
 4510TIP3    H213474   0.419   7.197   0.374
 4511TIP3   OH213475   5.824   5.865   1.249
 4511TIP3    H113476   5.774   5.863   1.167
 4511TIP3    H213477   5.867   5.951   1.249
 4512TIP3   OH213478   1.929   3.491   2.012
 4512TIP3    H113479   1.926   3.403   1.974
 4512TIP3    H213480   1.916   3.476   2.106
 4513TIP3   OH213481   8.097   4.805   1.827
 4513TIP3    H113482   8.083   4.809   1.732
 4513TIP3    H213483   8.044   4.876   1.862
 4514TIP3   OH213484   0.887   0.393   1.490
 4514TIP3    H113485   0.899   0.405   1.584
 4514TIP3    H213486   0.964   0.433   1.450
 4515TIP3   OH213487   3.841   4.100   4.886
 4515TIP3    H113488   3.899   4.156   4.938
 4515TIP3    H213489   3.900   4.034   4.849
 4516TIP3   OH213490   6.518   0.506   4.652
 4516TIP3    H113491   6.531   0.461   4.569
 4516TIP3    H213492   6.476   0.589   4.628
 4517TIP3   OH213493   1.238   0.447   3.856
 4517TIP3    H113494   1.275   0.529   3.824
 4517TIP3    H213495   1.268   0.380   3.794
 4518TIP3   OH213496   7.606   1.691   4.434
 4518TIP3    H113497   7.593   1.761   4.499
 4518TIP3    H213498   7.666   1.630   4.477
 4519TIP3   OH213499   5.127   2.495   1.161
 4519TIP3    H113500   5.193   2.548   1.116
 4519TIP3    H213501   5.100   2.430   1.095
 4520TIP3   OH213502   5.855   5.661   0.734
 4520TIP3    H113503   5.866   5.756   0.727
 4520TIP3    H213504   5.944   5.626   0.724
 4521TIP3   OH213505   7.539   4.149   5.930
 4521TIP3    H113506   7.537   4.211   5.858
 4521TIP3    H213507   7.484   4.076   5.900
 4522TIP3   OH213508   2.384   7.125   4.873
 4522TIP3    H113509   2.455   7.183   4.901
 4522TIP3    H213510   2.426   7.040   4.858
 4523TIP3   OH213511   5.916   7.719   1.244
 4523TIP3    H113512   5.956   7.707   1.158
 4523TIP3    H213513   5.874   7.804   1.239
 4524TIP3   OH213514   0.354   0.913   5.259
 4524TIP3    H113515   0.329   0.863   5.337
 4524TIP3    H213516   0.356   1.004   5.289
 4525TIP3   OH213517   4.453   5.730   2.568
 4525TIP3    H113518   4.504   5.780   2.631
 4525TIP3    H213519   4.437   5.791   2.496
 4526TIP3   OH213520   2.213   6.649   1.692
 4526TIP3    H113521   2.197   6.565   1.735
 4526TIP3    H213522   2.127   6.692   1.692
 4527TIP3   OH213523   6.666   5.773   0.587
 4527TIP3    H113524   6.632   5.845   0.639
 4527TIP3    H213525   6.750   5.804   0.553
 4528TIP3   OH213526   6.483   0.339   4.858
 4528TIP3    H113527   6.393   0.308   4.850
 4528TIP3    H213528   6.495   0.397   4.783
 4529TIP3   OH213529   2.636   2.849   4.148
 4529TIP3    H113530   2.664   2.758   4.141
 4529TIP3    H213531   2.546   2.850   4.117
 4530TIP3   OH213532   4.716   0.175   2.301
 4530TIP3    H113533   4.620   0.168   2.300
 4530TIP3    H213534   4.735   0.239   2.369
 4531TIP3   OH213535   2.184   4.802   4.200
 4531TIP3    H113536   2.269   4.774   4.235
 4531TIP3    H213537   2.120   4.773   4.266
 4532TIP3   OH213538   5.037   6.466   1.244
 4532TIP3    H113539   4.946   6.475   1.273
 4532TIP3    H213540   5.086   6.452   1.325
 4533TIP3   OH213541   7.753   0.081   4.113
 4533TIP3    H113542   7.727  -0.011   4.102
 4533TIP3    H213543   7.839   0.086   4.073
 4534TIP3   OH213544   6.856   6.729   2.281
 4534TIP3    H113545   6.883   6.676   2.356
 4534TIP3    H213546   6.891   6.682   2.205
 4535TIP3   OH213547   5.994   2.564   0.568
 4535TIP3    H113548   6.083   2.535   0.546
 4535TIP3    H213549   5.983   2.539   0.660
 4536TIP3   OH213550   6.615   6.485   3.177
 4536TIP3    H113551   6.649   6.506   3.090
 4536TIP3    H213552   6.543   6.547   3.190
 4537TIP3   OH213553   3.599   2.971   5.627
 4537TIP3    H113554   3.630   3.051   5.669
 4537TIP3    H213555   3.595   2.907   5.697
 4538TIP3   OH213556   1.256   3.054   5.950
 4538TIP3    H113557   1.319   3.058   5.878
 4538TIP3    H213558   1.306   3.079   6.027
 4539TIP3   OH213559   7.271   5.704   3.340
 4539TIP3    H113560   7.277   5.763   3.415
 4539TIP3    H213561   7.361   5.700   3.306
 4540TIP3   OH213562   4.977   5.212   2.627
 4540TIP3    H113563   5.042   5.192   2.694
 4540TIP3    H213564   4.894   5.213   2.674
 4541TIP3   OH213565   2.410   6.719   0.475
 4541TIP3    H113566   2.327   6.672   0.484
 4541TIP3    H213567   2.434   6.744   0.565
 4542TIP3   OH213568   4.596   2.077   4.522
 4542TIP3    H113569   4.611   2.089   4.616
 4542TIP3    H213570   4.637   2.154   4.482
 4543TIP3   OH213571   0.613   6.708   0.133
 4543TIP3    H113572   0.589   6.615   0.128
 4543TIP3    H213573   0.557   6.743   0.202
 4544TIP3   OH213574   4.935   1.788   3.879
 4544TIP3    H113575   4.854   1.806   3.926
 4544TIP3    H213576   5.004   1.813   3.940
 4545TIP3   OH213577   3.590   6.876   5.083
 4545TIP3    H113578   3.545   6.845   5.003
 4545TIP3    H213579   3.626   6.961   5.058
 4546TIP3   OH213580   2.415   1.585   0.142
 4546TIP3    H113581   2.470   1.626   0.076
 4546TIP3    H213582   2.328   1.622   0.127
 4547TIP3   OH213583   1.647   6.849   1.756
 4547TIP3    H113584   1.585   6.851   1.683
 4547TIP3    H213585   1.591   6.853   1.835
 4548TIP3   OH213586   2.128   4.768   5.879
 4548TIP3    H113587   2.222   4.780   5.893
 4548TIP3    H213588   2.089   4.849   5.912
 4549TIP3   OH213589   4.370   3.259   4.699
 4549TIP3    H113590   4.359   3.290   4.789
 4549TIP3    H213591   4.281   3.260   4.662
 4550TIP3   OH213592   7.484   0.116   1.262
 4550TIP3    H113593   7.518   0.131   1.175
 4550TIP3    H213594   7.392   0.091   1.248
 4551TIP3   OH213595   6.155   7.674   1.798
 4551TIP3    H113596   6.245   7.645   1.782
 4551TIP3    H213597   6.164   7.759   1.841
 4552TIP3   OH213598   1.512   0.934   4.131
 4552TIP3    H113599   1.517   0.997   4.203
 4552TIP3    H213600   1.552   0.854   4.167
 4553TIP3   OH213601   7.479   6.178   2.493
 4553TIP3    H113602   7.500   6.270   2.481
 4553TIP3    H213603   7.384   6.173   2.484
 4554TIP3   OH213604   0.797   6.756   2.154
 4554TIP3    H113605   0.830   6.670   2.178
 4554TIP3    H213606   0.818   6.765   2.061
 4555TIP3   OH213607   1.002   3.491   2.316
 4555TIP3    H113608   0.947   3.539   2.378
 4555TIP3    H213609   1.058   3.558   2.278
 4556TIP3   OH213610   1.936   1.265   1.380
 4556TIP3    H113611   2.017   1.304   1.413
 4556TIP3    H213612   1.899   1.331   1.321
 4557TIP3   OH213613   7.745   2.268   0.977
 4557TIP3    H113614   7.737   2.362   0.996
 4557TIP3    H213615   7.708   2.224   1.053
 4558TIP3   OH213616   2.905   3.788   5.873
 4558TIP3    H113617   2.978   3.797   5.934
 4558TIP3    H213618   2.840   3.852   5.905
 4559TIP3   OH213619   1.203   0.508   6.597
 4559TIP3    H113620   1.157   0.549   6.523
 4559TIP3    H213621   1.284   0.473   6.558
 4560TIP3   OH213622   6.606   6.553   0.851
 4560TIP3    H113623   6.526   6.502   0.868
 4560TIP3    H213624   6.574   6.642   0.832
 4561TIP3   OH213625   2.524   0.114   1.417
 4561TIP3    H113626   2.458   0.053   1.449
 4561TIP3    H213627   2.563   0.150   1.496
 4562TIP3   OH213628   5.121   2.688   0.146
 4562TIP3    H113629   5.110   2.760   0.084
 4562TIP3    H213630   5.191   2.717   0.205
 4563TIP3   OH213631   6.207   1.982   4.235
 4563TIP3    H113632   6.192   1.941   4.150
 4563TIP3    H213633   6.238   1.910   4.291
 4564TIP3   OH213634   2.998   1.915   6.696
 4564TIP3    H113635   2.927   1.951   6.750
 4564TIP3    H213636   2.966   1.922   6.606
 4565TIP3   OH213637   4.145   1.402   4.356
 4565TIP3    H113638   4.093   1.329   4.322
 4565TIP3    H213639   4.231   1.391   4.314
 4566TIP3   OH213640   4.970   7.522   4.722
 4566TIP3    H113641   4.969   7.529   4.627
 4566TIP3    H213642   5.061   7.541   4.746
 4567TIP3   OH213643   3.481   1.570   3.534
 4567TIP3    H113644   3.541   1.627   3.583
 4567TIP3    H213645   3.534   1.536   3.462
 4568TIP3   OH213646   5.703   5.457   3.416
 4568TIP3    H113647   5.727   5.476   3.506
 4568TIP3    H213648   5.658   5.537   3.386
 4569TIP3   OH213649   5.973   3.068   6.551
 4569TIP3    H113650   6.043   3.085   6.614
 4569TIP3    H213651   6.017   3.065   6.466
 4570TIP3   OH213652   2.681   1.178   1.416
 4570TIP3    H113653   2.726   1.097   1.440
 4570TIP3    H213654   2.726   1.207   1.336
 4571TIP3   OH213655   2.761   0.662   2.550
 4571TIP3    H113656   2.732   0.712   2.473
 4571TIP3    H213657   2.842   0.704   2.577
 4572TIP3   OH213658   1.151   4.814   1.455
 4572TIP3    H113659   1.097   4.893   1.460
 4572TIP3    H213660   1.130   4.776   1.370
 4573TIP3   OH213661   1.808   4.657   3.406
 4573TIP3    H113662   1.827   4.590   3.340
 4573TIP3    H213663   1.838   4.739   3.367
 4574TIP3   OH213664   6.559   6.555   3.840
 4574TIP3    H113665   6.510   6.475   3.860
 4574TIP3    H213666   6.609   6.573   3.920
 4575TIP3   OH213667   7.452   5.430   3.709
 4575TIP3    H113668   7.530   5.451   3.760
 4575TIP3    H213669   7.486   5.397   3.626
 4576TIP3   OH213670   5.334   2.809   1.058
 4576TIP3    H113671   5.338   2.740   0.992
 4576TIP3    H213672   5.270   2.872   1.024
 4577TIP3   OH213673   2.107   4.557   2.835
 4577TIP3    H113674   2.125   4.468   2.866
 4577TIP3    H213675   2.193   4.599   2.830
 4578TIP3   OH213676   0.877   3.611   6.287
 4578TIP3    H113677   0.784   3.591   6.296
 4578TIP3    H213678   0.896   3.668   6.362
 4579TIP3   OH213679   2.354   1.128   3.796
 4579TIP3    H113680   2.428   1.186   3.781
 4579TIP3    H213681   2.332   1.094   3.710
 4580TIP3   OH213682   7.401   4.806   5.493
 4580TIP3    H113683   7.368   4.732   5.544
 4580TIP3    H213684   7.333   4.874   5.503
 4581TIP3   OH213685   7.919   3.669   6.265
 4581TIP3    H113686   7.864   3.745   6.245
 4581TIP3    H213687   7.883   3.634   6.346
 4582TIP3   OH213688   0.855   3.225   6.285
 4582TIP3    H113689   0.785   3.238   6.221
 4582TIP3    H213690   0.933   3.259   6.241
 4583TIP3   OH213691   7.424   0.102   1.968
 4583TIP3    H113692   7.499   0.161   1.956
 4583TIP3    H213693   7.375   0.110   1.886
 4584TIP3   OH213694   4.309   0.595   1.348
 4584TIP3    H113695   4.290   0.674   1.398
 4584TIP3    H213696   4.384   0.555   1.393
 4585TIP3   OH213697   1.867   1.493   1.214
 4585TIP3    H113698   1.809   1.474   1.141
 4585TIP3    H213699   1.935   1.550   1.177
 4586TIP3   OH213700   4.417   3.886   1.170
 4586TIP3    H113701   4.404   3.799   1.131
 4586TIP3    H213702   4.349   3.892   1.238
 4587TIP3   OH213703   2.592   5.524   3.321
 4587TIP3    H113704   2.584   5.594   3.386
 4587TIP3    H213705   2.553   5.561   3.242
 4588TIP3   OH213706   4.008   0.183   2.538
 4588TIP3    H113707   4.085   0.181   2.595
 4588TIP3    H213708   3.940   0.226   2.590
 4589TIP3   OH213709   6.664   6.491   3.589
 4589TIP3    H113710   6.615   6.524   3.665
 4589TIP3    H213711   6.755   6.514   3.608
 4590TIP3   OH213712   5.589   2.836   3.165
 4590TIP3    H113713   5.526   2.775   3.203
 4590TIP3    H213714   5.613   2.797   3.081
 4591TIP3   OH213715   5.039   0.047   1.141
 4591TIP3    H113716   4.984  -0.026   1.171
 4591TIP3    H213717   4.989   0.125   1.161
 4592TIP3   OH213718   6.125   3.339   2.436
 4592TIP3    H113719   6.082   3.413   2.478
 4592TIP3    H213720   6.145   3.279   2.507
 4593TIP3   OH213721   3.655   7.687   1.501
 4593TIP3    H113722   3.676   7.773   1.538
 4593TIP3    H213723   3.654   7.702   1.406
 4594TIP3   OH213724   5.013   2.061   2.196
 4594TIP3    H113725   5.086   2.113   2.231
 4594TIP3    H213726   4.935   2.105   2.228
 4595TIP3   OH213727   4.026   1.352   1.252
 4595TIP3    H113728   4.027   1.260   1.226
 4595TIP3    H213729   4.104   1.390   1.211
 4596TIP3   OH213730   5.797   1.829   0.742
 4596TIP3    H113731   5.743   1.853   0.667
 4596TIP3    H213732   5.758   1.748   0.775
 4597TIP3   OH213733   0.079   5.303   2.080
 4597TIP3    H113734   0.167   5.286   2.048
 4597TIP3    H213735   0.063   5.395   2.061
 4598TIP3   OH213736   7.519   4.551   1.687
 4598TIP3    H113737   7.571   4.480   1.648
 4598TIP3    H213738   7.518   4.619   1.620
 4599TIP3   OH213739   3.371   1.739   4.306
 4599TIP3    H113740   3.433   1.812   4.306
 4599TIP3    H213741   3.419   1.668   4.349
 4600TIP3   OH213742   6.502   3.083   5.764
 4600TIP3    H113743   6.560   3.051   5.695
 4600TIP3    H213744   6.489   3.175   5.743
 4601TIP3   OH213745   0.467   1.854   6.081
 4601TIP3    H113746   0.422   1.893   6.006
 4601TIP3    H213747   0.414   1.881   6.157
 4602TIP3   OH213748   5.235   0.433   6.372
 4602TIP3    H113749   5.273   0.442   6.285
 4602TIP3    H213750   5.156   0.380   6.359
 4603TIP3   OH213751   5.913   4.793   0.920
 4603TIP3    H113752   5.904   4.735   0.996
 4603TIP3    H213753   5.844   4.858   0.931
 4604TIP3   OH213754   4.665   4.202   6.058
 4604TIP3    H113755   4.582   4.158   6.039
 4604TIP3    H213756   4.649   4.294   6.035
 4605TIP3   OH213757   0.945   5.817   5.909
 4605TIP3    H113758   0.980   5.857   5.988
 4605TIP3    H213759   0.856   5.851   5.901
 4606TIP3   OH213760   4.522   4.411   0.855
 4606TIP3    H113761   4.515   4.451   0.768
 4606TIP3    H213762   4.432   4.400   0.884
 4607TIP3   OH213763   5.990   0.708   5.056
 4607TIP3    H113764   6.004   0.636   4.995
 4607TIP3    H213765   6.061   0.770   5.037
 4608TIP3   OH213766   3.290   3.155   5.029
 4608TIP3    H113767   3.295   3.218   4.957
 4608TIP3    H213768   3.357   3.183   5.091
 4609TIP3   OH213769   2.026   7.413   6.408
 4609TIP3    H113770   1.954   7.353   6.425
 4609TIP3    H213771   2.099   7.380   6.460
 4610TIP3   OH213772   6.470   6.549   6.561
 4610TIP3    H113773   6.515   6.505   6.489
 4610TIP3    H213774   6.445   6.479   6.621
 4611TIP3   OH213775   4.549   0.915   2.984
 4611TIP3    H113776   4.548   0.955   3.071
 4611TIP3    H213777   4.623   0.855   2.986
 4612TIP3   OH213778   1.275   4.946   2.070
 4612TIP3    H113779   1.185   4.977   2.064
 4612TIP3    H213780   1.298   4.923   1.980
 4613TIP3   OH213781   4.788   0.927   1.330
 4613TIP3    H113782   4.768   0.838   1.303
 4613TIP3    H213783   4.702   0.966   1.349
 4614TIP3   OH213784   2.486   5.927   4.372
 4614TIP3    H113785   2.457   5.846   4.414
 4614TIP3    H213786   2.501   5.903   4.281
 4615TIP3   OH213787   6.726   0.607   2.857
 4615TIP3    H113788   6.714   0.585   2.949
 4615TIP3    H213789   6.775   0.532   2.821
 4616TIP3   OH213790   1.982   5.374   5.209
 4616TIP3    H113791   1.897   5.363   5.252
 4616TIP3    H213792   1.973   5.326   5.127
 4617TIP3   OH213793   0.293   3.966   2.294
 4617TIP3    H113794   0.328   4.045   2.253
 4617TIP3    H213795   0.262   3.994   2.379
 4618TIP3   OH213796   6.498   1.577   1.085
 4618TIP3    H113797   6.554   1.644   1.125
 4618TIP3    H213798   6.410   1.597   1.117
 4619TIP3   OH213799   6.731   5.286   3.187
 4619TIP3    H113800   6.817   5.297   3.228
 4619TIP3    H213801   6.718   5.191   3.183
 4620TIP3   OH213802   2.982   0.153   3.990
 4620TIP3    H113803   2.947   0.204   3.917
 4620TIP3    H213804   3.001   0.218   4.058
 4621TIP3   OH213805   4.561   7.472   4.234
 4621TIP3    H113806   4.491   7.470   4.299
 4621TIP3    H213807   4.586   7.564   4.228
 4622TIP3   OH213808   0.185   5.515   4.810
 4622TIP3    H113809   0.222   5.587   4.860
 4622TIP3    H213810   0.090   5.529   4.814
 4623TIP3   OH213811   4.773   2.449   6.182
 4623TIP3    H113812   4.825   2.369   6.177
 4623TIP3    H213813   4.791   2.494   6.099
 4624TIP3   OH213814   7.251   5.182   1.125
 4624TIP3    H113815   7.169   5.163   1.079
 4624TIP3    H213816   7.289   5.254   1.075
 4625TIP3   OH213817   0.681   0.877   3.351
 4625TIP3    H113818   0.751   0.847   3.409
 4625TIP3    H213819   0.605   0.826   3.377
 4626TIP3   OH213820   5.409   5.730   2.264
 4626TIP3    H113821   5.494   5.697   2.290
 4626TIP3    H213822   5.346   5.666   2.297
 4627TIP3   OH213823   0.271   6.803   1.987
 4627TIP3    H113824   0.294   6.831   2.076
 4627TIP3    H213825   0.182   6.834   1.974
 4628TIP3   OH213826   0.583   2.832   4.405
 4628TIP3    H113827   0.674   2.811   4.426
 4628TIP3    H213828   0.532   2.771   4.458
 4629TIP3   OH213829   1.162   3.174   5.350
 4629TIP3    H113830   1.081   3.147   5.306
 4629TIP3    H213831   1.227   3.173   5.280
 4630TIP3   OH213832   5.047   2.306   4.359
 4630TIP3    H113833   5.122   2.343   4.313
 4630TIP3    H213834   5.071   2.312   4.452
 4631TIP3   OH213835   0.900   3.101   3.748
 4631TIP3    H113836   0.930   3.172   3.690
 4631TIP3    H213837   0.946   3.117   3.830
 4632TIP3   OH213838   4.359   0.739   0.862
 4632TIP3    H113839   4.327   0.767   0.776
 4632TIP3    H213840   4.391   0.650   0.848
 4633TIP3   OH213841   6.995   5.286   0.393
 4633TIP3    H113842   6.961   5.373   0.415
 4633TIP3    H213843   7.026   5.249   0.475
 4634TIP3   OH213844   1.835   6.058   3.902
 4634TIP3    H113845   1.793   6.141   3.876
 4634TIP3    H213846   1.846   6.065   3.996
 4635TIP3   OH213847   5.694   0.831   4.972
 4635TIP3    H113848   5.642   0.828   5.053
 4635TIP3    H213849   5.770   0.776   4.990
 4636TIP3   OH213850   4.248   1.149   4.131
 4636TIP3    H113851   4.257   1.144   4.036
 4636TIP3    H213852   4.293   1.071   4.163
 4637TIP3   OH213853   3.389   2.779   3.563
 4637TIP3    H113854   3.308   2.754   3.518
 4637TIP3    H213855   3.362   2.793   3.654
 4638TIP3   OH213856   5.779   3.959   3.608
 4638TIP3    H113857   5.846   4.020   3.576
 4638TIP3    H213858   5.815   3.927   3.691
 4639TIP3   OH213859   3.047   7.243   0.816
 4639TIP3    H113860   3.042   7.276   0.906
 4639TIP3    H213861   3.137   7.263   0.789
 4640TIP3   OH213862   3.005   2.591   3.997
 4640TIP3    H113863   2.931   2.540   3.965
 4640TIP3    H213864   3.018   2.561   4.087
 4641TIP3   OH213865   3.317   5.416   2.839
 4641TIP3    H113866   3.308   5.410   2.744
 4641TIP3    H213867   3.282   5.502   2.861
 4642TIP3   OH213868   3.423   4.257   5.279
 4642TIP3    H113869   3.494   4.248   5.216
 4642TIP3    H213870   3.400   4.167   5.303
 4643TIP3   OH213871   3.075   1.781   4.250
 4643TIP3    H113872   3.148   1.762   4.191
 4643TIP3    H213873   3.056   1.873   4.236
 4644TIP3   OH213874   7.149   5.588   4.729
 4644TIP3    H113875   7.103   5.652   4.783
 4644TIP3    H213876   7.086   5.564   4.661
 4645TIP3   OH213877   8.290   5.751   1.110
 4645TIP3    H113878   8.199   5.722   1.107
 4645TIP3    H213879   8.309   5.780   1.021
 4646TIP3   OH213880   7.343   6.706   2.806
 4646TIP3    H113881   7.422   6.700   2.752
 4646TIP3    H213882   7.289   6.772   2.762
 4647TIP3   OH213883   0.887   0.986   5.752
 4647TIP3    H113884   0.937   0.906   5.737
 4647TIP3    H213885   0.927   1.025   5.829
 4648TIP3   OH213886   0.670   4.709   3.312
 4648TIP3    H113887   0.575   4.716   3.304
 4648TIP3    H213888   0.701   4.698   3.221
 4649TIP3   OH213889   2.327   2.419   4.097
 4649TIP3    H113890   2.419   2.412   4.069
 4649TIP3    H213891   2.316   2.347   4.160
 4650TIP3   OH213892   2.431   1.471   3.542
 4650TIP3    H113893   2.474   1.516   3.615
 4650TIP3    H213894   2.345   1.511   3.536
 4651TIP3   OH213895   2.608   1.825   5.677
 4651TIP3    H113896   2.513   1.837   5.681
 4651TIP3    H213897   2.620   1.752   5.617
 4652TIP3   OH213898   4.849   5.199   5.562
 4652TIP3    H113899   4.920   5.159   5.611
 4652TIP3    H213900   4.782   5.130   5.556
 4653TIP3   OH213901   0.118   6.699   0.051
 4653TIP3    H113902   0.189   6.736  -0.001
 4653TIP3    H213903   0.115   6.753   0.130
 4654TIP3   OH213904   0.184   6.680   2.266
 4654TIP3    H113905   0.230   6.754   2.304
 4654TIP3    H213906   0.199   6.608   2.327
 4655TIP3   OH213907   5.891   5.402   5.956
 4655TIP3    H113908   5.949   5.479   5.960
 4655TIP3    H213909   5.826   5.418   6.025
 4656TIP3   OH213910   5.464   3.089   3.840
 4656TIP3    H113911   5.404   3.020   3.813
 4656TIP3    H213912   5.444   3.104   3.933
 4657TIP3   OH213913   7.008   6.872   3.346
 4657TIP3    H113914   7.028   6.807   3.278
 4657TIP3    H213915   6.913   6.874   3.350
 4658TIP3   OH213916   1.206   6.242   3.288
 4658TIP3    H113917   1.149   6.312   3.256
 4658TIP3    H213918   1.289   6.287   3.308
 4659TIP3   OH213919   6.295   5.977   5.389
 4659TIP3    H113920   6.227   6.038   5.416
 4659TIP3    H213921   6.299   5.986   5.294
 4660TIP3   OH213922   0.722   1.938   4.113
 4660TIP3    H113923   0.757   1.891   4.189
 4660TIP3    H213924   0.794   1.938   4.050
 4661TIP3   OH213925   7.918   1.713   4.239
 4661TIP3    H113926   7.850   1.701   4.305
 4661TIP3    H213927   7.911   1.636   4.183
 4662TIP3   OH213928   7.801   3.888   3.262
 4662TIP3    H113929   7.887   3.880   3.221
 4662TIP3    H213930   7.762   3.801   3.254
 4663TIP3   OH213931   1.456   2.439   4.270
 4663TIP3    H113932   1.370   2.463   4.235
 4663TIP3    H213933   1.515   2.450   4.196
 4664TIP3   OH213934   1.797   0.785   3.334
 4664TIP3    H113935   1.703   0.802   3.333
 4664TIP3    H213936   1.811   0.735   3.415
 4665TIP3   OH213937   4.170   5.743   3.948
 4665TIP3    H113938   4.189   5.697   3.866
 4665TIP3    H213939   4.220   5.695   4.014
 4666TIP3   OH213940   5.291   5.496   0.803
 4666TIP3    H113941   5.219   5.519   0.744
 4666TIP3    H213942   5.310   5.404   0.784
 4667TIP3   OH213943   6.843   7.214   3.004
 4667TIP3    H113944   6.933   7.190   2.982
 4667TIP3    H213945   6.794   7.200   2.923
 4668TIP3   OH213946   4.527   0.388   6.149
 4668TIP3    H113947   4.576   0.309   6.125
 4668TIP3    H213948   4.507   0.376   6.241
 4669TIP3   OH213949   5.425   5.803   5.142
 4669TIP3    H113950   5.371   5.876   5.173
 4669TIP3    H213951   5.434   5.818   5.048
 4670TIP3   OH213952   5.991   3.100   2.326
 4670TIP3    H113953   6.057   3.056   2.272
 4670TIP3    H213954   6.039   3.171   2.368
 4671TIP3   OH213955   7.061   7.379   0.597
 4671TIP3    H113956   6.972   7.367   0.566
 4671TIP3    H213957   7.062   7.340   0.685
 4672TIP3   OH213958   2.148   1.477   3.775
 4672TIP3    H113959   2.133   1.551   3.833
 4672TIP3    H213960   2.157   1.402   3.834
 4673TIP3   OH213961   1.791   4.283   1.993
 4673TIP3    H113962   1.779   4.297   2.087
 4673TIP3    H213963   1.777   4.189   1.981
 4674TIP3   OH213964   7.826   0.054   1.653
 4674TIP3    H113965   7.751   0.073   1.597
 4674TIP3    H213966   7.896   0.109   1.618
 4675TIP3   OH213967   6.831   3.574   0.716
 4675TIP3    H113968   6.911   3.522   0.715
 4675TIP3    H213969   6.855   3.657   0.673
 4676TIP3   OH213970   8.274   4.024   2.666
 4676TIP3    H113971   8.215   4.057   2.734
 4676TIP3    H213972   8.223   4.032   2.585
 4677TIP3   OH213973   0.968   6.435   4.305
 4677TIP3    H113974   0.874   6.417   4.298
 4677TIP3    H213975   0.972   6.523   4.344
 4678TIP3   OH213976   7.243   0.651   5.082
 4678TIP3    H113977   7.303   0.646   5.008
 4678TIP3    H213978   7.232   0.560   5.111
 4679TIP3   OH213979   6.888   7.079   1.941
 4679TIP3    H113980   6.952   7.112   2.004
 4679TIP3    H213981   6.814   7.050   1.994
 4680TIP3   OH213982   8.309   4.743   4.591
 4680TIP3    H113983   8.341   4.833   4.583
 4680TIP3    H213984   8.218   4.747   4.562
 4681TIP3   OH213985   4.655   4.648   1.427
 4681TIP3    H113986   4.741   4.649   1.385
 4681TIP3    H213987   4.630   4.556   1.428
 4682TIP3   OH213988   4.921   2.118   5.443
 4682TIP3    H113989   4.845   2.080   5.486
 4682TIP3    H213990   4.891   2.203   5.411
 4683TIP3   OH213991   1.422   5.386   6.088
 4683TIP3    H113992   1.414   5.379   6.183
 4683TIP3    H213993   1.364   5.459   6.064
 4684TIP3   OH213994   4.536   6.379   6.303
 4684TIP3    H113995   4.626   6.406   6.282
 4684TIP3    H213996   4.522   6.409   6.393
 4685TIP3   OH213997   5.017   5.082   5.821
 4685TIP3    H113998   5.101   5.060   5.860
 4685TIP3    H213999   4.998   5.009   5.762
 4686TIP3   OH214000   0.766   7.557   5.720
 4686TIP3    H114001   0.790   7.480   5.669
 4686TIP3    H214002   0.731   7.522   5.802
 4687TIP3   OH214003  -0.038   6.963   3.583
 4687TIP3    H114004   0.021   7.025   3.626
 4687TIP3    H214005   0.021   6.901   3.539
 4688TIP3   OH214006   5.218   4.113   4.627
 4688TIP3    H114007   5.161   4.087   4.555
 4688TIP3    H214008   5.307   4.106   4.591
 4689TIP3   OH214009   1.139   7.583   5.165
 4689TIP3    H114010   1.145   7.657   5.105
 4689TIP3    H214011   1.181   7.614   5.245
 4690TIP3   OH214012   6.034   3.552   2.157
 4690TIP3    H114013   5.970   3.536   2.226
 4690TIP3    H214014   5.983   3.551   2.076
 4691TIP3   OH214015   7.203   4.325   3.322
 4691TIP3    H114016   7.291   4.362   3.335
 4691TIP3    H214017   7.147   4.375   3.380
 4692TIP3   OH214018   6.786   1.432   1.140
 4692TIP3    H114019   6.752   1.371   1.206
 4692TIP3    H214020   6.749   1.517   1.164
 4693TIP3   OH214021   4.255   4.979   1.559
 4693TIP3    H114022   4.300   4.906   1.514
 4693TIP3    H214023   4.176   4.939   1.596
 4694TIP3   OH214024   6.039   0.831   4.505
 4694TIP3    H114025   5.953   0.814   4.544
 4694TIP3    H214026   6.097   0.768   4.547
 4695TIP3   OH214027   4.481   1.310   4.360
 4695TIP3    H114028   4.539   1.384   4.346
 4695TIP3    H214029   4.493   1.255   4.283
 4696TIP3   OH214030   0.024   5.992   6.414
 4696TIP3    H114031  -0.016   6.039   6.341
 4696TIP3    H214032   0.117   5.985   6.391
 4697TIP3   OH214033   2.946   7.733   4.526
 4697TIP3    H114034   2.955   7.755   4.619
 4697TIP3    H214035   2.913   7.813   4.485
 4698TIP3   OH214036   0.326   3.474   2.184
 4698TIP3    H114037   0.321   3.569   2.187
 4698TIP3    H214038   0.303   3.451   2.094
 4699TIP3   OH214039   7.116   4.925   2.334
 4699TIP3    H114040   7.054   4.987   2.372
 4699TIP3    H214041   7.176   4.904   2.406
 4700TIP3   OH214042   1.655   2.837   6.127
 4700TIP3    H114043   1.614   2.844   6.213
 4700TIP3    H214044   1.713   2.762   6.134
 4701TIP3   OH214045   1.861   5.784   0.225
 4701TIP3    H114046   1.901   5.870   0.214
 4701TIP3    H214047   1.935   5.723   0.226
 4702TIP3   OH214048   3.004   4.967   4.395
 4702TIP3    H114049   3.073   4.901   4.402
 4702TIP3    H214050   2.956   4.944   4.315
 4703TIP3   OH214051   1.812   5.103   1.640
 4703TIP3    H114052   1.852   5.037   1.697
 4703TIP3    H214053   1.749   5.054   1.587
 4704TIP3   OH214054   6.907   0.779   5.344
 4704TIP3    H114055   6.904   0.874   5.333
 4704TIP3    H214056   6.924   0.745   5.256
 4705TIP3   OH214057  -0.027   1.931   0.799
 4705TIP3    H114058  -0.025   1.867   0.870
 4705TIP3    H214059   0.053   1.914   0.749
 4706TIP3   OH214060   5.578   7.381   1.841
 4706TIP3    H114061   5.519   7.311   1.813
 4706TIP3    H214062   5.528   7.430   1.905
 4707TIP3   OH214063   5.283   6.910   6.062
 4707TIP3    H114064   5.376   6.901   6.041
 4707TIP3    H214065   5.239   6.915   5.977
 4708TIP3   OH214066   7.998   5.505   0.525
 4708TIP3    H114067   7.973   5.464   0.442
 4708TIP3    H214068   8.088   5.477   0.540
 4709TIP3   OH214069   4.781   4.780   3.415
 4709TIP3    H114070   4.769   4.861   3.465
 4709TIP3    H214071   4.837   4.726   3.470
 4710TIP3   OH214072   5.452   1.460   4.572
 4710TIP3    H114073   5.367   1.446   4.614
 4710TIP3    H214074   5.505   1.384   4.599
 4711TIP3   OH214075   6.607   5.947   3.604
 4711TIP3    H114076   6.585   5.963   3.512
 4711TIP3    H214077   6.662   5.869   3.603
 4712TIP3   OH214078   2.082   4.080   4.059
 4712TIP3    H114079   2.056   4.026   3.985
 4712TIP3    H214080   2.024   4.156   4.055
 4713TIP3   OH214081   6.927   1.580   5.578
 4713TIP3    H114082   7.014   1.564   5.616
 4713TIP3    H214083   6.933   1.668   5.541
 4714TIP3   OH214084   2.406   3.459   3.484
 4714TIP3    H114085   2.490   3.500   3.462
 4714TIP3    H214086   2.385   3.404   3.409
 4715TIP3   OH214087   2.194   2.368   0.194
 4715TIP3    H114088   2.253   2.313   0.246
 4715TIP3    H214089   2.128   2.308   0.160
 4716TIP3   OH214090   7.363   5.280   4.425
 4716TIP3    H114091   7.423   5.352   4.406
 4716TIP3    H214092   7.420   5.206   4.446
 4717TIP3   OH214093   3.749   4.164   4.092
 4717TIP3    H114094   3.689   4.173   4.166
 4717TIP3    H214095   3.791   4.249   4.085
 4718TIP3   OH214096   4.446   4.494   0.085
 4718TIP3    H114097   4.493   4.547   0.022
 4718TIP3    H214098   4.426   4.413   0.038
 4719TIP3   OH214099   7.588   2.353   2.744
 4719TIP3    H114100   7.504   2.347   2.699
 4719TIP3    H214101   7.581   2.432   2.798
 4720TIP3   OH214102   7.877   4.201   3.326
 4720TIP3    H114103   7.844   4.124   3.279
 4720TIP3    H214104   7.971   4.203   3.305
 4721TIP3   OH214105   3.427   0.353   5.446
 4721TIP3    H114106   3.409   0.318   5.359
 4721TIP3    H214107   3.407   0.280   5.505
 4722TIP3   OH214108   4.582   5.876   0.594
 4722TIP3    H114109   4.563   5.961   0.635
 4722TIP3    H214110   4.549   5.885   0.505
 4723TIP3   OH214111   0.250   4.944   0.290
 4723TIP3    H114112   0.312   4.997   0.340
 4723TIP3    H214113   0.276   4.958   0.199
 4724TIP3   OH214114   6.098   3.197   2.673
 4724TIP3    H114115   6.181   3.220   2.715
 4724TIP3    H214116   6.086   3.105   2.694
 4725TIP3   OH214117   8.001   2.514   3.178
 4725TIP3    H114118   8.065   2.495   3.247
 4725TIP3    H214119   8.054   2.548   3.106
 4726TIP3   OH214120   0.328   2.780   0.929
 4726TIP3    H114121   0.255   2.841   0.932
 4726TIP3    H214122   0.294   2.699   0.967
 4727TIP3   OH214123   6.864   2.420   0.220
 4727TIP3    H114124   6.942   2.459   0.181
 4727TIP3    H214125   6.791   2.455   0.168
 4728TIP3   OH214126   3.591   3.743   5.271
 4728TIP3    H114127   3.685   3.762   5.276
 4728TIP3    H214128   3.556   3.774   5.354
 4729TIP3   OH214129   6.787   6.309   6.138
 4729TIP3    H114130   6.864   6.252   6.145
 4729TIP3    H214131   6.821   6.390   6.100
 4730TIP3   OH214132   0.804   0.557   6.170
 4730TIP3    H114133   0.822   0.651   6.164
 4730TIP3    H214134   0.729   0.543   6.113
 4731TIP3   OH214135   2.423   4.614   5.168
 4731TIP3    H114136   2.338   4.657   5.175
 4731TIP3    H214137   2.462   4.624   5.254
 4732TIP3   OH214138   5.939   3.824   2.073
 4732TIP3    H114139   5.880   3.895   2.048
 4732TIP3    H214140   5.911   3.750   2.019
 4733TIP3   OH214141   2.790   2.351   0.485
 4733TIP3    H114142   2.732   2.342   0.561
 4733TIP3    H214143   2.735   2.324   0.411
 4734TIP3   OH214144   7.659   4.773   6.507
 4734TIP3    H114145   7.695   4.719   6.578
 4734TIP3    H214146   7.674   4.721   6.428
 4735TIP3   OH214147   3.167   1.111   4.602
 4735TIP3    H114148   3.095   1.056   4.633
 4735TIP3    H214149   3.134   1.148   4.520
 4736TIP3   OH214150   5.105   5.261   0.732
 4736TIP3    H114151   5.029   5.305   0.694
 4736TIP3    H214152   5.079   5.242   0.822
 4737TIP3   OH214153   3.514   7.781   5.593
 4737TIP3    H114154   3.512   7.874   5.572
 4737TIP3    H214155   3.422   7.755   5.596
 4738TIP3   OH214156   3.961   6.178   3.958
 4738TIP3    H114157   3.999   6.130   3.885
 4738TIP3    H214158   4.021   6.162   4.031
 4739TIP3   OH214159   5.742   2.091   4.064
 4739TIP3    H114160   5.694   2.114   3.984
 4739TIP3    H214161   5.789   2.171   4.088
 4740TIP3   OH214162   0.259   2.321   5.613
 4740TIP3    H114163   0.167   2.345   5.597
 4740TIP3    H214164   0.273   2.342   5.706
 4741TIP3   OH214165   1.233   7.002   1.259
 4741TIP3    H114166   1.317   6.962   1.238
 4741TIP3    H214167   1.168   6.938   1.230
 4742TIP3   OH214168   4.447   6.674   4.141
 4742TIP3    H114169   4.479   6.588   4.114
 4742TIP3    H214170   4.393   6.704   4.068
 4743TIP3   OH214171   5.105   5.743   4.911
 4743TIP3    H114172   5.136   5.819   4.961
 4743TIP3    H214173   5.183   5.688   4.901
 4744TIP3   OH214174   0.831   3.232   0.030
 4744TIP3    H114175   0.896   3.302   0.023
 4744TIP3    H214176   0.849   3.191   0.114
 4745TIP3   OH214177   7.298   0.479   6.381
 4745TIP3    H114178   7.221   0.501   6.329
 4745TIP3    H214179   7.351   0.423   6.324
 4746TIP3   OH214180   5.750   7.074   5.325
 4746TIP3    H114181   5.832   7.123   5.321
 4746TIP3    H214182   5.737   7.057   5.418
 4747TIP3   OH214183   3.512   3.797   4.120
 4747TIP3    H114184   3.517   3.881   4.075
 4747TIP3    H214185   3.422   3.767   4.106
 4748TIP3   OH214186   7.991   7.731   0.042
 4748TIP3    H114187   8.020   7.737  -0.049
 4748TIP3    H214188   8.071   7.726   0.093
 4749TIP3   OH214189   5.074   4.571   6.498
 4749TIP3    H114190   4.983   4.571   6.526
 4749TIP3    H214191   5.072   4.537   6.409
 4750TIP3   OH214192   1.589   7.599   5.452
 4750TIP3    H114193   1.537   7.519   5.442
 4750TIP3    H214194   1.574   7.647   5.371
 4751TIP3   OH214195   5.189   3.141   5.711
 4751TIP3    H114196   5.132   3.079   5.757
 4751TIP3    H214197   5.264   3.152   5.770
 4752TIP3   OH214198   7.624   2.075   2.051
 4752TIP3    H114199   7.577   2.158   2.062
 4752TIP3    H214200   7.558   2.008   2.069
 4753TIP3   OH214201   4.434   3.795   2.617
 4753TIP3    H114202   4.453   3.764   2.705
 4753TIP3    H214203   4.412   3.716   2.568
 4754TIP3   OH214204   7.555   5.530   1.260
 4754TIP3    H114205   7.580   5.546   1.352
 4754TIP3    H214206   7.498   5.453   1.263
 4755TIP3   OH214207   5.638   2.016   3.107
 4755TIP3    H114208   5.711   1.993   3.165
 4755TIP3    H214209   5.637   2.112   3.108
 4756TIP3   OH214210   0.864   2.987   1.762
 4756TIP3    H114211   0.832   3.016   1.847
 4756TIP3    H214212   0.944   2.938   1.782
 4757TIP3   OH214213   5.711   7.700   5.015
 4757TIP3    H114214   5.710   7.663   4.927
 4757TIP3    H214215   5.763   7.780   5.006
 4758TIP3   OH214216   4.207   3.188   0.203
 4758TIP3    H114217   4.146   3.155   0.269
 4758TIP3    H214218   4.172   3.274   0.178
 4759TIP3   OH214219   1.495   6.522   4.192
 4759TIP3    H114220   1.486   6.441   4.241
 4759TIP3    H214221   1.468   6.499   4.103
 4760TIP3   OH214222   3.276   4.860   5.229
 4760TIP3    H114223   3.281   4.875   5.135
 4760TIP3    H214224   3.191   4.896   5.255
 4761TIP3   OH214225   0.004   1.165   1.631
 4761TIP3    H114226   0.028   1.251   1.597
 4761TIP3    H214227  -0.010   1.179   1.725
 4762TIP3   OH214228   7.965   2.574   1.782
 4762TIP3    H114229   7.909   2.638   1.825
 4762TIP3    H214230   8.054   2.603   1.801
 4763TIP3   OH214231   4.517   1.861   6.652
 4763TIP3    H114232   4.442   1.851   6.710
 4763TIP3    H214233   4.591   1.878   6.711
 4764TIP3   OH214234   3.170   1.681   0.493
 4764TIP3    H114235   3.214   1.597   0.494
 4764TIP3    H214236   3.240   1.745   0.478
 4765TIP3   OH214237   5.426   4.279   2.002
 4765TIP3    H114238   5.412   4.291   2.096
 4765TIP3    H214239   5.519   4.300   1.989
 4766TIP3   OH214240   4.696   6.887   3.153
 4766TIP3    H114241   4.738   6.831   3.218
 4766TIP3    H214242   4.662   6.961   3.203
 4767TIP3   OH214243   1.624   3.966   3.326
 4767TIP3    H114244   1.543   3.983   3.278
 4767TIP3    H214245   1.602   3.897   3.388
 4768TIP3   OH214246   2.324   1.432   5.755
 4768TIP3    H114247   2.242   1.445   5.802
 4768TIP3    H214248   2.357   1.520   5.739
 4769TIP3   OH214249   1.294   2.276   5.417
 4769TIP3    H114250   1.264   2.348   5.473
 4769TIP3    H214251   1.248   2.290   5.334
 4770TIP3   OH214252   2.240   3.713   3.556
 4770TIP3    H114253   2.147   3.693   3.563
 4770TIP3    H214254   2.244   3.793   3.503
 4771TIP3   OH214255   3.154   0.113   1.999
 4771TIP3    H114256   3.095   0.189   2.000
 4771TIP3    H214257   3.167   0.092   2.092
 4772TIP3   OH214258   5.471   1.337   5.632
 4772TIP3    H114259   5.384   1.377   5.642
 4772TIP3    H214260   5.455   1.262   5.573
 4773TIP3   OH214261   0.769   0.193   6.125
 4773TIP3    H114262   0.754   0.261   6.060
 4773TIP3    H214263   0.714   0.120   6.098
 4774TIP3   OH214264   6.913   1.698   3.558
 4774TIP3    H114265   6.966   1.677   3.480
 4774TIP3    H214266   6.975   1.691   3.631
 4775TIP3   OH214267   3.281   3.615   6.220
 4775TIP3    H114268   3.365   3.574   6.200
 4775TIP3    H214269   3.293   3.707   6.200
 4776TIP3   OH214270   1.999   5.865   2.760
 4776TIP3    H114271   1.915   5.911   2.757
 4776TIP3    H214272   1.976   5.773   2.773
 4777TIP3   OH214273   3.118   4.880   3.117
 4777TIP3    H114274   3.152   4.889   3.206
 4777TIP3    H214275   3.188   4.912   3.061
 4778TIP3   OH214276   4.545   6.985   2.489
 4778TIP3    H114277   4.492   6.906   2.504
 4778TIP3    H214278   4.586   6.970   2.404
 4779TIP3   OH214279   0.316   6.095   4.080
 4779TIP3    H114280   0.263   6.082   4.159
 4779TIP3    H214281   0.387   6.153   4.109
 4780TIP3   OH214282   1.120   3.555   3.405
 4780TIP3    H114283   1.132   3.537   3.312
 4780TIP3    H214284   1.107   3.468   3.445
 4781TIP3   OH214285   6.415   5.010   4.927
 4781TIP3    H114286   6.359   5.056   4.989
 4781TIP3    H214287   6.432   4.925   4.967
 4782TIP3   OH214288   7.488   1.667   0.830
 4782TIP3    H114289   7.439   1.613   0.892
 4782TIP3    H214290   7.435   1.747   0.821
 4783TIP3   OH214291   0.156   6.588   0.360
 4783TIP3    H114292   0.224   6.562   0.298
 4783TIP3    H214293   0.204   6.613   0.439
 4784TIP3   OH214294   5.544   4.668   0.464
 4784TIP3    H114295   5.601   4.746   0.462
 4784TIP3    H214296   5.456   4.703   0.452
 4785TIP3   OH214297   2.113   5.599   0.523
 4785TIP3    H114298   2.095   5.645   0.441
 4785TIP3    H214299   2.208   5.588   0.524
 4786TIP3   OH214300   7.344   7.764   2.275
 4786TIP3    H114301   7.437   7.747   2.288
 4786TIP3    H214302   7.299   7.701   2.331
 4787TIP3   OH214303   1.626   4.343   3.646
 4787TIP3    H114304   1.671   4.272   3.601
 4787TIP3    H214305   1.568   4.300   3.708
 4788TIP3   OH214306   3.141   1.423   1.335
 4788TIP3    H114307   3.057   1.451   1.300
 4788TIP3    H214308   3.164   1.490   1.399
 4789TIP3   OH214309   5.169   3.741   2.627
 4789TIP3    H114310   5.259   3.721   2.603
 4789TIP3    H214311   5.170   3.748   2.722
 4790TIP3   OH214312   1.029   3.881   2.926
 4790TIP3    H114313   0.960   3.815   2.935
 4790TIP3    H214314   1.002   3.951   2.986
 4791TIP3   OH214315   7.073   7.047   1.391
 4791TIP3    H114316   7.144   7.068   1.453
 4791TIP3    H214317   7.003   7.107   1.413
 4792TIP3   OH214318   3.000   7.734   5.120
 4792TIP3    H114319   2.964   7.658   5.166
 4792TIP3    H214320   2.967   7.725   5.031
 4793TIP3   OH214321   7.113   0.065   3.037
 4793TIP3    H114322   7.072  -0.014   3.001
 4793TIP3    H214323   7.186   0.083   2.979
 4794TIP3   OH214324   3.118   1.841   5.175
 4794TIP3    H114325   3.166   1.920   5.200
 4794TIP3    H214326   3.181   1.790   5.124
 4795TIP3   OH214327   1.043   3.413   0.493
 4795TIP3    H114328   1.056   3.323   0.461
 4795TIP3    H214329   0.975   3.449   0.436
 4796TIP3   OH214330   2.391   5.235   4.253
 4796TIP3    H114331   2.349   5.205   4.333
 4796TIP3    H214332   2.342   5.193   4.182
 4797TIP3   OH214333   7.188   4.277   4.867
 4797TIP3    H114334   7.185   4.258   4.960
 4797TIP3    H214335   7.268   4.235   4.836
 4798TIP3   OH214336   1.345   4.225   5.357
 4798TIP3    H114337   1.351   4.286   5.284
 4798TIP3    H214338   1.252   4.206   5.365
 4799TIP3   OH214339   6.486   4.429   1.839
 4799TIP3    H114340   6.539   4.467   1.769
 4799TIP3    H214341   6.398   4.464   1.824
 4800TIP3   OH214342   1.261   6.745   2.162
 4800TIP3    H114343   1.236   6.830   2.200
 4800TIP3    H214344   1.230   6.680   2.225
 4801TIP3   OH214345   0.678   2.727   6.648
 4801TIP3    H114346   0.674   2.823   6.651
 4801TIP3    H214347   0.709   2.702   6.735
 4802TIP3   OH214348   2.187   3.321   1.822
 4802TIP3    H114349   2.276   3.355   1.832
 4802TIP3    H214350   2.167   3.330   1.729
 4803TIP3   OH214351   5.282   7.786   0.608
 4803TIP3    H114352   5.345   7.811   0.541
 4803TIP3    H214353   5.233   7.712   0.570
 4804TIP3   OH214354   8.203   5.793   2.990
 4804TIP3    H114355   8.123   5.836   3.020
 4804TIP3    H214356   8.232   5.742   3.065
 4805TIP3   OH214357   3.946   3.351   3.249
 4805TIP3    H114358   3.878   3.353   3.316
 4805TIP3    H214359   3.905   3.391   3.172
 4806TIP3   OH214360   3.798   4.036   6.054
 4806TIP3    H114361   3.810   3.964   6.117
 4806TIP3    H214362   3.838   4.111   6.097
 4807TIP3   OH214363   3.340   3.345   2.519
 4807TIP3    H114364   3.271   3.321   2.457
 4807TIP3    H214365   3.390   3.413   2.474
 4808TIP3   OH214366   1.933   1.762   4.448
 4808TIP3    H114367   1.995   1.757   4.520
 4808TIP3    H214368   1.856   1.713   4.479
 4809TIP3   OH214369   0.133   0.514   5.654
 4809TIP3    H114370   0.212   0.531   5.706
 4809TIP3    H214371   0.064   0.561   5.701
 4810TIP3   OH214372   7.700   6.221   4.262
 4810TIP3    H114373   7.667   6.135   4.287
 4810TIP3    H214374   7.703   6.271   4.343
 4811TIP3   OH214375   6.150   3.821   2.646
 4811TIP3    H114376   6.149   3.730   2.673
 4811TIP3    H214377   6.166   3.819   2.552
 4812TIP3   OH214378   7.722   6.478   5.989
 4812TIP3    H114379   7.638   6.432   5.989
 4812TIP3    H214380   7.750   6.477   5.897
 4813TIP3   OH214381   4.229   6.764   2.859
 4813TIP3    H114382   4.196   6.768   2.769
 4813TIP3    H214383   4.258   6.853   2.879
 4814TIP3   OH214384   4.051   6.526   1.531
 4814TIP3    H114385   4.029   6.547   1.440
 4814TIP3    H214386   4.032   6.433   1.539
 4815TIP3   OH214387   7.506   0.527   5.609
 4815TIP3    H114388   7.511   0.444   5.562
 4815TIP3    H214389   7.597   0.546   5.635
 4816TIP3   OH214390   1.661   6.919   5.113
 4816TIP3    H114391   1.738   6.911   5.170
 4816TIP3    H214392   1.590   6.880   5.164
 4817TIP3   OH214393   7.213   4.357   6.284
 4817TIP3    H114394   7.162   4.285   6.247
 4817TIP3    H214395   7.259   4.394   6.208
 4818TIP3   OH214396   6.573   7.792   1.272
 4818TIP3    H114397   6.622   7.790   1.190
 4818TIP3    H214398   6.550   7.700   1.289
 4819TIP3   OH214399   1.013   2.650   0.281
 4819TIP3    H114400   0.953   2.599   0.336
 4819TIP3    H214401   1.073   2.691   0.343
 4820TIP3   OH214402   1.702   5.637   5.055
 4820TIP3    H114403   1.785   5.610   5.016
 4820TIP3    H214404   1.648   5.664   4.981
 4821TIP3   OH214405   1.558   3.750   1.523
 4821TIP3    H114406   1.621   3.817   1.496
 4821TIP3    H214407   1.543   3.768   1.616
 4822TIP3   OH214408   3.065   6.216   0.512
 4822TIP3    H114409   3.022   6.296   0.482
 4822TIP3    H214410   3.009   6.146   0.478
 4823TIP3   OH214411   1.603   6.502   5.268
 4823TIP3    H114412   1.641   6.427   5.313
 4823TIP3    H214413   1.611   6.481   5.175
 4824TIP3   OH214414   1.477   1.662   4.171
 4824TIP3    H114415   1.491   1.724   4.099
 4824TIP3    H214416   1.383   1.644   4.169
 4825TIP3   OH214417   5.746   0.662   3.337
 4825TIP3    H114418   5.764   0.626   3.423
 4825TIP3    H214419   5.665   0.619   3.309
 4826TIP3   OH214420   3.934   0.036   5.745
 4826TIP3    H114421   4.011   0.058   5.693
 4826TIP3    H214422   3.967   0.026   5.835
 4827TIP3   OH214423   0.087   7.016   0.620
 4827TIP3    H114424   0.034   7.019   0.700
 4827TIP3    H214425   0.048   6.946   0.568
 4828TIP3   OH214426   6.100   0.244   2.955
 4828TIP3    H114427   6.118   0.335   2.980
 4828TIP3    H214428   6.058   0.206   3.032
 4829TIP3   OH214429   6.154   3.625   4.757
 4829TIP3    H114430   6.194   3.538   4.759
 4829TIP3    H214431   6.197   3.673   4.827
 4830TIP3   OH214432   5.574   6.676   3.311
 4830TIP3    H114433   5.598   6.768   3.325
 4830TIP3    H214434   5.578   6.636   3.397
 4831TIP3   OH214435   6.385   4.253   4.258
 4831TIP3    H114436   6.304   4.301   4.241
 4831TIP3    H214437   6.455   4.316   4.239
 4832TIP3   OH214438   6.518   0.528   0.220
 4832TIP3    H114439   6.536   0.442   0.259
 4832TIP3    H214440   6.457   0.569   0.281
 4833TIP3   OH214441   0.545   1.927   1.649
 4833TIP3    H114442   0.511   1.837   1.642
 4833TIP3    H214443   0.483   1.979   1.598
 4834TIP3   OH214444   1.029   3.093   0.446
 4834TIP3    H114445   0.959   3.082   0.382
 4834TIP3    H214446   1.002   3.042   0.522
 4835TIP3   OH214447   7.929   5.179   0.400
 4835TIP3    H114448   7.853   5.155   0.347
 4835TIP3    H214449   7.937   5.274   0.389
 4836TIP3   OH214450   8.112   0.720   0.959
 4836TIP3    H114451   8.145   0.757   1.041
 4836TIP3    H214452   8.175   0.650   0.938
 4837TIP3   OH214453   0.412   5.754   0.820
 4837TIP3    H114454   0.395   5.822   0.886
 4837TIP3    H214455   0.377   5.674   0.858
 4838TIP3   OH214456   7.651   0.610   2.067
 4838TIP3    H114457   7.696   0.526   2.063
 4838TIP3    H214458   7.708   0.667   2.118
 4839TIP3   OH214459   1.063   6.533   2.646
 4839TIP3    H114460   1.076   6.606   2.586
 4839TIP3    H214461   1.107   6.459   2.605
 4840TIP3   OH214462   2.344   7.662   6.492
 4840TIP3    H114463   2.416   7.599   6.500
 4840TIP3    H214464   2.324   7.687   6.582
 4841TIP3   OH214465   1.090   1.900   1.601
 4841TIP3    H114466   1.123   1.855   1.524
 4841TIP3    H214467   0.996   1.906   1.588
 4842TIP3   OH214468   6.986   6.749   1.609
 4842TIP3    H114469   6.900   6.719   1.580
 4842TIP3    H214470   6.969   6.796   1.690
 4843TIP3   OH214471   4.859   7.735   6.396
 4843TIP3    H114472   4.893   7.802   6.337
 4843TIP3    H214473   4.776   7.708   6.356
 4844TIP3   OH214474   5.747   7.626   4.468
 4844TIP3    H114475   5.746   7.672   4.552
 4844TIP3    H214476   5.744   7.533   4.491
 4845TIP3   OH214477   7.798   1.763   3.109
 4845TIP3    H114478   7.763   1.770   3.198
 4845TIP3    H214479   7.885   1.803   3.114
 4846TIP3   OH214480   3.992   0.711   4.211
 4846TIP3    H114481   4.027   0.786   4.259
 4846TIP3    H214482   3.975   0.744   4.123
 4847TIP3   OH214483   1.701   1.670   6.091
 4847TIP3    H114484   1.662   1.752   6.120
 4847TIP3    H214485   1.686   1.668   5.997
 4848TIP3   OH214486   7.601   4.891   2.069
 4848TIP3    H114487   7.656   4.969   2.068
 4848TIP3    H214488   7.553   4.896   2.152
 4849TIP3   OH214489   1.810   4.415   5.944
 4849TIP3    H114490   1.831   4.481   5.878
 4849TIP3    H214491   1.880   4.422   6.009
 4850TIP3   OH214492   0.157   3.606   6.150
 4850TIP3    H114493   0.069   3.631   6.121
 4850TIP3    H214494   0.167   3.649   6.234
 4851TIP3   OH214495   6.134   0.769   0.844
 4851TIP3    H114496   6.068   0.823   0.801
 4851TIP3    H214497   6.107   0.679   0.825
 4852TIP3   OH214498   1.304   5.210   0.030
 4852TIP3    H114499   1.324   5.267  -0.043
 4852TIP3    H214500   1.379   5.218   0.089
 4853TIP3   OH214501   2.174   2.359   3.796
 4853TIP3    H114502   2.134   2.324   3.876
 4853TIP3    H214503   2.101   2.367   3.734
 4854TIP3   OH214504   2.425   3.977   2.794
 4854TIP3    H114505   2.380   4.055   2.760
 4854TIP3    H214506   2.391   3.905   2.743
 4855TIP3   OH214507   2.364   6.555   4.217
 4855TIP3    H114508   2.449   6.547   4.173
 4855TIP3    H214509   2.381   6.608   4.294
 4856TIP3   OH214510   6.638   5.186   2.663
 4856TIP3    H114511   6.634   5.215   2.572
 4856TIP3    H214512   6.549   5.200   2.696
 4857TIP3   OH214513   6.037   0.733   0.236
 4857TIP3    H114514   5.948   0.759   0.262
 4857TIP3    H214515   6.094   0.780   0.297
 4858TIP3   OH214516   3.280   4.257   3.718
 4858TIP3    H114517   3.213   4.188   3.718
 4858TIP3    H214518   3.320   4.252   3.632
 4859TIP3   OH214519   4.562   5.051   0.914
 4859TIP3    H114520   4.618   5.093   0.850
 4859TIP3    H214521   4.479   5.098   0.910
 4860TIP3   OH214522   5.753   1.144   2.624
 4860TIP3    H114523   5.836   1.169   2.584
 4860TIP3    H214524   5.776   1.114   2.712
 4861TIP3   OH214525   6.401   5.008   1.367
 4861TIP3    H114526   6.353   5.079   1.410
 4861TIP3    H214527   6.484   5.003   1.415
 4862TIP3   OH214528   5.300   4.848   0.099
 4862TIP3    H114529   5.387   4.851   0.058
 4862TIP3    H214530   5.301   4.919   0.163
 4863TIP3   OH214531   4.354   7.501   3.121
 4863TIP3    H114532   4.395   7.442   3.058
 4863TIP3    H214533   4.291   7.551   3.069
 4864TIP3   OH214534   7.093   0.055   1.392
 4864TIP3    H114535   7.111   0.025   1.481
 4864TIP3    H214536   7.170   0.030   1.342
 4865TIP3   OH214537   5.978   1.840   5.552
 4865TIP3    H114538   6.016   1.774   5.493
 4865TIP3    H214539   6.044   1.852   5.620
 4866TIP3   OH214540   7.997   4.615   6.098
 4866TIP3    H114541   8.077   4.570   6.125
 4866TIP3    H214542   7.952   4.552   6.042
 4867TIP3   OH214543   4.213   5.393   3.984
 4867TIP3    H114544   4.208   5.454   3.910
 4867TIP3    H214545   4.300   5.354   3.976
 4868TIP3   OH214546   7.248   1.078   3.700
 4868TIP3    H114547   7.213   1.014   3.638
 4868TIP3    H214548   7.248   1.161   3.652
 4869TIP3   OH214549   4.467   0.316   3.116
 4869TIP3    H114550   4.377   0.330   3.085
 4869TIP3    H214551   4.521   0.351   3.046
 4870TIP3   OH214552   7.613   3.084   6.495
 4870TIP3    H114553   7.704   3.108   6.477
 4870TIP3    H214554   7.619   3.005   6.548
 4871TIP3   OH214555   3.829   5.658   5.133
 4871TIP3    H114556   3.829   5.650   5.228
 4871TIP3    H214557   3.745   5.620   5.106
 4872TIP3   OH214558   5.023   4.022   6.480
 4872TIP3    H114559   5.117   4.039   6.481
 4872TIP3    H214560   4.996   4.038   6.390
 4873TIP3   OH214561   6.387   6.687   6.169
 4873TIP3    H114562   6.392   6.596   6.196
 4873TIP3    H214563   6.330   6.728   6.234
 4874TIP3   OH214564   6.847   1.208   2.973
 4874TIP3    H114565   6.859   1.145   2.902
 4874TIP3    H214566   6.855   1.155   3.053
 4875TIP3   OH214567   4.643   7.328   1.260
 4875TIP3    H114568   4.681   7.367   1.339
 4875TIP3    H214569   4.638   7.400   1.197
 4876TIP3   OH214570   3.438   5.958   6.283
 4876TIP3    H114571   3.356   6.004   6.304
 4876TIP3    H214572   3.504   6.028   6.281
 4877TIP3   OH214573   5.398   3.774   5.474
 4877TIP3    H114574   5.371   3.852   5.522
 4877TIP3    H214575   5.436   3.808   5.393
 4878TIP3   OH214576   8.175   1.133   3.503
 4878TIP3    H114577   8.185   1.227   3.519
 4878TIP3    H214578   8.087   1.124   3.468
 4879TIP3   OH214579   7.785   0.551   5.731
 4879TIP3    H114580   7.847   0.577   5.663
 4879TIP3    H214581   7.813   0.599   5.809
 4880TIP3   OH214582   1.567   1.972   1.670
 4880TIP3    H114583   1.577   1.916   1.747
 4880TIP3    H214584   1.572   2.061   1.705
 4881TIP3   OH214585   6.356   0.615   3.211
 4881TIP3    H114586   6.335   0.700   3.173
 4881TIP3    H214587   6.434   0.631   3.264
 4882TIP3   OH214588   2.095   4.748   3.123
 4882TIP3    H114589   2.163   4.683   3.135
 4882TIP3    H214590   2.140   4.832   3.133
 4883TIP3   OH214591   2.569   3.285   5.243
 4883TIP3    H114592   2.516   3.236   5.179
 4883TIP3    H214593   2.621   3.217   5.286
 4884TIP3   OH214594   7.129   7.045   5.324
 4884TIP3    H114595   7.126   7.057   5.229
 4884TIP3    H214596   7.060   7.102   5.358
 4885TIP3   OH214597   5.858   2.059   0.864
 4885TIP3    H114598   5.861   1.972   0.826
 4885TIP3    H214599   5.790   2.054   0.931
 4886TIP3   OH214600   7.515   1.924   3.954
 4886TIP3    H114601   7.567   1.968   3.887
 4886TIP3    H214602   7.579   1.879   4.009
 4887TIP3   OH214603   7.540   1.204   5.912
 4887TIP3    H114604   7.527   1.110   5.912
 4887TIP3    H214605   7.624   1.217   5.868
 4888TIP3   OH214606   5.890   3.609   0.080
 4888TIP3    H114607   5.882   3.697   0.043
 4888TIP3    H214608   5.984   3.597   0.094
 4889TIP3   OH214609   6.474   3.004   6.393
 4889TIP3    H114610   6.389   3.003   6.438
 4889TIP3    H214611   6.523   2.932   6.434
 4890TIP3   OH214612   5.313   6.412   6.348
 4890TIP3    H114613   5.376   6.366   6.404
 4890TIP3    H214614   5.228   6.377   6.374
 4891TIP3   OH214615   0.396   3.523   4.513
 4891TIP3    H114616   0.447   3.586   4.564
 4891TIP3    H214617   0.398   3.559   4.424
 4892TIP3   OH214618   1.959   2.770   5.283
 4892TIP3    H114619   1.927   2.859   5.270
 4892TIP3    H214620   2.054   2.777   5.271
 4893TIP3   OH214621   5.273   4.130   2.379
 4893TIP3    H114622   5.329   4.203   2.352
 4893TIP3    H214623   5.334   4.066   2.415
 4894TIP3   OH214624   3.619   4.858   3.752
 4894TIP3    H114625   3.656   4.841   3.838
 4894TIP3    H214626   3.568   4.938   3.763
 4895TIP3   OH214627   5.110   4.790   6.665
 4895TIP3    H114628   5.107   4.711   6.612
 4895TIP3    H214629   5.195   4.829   6.646
 4896TIP3   OH214630   1.871   1.566   5.731
 4896TIP3    H114631   1.953   1.600   5.696
 4896TIP3    H214632   1.837   1.511   5.661
 4897TIP3   OH214633   1.035   5.403   3.166
 4897TIP3    H114634   1.082   5.444   3.093
 4897TIP3    H214635   1.025   5.312   3.139
 4898TIP3   OH214636   2.333   4.131   4.241
 4898TIP3    H114637   2.337   4.206   4.300
 4898TIP3    H214638   2.394   4.154   4.170
 4899TIP3   OH214639   6.198   5.185   6.065
 4899TIP3    H114640   6.256   5.243   6.017
 4899TIP3    H214641   6.234   5.097   6.052
 4900TIP3   OH214642   4.149   1.664   1.952
 4900TIP3    H114643   4.185   1.703   2.031
 4900TIP3    H214644   4.115   1.579   1.981
 4901TIP3   OH214645   3.647   2.827   0.503
 4901TIP3    H114646   3.723   2.796   0.554
 4901TIP3    H214647   3.685   2.857   0.421
 4902TIP3   OH214648   2.237   1.964   3.583
 4902TIP3    H114649   2.151   1.957   3.541
 4902TIP3    H214650   2.218   1.995   3.672
 4903TIP3   OH214651   6.148   1.863   6.301
 4903TIP3    H114652   6.098   1.810   6.239
 4903TIP3    H214653   6.146   1.812   6.383
 4904TIP3   OH214654   5.021   3.599   5.870
 4904TIP3    H114655   5.033   3.662   5.799
 4904TIP3    H214656   5.083   3.626   5.938
 4905TIP3   OH214657   8.210   7.388   4.416
 4905TIP3    H114658   8.233   7.312   4.470
 4905TIP3    H214659   8.284   7.398   4.357
 4906TIP3   OH214660   2.170   3.898   6.652
 4906TIP3    H114661   2.143   3.817   6.695
 4906TIP3    H214662   2.253   3.921   6.693
 4907TIP3   OH214663   7.193   4.862   3.891
 4907TIP3    H114664   7.286   4.878   3.874
 4907TIP3    H214665   7.187   4.767   3.901
 4908TIP3   OH214666   5.052   1.152   2.096
 4908TIP3    H114667   4.960   1.125   2.098
 4908TIP3    H214668   5.097   1.079   2.053
 4909TIP3   OH214669   2.091   5.335   1.806
 4909TIP3    H114670   2.186   5.329   1.813
 4909TIP3    H214671   2.061   5.244   1.814
 4910TIP3   OH214672   6.743   4.786   4.836
 4910TIP3    H114673   6.665   4.806   4.888
 4910TIP3    H214674   6.708   4.763   4.750
 4911TIP3   OH214675   1.964   2.861   4.203
 4911TIP3    H114676   1.962   2.866   4.299
 4911TIP3    H214677   2.057   2.864   4.181
 4912TIP3   OH214678   1.849   0.537   2.025
 4912TIP3    H114679   1.834   0.629   2.046
 4912TIP3    H214680   1.763   0.504   2.000
 4913TIP3   OH214681   7.886   4.034   0.693
 4913TIP3    H114682   7.796   4.013   0.718
 4913TIP3    H214683   7.931   3.949   0.694
 4914TIP3   OH214684   1.609   2.415   2.637
 4914TIP3    H114685   1.629   2.494   2.588
 4914TIP3    H214686   1.523   2.432   2.677
 4915TIP3   OH214687   2.447   1.148   4.811
 4915TIP3    H114688   2.449   1.174   4.903
 4915TIP3    H214689   2.398   1.217   4.767
 4916TIP3   OH214690   2.021   2.678   6.520
 4916TIP3    H114691   2.033   2.668   6.426
 4916TIP3    H214692   2.105   2.652   6.558
 4917TIP3   OH214693   1.123   4.287   5.132
 4917TIP3    H114694   1.093   4.337   5.056
 4917TIP3    H214695   1.182   4.220   5.096
 4918TIP3   OH214696   3.685   2.348   4.758
 4918TIP3    H114697   3.742   2.272   4.770
 4918TIP3    H214698   3.605   2.326   4.807
 4919TIP3   OH214699   7.595   0.499   6.347
 4919TIP3    H114700   7.587   0.424   6.406
 4919TIP3    H214701   7.506   0.530   6.334
 4920TIP3   OH214702   2.473   6.451   4.583
 4920TIP3    H114703   2.405   6.386   4.597
 4920TIP3    H214704   2.426   6.530   4.557
 4921TIP3   OH214705   0.670   3.978   0.896
 4921TIP3    H114706   0.731   4.022   0.955
 4921TIP3    H214707   0.678   3.886   0.918
 4922TIP3   OH214708   0.402   6.059   1.665
 4922TIP3    H114709   0.485   6.012   1.670
 4922TIP3    H214710   0.344   5.999   1.618
 4923TIP3   OH214711   6.326   3.644   0.581
 4923TIP3    H114712   6.340   3.738   0.588
 4923TIP3    H214713   6.411   3.609   0.555
 4924TIP3   OH214714   0.228   2.790   3.545
 4924TIP3    H114715   0.179   2.872   3.555
 4924TIP3    H214716   0.277   2.802   3.464
 4925TIP3   OH214717   3.567   5.218   0.659
 4925TIP3    H114718   3.557   5.137   0.608
 4925TIP3    H214719   3.534   5.287   0.602
 4926TIP3   OH214720   5.515   4.387   0.965
 4926TIP3    H114721   5.553   4.375   0.878
 4926TIP3    H214722   5.589   4.378   1.025
 4927TIP3   OH214723   4.408   5.907   2.350
 4927TIP3    H114724   4.314   5.892   2.355
 4927TIP3    H214725   4.417   5.989   2.301
 4928TIP3   OH214726   5.250   1.445   3.844
 4928TIP3    H114727   5.339   1.475   3.824
 4928TIP3    H214728   5.259   1.398   3.927
 4929TIP3   OH214729   5.391   2.745   0.245
 4929TIP3    H114730   5.403   2.792   0.163
 4929TIP3    H214731   5.478   2.712   0.267
 4930TIP3   OH214732   3.847  -0.005   4.644
 4930TIP3    H114733   3.763  -0.049   4.658
 4930TIP3    H214734   3.834   0.082   4.683
 4931TIP3   OH214735   5.611   4.424   5.349
 4931TIP3    H114736   5.704   4.421   5.323
 4931TIP3    H214737   5.603   4.505   5.399
 4932TIP3   OH214738   1.333   5.339   2.235
 4932TIP3    H114739   1.377   5.254   2.241
 4932TIP3    H214740   1.287   5.348   2.318
 4933TIP3   OH214741   4.499   0.015   2.764
 4933TIP3    H114742   4.561   0.086   2.783
 4933TIP3    H214743   4.527  -0.019   2.679
 4934TIP3   OH214744   3.765   3.731   0.728
 4934TIP3    H114745   3.808   3.716   0.643
 4934TIP3    H214746   3.695   3.666   0.731
 4935TIP3   OH214747   0.441   3.301   4.756
 4935TIP3    H114748   0.464   3.350   4.677
 4935TIP3    H214749   0.348   3.280   4.745
 4936TIP3   OH214750   2.359   7.303   1.918
 4936TIP3    H114751   2.420   7.231   1.902
 4936TIP3    H214752   2.274   7.260   1.928
 4937TIP3   OH214753   3.184   2.152   0.484
 4937TIP3    H114754   3.119   2.211   0.446
 4937TIP3    H214755   3.160   2.065   0.453
 4938TIP3   OH214756   5.641   1.399   3.006
 4938TIP3    H114757   5.681   1.405   3.093
 4938TIP3    H214758   5.714   1.391   2.946
 4939TIP3   OH214759   7.857   3.353   1.727
 4939TIP3    H114760   7.791   3.339   1.659
 4939TIP3    H214761   7.813   3.332   1.809
 4940TIP3   OH214762   2.153   5.139   5.741
 4940TIP3    H114763   2.180   5.230   5.753
 4940TIP3    H214764   2.128   5.110   5.829
 4941TIP3   OH214765   8.108   2.534   2.727
 4941TIP3    H114766   8.150   2.451   2.706
 4941TIP3    H214767   8.032   2.510   2.779
 4942TIP3   OH214768   6.420   3.805   6.302
 4942TIP3    H114769   6.393   3.713   6.312
 4942TIP3    H214770   6.452   3.810   6.211
 4943TIP3   OH214771   3.084   5.590   3.022
 4943TIP3    H114772   3.089   5.645   2.944
 4943TIP3    H214773   3.136   5.637   3.088
 4944TIP3   OH214774   4.380   5.230   5.852
 4944TIP3    H114775   4.316   5.180   5.801
 4944TIP3    H214776   4.424   5.164   5.906
 4945TIP3   OH214777   2.086   0.585   5.977
 4945TIP3    H114778   2.147   0.512   5.968
 4945TIP3    H214779   2.075   0.594   6.072
 4946TIP3   OH214780   4.608   6.733   5.532
 4946TIP3    H114781   4.524   6.718   5.487
 4946TIP3    H214782   4.671   6.741   5.461
 4947TIP3   OH214783   2.788   3.942   6.326
 4947TIP3    H114784   2.839   3.913   6.402
 4947TIP3    H214785   2.775   4.036   6.340
 4948TIP3   OH214786   7.822   1.524   5.079
 4948TIP3    H114787   7.802   1.439   5.039
 4948TIP3    H214788   7.746   1.543   5.134
 4949TIP3   OH214789   7.092   4.592   5.073
 4949TIP3    H114790   7.004   4.571   5.044
 4949TIP3    H214791   7.096   4.562   5.164
 4950TIP3   OH214792   3.518   7.668   2.801
 4950TIP3    H114793   3.483   7.757   2.798
 4950TIP3    H214794   3.440   7.612   2.794
 4951TIP3   OH214795   3.384   2.434   1.351
 4951TIP3    H114796   3.335   2.516   1.341
 4951TIP3    H214797   3.460   2.458   1.403
 4952TIP3   OH214798   3.452   4.398   5.581
 4952TIP3    H114799   3.459   4.371   5.672
 4952TIP3    H214800   3.474   4.319   5.531
 4953TIP3   OH214801   3.010   2.504   6.581
 4953TIP3    H114802   3.086   2.469   6.626
 4953TIP3    H214803   2.941   2.505   6.648
 4954TIP3   OH214804   5.044   0.112   1.811
 4954TIP3    H114805   5.020   0.104   1.719
 4954TIP3    H214806   5.118   0.173   1.811
 4955TIP3   OH214807   4.222   2.867   4.599
 4955TIP3    H114808   4.276   2.808   4.547
 4955TIP3    H214809   4.273   2.883   4.678
 4956TIP3   OH214810   0.591   5.645   1.606
 4956TIP3    H114811   0.518   5.584   1.613
 4956TIP3    H214812   0.669   5.591   1.620
 4957TIP3   OH214813   8.092   3.009   4.397
 4957TIP3    H114814   8.161   3.025   4.333
 4957TIP3    H214815   8.039   3.089   4.397
 4958TIP3   OH214816   2.142   6.508   5.447
 4958TIP3    H114817   2.224   6.462   5.426
 4958TIP3    H214818   2.074   6.442   5.433
 4959TIP3   OH214819   5.787   1.798   0.238
 4959TIP3    H114820   5.706   1.844   0.257
 4959TIP3    H214821   5.807   1.748   0.317
 4960TIP3   OH214822   0.748   0.103   5.313
 4960TIP3    H114823   0.703   0.187   5.304
 4960TIP3    H214824   0.796   0.092   5.230
 4961TIP3   OH214825   2.652   4.065   2.699
 4961TIP3    H114826   2.648   4.007   2.623
 4961TIP3    H214827   2.575   4.042   2.751
 4962TIP3   OH214828   5.862   7.245   5.023
 4962TIP3    H114829   5.954   7.222   5.025
 4962TIP3    H214830   5.843   7.276   5.112
 4963TIP3   OH214831   6.679   5.129   5.532
 4963TIP3    H114832   6.762   5.095   5.497
 4963TIP3    H214833   6.636   5.053   5.571
 4964TIP3   OH214834   3.602   5.362   3.809
 4964TIP3    H114835   3.519   5.365   3.857
 4964TIP3    H214836   3.638   5.451   3.818
 4965TIP3   OH214837   7.051   5.244   3.831
 4965TIP3    H114838   7.118   5.202   3.885
 4965TIP3    H214839   7.078   5.225   3.741
 4966TIP3   OH214840   7.292   3.422   5.143
 4966TIP3    H114841   7.288   3.397   5.050
 4966TIP3    H214842   7.378   3.393   5.172
 4967TIP3   OH214843   3.285   3.253   0.817
 4967TIP3    H114844   3.203   3.298   0.795
 4967TIP3    H214845   3.259   3.162   0.832
 4968TIP3   OH214846   2.017   4.734   2.652
 4968TIP3    H114847   2.047   4.696   2.735
 4968TIP3    H214848   1.978   4.818   2.676
 4969TIP3   OH214849   1.506   3.720   5.991
 4969TIP3    H114850   1.500   3.641   6.045
 4969TIP3    H214851   1.421   3.763   6.002
 4970TIP3   OH214852   0.402   2.947   4.230
 4970TIP3    H114853   0.321   2.952   4.280
 4970TIP3    H214854   0.471   2.955   4.296
 4971TIP3   OH214855   1.890   7.124   4.054
 4971TIP3    H114856   1.900   7.182   4.130
 4971TIP3    H214857   1.884   7.036   4.092
 4972TIP3   OH214858   1.748   0.665   0.983
 4972TIP3    H114859   1.776   0.726   0.914
 4972TIP3    H214860   1.658   0.692   1.003
 4973TIP3   OH214861   4.835   5.877   3.604
 4973TIP3    H114862   4.746   5.858   3.574
 4973TIP3    H214863   4.824   5.950   3.664
 4974TIP3   OH214864   3.401   3.812   2.453
 4974TIP3    H114865   3.397   3.717   2.464
 4974TIP3    H214866   3.473   3.826   2.391
 4975TIP3   OH214867   5.164   1.645   0.283
 4975TIP3    H114868   5.151   1.617   0.192
 4975TIP3    H214869   5.088   1.612   0.330
 4976TIP3   OH214870   5.390   4.115   0.428
 4976TIP3    H114871   5.336   4.193   0.447
 4976TIP3    H214872   5.422   4.129   0.339
 4977TIP3   OH214873   2.238   2.218   6.408
 4977TIP3    H114874   2.251   2.129   6.376
 4977TIP3    H214875   2.175   2.208   6.480
 4978TIP3   OH214876   3.644   4.444   0.284
 4978TIP3    H114877   3.683   4.513   0.230
 4978TIP3    H214878   3.685   4.455   0.370
 4979TIP3   OH214879   4.944   1.316   6.295
 4979TIP3    H114880   5.022   1.344   6.248
 4979TIP3    H214881   4.973   1.240   6.345
 4980TIP3   OH214882   1.100   2.271   4.056
 4980TIP3    H114883   1.109   2.357   4.098
 4980TIP3    H214884   1.036   2.225   4.109
 4981TIP3   OH214885   6.721   0.505   1.332
 4981TIP3    H114886   6.742   0.532   1.421
 4981TIP3    H214887   6.744   0.412   1.328
 4982TIP3   OH214888   0.442   2.654   4.535
 4982TIP3    H114889   0.365   2.610   4.499
 4982TIP3    H214890   0.504   2.583   4.553
 4983TIP3   OH214891   5.416   5.560   2.950
 4983TIP3    H114892   5.492   5.505   2.970
 4983TIP3    H214893   5.343   5.516   2.994
 4984TIP3   OH214894   2.205   5.639   6.125
 4984TIP3    H114895   2.215   5.558   6.076
 4984TIP3    H214896   2.246   5.620   6.210
 4985TIP3   OH214897   6.532   5.657   5.835
 4985TIP3    H114898   6.512   5.727   5.897
 4985TIP3    H214899   6.453   5.603   5.835
 4986TIP3   OH214900   2.234   3.078   0.422
 4986TIP3    H114901   2.175   3.011   0.456
 4986TIP3    H214902   2.210   3.157   0.469
 4987TIP3   OH214903   1.692   0.740   4.993
 4987TIP3    H114904   1.722   0.712   4.907
 4987TIP3    H214905   1.737   0.683   5.054
 4988TIP3   OH214906   3.745   3.237   0.830
 4988TIP3    H114907   3.774   3.163   0.776
 4988TIP3    H214908   3.704   3.196   0.906
 4989TIP3   OH214909   3.086   7.628   6.067
 4989TIP3    H114910   3.145   7.626   5.991
 4989TIP3    H214911   3.009   7.580   6.038
 4990TIP3   OH214912   5.461   0.786   5.909
 4990TIP3    H114913   5.395   0.732   5.954
 4990TIP3    H214914   5.529   0.724   5.883
 4991TIP3   OH214915   4.104   3.651   4.720
 4991TIP3    H114916   4.081   3.589   4.652
 4991TIP3    H214917   4.199   3.647   4.726
 4992TIP3   OH214918   4.664   4.485   3.966
 4992TIP3    H114919   4.618   4.402   3.954
 4992TIP3    H214920   4.755   4.466   3.943
 4993TIP3   OH214921   7.124   3.463   4.563
 4993TIP3    H114922   7.093   3.444   4.652
 4993TIP3    H214923   7.081   3.545   4.539
 4994TIP3   OH214924   0.472   3.947   6.279
 4994TIP3    H114925   0.568   3.948   6.272
 4994TIP3    H214926   0.453   3.876   6.340
 4995TIP3   OH214927   5.835   6.355   6.630
 4995TIP3    H114928   5.921   6.345   6.670
 4995TIP3    H214929   5.838   6.439   6.585
 4996TIP3   OH214930   3.452   0.285   1.434
 4996TIP3    H114931   3.496   0.349   1.490
 4996TIP3    H214932   3.361   0.313   1.432
 4997TIP3   OH214933   2.022   3.315   5.514
 4997TIP3    H114934   2.103   3.365   5.507
 4997TIP3    H214935   2.010   3.277   5.427
 4998TIP3   OH214936   8.215   4.186   3.686
 4998TIP3    H114937   8.298   4.185   3.637
 4998TIP3    H214938   8.182   4.275   3.675
 4999TIP3   OH214939   0.777   6.416   5.976
 4999TIP3    H114940   0.682   6.411   5.986
 4999TIP3    H214941   0.806   6.325   5.974
 5000TIP3   OH214942   2.411   1.528   1.400
 5000TIP3    H114943   2.482   1.548   1.339
 5000TIP3    H214944   2.396   1.611   1.446
 5001TIP3   OH214945   4.544   0.301   5.282
 5001TIP3    H114946   4.526   0.210   5.306
 5001TIP3    H214947   4.458   0.339   5.265
 5002TIP3   OH214948   7.461   0.113   4.182
 5002TIP3    H114949   7.407   0.051   4.231
 5002TIP3    H214950   7.406   0.192   4.175
 5003TIP3   OH214951   1.663   3.864   0.094
 5003TIP3    H114952   1.650   3.956   0.119
 5003TIP3    H214953   1.681   3.867   0.000
 5004TIP3   OH214954   2.613   2.922   5.130
 5004TIP3    H114955   2.694   2.930   5.079
 5004TIP3    H214956   2.635   2.959   5.216
 5005TIP3   OH214957   7.314   1.510   2.061
 5005TIP3    H114958   7.223   1.496   2.085
 5005TIP3    H214959   7.312   1.535   1.969
 5006TIP3   OH214960   2.489   1.657   1.919
 5006TIP3    H114961   2.408   1.662   1.969
 5006TIP3    H214962   2.552   1.709   1.970
 5007TIP3   OH214963   2.824   0.320   1.419
 5007TIP3    H114964   2.785   0.327   1.332
 5007TIP3    H214965   2.767   0.259   1.466
 5008TIP3   OH214966   2.382   7.411   4.365
 5008TIP3    H114967   2.293   7.386   4.341
 5008TIP3    H214968   2.414   7.338   4.419
 5009TIP3   OH214969   0.819   0.424   5.550
 5009TIP3    H114970   0.758   0.370   5.500
 5009TIP3    H214971   0.886   0.362   5.581
 5010TIP3   OH214972   8.024   3.512   5.222
 5010TIP3    H114973   7.959   3.485   5.156
 5010TIP3    H214974   8.015   3.607   5.226
 5011TIP3   OH214975   0.684   2.494   4.557
 5011TIP3    H114976   0.717   2.458   4.474
 5011TIP3    H214977   0.747   2.562   4.581
 5012TIP3   OH214978   1.314   3.709   6.727
 5012TIP3    H114979   1.267   3.626   6.717
 5012TIP3    H214980   1.270   3.753   6.800
 5013TIP3   OH214981   3.554   2.103   3.218
 5013TIP3    H114982   3.525   2.018   3.185
 5013TIP3    H214983   3.512   2.166   3.159
 5014TIP3   OH214984   5.560   0.895   0.693
 5014TIP3    H114985   5.513   0.938   0.764
 5014TIP3    H214986   5.500   0.829   0.661
 5015TIP3   OH214987   1.062   1.327   4.861
 5015TIP3    H114988   1.138   1.341   4.804
 5015TIP3    H214989   1.003   1.273   4.808
 5016TIP3   OH214990   3.636   0.547   5.417
 5016TIP3    H114991   3.581   0.473   5.391
 5016TIP3    H214992   3.618   0.615   5.351
 5017TIP3   OH214993   7.588   4.303   3.306
 5017TIP3    H114994   7.525   4.238   3.337
 5017TIP3    H214995   7.672   4.272   3.341
 5018TIP3   OH214996   3.860   7.236   1.871
 5018TIP3    H114997   3.899   7.307   1.922
 5018TIP3    H214998   3.921   7.164   1.880
 5019TIP3   OH214999   2.125   4.176   5.760
 5019TIP3    H115000   2.059   4.107   5.747
 5019TIP3    H215001   2.091   4.251   5.710
 5020TIP3   OH215002   3.805   3.776   5.542
 5020TIP3    H115003   3.718   3.815   5.550
 5020TIP3    H215004   3.813   3.720   5.620
 5021TIP3   OH215005   8.275   2.062   4.953
 5021TIP3    H115006   8.223   1.986   4.979
 5021TIP3    H215007   8.213   2.135   4.953
 5022TIP3   OH215008   0.414   5.624   4.887
 5022TIP3    H115009   0.455   5.645   4.803
 5022TIP3    H215010   0.419   5.529   4.893
 5023TIP3   OH215011   1.433   6.370   3.314
 5023TIP3    H115012   1.449   6.461   3.290
 5023TIP3    H215013   1.421   6.372   3.409
 5024TIP3   OH215014   6.109   0.896   5.751
 5024TIP3    H115015   6.129   0.959   5.682
 5024TIP3    H215016   6.137   0.812   5.715
 5025TIP3   OH215017   5.006   5.838   1.036
 5025TIP3    H115018   5.002   5.761   1.093
 5025TIP3    H215019   4.964   5.908   1.086
 5026TIP3   OH215020   1.085   5.985   1.170
 5026TIP3    H115021   1.032   5.925   1.224
 5026TIP3    H215022   1.127   5.928   1.106
 5027TIP3   OH215023   2.064   1.515   0.965
 5027TIP3    H115024   2.097   1.452   1.029
 5027TIP3    H215025   2.035   1.462   0.891
 5028TIP3   OH215026   0.664   2.645   3.490
 5028TIP3    H115027   0.678   2.729   3.533
 5028TIP3    H215028   0.696   2.580   3.552
 5029TIP3   OH215029   3.521   7.707   4.612
 5029TIP3    H115030   3.537   7.617   4.638
 5029TIP3    H215031   3.531   7.757   4.693
 5030TIP3   OH215032   2.133   1.328   5.569
 5030TIP3    H115033   2.192   1.385   5.618
 5030TIP3    H215034   2.073   1.293   5.635
 5031TIP3   OH215035   5.233   3.901   1.896
 5031TIP3    H115036   5.168   3.970   1.911
 5031TIP3    H215037   5.216   3.870   1.807
 5032TIP3   OH215038   3.197   6.009   3.118
 5032TIP3    H115039   3.278   6.059   3.129
 5032TIP3    H215040   3.220   5.920   3.145
 5033TIP3   OH215041   0.374   3.093   6.449
 5033TIP3    H115042   0.358   3.164   6.387
 5033TIP3    H215043   0.456   3.053   6.420
 5034TIP3   OH215044   2.520   0.856   2.863
 5034TIP3    H115045   2.598   0.890   2.817
 5034TIP3    H215046   2.499   0.775   2.818
 5035TIP3   OH215047   4.913   3.434   0.164
 5035TIP3    H115048   4.862   3.496   0.218
 5035TIP3    H215049   4.983   3.404   0.222
 5036TIP3   OH215050   0.837   5.935   6.547
 5036TIP3    H115051   0.768   5.969   6.604
 5036TIP3    H215052   0.899   6.008   6.538
 5037TIP3   OH215053   4.419   6.290   1.896
 5037TIP3    H115054   4.367   6.210   1.882
 5037TIP3    H215055   4.359   6.351   1.937
 5038TIP3   OH215056   1.893   4.478   6.741
 5038TIP3    H115057   1.882   4.549   6.679
 5038TIP3    H215058   1.829   4.495   6.810
 5039TIP3   OH215059   2.211   5.066   4.831
 5039TIP3    H115060   2.122   5.085   4.863
 5039TIP3    H215061   2.250   5.012   4.899
 5040TIP3   OH215062   1.755   0.770   0.713
 5040TIP3    H115063   1.756   0.746   0.621
 5040TIP3    H215064   1.813   0.846   0.719
 5041TIP3   OH215065   7.509   1.721   1.309
 5041TIP3    H115066   7.460   1.706   1.228
 5041TIP3    H215067   7.448   1.697   1.379
 5042TIP3   OH215068   3.473   2.853   3.296
 5042TIP3    H115069   3.479   2.918   3.366
 5042TIP3    H215070   3.424   2.780   3.335
 5043TIP3   OH215071   5.389   5.749   4.111
 5043TIP3    H115072   5.443   5.791   4.044
 5043TIP3    H215073   5.373   5.661   4.076
 5044TIP3   OH215074   7.703   0.157   4.398
 5044TIP3    H115075   7.747   0.206   4.467
 5044TIP3    H215076   7.731   0.067   4.411
 5045TIP3   OH215077   2.423   3.082   4.949
 5045TIP3    H115078   2.476   3.002   4.946
 5045TIP3    H215079   2.397   3.090   5.040
 5046TIP3   OH215080   7.980   0.897   1.779
 5046TIP3    H115081   8.002   0.806   1.799
 5046TIP3    H215082   8.020   0.914   1.694
 5047TIP3   OH215083   6.210   1.569   5.639
 5047TIP3    H115084   6.223   1.627   5.713
 5047TIP3    H215085   6.279   1.593   5.577
 5048TIP3   OH215086   6.574   1.992   4.075
 5048TIP3    H115087   6.534   2.072   4.107
 5048TIP3    H215088   6.617   2.018   3.993
 5049TIP3   OH215089   1.007   7.103   4.092
 5049TIP3    H115090   1.047   7.155   4.023
 5049TIP3    H215091   0.930   7.154   4.118
 5050TIP3   OH215092   8.164   6.083   6.233
 5050TIP3    H115093   8.072   6.104   6.242
 5050TIP3    H215094   8.166   6.007   6.175
 5051TIP3   OH215095   1.612   7.440   2.950
 5051TIP3    H115096   1.559   7.506   2.905
 5051TIP3    H215097   1.600   7.360   2.899
 5052TIP3   OH215098   0.305   0.943   2.705
 5052TIP3    H115099   0.361   0.867   2.718
 5052TIP3    H215100   0.325   1.001   2.778
 5053TIP3   OH215101   6.882   2.193   6.617
 5053TIP3    H115102   6.915   2.276   6.583
 5053TIP3    H215103   6.962   2.144   6.639
 5054TIP3   OH215104   7.408   6.501   4.383
 5054TIP3    H115105   7.483   6.509   4.323
 5054TIP3    H215106   7.443   6.458   4.460
 5055TIP3   OH215107   7.852   0.518   3.972
 5055TIP3    H115108   7.906   0.587   4.010
 5055TIP3    H215109   7.779   0.509   4.033
 5056TIP3   OH215110   1.296   7.268   0.225
 5056TIP3    H115111   1.350   7.210   0.173
 5056TIP3    H215112   1.287   7.347   0.173
 5057TIP3   OH215113   6.072   0.313   4.694
 5057TIP3    H115114   5.982   0.279   4.698
 5057TIP3    H215115   6.086   0.330   4.601
 5058TIP3   OH215116   7.521   3.270   6.715
 5058TIP3    H115117   7.537   3.226   6.631
 5058TIP3    H215118   7.536   3.362   6.696
 5059TIP3   OH215119   6.272   6.864   1.462
 5059TIP3    H115120   6.199   6.841   1.520
 5059TIP3    H215121   6.231   6.910   1.389
 5060TIP3   OH215122   5.243   2.424   4.187
 5060TIP3    H115123   5.182   2.478   4.137
 5060TIP3    H215124   5.330   2.456   4.161
 5061TIP3   OH215125   2.946   7.719   6.568
 5061TIP3    H115126   2.897   7.800   6.564
 5061TIP3    H215127   2.948   7.687   6.478
 5062TIP3   OH215128   5.507   6.602   3.565
 5062TIP3    H115129   5.576   6.643   3.618
 5062TIP3    H215130   5.476   6.529   3.618
 5063TIP3   OH215131   7.124   2.287   4.316
 5063TIP3    H115132   7.041   2.249   4.346
 5063TIP3    H215133   7.181   2.212   4.300
 5064TIP3   OH215134   0.634   2.403   3.317
 5064TIP3    H115135   0.549   2.373   3.349
 5064TIP3    H215136   0.642   2.493   3.350
 5065TIP3   OH215137   6.001   0.197   0.636
 5065TIP3    H115138   5.985   0.289   0.612
 5065TIP3    H215139   5.921   0.151   0.608
 5066TIP3   OH215140   7.961   5.682   4.767
 5066TIP3    H115141   7.996   5.692   4.856
 5066TIP3    H215142   7.915   5.599   4.769
 5067TIP3   OH215143   0.530   7.742   5.357
 5067TIP3    H115144   0.439   7.753   5.385
 5067TIP3    H215145   0.527   7.750   5.262
 5068TIP3   OH215146   6.490   6.560   5.117
 5068TIP3    H115147   6.577   6.572   5.079
 5068TIP3    H215148   6.473   6.641   5.166
 5069TIP3   OH215149   7.046   6.283   3.075
 5069TIP3    H115150   7.110   6.223   3.113
 5069TIP3    H215151   7.098   6.352   3.034
 5070TIP3   OH215152   2.742   1.233   3.179
 5070TIP3    H115153   2.664   1.272   3.219
 5070TIP3    H215154   2.716   1.144   3.157
 5071TIP3   OH215155   6.934   5.460   0.881
 5071TIP3    H115156   6.854   5.470   0.830
 5071TIP3    H215157   6.940   5.367   0.900
 5072TIP3   OH215158   3.098   7.632   2.294
 5072TIP3    H115159   3.011   7.647   2.258
 5072TIP3    H215160   3.156   7.686   2.240
 5073TIP3   OH215161   7.235   5.265   6.229
 5073TIP3    H115162   7.178   5.244   6.155
 5073TIP3    H215163   7.204   5.209   6.300
 5074TIP3   OH215164   3.373   2.179   3.806
 5074TIP3    H115165   3.323   2.256   3.778
 5074TIP3    H215166   3.437   2.165   3.736
 5075TIP3   OH215167   3.442   5.758   1.041
 5075TIP3    H115168   3.537   5.763   1.038
 5075TIP3    H215169   3.413   5.849   1.042
 5076TIP3   OH215170   3.731   5.601   2.394
 5076TIP3    H115171   3.799   5.642   2.447
 5076TIP3    H215172   3.686   5.674   2.352
 5077TIP3   OH215173   6.906   2.409   6.333
 5077TIP3    H115174   6.881   2.468   6.262
 5077TIP3    H215175   6.823   2.390   6.378
 5078TIP3   OH215176   3.583   1.567   0.722
 5078TIP3    H115177   3.575   1.498   0.787
 5078TIP3    H215178   3.615   1.643   0.771
 5079TIP3   OH215179   6.752   3.852   3.900
 5079TIP3    H115180   6.686   3.815   3.959
 5079TIP3    H215181   6.814   3.895   3.959
 5080TIP3   OH215182   6.672   6.174   3.745
 5080TIP3    H115183   6.763   6.190   3.720
 5080TIP3    H215184   6.648   6.096   3.695
 5081TIP3   OH215185   6.807   1.938   6.491
 5081TIP3    H115186   6.834   1.960   6.402
 5081TIP3    H215187   6.769   2.020   6.525
 5082TIP3   OH215188   3.648   2.053   5.041
 5082TIP3    H115189   3.739   2.027   5.060
 5082TIP3    H215190   3.610   1.976   4.998
 5083TIP3   OH215191   6.997   2.596   3.450
 5083TIP3    H115192   7.086   2.624   3.426
 5083TIP3    H215193   7.010   2.523   3.510
 5084TIP3   OH215194   7.316   7.648   1.046
 5084TIP3    H115195   7.270   7.575   1.087
 5084TIP3    H215196   7.277   7.726   1.085
 5085TIP3   OH215197   7.743   2.549   0.916
 5085TIP3    H115198   7.778   2.636   0.899
 5085TIP3    H215199   7.666   2.564   0.971
 5086TIP3   OH215200   4.612   3.233   1.798
 5086TIP3    H115201   4.581   3.323   1.796
 5086TIP3    H215202   4.625   3.210   1.706
 5087TIP3   OH215203   5.004   2.766   0.580
 5087TIP3    H115204   5.007   2.786   0.674
 5087TIP3    H215205   5.083   2.808   0.544
 5088TIP3   OH215206   5.911   1.854   1.653
 5088TIP3    H115207   5.835   1.872   1.597
 5088TIP3    H215208   5.982   1.906   1.615
 5089TIP3   OH215209   5.792   5.425   5.582
 5089TIP3    H115210   5.789   5.492   5.651
 5089TIP3    H215211   5.833   5.469   5.508
 5090TIP3   OH215212   0.117   4.401   5.947
 5090TIP3    H115213   0.098   4.319   5.902
 5090TIP3    H215214   0.210   4.395   5.969
 5091TIP3   OH215215   1.148   6.681   1.926
 5091TIP3    H115216   1.094   6.758   1.905
 5091TIP3    H215217   1.202   6.709   2.000
 5092TIP3   OH215218   2.291   3.370   5.095
 5092TIP3    H115219   2.211   3.417   5.115
 5092TIP3    H215220   2.294   3.299   5.160
 5093TIP3   OH215221   2.702   7.790   1.929
 5093TIP3    H115222   2.744   7.867   1.891
 5093TIP3    H215223   2.737   7.716   1.879
 5094TIP3   OH215224   7.473   5.148   0.270
 5094TIP3    H115225   7.380   5.153   0.248
 5094TIP3    H215226   7.512   5.097   0.200
 5095TIP3   OH215227   8.188   2.824   3.439
 5095TIP3    H115228   8.157   2.840   3.350
 5095TIP3    H215229   8.152   2.897   3.490
 5096TIP3   OH215230   2.813   5.442   6.768
 5096TIP3    H115231   2.761   5.490   6.833
 5096TIP3    H215232   2.855   5.510   6.716
 5097TIP3   OH215233   3.085   2.960   3.176
 5097TIP3    H115234   3.166   2.917   3.152
 5097TIP3    H215235   3.104   3.054   3.168
 5098TIP3   OH215236   4.485   3.117   2.275
 5098TIP3    H115237   4.448   3.195   2.314
 5098TIP3    H215238   4.446   3.044   2.323
 5099TIP3   OH215239   3.475   5.259   6.065
 5099TIP3    H115240   3.570   5.263   6.056
 5099TIP3    H215241   3.455   5.318   6.138
 5100TIP3   OH215242   4.457   0.424   2.664
 5100TIP3    H115243   4.389   0.492   2.663
 5100TIP3    H215244   4.440   0.373   2.585
 5101TIP3   OH215245   3.593   2.478   4.114
 5101TIP3    H115246   3.579   2.462   4.021
 5101TIP3    H215247   3.510   2.513   4.146
 5102TIP3   OH215248   5.887   1.372   2.145
 5102TIP3    H115249   5.910   1.432   2.217
 5102TIP3    H215250   5.794   1.389   2.129
 5103TIP3   OH215251   7.306   0.700   5.649
 5103TIP3    H115252   7.376   0.642   5.620
 5103TIP3    H215253   7.282   0.750   5.571
 5104TIP3   OH215254   2.608   3.116   2.798
 5104TIP3    H115255   2.687   3.162   2.770
 5104TIP3    H215256   2.559   3.182   2.848
 5105TIP3   OH215257   2.294   4.354   0.401
 5105TIP3    H115258   2.378   4.376   0.440
 5105TIP3    H215259   2.281   4.261   0.423
 5106TIP3   OH215260   7.485   3.570   0.661
 5106TIP3    H115261   7.480   3.613   0.575
 5106TIP3    H215262   7.401   3.525   0.670
 5107TIP3   OH215263   4.993   2.882   1.995
 5107TIP3    H115264   4.988   2.904   1.902
 5107TIP3    H215265   5.036   2.957   2.035
 5108TIP3   OH215266   6.974   7.696   4.326
 5108TIP3    H115267   6.927   7.779   4.320
 5108TIP3    H215268   6.930   7.648   4.397
 5109TIP3   OH215269   4.541   3.498   1.768
 5109TIP3    H115270   4.451   3.508   1.797
 5109TIP3    H215271   4.575   3.588   1.761
 5110TIP3   OH215272   1.138   3.271   2.414
 5110TIP3    H115273   1.080   3.342   2.385
 5110TIP3    H215274   1.097   3.238   2.494
 5111TIP3   OH215275   1.179   7.446   2.190
 5111TIP3    H115276   1.150   7.436   2.281
 5111TIP3    H215277   1.236   7.524   2.192
 5112TIP3   OH215278   2.260   4.984   3.065
 5112TIP3    H115279   2.257   5.000   2.971
 5112TIP3    H215280   2.301   5.063   3.102
 5113TIP3   OH215281   3.194   6.086   1.910
 5113TIP3    H115282   3.175   6.024   1.980
 5113TIP3    H215283   3.162   6.043   1.831
 5114TIP3   OH215284   5.599   0.541   5.906
 5114TIP3    H115285   5.607   0.519   5.999
 5114TIP3    H215286   5.629   0.462   5.860
 5115TIP3   OH215287   2.999   7.330   1.657
 5115TIP3    H115288   2.960   7.277   1.587
 5115TIP3    H215289   2.935   7.399   1.673
 5116TIP3   OH215290   0.914   1.356   2.723
 5116TIP3    H115291   0.881   1.274   2.687
 5116TIP3    H215292   0.928   1.337   2.816
 5117TIP3   OH215293   3.358   7.364   1.313
 5117TIP3    H115294   3.452   7.367   1.326
 5117TIP3    H215295   3.322   7.338   1.397
 5118TIP3   OH215296   4.799   6.122   5.511
 5118TIP3    H115297   4.842   6.039   5.531
 5118TIP3    H215298   4.803   6.129   5.416
 5119TIP3   OH215299   2.668   3.832   4.504
 5119TIP3    H115300   2.627   3.748   4.483
 5119TIP3    H215301   2.616   3.867   4.577
 5120TIP3   OH215302   2.403   6.094   2.208
 5120TIP3    H115303   2.327   6.141   2.241
 5120TIP3    H215304   2.477   6.152   2.229
 5121TIP3   OH215305   0.247   4.119   6.674
 5121TIP3    H115306   0.335   4.083   6.681
 5121TIP3    H215307   0.254   4.188   6.608
 5122TIP3   OH215308   4.111   5.967   3.810
 5122TIP3    H115309   4.038   5.917   3.771
 5122TIP3    H215310   4.145   5.909   3.878
 5123TIP3   OH215311   8.109   1.966   6.639
 5123TIP3    H115312   8.191   2.015   6.633
 5123TIP3    H215313   8.053   2.008   6.573
 5124TIP3   OH215314   1.791   0.700   1.345
 5124TIP3    H115315   1.812   0.725   1.435
 5124TIP3    H215316   1.857   0.635   1.322
 5125TIP3   OH215317   8.042   0.118   6.216
 5125TIP3    H115318   8.012   0.032   6.185
 5125TIP3    H215319   8.086   0.156   6.141
 5126TIP3   OH215320   0.820   2.254   1.753
 5126TIP3    H115321   0.868   2.337   1.754
 5126TIP3    H215322   0.888   2.187   1.757
 5127TIP3   OH215323   7.787   7.182   3.115
 5127TIP3    H115324   7.767   7.164   3.207
 5127TIP3    H215325   7.733   7.258   3.094
 5128TIP3   OH215326   3.726   7.113   0.564
 5128TIP3    H115327   3.637   7.146   0.554
 5128TIP3    H215328   3.724   7.025   0.526
 5129TIP3   OH215329   5.781   0.228   2.343
 5129TIP3    H115330   5.766   0.188   2.429
 5129TIP3    H215331   5.699   0.216   2.296
 5130TIP3   OH215332   6.738   1.532   1.433
 5130TIP3    H115333   6.720   1.462   1.496
 5130TIP3    H215334   6.651   1.561   1.404
 5131TIP3   OH215335   1.601   3.383   4.649
 5131TIP3    H115336   1.673   3.415   4.703
 5131TIP3    H215337   1.601   3.289   4.662
 5132TIP3   OH215338   0.934   3.361   6.003
 5132TIP3    H115339   0.912   3.276   5.966
 5132TIP3    H215340   0.882   3.424   5.952
 5133TIP3   OH215341   2.001   4.422   1.729
 5133TIP3    H115342   2.007   4.382   1.642
 5133TIP3    H215343   2.022   4.350   1.789
 5134TIP3   OH215344   4.127   3.369   0.624
 5134TIP3    H115345   4.052   3.406   0.669
 5134TIP3    H215346   4.179   3.445   0.596
 5135TIP3   OH215347   5.403   5.821   6.774
 5135TIP3    H115348   5.442   5.827   6.687
 5135TIP3    H215349   5.366   5.734   6.778
 5136TIP3   OH215350   1.126   4.370   2.437
 5136TIP3    H115351   1.051   4.415   2.397
 5136TIP3    H215352   1.129   4.285   2.392
 5137TIP3   OH215353   4.008   7.040   0.048
 5137TIP3    H115354   4.003   7.056  -0.046
 5137TIP3    H215355   3.917   7.039   0.077
 5138TIP3   OH215356   2.042   0.189   1.212
 5138TIP3    H115357   2.020   0.215   1.301
 5138TIP3    H215358   1.973   0.128   1.186
 5139TIP3   OH215359   6.995   2.888   1.736
 5139TIP3    H115360   7.036   2.917   1.817
 5139TIP3    H215361   7.063   2.896   1.669
 5140TIP3   OH215362   7.601   1.667   5.826
 5140TIP3    H115363   7.587   1.602   5.758
 5140TIP3    H215364   7.552   1.635   5.901
 5141TIP3   OH215365   7.587   6.978   4.252
 5141TIP3    H115366   7.514   6.953   4.195
 5141TIP3    H215367   7.661   6.986   4.192
 5142TIP3   OH215368   2.976   1.242   3.499
 5142TIP3    H115369   3.037   1.281   3.561
 5142TIP3    H215370   3.031   1.213   3.426
 5143TIP3   OH215371   3.422   4.281   3.938
 5143TIP3    H115372   3.449   4.190   3.951
 5143TIP3    H215373   3.373   4.280   3.856
 5144TIP3   OH215374   4.023   3.956   4.543
 5144TIP3    H115375   3.933   3.925   4.548
 5144TIP3    H215376   4.045   3.981   4.633
 5145TIP3   OH215377   6.338   5.992   1.342
 5145TIP3    H115378   6.356   5.966   1.252
 5145TIP3    H215379   6.245   5.972   1.355
 5146TIP3   OH215380   6.231   0.578   6.351
 5146TIP3    H115381   6.325   0.586   6.372
 5146TIP3    H215382   6.196   0.666   6.365
 5147TIP3   OH215383   3.571   6.421   4.794
 5147TIP3    H115384   3.594   6.334   4.828
 5147TIP3    H215385   3.578   6.412   4.699
 5148TIP3   OH215386   2.108   4.826   3.840
 5148TIP3    H115387   2.198   4.806   3.866
 5148TIP3    H215388   2.054   4.766   3.891
 5149TIP3   OH215389   6.029   2.858   3.723
 5149TIP3    H115390   6.035   2.773   3.765
 5149TIP3    H215391   5.937   2.869   3.702
 5150TIP3   OH215392   3.956   6.453   5.906
 5150TIP3    H115393   4.006   6.518   5.857
 5150TIP3    H215394   3.957   6.485   5.996
 5151TIP3   OH215395   5.886   7.214   2.799
 5151TIP3    H115396   5.957   7.149   2.794
 5151TIP3    H215397   5.874   7.245   2.710
 5152TIP3   OH215398   8.237   2.721   6.204
 5152TIP3    H115399   8.194   2.807   6.207
 5152TIP3    H215400   8.252   2.699   6.296
 5153TIP3   OH215401   6.522   5.204   3.429
 5153TIP3    H115402   6.581   5.248   3.368
 5153TIP3    H215403   6.512   5.116   3.393
 5154TIP3   OH215404   4.926   2.587   4.858
 5154TIP3    H115405   4.996   2.624   4.911
 5154TIP3    H215406   4.960   2.503   4.827
 5155TIP3   OH215407   1.808   4.572   3.671
 5155TIP3    H115408   1.803   4.637   3.601
 5155TIP3    H215409   1.761   4.497   3.637
 5156TIP3   OH215410   2.557   0.357   0.673
 5156TIP3    H115411   2.478   0.306   0.657
 5156TIP3    H215412   2.610   0.302   0.730
 5157TIP3   OH215413   1.163   5.183   2.629
 5157TIP3    H115414   1.134   5.106   2.677
 5157TIP3    H215415   1.247   5.157   2.591
 5158TIP3   OH215416   1.544   2.103   2.539
 5158TIP3    H115417   1.502   2.103   2.625
 5158TIP3    H215418   1.637   2.095   2.558
 5159TIP3   OH215419   5.445   4.616   3.052
 5159TIP3    H115420   5.532   4.579   3.041
 5159TIP3    H215421   5.438   4.684   2.985
 5160TIP3   OH215422   7.292   3.648   5.295
 5160TIP3    H115423   7.267   3.721   5.239
 5160TIP3    H215424   7.316   3.578   5.234
 5161TIP3   OH215425   0.383   6.428   4.507
 5161TIP3    H115426   0.437   6.355   4.477
 5161TIP3    H215427   0.317   6.439   4.438
 5162TIP3   OH215428   7.456   5.617   2.175
 5162TIP3    H115429   7.444   5.549   2.241
 5162TIP3    H215430   7.548   5.610   2.149
 5163TIP3   OH215431   6.218   3.916   5.888
 5163TIP3    H115432   6.243   3.850   5.823
 5163TIP3    H215433   6.136   3.882   5.926
 5164TIP3   OH215434   4.572   3.912   3.966
 5164TIP3    H115435   4.641   3.860   3.924
 5164TIP3    H215436   4.525   3.849   4.021
 5165TIP3   OH215437   4.436   5.679   5.348
 5165TIP3    H115438   4.419   5.739   5.275
 5165TIP3    H215439   4.381   5.603   5.330
 5166TIP3   OH215440   0.718   0.260   3.489
 5166TIP3    H115441   0.631   0.257   3.527
 5166TIP3    H215442   0.707   0.306   3.405
 5167TIP3   OH215443   0.487   5.188   3.082
 5167TIP3    H115444   0.507   5.103   3.044
 5167TIP3    H215445   0.418   5.224   3.026
 5168TIP3   OH215446   3.958   3.567   1.995
 5168TIP3    H115447   3.910   3.505   2.051
 5168TIP3    H215448   3.951   3.651   2.040
 5169TIP3   OH215449   4.186   3.676   3.793
 5169TIP3    H115450   4.173   3.618   3.718
 5169TIP3    H215451   4.276   3.708   3.784
 5170TIP3   OH215452   4.404   1.159   3.366
 5170TIP3    H115453   4.422   1.117   3.450
 5170TIP3    H215454   4.313   1.189   3.374
 5171TIP3   OH215455   5.727   3.407   5.682
 5171TIP3    H115456   5.684   3.456   5.611
 5171TIP3    H215457   5.791   3.469   5.718
 5172TIP3   OH215458   4.598   2.612   6.588
 5172TIP3    H115459   4.680   2.661   6.593
 5172TIP3    H215460   4.598   2.556   6.666
 5173TIP3   OH215461   2.337   1.732   4.323
 5173TIP3    H115462   2.268   1.671   4.295
 5173TIP3    H215463   2.313   1.756   4.412
 5174TIP3   OH215464   5.701   2.119   1.073
 5174TIP3    H115465   5.710   2.076   1.157
 5174TIP3    H215466   5.749   2.202   1.084
 5175TIP3   OH215467   4.987   5.474   4.598
 5175TIP3    H115468   5.036   5.436   4.525
 5175TIP3    H215469   5.022   5.431   4.676
 5176TIP3   OH215470   4.057   0.038   0.086
 5176TIP3    H115471   4.063   0.107   0.151
 5176TIP3    H215472   4.032   0.083   0.005
 5177TIP3   OH215473   2.027   7.821   5.913
 5177TIP3    H115474   2.115   7.838   5.880
 5177TIP3    H215475   2.019   7.726   5.914
 5178TIP3   OH215476   4.670   3.145   4.725
 5178TIP3    H115477   4.619   3.102   4.794
 5178TIP3    H215478   4.710   3.220   4.768
 5179TIP3   OH215479   6.697   6.920   5.217
 5179TIP3    H115480   6.693   7.006   5.258
 5179TIP3    H215481   6.613   6.879   5.240
 5180TIP3   OH215482   0.850   4.402   6.440
 5180TIP3    H115483   0.918   4.440   6.495
 5180TIP3    H215484   0.897   4.353   6.373
 5181TIP3   OH215485   4.463   3.420   6.058
 5181TIP3    H115486   4.514   3.339   6.052
 5181TIP3    H215487   4.463   3.442   6.151
 5182TIP3   OH215488   7.801   6.030   4.614
 5182TIP3    H115489   7.797   5.957   4.675
 5182TIP3    H215490   7.874   6.008   4.555
 5183TIP3   OH215491   0.817   6.499   5.530
 5183TIP3    H115492   0.728   6.479   5.501
 5183TIP3    H215493   0.864   6.523   5.450
 5184TIP3   OH215494   1.718   0.276   2.680
 5184TIP3    H115495   1.710   0.238   2.592
 5184TIP3    H215496   1.722   0.371   2.665
 5185TIP3   OH215497   3.231   5.929   1.204
 5185TIP3    H115498   3.290   5.971   1.267
 5185TIP3    H215499   3.170   5.998   1.180
 5186TIP3   OH215500   3.064   0.891   6.374
 5186TIP3    H115501   3.030   0.803   6.356
 5186TIP3    H215502   3.026   0.915   6.458
 5187TIP3   OH215503   8.028   0.208   1.877
 5187TIP3    H115504   7.937   0.200   1.908
 5187TIP3    H215505   8.019   0.234   1.786
 5188TIP3   OH215506   6.419   6.358   5.868
 5188TIP3    H115507   6.508   6.325   5.884
 5188TIP3    H215508   6.364   6.280   5.870
 5189TIP3   OH215509   7.363   7.126   2.845
 5189TIP3    H115510   7.317   7.073   2.781
 5189TIP3    H215511   7.446   7.080   2.860
 5190TIP3   OH215512   5.117   7.722   1.247
 5190TIP3    H115513   5.191   7.695   1.300
 5190TIP3    H215514   5.118   7.818   1.251
 5191TIP3   OH215515   8.273   3.222   2.223
 5191TIP3    H115516   8.282   3.279   2.300
 5191TIP3    H215517   8.179   3.214   2.209
 5192TIP3   OH215518   6.358   7.650   4.190
 5192TIP3    H115519   6.306   7.597   4.129
 5192TIP3    H215520   6.443   7.606   4.193
 5193TIP3   OH215521   2.884   1.219   2.281
 5193TIP3    H115522   2.892   1.306   2.242
 5193TIP3    H215523   2.841   1.234   2.365
 5194TIP3   OH215524   1.942   2.984   0.417
 5194TIP3    H115525   1.987   3.037   0.484
 5194TIP3    H215526   1.867   2.946   0.464
 5195TIP3   OH215527   3.158   1.140   6.019
 5195TIP3    H115528   3.200   1.059   5.989
 5195TIP3    H215529   3.196   1.157   6.105
 5196TIP3   OH215530   7.572   2.620   3.343
 5196TIP3    H115531   7.548   2.539   3.297
 5196TIP3    H215532   7.668   2.617   3.347
 5197TIP3   OH215533   3.004   2.806   2.857
 5197TIP3    H115534   2.924   2.852   2.832
 5197TIP3    H215535   3.072   2.873   2.854
 5198TIP3   OH215536   5.540   0.816   5.189
 5198TIP3    H115537   5.553   0.740   5.245
 5198TIP3    H215538   5.461   0.858   5.222
 5199TIP3   OH215539   5.944   5.839   2.412
 5199TIP3    H115540   5.895   5.921   2.418
 5199TIP3    H215541   5.956   5.825   2.318
 5200TIP3   OH215542   5.884   4.302   0.934
 5200TIP3    H115543   5.888   4.233   0.868
 5200TIP3    H215544   5.805   4.283   0.984
 5201TIP3   OH215545   1.707   6.305   5.941
 5201TIP3    H115546   1.645   6.378   5.947
 5201TIP3    H215547   1.661   6.232   5.982
 5202TIP3   OH215548   7.249   2.359   6.613
 5202TIP3    H115549   7.229   2.319   6.529
 5202TIP3    H215550   7.257   2.453   6.593
 5203TIP3   OH215551   4.449   2.032   0.496
 5203TIP3    H115552   4.371   2.063   0.543
 5203TIP3    H215553   4.424   2.036   0.404
 5204TIP3   OH215554   3.564   7.029   2.387
 5204TIP3    H115555   3.645   7.018   2.336
 5204TIP3    H215556   3.567   6.958   2.451
 5205TIP3   OH215557   3.569   4.734   5.030
 5205TIP3    H115558   3.621   4.659   5.003
 5205TIP3    H215559   3.560   4.725   5.125
 5206TIP3   OH215560   5.853   4.054   5.636
 5206TIP3    H115561   5.835   3.962   5.618
 5206TIP3    H215562   5.847   4.063   5.731
 5207TIP3   OH215563   1.033   3.278   3.961
 5207TIP3    H115564   1.079   3.356   3.931
 5207TIP3    H215565   0.993   3.304   4.043
 5208TIP3   OH215566   5.631   6.645   4.239
 5208TIP3    H115567   5.716   6.654   4.197
 5208TIP3    H215568   5.641   6.688   4.323
 5209TIP3   OH215569   4.074   7.020   0.840
 5209TIP3    H115570   4.020   7.091   0.805
 5209TIP3    H215571   4.091   7.045   0.931
 5210TIP3   OH215572   8.076   7.644   1.055
 5210TIP3    H115573   8.092   7.591   0.977
 5210TIP3    H215574   8.154   7.631   1.110
 5211TIP3   OH215575   0.405   0.616   0.485
 5211TIP3    H115576   0.456   0.537   0.502
 5211TIP3    H215577   0.350   0.625   0.563
 5212TIP3   OH215578   3.633   6.334   0.704
 5212TIP3    H115579   3.579   6.306   0.778
 5212TIP3    H215580   3.591   6.296   0.627
 5213TIP3   OH215581   6.212   0.931   0.361
 5213TIP3    H115582   6.207   0.981   0.279
 5213TIP3    H215583   6.238   0.995   0.427
 5214TIP3   OH215584   7.146   5.089   4.360
 5214TIP3    H115585   7.226   5.073   4.309
 5214TIP3    H215586   7.098   5.007   4.356
 5215TIP3   OH215587   8.164   0.926   1.566
 5215TIP3    H115588   8.180   0.909   1.473
 5215TIP3    H215589   8.225   0.996   1.588
 5216TIP3   OH215590   2.074   2.302   5.548
 5216TIP3    H115591   2.145   2.336   5.493
 5216TIP3    H215592   2.012   2.374   5.554
 5217TIP3   OH215593   8.285   5.820   5.182
 5217TIP3    H115594   8.364   5.874   5.186
 5217TIP3    H215595   8.213   5.884   5.180
 5218TIP3   OH215596   4.646   0.622   0.816
 5218TIP3    H115597   4.740   0.626   0.832
 5218TIP3    H215598   4.638   0.590   0.726
 5219TIP3   OH215599   1.798   5.869   0.966
 5219TIP3    H115600   1.823   5.915   1.046
 5219TIP3    H215601   1.712   5.831   0.986
 5220TIP3   OH215602   7.321   0.064   3.329
 5220TIP3    H115603   7.292  -0.001   3.393
 5220TIP3    H215604   7.242   0.086   3.280
 5221TIP3   OH215605   8.158   4.904   4.010
 5221TIP3    H115606   8.074   4.951   4.008
 5221TIP3    H215607   8.164   4.863   3.923
 5222TIP3   OH215608   5.652   3.265   5.892
 5222TIP3    H115609   5.685   3.178   5.868
 5222TIP3    H215610   5.678   3.321   5.819
 5223TIP3   OH215611   3.581   5.516   3.499
 5223TIP3    H115612   3.646   5.585   3.486
 5223TIP3    H215613   3.632   5.436   3.509
 5224TIP3   OH215614   7.950   4.491   0.583
 5224TIP3    H115615   8.031   4.494   0.635
 5224TIP3    H215616   7.914   4.580   0.590
 5225TIP3   OH215617   3.302   6.962   1.987
 5225TIP3    H115618   3.243   7.031   1.955
 5225TIP3    H215619   3.306   6.976   2.082
 5226TIP3   OH215620   5.118   5.692   4.346
 5226TIP3    H115621   5.203   5.658   4.319
 5226TIP3    H215622   5.059   5.617   4.340
 5227TIP3   OH215623   8.063   6.345   1.922
 5227TIP3    H115624   8.148   6.301   1.922
 5227TIP3    H215625   8.061   6.393   1.839
 5228TIP3   OH215626   7.933   2.379   4.358
 5228TIP3    H115627   7.861   2.427   4.317
 5228TIP3    H215628   7.936   2.411   4.448
 5229TIP3   OH215629   3.480   3.090   2.847
 5229TIP3    H115630   3.520   3.168   2.809
 5229TIP3    H215631   3.498   3.096   2.941
 5230TIP3   OH215632   0.511   6.912   6.691
 5230TIP3    H115633   0.442   6.946   6.634
 5230TIP3    H215634   0.551   6.841   6.640
 5231TIP3   OH215635   7.830   1.322   4.757
 5231TIP3    H115636   7.875   1.240   4.779
 5231TIP3    H215637   7.767   1.334   4.828
 5232TIP3   OH215638   2.697   3.920   2.467
 5232TIP3    H115639   2.748   3.859   2.413
 5232TIP3    H215640   2.606   3.895   2.452
 5233TIP3   OH215641   3.950   1.421   3.418
 5233TIP3    H115642   3.925   1.342   3.466
 5233TIP3    H215643   3.892   1.489   3.452
 5234TIP3   OH215644   3.700   1.294   6.231
 5234TIP3    H115645   3.678   1.387   6.220
 5234TIP3    H215646   3.624   1.247   6.196
 5235TIP3   OH215647   3.650   2.323   6.760
 5235TIP3    H115648   3.586   2.272   6.712
 5235TIP3    H215649   3.728   2.268   6.764
 5236TIP3   OH215650   3.093   1.255   5.236
 5236TIP3    H115651   3.025   1.236   5.172
 5236TIP3    H215652   3.174   1.259   5.185
 5237TIP3   OH215653   6.452   3.471   1.219
 5237TIP3    H115654   6.370   3.424   1.238
 5237TIP3    H215655   6.427   3.564   1.222
 5238TIP3   OH215656   6.544   6.867   4.132
 5238TIP3    H115657   6.630   6.908   4.125
 5238TIP3    H215658   6.559   6.775   4.110
 5239TIP3   OH215659   6.029   6.793   5.058
 5239TIP3    H115660   6.025   6.698   5.067
 5239TIP3    H215661   5.958   6.825   5.113
 5240TIP3   OH215662   6.086   5.821   5.591
 5240TIP3    H115663   6.084   5.869   5.674
 5240TIP3    H215664   6.177   5.794   5.580
 5241TIP3   OH215665   0.978   2.618   1.184
 5241TIP3    H115666   1.041   2.620   1.256
 5241TIP3    H215667   0.989   2.702   1.139
 5242TIP3   OH215668   6.967   5.024   4.834
 5242TIP3    H115669   6.933   5.110   4.860
 5242TIP3    H215670   6.901   4.962   4.864
 5243TIP3   OH215671   3.559   5.433   1.813
 5243TIP3    H115672   3.493   5.365   1.827
 5243TIP3    H215673   3.630   5.388   1.767
 5244TIP3   OH215674   4.341   0.291   5.792
 5244TIP3    H115675   4.404   0.222   5.812
 5244TIP3    H215676   4.313   0.273   5.702
 5245TIP3   OH215677   6.917   5.653   4.584
 5245TIP3    H115678   6.917   5.709   4.507
 5245TIP3    H215679   6.825   5.629   4.596
 5246TIP3   OH215680   6.821   5.033   2.886
 5246TIP3    H115681   6.878   4.967   2.847
 5246TIP3    H215682   6.740   5.029   2.835
 5247TIP3   OH215683   3.415   2.544   4.882
 5247TIP3    H115684   3.507   2.569   4.878
 5247TIP3    H215685   3.372   2.600   4.817
 5248TIP3   OH215686   2.696   5.320   3.885
 5248TIP3    H115687   2.601   5.308   3.891
 5248TIP3    H215688   2.714   5.401   3.933
 5249TIP3   OH215689   1.972   1.308   4.584
 5249TIP3    H115690   2.059   1.345   4.599
 5249TIP3    H215691   1.987   1.235   4.524
 5250TIP3   OH215692   5.337   5.697   0.203
 5250TIP3    H115693   5.273   5.754   0.247
 5250TIP3    H215694   5.359   5.631   0.269
 5251TIP3   OH215695   7.017   5.772   3.219
 5251TIP3    H115696   7.032   5.838   3.151
 5251TIP3    H215697   7.104   5.740   3.242
 5252TIP3   OH215698   7.080   1.105   4.330
 5252TIP3    H115699   7.007   1.046   4.311
 5252TIP3    H215700   7.128   1.063   4.401
 5253TIP3   OH215701   6.919   7.462   4.509
 5253TIP3    H115702   6.906   7.528   4.577
 5253TIP3    H215703   6.836   7.416   4.504
 5254TIP3   OH215704   1.976   5.653   6.454
 5254TIP3    H115705   1.990   5.692   6.540
 5254TIP3    H215706   2.045   5.587   6.446
 5255TIP3   OH215707   5.196   3.501   4.373
 5255TIP3    H115708   5.179   3.531   4.284
 5255TIP3    H215709   5.159   3.412   4.375
 5256TIP3   OH215710   6.434   1.924   6.603
 5256TIP3    H115711   6.413   1.905   6.512
 5256TIP3    H215712   6.520   1.885   6.617
 5257TIP3   OH215713   4.669   5.509   0.845
 5257TIP3    H115714   4.656   5.574   0.913
 5257TIP3    H215715   4.610   5.536   0.774
 5258TIP3   OH215716   2.990   6.196   5.343
 5258TIP3    H115717   3.036   6.135   5.400
 5258TIP3    H215718   3.019   6.173   5.255
 5259TIP3   OH215719   2.007   7.695   1.740
 5259TIP3    H115720   2.064   7.770   1.725
 5259TIP3    H215721   1.919   7.731   1.739
 5260TIP3   OH215722   2.531   0.298   2.208
 5260TIP3    H115723   2.473   0.253   2.269
 5260TIP3    H215724   2.615   0.253   2.216
 5261TIP3   OH215725   6.315   2.778   3.394
 5261TIP3    H115726   6.387   2.814   3.447
 5261TIP3    H215727   6.346   2.692   3.367
 5262TIP3   OH215728   7.202   4.637   0.145
 5262TIP3    H115729   7.197   4.655   0.051
 5262TIP3    H215730   7.129   4.686   0.183
 5263TIP3   OH215731   6.075   0.490   4.896
 5263TIP3    H115732   6.116   0.460   4.814
 5263TIP3    H215733   6.082   0.414   4.954
 5264TIP3   OH215734   3.003   4.183   4.378
 5264TIP3    H115735   2.946   4.249   4.338
 5264TIP3    H215736   2.980   4.102   4.334
 5265TIP3   OH215737   6.144   3.270   3.598
 5265TIP3    H115738   6.078   3.264   3.529
 5265TIP3    H215739   6.093   3.272   3.679
 5266TIP3   OH215740   1.635   1.053   1.298
 5266TIP3    H115741   1.682   1.085   1.221
 5266TIP3    H215742   1.663   1.111   1.369
 5267TIP3   OH215743   8.218   5.871   4.474
 5267TIP3    H115744   8.198   5.935   4.543
 5267TIP3    H215745   8.151   5.885   4.408
 5268TIP3   OH215746   1.591   2.248   0.897
 5268TIP3    H115747   1.645   2.267   0.820
 5268TIP3    H215748   1.645   2.276   0.971
 5269TIP3   OH215749   3.407   3.108   2.212
 5269TIP3    H115750   3.447   3.167   2.149
 5269TIP3    H215751   3.374   3.166   2.281
 5270TIP3   OH215752   1.608   5.078   4.039
 5270TIP3    H115753   1.541   5.140   4.068
 5270TIP3    H215754   1.647   5.045   4.120
 5271TIP3   OH215755   0.756   0.116   0.265
 5271TIP3    H115756   0.702   0.131   0.188
 5271TIP3    H215757   0.701   0.144   0.338
 5272TIP3   OH215758   5.429   7.581   2.761
 5272TIP3    H115759   5.386   7.662   2.734
 5272TIP3    H215760   5.399   7.515   2.699
 5273TIP3   OH215761   5.413   4.451   0.030
 5273TIP3    H115762   5.371   4.536   0.020
 5273TIP3    H215763   5.507   4.471   0.030
 5274TIP3   OH215764   3.555   5.936   3.601
 5274TIP3    H115765   3.574   5.985   3.681
 5274TIP3    H215766   3.503   5.862   3.630
 5275TIP3   OH215767   6.304   4.684   6.339
 5275TIP3    H115768   6.392   4.719   6.326
 5275TIP3    H215769   6.291   4.685   6.434
 5276TIP3   OH215770   7.687   4.462   6.465
 5276TIP3    H115771   7.757   4.408   6.427
 5276TIP3    H215772   7.686   4.438   6.557
 5277TIP3   OH215773   4.205   4.570   5.832
 5277TIP3    H115774   4.131   4.631   5.835
 5277TIP3    H215775   4.192   4.514   5.909
 5278TIP3   OH215776   3.807   1.851   1.912
 5278TIP3    H115777   3.793   1.768   1.958
 5278TIP3    H215778   3.720   1.877   1.882
 5279TIP3   OH215779   6.746   3.213   2.509
 5279TIP3    H115780   6.731   3.217   2.415
 5279TIP3    H215781   6.766   3.303   2.534
 5280TIP3   OH215782   6.780   4.028   2.642
 5280TIP3    H115783   6.685   4.035   2.644
 5280TIP3    H215784   6.809   4.110   2.601
 5281TIP3   OH215785   0.085   6.415   2.928
 5281TIP3    H115786   0.143   6.340   2.912
 5281TIP3    H215787   0.014   6.379   2.981
 5282TIP3   OH215788   0.452   6.105   0.446
 5282TIP3    H115789   0.438   6.034   0.383
 5282TIP3    H215790   0.466   6.060   0.529
 5283TIP3   OH215791   2.575   5.925   2.361
 5283TIP3    H115792   2.528   5.997   2.402
 5283TIP3    H215793   2.526   5.907   2.280
 5284TIP3   OH215794   2.295   4.028   2.481
 5284TIP3    H115795   2.339   3.949   2.449
 5284TIP3    H215796   2.210   3.997   2.514
 5285TIP3   OH215797   4.060   2.293   6.679
 5285TIP3    H115798   4.119   2.295   6.755
 5285TIP3    H215799   4.061   2.202   6.651
 5286TIP3   OH215800   2.120   3.581   1.158
 5286TIP3    H115801   2.157   3.548   1.076
 5286TIP3    H215802   2.126   3.677   1.150
 5287TIP3   OH215803   7.486   0.242   3.181
 5287TIP3    H115804   7.537   0.287   3.248
 5287TIP3    H215805   7.452   0.164   3.225
 5288TIP3   OH215806   4.516   5.414   4.050
 5288TIP3    H115807   4.552   5.332   4.018
 5288TIP3    H215808   4.533   5.414   4.144
 5289TIP3   OH215809   4.436   0.197   2.362
 5289TIP3    H115810   4.422   0.291   2.350
 5289TIP3    H215811   4.368   0.156   2.309
 5290TIP3   OH215812   8.220   1.428   0.869
 5290TIP3    H115813   8.170   1.347   0.864
 5290TIP3    H215814   8.158   1.493   0.901
 5291TIP3   OH215815   0.357   0.288   3.931
 5291TIP3    H115816   0.318   0.348   3.867
 5291TIP3    H215817   0.422   0.341   3.977
 5292TIP3   OH215818   1.337   0.709   1.045
 5292TIP3    H115819   1.414   0.753   1.007
 5292TIP3    H215820   1.362   0.617   1.049
 5293TIP3   OH215821   0.914   7.683   4.032
 5293TIP3    H115822   0.869   7.699   3.949
 5293TIP3    H215823   0.845   7.655   4.092
 5294TIP3   OH215824   1.556   2.525   1.335
 5294TIP3    H115825   1.582   2.442   1.295
 5294TIP3    H215826   1.467   2.539   1.303
 5295TIP3   OH215827   1.921   0.415   3.340
 5295TIP3    H115828   1.829   0.437   3.322
 5295TIP3    H215829   1.934   0.332   3.294
 5296TIP3   OH215830   2.899   4.596   4.424
 5296TIP3    H115831   2.956   4.530   4.385
 5296TIP3    H215832   2.867   4.556   4.505
 5297TIP3   OH215833   4.014   7.485   4.800
 5297TIP3    H115834   4.005   7.394   4.775
 5297TIP3    H215835   4.109   7.498   4.808
 5298TIP3   OH215836   6.717   6.043   6.571
 5298TIP3    H115837   6.785   6.111   6.563
 5298TIP3    H215838   6.767   5.963   6.587
 5299TIP3   OH215839   2.134   0.962   1.711
 5299TIP3    H115840   2.199   1.031   1.699
 5299TIP3    H215841   2.082   0.963   1.631
 5300TIP3   OH215842   5.633   6.982   1.970
 5300TIP3    H115843   5.695   6.925   1.924
 5300TIP3    H215844   5.687   7.032   2.032
 5301TIP3   OH215845   0.095   6.023   3.048
 5301TIP3    H115846   0.053   5.937   3.049
 5301TIP3    H215847   0.155   6.021   3.123
 5302TIP3   OH215848   0.212   5.991   5.203
 5302TIP3    H115849   0.180   6.062   5.147
 5302TIP3    H215850   0.301   5.973   5.171
 5303TIP3   OH215851   7.951   0.515   1.805
 5303TIP3    H115852   8.019   0.578   1.779
 5303TIP3    H215853   7.980   0.483   1.890
 5304TIP3   OH215854   3.620   6.158   2.642
 5304TIP3    H115855   3.554   6.223   2.618
 5304TIP3    H215856   3.704   6.201   2.624
 5305TIP3   OH215857   5.732   1.611   4.135
 5305TIP3    H115858   5.809   1.620   4.078
 5305TIP3    H215859   5.714   1.700   4.166
 5306TIP3   OH215860   5.412   4.342   2.267
 5306TIP3    H115861   5.350   4.412   2.286
 5306TIP3    H215862   5.497   4.376   2.294
 5307TIP3   OH215863   3.338   5.578   4.167
 5307TIP3    H115864   3.248   5.570   4.136
 5307TIP3    H215865   3.360   5.492   4.202
 5308TIP3   OH215866   0.230   3.217   2.114
 5308TIP3    H115867   0.141   3.199   2.143
 5308TIP3    H215868   0.238   3.312   2.117
 5309TIP3   OH215869   3.639   0.297   5.876
 5309TIP3    H115870   3.707   0.318   5.940
 5309TIP3    H215871   3.687   0.275   5.796
 5310TIP3   OH215872   7.361   6.804   4.564
 5310TIP3    H115873   7.438   6.811   4.507
 5310TIP3    H215874   7.305   6.738   4.522
 5311TIP3   OH215875   6.543   3.257   6.375
 5311TIP3    H115876   6.470   3.315   6.397
 5311TIP3    H215877   6.513   3.170   6.401
 5312TIP3   OH215878   5.720   5.888   5.159
 5312TIP3    H115879   5.775   5.859   5.232
 5312TIP3    H215880   5.631   5.862   5.183
 5313TIP3   OH215881   2.329   5.158   1.119
 5313TIP3    H115882   2.252   5.101   1.115
 5313TIP3    H215883   2.370   5.138   1.202
 5314TIP3   OH215884   4.128   5.102   6.396
 5314TIP3    H115885   4.116   5.009   6.381
 5314TIP3    H215886   4.177   5.133   6.320
 5315TIP3   OH215887   2.362   3.452   2.232
 5315TIP3    H115888   2.426   3.510   2.190
 5315TIP3    H215889   2.299   3.510   2.273
 5316TIP3   OH215890   4.096   4.712   2.748
 5316TIP3    H115891   4.073   4.653   2.676
 5316TIP3    H215892   4.014   4.724   2.796
 5317TIP3   OH215893   3.525   0.268   3.559
 5317TIP3    H115894   3.582   0.254   3.634
 5317TIP3    H215895   3.534   0.189   3.507
 5318TIP3   OH215896   5.164   5.203   5.223
 5318TIP3    H115897   5.119   5.125   5.192
 5318TIP3    H215898   5.254   5.174   5.238
 5319TIP3   OH215899   0.053   1.969   5.319
 5319TIP3    H115900   0.141   1.937   5.297
 5319TIP3    H215901   0.067   2.026   5.394
 5320TIP3   OH215902   5.996   2.323   4.033
 5320TIP3    H115903   6.054   2.267   3.983
 5320TIP3    H215904   5.987   2.280   4.118
 5321TIP3   OH215905   5.743   7.009   6.214
 5321TIP3    H115906   5.782   7.038   6.132
 5321TIP3    H215907   5.726   7.089   6.263
 5322TIP3   OH215908   4.888   0.607   4.710
 5322TIP3    H115909   4.885   0.697   4.678
 5322TIP3    H215910   4.812   0.564   4.669
 5323TIP3   OH215911   6.075   0.200   2.181
 5323TIP3    H115912   6.057   0.231   2.092
 5323TIP3    H215913   6.005   0.237   2.234
 5324TIP3   OH215914   2.250   3.687   0.187
 5324TIP3    H115915   2.209   3.774   0.187
 5324TIP3    H215916   2.204   3.639   0.118
 5325TIP3   OH215917   2.430   0.437   2.433
 5325TIP3    H115918   2.461   0.440   2.342
 5325TIP3    H215919   2.354   0.496   2.434
 5326TIP3   OH215920   1.766   6.322   6.592
 5326TIP3    H115921   1.825   6.246   6.592
 5326TIP3    H215922   1.791   6.371   6.670
 5327TIP3   OH215923   1.591   5.034   5.095
 5327TIP3    H115924   1.496   5.028   5.103
 5327TIP3    H215925   1.620   4.943   5.088
 5328TIP3   OH215926   5.644   5.634   2.321
 5328TIP3    H115927   5.720   5.601   2.274
 5328TIP3    H215928   5.606   5.557   2.363
 5329TIP3   OH215929   6.667   2.529   1.805
 5329TIP3    H115930   6.724   2.476   1.750
 5329TIP3    H215931   6.701   2.618   1.797
 5330TIP3   OH215932   4.707   5.785   3.184
 5330TIP3    H115933   4.644   5.856   3.198
 5330TIP3    H215934   4.765   5.819   3.116
 5331TIP3   OH215935   4.108   4.587   0.751
 5331TIP3    H115936   4.087   4.525   0.682
 5331TIP3    H215937   4.099   4.537   0.832
 5332TIP3   OH215938   0.882   6.305   6.368
 5332TIP3    H115939   0.973   6.275   6.368
 5332TIP3    H215940   0.854   6.298   6.276
 5333TIP3   OH215941   1.431   3.587   0.834
 5333TIP3    H115942   1.500   3.594   0.768
 5333TIP3    H215943   1.356   3.551   0.786
 5334TIP3   OH215944   7.768   3.663   5.071
 5334TIP3    H115945   7.782   3.569   5.056
 5334TIP3    H215946   7.788   3.676   5.164
 5335TIP3   OH215947   6.179   4.599   2.119
 5335TIP3    H115948   6.110   4.637   2.064
 5335TIP3    H215949   6.158   4.506   2.124
 5336TIP3   OH215950   0.252   4.711   6.201
 5336TIP3    H115951   0.196   4.786   6.183
 5336TIP3    H215952   0.321   4.745   6.259
 5337TIP3   OH215953   2.709   7.699   1.063
 5337TIP3    H115954   2.797   7.733   1.085
 5337TIP3    H215955   2.668   7.770   1.015
 5338TIP3   OH215956   4.392   7.000   3.346
 5338TIP3    H115957   4.331   6.928   3.327
 5338TIP3    H215958   4.350   7.048   3.418
 5339TIP3   OH215959   5.415   1.795   0.834
 5339TIP3    H115960   5.458   1.852   0.771
 5339TIP3    H215961   5.330   1.775   0.794
 5340TIP3   OH215962   2.840   6.909   3.058
 5340TIP3    H115963   2.897   6.975   3.018
 5340TIP3    H215964   2.874   6.897   3.146
 5341TIP3   OH215965   3.674   2.886   4.512
 5341TIP3    H115966   3.729   2.810   4.532
 5341TIP3    H215967   3.618   2.896   4.590
 5342TIP3   OH215968   2.648   5.724   5.828
 5342TIP3    H115969   2.706   5.788   5.788
 5342TIP3    H215970   2.643   5.653   5.765
 5343TIP3   OH215971   1.865   6.695   6.353
 5343TIP3    H115972   1.920   6.772   6.337
 5343TIP3    H215973   1.921   6.636   6.403
 5344TIP3   OH215974   1.487   5.341   2.643
 5344TIP3    H115975   1.509   5.267   2.700
 5344TIP3    H215976   1.456   5.299   2.562
 5345TIP3   OH215977   1.742   0.888   6.445
 5345TIP3    H115978   1.755   0.883   6.350
 5345TIP3    H215979   1.830   0.882   6.482
 5346TIP3   OH215980   4.403   3.167   6.548
 5346TIP3    H115981   4.371   3.077   6.560
 5346TIP3    H215982   4.465   3.180   6.619
 5347TIP3   OH215983   3.397   5.076   3.760
 5347TIP3    H115984   3.431   5.138   3.824
 5347TIP3    H215985   3.402   5.122   3.677
 5348TIP3   OH215986   7.727   7.774   0.614
 5348TIP3    H115987   7.707   7.836   0.544
 5348TIP3    H215988   7.773   7.827   0.680
 5349TIP3   OH215989   7.554   0.375   6.623
 5349TIP3    H115990   7.484   0.310   6.631
 5349TIP3    H215991   7.507   0.458   6.614
 5350TIP3   OH215992   2.513   6.666   3.026
 5350TIP3    H115993   2.604   6.636   3.034
 5350TIP3    H215994   2.476   6.652   3.113
 5351TIP3   OH215995   7.534   0.435   4.482
 5351TIP3    H115996   7.569   0.358   4.527
 5351TIP3    H215997   7.584   0.439   4.400
 5352TIP3   OH215998   4.048   0.919   5.901
 5352TIP3    H115999   4.100   0.857   5.953
 5352TIP3    H216000   4.055   1.002   5.950
 5353TIP3   OH216001   7.917   0.177   2.507
 5353TIP3    H116002   7.980   0.176   2.435
 5353TIP3    H216003   7.939   0.257   2.556
 5354TIP3   OH216004   4.090   4.639   1.176
 5354TIP3    H116005   4.170   4.684   1.147
 5354TIP3    H216006   4.105   4.623   1.270
 5355TIP3   OH216007   1.360   6.527   0.123
 5355TIP3    H116008   1.390   6.536   0.032
 5355TIP3    H216009   1.358   6.432   0.138
 5356TIP3   OH216010   5.251   0.926   5.788
 5356TIP3    H116011   5.180   0.878   5.831
 5356TIP3    H216012   5.331   0.887   5.821
 5357TIP3   OH216013   3.741   3.813   1.789
 5357TIP3    H116014   3.778   3.873   1.724
 5357TIP3    H216015   3.754   3.726   1.752
 5358TIP3   OH216016   4.630   5.501   2.585
 5358TIP3    H116017   4.568   5.568   2.559
 5358TIP3    H216018   4.668   5.470   2.503
 5359TIP3   OH216019   6.398   3.694   2.552
 5359TIP3    H116020   6.439   3.632   2.492
 5359TIP3    H216021   6.378   3.770   2.498
 5360TIP3   OH216022   7.877   7.210   5.043
 5360TIP3    H116023   7.924   7.142   4.996
 5360TIP3    H216024   7.916   7.292   5.013
 5361TIP3   OH216025   3.917   2.642   0.039
 5361TIP3    H116026   3.946   2.725   0.079
 5361TIP3    H216027   3.891   2.666  -0.049
 5362TIP3   OH216028   4.381   6.555   1.578
 5362TIP3    H116029   4.401   6.461   1.574
 5362TIP3    H216030   4.289   6.559   1.604
 5363TIP3   OH216031   0.988   6.695   4.456
 5363TIP3    H116032   0.941   6.642   4.521
 5363TIP3    H216033   1.015   6.773   4.505
 5364TIP3   OH216034   5.103   6.884   3.398
 5364TIP3    H116035   5.029   6.863   3.455
 5364TIP3    H216036   5.097   6.978   3.385
 5365TIP3   OH216037   1.184   0.162   2.372
 5365TIP3    H116038   1.116   0.181   2.307
 5365TIP3    H216039   1.135   0.151   2.454
 5366TIP3   OH216040   7.318   6.806   0.339
 5366TIP3    H116041   7.327   6.711   0.334
 5366TIP3    H216042   7.401   6.840   0.305
 5367TIP3   OH216043   4.614   1.127   5.236
 5367TIP3    H116044   4.525   1.121   5.273
 5367TIP3    H216045   4.670   1.143   5.312
 5368TIP3   OH216046   7.985   1.279   2.395
 5368TIP3    H116047   8.080   1.289   2.391
 5368TIP3    H216048   7.953   1.368   2.410
 5369TIP3   OH216049   2.388   0.723   4.930
 5369TIP3    H116050   2.336   0.646   4.907
 5369TIP3    H216051   2.378   0.782   4.855
 5370TIP3   OH216052   3.938   3.952   5.811
 5370TIP3    H116053   3.859   3.897   5.814
 5370TIP3    H216054   3.910   4.037   5.844
 5371TIP3   OH216055   3.955   2.547   5.514
 5371TIP3    H116056   3.876   2.508   5.476
 5371TIP3    H216057   3.991   2.601   5.444
 5372TIP3   OH216058   3.320   2.575   5.851
 5372TIP3    H116059   3.241   2.606   5.896
 5372TIP3    H216060   3.311   2.610   5.762
 5373TIP3   OH216061   0.543   6.205   3.133
 5373TIP3    H116062   0.505   6.271   3.076
 5373TIP3    H216063   0.547   6.247   3.219
 5374TIP3   OH216064   6.526   1.315   0.658
 5374TIP3    H116065   6.541   1.325   0.752
 5374TIP3    H216066   6.537   1.403   0.622
 5375TIP3   OH216067   2.882   2.792   4.687
 5375TIP3    H116068   2.939   2.783   4.763
 5375TIP3    H216069   2.942   2.801   4.613
 5376TIP3   OH216070   7.516   1.728   6.196
 5376TIP3    H116071   7.517   1.772   6.281
 5376TIP3    H216072   7.600   1.682   6.192
 5377TIP3   OH216073   0.214   5.602   3.557
 5377TIP3    H116074   0.244   5.692   3.544
 5377TIP3    H216075   0.293   5.554   3.584
 5378TIP3   OH216076   5.498   4.241   6.331
 5378TIP3    H116077   5.562   4.312   6.333
 5378TIP3    H216078   5.546   4.168   6.290
 5379TIP3   OH216079   8.213   7.683   5.938
 5379TIP3    H116080   8.273   7.630   5.886
 5379TIP3    H216081   8.126   7.655   5.910
 5380TIP3   OH216082   6.183   1.717   1.470
 5380TIP3    H116083   6.223   1.802   1.491
 5380TIP3    H216084   6.106   1.740   1.419
 5381TIP3   OH216085   5.107   7.634   1.729
 5381TIP3    H116086   5.170   7.632   1.657
 5381TIP3    H216087   5.073   7.723   1.729
 5382TIP3   OH216088   4.766   1.083   0.958
 5382TIP3    H116089   4.848   1.080   1.008
 5382TIP3    H216090   4.697   1.080   1.025
 5383TIP3   OH216091   7.709   2.020   5.172
 5383TIP3    H116092   7.770   2.048   5.104
 5383TIP3    H216093   7.762   1.973   5.236
 5384TIP3   OH216094   5.995   2.187   3.093
 5384TIP3    H116095   5.946   2.143   3.024
 5384TIP3    H216096   5.975   2.280   3.081
 5385TIP3   OH216097   5.392   7.700   1.325
 5385TIP3    H116098   5.416   7.750   1.248
 5385TIP3    H216099   5.471   7.702   1.380
 5386TIP3   OH216100   2.704   5.034   6.599
 5386TIP3    H116101   2.739   5.123   6.595
 5386TIP3    H216102   2.684   5.021   6.692
 5387TIP3   OH216103   3.263   6.824   3.882
 5387TIP3    H116104   3.328   6.782   3.827
 5387TIP3    H216105   3.203   6.754   3.908
 5388TIP3   OH216106   3.603   2.215   2.135
 5388TIP3    H116107   3.554   2.293   2.163
 5388TIP3    H216108   3.547   2.142   2.159
 5389TIP3   OH216109   6.325   1.062   1.508
 5389TIP3    H116110   6.404   1.013   1.489
 5389TIP3    H216111   6.283   1.076   1.423
 5390TIP3   OH216112   0.724   3.123   2.303
 5390TIP3    H116113   0.725   3.052   2.368
 5390TIP3    H216114   0.636   3.119   2.265
 5391TIP3   OH216115   7.865   2.279   3.094
 5391TIP3    H116116   7.914   2.341   3.147
 5391TIP3    H216117   7.819   2.223   3.157
 5392TIP3   OH216118   4.025   6.316   3.540
 5392TIP3    H116119   4.038   6.359   3.455
 5392TIP3    H216120   4.066   6.230   3.530
 5393TIP3   OH216121   6.514   2.047   2.837
 5393TIP3    H116122   6.543   1.963   2.872
 5393TIP3    H216123   6.420   2.039   2.827
 5394TIP3   OH216124   6.549   5.666   2.544
 5394TIP3    H116125   6.498   5.587   2.560
 5394TIP3    H216126   6.623   5.659   2.605
 5395TIP3   OH216127   0.810   3.258   4.215
 5395TIP3    H116128   0.780   3.339   4.255
 5395TIP3    H216129   0.739   3.196   4.232
 5396TIP3   OH216130   1.248   0.980   2.873
 5396TIP3    H116131   1.257   1.058   2.818
 5396TIP3    H216132   1.160   0.949   2.856
 5397TIP3   OH216133   1.468   1.767   0.517
 5397TIP3    H116134   1.551   1.813   0.527
 5397TIP3    H216135   1.422   1.781   0.600
 5398TIP3   OH216136   0.969   0.175   4.589
 5398TIP3    H116137   1.041   0.192   4.528
 5398TIP3    H216138   0.916   0.108   4.546
 5399TIP3   OH216139   7.308   0.202   0.751
 5399TIP3    H116140   7.364   0.242   0.817
 5399TIP3    H216141   7.367   0.178   0.679
 5400TIP3   OH216142   5.467   5.476   6.326
 5400TIP3    H116143   5.492   5.465   6.417
 5400TIP3    H216144   5.420   5.395   6.304
 5401TIP3   OH216145   5.783   1.297   3.258
 5401TIP3    H116146   5.863   1.349   3.249
 5401TIP3    H216147   5.783   1.268   3.349
 5402TIP3   OH216148   1.167   1.865   3.186
 5402TIP3    H116149   1.206   1.942   3.146
 5402TIP3    H216150   1.222   1.847   3.262
 5403TIP3   OH216151   7.787   5.554   3.145
 5403TIP3    H116152   7.734   5.538   3.066
 5403TIP3    H216153   7.861   5.606   3.115
 5404TIP3   OH216154   5.243   0.067   6.405
 5404TIP3    H116155   5.194   0.013   6.468
 5404TIP3    H216156   5.289   0.131   6.460
 5405TIP3   OH216157   1.717   3.952   1.418
 5405TIP3    H116158   1.692   3.984   1.332
 5405TIP3    H216159   1.809   3.925   1.408
 5406TIP3   OH216160   7.307   1.253   0.561
 5406TIP3    H116161   7.236   1.316   0.554
 5406TIP3    H216162   7.385   1.302   0.534
 5407TIP3   OH216163   2.960   5.933   0.488
 5407TIP3    H116164   3.019   5.869   0.450
 5407TIP3    H216165   2.928   5.892   0.568
 5408TIP3   OH216166   1.372   4.507   6.253
 5408TIP3    H116167   1.283   4.534   6.273
 5408TIP3    H216168   1.409   4.481   6.337
 5409TIP3   OH216169   3.510   2.185   3.498
 5409TIP3    H116170   3.578   2.214   3.560
 5409TIP3    H216171   3.552   2.193   3.412
 5410TIP3   OH216172   5.746   3.107   3.766
 5410TIP3    H116173   5.656   3.122   3.796
 5410TIP3    H216174   5.755   3.011   3.763
 5411TIP3   OH216175   1.384   0.945   3.464
 5411TIP3    H116176   1.308   0.953   3.521
 5411TIP3    H216177   1.457   0.977   3.517
 5412TIP3   OH216178   7.090   1.283   2.751
 5412TIP3    H116179   7.014   1.295   2.695
 5412TIP3    H216180   7.095   1.188   2.765
 5413TIP3   OH216181   0.396   7.236   2.383
 5413TIP3    H116182   0.304   7.259   2.398
 5413TIP3    H216183   0.396   7.183   2.304
 5414TIP3   OH216184   3.843   0.509   3.758
 5414TIP3    H116185   3.845   0.605   3.749
 5414TIP3    H216186   3.815   0.478   3.672
 5415TIP3   OH216187   4.563   5.071   1.554
 5415TIP3    H116188   4.569   5.039   1.644
 5415TIP3    H216189   4.573   5.166   1.562
 5416TIP3   OH216190   0.367   5.434   2.324
 5416TIP3    H116191   0.297   5.486   2.363
 5416TIP3    H216192   0.340   5.343   2.336
 5417TIP3   OH216193   3.242   1.205   6.269
 5417TIP3    H116194   3.277   1.136   6.325
 5417TIP3    H216195   3.287   1.285   6.298
 5418TIP3   OH216196   6.337   2.494   3.345
 5418TIP3    H116197   6.256   2.445   3.333
 5418TIP3    H216198   6.395   2.433   3.391
 5419TIP3   OH216199   2.092   3.911   2.591
 5419TIP3    H116200   2.045   3.839   2.550
 5419TIP3    H216201   2.043   3.928   2.672
 5420TIP3   OH216202   1.724   1.910   0.239
 5420TIP3    H116203   1.691   1.992   0.275
 5420TIP3    H216204   1.732   1.927   0.145
 5421TIP3   OH216205   8.196   0.763   2.294
 5421TIP3    H116206   8.205   0.761   2.199
 5421TIP3    H216207   8.273   0.811   2.324
 5422TIP3   OH216208   7.113   4.515   6.712
 5422TIP3    H116209   7.156   4.560   6.639
 5422TIP3    H216210   7.046   4.461   6.670
 5423TIP3   OH216211   6.834   5.533   6.750
 5423TIP3    H116212   6.765   5.525   6.684
 5423TIP3    H216213   6.822   5.620   6.787
 5424TIP3   OH216214   3.402   5.702   6.029
 5424TIP3    H116215   3.353   5.698   6.112
 5424TIP3    H216216   3.340   5.743   5.968
 5425TIP3   OH216217   2.905   6.433   3.586
 5425TIP3    H116218   2.815   6.416   3.561
 5425TIP3    H216219   2.899   6.491   3.662
 5426TIP3   OH216220   0.818   7.839   6.756
 5426TIP3    H116221   0.762   7.808   6.685
 5426TIP3    H216222   0.876   7.765   6.776
 5427TIP3   OH216223   4.512   5.967   0.348
 5427TIP3    H116224   4.533   5.909   0.274
 5427TIP3    H216225   4.511   6.054   0.310
 5428TIP3   OH216226   5.813   0.313   1.586
 5428TIP3    H116227   5.861   0.261   1.650
 5428TIP3    H216228   5.863   0.394   1.577
 5429TIP3   OH216229   1.713   7.117   4.461
 5429TIP3    H116230   1.661   7.121   4.381
 5429TIP3    H216231   1.649   7.125   4.532
 5430TIP3   OH216232   7.099   1.375   4.823
 5430TIP3    H116233   7.141   1.385   4.737
 5430TIP3    H216234   7.069   1.284   4.824
 5431TIP3   OH216235   3.322   3.345   2.820
 5431TIP3    H116236   3.233   3.381   2.828
 5431TIP3    H216237   3.337   3.341   2.725
 5432TIP3   OH216238   0.301   7.469   3.982
 5432TIP3    H116239   0.328   7.528   3.911
 5432TIP3    H216240   0.206   7.462   3.972
 5433TIP3   OH216241   1.357   3.906   2.276
 5433TIP3    H116242   1.398   3.952   2.203
 5433TIP3    H216243   1.422   3.910   2.346
 5434TIP3   OH216244   4.003   0.779   2.614
 5434TIP3    H116245   3.992   0.848   2.548
 5434TIP3    H216246   3.967   0.700   2.573
 5435TIP3   OH216247   1.949   3.823   4.277
 5435TIP3    H116248   1.861   3.797   4.302
 5435TIP3    H216249   1.948   3.918   4.279
 5436TIP3   OH216250   6.931   6.982   6.438
 5436TIP3    H116251   6.980   6.966   6.357
 5436TIP3    H216252   6.841   6.955   6.417
 5437TIP3   OH216253   6.677   3.297   4.628
 5437TIP3    H116254   6.669   3.230   4.561
 5437TIP3    H216255   6.762   3.279   4.670
 5438TIP3   OH216256   2.926   4.532   3.902
 5438TIP3    H116257   3.010   4.536   3.856
 5438TIP3    H216258   2.912   4.439   3.920
 5439TIP3   OH216259   5.626   3.829   3.431
 5439TIP3    H116260   5.612   3.740   3.463
 5439TIP3    H216261   5.692   3.865   3.490
 5440TIP3   OH216262   3.916   4.047   3.891
 5440TIP3    H116263   3.894   4.025   3.800
 5440TIP3    H216264   3.833   4.069   3.931
 5441TIP3   OH216265   5.562   6.911   5.964
 5441TIP3    H116266   5.601   6.996   5.987
 5441TIP3    H216267   5.637   6.855   5.944
 5442TIP3   OH216268   4.541   4.806   3.258
 5442TIP3    H116269   4.482   4.870   3.299
 5442TIP3    H216270   4.602   4.782   3.328
 5443TIP3   OH216271   4.620   7.547   1.095
 5443TIP3    H116272   4.601   7.541   1.002
 5443TIP3    H216273   4.711   7.578   1.099
 5444TIP3   OH216274   1.069   2.909   6.068
 5444TIP3    H116275   1.081   2.827   6.021
 5444TIP3    H216276   1.132   2.969   6.028
 5445TIP3   OH216277   5.108   2.263   0.280
 5445TIP3    H116278   5.041   2.194   0.284
 5445TIP3    H216279   5.106   2.302   0.368
 5446TIP3   OH216280   0.615   3.165   3.929
 5446TIP3    H116281   0.695   3.135   3.971
 5446TIP3    H216282   0.555   3.091   3.936
 5447TIP3   OH216283   1.541   1.021   2.840
 5447TIP3    H116284   1.459   0.976   2.821
 5447TIP3    H216285   1.517   1.114   2.839
 5448TIP3   OH216286   4.522   7.385   3.638
 5448TIP3    H116287   4.464   7.341   3.700
 5448TIP3    H216288   4.470   7.394   3.558
 5449TIP3   OH216289   7.283   5.330   5.661
 5449TIP3    H116290   7.221   5.400   5.639
 5449TIP3    H216291   7.236   5.274   5.723
 5450TIP3   OH216292   8.270   6.232   0.388
 5450TIP3    H116293   8.298   6.289   0.460
 5450TIP3    H216294   8.331   6.159   0.389
 5451TIP3   OH216295   7.871   0.827   4.830
 5451TIP3    H116296   7.876   0.758   4.764
 5451TIP3    H216297   7.946   0.812   4.887
 5452TIP3   OH216298   6.708   4.013   2.234
 5452TIP3    H116299   6.764   4.076   2.188
 5452TIP3    H216300   6.631   4.065   2.259
 5453TIP3   OH216301   0.866   5.516   4.511
 5453TIP3    H116302   0.799   5.486   4.449
 5453TIP3    H216303   0.817   5.545   4.588
 5454TIP3   OH216304   1.079   0.945   0.677
 5454TIP3    H116305   1.023   0.990   0.613
 5454TIP3    H216306   1.080   1.004   0.753
 5455TIP3   OH216307   6.578   4.444   4.179
 5455TIP3    H116308   6.605   4.534   4.160
 5455TIP3    H216309   6.633   4.390   4.122
 5456TIP3   OH216310   3.309   4.666   0.488
 5456TIP3    H116311   3.278   4.642   0.401
 5456TIP3    H216312   3.291   4.760   0.496
 5457TIP3   OH216313   0.801   7.348   3.094
 5457TIP3    H116314   0.771   7.283   3.031
 5457TIP3    H216315   0.893   7.363   3.071
 5458TIP3   OH216316   8.239   0.027   0.380
 5458TIP3    H116317   8.303   0.088   0.345
 5458TIP3    H216318   8.289  -0.052   0.403
 5459TIP3   OH216319   0.700   6.908   2.720
 5459TIP3    H116320   0.717   7.000   2.705
 5459TIP3    H216321   0.737   6.863   2.644
 5460TIP3   OH216322   4.047   4.713   3.796
 5460TIP3    H116323   3.984   4.783   3.812
 5460TIP3    H216324   3.995   4.633   3.793
 5461TIP3   OH216325   0.916   1.655   2.653
 5461TIP3    H116326   0.978   1.701   2.710
 5461TIP3    H216327   0.946   1.564   2.653
 5462TIP3   OH216328   3.664   2.216   3.723
 5462TIP3    H116329   3.746   2.211   3.674
 5462TIP3    H216330   3.682   2.172   3.806
 5463TIP3   OH216331   6.694   7.156   5.348
 5463TIP3    H116332   6.697   7.245   5.313
 5463TIP3    H216333   6.754   7.157   5.422
 5464TIP3   OH216334   6.669   5.175   5.083
 5464TIP3    H116335   6.762   5.193   5.093
 5464TIP3    H216336   6.658   5.156   4.990
 5465TIP3   OH216337   8.270   7.438   2.555
 5465TIP3    H116338   8.183   7.438   2.516
 5465TIP3    H216339   8.254   7.437   2.650
 5466TIP3   OH216340   3.204   5.082   4.011
 5466TIP3    H116341   3.290   5.081   4.053
 5466TIP3    H216342   3.193   4.994   3.975
 5467TIP3   OH216343   0.928   4.715   4.523
 5467TIP3    H116344   0.891   4.797   4.554
 5467TIP3    H216345   0.853   4.656   4.515
 5468TIP3   OH216346   7.896   6.309   2.526
 5468TIP3    H116347   7.878   6.257   2.604
 5468TIP3    H216348   7.881   6.248   2.453
 5469TIP3   OH216349   0.512   3.166   1.640
 5469TIP3    H116350   0.542   3.076   1.636
 5469TIP3    H216351   0.462   3.171   1.722
 5470TIP3   OH216352   7.552   6.738   3.925
 5470TIP3    H116353   7.647   6.741   3.910
 5470TIP3    H216354   7.517   6.810   3.872
 5471TIP3   OH216355   3.965   4.592   3.298
 5471TIP3    H116356   3.962   4.566   3.206
 5471TIP3    H216357   3.893   4.654   3.308
 5472TIP3   OH216358   0.378   6.191   0.731
 5472TIP3    H116359   0.445   6.259   0.722
 5472TIP3    H216360   0.425   6.109   0.715
 5473TIP3   OH216361   5.190   1.379   2.514
 5473TIP3    H116362   5.160   1.469   2.502
 5473TIP3    H216363   5.116   1.325   2.486
 5474TIP3   OH216364   5.887   5.415   0.038
 5474TIP3    H116365   5.890   5.442   0.130
 5474TIP3    H216366   5.941   5.480  -0.007
 5475TIP3   OH216367   6.797   5.824   5.108
 5475TIP3    H116368   6.750   5.908   5.110
 5475TIP3    H216369   6.733   5.761   5.076
 5476TIP3   OH216370   2.544   5.377   6.557
 5476TIP3    H116371   2.472   5.320   6.529
 5476TIP3    H216372   2.555   5.359   6.650
 5477TIP3   OH216373   4.807   4.245   6.660
 5477TIP3    H116374   4.722   4.207   6.684
 5477TIP3    H216375   4.865   4.169   6.649
 5478TIP3   OH216376   2.801   4.858   1.810
 5478TIP3    H116377   2.796   4.953   1.806
 5478TIP3    H216378   2.718   4.827   1.774
 5479TIP3   OH216379   6.794   7.132   3.677
 5479TIP3    H116380   6.733   7.169   3.613
 5479TIP3    H216381   6.739   7.112   3.753
 5480TIP3   OH216382   5.674   4.505   0.107
 5480TIP3    H116383   5.635   4.487   0.193
 5480TIP3    H216384   5.768   4.504   0.123
 5481TIP3   OH216385   3.626   1.047   2.989
 5481TIP3    H116386   3.670   1.033   3.074
 5481TIP3    H216387   3.616   0.959   2.953
 5482TIP3   OH216388   4.406   4.820   6.662
 5482TIP3    H116389   4.343   4.884   6.694
 5482TIP3    H216390   4.491   4.863   6.673
 5483TIP3   OH216391   4.976   1.280   0.567
 5483TIP3    H116392   5.030   1.281   0.646
 5483TIP3    H216393   4.907   1.216   0.585
 5484TIP3   OH216394   1.949   0.845   5.492
 5484TIP3    H116395   1.863   0.857   5.452
 5484TIP3    H216396   1.930   0.817   5.581
 5485TIP3   OH216397   5.102   6.023   4.684
 5485TIP3    H116398   5.033   5.968   4.719
 5485TIP3    H216399   5.067   6.112   4.688
 5486TIP3   OH216400   4.470   0.127   0.495
 5486TIP3    H116401   4.523   0.113   0.573
 5486TIP3    H216402   4.498   0.213   0.462
 5487TIP3   OH216403   1.634   0.346   0.791
 5487TIP3    H116404   1.727   0.359   0.771
 5487TIP3    H216405   1.606   0.279   0.729
 5488TIP3   OH216406   6.894   1.730   2.835
 5488TIP3    H116407   6.806   1.710   2.867
 5488TIP3    H216408   6.948   1.732   2.914
 5489TIP3   OH216409   6.985   5.761   4.891
 5489TIP3    H116410   6.919   5.747   4.959
 5489TIP3    H216411   6.955   5.840   4.846
 5490TIP3   OH216412   1.913   6.559   4.284
 5490TIP3    H116413   1.954   6.534   4.201
 5490TIP3    H216414   1.936   6.488   4.344
 5491TIP3   OH216415   2.940   2.690   0.250
 5491TIP3    H116416   2.985   2.626   0.305
 5491TIP3    H216417   2.892   2.745   0.312
 5492TIP3   OH216418   3.036   4.947   1.588
 5492TIP3    H116419   3.001   4.925   1.675
 5492TIP3    H216420   3.131   4.944   1.599
 5493TIP3   OH216421   4.063   1.980   3.878
 5493TIP3    H116422   4.142   1.934   3.849
 5493TIP3    H216423   4.072   1.987   3.973
 5494TIP3   OH216424   1.972   2.016   5.555
 5494TIP3    H116425   1.881   2.044   5.557
 5494TIP3    H216426   2.018   2.087   5.510
 5495TIP3   OH216427   7.451   7.373   4.471
 5495TIP3    H116428   7.509   7.448   4.466
 5495TIP3    H216429   7.509   7.299   4.492
 5496TIP3   OH216430   6.285   0.912   5.289
 5496TIP3    H116431   6.340   0.938   5.215
 5496TIP3    H216432   6.295   0.817   5.293
 5497TIP3   OH216433   7.434   4.595   5.731
 5497TIP3    H116434   7.386   4.639   5.801
 5497TIP3    H216435   7.370   4.586   5.660
 5498TIP3   OH216436   1.030   4.172   5.792
 5498TIP3    H116437   1.031   4.081   5.822
 5498TIP3    H216438   0.947   4.208   5.826
 5499TIP3   OH216439   6.954   0.762   3.905
 5499TIP3    H116440   6.939   0.732   3.995
 5499TIP3    H216441   6.934   0.856   3.908
 5500TIP3   OH216442   6.878   4.256   4.139
 5500TIP3    H116443   6.887   4.242   4.045
 5500TIP3    H216444   6.932   4.332   4.158
 5501TIP3   OH216445   7.970   6.301   5.845
 5501TIP3    H116446   7.999   6.262   5.763
 5501TIP3    H216447   7.905   6.365   5.819
 5502TIP3   OH216448   7.599   5.796   6.602
 5502TIP3    H116449   7.598   5.717   6.656
 5502TIP3    H216450   7.537   5.855   6.645
 5503TIP3   OH216451   5.083   0.578   2.129
 5503TIP3    H116452   5.042   0.611   2.209
 5503TIP3    H216453   5.021   0.513   2.095
 5504TIP3   OH216454   7.412   2.509   5.814
 5504TIP3    H116455   7.436   2.578   5.876
 5504TIP3    H216456   7.392   2.556   5.733
 5505TIP3   OH216457   4.183   3.929   6.424
 5505TIP3    H116458   4.101   3.881   6.417
 5505TIP3    H216459   4.209   3.944   6.333
 5506TIP3   OH216460   0.668   2.462   0.099
 5506TIP3    H116461   0.745   2.483   0.048
 5506TIP3    H216462   0.595   2.504   0.053
 5507TIP3   OH216463   5.196   4.380   5.090
 5507TIP3    H116464   5.163   4.400   5.178
 5507TIP3    H216465   5.216   4.286   5.093
 5508TIP3   OH216466   0.641   0.118   4.132
 5508TIP3    H116467   0.609   0.209   4.128
 5508TIP3    H216468   0.564   0.067   4.156
 5509TIP3   OH216469   6.156   1.388   0.724
 5509TIP3    H116470   6.214   1.443   0.778
 5509TIP3    H216471   6.114   1.330   0.787
 5510TIP3   OH216472   8.120   4.330   6.380
 5510TIP3    H116473   8.118   4.426   6.380
 5510TIP3    H216474   8.035   4.305   6.416
 5511TIP3   OH216475   6.676   2.634   0.864
 5511TIP3    H116476   6.768   2.660   0.862
 5511TIP3    H216477   6.679   2.539   0.877
 5512TIP3   OH216478   1.786   0.823   6.150
 5512TIP3    H116479   1.762   0.731   6.162
 5512TIP3    H216480   1.717   0.858   6.093
 5513TIP3   OH216481   5.527   0.579   5.593
 5513TIP3    H116482   5.556   0.574   5.684
 5513TIP3    H216483   5.497   0.490   5.572
 5514TIP3   OH216484   7.725   1.134   5.425
 5514TIP3    H116485   7.735   1.117   5.331
 5514TIP3    H216486   7.720   1.229   5.432
 5515TIP3   OH216487   5.491   3.333   3.748
 5515TIP3    H116488   5.490   3.257   3.806
 5515TIP3    H216489   5.427   3.312   3.680
 5516TIP3   OH216490   1.665   4.212   0.315
 5516TIP3    H116491   1.730   4.155   0.273
 5516TIP3    H216492   1.591   4.212   0.255
 5517TIP3   OH216493   0.897   0.114   5.066
 5517TIP3    H116494   0.903   0.177   4.995
 5517TIP3    H216495   0.976   0.061   5.058
 5518TIP3   OH216496   6.939   5.348   1.559
 5518TIP3    H116497   6.843   5.344   1.564
 5518TIP3    H216498   6.968   5.346   1.650
 5519TIP3   OH216499   2.934   6.838   5.928
 5519TIP3    H116500   2.866   6.780   5.961
 5519TIP3    H216501   3.015   6.806   5.968
 5520TIP3   OH216502   4.912   0.996   3.946
 5520TIP3    H116503   5.007   1.004   3.951
 5520TIP3    H216504   4.897   0.906   3.918
 5521TIP3   OH216505   7.355   2.955   5.431
 5521TIP3    H116506   7.345   3.049   5.413
 5521TIP3    H216507   7.320   2.945   5.520
 5522TIP3   OH216508   0.774   5.710   6.346
 5522TIP3    H116509   0.766   5.750   6.433
 5522TIP3    H216510   0.703   5.646   6.342
 5523TIP3   OH216511   0.682   1.030   0.576
 5523TIP3    H116512   0.668   0.941   0.543
 5523TIP3    H216513   0.620   1.084   0.528
 5524TIP3   OH216514   5.216   4.765   5.076
 5524TIP3    H116515   5.140   4.736   5.027
 5524TIP3    H216516   5.235   4.693   5.137
 5525TIP3   OH216517   6.679   1.858   1.523
 5525TIP3    H116518   6.683   1.778   1.470
 5525TIP3    H216519   6.742   1.844   1.593
 5526TIP3   OH216520   2.721   5.473   1.589
 5526TIP3    H116521   2.770   5.425   1.523
 5526TIP3    H216522   2.773   5.551   1.606
 5527TIP3   OH216523   5.183   1.013   4.006
 5527TIP3    H116524   5.259   0.957   4.024
 5527TIP3    H216525   5.206   1.097   4.045
 5528TIP3   OH216526   6.773   2.378   2.730
 5528TIP3    H116527   6.759   2.285   2.747
 5528TIP3    H216528   6.743   2.422   2.809
 5529TIP3   OH216529   2.601   6.156   0.293
 5529TIP3    H116530   2.675   6.215   0.294
 5529TIP3    H216531   2.563   6.166   0.205
 5530TIP3   OH216532   8.095   0.013   3.803
 5530TIP3    H116533   8.052  -0.040   3.736
 5530TIP3    H216534   8.123   0.092   3.756
 5531TIP3   OH216535   5.413   2.829   4.089
 5531TIP3    H116536   5.403   2.918   4.057
 5531TIP3    H216537   5.334   2.812   4.139
 5532TIP3   OH216538   7.756   6.663   5.164
 5532TIP3    H116539   7.662   6.648   5.158
 5532TIP3    H216540   7.792   6.621   5.085
 5533TIP3   OH216541   4.602   1.357   4.664
 5533TIP3    H116542   4.522   1.310   4.689
 5533TIP3    H216543   4.580   1.399   4.581
 5534TIP3   OH216544   1.038   5.042   5.546
 5534TIP3    H116545   1.074   5.130   5.554
 5534TIP3    H216546   0.943   5.054   5.557
 5535TIP3   OH216547   6.420   0.354   1.702
 5535TIP3    H116548   6.466   0.335   1.784
 5535TIP3    H216549   6.395   0.446   1.709
 5536TIP3   OH216550   6.239   7.470   5.792
 5536TIP3    H116551   6.235   7.468   5.888
 5536TIP3    H216552   6.152   7.497   5.764
 5537TIP3   OH216553   1.002   7.685   5.414
 5537TIP3    H116554   0.945   7.609   5.416
 5537TIP3    H216555   0.946   7.757   5.383
 5538TIP3   OH216556   1.589   0.320   0.167
 5538TIP3    H116557   1.512   0.350   0.216
 5538TIP3    H216558   1.560   0.240   0.124
 5539TIP3   OH216559   6.037   0.435   3.634
 5539TIP3    H116560   6.113   0.485   3.604
 5539TIP3    H216561   6.074   0.369   3.693
 5540TIP3   OH216562   2.181   0.468   3.312
 5540TIP3    H116563   2.179   0.390   3.257
 5540TIP3    H216564   2.104   0.460   3.369
 5541TIP3   OH216565   4.747   7.552   3.235
 5541TIP3    H116566   4.714   7.542   3.325
 5541TIP3    H216567   4.707   7.480   3.187
 5542TIP3   OH216568   7.860   3.270   3.602
 5542TIP3    H116569   7.945   3.295   3.638
 5542TIP3    H216570   7.880   3.241   3.513
 5543TIP3   OH216571   2.656   1.100   0.489
 5543TIP3    H116572   2.674   1.009   0.465
 5543TIP3    H216573   2.565   1.099   0.520
 5544TIP3   OH216574   7.944   4.940   0.937
 5544TIP3    H116575   8.020   4.891   0.970
 5544TIP3    H216576   7.907   4.884   0.869
 5545TIP3   OH216577   2.849   6.090   5.992
 5545TIP3    H116578   2.830   6.007   6.035
 5545TIP3    H216579   2.767   6.116   5.950
 5546TIP3   OH216580   0.226   7.737   5.031
 5546TIP3    H116581   0.307   7.696   5.061
 5546TIP3    H216582   0.158   7.700   5.087
 5547TIP3   OH216583   5.643   1.545   2.216
 5547TIP3    H116584   5.607   1.622   2.172
 5547TIP3    H216585   5.579   1.475   2.198
 5548TIP3   OH216586   5.161   1.986   4.008
 5548TIP3    H116587   5.098   2.047   4.044
 5548TIP3    H216588   5.201   1.945   4.085
 5549TIP3   OH216589   6.612   4.473   3.118
 5549TIP3    H116590   6.589   4.440   3.031
 5549TIP3    H216591   6.654   4.399   3.161
 5550TIP3   OH216592   0.684   5.298   2.801
 5550TIP3    H116593   0.656   5.376   2.754
 5550TIP3    H216594   0.619   5.231   2.779
 5551TIP3   OH216595   8.257   2.870   2.776
 5551TIP3    H116596   8.258   2.946   2.833
 5551TIP3    H216597   8.256   2.906   2.688
 5552TIP3   OH216598   0.349   7.623   6.048
 5552TIP3    H116599   0.305   7.565   5.986
 5552TIP3    H216600   0.318   7.594   6.134
 5553TIP3   OH216601   2.502   3.410   6.666
 5553TIP3    H116602   2.556   3.355   6.723
 5553TIP3    H216603   2.563   3.475   6.631
 5554TIP3   OH216604   7.085   1.175   0.151
 5554TIP3    H116605   7.145   1.246   0.127
 5554TIP3    H216606   7.061   1.134   0.068
 5555TIP3   OH216607   5.034   3.551   4.634
 5555TIP3    H116608   5.078   3.474   4.599
 5555TIP3    H216609   5.030   3.612   4.561
 5556TIP3   OH216610   0.253   0.050   5.617
 5556TIP3    H116611   0.320   0.113   5.642
 5556TIP3    H216612   0.217   0.018   5.699
 5557TIP3   OH216613   4.978   7.724   5.024
 5557TIP3    H116614   5.015   7.689   4.943
 5557TIP3    H216615   4.957   7.647   5.076
 5558TIP3   OH216616   3.776   7.790   1.135
 5558TIP3    H116617   3.717   7.719   1.158
 5558TIP3    H216618   3.723   7.869   1.140
 5559TIP3   OH216619   3.580   4.782   2.708
 5559TIP3    H116620   3.535   4.848   2.761
 5559TIP3    H216621   3.547   4.796   2.619
 5560TIP3   OH216622   1.850   0.462   3.759
 5560TIP3    H116623   1.773   0.407   3.744
 5560TIP3    H216624   1.818   0.534   3.814
 5561TIP3   OH216625   5.853   2.839   6.630
 5561TIP3    H116626   5.803   2.822   6.550
 5561TIP3    H216627   5.898   2.921   6.614
 5562TIP3   OH216628   7.153   4.152   2.542
 5562TIP3    H116629   7.145   4.191   2.629
 5562TIP3    H216630   7.149   4.058   2.557
 5563TIP3   OH216631   7.247   2.911   2.597
 5563TIP3    H116632   7.247   2.818   2.577
 5563TIP3    H216633   7.240   2.915   2.693
 5564TIP3   OH216634   1.745   4.254   2.803
 5564TIP3    H116635   1.798   4.332   2.817
 5564TIP3    H216636   1.761   4.199   2.879
 5565TIP3   OH216637   4.984   1.310   0.119
 5565TIP3    H116638   4.944   1.296   0.034
 5565TIP3    H216639   4.987   1.405   0.129
 5566TIP3   OH216640   2.892   7.525   2.154
 5566TIP3    H116641   2.808   7.537   2.200
 5566TIP3    H216642   2.867   7.505   2.064
 5567TIP3   OH216643   6.611   1.563   0.827
 5567TIP3    H116644   6.587   1.573   0.920
 5567TIP3    H216645   6.605   1.651   0.791
 5568TIP3   OH216646   8.188   0.491   3.817
 5568TIP3    H116647   8.223   0.575   3.847
 5568TIP3    H216648   8.136   0.459   3.891
 5569TIP3   OH216649   4.035   4.469   6.037
 5569TIP3    H116650   3.943   4.494   6.025
 5569TIP3    H216651   4.053   4.406   5.968
 5570TIP3   OH216652   8.114   4.805   4.394
 5570TIP3    H116653   8.072   4.749   4.329
 5570TIP3    H216654   8.043   4.830   4.453
 5571TIP3   OH216655   0.278   1.780   2.612
 5571TIP3    H116656   0.321   1.865   2.599
 5571TIP3    H216657   0.328   1.719   2.558
 5572TIP3   OH216658   2.915   7.780   3.523
 5572TIP3    H116659   2.890   7.770   3.431
 5572TIP3    H216660   2.872   7.861   3.551
 5573TIP3   OH216661   0.943   7.553   1.449
 5573TIP3    H116662   0.947   7.567   1.544
 5573TIP3    H216663   1.015   7.493   1.430
 5574TIP3   OH216664   4.531   0.054   3.204
 5574TIP3    H116665   4.621   0.052   3.237
 5574TIP3    H216666   4.498   0.141   3.230
 5575TIP3   OH216667   7.505   2.812   1.924
 5575TIP3    H116668   7.478   2.805   2.015
 5575TIP3    H216669   7.460   2.741   1.879
 5576TIP3   OH216670   3.236   7.752   4.841
 5576TIP3    H116671   3.234   7.781   4.749
 5576TIP3    H216672   3.146   7.727   4.860
 5577TIP3   OH216673   6.964   4.796   0.143
 5577TIP3    H116674   6.948   4.759   0.056
 5577TIP3    H216675   6.965   4.890   0.129
 5578TIP3   OH216676   0.343   3.696   2.499
 5578TIP3    H116677   0.303   3.773   2.537
 5578TIP3    H216678   0.270   3.646   2.462
 5579TIP3   OH216679   1.962   2.632   3.668
 5579TIP3    H116680   1.927   2.544   3.657
 5579TIP3    H216681   1.919   2.666   3.746
 5580TIP3   OH216682   3.763   1.783   2.358
 5580TIP3    H116683   3.687   1.758   2.411
 5580TIP3    H216684   3.819   1.834   2.417
 5581TIP3   OH216685   0.755   5.581   3.598
 5581TIP3    H116686   0.818   5.540   3.657
 5581TIP3    H216687   0.673   5.535   3.614
 5582TIP3   OH216688   4.742   0.699   3.012
 5582TIP3    H116689   4.807   0.704   2.942
 5582TIP3    H216690   4.781   0.747   3.084
 5583TIP3   OH216691   2.748   0.408   3.018
 5583TIP3    H116692   2.784   0.491   3.047
 5583TIP3    H216693   2.824   0.351   3.006
 5584TIP3   OH216694   0.222   3.730   0.200
 5584TIP3    H116695   0.172   3.811   0.193
 5584TIP3    H216696   0.162   3.668   0.240
 5585TIP3   OH216697   4.969   6.125   4.251
 5585TIP3    H116698   4.936   6.064   4.317
 5585TIP3    H216699   5.064   6.117   4.256
 5586TIP3   OH216700   5.378   1.123   4.700
 5586TIP3    H116701   5.327   1.131   4.620
 5586TIP3    H216702   5.313   1.125   4.770
 5587TIP3   OH216703   0.224   4.114   4.624
 5587TIP3    H116704   0.240   4.023   4.650
 5587TIP3    H216705   0.165   4.107   4.549
 5588TIP3   OH216706   7.335   4.981   1.936
 5588TIP3    H116707   7.389   5.060   1.936
 5588TIP3    H216708   7.386   4.918   1.884
 5589TIP3   OH216709   0.456   2.289   1.487
 5589TIP3    H116710   0.367   2.313   1.512
 5589TIP3    H216711   0.507   2.369   1.497
 5590TIP3   OH216712   4.027   4.828   2.468
 5590TIP3    H116713   4.086   4.899   2.442
 5590TIP3    H216714   3.998   4.852   2.557
 5591TIP3   OH216715   8.231   0.746   6.226
 5591TIP3    H116716   8.237   0.694   6.306
 5591TIP3    H216717   8.182   0.824   6.252
 5592TIP3   OH216718   6.333   0.145   0.610
 5592TIP3    H116719   6.240   0.165   0.608
 5592TIP3    H216720   6.355   0.127   0.518
 5593TIP3   OH216721   8.083   2.971   6.268
 5593TIP3    H116722   8.074   3.063   6.243
 5593TIP3    H216723   8.045   2.966   6.355
 5594TIP3   OH216724   0.123   5.955   2.159
 5594TIP3    H116725   0.121   5.949   2.255
 5594TIP3    H216726   0.216   5.949   2.137
 5595TIP3   OH216727   1.959   2.473   4.219
 5595TIP3    H116728   1.947   2.502   4.310
 5595TIP3    H216729   1.998   2.548   4.175
 5596TIP3   OH216730   0.302   5.225   6.364
 5596TIP3    H116731   0.325   5.210   6.455
 5596TIP3    H216732   0.383   5.254   6.323
 5597TIP3   OH216733   5.431   0.850   5.482
 5597TIP3    H116734   5.435   0.768   5.531
 5597TIP3    H216735   5.518   0.888   5.491
 5598TIP3   OH216736   4.149   3.198   2.158
 5598TIP3    H116737   4.212   3.186   2.087
 5598TIP3    H216738   4.119   3.109   2.178
 5599TIP3   OH216739   3.041   6.422   5.079
 5599TIP3    H116740   3.124   6.445   5.037
 5599TIP3    H216741   3.055   6.441   5.172
 5600TIP3   OH216742   2.579   6.001   6.460
 5600TIP3    H116743   2.567   6.016   6.366
 5600TIP3    H216744   2.509   5.941   6.484
 5601TIP3   OH216745   0.953   5.147   3.453
 5601TIP3    H116746   1.042   5.118   3.432
 5601TIP3    H216747   0.951   5.239   3.426
 5602TIP3   OH216748   8.219   2.658   1.840
 5602TIP3    H116749   8.295   2.716   1.829
 5602TIP3    H216750   8.170   2.696   1.913
 5603TIP3   OH216751   5.969   7.123   3.575
 5603TIP3    H116752   6.006   7.169   3.650
 5603TIP3    H216753   5.882   7.096   3.603
 5604TIP3   OH216754   7.262   0.298   2.493
 5604TIP3    H116755   7.211   0.294   2.574
 5604TIP3    H216756   7.199   0.273   2.425
 5605TIP3   OH216757   5.464   2.190   2.417
 5605TIP3    H116758   5.467   2.094   2.420
 5605TIP3    H216759   5.556   2.216   2.413
 5606TIP3   OH216760   6.643   3.703   3.475
 5606TIP3    H116761   6.626   3.691   3.569
 5606TIP3    H216762   6.574   3.654   3.431
 5607TIP3   OH216763   5.021   3.892   2.944
 5607TIP3    H116764   5.095   3.831   2.948
 5607TIP3    H216765   4.981   3.888   3.031
 5608TIP3   OH216766   5.727   4.873   3.513
 5608TIP3    H116767   5.688   4.874   3.601
 5608TIP3    H216768   5.783   4.950   3.511
 5609TIP3   OH216769   7.912   4.885   4.562
 5609TIP3    H116770   7.825   4.864   4.596
 5609TIP3    H216771   7.895   4.931   4.480
 5610TIP3   OH216772   4.544   7.003   0.924
 5610TIP3    H116773   4.463   7.044   0.954
 5610TIP3    H216774   4.559   6.932   0.987
 5611TIP3   OH216775   5.127   7.325   0.884
 5611TIP3    H116776   5.131   7.346   0.977
 5611TIP3    H216777   5.208   7.362   0.848
 5612TIP3   OH216778   3.340   7.268   6.178
 5612TIP3    H116779   3.297   7.183   6.168
 5612TIP3    H216780   3.344   7.304   6.090
 5613TIP3   OH216781   4.507   4.781   0.602
 5613TIP3    H116782   4.594   4.786   0.643
 5613TIP3    H216783   4.503   4.692   0.566
 5614TIP3   OH216784   5.983   6.427   2.035
 5614TIP3    H116785   5.949   6.472   1.958
 5614TIP3    H216786   5.917   6.361   2.056
 5615TIP3   OH216787   1.937   0.022   2.793
 5615TIP3    H116788   1.850   0.017   2.752
 5615TIP3    H216789   1.966   0.111   2.776
 5616TIP3   OH216790   2.174   1.378   0.697
 5616TIP3    H116791   2.258   1.355   0.737
 5616TIP3    H216792   2.191   1.375   0.603
 5617TIP3   OH216793   1.380   7.462   0.960
 5617TIP3    H116794   1.343   7.462   0.871
 5617TIP3    H216795   1.474   7.449   0.946
 5618TIP3   OH216796   0.459   0.307   3.535
 5618TIP3    H116797   0.402   0.349   3.471
 5618TIP3    H216798   0.402   0.246   3.582
 5619TIP3   OH216799   5.589   7.306   2.164
 5619TIP3    H116800   5.664   7.256   2.133
 5619TIP3    H216801   5.567   7.365   2.091
 5620TIP3   OH216802   5.795   5.565   2.585
 5620TIP3    H116803   5.707   5.537   2.613
 5620TIP3    H216804   5.821   5.630   2.651
 5621TIP3   OH216805   1.474   0.188   3.224
 5621TIP3    H116806   1.523   0.113   3.190
 5621TIP3    H216807   1.426   0.154   3.299
 5622TIP3   OH216808   0.001   2.118   2.979
 5622TIP3    H116809   0.063   2.049   2.956
 5622TIP3    H216810   0.053   2.198   2.982
 5623TIP3   OH216811   6.861   7.168   5.554
 5623TIP3    H116812   6.902   7.229   5.615
 5623TIP3    H216813   6.909   7.086   5.565
 5624TIP3   OH216814   3.485   5.791   5.364
 5624TIP3    H116815   3.514   5.882   5.360
 5624TIP3    H216816   3.469   5.776   5.457
 5625TIP3   OH216817   2.858   0.011   2.893
 5625TIP3    H116818   2.842   0.092   2.844
 5625TIP3    H216819   2.865   0.039   2.984
 5626TIP3   OH216820   3.611   5.352   1.136
 5626TIP3    H116821   3.664   5.277   1.163
 5626TIP3    H216822   3.613   5.349   1.040
 5627TIP3   OH216823   3.645   5.830   1.583
 5627TIP3    H116824   3.565   5.780   1.569
 5627TIP3    H216825   3.692   5.783   1.652
 5628TIP3   OH216826   5.248   2.960   0.525
 5628TIP3    H116827   5.305   2.989   0.453
 5628TIP3    H216828   5.240   3.037   0.581
 5629TIP3   OH216829   7.498   5.776   5.438
 5629TIP3    H116830   7.498   5.730   5.522
 5629TIP3    H216831   7.429   5.842   5.447
 5630TIP3   OH216832   6.672   4.409   2.299
 5630TIP3    H116833   6.585   4.444   2.279
 5630TIP3    H216834   6.655   4.331   2.352
 5631TIP3   OH216835   6.793   7.337   0.527
 5631TIP3    H116836   6.759   7.378   0.607
 5631TIP3    H216837   6.726   7.353   0.461
 5632TIP3   OH216838   1.292   5.102   0.715
 5632TIP3    H116839   1.334   5.105   0.801
 5632TIP3    H216840   1.359   5.069   0.656
 5633TIP3   OH216841   5.124   0.445   2.440
 5633TIP3    H116842   5.092   0.358   2.418
 5633TIP3    H216843   5.049   0.502   2.427
 5634TIP3   OH216844   3.771   3.742   6.624
 5634TIP3    H116845   3.680   3.771   6.631
 5634TIP3    H216846   3.823   3.819   6.646
 5635TIP3   OH216847   7.709   4.981   3.427
 5635TIP3    H116848   7.768   4.912   3.458
 5635TIP3    H216849   7.625   4.937   3.416
 5636TIP3   OH216850   5.086   4.573   0.414
 5636TIP3    H116851   5.023   4.623   0.362
 5636TIP3    H216852   5.033   4.510   0.462
 5637TIP3   OH216853   8.035   0.181   4.438
 5637TIP3    H116854   7.967   0.187   4.505
 5637TIP3    H216855   8.039   0.269   4.400
 5638TIP3   OH216856   2.443   3.999   0.206
 5638TIP3    H116857   2.481   3.911   0.202
 5638TIP3    H216858   2.396   4.008   0.124
 5639TIP3   OH216859   7.548   2.943   1.133
 5639TIP3    H116860   7.602   2.983   1.202
 5639TIP3    H216861   7.543   3.010   1.065
 5640TIP3   OH216862   8.181   5.813   0.795
 5640TIP3    H116863   8.109   5.760   0.762
 5640TIP3    H216864   8.140   5.881   0.847
 5641TIP3   OH216865   7.772   5.884   4.856
 5641TIP3    H116866   7.683   5.861   4.829
 5641TIP3    H216867   7.825   5.809   4.830
 5642TIP3   OH216868   1.251   0.472   4.141
 5642TIP3    H116869   1.228   0.474   4.048
 5642TIP3    H216870   1.168   0.463   4.187
 5643TIP3   OH216871   3.048   7.187   0.553
 5643TIP3    H116872   3.044   7.192   0.649
 5643TIP3    H216873   3.091   7.103   0.536
 5644TIP3   OH216874   6.072   5.271   2.754
 5644TIP3    H116875   6.032   5.298   2.672
 5644TIP3    H216876   6.085   5.176   2.744
 5645TIP3   OH216877   7.030   7.062   3.592
 5645TIP3    H116878   7.014   6.988   3.533
 5645TIP3    H216879   6.943   7.096   3.612
 5646TIP3   OH216880   1.655   4.505   5.042
 5646TIP3    H116881   1.707   4.497   4.962
 5646TIP3    H216882   1.633   4.415   5.065
 5647TIP3   OH216883   1.548   6.605   3.256
 5647TIP3    H116884   1.538   6.696   3.228
 5647TIP3    H216885   1.642   6.592   3.263
 5648TIP3   OH216886   0.666   1.652   6.156
 5648TIP3    H116887   0.726   1.723   6.177
 5648TIP3    H216888   0.586   1.696   6.128
 5649TIP3   OH216889   6.783   5.590   2.714
 5649TIP3    H116890   6.757   5.522   2.777
 5649TIP3    H216891   6.853   5.638   2.759
 5650TIP3   OH216892   5.670   1.756   6.346
 5650TIP3    H116893   5.592   1.781   6.394
 5650TIP3    H216894   5.741   1.804   6.388
 5651TIP3   OH216895   4.135   6.208   4.597
 5651TIP3    H116896   4.162   6.191   4.688
 5651TIP3    H216897   4.175   6.292   4.576
 5652TIP3   OH216898   1.359   6.953   4.013
 5652TIP3    H116899   1.380   7.040   3.981
 5652TIP3    H216900   1.304   6.914   3.945
 5653TIP3   OH216901   2.880   1.472   2.852
 5653TIP3    H116902   2.844   1.559   2.872
 5653TIP3    H216903   2.915   1.441   2.936
 5654TIP3   OH216904   0.794   4.443   1.490
 5654TIP3    H116905   0.808   4.503   1.562
 5654TIP3    H216906   0.865   4.461   1.429
 5655TIP3   OH216907   1.483   3.087   1.093
 5655TIP3    H116908   1.485   3.115   1.002
 5655TIP3    H216909   1.507   3.166   1.142
 5656TIP3   OH216910   7.180   4.890   6.032
 5656TIP3    H116911   7.179   4.985   6.016
 5656TIP3    H216912   7.092   4.862   6.007
 5657TIP3   OH216913   1.978   3.557   4.611
 5657TIP3    H116914   1.952   3.649   4.607
 5657TIP3    H216915   2.062   3.553   4.566
 5658TIP3   OH216916   6.405   1.099   0.500
 5658TIP3    H116917   6.398   1.154   0.422
 5658TIP3    H216918   6.441   1.157   0.567
 5659TIP3   OH216919   2.183   3.083   2.399
 5659TIP3    H116920   2.196   3.091   2.305
 5659TIP3    H216921   2.185   2.989   2.416
 5660TIP3   OH216922   8.156   4.367   4.414
 5660TIP3    H116923   8.239   4.325   4.440
 5660TIP3    H216924   8.103   4.295   4.379
 5661TIP3   OH216925   4.873   5.972   4.861
 5661TIP3    H116926   4.807   5.986   4.793
 5661TIP3    H216927   4.827   5.928   4.932
 5662TIP3   OH216928   4.307   2.147   0.284
 5662TIP3    H116929   4.252   2.135   0.206
 5662TIP3    H216930   4.253   2.200   0.343
 5663TIP3   OH216931   7.824   2.193   1.893
 5663TIP3    H116932   7.879   2.250   1.946
 5663TIP3    H216933   7.778   2.138   1.956
 5664TIP3   OH216934   0.089   5.965   4.206
 5664TIP3    H116935   0.119   5.974   4.297
 5664TIP3    H216936   0.124   5.881   4.178
 5665TIP3   OH216937   5.686   2.350   5.319
 5665TIP3    H116938   5.628   2.386   5.386
 5665TIP3    H216939   5.737   2.283   5.365
 5666TIP3   OH216940   0.554   7.426   1.764
 5666TIP3    H116941   0.534   7.464   1.679
 5666TIP3    H216942   0.533   7.495   1.827
 5667TIP3   OH216943   0.883   6.213   3.907
 5667TIP3    H116944   0.955   6.222   3.970
 5667TIP3    H216945   0.848   6.125   3.922
 5668TIP3   OH216946   7.229   7.765   6.629
 5668TIP3    H116947   7.324   7.765   6.628
 5668TIP3    H216948   7.205   7.857   6.641
 5669TIP3   OH216949   2.564   4.045   1.068
 5669TIP3    H116950   2.576   4.056   1.163
 5669TIP3    H216951   2.494   4.107   1.046
 5670TIP3   OH216952   0.065   2.460   4.744
 5670TIP3    H116953   0.013   2.397   4.795
 5670TIP3    H216954   0.146   2.471   4.795
 5671TIP3   OH216955   2.255   5.448   3.133
 5671TIP3    H116956   2.196   5.521   3.114
 5671TIP3    H216957   2.248   5.435   3.227
 5672TIP3   OH216958   5.625   3.993   0.503
 5672TIP3    H116959   5.542   4.028   0.537
 5672TIP3    H216960   5.605   3.966   0.414
 5673TIP3   OH216961   4.147   7.047   1.641
 5673TIP3    H116962   4.171   7.118   1.582
 5673TIP3    H216963   4.052   7.043   1.637
 5674TIP3   OH216964   1.755   3.594   3.113
 5674TIP3    H116965   1.688   3.661   3.122
 5674TIP3    H216966   1.718   3.517   3.155
 5675TIP3   OH216967   4.249   0.444   6.381
 5675TIP3    H116968   4.329   0.455   6.432
 5675TIP3    H216969   4.271   0.476   6.294
 5676TIP3   OH216970   6.498   4.197   4.512
 5676TIP3    H116971   6.480   4.203   4.418
 5676TIP3    H216972   6.448   4.121   4.541
 5677TIP3   OH216973   1.785   2.192   2.645
 5677TIP3    H116974   1.822   2.226   2.727
 5677TIP3    H216975   1.715   2.254   2.623
 5678TIP3   OH216976   8.161   0.559   6.047
 5678TIP3    H116977   8.207   0.494   6.101
 5678TIP3    H216978   8.189   0.644   6.082
 5679TIP3   OH216979   6.648   0.821   5.889
 5679TIP3    H116980   6.618   0.878   5.819
 5679TIP3    H216981   6.581   0.753   5.895
 5680TIP3   OH216982   1.862   0.251   0.906
 5680TIP3    H116983   1.892   0.325   0.958
 5680TIP3    H216984   1.770   0.240   0.931
 5681TIP3   OH216985   1.861   6.142   4.723
 5681TIP3    H116986   1.851   6.236   4.709
 5681TIP3    H216987   1.928   6.135   4.791
 5682TIP3   OH216988   6.112   5.976   5.810
 5682TIP3    H116989   6.195   6.019   5.828
 5682TIP3    H216990   6.060   5.989   5.889
 5683TIP3   OH216991   2.597   2.175   3.011
 5683TIP3    H116992   2.569   2.183   2.920
 5683TIP3    H216993   2.547   2.100   3.045
 5684TIP3   OH216994   8.314   0.769   4.113
 5684TIP3    H116995   8.296   0.838   4.176
 5684TIP3    H216996   8.296   0.687   4.160
 5685TIP3   OH216997   5.119   6.349   5.636
 5685TIP3    H116998   5.178   6.415   5.598
 5685TIP3    H216999   5.126   6.274   5.578
 5686TIP3   OH217000   3.559   0.962   1.035
 5686TIP3    H117001   3.559   1.032   1.100
 5686TIP3    H217002   3.467   0.934   1.030
 5687TIP3   OH217003   2.060   4.199   6.292
 5687TIP3    H117004   1.978   4.215   6.246
 5687TIP3    H217005   2.091   4.286   6.317
 5688TIP3   OH217006   0.395   6.183   1.075
 5688TIP3    H117007   0.414   6.120   1.006
 5688TIP3    H217008   0.302   6.170   1.095
 5689TIP3   OH217009   5.138   2.053   5.153
 5689TIP3    H117010   5.117   2.010   5.236
 5689TIP3    H217011   5.171   2.139   5.177
 5690TIP3   OH217012   2.573   2.855   4.461
 5690TIP3    H117013   2.636   2.886   4.396
 5690TIP3    H217014   2.623   2.794   4.516
 5691TIP3   OH217015   5.986   6.523   2.534
 5691TIP3    H117016   6.070   6.535   2.489
 5691TIP3    H217017   6.008   6.517   2.627
 5692TIP3   OH217018   4.519   3.581   5.128
 5692TIP3    H117019   4.497   3.648   5.192
 5692TIP3    H217020   4.451   3.587   5.061
 5693TIP3   OH217021   0.403   5.131   4.568
 5693TIP3    H117022   0.425   5.145   4.660
 5693TIP3    H217023   0.338   5.199   4.548
 5694TIP3   OH217024   5.975   0.438   0.510
 5694TIP3    H117025   5.973   0.527   0.543
 5694TIP3    H217026   5.925   0.442   0.428
 5695TIP3   OH217027   6.339   1.998   1.472
 5695TIP3    H117028   6.386   2.041   1.543
 5695TIP3    H217029   6.345   2.059   1.399
 5696TIP3   OH217030   2.702   1.297   1.134
 5696TIP3    H117031   2.622   1.312   1.083
 5696TIP3    H217032   2.746   1.382   1.136
 5697TIP3   OH217033   2.394   4.726   2.795
 5697TIP3    H117034   2.360   4.815   2.809
 5697TIP3    H217035   2.438   4.704   2.877
 5698TIP3   OH217036   1.970   1.316   1.663
 5698TIP3    H117037   1.979   1.360   1.747
 5698TIP3    H217038   2.037   1.356   1.607
 5699TIP3   OH217039   2.185   0.503   4.131
 5699TIP3    H117040   2.237   0.567   4.081
 5699TIP3    H217041   2.094   0.524   4.111
 5700TIP3   OH217042   2.888   1.183   5.074
 5700TIP3    H117043   2.867   1.091   5.059
 5700TIP3    H217044   2.914   1.217   4.989
 5701TIP3   OH217045   5.644   1.385   2.572
 5701TIP3    H117046   5.576   1.350   2.515
 5701TIP3    H217047   5.686   1.308   2.610
 5702TIP3   OH217048   7.636   1.068   0.702
 5702TIP3    H117049   7.592   0.992   0.663
 5702TIP3    H217050   7.676   1.113   0.628
 5703TIP3   OH217051   4.038   5.049   0.108
 5703TIP3    H117052   4.108   4.999   0.150
 5703TIP3    H217053   4.053   5.139   0.136
 5704TIP3   OH217054   7.252   1.803   5.444
 5704TIP3    H117055   7.202   1.723   5.430
 5704TIP3    H217056   7.196   1.872   5.408
 5705TIP3   OH217057   7.368   2.133   0.266
 5705TIP3    H117058   7.378   2.137   0.361
 5705TIP3    H217059   7.273   2.128   0.252
 5706TIP3   OH217060   4.330   1.620   5.387
 5706TIP3    H117061   4.401   1.566   5.351
 5706TIP3    H217062   4.358   1.641   5.476
 5707TIP3   OH217063   5.062   1.218   3.059
 5707TIP3    H117064   5.059   1.277   2.984
 5707TIP3    H217065   4.991   1.249   3.117
 5708TIP3   OH217066   6.162   5.870   6.321
 5708TIP3    H117067   6.127   5.782   6.335
 5708TIP3    H217068   6.245   5.870   6.368
 5709TIP3   OH217069   8.012   1.205   5.207
 5709TIP3    H117070   8.083   1.235   5.150
 5709TIP3    H217071   8.015   1.264   5.282
 5710TIP3   OH217072   2.524   0.254   6.265
 5710TIP3    H117073   2.580   0.205   6.325
 5710TIP3    H217074   2.438   0.211   6.271
 5711TIP3   OH217075   3.721   0.048   4.951
 5711TIP3    H117076   3.711   0.114   4.883
 5711TIP3    H217077   3.636   0.004   4.955
 5712TIP3   OH217078   2.987   1.599   2.389
 5712TIP3    H117079   3.069   1.621   2.344
 5712TIP3    H217080   3.014   1.569   2.475
 5713TIP3   OH217081   8.242   6.899   4.658
 5713TIP3    H117082   8.304   6.859   4.719
 5713TIP3    H217083   8.203   6.825   4.612
 5714TIP3   OH217084   1.681   2.452   0.375
 5714TIP3    H117085   1.656   2.371   0.331
 5714TIP3    H217086   1.731   2.501   0.310
 5715TIP3   OH217087   1.356   2.857   1.419
 5715TIP3    H117088   1.343   2.952   1.429
 5715TIP3    H217089   1.449   2.844   1.437
 5716TIP3   OH217090   6.610   2.081   2.172
 5716TIP3    H117091   6.549   2.049   2.239
 5716TIP3    H217092   6.694   2.043   2.195
 5717TIP3   OH217093   6.225   5.750   0.034
 5717TIP3    H117094   6.308   5.702   0.028
 5717TIP3    H217095   6.168   5.708  -0.031
 5718TIP3   OH217096   5.853   3.311   2.800
 5718TIP3    H117097   5.937   3.272   2.823
 5718TIP3    H217098   5.869   3.356   2.717
 5719TIP3   OH217099   1.816   3.737   2.490
 5719TIP3    H117100   1.840   3.658   2.442
 5719TIP3    H217101   1.852   3.724   2.578
 5720TIP3   OH217102   4.604   3.494   1.242
 5720TIP3    H117103   4.570   3.441   1.314
 5720TIP3    H217104   4.695   3.511   1.266
 5721TIP3   OH217105   0.245   6.667   6.409
 5721TIP3    H117106   0.166   6.614   6.416
 5721TIP3    H217107   0.264   6.695   6.498
 5722TIP3   OH217108   4.604   5.655   1.085
 5722TIP3    H117109   4.590   5.679   1.177
 5722TIP3    H217110   4.671   5.716   1.054
 5723TIP3   OH217111   1.599   6.539   1.382
 5723TIP3    H117112   1.664   6.610   1.389
 5723TIP3    H217113   1.642   6.464   1.423
 5724TIP3   OH217114   0.868   6.925   3.234
 5724TIP3    H117115   0.776   6.933   3.209
 5724TIP3    H217116   0.907   7.009   3.211
 5725TIP3   OH217117   7.080   0.373   3.731
 5725TIP3    H117118   7.077   0.422   3.648
 5725TIP3    H217119   7.153   0.411   3.779
 5726TIP3   OH217120   7.965   4.159   5.684
 5726TIP3    H117121   8.050   4.167   5.727
 5726TIP3    H217122   7.903   4.145   5.756
 5727TIP3   OH217123   2.373   7.387   5.520
 5727TIP3    H117124   2.391   7.293   5.513
 5727TIP3    H217125   2.446   7.421   5.572
 5728TIP3   OH217126   7.658   6.587   2.390
 5728TIP3    H117127   7.643   6.623   2.302
 5728TIP3    H217128   7.752   6.598   2.405
 5729TIP3   OH217129   3.943   5.960   2.968
 5729TIP3    H117130   3.868   5.939   2.912
 5729TIP3    H217131   3.908   5.960   3.057
 5730TIP3   OH217132   6.409   6.595   2.041
 5730TIP3    H117133   6.470   6.577   2.112
 5730TIP3    H217134   6.402   6.512   1.994
 5731TIP3   OH217135   0.732   1.774   4.357
 5731TIP3    H117136   0.686   1.691   4.366
 5731TIP3    H217137   0.807   1.767   4.417
 5732TIP3   OH217138   0.946   4.682   5.344
 5732TIP3    H117139   0.957   4.673   5.438
 5732TIP3    H217140   1.012   4.746   5.317
 5733TIP3   OH217141   7.413   1.315   5.442
 5733TIP3    H117142   7.337   1.259   5.457
 5733TIP3    H217143   7.419   1.322   5.346
 5734TIP3   OH217144   6.366   1.576   6.725
 5734TIP3    H117145   6.285   1.525   6.729
 5734TIP3    H217146   6.369   1.622   6.809
 5735TIP3   OH217147   7.048   3.492   5.931
 5735TIP3    H117148   7.139   3.518   5.944
 5735TIP3    H217149   7.007   3.505   6.017
 5736TIP3   OH217150   4.826   3.923   0.215
 5736TIP3    H117151   4.775   3.850   0.183
 5736TIP3    H217152   4.882   3.886   0.284
 5737TIP3   OH217153   6.149   2.075   2.309
 5737TIP3    H117154   6.192   2.111   2.231
 5737TIP3    H217155   6.210   2.093   2.380
 5738TIP3   OH217156   1.199   0.473   0.828
 5738TIP3    H117157   1.124   0.460   0.886
 5738TIP3    H217158   1.180   0.553   0.780
 5739TIP3   OH217159   5.487   7.135   2.363
 5739TIP3    H117160   5.533   7.190   2.299
 5739TIP3    H217161   5.517   7.167   2.448
 5740TIP3   OH217162   4.601   6.013   6.615
 5740TIP3    H117163   4.568   5.927   6.641
 5740TIP3    H217164   4.683   5.994   6.570
 5741TIP3   OH217165   6.252   0.120   2.761
 5741TIP3    H117166   6.219   0.185   2.823
 5741TIP3    H217167   6.315   0.167   2.707
 5742TIP3   OH217168   4.060   3.994   2.424
 5742TIP3    H117169   4.088   4.057   2.358
 5742TIP3    H217170   4.124   4.004   2.495
 5743TIP3   OH217171   0.009   5.255   6.039
 5743TIP3    H117172  -0.013   5.347   6.022
 5743TIP3    H217173   0.057   5.257   6.122
 5744TIP3   OH217174   7.117   6.688   5.900
 5744TIP3    H117175   7.110   6.697   5.805
 5744TIP3    H217176   7.207   6.716   5.919
 5745TIP3   OH217177   6.971   7.716   1.289
 5745TIP3    H117178   7.045   7.753   1.240
 5745TIP3    H217179   6.917   7.791   1.312
 5746TIP3   OH217180   4.283   0.284   5.314
 5746TIP3    H117181   4.205   0.237   5.282
 5746TIP3    H217182   4.247   0.360   5.360
 5747TIP3   OH217183   2.378   0.625   3.962
 5747TIP3    H117184   2.445   0.603   3.896
 5747TIP3    H217185   2.391   0.718   3.980
 5748TIP3   OH217186   5.639   1.260   6.701
 5748TIP3    H117187   5.623   1.246   6.794
 5748TIP3    H217188   5.552   1.268   6.662
 5749TIP3   OH217189   0.504   5.929   6.183
 5749TIP3    H117190   0.445   5.857   6.161
 5749TIP3    H217191   0.590   5.899   6.154
 5750TIP3   OH217192   0.261   0.513   3.187
 5750TIP3    H117193   0.194   0.543   3.248
 5750TIP3    H217194   0.216   0.510   3.102
 5751TIP3   OH217195   4.759   6.831   2.570
 5751TIP3    H117196   4.678   6.875   2.595
 5751TIP3    H217197   4.777   6.771   2.643
 5752TIP3   OH217198   4.721   3.774   6.673
 5752TIP3    H117199   4.662   3.756   6.746
 5752TIP3    H217200   4.669   3.757   6.595
 5753TIP3   OH217201   6.492   3.178   0.099
 5753TIP3    H117202   6.518   3.219   0.182
 5753TIP3    H217203   6.398   3.194   0.093
 5754TIP3   OH217204   1.585   5.527   1.530
 5754TIP3    H117205   1.635   5.471   1.589
 5754TIP3    H217206   1.493   5.508   1.549
 5755TIP3   OH217207   4.180   3.800   0.771
 5755TIP3    H117208   4.107   3.850   0.736
 5755TIP3    H217209   4.141   3.719   0.805
 5756TIP3   OH217210   1.396   0.881   5.724
 5756TIP3    H117211   1.351   0.945   5.668
 5756TIP3    H217212   1.353   0.798   5.705
 5757TIP3   OH217213   7.688   2.388   5.058
 5757TIP3    H117214   7.721   2.478   5.065
 5757TIP3    H217215   7.767   2.334   5.057
 5758TIP3   OH217216   3.297   1.595   0.739
 5758TIP3    H117217   3.296   1.690   0.728
 5758TIP3    H217218   3.390   1.572   0.738
 5759TIP3   OH217219   6.653   3.107   5.546
 5759TIP3    H117220   6.712   3.169   5.588
 5759TIP3    H217221   6.702   3.074   5.471
 5760TIP3   OH217222   1.432   1.296   5.666
 5760TIP3    H117223   1.461   1.310   5.756
 5760TIP3    H217224   1.501   1.244   5.626
 5761TIP3   OH217225   1.004   6.329   5.613
 5761TIP3    H117226   1.078   6.383   5.586
 5761TIP3    H217227   0.927   6.384   5.596
 5762TIP3   OH217228   0.415   4.465   3.342
 5762TIP3    H117229   0.389   4.557   3.346
 5762TIP3    H217230   0.369   4.431   3.265
 5763TIP3   OH217231   0.564   5.364   0.221
 5763TIP3    H117232   0.597   5.322   0.300
 5763TIP3    H217233   0.621   5.332   0.151
 5764TIP3   OH217234   2.913   5.412   2.567
 5764TIP3    H117235   2.900   5.416   2.662
 5764TIP3    H217236   2.831   5.443   2.530
 5765TIP3   OH217237   5.932   0.136   3.737
 5765TIP3    H117238   5.877   0.177   3.670
 5765TIP3    H217239   5.990   0.206   3.768
 5766TIP3   OH217240   1.580   0.129   2.494
 5766TIP3    H117241   1.488   0.104   2.484
 5766TIP3    H217242   1.616   0.065   2.555
 5767TIP3   OH217243   4.496   1.851   0.271
 5767TIP3    H117244   4.561   1.783   0.254
 5767TIP3    H217245   4.539   1.933   0.247
 5768TIP3   OH217246   6.495   2.991   3.073
 5768TIP3    H117247   6.520   3.083   3.066
 5768TIP3    H217248   6.506   2.971   3.167
 5769TIP3   OH217249   5.786   6.658   3.614
 5769TIP3    H117250   5.784   6.752   3.627
 5769TIP3    H217251   5.801   6.621   3.701
 5770TIP3   OH217252   2.522   4.187   4.048
 5770TIP3    H117253   2.610   4.149   4.055
 5770TIP3    H217254   2.537   4.279   4.027
 5771TIP3   OH217255   4.603   6.885   3.539
 5771TIP3    H117256   4.616   6.975   3.569
 5771TIP3    H217257   4.550   6.894   3.460
 5772TIP3   OH217258   4.925   1.619   1.561
 5772TIP3    H117259   5.009   1.615   1.607
 5772TIP3    H217260   4.870   1.553   1.604
 5773TIP3   OH217261   5.283   4.394   0.449
 5773TIP3    H117262   5.236   4.477   0.445
 5773TIP3    H217263   5.353   4.403   0.384
 5774TIP3   OH217264   1.520   7.370   1.527
 5774TIP3    H117265   1.442   7.394   1.477
 5774TIP3    H217266   1.574   7.450   1.526
 5775TIP3   OH217267   6.265   4.857   5.963
 5775TIP3    H117268   6.294   4.772   5.930
 5775TIP3    H217269   6.176   4.841   5.997
 5776TIP3   OH217270   0.676   3.361   2.110
 5776TIP3    H117271   0.676   3.435   2.171
 5776TIP3    H217272   0.583   3.342   2.095
 5777TIP3   OH217273   3.202   4.102   5.832
 5777TIP3    H117274   3.261   4.178   5.820
 5777TIP3    H217275   3.117   4.134   5.803
 5778TIP3   OH217276   4.612   1.549   5.353
 5778TIP3    H117277   4.622   1.502   5.270
 5778TIP3    H217278   4.700   1.551   5.390
 5779TIP3   OH217279   0.315   7.566   2.483
 5779TIP3    H117280   0.341   7.537   2.570
 5779TIP3    H217281   0.397   7.572   2.434
 5780TIP3   OH217282   3.118   7.362   2.683
 5780TIP3    H117283   3.046   7.366   2.746
 5780TIP3    H217284   3.197   7.378   2.735
 5781TIP3   OH217285   5.299   4.919   1.394
 5781TIP3    H117286   5.307   4.843   1.335
 5781TIP3    H217287   5.207   4.919   1.421
 5782TIP3   OH217288   4.180   5.953   4.491
 5782TIP3    H117289   4.192   6.035   4.539
 5782TIP3    H217290   4.268   5.914   4.490
 5783TIP3   OH217291   0.944   2.279   5.279
 5783TIP3    H117292   0.907   2.352   5.230
 5783TIP3    H217293   0.961   2.315   5.366
 5784TIP3   OH217294   2.975   0.618   2.304
 5784TIP3    H117295   2.903   0.646   2.247
 5784TIP3    H217296   2.976   0.523   2.297
 5785TIP3   OH217297   7.566   1.820   0.261
 5785TIP3    H117298   7.545   1.890   0.199
 5785TIP3    H217299   7.535   1.740   0.219
 5786TIP3   OH217300   7.702   6.677   5.452
 5786TIP3    H117301   7.737   6.684   5.363
 5786TIP3    H217302   7.651   6.757   5.465
 5787TIP3   OH217303   7.086  -0.013   0.231
 5787TIP3    H117304   7.161   0.019   0.181
 5787TIP3    H217305   7.086   0.039   0.311
 5788TIP3   OH217306   7.012   0.825   4.749
 5788TIP3    H117307   6.991   0.731   4.749
 5788TIP3    H217308   7.034   0.845   4.840
 5789TIP3   OH217309   0.133   7.157   1.683
 5789TIP3    H117310   0.074   7.150   1.758
 5789TIP3    H217311   0.220   7.142   1.719
 5790TIP3   OH217312   1.157   1.939   6.326
 5790TIP3    H117313   1.063   1.923   6.326
 5790TIP3    H217314   1.195   1.855   6.297
 5791TIP3   OH217315   0.303   2.473   2.285
 5791TIP3    H117316   0.313   2.379   2.301
 5791TIP3    H217317   0.375   2.495   2.226
 5792TIP3   OH217318   1.710   4.031   1.991
 5792TIP3    H117319   1.725   3.972   2.065
 5792TIP3    H217320   1.707   3.973   1.915
 5793TIP3   OH217321   5.860   1.867   4.993
 5793TIP3    H117322   5.852   1.843   4.900
 5793TIP3    H217323   5.899   1.789   5.034
 5794TIP3   OH217324   7.811   1.340   6.346
 5794TIP3    H117325   7.893   1.308   6.308
 5794TIP3    H217326   7.808   1.301   6.434
 5795TIP3   OH217327   0.887   7.432   2.050
 5795TIP3    H117328   0.959   7.431   2.114
 5795TIP3    H217329   0.910   7.362   1.989
 5796TIP3   OH217330   2.042   6.152   4.923
 5796TIP3    H117331   2.012   6.079   4.976
 5796TIP3    H217332   2.138   6.143   4.921
 5797TIP3   OH217333   4.822   0.563   2.689
 5797TIP3    H117334   4.777   0.644   2.665
 5797TIP3    H217335   4.914   0.587   2.694
 5798TIP3   OH217336   2.705   4.576   3.710
 5798TIP3    H117337   2.664   4.512   3.768
 5798TIP3    H217338   2.779   4.610   3.761
 5799TIP3   OH217339   1.088   7.744   0.914
 5799TIP3    H117340   1.091   7.686   0.990
 5799TIP3    H217341   1.097   7.832   0.950
 5800TIP3   OH217342   6.281   4.329   3.331
 5800TIP3    H117343   6.290   4.291   3.418
 5800TIP3    H217344   6.327   4.267   3.274
 5801TIP3   OH217345   2.023   5.677   3.833
 5801TIP3    H117346   2.066   5.714   3.910
 5801TIP3    H217347   1.976   5.600   3.866
 5802TIP3   OH217348   1.909   5.562   4.862
 5802TIP3    H117349   1.983   5.604   4.906
 5802TIP3    H217350   1.863   5.634   4.819
 5803TIP3   OH217351   5.007   3.723   4.970
 5803TIP3    H117352   4.949   3.655   5.002
 5803TIP3    H217353   4.987   3.730   4.877
 5804TIP3   OH217354   6.406   5.844   3.780
 5804TIP3    H117355   6.450   5.900   3.716
 5804TIP3    H217356   6.323   5.888   3.796
 5805TIP3   OH217357   6.358   4.294   3.599
 5805TIP3    H117358   6.336   4.359   3.665
 5805TIP3    H217359   6.450   4.272   3.617
 5806TIP3   OH217360   4.156   3.940   3.938
 5806TIP3    H117361   4.069   3.978   3.948
 5806TIP3    H217362   4.148   3.881   3.863
 5807TIP3   OH217363   5.868   2.466   5.840
 5807TIP3    H117364   5.930   2.506   5.901
 5807TIP3    H217365   5.919   2.445   5.763
 5808TIP3   OH217366   2.223   7.665   0.191
 5808TIP3    H117367   2.305   7.654   0.240
 5808TIP3    H217368   2.182   7.578   0.194
 5809TIP3   OH217369   0.025   7.169   3.781
 5809TIP3    H117370   0.051   7.259   3.800
 5809TIP3    H217371  -0.022   7.140   3.859
 5810TIP3   OH217372   4.018   5.398   4.918
 5810TIP3    H117373   4.094   5.425   4.970
 5810TIP3    H217374   4.056   5.348   4.846
 5811TIP3   OH217375   2.147   0.266   3.126
 5811TIP3    H117376   2.134   0.325   3.053
 5811TIP3    H217377   2.068   0.212   3.128
 5812TIP3   OH217378   3.938   1.997   4.132
 5812TIP3    H117379   3.922   2.081   4.175
 5812TIP3    H217380   4.006   1.956   4.186
 5813TIP3   OH217381   1.792   7.786   3.930
 5813TIP3    H117382   1.849   7.817   4.000
 5813TIP3    H217383   1.848   7.784   3.853
 5814TIP3   OH217384   8.061   5.275   6.711
 5814TIP3    H117385   8.090   5.244   6.797
 5814TIP3    H217386   8.127   5.339   6.686
 5815TIP3   OH217387   2.636   3.440   2.532
 5815TIP3    H117388   2.672   3.525   2.557
 5815TIP3    H217389   2.554   3.434   2.580
 5816TIP3   OH217390   7.076   6.221   1.815
 5816TIP3    H117391   7.116   6.197   1.899
 5816TIP3    H217392   7.106   6.311   1.799
 5817TIP3   OH217393   5.681   5.246   5.826
 5817TIP3    H117394   5.639   5.324   5.789
 5817TIP3    H217395   5.773   5.254   5.799
 5818TIP3   OH217396   2.680   5.861   6.061
 5818TIP3    H117397   2.662   5.821   5.976
 5818TIP3    H217398   2.650   5.795   6.124
 5819TIP3   OH217399   8.289   4.489   3.306
 5819TIP3    H117400   8.244   4.568   3.338
 5819TIP3    H217401   8.362   4.477   3.367
 5820TIP3   OH217402   7.541   6.881   5.219
 5820TIP3    H117403   7.524   6.875   5.313
 5820TIP3    H217404   7.595   6.959   5.209
 5821TIP3   OH217405   2.814   5.227   4.846
 5821TIP3    H117406   2.894   5.266   4.880
 5821TIP3    H217407   2.808   5.142   4.889
 5822TIP3   OH217408   3.950   3.537   5.845
 5822TIP3    H117409   4.006   3.606   5.808
 5822TIP3    H217410   3.872   3.537   5.790
 5823TIP3   OH217411   3.247   0.491   0.491
 5823TIP3    H117412   3.273   0.543   0.415
 5823TIP3    H217413   3.259   0.400   0.463
 5824TIP3   OH217414   4.838   1.448   5.634
 5824TIP3    H117415   4.913   1.462   5.576
 5824TIP3    H217416   4.869   1.477   5.720
 5825TIP3   OH217417   6.312   7.649   2.927
 5825TIP3    H117418   6.316   7.555   2.911
 5825TIP3    H217419   6.235   7.661   2.984
 5826TIP3   OH217420   5.063   4.013   3.248
 5826TIP3    H117421   5.008   4.082   3.210
 5826TIP3    H217422   5.099   4.052   3.327
 5827TIP3   OH217423   7.107   3.967   0.300
 5827TIP3    H117424   7.085   3.876   0.280
 5827TIP3    H217425   7.075   3.980   0.390
 5828TIP3   OH217426   5.325   1.548   0.966
 5828TIP3    H117427   5.236   1.568   0.937
 5828TIP3    H217428   5.315   1.514   1.055
 5829TIP3   OH217429   8.014   3.889   1.269
 5829TIP3    H117430   8.089   3.863   1.323
 5829TIP3    H217431   7.938   3.874   1.325
 5830TIP3   OH217432   3.718   1.058   0.519
 5830TIP3    H117433   3.703   1.039   0.612
 5830TIP3    H217434   3.712   0.972   0.477
 5831TIP3   OH217435   6.852   1.580   3.825
 5831TIP3    H117436   6.843   1.559   3.918
 5831TIP3    H217437   6.766   1.563   3.788
 5832TIP3   OH217438   1.504   4.415   6.495
 5832TIP3    H117439   1.492   4.354   6.568
 5832TIP3    H217440   1.589   4.393   6.458
 5833TIP3   OH217441   3.223   0.154   3.795
 5833TIP3    H117442   3.213   0.112   3.709
 5833TIP3    H217443   3.138   0.143   3.837
 5834TIP3   OH217444   1.868   5.494   3.949
 5834TIP3    H117445   1.787   5.478   3.900
 5834TIP3    H217446   1.853   5.452   4.034
 5835TIP3   OH217447   7.875   4.191   2.688
 5835TIP3    H117448   7.919   4.117   2.730
 5835TIP3    H217449   7.827   4.152   2.615
 5836TIP3   OH217450   3.466   3.479   5.337
 5836TIP3    H117451   3.413   3.538   5.391
 5836TIP3    H217452   3.512   3.538   5.277
 5837TIP3   OH217453   7.811   1.389   3.129
 5837TIP3    H117454   7.896   1.427   3.105
 5837TIP3    H217455   7.805   1.309   3.076
 5838TIP3   OH217456   7.354   4.547   3.404
 5838TIP3    H117457   7.318   4.636   3.398
 5838TIP3    H217458   7.369   4.522   3.312
 5839TIP3   OH217459   6.400   7.109   1.405
 5839TIP3    H117460   6.403   7.024   1.448
 5839TIP3    H217461   6.329   7.101   1.341
 5840TIP3   OH217462   4.334   6.725   2.494
 5840TIP3    H117463   4.371   6.637   2.507
 5840TIP3    H217464   4.250   6.722   2.541
 5841TIP3   OH217465   2.726   3.998   5.997
 5841TIP3    H117466   2.676   3.987   6.078
 5841TIP3    H217467   2.662   3.982   5.927
 5842TIP3   OH217468   1.677   2.350   3.396
 5842TIP3    H117469   1.658   2.343   3.302
 5842TIP3    H217470   1.668   2.261   3.429
 5843TIP3   OH217471   7.603   2.584   2.973
 5843TIP3    H117472   7.617   2.519   3.042
 5843TIP3    H217473   7.508   2.585   2.961
 5844TIP3   OH217474   1.796   0.184   3.716
 5844TIP3    H117475   1.791   0.220   3.805
 5844TIP3    H217476   1.774   0.091   3.726
 5845TIP3   OH217477   4.593   6.616   3.560
 5845TIP3    H117478   4.608   6.705   3.528
 5845TIP3    H217479   4.511   6.622   3.610
 5846TIP3   OH217480   7.288   6.404   4.040
 5846TIP3    H117481   7.221   6.363   4.095
 5846TIP3    H217482   7.320   6.477   4.093
 5847TIP3   OH217483   4.836   6.436   1.944
 5847TIP3    H117484   4.773   6.382   1.896
 5847TIP3    H217485   4.911   6.379   1.958
 5848TIP3   OH217486   5.342   3.751   6.251
 5848TIP3    H117487   5.421   3.712   6.212
 5848TIP3    H217488   5.276   3.683   6.240
 5849TIP3   OH217489   7.424   0.498   5.856
 5849TIP3    H117490   7.332   0.523   5.847
 5849TIP3    H217491   7.461   0.511   5.769
 5850TIP3   OH217492   3.191   5.384   3.750
 5850TIP3    H117493   3.152   5.301   3.722
 5850TIP3    H217494   3.119   5.431   3.792
 5851TIP3   OH217495   0.235   3.628   5.290
 5851TIP3    H117496   0.329   3.641   5.272
 5851TIP3    H217497   0.202   3.583   5.212
 5852TIP3   OH217498   3.172   2.171   2.394
 5852TIP3    H117499   3.191   2.264   2.386
 5852TIP3    H217500   3.222   2.143   2.471
 5853TIP3   OH217501   4.461   6.111   0.075
 5853TIP3    H117502   4.427   6.021   0.070
 5853TIP3    H217503   4.383   6.166   0.067
 5854TIP3   OH217504   0.968   5.492   5.251
 5854TIP3    H117505   1.030   5.420   5.241
 5854TIP3    H217506   0.947   5.491   5.345
 5855TIP3   OH217507   4.870   3.283   5.640
 5855TIP3    H117508   4.925   3.236   5.577
 5855TIP3    H217509   4.922   3.360   5.664
 5856TIP3   OH217510   5.871   4.001   0.914
 5856TIP3    H117511   5.799   3.945   0.944
 5856TIP3    H217512   5.852   4.018   0.822
 5857TIP3   OH217513   5.255   6.059   0.146
 5857TIP3    H117514   5.294   6.113   0.215
 5857TIP3    H217515   5.190   6.005   0.192
 5858TIP3   OH217516   1.149   4.801   4.386
 5858TIP3    H117517   1.061   4.766   4.398
 5858TIP3    H217518   1.177   4.768   4.301
 5859TIP3   OH217519   1.070   1.246   6.182
 5859TIP3    H117520   1.137   1.252   6.250
 5859TIP3    H217521   1.034   1.335   6.177
 5860TIP3   OH217522   1.243   2.052   3.501
 5860TIP3    H117523   1.151   2.025   3.503
 5860TIP3    H217524   1.248   2.123   3.565
 5861TIP3   OH217525   4.895   3.058   4.556
 5861TIP3    H117526   4.839   3.089   4.628
 5861TIP3    H217527   4.894   2.962   4.565
 5862TIP3   OH217528   3.575   3.831   0.340
 5862TIP3    H117529   3.522   3.754   0.318
 5862TIP3    H217530   3.554   3.850   0.431
 5863TIP3   OH217531   1.437   0.451   0.379
 5863TIP3    H117532   1.400   0.539   0.378
 5863TIP3    H217533   1.392   0.408   0.452
 5864TIP3   OH217534   1.875   4.900   3.318
 5864TIP3    H117535   1.964   4.870   3.298
 5864TIP3    H217536   1.883   4.996   3.324
 5865TIP3   OH217537   5.571   2.442   3.278
 5865TIP3    H117538   5.513   2.395   3.338
 5865TIP3    H217539   5.511   2.483   3.215
 5866TIP3   OH217540   0.572   6.853   5.427
 5866TIP3    H117541   0.563   6.925   5.364
 5866TIP3    H217542   0.534   6.887   5.508
 5867TIP3   OH217543   0.065   5.488   5.878
 5867TIP3    H117544   0.085   5.582   5.876
 5867TIP3    H217545   0.007   5.474   5.803
 5868TIP3   OH217546   3.227   1.678   0.132
 5868TIP3    H117547   3.180   1.674   0.215
 5868TIP3    H217548   3.208   1.765   0.097
 5869TIP3   OH217549   4.726   6.903   5.967
 5869TIP3    H117550   4.816   6.871   5.976
 5869TIP3    H217551   4.694   6.912   6.057
 5870TIP3   OH217552   4.524   4.038   3.525
 5870TIP3    H117553   4.605   4.047   3.476
 5870TIP3    H217554   4.513   4.123   3.569
 5871TIP3   OH217555   5.534   5.732   4.572
 5871TIP3    H117556   5.550   5.740   4.478
 5871TIP3    H217557   5.442   5.753   4.583
 5872TIP3   OH217558   3.302   0.936   1.118
 5872TIP3    H117559   3.289   1.028   1.095
 5872TIP3    H217560   3.251   0.888   1.053
 5873TIP3   OH217561   4.843   3.722   1.350
 5873TIP3    H117562   4.754   3.756   1.347
 5873TIP3    H217563   4.862   3.712   1.443
 5874TIP3   OH217564   1.998   3.160   0.634
 5874TIP3    H117565   1.973   3.252   0.632
 5874TIP3    H217566   1.941   3.121   0.701
 5875TIP3   OH217567   7.812   3.836   5.961
 5875TIP3    H117568   7.769   3.833   6.047
 5875TIP3    H217569   7.811   3.929   5.937
 5876TIP3   OH217570   5.745   3.318   6.467
 5876TIP3    H117571   5.795   3.256   6.521
 5876TIP3    H217572   5.656   3.315   6.504
 5877TIP3   OH217573   6.255   6.991   5.148
 5877TIP3    H117574   6.180   7.034   5.189
 5877TIP3    H217575   6.219   6.914   5.105
 5878TIP3   OH217576   5.592   3.996   6.255
 5878TIP3    H117577   5.546   3.918   6.286
 5878TIP3    H217578   5.604   3.982   6.161
 5879TIP3   OH217579   3.486   5.275   3.011
 5879TIP3    H117580   3.442   5.331   2.947
 5879TIP3    H217581   3.578   5.302   3.007
 5880TIP3   OH217582   3.887   5.492   0.223
 5880TIP3    H117583   3.794   5.499   0.204
 5880TIP3    H217584   3.923   5.446   0.147
 5881TIP3   OH217585   2.452   0.249   2.639
 5881TIP3    H117586   2.484   0.289   2.720
 5881TIP3    H217587   2.466   0.315   2.572
 5882TIP3   OH217588   3.836   1.270   3.237
 5882TIP3    H117589   3.889   1.305   3.308
 5882TIP3    H217590   3.755   1.241   3.279
 5883TIP3   OH217591   3.734   4.315   5.382
 5883TIP3    H117592   3.717   4.407   5.405
 5883TIP3    H217593   3.647   4.274   5.380
 5884TIP3   OH217594   0.545   6.552   2.390
 5884TIP3    H117595   0.549   6.494   2.314
 5884TIP3    H217596   0.622   6.528   2.442
 5885TIP3   OH217597   0.913   1.710   2.919
 5885TIP3    H117598   0.939   1.619   2.932
 5885TIP3    H217599   0.899   1.743   3.008
 5886TIP3   OH217600   0.470   0.853   3.024
 5886TIP3    H117601   0.537   0.921   3.013
 5886TIP3    H217602   0.468   0.807   2.941
 5887TIP3   OH217603   0.768   5.045   5.519
 5887TIP3    H117604   0.766   4.986   5.595
 5887TIP3    H217605   0.678   5.044   5.486
 5888TIP3   OH217606   2.484   4.101   1.717
 5888TIP3    H117607   2.486   4.197   1.719
 5888TIP3    H217608   2.494   4.075   1.808
 5889TIP3   OH217609   2.907   2.188   2.504
 5889TIP3    H117610   2.966   2.173   2.579
 5889TIP3    H217611   2.964   2.178   2.427
 5890TIP3   OH217612   1.608   0.373   2.080
 5890TIP3    H117613   1.619   0.295   2.134
 5890TIP3    H217614   1.525   0.411   2.107
 5891TIP3   OH217615   8.048   6.619   5.673
 5891TIP3    H117616   8.133   6.577   5.676
 5891TIP3    H217617   8.047   6.677   5.749
 5892TIP3   OH217618   6.883   3.438   5.185
 5892TIP3    H117619   6.815   3.407   5.125
 5892TIP3    H217620   6.956   3.379   5.171
 5893TIP3   OH217621   3.985   0.451   1.677
 5893TIP3    H117622   4.042   0.506   1.730
 5893TIP3    H217623   4.044   0.404   1.618
 5894TIP3   OH217624   3.872   0.325   1.393
 5894TIP3    H117625   3.841   0.367   1.474
 5894TIP3    H217626   3.934   0.258   1.423
 5895TIP3   OH217627   2.696   1.275   2.488
 5895TIP3    H117628   2.715   1.368   2.502
 5895TIP3    H217629   2.618   1.275   2.433
 5896TIP3   OH217630   0.945   7.769   1.853
 5896TIP3    H117631   0.871   7.751   1.910
 5896TIP3    H217632   0.910   7.828   1.786
 5897TIP3   OH217633   1.536   3.091   3.457
 5897TIP3    H117634   1.570   3.010   3.422
 5897TIP3    H217635   1.480   3.064   3.530
 5898TIP3   OH217636   1.030   7.524   3.773
 5898TIP3    H117637   1.009   7.594   3.712
 5898TIP3    H217638   1.057   7.568   3.853
 5899TIP3   OH217639   8.326   6.306   6.251
 5899TIP3    H117640   8.265   6.236   6.274
 5899TIP3    H217641   8.301   6.331   6.162
 5900TIP3   OH217642   4.596   7.179   4.894
 5900TIP3    H117643   4.635   7.102   4.853
 5900TIP3    H217644   4.630   7.253   4.844
 5901TIP3   OH217645   1.654   0.057   6.073
 5901TIP3    H117646   1.695   0.095   6.151
 5901TIP3    H217647   1.601   0.128   6.038
 5902TIP3   OH217648   7.633   3.672   0.871
 5902TIP3    H117649   7.580   3.747   0.898
 5902TIP3    H217650   7.589   3.639   0.792
 5903TIP3   OH217651   4.730   0.495   5.315
 5903TIP3    H117652   4.666   0.429   5.289
 5903TIP3    H217653   4.762   0.466   5.400
 5904TIP3   OH217654   5.626   1.080   2.394
 5904TIP3    H117655   5.587   1.164   2.371
 5904TIP3    H217656   5.674   1.096   2.475
 5905TIP3   OH217657   2.352   5.207   6.387
 5905TIP3    H117658   2.430   5.154   6.370
 5905TIP3    H217659   2.308   5.213   6.302
 5906TIP3   OH217660   5.291   0.141   4.881
 5906TIP3    H117661   5.231   0.071   4.907
 5906TIP3    H217662   5.258   0.169   4.795
 5907TIP3   OH217663   6.222   1.988   2.773
 5907TIP3    H117664   6.134   2.014   2.747
 5907TIP3    H217665   6.221   1.990   2.868
 5908TIP3   OH217666   1.951   7.075   0.619
 5908TIP3    H117667   2.006   7.004   0.585
 5908TIP3    H217668   1.956   7.144   0.553
 5909TIP3   OH217669   3.751   5.645   1.776
 5909TIP3    H117670   3.686   5.580   1.801
 5909TIP3    H217671   3.835   5.603   1.794
 5910TIP3   OH217672   0.851   5.783   2.116
 5910TIP3    H117673   0.810   5.709   2.073
 5910TIP3    H217674   0.872   5.752   2.204
 5911TIP3   OH217675   3.883   6.277   5.146
 5911TIP3    H117676   3.879   6.361   5.191
 5911TIP3    H217677   3.882   6.212   5.216
 5912TIP3   OH217678   1.751   6.267   0.097
 5912TIP3    H117679   1.828   6.221   0.062
 5912TIP3    H217680   1.698   6.286   0.020
 5913TIP3   OH217681   4.037   3.486   2.596
 5913TIP3    H117682   4.062   3.562   2.543
 5913TIP3    H217683   4.015   3.418   2.532
 5914TIP3   OH217684   6.132   6.904   2.291
 5914TIP3    H117685   6.211   6.876   2.244
 5914TIP3    H217686   6.162   6.917   2.381
 5915TIP3   OH217687   7.718   7.565   5.853
 5915TIP3    H117688   7.739   7.555   5.760
 5915TIP3    H217689   7.682   7.653   5.861
 5916TIP3   OH217690   3.831   0.991   1.786
 5916TIP3    H117691   3.922   1.001   1.760
 5916TIP3    H217692   3.782   0.990   1.704
 5917TIP3   OH217693   4.613   6.329   4.738
 5917TIP3    H117694   4.634   6.328   4.831
 5917TIP3    H217695   4.636   6.242   4.706
 5918TIP3   OH217696   4.185   2.438   1.775
 5918TIP3    H117697   4.134   2.505   1.820
 5918TIP3    H217698   4.273   2.474   1.769
 5919TIP3   OH217699   4.020   0.040   1.138
 5919TIP3    H117700   3.978   0.122   1.111
 5919TIP3    H217701   3.964   0.005   1.207
 5920TIP3   OH217702   5.978   3.231   1.409
 5920TIP3    H117703   5.948   3.288   1.480
 5920TIP3    H217704   6.016   3.155   1.454
 5921TIP3   OH217705   1.017   6.824   0.024
 5921TIP3    H117706   1.029   6.782  -0.061
 5921TIP3    H217707   0.938   6.783   0.060
 5922TIP3   OH217708   4.665   7.586   2.802
 5922TIP3    H117709   4.578   7.625   2.811
 5922TIP3    H217710   4.673   7.566   2.709
 5923TIP3   OH217711   1.051   1.882   6.002
 5923TIP3    H117712   1.110   1.830   6.057
 5923TIP3    H217713   1.107   1.917   5.933
 5924TIP3   OH217714   4.860   0.034   2.931
 5924TIP3    H117715   4.833   0.104   2.871
 5924TIP3    H217716   4.827  -0.046   2.890
 5925TIP3   OH217717   5.227   4.590   1.285
 5925TIP3    H117718   5.247   4.511   1.236
 5925TIP3    H217719   5.222   4.562   1.376
 5926TIP3   OH217720   0.995   0.527   5.072
 5926TIP3    H117721   0.977   0.481   5.154
 5926TIP3    H217722   0.925   0.499   5.013
 5927TIP3   OH217723   7.857   0.620   6.700
 5927TIP3    H117724   7.872   0.555   6.631
 5927TIP3    H217725   7.915   0.594   6.771
 5928TIP3   OH217726   0.948   0.378   6.317
 5928TIP3    H117727   0.900   0.410   6.241
 5928TIP3    H217728   0.973   0.288   6.294
 5929TIP3   OH217729   3.842   5.087   1.782
 5929TIP3    H117730   3.844   5.033   1.861
 5929TIP3    H217731   3.929   5.127   1.777
 5930TIP3   OH217732   6.570   7.617   5.732
 5930TIP3    H117733   6.547   7.708   5.749
 5930TIP3    H217734   6.527   7.595   5.649
 5931TIP3   OH217735   6.649   3.560   5.676
 5931TIP3    H117736   6.736   3.586   5.708
 5931TIP3    H217737   6.633   3.615   5.600
 5932TIP3   OH217738   7.602   0.147   3.759
 5932TIP3    H117739   7.611   0.095   3.679
 5932TIP3    H217740   7.630   0.235   3.735
 5933TIP3   OH217741   2.852   2.221   1.075
 5933TIP3    H117742   2.828   2.148   1.018
 5933TIP3    H217743   2.861   2.181   1.162
 5934TIP3   OH217744   6.403   3.654   5.716
 5934TIP3    H117745   6.482   3.608   5.686
 5934TIP3    H217746   6.364   3.595   5.780
 5935TIP3   OH217747   6.984   7.591   4.030
 5935TIP3    H117748   7.032   7.573   4.111
 5935TIP3    H217749   6.913   7.649   4.058
 5936TIP3   OH217750   3.023   6.001   2.888
 5936TIP3    H117751   2.934   5.986   2.921
 5936TIP3    H217752   3.077   6.007   2.966
 5937TIP3   OH217753   7.766   0.143   1.925
 5937TIP3    H117754   7.800   0.075   1.983
 5937TIP3    H217755   7.752   0.100   1.841
 5938TIP3   OH217756   5.500   4.014   2.510
 5938TIP3    H117757   5.579   4.063   2.534
 5938TIP3    H217758   5.529   3.953   2.442
 5939TIP3   OH217759   3.290   6.304   5.652
 5939TIP3    H117760   3.226   6.373   5.672
 5939TIP3    H217761   3.292   6.249   5.731
 5940TIP3   OH217762   3.643   1.723   3.691
 5940TIP3    H117763   3.698   1.796   3.720
 5940TIP3    H217764   3.610   1.684   3.772
 5941TIP3   OH217765   1.480   1.422   0.479
 5941TIP3    H117766   1.565   1.465   0.484
 5941TIP3    H217767   1.480   1.362   0.553
 5942TIP3   OH217768   0.400   7.652   0.035
 5942TIP3    H117769   0.361   7.652   0.123
 5942TIP3    H217770   0.483   7.605   0.047
 5943TIP3   OH217771   0.567   5.742   2.437
 5943TIP3    H117772   0.654   5.752   2.477
 5943TIP3    H217773   0.523   5.825   2.453
 5944TIP3   OH217774   3.950   5.714   2.547
 5944TIP3    H117775   3.937   5.736   2.639
 5944TIP3    H217776   4.043   5.694   2.540
 5945TIP3   OH217777   6.873   3.408   3.694
 5945TIP3    H117778   6.869   3.460   3.613
 5945TIP3    H217779   6.905   3.322   3.666
 5946TIP3   OH217780   1.843   3.090   0.883
 5946TIP3    H117781   1.765   3.145   0.893
 5946TIP3    H217782   1.842   3.034   0.960
 5947TIP3   OH217783   5.410   1.971   1.570
 5947TIP3    H117784   5.364   2.006   1.493
 5947TIP3    H217785   5.500   2.004   1.561
 5948TIP3   OH217786   3.176   4.280   2.701
 5948TIP3    H117787   3.173   4.184   2.694
 5948TIP3    H217788   3.129   4.311   2.624
 5949TIP3   OH217789   3.869   4.468   2.588
 5949TIP3    H117790   3.949   4.468   2.534
 5949TIP3    H217791   3.900   4.440   2.674
 5950TIP3   OH217792   6.599   5.187   4.830
 5950TIP3    H117793   6.606   5.154   4.740
 5950TIP3    H217794   6.510   5.167   4.856
 5951TIP3   OH217795   2.460   6.695   1.617
 5951TIP3    H117796   2.366   6.691   1.635
 5951TIP3    H217797   2.466   6.719   1.525
 5952TIP3   OH217798   5.040   3.339   2.878
 5952TIP3    H117799   4.991   3.278   2.932
 5952TIP3    H217800   4.973   3.390   2.832
 5953TIP3   OH217801   0.868   2.814   1.429
 5953TIP3    H117802   0.777   2.803   1.401
 5953TIP3    H217803   0.894   2.727   1.460
 5954TIP3   OH217804   2.765   6.043   3.323
 5954TIP3    H117805   2.680   6.002   3.305
 5954TIP3    H217806   2.808   5.983   3.384
 5955TIP3   OH217807   6.118   6.467   4.212
 5955TIP3    H117808   6.109   6.536   4.277
 5955TIP3    H217809   6.039   6.413   4.223
 5956TIP3   OH217810   3.864   3.158   2.794
 5956TIP3    H117811   3.840   3.110   2.715
 5956TIP3    H217812   3.832   3.247   2.778
 5957TIP3   OH217813   6.874   3.491   6.169
 5957TIP3    H117814   6.859   3.584   6.151
 5957TIP3    H217815   6.792   3.459   6.206
 5958TIP3   OH217816   6.606   2.550   3.014
 5958TIP3    H117817   6.598   2.610   2.939
 5958TIP3    H217818   6.571   2.467   2.982
 5959TIP3   OH217819   1.032   7.488   0.073
 5959TIP3    H117820   1.041   7.564   0.131
 5959TIP3    H217821   0.992   7.421   0.128
 5960TIP3   OH217822   3.890   6.236   2.785
 5960TIP3    H117823   3.908   6.192   2.868
 5960TIP3    H217824   3.804   6.277   2.797
 5961TIP3   OH217825   6.609   0.010   2.756
 5961TIP3    H117826   6.550  -0.002   2.681
 5961TIP3    H217827   6.557   0.056   2.821
 5962TIP3   OH217828   4.115   3.196   4.579
 5962TIP3    H117829   4.051   3.162   4.640
 5962TIP3    H217830   4.083   3.284   4.558
 5963TIP3   OH217831   1.286   1.426   1.626
 5963TIP3    H117832   1.348   1.470   1.568
 5963TIP3    H217833   1.309   1.458   1.714
 5964TIP3   OH217834   2.614   0.029   4.732
 5964TIP3    H117835   2.677   0.100   4.717
 5964TIP3    H217836   2.627  -0.030   4.658
 5965TIP3   OH217837   6.655   1.782   3.620
 5965TIP3    H117838   6.718   1.725   3.575
 5965TIP3    H217839   6.624   1.841   3.551
 5966TIP3   OH217840   3.497   1.712   0.170
 5966TIP3    H117841   3.403   1.695   0.175
 5966TIP3    H217842   3.518   1.699   0.077
 5967TIP3   OH217843   4.299   4.294   2.426
 5967TIP3    H117844   4.225   4.350   2.402
 5967TIP3    H217845   4.279   4.210   2.386
 5968TIP3   OH217846   4.276   5.489   5.015
 5968TIP3    H117847   4.329   5.516   4.940
 5968TIP3    H217848   4.332   5.428   5.063
 5969TIP3   OH217849   3.525   3.871   6.595
 5969TIP3    H117850   3.538   3.965   6.611
 5969TIP3    H217851   3.435   3.865   6.565
 5970TIP3   OH217852   0.399   4.020   0.303
 5970TIP3    H117853   0.410   4.101   0.254
 5970TIP3    H217854   0.477   3.969   0.283
 5971TIP3   OH217855   0.290   5.424   4.581
 5971TIP3    H117856   0.311   5.496   4.522
 5971TIP3    H217857   0.259   5.467   4.661
 5972TIP3   OH217858   1.602   2.284   4.456
 5972TIP3    H117859   1.687   2.327   4.461
 5972TIP3    H217860   1.548   2.344   4.404
 5973TIP3   OH217861   1.980   4.518   0.135
 5973TIP3    H117862   1.991   4.499   0.228
 5973TIP3    H217863   2.027   4.448   0.090
 5974TIP3   OH217864   6.679   3.342   1.142
 5974TIP3    H117865   6.593   3.379   1.159
 5974TIP3    H217866   6.715   3.395   1.070
 5975TIP3   OH217867   5.396   6.162   5.508
 5975TIP3    H117868   5.302   6.177   5.515
 5975TIP3    H217869   5.421   6.125   5.593
 5976TIP3   OH217870   0.129   4.821   3.605
 5976TIP3    H117871   0.132   4.760   3.678
 5976TIP3    H217872   0.058   4.789   3.550
 5977TIP3   OH217873   7.484   6.422   6.289
 5977TIP3    H117874   7.576   6.399   6.271
 5977TIP3    H217875   7.465   6.381   6.373
 5978TIP3   OH217876   8.058   3.220   6.149
 5978TIP3    H117877   8.095   3.181   6.070
 5978TIP3    H217878   8.038   3.311   6.124
 5979TIP3   OH217879   2.292   0.092   6.169
 5979TIP3    H117880   2.333   0.057   6.248
 5979TIP3    H217881   2.331   0.042   6.097
 5980TIP3   OH217882   2.936   4.426   3.617
 5980TIP3    H117883   3.000   4.492   3.644
 5980TIP3    H217884   2.851   4.470   3.626
 5981TIP3   OH217885   2.220   3.301   4.610
 5981TIP3    H117886   2.189   3.231   4.668
 5981TIP3    H217887   2.277   3.256   4.547
 5982TIP3   OH217888   7.209   6.681   4.764
 5982TIP3    H117889   7.148   6.753   4.748
 5982TIP3    H217890   7.283   6.722   4.809
 5983TIP3   OH217891   1.188   2.656   5.986
 5983TIP3    H117892   1.278   2.653   6.021
 5983TIP3    H217893   1.158   2.565   5.990
 5984TIP3   OH217894   8.273   2.249   0.036
 5984TIP3    H117895   8.341   2.316   0.041
 5984TIP3    H217896   8.209   2.284  -0.026
 5985TIP3   OH217897   6.607   6.435   6.358
 5985TIP3    H117898   6.655   6.391   6.287
 5985TIP3    H217899   6.516   6.435   6.329
 5986TIP3   OH217900   4.646   0.650   5.107
 5986TIP3    H117901   4.675   0.602   5.185
 5986TIP3    H217902   4.550   0.652   5.115
 5987TIP3   OH217903   6.549   1.343   4.456
 5987TIP3    H117904   6.516   1.408   4.394
 5987TIP3    H217905   6.643   1.359   4.461
 5988TIP3   OH217906   2.971   0.947   2.719
 5988TIP3    H117907   3.063   0.924   2.730
 5988TIP3    H217908   2.952   0.925   2.628
 5989TIP3   OH217909   1.567   0.804   1.198
 5989TIP3    H117910   1.635   0.748   1.236
 5989TIP3    H217911   1.585   0.890   1.236
 5990TIP3   OH217912   8.043   3.294   3.006
 5990TIP3    H117913   7.971   3.335   2.958
 5990TIP3    H217914   8.043   3.338   3.091
 5991TIP3   OH217915   3.703   2.665   6.232
 5991TIP3    H117916   3.681   2.604   6.162
 5991TIP3    H217917   3.793   2.640   6.257
 5992TIP3   OH217918   4.128   5.108   3.988
 5992TIP3    H117919   4.065   5.121   4.058
 5992TIP3    H217920   4.162   5.195   3.969
 5993TIP3   OH217921   7.453   4.757   5.203
 5993TIP3    H117922   7.403   4.797   5.275
 5993TIP3    H217923   7.531   4.812   5.194
 5994TIP3   OH217924   1.116   5.326   4.214
 5994TIP3    H117925   1.060   5.265   4.262
 5994TIP3    H217926   1.057   5.370   4.153
 5995TIP3   OH217927   1.961   7.495   3.878
 5995TIP3    H117928   1.887   7.554   3.866
 5995TIP3    H217929   2.038   7.552   3.876
 5996TIP3   OH217930   1.545   6.325   3.687
 5996TIP3    H117931   1.489   6.251   3.710
 5996TIP3    H217932   1.489   6.383   3.637
 5997TIP3   OH217933   0.950   7.016   0.978
 5997TIP3    H117934   0.885   6.945   0.977
 5997TIP3    H217935   1.033   6.973   0.995
 5998TIP3   OH217936   7.853  -0.005   2.127
 5998TIP3    H117937   7.822  -0.004   2.217
 5998TIP3    H217938   7.947   0.012   2.133
 5999TIP3   OH217939   5.024   3.785   4.448
 5999TIP3    H117940   4.943   3.764   4.401
 5999TIP3    H217941   5.030   3.881   4.443
 6000TIP3   OH217942   0.268   3.732   2.197
 6000TIP3    H117943   0.174   3.734   2.183
 6000TIP3    H217944   0.287   3.814   2.243
 6001TIP3   OH217945   6.083   7.707   0.357
 6001TIP3    H117946   6.080   7.789   0.407
 6001TIP3    H217947   6.138   7.649   0.409
 6002TIP3   OH217948   0.439   4.181   4.249
 6002TIP3    H117949   0.510   4.244   4.264
 6002TIP3    H217950   0.438   4.127   4.328
 6003TIP3   OH217951   1.561   2.017   1.393
 6003TIP3    H117952   1.633   1.954   1.396
 6003TIP3    H217953   1.534   2.026   1.485
 6004TIP3   OH217954   7.934   6.430   3.880
 6004TIP3    H117955   7.874   6.363   3.910
 6004TIP3    H217956   7.903   6.453   3.793
 6005TIP3   OH217957   3.070   6.200   4.920
 6005TIP3    H117958   3.124   6.258   4.867
 6005TIP3    H217959   3.033   6.257   4.988
 6006TIP3   OH217960   7.965   0.464   2.524
 6006TIP3    H117961   7.918   0.522   2.464
 6006TIP3    H217962   7.960   0.508   2.609
 6007TIP3   OH217963   5.219   3.672   6.494
 6007TIP3    H117964   5.124   3.687   6.500
 6007TIP3    H217965   5.249   3.736   6.430
 6008TIP3   OH217966   3.962   3.753   3.150
 6008TIP3    H117967   3.892   3.766   3.087
 6008TIP3    H217968   4.008   3.675   3.119
 6009TIP3   OH217969   2.987   6.605   1.460
 6009TIP3    H117970   3.048   6.584   1.530
 6009TIP3    H217971   3.009   6.544   1.390
 6010TIP3   OH217972   3.612   1.561   2.999
 6010TIP3    H117973   3.572   1.499   2.938
 6010TIP3    H217974   3.706   1.553   2.984
 6011TIP3   OH217975   8.018   2.755   2.551
 6011TIP3    H117976   8.065   2.701   2.615
 6011TIP3    H217977   8.054   2.728   2.466
 6012TIP3   OH217978   3.686   5.970   0.309
 6012TIP3    H117979   3.657   5.981   0.219
 6012TIP3    H217980   3.653   5.884   0.335
 6013TIP3   OH217981   3.295   0.767   5.452
 6013TIP3    H117982   3.247   0.728   5.378
 6013TIP3    H217983   3.345   0.838   5.412
 6014TIP3   OH217984   2.001   7.074   6.593
 6014TIP3    H117985   1.943   7.150   6.588
 6014TIP3    H217986   1.944   6.998   6.581
 6015TIP3   OH217987   5.856   0.922   2.063
 6015TIP3    H117988   5.876   0.832   2.088
 6015TIP3    H217989   5.929   0.973   2.098
 6016TIP3   OH217990   3.546   1.517   6.458
 6016TIP3    H117991   3.568   1.468   6.537
 6016TIP3    H217992   3.546   1.609   6.486
 6017TIP3   OH217993   2.209   0.945   0.182
 6017TIP3    H117994   2.266   0.978   0.113
 6017TIP3    H217995   2.204   1.017   0.246
 6018TIP3   OH217996   0.764   4.211   1.347
 6018TIP3    H117997   0.785   4.300   1.377
 6018TIP3    H217998   0.671   4.201   1.364
 6019TIP3   OH217999   5.110   6.423   0.337
 6019TIP3    H118000   5.196   6.396   0.305
 6019TIP3    H218001   5.088   6.358   0.404
 6020TIP3   OH218002   0.585   5.149   1.982
 6020TIP3    H118003   0.680   5.154   1.975
 6020TIP3    H218004   0.567   5.158   2.076
 6021TIP3   OH218005   4.099   3.303   5.330
 6021TIP3    H118006   4.039   3.322   5.402
 6021TIP3    H218007   4.070   3.218   5.297
 6022TIP3   OH218008   6.637   4.938   5.722
 6022TIP3    H118009   6.552   4.893   5.722
 6022TIP3    H218010   6.647   4.972   5.811
 6023TIP3   OH218011   5.720   3.086   2.373
 6023TIP3    H118012   5.815   3.098   2.360
 6023TIP3    H218013   5.688   3.056   2.288
 6024TIP3   OH218014   7.249   5.767   4.332
 6024TIP3    H118015   7.299   5.761   4.251
 6024TIP3    H218016   7.241   5.861   4.349
 6025TIP3   OH218017   2.546   6.974   0.164
 6025TIP3    H118018   2.476   6.991   0.100
 6025TIP3    H218019   2.504   6.988   0.249
 6026TIP3   OH218020   2.597   4.083   1.347
 6026TIP3    H118021   2.674   4.112   1.395
 6026TIP3    H218022   2.561   4.011   1.399
 6027TIP3   OH218023   2.615   7.664   5.122
 6027TIP3    H118024   2.523   7.691   5.121
 6027TIP3    H218025   2.633   7.637   5.032
 6028TIP3   OH218026   3.929   2.652   6.434
 6028TIP3    H118027   3.893   2.593   6.501
 6028TIP3    H218028   4.008   2.608   6.403
 6029TIP3   OH218029   7.452   4.303   4.778
 6029TIP3    H118030   7.395   4.367   4.821
 6029TIP3    H218031   7.541   4.335   4.797
 6030TIP3   OH218032   2.865   3.000   5.563
 6030TIP3    H118033   2.921   2.948   5.621
 6030TIP3    H218034   2.872   3.089   5.598
 6031TIP3   OH218035   4.154   2.991   1.373
 6031TIP3    H118036   4.238   2.947   1.362
 6031TIP3    H218037   4.113   2.947   1.448
 6032TIP3   OH218038   4.029   5.807   5.962
 6032TIP3    H118039   3.936   5.829   5.954
 6032TIP3    H218040   4.046   5.809   6.057
 6033TIP3   OH218041   1.541   5.218   1.907
 6033TIP3    H118042   1.613   5.203   1.967
 6033TIP3    H218043   1.516   5.309   1.922
 6034TIP3   OH218044   8.230   3.335   2.469
 6034TIP3    H118045   8.136   3.329   2.486
 6034TIP3    H218046   8.271   3.297   2.546
 6035TIP3   OH218047   7.016   0.198   1.016
 6035TIP3    H118048   7.075   0.151   0.958
 6035TIP3    H218049   6.931   0.156   1.002
 6036TIP3   OH218050   4.109   2.394   1.033
 6036TIP3    H118051   4.018   2.385   1.006
 6036TIP3    H218052   4.108   2.458   1.104
 6037TIP3   OH218053   2.482   5.704   5.408
 6037TIP3    H118054   2.557   5.764   5.415
 6037TIP3    H218055   2.490   5.666   5.320
 6038TIP3   OH218056   5.429   6.625   4.643
 6038TIP3    H118057   5.481   6.596   4.718
 6038TIP3    H218058   5.383   6.702   4.674
 6039TIP3   OH218059   4.339   2.006   1.495
 6039TIP3    H118060   4.327   2.098   1.517
 6039TIP3    H218061   4.353   2.006   1.400
 6040TIP3   OH218062   5.054   2.352   4.777
 6040TIP3    H118063   5.039   2.305   4.859
 6040TIP3    H218064   5.016   2.296   4.710
 6041TIP3   OH218065   7.033   3.373   6.379
 6041TIP3    H118066   7.004   3.446   6.324
 6041TIP3    H218067   7.085   3.317   6.321
 6042TIP3   OH218068   7.200   2.231   2.034
 6042TIP3    H118069   7.150   2.312   2.023
 6042TIP3    H218070   7.179   2.203   2.123
 6043TIP3   OH218071   4.195   2.701   6.140
 6043TIP3    H118072   4.202   2.620   6.191
 6043TIP3    H218073   4.108   2.696   6.100
 6044TIP3   OH218074   5.148   5.872   5.471
 6044TIP3    H118075   5.229   5.823   5.455
 6044TIP3    H218076   5.153   5.897   5.563
 6045TIP3   OH218077   3.472   4.449   4.733
 6045TIP3    H118078   3.548   4.455   4.791
 6045TIP3    H218079   3.410   4.513   4.768
 6046TIP3   OH218080   7.084   1.221   5.118
 6046TIP3    H118081   7.050   1.284   5.181
 6046TIP3    H218082   7.128   1.275   5.052
 6047TIP3   OH218083   5.253   3.480   0.798
 6047TIP3    H118084   5.183   3.528   0.842
 6047TIP3    H218085   5.209   3.403   0.762
 6048TIP3   OH218086   4.443   3.743   4.135
 6048TIP3    H118087   4.438   3.747   4.230
 6048TIP3    H218088   4.363   3.698   4.108
 6049TIP3   OH218089   5.542   2.921   6.033
 6049TIP3    H118090   5.534   2.828   6.053
 6049TIP3    H218091   5.543   2.924   5.937
 6050TIP3   OH218092   1.348   4.818   6.262
 6050TIP3    H118093   1.399   4.740   6.284
 6050TIP3    H218094   1.366   4.833   6.169
 6051TIP3   OH218095   1.296   6.616   0.808
 6051TIP3    H118096   1.359   6.678   0.847
 6051TIP3    H218097   1.345   6.574   0.737
 6052TIP3   OH218098   1.347   7.625   1.197
 6052TIP3    H118099   1.308   7.710   1.178
 6052TIP3    H218100   1.359   7.585   1.111
 6053TIP3   OH218101   0.839   2.361   2.398
 6053TIP3    H118102   0.851   2.290   2.336
 6053TIP3    H218103   0.878   2.329   2.480
 6054TIP3   OH218104   5.787   2.386   4.316
 6054TIP3    H118105   5.864   2.340   4.283
 6054TIP3    H218106   5.735   2.318   4.359
 6055TIP3   OH218107   5.596   7.586   0.774
 6055TIP3    H118108   5.625   7.615   0.687
 6055TIP3    H218109   5.556   7.664   0.812
 6056TIP3   OH218110   4.331   1.772   6.457
 6056TIP3    H118111   4.393   1.824   6.508
 6056TIP3    H218112   4.248   1.818   6.465
 6057TIP3   OH218113   2.083   1.228   4.907
 6057TIP3    H118114   2.003   1.194   4.866
 6057TIP3    H218115   2.132   1.268   4.835
 6058TIP3   OH218116   2.841   3.880   0.680
 6058TIP3    H118117   2.801   3.802   0.717
 6058TIP3    H218118   2.840   3.864   0.585
 6059TIP3   OH218119   1.901   0.724   1.574
 6059TIP3    H118120   1.934   0.814   1.578
 6059TIP3    H218121   1.957   0.675   1.634
 6060TIP3   OH218122   3.068   6.833   6.684
 6060TIP3    H118123   2.981   6.867   6.705
 6060TIP3    H218124   3.050   6.754   6.632
 6061TIP3   OH218125   2.067   4.692   6.473
 6061TIP3    H118126   2.124   4.710   6.548
 6061TIP3    H218127   2.056   4.597   6.474
 6062TIP3   OH218128   7.978   2.351   6.561
 6062TIP3    H118129   8.038   2.341   6.488
 6062TIP3    H218130   7.910   2.285   6.546
 6063TIP3   OH218131   7.349   7.257   6.753
 6063TIP3    H118132   7.309   7.197   6.690
 6063TIP3    H218133   7.282   7.268   6.820
 6064TIP3   OH218134   6.786   5.738   3.565
 6064TIP3    H118135   6.800   5.644   3.553
 6064TIP3    H218136   6.816   5.777   3.483
 6065TIP3   OH218137   0.387   3.733   0.441
 6065TIP3    H118138   0.335   3.769   0.513
 6065TIP3    H218139   0.333   3.748   0.363
 6066TIP3   OH218140   5.498   0.664   2.877
 6066TIP3    H118141   5.577   0.633   2.831
 6066TIP3    H218142   5.482   0.599   2.945
 6067TIP3   OH218143   4.518   7.526   2.028
 6067TIP3    H118144   4.528   7.433   2.005
 6067TIP3    H218145   4.607   7.561   2.023
 6068TIP3   OH218146   0.575   3.538   3.429
 6068TIP3    H118147   0.533   3.622   3.444
 6068TIP3    H218148   0.602   3.508   3.516
 6069TIP3   OH218149   7.358   3.141   3.695
 6069TIP3    H118150   7.339   3.056   3.735
 6069TIP3    H218151   7.451   3.139   3.674
 6070TIP3   OH218152   5.147   6.844   3.834
 6070TIP3    H118153   5.118   6.760   3.870
 6070TIP3    H218154   5.241   6.834   3.824
 6071TIP3   OH218155   5.914   6.889   0.996
 6071TIP3    H118156   5.920   6.848   1.082
 6071TIP3    H218157   6.005   6.892   0.965
 6072TIP3   OH218158   5.638   3.295   1.836
 6072TIP3    H118159   5.614   3.318   1.926
 6072TIP3    H218160   5.576   3.345   1.783
 6073TIP3   OH218161   6.956   2.624   0.848
 6073TIP3    H118162   6.976   2.692   0.912
 6073TIP3    H218163   7.038   2.574   0.841
 6074TIP3   OH218164   1.268   0.549   4.701
 6074TIP3    H118165   1.245   0.523   4.611
 6074TIP3    H218166   1.331   0.483   4.729
 6075TIP3   OH218167   0.412   0.243   4.422
 6075TIP3    H118168   0.386   0.175   4.484
 6075TIP3    H218169   0.349   0.236   4.351
 6076TIP3   OH218170   0.747   0.574   4.375
 6076TIP3    H118171   0.703   0.623   4.305
 6076TIP3    H218172   0.698   0.492   4.381
 6077TIP3   OH218173   5.398   3.586   3.893
 6077TIP3    H118174   5.350   3.580   3.811
 6077TIP3    H218175   5.373   3.507   3.941
 6078TIP3   OH218176   4.818   6.896   4.016
 6078TIP3    H118177   4.756   6.863   4.082
 6078TIP3    H218178   4.781   6.867   3.933
 6079TIP3   OH218179   6.677   1.887   5.297
 6079TIP3    H118180   6.606   1.937   5.337
 6079TIP3    H218181   6.735   1.954   5.259
 6080TIP3   OH218182   0.591   6.422   2.142
 6080TIP3    H118183   0.581   6.332   2.174
 6080TIP3    H218184   0.605   6.413   2.048
 6081TIP3   OH218185   0.967   2.672   4.958
 6081TIP3    H118186   0.941   2.749   4.907
 6081TIP3    H218187   1.042   2.702   5.010
 6082TIP3   OH218188   7.466   3.283   5.506
 6082TIP3    H118189   7.482   3.209   5.565
 6082TIP3    H218190   7.552   3.322   5.492
 6083TIP3   OH218191   2.332   2.023   0.567
 6083TIP3    H118192   2.355   2.101   0.616
 6083TIP3    H218193   2.360   2.043   0.477
 6084TIP3   OH218194   6.253   5.142   2.006
 6084TIP3    H118195   6.213   5.227   1.987
 6084TIP3    H218196   6.336   5.144   1.957
 6085TIP3   OH218197   6.481   4.709   0.133
 6085TIP3    H118198   6.539   4.639   0.163
 6085TIP3    H218199   6.537   4.787   0.134
 6086TIP3   OH218200   0.530   0.415   1.042
 6086TIP3    H118201   0.591   0.355   1.001
 6086TIP3    H218202   0.522   0.384   1.132
 6087TIP3   OH218203   6.221   3.777   1.365
 6087TIP3    H118204   6.128   3.765   1.342
 6087TIP3    H218205   6.234   3.721   1.441
 6088TIP3   OH218206   5.886   4.158   3.435
 6088TIP3    H118207   5.865   4.244   3.399
 6088TIP3    H218208   5.961   4.128   3.383
 6089TIP3   OH218209   6.362   0.749   0.667
 6089TIP3    H118210   6.305   0.754   0.743
 6089TIP3    H218211   6.420   0.825   0.675
 6090TIP3   OH218212   5.560   2.442   1.701
 6090TIP3    H118213   5.617   2.379   1.745
 6090TIP3    H218214   5.610   2.524   1.702
 6091TIP3   OH218215   6.929   6.008   4.426
 6091TIP3    H118216   6.929   6.057   4.509
 6091TIP3    H218217   6.847   5.958   4.427
 6092TIP3   OH218218   8.065   5.165   4.491
 6092TIP3    H118219   8.001   5.124   4.433
 6092TIP3    H218220   8.036   5.141   4.579
 6093TIP3   OH218221   4.328   0.751   3.236
 6093TIP3    H118222   4.310   0.797   3.318
 6093TIP3    H218223   4.373   0.671   3.262
 6094TIP3   OH218224   3.008   6.628   1.115
 6094TIP3    H118225   3.072   6.557   1.118
 6094TIP3    H218226   3.056   6.702   1.078
 6095TIP3   OH218227   3.288   1.966   2.073
 6095TIP3    H118228   3.326   1.923   2.150
 6095TIP3    H218229   3.363   1.987   2.018
 6096TIP3   OH218230   7.375   4.600   4.624
 6096TIP3    H118231   7.347   4.581   4.714
 6096TIP3    H218232   7.461   4.640   4.634
 6097TIP3   OH218233   6.588   0.712   1.202
 6097TIP3    H118234   6.612   0.622   1.223
 6097TIP3    H218235   6.516   0.704   1.139
 6098TIP3   OH218236   3.382   5.346   6.301
 6098TIP3    H118237   3.377   5.441   6.315
 6098TIP3    H218238   3.292   5.320   6.284
 6099TIP3   OH218239   3.105   3.338   0.140
 6099TIP3    H118240   3.112   3.380   0.054
 6099TIP3    H218241   3.091   3.410   0.201
 6100TIP3   OH218242   7.580   0.630   6.043
 6100TIP3    H118243   7.668   0.597   6.026
 6100TIP3    H218244   7.523   0.566   6.001
 6101TIP3   OH218245   3.419   1.571   5.558
 6101TIP3    H118246   3.419   1.580   5.653
 6101TIP3    H218247   3.461   1.650   5.526
 6102TIP3   OH218248   0.361   5.516   0.991
 6102TIP3    H118249   0.391   5.526   1.081
 6102TIP3    H218250   0.318   5.430   0.990
 6103TIP3   OH218251   2.716   4.598   5.252
 6103TIP3    H118252   2.678   4.685   5.243
 6103TIP3    H218253   2.799   4.603   5.204
 6104TIP3   OH218254   4.054   5.829   0.907
 6104TIP3    H118255   4.120   5.849   0.840
 6104TIP3    H218256   4.091   5.861   0.989
 6105TIP3   OH218257   5.787   0.086   2.955
 6105TIP3    H118258   5.719   0.117   2.895
 6105TIP3    H218259   5.807   0.162   3.010
 6106TIP3   OH218260   8.145   5.974   5.377
 6106TIP3    H118261   8.083   6.006   5.313
 6106TIP3    H218262   8.125   5.880   5.386
 6107TIP3   OH218263   7.493   4.970   5.775
 6107TIP3    H118264   7.409   4.947   5.736
 6107TIP3    H218265   7.519   4.891   5.823
 6108TIP3   OH218266   5.791   5.136   6.049
 6108TIP3    H118267   5.810   5.225   6.079
 6108TIP3    H218268   5.753   5.148   5.962
 6109TIP3   OH218269   0.715   6.681   4.192
 6109TIP3    H118270   0.687   6.664   4.102
 6109TIP3    H218271   0.808   6.704   4.184
 6110TIP3   OH218272   3.831   0.138   4.374
 6110TIP3    H118273   3.801   0.064   4.426
 6110TIP3    H218274   3.886   0.099   4.306
 6111TIP3   OH218275   5.818   1.678   5.374
 6111TIP3    H118276   5.753   1.721   5.319
 6111TIP3    H218277   5.790   1.696   5.463
 6112TIP3   OH218278   2.700   6.463   4.422
 6112TIP3    H118279   2.615   6.461   4.466
 6112TIP3    H218280   2.764   6.455   4.492
 6113TIP3   OH218281   6.662   3.192   4.342
 6113TIP3    H118282   6.579   3.238   4.331
 6113TIP3    H218283   6.652   3.112   4.290
 6114TIP3   OH218284   4.541   1.782   0.773
 6114TIP3    H118285   4.502   1.699   0.801
 6114TIP3    H218286   4.555   1.771   0.679
 6115TIP3   OH218287   6.082   1.319   1.955
 6115TIP3    H118288   6.019   1.359   2.014
 6115TIP3    H218289   6.029   1.264   1.897
 6116TIP3   OH218290   2.222   5.618   5.449
 6116TIP3    H118291   2.206   5.641   5.540
 6116TIP3    H218292   2.305   5.661   5.428
 6117TIP3   OH218293   5.667   5.832   2.110
 6117TIP3    H118294   5.615   5.820   2.190
 6117TIP3    H218295   5.737   5.892   2.136
 6118TIP3   OH218296   4.720   4.962   1.173
 6118TIP3    H118297   4.679   4.990   1.091
 6118TIP3    H218298   4.801   4.918   1.146
 6119TIP3   OH218299   2.557   3.984   0.711
 6119TIP3    H118300   2.506   3.920   0.760
 6119TIP3    H218301   2.634   3.936   0.680
 6120TIP3   OH218302   5.789   0.972   2.861
 6120TIP3    H118303   5.693   0.975   2.865
 6120TIP3    H218304   5.816   0.966   2.953
 6121TIP3   OH218305   0.397   0.480   2.656
 6121TIP3    H118306   0.355   0.407   2.701
 6121TIP3    H218307   0.448   0.440   2.586
 6122TIP3   OH218308   6.937   6.215   6.478
 6122TIP3    H118309   7.028   6.244   6.486
 6122TIP3    H218310   6.886   6.295   6.474
 6123TIP3   OH218311   0.404   0.822   5.893
 6123TIP3    H118312   0.416   0.873   5.973
 6123TIP3    H218313   0.447   0.738   5.912
 6124TIP3   OH218314   6.185   5.010   0.671
 6124TIP3    H118315   6.237   5.045   0.599
 6124TIP3    H218316   6.199   4.915   0.668
 6125TIP3   OH218317   7.563   3.726   2.928
 6125TIP3    H118318   7.605   3.808   2.904
 6125TIP3    H218319   7.634   3.661   2.925
 6126TIP3   OH218320   1.201   1.736   3.452
 6126TIP3    H118321   1.172   1.792   3.524
 6126TIP3    H218322   1.224   1.653   3.494
 6127TIP3   OH218323   5.777   6.201   3.267
 6127TIP3    H118324   5.817   6.286   3.246
 6127TIP3    H218325   5.822   6.139   3.209
 6128TIP3   OH218326   7.599   2.019   3.705
 6128TIP3    H118327   7.574   1.975   3.624
 6128TIP3    H218328   7.571   2.110   3.693
 6129TIP3   OH218329   5.382   7.027   4.378
 6129TIP3    H118330   5.328   6.965   4.329
 6129TIP3    H218331   5.319   7.076   4.432
 6130TIP3   OH218332   1.004   2.540   2.734
 6130TIP3    H118333   0.944   2.528   2.661
 6130TIP3    H218334   1.082   2.581   2.695
 6131TIP3   OH218335   5.880   0.209   5.073
 6131TIP3    H118336   5.873   0.117   5.048
 6131TIP3    H218337   5.819   0.255   5.015
 6132TIP3   OH218338   6.261   3.110   2.988
 6132TIP3    H118339   6.339   3.061   3.015
 6132TIP3    H218340   6.270   3.195   3.030
 6133TIP3   OH218341   3.836   2.451   6.605
 6133TIP3    H118342   3.912   2.405   6.640
 6133TIP3    H218343   3.762   2.417   6.656
 6134TIP3   OH218344   6.003   6.727   4.378
 6134TIP3    H118345   6.008   6.711   4.472
 6134TIP3    H218346   6.071   6.792   4.362
 6135TIP3   OH218347   0.248   5.325   1.435
 6135TIP3    H118348   0.227   5.410   1.396
 6135TIP3    H218349   0.164   5.288   1.458
 6136TIP3   OH218350   1.813   0.697   3.064
 6136TIP3    H118351   1.809   0.728   3.154
 6136TIP3    H218352   1.794   0.774   3.010
 6137TIP3   OH218353   3.328   3.614   4.745
 6137TIP3    H118354   3.310   3.566   4.665
 6137TIP3    H218355   3.335   3.706   4.718
 6138TIP3   OH218356   5.628   5.316   2.848
 6138TIP3    H118357   5.705   5.272   2.811
 6138TIP3    H218358   5.657   5.345   2.935
 6139TIP3   OH218359   5.551   4.651   5.490
 6139TIP3    H118360   5.554   4.744   5.469
 6139TIP3    H218361   5.517   4.647   5.579
 6140TIP3   OH218362   4.060   7.726   1.531
 6140TIP3    H118363   4.062   7.778   1.611
 6140TIP3    H218364   4.134   7.667   1.539
 6141TIP3   OH218365   3.782   0.893   5.835
 6141TIP3    H118366   3.768   0.801   5.811
 6141TIP3    H218367   3.872   0.896   5.866
 6142TIP3   OH218368   0.779   5.879   2.541
 6142TIP3    H118369   0.808   5.969   2.528
 6142TIP3    H218370   0.781   5.867   2.636
 6143TIP3   OH218371   0.770   1.332   4.102
 6143TIP3    H118372   0.832   1.261   4.085
 6143TIP3    H218373   0.689   1.288   4.127
 6144TIP3   OH218374   2.982   7.379   4.127
 6144TIP3    H118375   3.017   7.341   4.207
 6144TIP3    H218376   2.901   7.422   4.155
 6145TIP3   OH218377   5.500   4.110   0.803
 6145TIP3    H118378   5.479   4.194   0.762
 6145TIP3    H218379   5.417   4.079   0.837
 6146TIP3   OH218380   1.851   5.913   1.579
 6146TIP3    H118381   1.852   5.967   1.658
 6146TIP3    H218382   1.761   5.881   1.572
 6147TIP3   OH218383   7.414   7.528   4.091
 6147TIP3    H118384   7.403   7.448   4.038
 6147TIP3    H218385   7.503   7.522   4.124
 6148TIP3   OH218386   4.744   1.480   3.954
 6148TIP3    H118387   4.698   1.399   3.934
 6148TIP3    H218388   4.713   1.542   3.888
 6149TIP3   OH218389   4.307   6.727   2.230
 6149TIP3    H118390   4.225   6.683   2.253
 6149TIP3    H218391   4.339   6.763   2.313
 6150TIP3   OH218392   2.389   1.394   1.815
 6150TIP3    H118393   2.443   1.342   1.756
 6150TIP3    H218394   2.415   1.485   1.798
 6151TIP3   OH218395   1.505   6.061   2.779
 6151TIP3    H118396   1.481   6.043   2.870
 6151TIP3    H218397   1.577   6.002   2.761
 6152TIP3   OH218398   1.010   2.067   4.921
 6152TIP3    H118399   1.006   1.992   4.981
 6152TIP3    H218400   1.081   2.046   4.861
 6153TIP3   OH218401   2.823   5.114   1.661
 6153TIP3    H118402   2.845   5.191   1.609
 6153TIP3    H218403   2.775   5.057   1.601
 6154TIP3   OH218404   7.334   3.974   1.324
 6154TIP3    H118405   7.354   3.995   1.232
 6154TIP3    H218406   7.239   3.972   1.327
 6155TIP3   OH218407   6.241   3.991   4.513
 6155TIP3    H118408   6.200   4.059   4.460
 6155TIP3    H218409   6.171   3.962   4.572
 6156TIP3   OH218410   6.834   1.204   3.755
 6156TIP3    H118411   6.887   1.275   3.719
 6156TIP3    H218412   6.897   1.151   3.805
 6157TIP3   OH218413   8.191   6.139   4.290
 6157TIP3    H118414   8.279   6.112   4.263
 6157TIP3    H218415   8.203   6.176   4.377
 6158TIP3   OH218416   0.553   6.815   3.891
 6158TIP3    H118417   0.603   6.897   3.884
 6158TIP3    H218418   0.476   6.839   3.942
 6159TIP3   OH218419   2.822   7.269   5.115
 6159TIP3    H118420   2.744   7.256   5.061
 6159TIP3    H218421   2.814   7.204   5.185
 6160TIP3   OH218422   6.491   0.649   6.246
 6160TIP3    H118423   6.547   0.726   6.249
 6160TIP3    H218424   6.523   0.598   6.172
 6161TIP3   OH218425   1.307   7.491   2.419
 6161TIP3    H118426   1.375   7.556   2.400
 6161TIP3    H218427   1.321   7.421   2.355
 6162TIP3   OH218428   7.547   3.430   0.346
 6162TIP3    H118429   7.514   3.400   0.262
 6162TIP3    H218430   7.469   3.435   0.402
 6163TIP3   OH218431   3.844   7.556   0.210
 6163TIP3    H118432   3.874   7.616   0.279
 6163TIP3    H218433   3.754   7.583   0.191
 6164TIP3   OH218434   6.060   5.803   4.616
 6164TIP3    H118435   5.996   5.844   4.675
 6164TIP3    H218436   6.076   5.717   4.653
 6165TIP3   OH218437   2.809   0.622   4.430
 6165TIP3    H118438   2.848   0.542   4.465
 6165TIP3    H218439   2.884   0.676   4.404
 6166TIP3   OH218440   6.829   1.650   4.390
 6166TIP3    H118441   6.919   1.664   4.361
 6166TIP3    H218442   6.778   1.718   4.348
 6167TIP3   OH218443   3.054   4.645   2.641
 6167TIP3    H118444   3.144   4.652   2.607
 6167TIP3    H218445   3.055   4.694   2.723
 6168TIP3   OH218446   5.445   7.148   1.777
 6168TIP3    H118447   5.468   7.092   1.703
 6168TIP3    H218448   5.488   7.108   1.852
 6169TIP3   OH218449   8.130   0.015   2.048
 6169TIP3    H118450   8.089   0.055   1.972
 6169TIP3    H218451   8.198   0.076   2.074
 6170TIP3   OH218452   6.641   2.979   3.805
 6170TIP3    H118453   6.696   3.044   3.849
 6170TIP3    H218454   6.573   2.958   3.869
 6171TIP3   OH218455   7.085   2.298   5.603
 6171TIP3    H118456   7.007   2.316   5.655
 6171TIP3    H218457   7.051   2.281   5.515
 6172TIP3   OH218458   1.363   6.112   3.979
 6172TIP3    H118459   1.316   6.130   3.898
 6172TIP3    H218460   1.400   6.025   3.966
 6173TIP3   OH218461   0.921   7.152   5.978
 6173TIP3    H118462   0.925   7.071   6.029
 6173TIP3    H218463   0.930   7.123   5.887
 6174TIP3   OH218464   2.442   4.650   4.341
 6174TIP3    H118465   2.412   4.720   4.398
 6174TIP3    H218466   2.528   4.678   4.310
 6175TIP3   OH218467   2.855   1.583   3.706
 6175TIP3    H118468   2.904   1.625   3.636
 6175TIP3    H218469   2.783   1.642   3.725
 6176TIP3   OH218470   7.894   7.196   3.792
 6176TIP3    H118471   7.970   7.238   3.831
 6176TIP3    H218472   7.823   7.260   3.801
 6177TIP3   OH218473   5.302   4.901   4.634
 6177TIP3    H118474   5.261   4.935   4.713
 6177TIP3    H218475   5.245   4.830   4.605
 6178TIP3   OH218476   6.383   2.702   2.358
 6178TIP3    H118477   6.396   2.750   2.440
 6178TIP3    H218478   6.330   2.626   2.383
 6179TIP3   OH218479   4.467   6.303   5.041
 6179TIP3    H118480   4.560   6.287   5.053
 6179TIP3    H218481   4.433   6.317   5.130
 6180TIP3   OH218482   4.662   6.228   1.830
 6180TIP3    H118483   4.670   6.162   1.899
 6180TIP3    H218484   4.573   6.261   1.839
 6181TIP3   OH218485   1.313   5.945   0.743
 6181TIP3    H118486   1.235   5.996   0.721
 6181TIP3    H218487   1.318   5.879   0.675
 6182TIP3   OH218488   2.905   4.130   2.816
 6182TIP3    H118489   2.834   4.068   2.801
 6182TIP3    H218490   2.883   4.205   2.762
 6183TIP3   OH218491   7.075   0.991   1.378
 6183TIP3    H118492   6.988   1.027   1.358
 6183TIP3    H218493   7.074   0.903   1.341
 6184TIP3   OH218494   1.635   0.137   2.227
 6184TIP3    H118495   1.625   0.155   2.321
 6184TIP3    H218496   1.713   0.083   2.221
 6185TIP3   OH218497   3.697   6.885   6.342
 6185TIP3    H118498   3.603   6.895   6.330
 6185TIP3    H218499   3.731   6.975   6.339
 6186TIP3   OH218500   8.056   4.780   4.770
 6186TIP3    H118501   8.036   4.686   4.766
 6186TIP3    H218502   8.007   4.818   4.698
 6187TIP3   OH218503   3.978   5.579   2.225
 6187TIP3    H118504   3.931   5.563   2.307
 6187TIP3    H218505   3.912   5.616   2.166
 6188TIP3   OH218506   6.617   1.828   4.954
 6188TIP3    H118507   6.587   1.847   4.865
 6188TIP3    H218508   6.587   1.901   5.007
 6189TIP3   OH218509   1.845   6.824   3.572
 6189TIP3    H118510   1.831   6.730   3.565
 6189TIP3    H218511   1.935   6.837   3.543
 6190TIP3   OH218512   6.973   0.231   6.419
 6190TIP3    H118513   6.909   0.301   6.432
 6190TIP3    H218514   6.921   0.152   6.409
 6191TIP3   OH218515   5.658   2.679   2.624
 6191TIP3    H118516   5.592   2.621   2.585
 6191TIP3    H218517   5.737   2.660   2.575
 6192TIP3   OH218518   3.340   3.241   3.895
 6192TIP3    H118519   3.339   3.170   3.959
 6192TIP3    H218520   3.405   3.303   3.928
 6193TIP3   OH218521   0.189   1.204   2.555
 6193TIP3    H118522   0.113   1.249   2.593
 6193TIP3    H218523   0.196   1.123   2.606
 6194TIP3   OH218524   7.147   7.331   4.408
 6194TIP3    H118525   7.166   7.274   4.483
 6194TIP3    H218526   7.094   7.402   4.444
 6195TIP3   OH218527   7.908   1.974   1.058
 6195TIP3    H118528   7.821   1.946   1.028
 6195TIP3    H218529   7.930   1.913   1.128
 6196TIP3   OH218530   7.539   0.639   0.935
 6196TIP3    H118531   7.633   0.622   0.935
 6196TIP3    H218532   7.523   0.681   0.850
 6197TIP3   OH218533   6.563   0.357   1.919
 6197TIP3    H118534   6.499   0.392   1.980
 6197TIP3    H218535   6.637   0.418   1.924
 6198TIP3   OH218536   5.161   7.629   0.396
 6198TIP3    H118537   5.113   7.689   0.338
 6198TIP3    H218538   5.136   7.542   0.366
 6199TIP3   OH218539   4.961   6.595   0.751
 6199TIP3    H118540   5.014   6.635   0.682
 6199TIP3    H218541   4.882   6.650   0.755
 6200TIP3   OH218542   6.012   6.726   0.517
 6200TIP3    H118543   6.067   6.708   0.442
 6200TIP3    H218544   6.037   6.814   0.546
 6201TIP3   OH218545   1.223   2.485   6.408
 6201TIP3    H118546   1.211   2.449   6.320
 6201TIP3    H218547   1.148   2.543   6.420
 6202TIP3   OH218548   6.451   0.248   6.651
 6202TIP3    H118549   6.482   0.167   6.691
 6202TIP3    H218550   6.456   0.232   6.557
 6203TIP3   OH218551   2.368   6.552   5.216
 6203TIP3    H118552   2.294   6.561   5.156
 6203TIP3    H218553   2.363   6.629   5.273
 6204TIP3   OH218554   5.742   3.303   5.034
 6204TIP3    H118555   5.674   3.247   4.997
 6204TIP3    H218556   5.823   3.272   4.994
 6205TIP3   OH218557   4.545   0.277   3.993
 6205TIP3    H118558   4.609   0.230   3.941
 6205TIP3    H218559   4.567   0.370   3.980
 6206TIP3   OH218560   5.434   2.561   3.072
 6206TIP3    H118561   5.373   2.578   3.000
 6206TIP3    H218562   5.414   2.629   3.136
 6207TIP3   OH218563   3.043   3.468   4.818
 6207TIP3    H118564   3.123   3.492   4.771
 6207TIP3    H218565   3.063   3.486   4.909
 6208TIP3   OH218566   7.005   3.904   1.664
 6208TIP3    H118567   6.977   3.995   1.662
 6208TIP3    H218568   6.937   3.857   1.615
 6209TIP3   OH218569   6.021   6.169   1.824
 6209TIP3    H118570   5.939   6.209   1.855
 6209TIP3    H218571   5.996   6.079   1.801
 6210TIP3   OH218572   0.759   0.579   6.612
 6210TIP3    H118573   0.813   0.657   6.600
 6210TIP3    H218574   0.721   0.562   6.526
 6211TIP3   OH218575   5.940   3.542   3.462
 6211TIP3    H118576   5.938   3.567   3.555
 6211TIP3    H218577   5.969   3.451   3.463
 6212TIP3   OH218578   0.075   4.767   4.847
 6212TIP3    H118579   0.025   4.772   4.765
 6212TIP3    H218580   0.064   4.677   4.876
 6213TIP3   OH218581   3.774   0.645   5.685
 6213TIP3    H118582   3.751   0.626   5.594
 6213TIP3    H218583   3.870   0.648   5.686
 6214TIP3   OH218584   5.732   7.351   4.507
 6214TIP3    H118585   5.691   7.325   4.589
 6214TIP3    H218586   5.690   7.296   4.441
 6215TIP3   OH218587   6.470   0.262   5.600
 6215TIP3    H118588   6.388   0.240   5.644
 6215TIP3    H218589   6.458   0.234   5.509
 6216TIP3   OH218590   0.409   7.165   0.169
 6216TIP3    H118591   0.441   7.228   0.104
 6216TIP3    H218592   0.488   7.119   0.198
 6217TIP3   OH218593   3.998   6.013   1.679
 6217TIP3    H118594   3.985   6.034   1.586
 6217TIP3    H218595   3.920   5.965   1.704
 6218TIP3   OH218596   5.320   3.403   2.688
 6218TIP3    H118597   5.369   3.475   2.648
 6218TIP3    H218598   5.326   3.332   2.624
 6219TIP3   OH218599   3.327   6.163   5.879
 6219TIP3    H118600   3.267   6.169   5.953
 6219TIP3    H218601   3.393   6.099   5.907
 6220TIP3   OH218602   4.375   4.659   6.154
 6220TIP3    H118603   4.384   4.689   6.244
 6220TIP3    H218604   4.461   4.627   6.130
 6221TIP3   OH218605   6.542   2.204   3.181
 6221TIP3    H118606   6.501   2.267   3.122
 6221TIP3    H218607   6.617   2.172   3.132
 6222TIP3   OH218608   6.266   3.418   3.402
 6222TIP3    H118609   6.199   3.361   3.364
 6222TIP3    H218610   6.269   3.392   3.495
 6223TIP3   OH218611   4.359   0.077   0.233
 6223TIP3    H118612   4.398   0.102   0.316
 6223TIP3    H218613   4.270   0.112   0.236
 6224TIP3   OH218614   5.608   4.309   4.804
 6224TIP3    H118615   5.607   4.323   4.899
 6224TIP3    H218616   5.516   4.308   4.779
 6225TIP3   OH218617   0.145   3.445   1.343
 6225TIP3    H118618   0.117   3.475   1.429
 6225TIP3    H218619   0.235   3.417   1.355
 6226TIP3   OH218620   4.689   4.469   5.018
 6226TIP3    H118621   4.763   4.409   5.033
 6226TIP3    H218622   4.615   4.411   4.999
 6227TIP3   OH218623   7.938   2.152   0.516
 6227TIP3    H118624   7.991   2.072   0.525
 6227TIP3    H218625   8.001   2.223   0.526
 6228TIP3   OH218626   6.150   3.042   5.597
 6228TIP3    H118627   6.068   3.089   5.613
 6228TIP3    H218628   6.155   2.977   5.667
 6229TIP3   OH218629   3.598   2.663   5.925
 6229TIP3    H118630   3.555   2.747   5.936
 6229TIP3    H218631   3.528   2.604   5.895
 6230TIP3   OH218632   6.724   5.609   6.048
 6230TIP3    H118633   6.651   5.643   5.997
 6230TIP3    H218634   6.713   5.514   6.046
 6231TIP3   OH218635   6.196   5.241   3.323
 6231TIP3    H118636   6.125   5.275   3.379
 6231TIP3    H218637   6.237   5.320   3.288
 6232TIP3   OH218638   0.491   6.733   5.780
 6232TIP3    H118639   0.583   6.715   5.760
 6232TIP3    H218640   0.481   6.710   5.873
 6233TIP3   OH218641   5.111   5.737   1.879
 6233TIP3    H118642   5.155   5.683   1.945
 6233TIP3    H218643   5.148   5.824   1.891
 6234TIP3   OH218644   0.061   1.010   5.084
 6234TIP3    H118645  -0.022   1.015   5.131
 6234TIP3    H218646   0.060   1.085   5.025
 6235TIP3   OH218647   8.234   6.245   2.496
 6235TIP3    H118648   8.263   6.308   2.562
 6235TIP3    H218649   8.167   6.292   2.446
 6236TIP3   OH218650   8.124   4.600   2.311
 6236TIP3    H118651   8.170   4.678   2.343
 6236TIP3    H218652   8.148   4.531   2.372
 6237TIP3   OH218653   0.170   7.243   5.599
 6237TIP3    H118654   0.253   7.278   5.567
 6237TIP3    H218655   0.110   7.318   5.597
 6238TIP3   OH218656   0.134   1.929   2.154
 6238TIP3    H118657   0.120   1.839   2.185
 6238TIP3    H218658   0.226   1.947   2.175
 6239TIP3   OH218659   2.091   6.161   4.373
 6239TIP3    H118660   2.011   6.211   4.357
 6239TIP3    H218661   2.157   6.227   4.393
 6240TIP3   OH218662   0.848   3.905   0.306
 6240TIP3    H118663   0.847   3.929   0.214
 6240TIP3    H218664   0.858   3.989   0.352
 6241TIP3   OH218665   5.829   2.951   1.506
 6241TIP3    H118666   5.865   3.035   1.536
 6241TIP3    H218667   5.900   2.910   1.457
 6242TIP3   OH218668   2.905   2.959   5.287
 6242TIP3    H118669   2.908   2.993   5.376
 6242TIP3    H218670   2.954   3.022   5.235
 6243TIP3   OH218671   8.001   1.688   0.077
 6243TIP3    H118672   8.088   1.673   0.113
 6243TIP3    H218673   7.990   1.783   0.079
 6244TIP3   OH218674   0.171   6.814   4.198
 6244TIP3    H118675   0.093   6.866   4.217
 6244TIP3    H218676   0.197   6.778   4.282
 6245TIP3   OH218677   7.653   0.916   6.291
 6245TIP3    H118678   7.585   0.875   6.237
 6245TIP3    H218679   7.705   0.842   6.324
 6246TIP3   OH218680   6.052   4.985   1.468
 6246TIP3    H118681   6.115   5.003   1.537
 6246TIP3    H218682   6.050   4.889   1.461
 6247TIP3   OH218683   2.994   7.401   4.950
 6247TIP3    H118684   2.970   7.328   5.008
 6247TIP3    H218685   2.911   7.435   4.918
 6248TIP3   OH218686   7.865   6.192   2.274
 6248TIP3    H118687   7.803   6.163   2.207
 6248TIP3    H218688   7.925   6.119   2.285
 6249TIP3   OH218689   7.240   6.934   2.691
 6249TIP3    H118690   7.296   6.954   2.616
 6249TIP3    H218691   7.163   6.891   2.653
 6250TIP3   OH218692   4.840   2.669   3.451
 6250TIP3    H118693   4.933   2.674   3.473
 6250TIP3    H218694   4.837   2.645   3.359
 6251TIP3   OH218695   1.197   6.291   4.741
 6251TIP3    H118696   1.195   6.354   4.670
 6251TIP3    H218697   1.201   6.344   4.821
 6252TIP3   OH218698   1.178   5.584   0.423
 6252TIP3    H118699   1.265   5.560   0.456
 6252TIP3    H218700   1.195   5.653   0.359
 6253TIP3   OH218701   6.337   0.159  -0.014
 6253TIP3    H118702   6.293   0.197   0.062
 6253TIP3    H218703   6.394   0.229  -0.046
 6254TIP3   OH218704   4.425   0.961   1.922
 6254TIP3    H118705   4.512   0.930   1.949
 6254TIP3    H218706   4.365   0.924   1.987
 6255TIP3   OH218707   0.240   4.777   5.462
 6255TIP3    H118708   0.247   4.872   5.464
 6255TIP3    H218709   0.236   4.751   5.554
 6256TIP3   OH218710   1.314   1.307   6.625
 6256TIP3    H118711   1.409   1.293   6.629
 6256TIP3    H218712   1.276   1.231   6.670
 6257TIP3   OH218713   0.172   5.656   6.443
 6257TIP3    H118714   0.124   5.664   6.361
 6257TIP3    H218715   0.110   5.687   6.510
 6258TIP3   OH218716   5.145   3.369   6.066
 6258TIP3    H118717   5.071   3.312   6.044
 6258TIP3    H218718   5.212   3.346   6.002
 6259TIP3   OH218719   6.549   6.912   1.737
 6259TIP3    H118720   6.621   6.900   1.798
 6259TIP3    H218721   6.486   6.844   1.759
 6260TIP3   OH218722   5.908   4.751   0.021
 6260TIP3    H118723   5.959   4.817   0.068
 6260TIP3    H218724   5.887   4.792  -0.063
 6261TIP3   OH218725   1.224   2.727   0.450
 6261TIP3    H118726   1.278   2.802   0.474
 6261TIP3    H218727   1.279   2.675   0.391
 6262TIP3   OH218728   2.577   0.866   0.156
 6262TIP3    H118729   2.504   0.817   0.116
 6262TIP3    H218730   2.638   0.798   0.184
 6263TIP3   OH218731   3.256   0.838   1.379
 6263TIP3    H118732   3.290   0.848   1.290
 6263TIP3    H218733   3.162   0.824   1.367
 6264TIP3   OH218734   6.979   6.499   6.040
 6264TIP3    H118735   7.055   6.466   6.088
 6264TIP3    H218736   7.016   6.559   5.975
 6265TIP3   OH218737   5.260   4.538   2.403
 6265TIP3    H118738   5.175   4.578   2.422
 6265TIP3    H218739   5.303   4.534   2.488
 6266TIP3   OH218740   2.786   3.075   6.559
 6266TIP3    H118741   2.714   3.056   6.618
 6266TIP3    H218742   2.865   3.063   6.612
 6267TIP3   OH218743   1.434   4.486   3.221
 6267TIP3    H118744   1.422   4.391   3.216
 6267TIP3    H218745   1.402   4.518   3.136
 6268TIP3   OH218746   6.082   2.734   1.696
 6268TIP3    H118747   6.063   2.783   1.775
 6268TIP3    H218748   6.095   2.800   1.628
 6269TIP3   OH218749   3.436   2.259   0.466
 6269TIP3    H118750   3.342   2.244   0.466
 6269TIP3    H218751   3.475   2.172   0.479
 6270TIP3   OH218752   0.884   1.527   2.296
 6270TIP3    H118753   0.966   1.496   2.335
 6270TIP3    H218754   0.909   1.564   2.212
 6271TIP3   OH218755   5.914   1.694   2.030
 6271TIP3    H118756   5.848   1.625   2.027
 6271TIP3    H218757   5.917   1.719   2.123
 6272TIP3   OH218758   0.326   4.390   6.481
 6272TIP3    H118759   0.280   4.426   6.557
 6272TIP3    H218760   0.418   4.388   6.506
 6273TIP3   OH218761   6.520   3.724   3.983
 6273TIP3    H118762   6.536   3.670   4.061
 6273TIP3    H218763   6.474   3.800   4.016
 6274TIP3   OH218764   6.168   6.164   1.593
 6274TIP3    H118765   6.115   6.160   1.513
 6274TIP3    H218766   6.105   6.172   1.664
 6275TIP3   OH218767   0.804   2.447   5.746
 6275TIP3    H118768   0.837   2.456   5.835
 6275TIP3    H218769   0.770   2.534   5.724
 6276TIP3   OH218770   6.423   2.829   2.592
 6276TIP3    H118771   6.423   2.907   2.646
 6276TIP3    H218772   6.515   2.814   2.571
 6277TIP3   OH218773   6.340   4.987   5.493
 6277TIP3    H118774   6.266   5.034   5.456
 6277TIP3    H218775   6.397   4.969   5.418
 6278TIP3   OH218776   6.679   1.177   6.073
 6278TIP3    H118777   6.629   1.100   6.047
 6278TIP3    H218778   6.718   1.154   6.157
 6279TIP3   OH218779   2.482   3.930   1.939
 6279TIP3    H118780   2.440   3.847   1.914
 6279TIP3    H218781   2.539   3.907   2.012
 6280TIP3   OH218782   3.047   5.358   4.949
 6280TIP3    H118783   3.117   5.318   4.896
 6280TIP3    H218784   3.061   5.452   4.940
 6281TIP3   OH218785   5.922   4.534   0.329
 6281TIP3    H118786   5.996   4.474   0.323
 6281TIP3    H218787   5.866   4.497   0.397
 6282TIP3   OH218788   4.733   5.128   0.257
 6282TIP3    H118789   4.744   5.069   0.332
 6282TIP3    H218790   4.822   5.143   0.225
 6283TIP3   OH218791   4.006   1.825   1.272
 6283TIP3    H118792   4.075   1.842   1.335
 6283TIP3    H218793   4.035   1.867   1.191
 6284TIP3   OH218794   6.080   5.255   1.374
 6284TIP3    H118795   6.091   5.340   1.332
 6284TIP3    H218796   6.157   5.246   1.431
 6285TIP3   OH218797   3.612   1.049   2.416
 6285TIP3    H118798   3.600   0.970   2.468
 6285TIP3    H218799   3.638   1.018   2.329
 6286TIP3   OH218800   4.212   5.913   0.270
 6286TIP3    H118801   4.153   5.838   0.266
 6286TIP3    H218802   4.278   5.895   0.203
 6287TIP3   OH218803   8.150   7.311   0.324
 6287TIP3    H118804   8.110   7.229   0.294
 6287TIP3    H218805   8.081   7.376   0.317
 6288TIP3   OH218806   2.217   4.031   4.631
 6288TIP3    H118807   2.139   4.069   4.671
 6288TIP3    H218808   2.202   4.039   4.537
 6289TIP3   OH218809   4.163   0.384   2.785
 6289TIP3    H118810   4.215   0.319   2.738
 6289TIP3    H218811   4.198   0.468   2.756
 6290TIP3   OH218812   7.209   2.815   2.948
 6290TIP3    H118813   7.207   2.908   2.972
 6290TIP3    H218814   7.180   2.770   3.027
 6291TIP3   OH218815   4.425   2.815   4.141
 6291TIP3    H118816   4.434   2.881   4.073
 6291TIP3    H218817   4.331   2.794   4.142
 6292TIP3   OH218818   0.433   5.566   1.856
 6292TIP3    H118819   0.375   5.640   1.844
 6292TIP3    H218820   0.428   5.517   1.774
 6293TIP3   OH218821   3.434   5.627   0.204
 6293TIP3    H118822   3.395   5.540   0.210
 6293TIP3    H218823   3.362   5.683   0.176
 6294TIP3   OH218824   5.670   3.144   4.695
 6294TIP3    H118825   5.634   3.062   4.728
 6294TIP3    H218826   5.606   3.174   4.630
 6295TIP3   OH218827   5.131   0.312   5.023
 6295TIP3    H118828   5.126   0.403   4.993
 6295TIP3    H218829   5.206   0.276   4.976
 6296TIP3   OH218830   6.748   1.386   5.307
 6296TIP3    H118831   6.736   1.476   5.337
 6296TIP3    H218832   6.725   1.389   5.214
 6297TIP3   OH218833   7.537   7.506   3.546
 6297TIP3    H118834   7.524   7.513   3.452
 6297TIP3    H218835   7.585   7.586   3.569
 6298TIP3   OH218836   4.498   1.600   3.411
 6298TIP3    H118837   4.515   1.592   3.505
 6298TIP3    H218838   4.429   1.665   3.404
 6299TIP3   OH218839   5.615   6.009   6.284
 6299TIP3    H118840   5.528   6.039   6.312
 6299TIP3    H218841   5.644   6.075   6.221
 6300TIP3   OH218842   5.556   2.331   0.670
 6300TIP3    H118843   5.501   2.253   0.677
 6300TIP3    H218844   5.643   2.297   0.649
 6301TIP3   OH218845   3.564   6.610   0.115
 6301TIP3    H118846   3.494   6.621   0.179
 6301TIP3    H218847   3.615   6.535   0.147
 6302TIP3   OH218848   7.148   3.534   2.258
 6302TIP3    H118849   7.192   3.555   2.176
 6302TIP3    H218850   7.123   3.618   2.295
 6303TIP3   OH218851   7.087   5.636   3.872
 6303TIP3    H118852   7.027   5.582   3.821
 6303TIP3    H218853   7.101   5.714   3.818
 6304TIP3   OH218854   6.809   2.627   4.346
 6304TIP3    H118855   6.734   2.636   4.287
 6304TIP3    H218856   6.886   2.639   4.290
 6305TIP3   OH218857   8.215   6.293   1.502
 6305TIP3    H118858   8.245   6.271   1.414
 6305TIP3    H218859   8.171   6.377   1.492
 6306TIP3   OH218860   7.352   1.507   6.283
 6306TIP3    H118861   7.297   1.473   6.212
 6306TIP3    H218862   7.389   1.588   6.247
 6307TIP3   OH218863   1.537   7.219   4.810
 6307TIP3    H118864   1.633   7.214   4.812
 6307TIP3    H218865   1.518   7.309   4.838
 6308TIP3   OH218866   4.904   1.614   4.400
 6308TIP3    H118867   4.913   1.707   4.382
 6308TIP3    H218868   4.992   1.585   4.424
 6309TIP3   OH218869   0.443   5.728   4.624
 6309TIP3    H118870   0.510   5.726   4.556
 6309TIP3    H218871   0.417   5.820   4.629
 6310TIP3   OH218872   5.622   5.321   0.384
 6310TIP3    H118873   5.573   5.401   0.403
 6310TIP3    H218874   5.557   5.250   0.393
 6311TIP3   OH218875   6.904   0.562   6.705
 6311TIP3    H118876   6.906   0.657   6.718
 6311TIP3    H218877   6.996   0.538   6.695
 6312TIP3   OH218878   0.828   1.761   3.660
 6312TIP3    H118879   0.830   1.667   3.643
 6312TIP3    H218880   0.734   1.783   3.661
 6313TIP3   OH218881   1.281   6.459   5.568
 6313TIP3    H118882   1.334   6.531   5.534
 6313TIP3    H218883   1.272   6.399   5.493
 6314TIP3   OH218884   0.673   6.668   2.907
 6314TIP3    H118885   0.755   6.619   2.916
 6314TIP3    H218886   0.687   6.725   2.832
 6315TIP3   OH218887   4.882   2.628   1.774
 6315TIP3    H118888   4.917   2.559   1.717
 6315TIP3    H218889   4.871   2.586   1.859
 6316TIP3   OH218890   4.195   6.502   4.524
 6316TIP3    H118891   4.209   6.525   4.616
 6316TIP3    H218892   4.194   6.586   4.479
 6317TIP3   OH218893   7.135   5.448   6.390
 6317TIP3    H118894   7.177   5.388   6.329
 6317TIP3    H218895   7.198   5.459   6.461
 6318TIP3   OH218896   7.441   3.551   2.395
 6318TIP3    H118897   7.381   3.488   2.436
 6318TIP3    H218898   7.387   3.630   2.382
 6319TIP3   OH218899   1.086   4.322   3.963
 6319TIP3    H118900   1.158   4.322   3.899
 6319TIP3    H218901   1.049   4.235   3.958
 6320TIP3   OH218902   3.011   0.371   0.267
 6320TIP3    H118903   3.042   0.364   0.177
 6320TIP3    H218904   2.960   0.452   0.268
 6321TIP3   OH218905   1.714   7.399   0.048
 6321TIP3    H118906   1.633   7.422   0.094
 6321TIP3    H218907   1.748   7.323   0.096
 6322TIP3   OH218908   6.388   6.429   4.350
 6322TIP3    H118909   6.353   6.517   4.366
 6322TIP3    H218910   6.315   6.383   4.307
 6323TIP3   OH218911   6.191   4.515   1.164
 6323TIP3    H118912   6.279   4.551   1.155
 6323TIP3    H218913   6.204   4.420   1.163
 6324TIP3   OH218914   2.978   5.504   3.875
 6324TIP3    H118915   2.890   5.534   3.854
 6324TIP3    H218916   3.004   5.557   3.951
 6325TIP3   OH218917   3.897   5.938   1.203
 6325TIP3    H118918   3.852   5.891   1.133
 6325TIP3    H218919   3.980   5.965   1.164
 6326TIP3   OH218920   7.815   1.799   1.831
 6326TIP3    H118921   7.771   1.883   1.814
 6326TIP3    H218922   7.785   1.773   1.918
 6327TIP3   OH218923   5.881   7.250   2.503
 6327TIP3    H118924   5.967   7.287   2.485
 6327TIP3    H218925   5.819   7.315   2.470
 6328TIP3   OH218926   1.886   3.443   2.275
 6328TIP3    H118927   1.860   3.352   2.293
 6328TIP3    H218928   1.963   3.458   2.330
 6329TIP3   OH218929   1.088   6.533   5.274
 6329TIP3    H118930   1.173   6.498   5.247
 6329TIP3    H218931   1.106   6.624   5.296
 6330TIP3   OH218932   2.340   0.378   2.870
 6330TIP3    H118933   2.363   0.469   2.857
 6330TIP3    H218934   2.381   0.354   2.953
 6331TIP3   OH218935   6.421   0.847   3.016
 6331TIP3    H118936   6.380   0.932   2.998
 6331TIP3    H218937   6.515   0.864   3.014
 6332TIP3   OH218938   5.372   2.088   0.454
 6332TIP3    H118939   5.292   2.044   0.425
 6332TIP3    H218940   5.348   2.180   0.464
 6333TIP3   OH218941   8.164   4.040   6.161
 6333TIP3    H118942   8.145   3.976   6.229
 6333TIP3    H218943   8.248   4.079   6.187
 6334TIP3   OH218944   1.476   2.004   1.010
 6334TIP3    H118945   1.514   2.084   0.973
 6334TIP3    H218946   1.493   1.936   0.945
 6335TIP3   OH218947   7.920   7.142   4.195
 6335TIP3    H118948   7.945   7.233   4.212
 6335TIP3    H218949   7.885   7.111   4.278
 6336TIP3   OH218950   1.674   1.667   6.540
 6336TIP3    H118951   1.738   1.699   6.477
 6336TIP3    H218952   1.686   1.725   6.616
 6337TIP3   OH218953   1.643   1.934   1.944
 6337TIP3    H118954   1.731   1.908   1.973
 6337TIP3    H218955   1.617   2.002   2.006
 6338TIP3   OH218956   5.567   0.163   4.699
 6338TIP3    H118957   5.492   0.110   4.727
 6338TIP3    H218958   5.531   0.251   4.690
 6339TIP3   OH218959   0.806   4.242   4.777
 6339TIP3    H118960   0.901   4.251   4.784
 6339TIP3    H218961   0.772   4.331   4.775
 6340TIP3   OH218962   6.127   1.932   3.041
 6340TIP3    H118963   6.087   1.845   3.047
 6340TIP3    H218964   6.055   1.993   3.060
 6341TIP3   OH218965   2.269   5.941   0.567
 6341TIP3    H118966   2.352   5.928   0.522
 6341TIP3    H218967   2.277   5.889   0.648
 6342TIP3   OH218968   1.149   6.818   4.683
 6342TIP3    H118969   1.190   6.747   4.633
 6342TIP3    H218970   1.131   6.886   4.618
 6343TIP3   OH218971   1.932   1.745   5.945
 6343TIP3    H118972   1.899   1.828   5.912
 6343TIP3    H218973   1.926   1.685   5.871
 6344TIP3   OH218974   1.069   5.248   0.763
 6344TIP3    H118975   1.139   5.183   0.749
 6344TIP3    H218976   0.988   5.199   0.753
 6345TIP3   OH218977   8.294   0.528   3.326
 6345TIP3    H118978   8.232   0.519   3.253
 6345TIP3    H218979   8.271   0.612   3.367
 6346TIP3   OH218980   3.454   4.410   2.556
 6346TIP3    H118981   3.373   4.461   2.557
 6346TIP3    H218982   3.432   4.331   2.506
 6347TIP3   OH218983   7.556   4.190   3.681
 6347TIP3    H118984   7.572   4.285   3.682
 6347TIP3    H218985   7.610   4.158   3.609
 6348TIP3   OH218986   7.285   7.561   2.465
 6348TIP3    H118987   7.301   7.505   2.541
 6348TIP3    H218988   7.270   7.501   2.393
 6349TIP3   OH218989   7.652   1.818   4.931
 6349TIP3    H118990   7.599   1.742   4.956
 6349TIP3    H218991   7.718   1.823   4.999
 6350TIP3   OH218992   1.416   4.524   1.500
 6350TIP3    H118993   1.324   4.497   1.495
 6350TIP3    H218994   1.462   4.448   1.535
 6351TIP3   OH218995   4.651   1.275   3.314
 6351TIP3    H118996   4.562   1.241   3.323
 6351TIP3    H218997   4.670   1.314   3.400
 6352TIP3   OH218998   2.594   0.236   4.485
 6352TIP3    H118999   2.642   0.282   4.415
 6352TIP3    H219000   2.662   0.192   4.535
 6353TIP3   OH219001   2.533   6.685   5.515
 6353TIP3    H119002   2.564   6.681   5.606
 6353TIP3    H219003   2.438   6.681   5.522
 6354TIP3   OH219004   5.145   6.927   0.955
 6354TIP3    H119005   5.111   6.844   0.988
 6354TIP3    H219006   5.111   6.933   0.865
 6355TIP3   OH219007   3.089   6.096   3.953
 6355TIP3    H119008   3.058   6.009   3.978
 6355TIP3    H219009   3.023   6.128   3.891
 6356TIP3   OH219010   5.922   0.516   4.375
 6356TIP3    H119011   5.886   0.487   4.459
 6356TIP3    H219012   5.872   0.595   4.354
 6357TIP3   OH219013   4.902   7.440   1.760
 6357TIP3    H119014   4.938   7.360   1.800
 6357TIP3    H219015   4.975   7.477   1.712
 6358TIP3   OH219016   0.783   5.453   1.626
 6358TIP3    H119017   0.875   5.448   1.654
 6358TIP3    H219018   0.762   5.364   1.596
 6359TIP3   OH219019   1.793   2.138   1.194
 6359TIP3    H119020   1.842   2.126   1.276
 6359TIP3    H219021   1.821   2.065   1.138
 6360TIP3   OH219022   7.899   0.908   6.629
 6360TIP3    H119023   7.840   0.844   6.589
 6360TIP3    H219024   7.890   0.893   6.723
 6361TIP3   OH219025   7.320   5.410   0.075
 6361TIP3    H119026   7.273   5.419  -0.007
 6361TIP3    H219027   7.409   5.384   0.049
 6362TIP3   OH219028   7.899   4.998   0.630
 6362TIP3    H119029   7.915   5.037   0.544
 6362TIP3    H219030   7.882   5.072   0.688
 6363TIP3   OH219031   2.899   6.961   4.563
 6363TIP3    H119032   2.972   6.956   4.501
 6363TIP3    H219033   2.931   6.918   4.642
 6364TIP3   OH219034   7.428   0.046   4.545
 6364TIP3    H119035   7.523   0.048   4.562
 6364TIP3    H219036   7.389   0.041   4.633
 6365TIP3   OH219037   4.450   3.446   4.504
 6365TIP3    H119038   4.423   3.436   4.596
 6365TIP3    H219039   4.504   3.369   4.486
 6366TIP3   OH219040   3.014   1.716   3.495
 6366TIP3    H119041   3.019   1.807   3.522
 6366TIP3    H219042   2.951   1.715   3.423
 6367TIP3   OH219043   1.255   6.847   2.671
 6367TIP3    H119044   1.277   6.932   2.709
 6367TIP3    H219045   1.285   6.784   2.736
 6368TIP3   OH219046   5.285   7.011   2.732
 6368TIP3    H119047   5.358   6.967   2.775
 6368TIP3    H219048   5.267   6.958   2.655
 6369TIP3   OH219049   1.234   6.977   3.752
 6369TIP3    H119050   1.319   7.020   3.751
 6369TIP3    H219051   1.174   7.042   3.788
 6370TIP3   OH219052   4.218   6.752   4.400
 6370TIP3    H119053   4.267   6.791   4.328
 6370TIP3    H219054   4.134   6.797   4.400
 6371TIP3   OH219055   8.040   2.970   1.533
 6371TIP3    H119056   8.072   2.948   1.445
 6371TIP3    H219057   8.001   2.888   1.565
 6372TIP3   OH219058   4.327   3.021   5.109
 6372TIP3    H119059   4.264   3.040   5.178
 6372TIP3    H219060   4.412   3.048   5.145
 6373TIP3   OH219061   0.303   3.273   6.256
 6373TIP3    H119062   0.325   3.330   6.183
 6373TIP3    H219063   0.212   3.293   6.275
 6374TIP3   OH219064   5.955   7.049   4.560
 6374TIP3    H119065   5.977   7.127   4.611
 6374TIP3    H219066   5.976   6.976   4.618
 6375TIP3   OH219067   6.021   5.690   6.523
 6375TIP3    H119068   5.927   5.704   6.519
 6375TIP3    H219069   6.035   5.607   6.477
 6376TIP3   OH219070   7.409   7.083   3.592
 6376TIP3    H119071   7.403   7.116   3.502
 6376TIP3    H219072   7.371   6.995   3.588
 6377TIP3   OH219073   5.129   6.906   5.491
 6377TIP3    H119074   5.068   6.917   5.564
 6377TIP3    H219075   5.203   6.963   5.512
 6378TIP3   OH219076   0.590   6.924   1.793
 6378TIP3    H119077   0.584   6.833   1.821
 6378TIP3    H219078   0.620   6.919   1.702
 6379TIP3   OH219079   5.539   3.581   6.188
 6379TIP3    H119080   5.612   3.636   6.217
 6379TIP3    H219081   5.581   3.498   6.164
 6380TIP3   OH219082   5.190   2.852   5.877
 6380TIP3    H119083   5.281   2.859   5.848
 6380TIP3    H219084   5.188   2.894   5.963
 6381TIP3   OH219085   2.646   2.621   3.044
 6381TIP3    H119086   2.598   2.672   3.110
 6381TIP3    H219087   2.737   2.628   3.071
 6382TIP3   OH219088   2.508   2.656   1.339
 6382TIP3    H119089   2.483   2.730   1.394
 6382TIP3    H219090   2.499   2.580   1.396
 6383TIP3   OH219091   8.110   1.278   1.395
 6383TIP3    H119092   8.026   1.245   1.427
 6383TIP3    H219093   8.137   1.343   1.460
 6384TIP3   OH219094   0.682   1.157   0.882
 6384TIP3    H119095   0.608   1.171   0.823
 6384TIP3    H219096   0.684   1.062   0.895
 6385TIP3   OH219097   1.975   4.469   1.226
 6385TIP3    H119098   1.977   4.403   1.296
 6385TIP3    H219099   1.901   4.444   1.172
 6386TIP3   OH219100   0.348   3.115   2.655
 6386TIP3    H119101   0.290   3.096   2.582
 6386TIP3    H219102   0.315   3.198   2.690
 6387TIP3   OH219103   3.070   1.473   1.919
 6387TIP3    H119104   3.085   1.566   1.937
 6387TIP3    H219105   3.021   1.441   1.995
 6388TIP3   OH219106   6.740   0.536   3.796
 6388TIP3    H119107   6.795   0.613   3.782
 6388TIP3    H219108   6.746   0.519   3.890
 6389TIP3   OH219109   5.368   1.223   1.686
 6389TIP3    H119110   5.284   1.177   1.681
 6389TIP3    H219111   5.352   1.306   1.640
 6390TIP3   OH219112   1.679   2.075   2.192
 6390TIP3    H119113   1.630   2.123   2.258
 6390TIP3    H219114   1.763   2.055   2.234
 6391TIP3   OH219115   5.668   7.430   5.598
 6391TIP3    H119116   5.643   7.518   5.626
 6391TIP3    H219117   5.703   7.442   5.509
 6392TIP3   OH219118   1.522   5.016   4.773
 6392TIP3    H119119   1.474   4.934   4.767
 6392TIP3    H219120   1.460   5.082   4.742
 6393TIP3   OH219121   6.180   7.447   6.388
 6393TIP3    H119122   6.158   7.531   6.347
 6393TIP3    H219123   6.108   7.389   6.364
 6394TIP3   OH219124   3.394   4.684   6.327
 6394TIP3    H119125   3.322   4.746   6.317
 6394TIP3    H219126   3.470   4.739   6.349
 6395TIP3   OH219127   8.224   4.443   1.830
 6395TIP3    H119128   8.242   4.463   1.922
 6395TIP3    H219129   8.161   4.510   1.803
 6396TIP3   OH219130   5.730   4.736   6.395
 6396TIP3    H119131   5.647   4.707   6.431
 6396TIP3    H219132   5.707   4.776   6.311
 6397TIP3   OH219133   0.848   6.934   4.601
 6397TIP3    H119134   0.900   7.002   4.643
 6397TIP3    H219135   0.836   6.868   4.669
 6398TIP3   OH219136   5.703   2.259   5.904
 6398TIP3    H119137   5.671   2.222   5.822
 6398TIP3    H219138   5.766   2.325   5.877
 6399TIP3   OH219139   0.445   2.532   1.010
 6399TIP3    H119140   0.534   2.504   1.030
 6399TIP3    H219141   0.396   2.451   0.998
 6400TIP3   OH219142   1.011   4.936   1.977
 6400TIP3    H119143   1.030   4.857   1.927
 6400TIP3    H219144   0.957   4.989   1.918
 6401TIP3   OH219145   7.253   0.555   3.828
 6401TIP3    H119146   7.338   0.550   3.873
 6401TIP3    H219147   7.237   0.649   3.818
 6402TIP3   OH219148   2.542   4.414   0.524
 6402TIP3    H119149   2.559   4.341   0.465
 6402TIP3    H219150   2.589   4.488   0.485
 6403TIP3   OH219151   0.167   5.432   6.280
 6403TIP3    H119152   0.191   5.344   6.309
 6403TIP3    H219153   0.178   5.487   6.358
 6404TIP3   OH219154   3.445   2.821   2.816
 6404TIP3    H119155   3.461   2.915   2.831
 6404TIP3    H219156   3.442   2.813   2.720
 6405TIP3   OH219157   1.282   3.878   2.875
 6405TIP3    H119158   1.194   3.855   2.906
 6405TIP3    H219159   1.303   3.812   2.809
 6406TIP3   OH219160   4.375   1.236   0.899
 6406TIP3    H119161   4.418   1.216   0.816
 6406TIP3    H219162   4.317   1.162   0.914
 6407TIP3   OH219163   1.488   0.489   4.956
 6407TIP3    H119164   1.459   0.467   4.867
 6407TIP3    H219165   1.584   0.486   4.951
 6408TIP3   OH219166   2.912   3.621   0.150
 6408TIP3    H119167   2.938   3.588   0.236
 6408TIP3    H219168   2.994   3.648   0.109
 6409TIP3   OH219169   7.236   0.713   6.509
 6409TIP3    H119170   7.258   0.720   6.602
 6409TIP3    H219171   7.258   0.622   6.486
 6410TIP3   OH219172   1.143   0.704   4.900
 6410TIP3    H119173   1.110   0.625   4.942
 6410TIP3    H219174   1.187   0.673   4.821
 6411TIP3   OH219175   5.170   0.406   1.324
 6411TIP3    H119176   5.235   0.341   1.351
 6411TIP3    H219177   5.215   0.490   1.330
 6412TIP3   OH219178   7.820   0.625   2.373
 6412TIP3    H119179   7.808   0.675   2.454
 6412TIP3    H219180   7.733   0.589   2.354
 6413TIP3   OH219181   1.295   3.246   6.356
 6413TIP3    H119182   1.256   3.324   6.316
 6413TIP3    H219183   1.308   3.186   6.283
 6414TIP3   OH219184   1.359   6.223   6.701
 6414TIP3    H119185   1.408   6.295   6.739
 6414TIP3    H219186   1.267   6.248   6.710
 6415TIP3   OH219187   3.905   0.704   0.856
 6415TIP3    H119188   3.954   0.781   0.826
 6415TIP3    H219189   3.871   0.729   0.942
 6416TIP3   OH219190   8.278   4.472   1.193
 6416TIP3    H119191   8.330   4.552   1.187
 6416TIP3    H219192   8.203   4.496   1.247
 6417TIP3   OH219193   2.947   5.105   2.814
 6417TIP3    H119194   3.032   5.137   2.843
 6417TIP3    H219195   2.955   5.009   2.817
 6418TIP3   OH219196   5.078   3.654   6.161
 6418TIP3    H119197   4.986   3.662   6.186
 6418TIP3    H219198   5.088   3.563   6.133
 6419TIP3   OH219199   1.037   6.151   5.311
 6419TIP3    H119200   1.059   6.059   5.324
 6419TIP3    H219201   0.960   6.164   5.366
 6420TIP3   OH219202   1.091   5.436   3.445
 6420TIP3    H119203   1.185   5.420   3.459
 6420TIP3    H219204   1.082   5.445   3.350
 6421TIP3   OH219205   2.240   3.863   4.267
 6421TIP3    H119206   2.280   3.949   4.266
 6421TIP3    H219207   2.148   3.879   4.289
 6422TIP3   OH219208   4.277   7.571   4.618
 6422TIP3    H119209   4.284   7.497   4.678
 6422TIP3    H219210   4.290   7.648   4.673
 6423TIP3   OH219211   6.756   3.265   1.413
 6423TIP3    H119212   6.704   3.265   1.334
 6423TIP3    H219213   6.842   3.298   1.386
 6424TIP3   OH219214   4.500   2.081   5.977
 6424TIP3    H119215   4.566   2.076   6.047
 6424TIP3    H219216   4.544   2.128   5.906
 6425TIP3   OH219217   3.271   3.590   0.098
 6425TIP3    H119218   3.285   3.610   0.190
 6425TIP3    H219219   3.359   3.570   0.065
 6426TIP3   OH219220   5.436   3.661   2.623
 6426TIP3    H119221   5.445   3.669   2.528
 6426TIP3    H219222   5.522   3.686   2.658
 6427TIP3   OH219223   8.107   6.949   6.149
 6427TIP3    H119224   8.191   6.909   6.174
 6427TIP3    H219225   8.096   7.022   6.210
 6428TIP3   OH219226   4.219   5.778   1.617
 6428TIP3    H119227   4.127   5.789   1.641
 6428TIP3    H219228   4.229   5.683   1.604
 6429TIP3   OH219229   0.052   3.518   1.593
 6429TIP3    H119230   0.065   3.434   1.636
 6429TIP3    H219231   0.001   3.569   1.656
 6430TIP3   OH219232   1.108   2.124   5.676
 6430TIP3    H119233   1.150   2.181   5.740
 6430TIP3    H219234   1.047   2.181   5.630
 6431TIP3   OH219235   5.187   1.306   4.077
 6431TIP3    H119236   5.096   1.333   4.081
 6431TIP3    H219237   5.221   1.320   4.165
 6432TIP3   OH219238   4.827   1.092   5.994
 6432TIP3    H119239   4.914   1.096   5.955
 6432TIP3    H219240   4.836   1.032   6.068
 6433TIP3   OH219241   5.531   1.975   4.640
 6433TIP3    H119242   5.481   1.899   4.669
 6433TIP3    H219243   5.559   2.019   4.720
 6434TIP3   OH219244   4.346   1.219   0.059
 6434TIP3    H119245   4.376   1.148   0.003
 6434TIP3    H219246   4.314   1.175   0.138
 6435TIP3   OH219247   7.827   4.056   1.584
 6435TIP3    H119248   7.746   4.040   1.632
 6435TIP3    H219249   7.860   3.968   1.562
 6436TIP3   OH219250   2.029   0.322   3.935
 6436TIP3    H119251   2.109   0.368   3.909
 6436TIP3    H219252   1.960   0.365   3.884
 6437TIP3   OH219253   2.464   5.398   6.135
 6437TIP3    H119254   2.382   5.349   6.138
 6437TIP3    H219255   2.502   5.376   6.050
 6438TIP3   OH219256   7.961   7.636   5.243
 6438TIP3    H119257   7.981   7.723   5.277
 6438TIP3    H219258   7.883   7.648   5.189
 6439TIP3   OH219259   7.171   7.080   5.864
 6439TIP3    H119260   7.083   7.074   5.902
 6439TIP3    H219261   7.185   6.996   5.822
 6440TIP3   OH219262   6.205   7.755   0.862
 6440TIP3    H119263   6.175   7.820   0.799
 6440TIP3    H219264   6.217   7.675   0.809
 6441TIP3   OH219265   3.552   0.591   3.056
 6441TIP3    H119266   3.608   0.527   3.013
 6441TIP3    H219267   3.559   0.670   3.003
 6442TIP3   OH219268   5.317   6.868   2.483
 6442TIP3    H119269   5.358   6.787   2.452
 6442TIP3    H219270   5.227   6.864   2.450
 6443TIP3   OH219271   3.795   1.729   4.099
 6443TIP3    H119272   3.839   1.812   4.113
 6443TIP3    H219273   3.779   1.694   4.187
 6444TIP3   OH219274   6.748   2.719   3.500
 6444TIP3    H119275   6.675   2.733   3.440
 6444TIP3    H219276   6.801   2.651   3.458
 6445TIP3   OH219277   0.311   4.884   3.869
 6445TIP3    H119278   0.251   4.820   3.907
 6445TIP3    H219279   0.278   4.968   3.900
 6446TIP3   OH219280   4.105   1.956   3.481
 6446TIP3    H119281   4.125   1.865   3.502
 6446TIP3    H219282   4.011   1.965   3.496
 6447TIP3   OH219283   1.003   7.029   5.733
 6447TIP3    H119284   0.996   6.937   5.758
 6447TIP3    H219285   1.075   7.031   5.669
 6448TIP3   OH219286   3.327   4.352   0.455
 6448TIP3    H119287   3.400   4.413   0.444
 6448TIP3    H219288   3.362   4.267   0.427
 6449TIP3   OH219289   2.628   0.473   1.796
 6449TIP3    H119290   2.610   0.526   1.874
 6449TIP3    H219291   2.717   0.497   1.771
 6450TIP3   OH219292   6.100   6.719   6.047
 6450TIP3    H119293   6.113   6.629   6.017
 6450TIP3    H219294   6.169   6.733   6.112
 6451TIP3   OH219295   3.046   5.075   6.687
 6451TIP3    H119296   3.141   5.085   6.688
 6451TIP3    H219297   3.018   5.121   6.608
 6452TIP3   OH219298   0.801   4.616   6.695
 6452TIP3    H119299   0.739   4.556   6.736
 6452TIP3    H219300   0.887   4.587   6.728
 6453TIP3   OH219301   6.000   6.085   1.345
 6453TIP3    H119302   5.935   6.143   1.385
 6453TIP3    H219303   6.010   6.117   1.256
 6454TIP3   OH219304   0.618   6.799   3.621
 6454TIP3    H119305   0.564   6.871   3.586
 6454TIP3    H219306   0.590   6.790   3.712
 6455TIP3   OH219307   3.364   6.926   3.558
 6455TIP3    H119308   3.386   6.934   3.465
 6455TIP3    H219309   3.374   6.832   3.577
 6456TIP3   OH219310   4.652   0.807   2.048
 6456TIP3    H119311   4.743   0.805   2.019
 6456TIP3    H219312   4.608   0.741   1.993
 6457TIP3   OH219313   4.056   6.974   1.356
 6457TIP3    H119314   4.103   6.920   1.419
 6457TIP3    H219315   3.975   6.999   1.401
 6458TIP3   OH219316   1.874   1.791   4.979
 6458TIP3    H119317   1.885   1.824   5.068
 6458TIP3    H219318   1.937   1.719   4.972
 6459TIP3   OH219319   2.700   6.494   4.813
 6459TIP3    H119320   2.707   6.588   4.833
 6459TIP3    H219321   2.624   6.488   4.755
 6460TIP3   OH219322   5.775   7.014   2.485
 6460TIP3    H119323   5.779   6.971   2.571
 6460TIP3    H219324   5.804   7.104   2.502
 6461TIP3   OH219325   1.665   5.703   1.913
 6461TIP3    H119326   1.720   5.637   1.871
 6461TIP3    H219327   1.648   5.668   2.000
 6462TIP3   OH219328   8.015   2.738   5.816
 6462TIP3    H119329   8.087   2.796   5.791
 6462TIP3    H219330   7.988   2.770   5.902
 6463TIP3   OH219331   6.231   4.691   6.614
 6463TIP3    H119332   6.137   4.677   6.622
 6463TIP3    H219333   6.247   4.776   6.654
 6464TIP3   OH219334   5.931   5.444   3.165
 6464TIP3    H119335   5.923   5.350   3.182
 6464TIP3    H219336   5.990   5.449   3.089
 6465TIP3   OH219337   7.738   0.074   0.624
 6465TIP3    H119338   7.791   0.038   0.695
 6465TIP3    H219339   7.726   0.001   0.564
 6466TIP3   OH219340   3.575   1.306   1.713
 6466TIP3    H119341   3.556   1.217   1.685
 6466TIP3    H219342   3.636   1.296   1.786
 6467TIP3   OH219343   4.214   7.589   4.354
 6467TIP3    H119344   4.192   7.496   4.341
 6467TIP3    H219345   4.224   7.597   4.449
 6468TIP3   OH219346   4.153   1.809   0.463
 6468TIP3    H119347   4.101   1.758   0.401
 6468TIP3    H219348   4.240   1.769   0.460
 6469TIP3   OH219349   4.006   5.179   3.272
 6469TIP3    H119350   3.969   5.265   3.254
 6469TIP3    H219351   3.934   5.129   3.309
 6470TIP3   OH219352   6.184   0.566   3.433
 6470TIP3    H119353   6.182   0.642   3.491
 6470TIP3    H219354   6.249   0.588   3.367
 6471TIP3   OH219355   3.928   5.477   6.723
 6471TIP3    H119356   3.947   5.410   6.657
 6471TIP3    H219357   3.840   5.508   6.701
 6472TIP3   OH219358   4.256   6.218   0.328
 6472TIP3    H119359   4.336   6.250   0.370
 6472TIP3    H219360   4.255   6.261   0.243
 6473TIP3   OH219361   1.901   3.944   5.135
 6473TIP3    H119362   1.925   3.884   5.205
 6473TIP3    H219363   1.805   3.949   5.139
 6474TIP3   OH219364   2.301   3.208   2.933
 6474TIP3    H119365   2.247   3.145   2.885
 6474TIP3    H219366   2.241   3.252   2.992
 6475TIP3   OH219367   2.705   3.726   0.456
 6475TIP3    H119368   2.613   3.727   0.482
 6475TIP3    H219369   2.735   3.638   0.477
 6476TIP3   OH219370   7.209   0.001   0.904
 6476TIP3    H119371   7.168  -0.032   0.825
 6476TIP3    H219372   7.254   0.081   0.876
 6477TIP3   OH219373   5.779   6.633   3.081
 6477TIP3    H119374   5.717   6.656   3.150
 6477TIP3    H219375   5.772   6.538   3.073
 6478TIP3   OH219376   7.149   0.433   1.064
 6478TIP3    H119377   7.092   0.359   1.043
 6478TIP3    H219378   7.225   0.422   1.007
 6479TIP3   OH219379   3.062   2.365   4.226
 6479TIP3    H119380   3.142   2.414   4.247
 6479TIP3    H219381   3.079   2.328   4.140
 6480TIP3   OH219382   1.631   1.204   4.996
 6480TIP3    H119383   1.684   1.284   4.994
 6480TIP3    H219384   1.695   1.134   4.990
 6481TIP3   OH219385   7.887   6.897   5.449
 6481TIP3    H119386   7.821   6.897   5.518
 6481TIP3    H219387   7.844   6.940   5.375
 6482TIP3   OH219388   1.069   1.565   6.099
 6482TIP3    H119389   1.001   1.573   6.033
 6482TIP3    H219390   1.023   1.567   6.182
 6483TIP3   OH219391   2.128   4.257   4.947
 6483TIP3    H119392   2.050   4.258   5.002
 6483TIP3    H219393   2.101   4.302   4.867
 6484TIP3   OH219394   8.312   1.689   2.176
 6484TIP3    H119395   8.367   1.665   2.251
 6484TIP3    H219396   8.225   1.657   2.199
 6485TIP3   OH219397   0.282   6.175   1.952
 6485TIP3    H119398   0.328   6.104   1.997
 6485TIP3    H219399   0.208   6.196   2.008
 6486TIP3   OH219400   2.483   2.094   5.719
 6486TIP3    H119401   2.527   2.068   5.637
 6486TIP3    H219402   2.393   2.113   5.693
 6487TIP3   OH219403   4.128   4.539   6.298
 6487TIP3    H119404   4.167   4.627   6.293
 6487TIP3    H219405   4.095   4.523   6.210
 6488TIP3   OH219406   8.030   7.397   5.373
 6488TIP3    H119407   8.041   7.353   5.289
 6488TIP3    H219408   8.011   7.488   5.350
 6489TIP3   OH219409   4.003   2.605   0.762
 6489TIP3    H119410   3.954   2.563   0.833
 6489TIP3    H219411   4.084   2.636   0.803
 6490TIP3   OH219412   1.595   6.499   2.485
 6490TIP3    H119413   1.541   6.513   2.562
 6490TIP3    H219414   1.583   6.578   2.432
 6491TIP3   OH219415   3.659   3.172   5.841
 6491TIP3    H119416   3.569   3.201   5.829
 6491TIP3    H219417   3.701   3.244   5.889
 6492TIP3   OH219418   3.019   3.329   2.226
 6492TIP3    H119419   2.995   3.238   2.205
 6492TIP3    H219420   2.943   3.363   2.273
 6493TIP3   OH219421   1.597   2.805   6.752
 6493TIP3    H119422   1.540   2.805   6.828
 6493TIP3    H219423   1.610   2.712   6.732
 6494TIP3   OH219424   4.708   7.097   1.608
 6494TIP3    H119425   4.673   7.180   1.576
 6494TIP3    H219426   4.684   7.094   1.700
 6495TIP3   OH219427   3.301   2.881   5.005
 6495TIP3    H119428   3.254   2.837   4.934
 6495TIP3    H219429   3.258   2.967   5.013
 6496TIP3   OH219430   2.836   6.581   1.976
 6496TIP3    H119431   2.788   6.549   1.900
 6496TIP3    H219432   2.876   6.663   1.946
 6497TIP3   OH219433   6.933   0.544   5.885
 6497TIP3    H119434   6.895   0.502   5.962
 6497TIP3    H219435   6.861   0.596   5.849
 6498TIP3   OH219436   4.145   7.303   0.111
 6498TIP3    H119437   4.201   7.310   0.033
 6498TIP3    H219438   4.076   7.242   0.085
 6499TIP3   OH219439   4.672   7.136   3.611
 6499TIP3    H119440   4.714   7.128   3.526
 6499TIP3    H219441   4.612   7.210   3.602
 6500TIP3   OH219442   7.509   5.915   5.914
 6500TIP3    H119443   7.414   5.902   5.921
 6500TIP3    H219444   7.540   5.911   6.005
 6501TIP3   OH219445   2.571   0.129   4.176
 6501TIP3    H119446   2.493   0.185   4.178
 6501TIP3    H219447   2.640   0.182   4.217
 6502TIP3   OH219448   2.453   3.265   0.154
 6502TIP3    H119449   2.507   3.327   0.104
 6502TIP3    H219450   2.399   3.221   0.088
 6503TIP3   OH219451   5.452   3.134   4.099
 6503TIP3    H119452   5.385   3.139   4.168
 6503TIP3    H219453   5.494   3.220   4.101
 6504TIP3   OH219454   4.169   6.052   2.830
 6504TIP3    H119455   4.169   6.023   2.739
 6504TIP3    H219456   4.098   6.002   2.871
 6505TIP3   OH219457   5.479   1.044   0.455
 6505TIP3    H119458   5.546   1.006   0.511
 6505TIP3    H219459   5.421   0.971   0.433
 6506TIP3   OH219460   4.596   4.896   6.209
 6506TIP3    H119461   4.638   4.829   6.263
 6506TIP3    H219462   4.666   4.958   6.189
 6507TIP3   OH219463   4.348   6.828   6.123
 6507TIP3    H119464   4.398   6.907   6.100
 6507TIP3    H219465   4.261   6.861   6.146
 6508TIP3   OH219466   6.026   4.992   3.973
 6508TIP3    H119467   6.080   4.914   3.984
 6508TIP3    H219468   6.051   5.027   3.887
 6509TIP3   OH219469   1.757   4.240   5.371
 6509TIP3    H119470   1.718   4.165   5.415
 6509TIP3    H219471   1.688   4.273   5.313
 6510TIP3   OH219472   7.398   6.015   4.979
 6510TIP3    H119473   7.468   6.046   5.036
 6510TIP3    H219474   7.442   5.999   4.895
 6511TIP3   OH219475   4.224   7.267   6.509
 6511TIP3    H119476   4.131   7.266   6.534
 6511TIP3    H219477   4.223   7.251   6.415
 6512TIP3   OH219478   3.232   7.011   3.145
 6512TIP3    H119479   3.225   6.932   3.199
 6512TIP3    H219480   3.260   6.979   3.059
 6513TIP3   OH219481   5.659   7.033   1.375
 6513TIP3    H119482   5.628   7.057   1.287
 6513TIP3    H219483   5.724   7.100   1.397
 6514TIP3   OH219484   5.290   0.190   6.657
 6514TIP3    H119485   5.314   0.139   6.734
 6514TIP3    H219486   5.196   0.204   6.665
 6515TIP3   OH219487   0.780   0.731   5.252
 6515TIP3    H119488   0.713   0.669   5.223
 6515TIP3    H219489   0.730   0.809   5.277
 6516TIP3   OH219490   2.197   7.136   2.057
 6516TIP3    H119491   2.217   7.154   2.149
 6516TIP3    H219492   2.227   7.046   2.044
 6517TIP3   OH219493   6.150   6.237   0.177
 6517TIP3    H119494   6.225   6.291   0.205
 6517TIP3    H219495   6.189   6.154   0.149
 6518TIP3   OH219496   3.660   1.575   5.198
 6518TIP3    H119497   3.637   1.645   5.138
 6518TIP3    H219498   3.579   1.556   5.246
 6519TIP3   OH219499   1.074   4.493   2.182
 6519TIP3    H119500   1.113   4.580   2.179
 6519TIP3    H219501   1.145   4.436   2.212
 6520TIP3   OH219502   2.591   6.471   3.275
 6520TIP3    H119503   2.652   6.412   3.231
 6520TIP3    H219504   2.585   6.438   3.364
 6521TIP3   OH219505   7.415   3.224   3.426
 6521TIP3    H119506   7.332   3.187   3.456
 6521TIP3    H219507   7.470   3.224   3.504
 6522TIP3   OH219508   2.734   4.648   2.469
 6522TIP3    H119509   2.710   4.701   2.544
 6522TIP3    H219510   2.814   4.688   2.435
 6523TIP3   OH219511   7.265   3.097   6.637
 6523TIP3    H119512   7.354   3.124   6.613
 6523TIP3    H219513   7.259   3.116   6.731
 6524TIP3   OH219514   7.657   6.506   4.231
 6524TIP3    H119515   7.662   6.420   4.271
 6524TIP3    H219516   7.626   6.489   4.142
 6525TIP3   OH219517   0.180   0.578   1.608
 6525TIP3    H119518   0.255   0.553   1.664
 6525TIP3    H219519   0.167   0.502   1.551
 6526TIP3   OH219520   3.765   0.452   2.947
 6526TIP3    H119521   3.853   0.449   2.985
 6526TIP3    H219522   3.746   0.362   2.923
 6527TIP3   OH219523   3.286   2.369   5.102
 6527TIP3    H119524   3.299   2.384   5.009
 6527TIP3    H219525   3.374   2.357   5.137
 6528TIP3   OH219526   2.967   4.096   5.527
 6528TIP3    H119527   2.999   4.148   5.601
 6528TIP3    H219528   3.015   4.131   5.451
 6529TIP3   OH219529   5.019   4.478   2.696
 6529TIP3    H119530   4.938   4.466   2.745
 6529TIP3    H219531   5.078   4.523   2.758
 6530TIP3   OH219532  -0.024   3.756   2.548
 6530TIP3    H119533   0.019   3.698   2.485
 6530TIP3    H219534   0.046   3.814   2.578
 6531TIP3   OH219535   6.783   6.517   0.132
 6531TIP3    H119536   6.869   6.515   0.174
 6531TIP3    H219537   6.782   6.600   0.083
 6532TIP3   OH219538   6.490   3.696   6.037
 6532TIP3    H119539   6.584   3.714   6.032
 6532TIP3    H219540   6.469   3.661   5.950
 6533TIP3   OH219541   7.986   7.264   6.054
 6533TIP3    H119542   7.916   7.198   6.058
 6533TIP3    H219543   8.043   7.243   6.129
 6534TIP3   OH219544   2.910   5.042   2.026
 6534TIP3    H119545   2.823   5.050   2.066
 6534TIP3    H219546   2.971   5.063   2.097
 6535TIP3   OH219547   1.670   2.833   2.965
 6535TIP3    H119548   1.740   2.773   2.939
 6535TIP3    H219549   1.647   2.880   2.885
 6536TIP3   OH219550   1.530   1.501   4.846
 6536TIP3    H119551   1.439   1.504   4.817
 6536TIP3    H219552   1.576   1.564   4.791
 6537TIP3   OH219553   2.456   2.814   2.832
 6537TIP3    H119554   2.449   2.748   2.763
 6537TIP3    H219555   2.549   2.816   2.854
 6538TIP3   OH219556   6.675   0.343   1.011
 6538TIP3    H119557   6.756   0.383   0.978
 6538TIP3    H219558   6.654   0.276   0.946
 6539TIP3   OH219559   4.129   7.582   6.170
 6539TIP3    H119560   4.164   7.589   6.081
 6539TIP3    H219561   4.046   7.535   6.159
 6540TIP3   OH219562   6.905   0.395   5.055
 6540TIP3    H119563   6.862   0.310   5.043
 6540TIP3    H219564   6.880   0.446   4.978
 6541TIP3   OH219565   1.077   0.160   2.616
 6541TIP3    H119566   1.135   0.198   2.681
 6541TIP3    H219567   1.017   0.105   2.666
 6542TIP3   OH219568   5.190   7.731   5.673
 6542TIP3    H119569   5.200   7.689   5.758
 6542TIP3    H219570   5.273   7.775   5.658
 6543TIP3   OH219571   4.217   7.278   4.350
 6543TIP3    H119572   4.254   7.237   4.271
 6543TIP3    H219573   4.123   7.283   4.333
 6544TIP3   OH219574   0.036   0.608   0.587
 6544TIP3    H119575  -0.057   0.586   0.590
 6544TIP3    H219576   0.079   0.525   0.569
 6545TIP3   OH219577   6.520   5.885   0.170
 6545TIP3    H119578   6.504   5.903   0.078
 6545TIP3    H219579   6.555   5.967   0.205
 6546TIP3   OH219580   3.618   6.188   6.397
 6546TIP3    H119581   3.646   6.133   6.470
 6546TIP3    H219582   3.699   6.208   6.350
 6547TIP3   OH219583   0.650   0.392   0.467
 6547TIP3    H119584   0.645   0.301   0.496
 6547TIP3    H219585   0.735   0.423   0.498
 6548TIP3   OH219586   6.739   3.019   1.234
 6548TIP3    H119587   6.834   3.026   1.230
 6548TIP3    H219588   6.716   2.956   1.166
 6549TIP3   OH219589   3.867   0.553   6.625
 6549TIP3    H119590   3.921   0.538   6.703
 6549TIP3    H219591   3.801   0.484   6.629
 6550TIP3   OH219592   2.017   0.528   1.304
 6550TIP3    H119593   1.994   0.444   1.344
 6550TIP3    H219594   2.093   0.559   1.353
 6551TIP3   OH219595   5.158   6.169   3.592
 6551TIP3    H119596   5.120   6.179   3.679
 6551TIP3    H219597   5.086   6.192   3.532
 6552TIP3   OH219598   3.957   4.848   6.130
 6552TIP3    H119599   3.934   4.940   6.115
 6552TIP3    H219600   4.029   4.851   6.192
 6553TIP3   OH219601   3.991   2.410   2.495
 6553TIP3    H119602   3.904   2.390   2.460
 6553TIP3    H219603   4.047   2.420   2.418
 6554TIP3   OH219604   1.510   1.450   5.889
 6554TIP3    H119605   1.493   1.434   5.981
 6554TIP3    H219606   1.556   1.534   5.887
 6555TIP3   OH219607   6.857   2.343   5.033
 6555TIP3    H119608   6.952   2.347   5.045
 6555TIP3    H219609   6.845   2.330   4.939
 6556TIP3   OH219610   2.989   6.016   1.067
 6556TIP3    H119611   2.990   6.048   0.977
 6556TIP3    H219612   2.931   5.940   1.065
 6557TIP3   OH219613   5.319   7.107   1.067
 6557TIP3    H119614   5.266   7.182   1.094
 6557TIP3    H219615   5.255   7.041   1.041
 6558TIP3   OH219616   5.564   5.215   6.751
 6558TIP3    H119617   5.566   5.169   6.835
 6558TIP3    H219618   5.598   5.152   6.688
 6559TIP3   OH219619   4.389   0.617   5.266
 6559TIP3    H119620   4.313   0.634   5.211
 6559TIP3    H219621   4.414   0.704   5.300
 6560TIP3   OH219622   7.244   6.824   1.042
 6560TIP3    H119623   7.192   6.756   1.000
 6560TIP3    H219624   7.215   6.823   1.133
 6561TIP3   OH219625   3.454   7.014   3.303
 6561TIP3    H119626   3.522   6.959   3.263
 6561TIP3    H219627   3.394   7.033   3.231
 6562TIP3   OH219628   3.619   4.319   6.340
 6562TIP3    H119629   3.699   4.339   6.291
 6562TIP3    H219630   3.640   4.341   6.431
 6563TIP3   OH219631   5.361   5.457   4.585
 6563TIP3    H119632   5.442   5.410   4.565
 6563TIP3    H219633   5.345   5.512   4.509
 6564TIP3   OH219634   2.675   2.817   3.481
 6564TIP3    H119635   2.684   2.853   3.569
 6564TIP3    H219636   2.748   2.854   3.433
 6565TIP3   OH219637   1.794   1.956   5.825
 6565TIP3    H119638   1.825   2.026   5.767
 6565TIP3    H219639   1.718   1.992   5.868
 6566TIP3   OH219640   6.033   5.554   4.712
 6566TIP3    H119641   5.938   5.546   4.717
 6566TIP3    H219642   6.057   5.507   4.632
 6567TIP3   OH219643   7.385   4.579   2.366
 6567TIP3    H119644   7.409   4.568   2.274
 6567TIP3    H219645   7.351   4.494   2.393
 6568TIP3   OH219646   2.893   7.336   3.605
 6568TIP3    H119647   2.951   7.409   3.583
 6568TIP3    H219648   2.929   7.301   3.687
 6569TIP3   OH219649   2.033   6.096   2.022
 6569TIP3    H119650   2.036   6.061   2.111
 6569TIP3    H219651   2.066   6.024   1.968
 6570TIP3   OH219652   6.417   7.171   2.776
 6570TIP3    H119653   6.489   7.180   2.714
 6570TIP3    H219654   6.433   7.088   2.820
 6571TIP3   OH219655   5.641   7.845   6.554
 6571TIP3    H119656   5.582   7.801   6.615
 6571TIP3    H219657   5.704   7.778   6.529
 6572TIP3   OH219658   7.906   6.950   5.898
 6572TIP3    H119659   7.854   6.874   5.924
 6572TIP3    H219660   7.919   6.999   5.979
 6573TIP3   OH219661   3.619   7.168   1.459
 6573TIP3    H119662   3.597   7.076   1.444
 6573TIP3    H219663   3.586   7.187   1.546
 6574TIP3   OH219664   2.038   6.140   6.636
 6574TIP3    H119665   2.079   6.086   6.569
 6574TIP3    H219666   2.111   6.174   6.688
 6575TIP3   OH219667   1.741   1.639   1.743
 6575TIP3    H119668   1.657   1.599   1.765
 6575TIP3    H219669   1.797   1.620   1.818
 6576TIP3   OH219670   1.933   4.505   5.127
 6576TIP3    H119671   1.850   4.553   5.130
 6576TIP3    H219672   1.910   4.416   5.151
 6577TIP3   OH219673   6.351   5.981   2.949
 6577TIP3    H119674   6.425   5.921   2.959
 6577TIP3    H219675   6.286   5.931   2.900
 6578TIP3   OH219676   4.042   4.198   6.397
 6578TIP3    H119677   3.998   4.113   6.398
 6578TIP3    H219678   4.121   4.184   6.344
 6579TIP3   OH219679   3.807   4.412   1.970
 6579TIP3    H119680   3.712   4.419   1.960
 6579TIP3    H219681   3.826   4.319   1.955
 6580TIP3   OH219682   4.849   5.536   3.225
 6580TIP3    H119683   4.814   5.618   3.192
 6580TIP3    H219684   4.928   5.561   3.274
 6581TIP3   OH219685   6.549   5.192   6.257
 6581TIP3    H119686   6.491   5.191   6.333
 6581TIP3    H219687   6.525   5.113   6.208
 6582TIP3   OH219688   3.519   3.894   1.125
 6582TIP3    H119689   3.489   3.816   1.079
 6582TIP3    H219690   3.442   3.952   1.128
 6583TIP3   OH219691   6.293   0.780   2.033
 6583TIP3    H119692   6.333   0.724   1.967
 6583TIP3    H219693   6.361   0.793   2.099
 6584TIP3   OH219694   0.639   2.298   5.535
 6584TIP3    H119695   0.731   2.289   5.560
 6584TIP3    H219696   0.609   2.377   5.581
 6585TIP3   OH219697   0.620   1.577   4.658
 6585TIP3    H119698   0.599   1.529   4.738
 6585TIP3    H219699   0.683   1.643   4.687
 6586TIP3   OH219700   5.060   3.796   1.680
 6586TIP3    H119701   5.072   3.827   1.590
 6586TIP3    H219702   5.008   3.716   1.671
 6587TIP3   OH219703   5.191   4.974   3.054
 6587TIP3    H119704   5.286   4.962   3.051
 6587TIP3    H219705   5.176   5.058   3.011
 6588TIP3   OH219706   5.192   5.663   5.709
 6588TIP3    H119707   5.139   5.607   5.766
 6588TIP3    H219708   5.157   5.751   5.725
 6589TIP3   OH219709   5.034   4.873   0.178
 6589TIP3    H119710   5.038   4.969   0.183
 6589TIP3    H219711   5.116   4.848   0.134
 6590TIP3   OH219712   2.776   3.296   4.222
 6590TIP3    H119713   2.842   3.344   4.174
 6590TIP3    H219714   2.819   3.270   4.303
 6591TIP3   OH219715   6.621   7.379   1.275
 6591TIP3    H119716   6.545   7.427   1.310
 6591TIP3    H219717   6.693   7.403   1.333
 6592TIP3   OH219718   4.653   4.208   0.967
 6592TIP3    H119719   4.593   4.168   1.030
 6592TIP3    H219720   4.605   4.283   0.931
 6593TIP3   OH219721   6.645   7.505   3.968
 6593TIP3    H119722   6.615   7.536   3.883
 6593TIP3    H219723   6.722   7.451   3.948
 6594TIP3   OH219724   3.707   5.017   5.018
 6594TIP3    H119725   3.678   4.998   5.107
 6594TIP3    H219726   3.754   5.101   5.026
 6595TIP3   OH219727   4.696   0.668   1.301
 6595TIP3    H119728   4.636   0.703   1.236
 6595TIP3    H219729   4.729   0.587   1.261
 6596TIP3   OH219730   3.470   4.545   2.229
 6596TIP3    H119731   3.534   4.518   2.295
 6596TIP3    H219732   3.466   4.640   2.236
 6597TIP3   OH219733   1.192   5.554   6.660
 6597TIP3    H119734   1.170   5.646   6.651
 6597TIP3    H219735   1.111   5.508   6.638
 6598TIP3   OH219736   6.687   0.703   1.830
 6598TIP3    H119737   6.722   0.646   1.898
 6598TIP3    H219738   6.742   0.781   1.834
 6599TIP3   OH219739   3.663   2.407   1.430
 6599TIP3    H119740   3.669   2.315   1.456
 6599TIP3    H219741   3.680   2.457   1.510
 6600TIP3   OH219742   6.416   0.632   5.282
 6600TIP3    H119743   6.470   0.574   5.228
 6600TIP3    H219744   6.475   0.663   5.350
 6601TIP3   OH219745   5.392   2.065   6.648
 6601TIP3    H119746   5.440   2.092   6.726
 6601TIP3    H219747   5.313   2.024   6.683
 6602TIP3   OH219748   0.355   2.607   4.141
 6602TIP3    H119749   0.397   2.670   4.200
 6602TIP3    H219750   0.411   2.530   4.145
 6603TIP3   OH219751   6.622   2.050   1.176
 6603TIP3    H119752   6.687   1.987   1.144
 6603TIP3    H219753   6.541   1.999   1.183
 6604TIP3   OH219754   6.350   3.231   4.419
 6604TIP3    H119755   6.264   3.252   4.456
 6604TIP3    H219756   6.330   3.190   4.334
 6605TIP3   OH219757   2.668   4.787   4.754
 6605TIP3    H119758   2.659   4.826   4.667
 6605TIP3    H219759   2.691   4.861   4.811
 6606TIP3   OH219760   3.961   0.864   1.173
 6606TIP3    H119761   3.884   0.826   1.131
 6606TIP3    H219762   3.986   0.801   1.240
 6607TIP3   OH219763   7.843   0.322   5.889
 6607TIP3    H119764   7.897   0.251   5.856
 6607TIP3    H219765   7.824   0.375   5.811
 6608TIP3   OH219766   0.386   5.003   1.583
 6608TIP3    H119767   0.359   4.964   1.500
 6608TIP3    H219768   0.310   5.053   1.611
 6609TIP3   OH219769   0.973   2.888   1.163
 6609TIP3    H119770   0.951   2.873   1.255
 6609TIP3    H219771   1.057   2.935   1.166
 6610TIP3   OH219772   6.603   2.635   4.770
 6610TIP3    H119773   6.553   2.555   4.783
 6610TIP3    H219774   6.537   2.703   4.759
 6611TIP3   OH219775   7.815   0.715   0.460
 6611TIP3    H119776   7.863   0.791   0.493
 6611TIP3    H219777   7.767   0.749   0.383
 6612TIP3   OH219778   7.352   3.465   3.788
 6612TIP3    H119779   7.292   3.402   3.828
 6612TIP3    H219780   7.332   3.462   3.695
 6613TIP3   OH219781   0.973   6.757   5.822
 6613TIP3    H119782   1.023   6.675   5.818
 6613TIP3    H219783   0.883   6.731   5.800
 6614TIP3   OH219784   6.620   6.455   2.906
 6614TIP3    H119785   6.640   6.425   2.818
 6614TIP3    H219786   6.525   6.460   2.910
 6615TIP3   OH219787   7.973   4.369   4.023
 6615TIP3    H119788   8.003   4.386   4.112
 6615TIP3    H219789   8.022   4.292   3.995
 6616TIP3   OH219790   4.575   6.996   0.609
 6616TIP3    H119791   4.604   7.081   0.575
 6616TIP3    H219792   4.540   7.016   0.696
 6617TIP3   OH219793   7.414   1.820   3.068
 6617TIP3    H119794   7.439   1.902   3.023
 6617TIP3    H219795   7.408   1.844   3.160
 6618TIP3   OH219796   6.563   0.367   4.442
 6618TIP3    H119797   6.629   0.298   4.443
 6618TIP3    H219798   6.493   0.332   4.386
 6619TIP3   OH219799   4.588   1.088   1.398
 6619TIP3    H119800   4.566   1.073   1.490
 6619TIP3    H219801   4.527   1.156   1.369
 6620TIP3   OH219802   0.340   6.006   3.834
 6620TIP3    H119803   0.314   6.027   3.923
 6620TIP3    H219804   0.402   6.074   3.810
 6621TIP3   OH219805   5.999   2.583   6.059
 6621TIP3    H119806   5.924   2.618   6.107
 6621TIP3    H219807   6.075   2.609   6.110
 6622TIP3   OH219808   4.443   6.984   1.714
 6622TIP3    H119809   4.472   6.972   1.804
 6622TIP3    H219810   4.347   6.983   1.719
 6623TIP3   OH219811   0.619   3.533   1.240
 6623TIP3    H119812   0.658   3.619   1.253
 6623TIP3    H219813   0.564   3.542   1.162
 6624TIP3   OH219814   7.525   1.273   6.181
 6624TIP3    H119815   7.549   1.245   6.093
 6624TIP3    H219816   7.440   1.232   6.197
 6625TIP3   OH219817   0.339   5.276   1.920
 6625TIP3    H119818   0.358   5.366   1.895
 6625TIP3    H219819   0.423   5.230   1.908
 6626TIP3   OH219820   1.992   1.344   4.244
 6626TIP3    H119821   1.898   1.356   4.230
 6626TIP3    H219822   2.029   1.339   4.155
 6627TIP3   OH219823   5.661   2.014   6.236
 6627TIP3    H119824   5.566   2.019   6.223
 6627TIP3    H219825   5.683   1.922   6.218
 6628TIP3   OH219826   3.340   6.830   4.198
 6628TIP3    H119827   3.312   6.810   4.108
 6628TIP3    H219828   3.329   6.748   4.245
 6629TIP3   OH219829   2.342   4.917   2.189
 6629TIP3    H119830   2.317   4.872   2.108
 6629TIP3    H219831   2.382   4.848   2.243
 6630TIP3   OH219832   1.785   4.505   1.449
 6630TIP3    H119833   1.705   4.461   1.475
 6630TIP3    H219834   1.850   4.479   1.514
 6631TIP3   OH219835   1.594   0.280   5.686
 6631TIP3    H119836   1.609   0.213   5.619
 6631TIP3    H219837   1.677   0.326   5.693
 6632TIP3   OH219838   0.222   5.606   2.473
 6632TIP3    H119839   0.246   5.685   2.521
 6632TIP3    H219840   0.194   5.545   2.541
 6633TIP3   OH219841   5.522   2.375   5.542
 6633TIP3    H119842   5.545   2.449   5.598
 6633TIP3    H219843   5.480   2.313   5.602
 6634TIP3   OH219844   4.672   7.254   6.612
 6634TIP3    H119845   4.727   7.176   6.617
 6634TIP3    H219846   4.636   7.253   6.523
 6635TIP3   OH219847   3.726   5.772   3.101
 6635TIP3    H119848   3.749   5.687   3.140
 6635TIP3    H219849   3.734   5.757   3.006
 6636TIP3   OH219850   1.341   1.724   2.577
 6636TIP3    H119851   1.326   1.814   2.547
 6636TIP3    H219852   1.435   1.710   2.562
 6637TIP3   OH219853   3.764   3.251   3.866
 6637TIP3    H119854   3.730   3.309   3.935
 6637TIP3    H219855   3.825   3.306   3.817
 6638TIP3   OH219856   2.713   5.341   3.159
 6638TIP3    H119857   2.807   5.358   3.154
 6638TIP3    H219858   2.682   5.401   3.227
 6639TIP3   OH219859   1.288   0.623   3.400
 6639TIP3    H119860   1.223   0.595   3.336
 6639TIP3    H219861   1.365   0.570   3.381
 6640TIP3   OH219862   6.140   1.568   2.738
 6640TIP3    H119863   6.066   1.561   2.798
 6640TIP3    H219864   6.185   1.484   2.745
 6641TIP3   OH219865   0.601   3.589   0.519
 6641TIP3    H119866   0.529   3.642   0.483
 6641TIP3    H219867   0.616   3.626   0.606
 6642TIP3   OH219868   4.165   3.790   5.193
 6642TIP3    H119869   4.160   3.796   5.097
 6642TIP3    H219870   4.254   3.759   5.210
 6643TIP3   OH219871   5.168   0.601   0.873
 6643TIP3    H119872   5.157   0.681   0.925
 6643TIP3    H219873   5.113   0.536   0.918
 6644TIP3   OH219874   6.667   6.681   5.559
 6644TIP3    H119875   6.655   6.586   5.560
 6644TIP3    H219876   6.736   6.696   5.494
 6645TIP3   OH219877   5.265   4.356   3.302
 6645TIP3    H119878   5.194   4.310   3.347
 6645TIP3    H219879   5.223   4.402   3.230
 6646TIP3   OH219880   6.895   0.905   0.928
 6646TIP3    H119881   6.959   0.963   0.886
 6646TIP3    H219882   6.841   0.963   0.981
 6647TIP3   OH219883   1.749   5.470   6.629
 6647TIP3    H119884   1.736   5.565   6.630
 6647TIP3    H219885   1.662   5.434   6.610
 6648TIP3   OH219886   6.505   3.968   2.650
 6648TIP3    H119887   6.469   3.931   2.730
 6648TIP3    H219888   6.441   3.943   2.582
 6649TIP3   OH219889   7.208   6.545   1.205
 6649TIP3    H119890   7.136   6.586   1.254
 6649TIP3    H219891   7.164   6.499   1.133
 6650TIP3   OH219892   3.241   2.269   5.788
 6650TIP3    H119893   3.266   2.318   5.867
 6650TIP3    H219894   3.161   2.223   5.813
 6651TIP3   OH219895   1.526   2.148   5.482
 6651TIP3    H119896   1.442   2.190   5.462
 6651TIP3    H219897   1.566   2.133   5.396
 6652TIP3   OH219898   2.690   6.914   2.420
 6652TIP3    H119899   2.631   6.847   2.386
 6652TIP3    H219900   2.667   6.922   2.512
 6653TIP3   OH219901   6.707   2.334   4.120
 6653TIP3    H119902   6.682   2.424   4.141
 6653TIP3    H219903   6.624   2.289   4.103
 6654TIP3   OH219904   3.247   5.743   3.148
 6654TIP3    H119905   3.306   5.768   3.077
 6654TIP3    H219906   3.305   5.717   3.219
 6655TIP3   OH219907   1.043   1.308   1.606
 6655TIP3    H119908   1.125   1.357   1.601
 6655TIP3    H219909   1.012   1.303   1.515
 6656TIP3   OH219910   6.157   1.437   3.878
 6656TIP3    H119911   6.091   1.506   3.885
 6656TIP3    H219912   6.153   1.409   3.787
 6657TIP3   OH219913   7.017   0.075   5.197
 6657TIP3    H119914   7.053   0.149   5.148
 6657TIP3    H219915   7.082   0.057   5.265
 6658TIP3   OH219916   3.664   5.683   6.075
 6658TIP3    H119917   3.712   5.663   5.995
 6658TIP3    H219918   3.573   5.665   6.053
 6659TIP3   OH219919  -0.004   7.396   6.390
 6659TIP3    H119920   0.028   7.424   6.305
 6659TIP3    H219921   0.026   7.463   6.451
 6660TIP3   OH219922  -0.029   0.800   1.176
 6660TIP3    H119923   0.056   0.769   1.144
 6660TIP3    H219924  -0.016   0.893   1.193
 6661TIP3   OH219925   5.050   1.222   5.844
 6661TIP3    H119926   5.130   1.173   5.865
 6661TIP3    H219927   5.081   1.302   5.802
 6662TIP3   OH219928   2.663   3.680   2.687
 6662TIP3    H119929   2.579   3.660   2.727
 6662TIP3    H219930   2.644   3.751   2.625
 6663TIP3   OH219931   3.492   3.240   5.199
 6663TIP3    H119932   3.492   3.166   5.259
 6663TIP3    H219933   3.503   3.317   5.256
 6664TIP3   OH219934   2.326   6.440   2.185
 6664TIP3    H119935   2.279   6.517   2.215
 6664TIP3    H219936   2.400   6.432   2.245
 6665TIP3   OH219937   1.818   7.777   4.597
 6665TIP3    H119938   1.764   7.698   4.586
 6665TIP3    H219939   1.902   7.753   4.558
 6666TIP3   OH219940   4.342   7.847   3.487
 6666TIP3    H119941   4.364   7.888   3.570
 6666TIP3    H219942   4.335   7.754   3.506
 6667TIP3   OH219943   4.310   3.477   0.302
 6667TIP3    H119944   4.401   3.482   0.333
 6667TIP3    H219945   4.316   3.496   0.208
 6668TIP3   OH219946   2.226   7.000   1.747
 6668TIP3    H119947   2.235   6.993   1.842
 6668TIP3    H219948   2.310   6.971   1.713
 6669TIP3   OH219949   4.954   3.186   5.980
 6669TIP3    H119950   4.913   3.186   6.066
 6669TIP3    H219951   4.905   3.120   5.930
 6670TIP3   OH219952   6.959   0.028   1.778
 6670TIP3    H119953   7.011  -0.037   1.825
 6670TIP3    H219954   7.022   0.071   1.719
 6671TIP3   OH219955   7.396   5.740   1.667
 6671TIP3    H119956   7.358   5.653   1.654
 6671TIP3    H219957   7.346   5.796   1.607
 6672TIP3   OH219958   6.702   7.226   3.242
 6672TIP3    H119959   6.655   7.143   3.240
 6672TIP3    H219960   6.761   7.222   3.167
 6673TIP3   OH219961   8.220   2.014   3.752
 6673TIP3    H119962   8.229   1.918   3.755
 6673TIP3    H219963   8.177   2.037   3.834
 6674TIP3   OH219964   4.684   5.474   4.561
 6674TIP3    H119965   4.777   5.449   4.561
 6674TIP3    H219966   4.679   5.544   4.626
 6675TIP3   OH219967   2.031   7.544   5.947
 6675TIP3    H119968   1.981   7.559   6.027
 6675TIP3    H219969   2.114   7.507   5.977
 6676TIP3   OH219970   0.211   2.375   6.274
 6676TIP3    H119971   0.170   2.414   6.352
 6676TIP3    H219972   0.259   2.446   6.234
 6677TIP3   OH219973   4.900   6.602   4.080
 6677TIP3    H119974   4.875   6.558   4.161
 6677TIP3    H219975   4.970   6.662   4.106
 6678TIP3   OH219976   1.688   4.951   5.669
 6678TIP3    H119977   1.684   4.898   5.749
 6678TIP3    H219978   1.597   4.955   5.638
 6679TIP3   OH219979   3.305   0.692   4.153
 6679TIP3    H119980   3.387   0.671   4.197
 6679TIP3    H219981   3.314   0.653   4.066
 6680TIP3   OH219982   5.864   6.512   6.374
 6680TIP3    H119983   5.845   6.596   6.416
 6680TIP3    H219984   5.844   6.527   6.281
 6681TIP3   OH219985   4.945   1.868   4.338
 6681TIP3    H119986   4.947   1.933   4.268
 6681TIP3    H219987   4.987   1.912   4.413
 6682TIP3   OH219988   2.177   1.068   0.833
 6682TIP3    H119989   2.100   1.011   0.830
 6682TIP3    H219990   2.245   1.020   0.786
 6683TIP3   OH219991  -0.017   4.638   5.660
 6683TIP3    H119992   0.064   4.616   5.705
 6683TIP3    H219993  -0.011   4.731   5.642
 6684TIP3   OH219994   6.723   4.004   3.058
 6684TIP3    H119995   6.641   3.967   3.025
 6684TIP3    H219996   6.711   4.004   3.153
 6685TIP3   OH219997   3.095   6.588   5.647
 6685TIP3    H119998   3.113   6.540   5.728
 6685TIP3    H219999   3.023   6.541   5.606
 6686TIP3   OH220000   6.737   4.040   3.333
 6686TIP3    H120001   6.799   4.084   3.391
 6686TIP3    H220002   6.716   3.958   3.379
 6687TIP3   OH220003   4.453   6.176   5.518
 6687TIP3    H120004   4.373   6.129   5.496
 6687TIP3    H220005   4.517   6.108   5.538
 6688TIP3   OH220006   0.178   7.135   3.066
 6688TIP3    H120007   0.232   7.212   3.085
 6688TIP3    H220008   0.224   7.090   2.995
 6689TIP3   OH220009   2.777   6.387   0.052
 6689TIP3    H120010   2.820   6.317   0.100
 6689TIP3    H220011   2.688   6.355   0.039
 6690TIP3   OH220012   0.689   5.782   4.955
 6690TIP3    H120013   0.658   5.696   4.982
 6690TIP3    H220014   0.772   5.794   5.001
 6691TIP3   OH220015   0.689   5.552   1.987
 6691TIP3    H120016   0.658   5.522   2.073
 6691TIP3    H220017   0.609   5.565   1.936
 6692TIP3   OH220018   4.037   0.063   6.003
 6692TIP3    H120019   4.029   0.005   6.079
 6692TIP3    H220020   4.070   0.145   6.038
 6693TIP3   OH220021   7.821   6.919   4.097
 6693TIP3    H120022   7.868   6.996   4.129
 6693TIP3    H220023   7.814   6.934   4.002
 6694TIP3   OH220024   4.462   5.855   5.035
 6694TIP3    H120025   4.381   5.900   5.009
 6694TIP3    H220026   4.496   5.908   5.108
 6695TIP3   OH220027   7.699   2.943   4.230
 6695TIP3    H120028   7.780   2.951   4.180
 6695TIP3    H220029   7.655   2.867   4.193
 6696TIP3   OH220030   6.197   1.019   6.205
 6696TIP3    H120031   6.165   1.089   6.147
 6696TIP3    H220032   6.203   0.943   6.148
 6697TIP3   OH220033   2.012   2.544   4.497
 6697TIP3    H120034   1.918   2.542   4.517
 6697TIP3    H220035   2.045   2.618   4.548
 6698TIP3   OH220036   2.880   2.722   2.141
 6698TIP3    H120037   2.956   2.743   2.195
 6698TIP3    H220038   2.914   2.662   2.075
 6699TIP3   OH220039   0.580   3.442   0.207
 6699TIP3    H120040   0.613   3.439   0.297
 6699TIP3    H220041   0.549   3.532   0.196
 6700TIP3   OH220042   0.909   5.307   5.712
 6700TIP3    H120043   0.970   5.291   5.640
 6700TIP3    H220044   0.955   5.369   5.769
 6701TIP3   OH220045   2.328   4.827   6.351
 6701TIP3    H120046   2.396   4.760   6.337
 6701TIP3    H220047   2.254   4.779   6.387
 6702TIP3   OH220048   7.621   6.912   2.612
 6702TIP3    H120049   7.565   6.988   2.597
 6702TIP3    H220050   7.635   6.875   2.524
 6703TIP3   OH220051   1.654   3.850   5.798
 6703TIP3    H120052   1.626   3.771   5.845
 6703TIP3    H220053   1.608   3.922   5.843
 6704TIP3   OH220054   3.129   4.091   2.114
 6704TIP3    H120055   3.057   4.129   2.065
 6704TIP3    H220056   3.131   4.142   2.196
 6705TIP3   OH220057   1.523   4.188   4.575
 6705TIP3    H120058   1.431   4.168   4.559
 6705TIP3    H220059   1.567   4.166   4.492
 6706TIP3   OH220060   1.078   6.525   1.106
 6706TIP3    H120061   1.148   6.587   1.126
 6706TIP3    H220062   1.002   6.557   1.155
 6707TIP3   OH220063   4.743   1.816   2.919
 6707TIP3    H120064   4.685   1.785   2.989
 6707TIP3    H220065   4.703   1.898   2.889
 6708TIP3   OH220066   3.336   2.842   3.854
 6708TIP3    H120067   3.360   2.794   3.933
 6708TIP3    H220068   3.345   2.934   3.877
 6709TIP3   OH220069   2.178   5.949   4.549
 6709TIP3    H120070   2.155   6.016   4.485
 6709TIP3    H220071   2.174   5.866   4.500
 6710TIP3   OH220072   2.612   0.169   6.544
 6710TIP3    H120073   2.694   0.209   6.514
 6710TIP3    H220074   2.637   0.080   6.570
 6711TIP3   OH220075   4.123   3.538   3.082
 6711TIP3    H120076   4.186   3.516   3.014
 6711TIP3    H220077   4.095   3.454   3.118
 6712TIP3   OH220078   0.096   7.183   1.422
 6712TIP3    H120079   0.119   7.164   1.513
 6712TIP3    H220080   0.132   7.110   1.371
 6713TIP3   OH220081   5.814   2.651   3.045
 6713TIP3    H120082   5.893   2.703   3.041
 6713TIP3    H220083   5.782   2.660   3.135
 6714TIP3   OH220084   2.366   1.703   5.681
 6714TIP3    H120085   2.337   1.750   5.602
 6714TIP3    H220086   2.331   1.755   5.753
 6715TIP3   OH220087   5.258   7.061   1.411
 6715TIP3    H120088   5.310   7.138   1.432
 6715TIP3    H220089   5.184   7.065   1.473
 6716TIP3   OH220090   0.121   3.576   4.497
 6716TIP3    H120091   0.107   3.563   4.591
 6716TIP3    H220092   0.215   3.564   4.485
 6717TIP3   OH220093   6.823   4.867   6.315
 6717TIP3    H120094   6.840   4.957   6.343
 6717TIP3    H220095   6.909   4.833   6.290
 6718TIP3   OH220096   6.741   5.888   4.757
 6718TIP3    H120097   6.684   5.956   4.721
 6718TIP3    H220098   6.752   5.826   4.685
 6719TIP3   OH220099   4.988   1.779   5.659
 6719TIP3    H120100   4.954   1.691   5.646
 6719TIP3    H220101   4.937   1.814   5.732
 6720TIP3   OH220102   8.197   5.855   0.183
 6720TIP3    H120103   8.169   5.807   0.261
 6720TIP3    H220104   8.181   5.947   0.205
 6721TIP3   OH220105   2.624   5.252   2.401
 6721TIP3    H120106   2.534   5.226   2.417
 6721TIP3    H220107   2.624   5.347   2.409
 6722TIP3   OH220108   7.433   1.549   0.241
 6722TIP3    H120109   7.369   1.492   0.199
 6722TIP3    H220110   7.518   1.520   0.206
 6723TIP3   OH220111   2.329   6.045   0.312
 6723TIP3    H120112   2.286   6.033   0.396
 6723TIP3    H220113   2.398   6.109   0.329
 6724TIP3   OH220114   3.418   4.683   3.642
 6724TIP3    H120115   3.381   4.729   3.567
 6724TIP3    H220116   3.495   4.735   3.666
 6725TIP3   OH220117   6.813   1.018   2.689
 6725TIP3    H120118   6.855   0.933   2.675
 6725TIP3    H220119   6.857   1.077   2.627
 6726TIP3   OH220120   6.305   4.776   1.051
 6726TIP3    H120121   6.240   4.708   1.030
 6726TIP3    H220122   6.382   4.727   1.078
 6727TIP3   OH220123   6.923   2.005   0.598
 6727TIP3    H120124   6.918   1.919   0.555
 6727TIP3    H220125   7.015   2.031   0.588
 6728TIP3   OH220126   6.758   5.953   5.652
 6728TIP3    H120127   6.798   5.873   5.617
 6728TIP3    H220128   6.722   5.998   5.576
 6729TIP3   OH220129   6.876   0.216   0.192
 6729TIP3    H120130   6.940   0.158   0.233
 6729TIP3    H220131   6.926   0.294   0.168
 6730TIP3   OH220132   7.116   1.407   4.295
 6730TIP3    H120133   7.074   1.436   4.214
 6730TIP3    H220134   7.101   1.312   4.298
 6731TIP3   OH220135   0.785   3.614   3.279
 6731TIP3    H120136   0.834   3.532   3.265
 6731TIP3    H220137   0.710   3.588   3.333
 6732TIP3   OH220138   7.171   1.412   1.583
 6732TIP3    H120139   7.216   1.332   1.554
 6732TIP3    H220140   7.130   1.447   1.504
 6733TIP3   OH220141   6.783   1.079   6.644
 6733TIP3    H120142   6.808   1.150   6.704
 6733TIP3    H220143   6.854   1.075   6.580
 6734TIP3   OH220144   5.798   7.088   6.597
 6734TIP3    H120145   5.862   7.158   6.604
 6734TIP3    H220146   5.827   7.022   6.660
 6735TIP3   OH220147   2.550   1.992   6.420
 6735TIP3    H120148   2.514   1.908   6.449
 6735TIP3    H220149   2.529   2.053   6.491
 6736TIP3   OH220150   6.822   2.189   1.880
 6736TIP3    H120151   6.754   2.125   1.857
 6736TIP3    H220152   6.819   2.254   1.810
 6737TIP3   OH220153   6.707   0.873   2.979
 6737TIP3    H120154   6.771   0.828   3.034
 6737TIP3    H220155   6.739   0.860   2.890
 6738TIP3   OH220156   5.495   1.126   4.379
 6738TIP3    H120157   5.564   1.064   4.402
 6738TIP3    H220158   5.424   1.071   4.347
 6739TIP3   OH220159   6.960   3.543   1.380
 6739TIP3    H120160   6.972   3.585   1.295
 6739TIP3    H220161   7.030   3.579   1.435
 6740TIP3   OH220162   5.621   0.416   2.666
 6740TIP3    H120163   5.628   0.416   2.571
 6740TIP3    H220164   5.710   0.431   2.697
 6741TIP3   OH220165   6.714   6.408   5.571
 6741TIP3    H120166   6.793   6.355   5.575
 6741TIP3    H220167   6.665   6.373   5.497
 6742TIP3   OH220168   1.286   2.701   2.331
 6742TIP3    H120169   1.372   2.661   2.323
 6742TIP3    H220170   1.246   2.690   2.244
 6743TIP3   OH220171   7.391   6.409   0.977
 6743TIP3    H120172   7.409   6.455   1.059
 6743TIP3    H220173   7.301   6.380   0.985
 6744TIP3   OH220174   4.244   3.277   1.256
 6744TIP3    H120175   4.235   3.323   1.172
 6744TIP3    H220176   4.228   3.185   1.234
 6745TIP3   OH220177   6.077   5.378   3.808
 6745TIP3    H120178   6.096   5.435   3.883
 6745TIP3    H220179   6.009   5.319   3.840
 6746TIP3   OH220180   7.376   7.700   3.881
 6746TIP3    H120181   7.388   7.644   3.959
 6746TIP3    H220182   7.380   7.639   3.808
 6747TIP3   OH220183   2.574   7.366   0.397
 6747TIP3    H120184   2.635   7.433   0.429
 6747TIP3    H220185   2.622   7.320   0.328
 6748TIP3   OH220186   7.230   0.876   0.526
 6748TIP3    H120187   7.278   0.916   0.454
 6748TIP3    H220188   7.179   0.948   0.565
 6749TIP3   OH220189   5.808   0.742   4.677
 6749TIP3    H120190   5.758   0.803   4.732
 6749TIP3    H220191   5.819   0.664   4.731
 6750TIP3   OH220192   1.152   2.244   2.913
 6750TIP3    H120193   1.114   2.194   2.985
 6750TIP3    H220194   1.085   2.311   2.893
 6751TIP3   OH220195   6.205   4.235   2.831
 6751TIP3    H120196   6.246   4.162   2.879
 6751TIP3    H220197   6.275   4.268   2.775
 6752TIP3   OH220198   3.875   5.642   0.810
 6752TIP3    H120199   3.922   5.699   0.870
 6752TIP3    H220200   3.942   5.608   0.751
 6753TIP3   OH220201   5.270   3.656   4.132
 6753TIP3    H120202   5.324   3.637   4.055
 6753TIP3    H220203   5.188   3.690   4.095
 6754TIP3   OH220204   5.685   3.797   1.815
 6754TIP3    H120205   5.633   3.860   1.865
 6754TIP3    H220206   5.680   3.716   1.868
 6755TIP3   OH220207   2.128   3.451   3.595
 6755TIP3    H120208   2.060   3.423   3.533
 6755TIP3    H220209   2.097   3.422   3.680
 6756TIP3   OH220210   3.474   2.817   2.159
 6756TIP3    H120211   3.434   2.903   2.167
 6756TIP3    H220212   3.530   2.810   2.237
 6757TIP3   OH220213   8.065   7.691   1.552
 6757TIP3    H120214   8.024   7.648   1.477
 6757TIP3    H220215   8.149   7.646   1.562
 6758TIP3   OH220216   5.398   0.741   4.657
 6758TIP3    H120217   5.470   0.804   4.667
 6758TIP3    H220218   5.358   0.735   4.743
 6759TIP3   OH220219   3.179   0.278   1.271
 6759TIP3    H120220   3.188   0.205   1.332
 6759TIP3    H220221   3.107   0.252   1.213
 6760TIP3   OH220222   3.381   2.472   3.427
 6760TIP3    H120223   3.378   2.381   3.456
 6760TIP3    H220224   3.464   2.505   3.460
 6761TIP3   OH220225   7.704   2.838   6.232
 6761TIP3    H120226   7.627   2.883   6.199
 6761TIP3    H220227   7.671   2.754   6.264
 6762TIP3   OH220228   6.939   6.202   3.680
 6762TIP3    H120229   7.019   6.218   3.729
 6762TIP3    H220230   6.941   6.107   3.663
 6763TIP3   OH220231   5.279   0.680   1.358
 6763TIP3    H120232   5.191   0.716   1.348
 6763TIP3    H220233   5.323   0.741   1.418
 6764TIP3   OH220234   3.162   3.038   2.832
 6764TIP3    H120235   3.118   3.119   2.855
 6764TIP3    H220236   3.251   3.049   2.864
 6765TIP3   OH220237   5.020   2.881   2.608
 6765TIP3    H120238   5.051   2.907   2.521
 6765TIP3    H220239   4.926   2.867   2.597
 6766TIP3   OH220240   3.989   6.942   4.380
 6766TIP3    H120241   3.991   6.877   4.310
 6766TIP3    H220242   3.939   6.900   4.450
 6767TIP3   OH220243   0.151   2.352   3.133
 6767TIP3    H120244   0.226   2.376   3.080
 6767TIP3    H220245   0.109   2.435   3.155
 6768TIP3   OH220246   2.009   1.476   5.367
 6768TIP3    H120247   2.027   1.416   5.440
 6768TIP3    H220248   1.979   1.419   5.296
 6769TIP3   OH220249   4.846   3.268   1.906
 6769TIP3    H120250   4.757   3.253   1.872
 6769TIP3    H220251   4.898   3.197   1.868
 6770TIP3   OH220252   1.249   2.117   1.497
 6770TIP3    H120253   1.255   2.210   1.518
 6770TIP3    H220254   1.246   2.073   1.582
 6771TIP3   OH220255   3.291   3.799   1.739
 6771TIP3    H120256   3.347   3.789   1.662
 6771TIP3    H220257   3.256   3.887   1.732
 6772TIP3   OH220258   7.458   7.177   1.061
 6772TIP3    H120259   7.442   7.140   1.148
 6772TIP3    H220260   7.437   7.270   1.070
 6773TIP3   OH220261   4.969   2.952   3.615
 6773TIP3    H120262   5.023   2.954   3.694
 6773TIP3    H220263   5.003   2.879   3.564
 6774TIP3   OH220264   2.183   6.711   0.731
 6774TIP3    H120265   2.150   6.703   0.821
 6774TIP3    H220266   2.232   6.629   0.717
 6775TIP3   OH220267   3.069   3.875   3.463
 6775TIP3    H120268   3.018   3.948   3.428
 6775TIP3    H220269   3.011   3.799   3.454
 6776TIP3   OH220270   5.818   5.970   1.735
 6776TIP3    H120271   5.802   5.884   1.774
 6776TIP3    H220272   5.794   5.960   1.643
 6777TIP3   OH220273   7.698   5.649   3.621
 6777TIP3    H120274   7.674   5.577   3.679
 6777TIP3    H220275   7.740   5.606   3.546
 6778TIP3   OH220276   3.981   3.678   2.875
 6778TIP3    H120277   3.929   3.607   2.839
 6778TIP3    H220278   4.041   3.636   2.936
 6779TIP3   OH220279   4.493   3.617   0.772
 6779TIP3    H120280   4.426   3.586   0.712
 6779TIP3    H220281   4.550   3.672   0.718
 6780TIP3   OH220282   0.571   0.765   5.534
 6780TIP3    H120283   0.644   0.750   5.593
 6780TIP3    H220284   0.610   0.811   5.459
 6781TIP3   OH220285   3.624   5.590   1.258
 6781TIP3    H120286   3.714   5.618   1.278
 6781TIP3    H220287   3.635   5.507   1.211
 6782TIP3   OH220288   0.984   4.111   0.435
 6782TIP3    H120289   1.049   4.126   0.504
 6782TIP3    H220290   1.026   4.143   0.355
 6783TIP3   OH220291   7.233   7.300   1.891
 6783TIP3    H120292   7.145   7.330   1.869
 6783TIP3    H220293   7.284   7.381   1.898
 6784TIP3   OH220294   2.651   0.541   5.949
 6784TIP3    H120295   2.587   0.576   6.012
 6784TIP3    H220296   2.646   0.446   5.960
 6785TIP3   OH220297   0.941   5.627   5.568
 6785TIP3    H120298   1.005   5.689   5.602
 6785TIP3    H220299   0.906   5.583   5.646
 6786TIP3   OH220300   4.386   4.582   5.633
 6786TIP3    H120301   4.342   4.559   5.715
 6786TIP3    H220302   4.325   4.639   5.588
 6787TIP3   OH220303   5.801   4.646   2.156
 6787TIP3    H120304   5.833   4.734   2.176
 6787TIP3    H220305   5.853   4.618   2.081
 6788TIP3   OH220306   1.192   1.196   1.348
 6788TIP3    H120307   1.193   1.287   1.317
 6788TIP3    H220308   1.277   1.185   1.391
 6789TIP3   OH220309   2.738   5.652   4.267
 6789TIP3    H120310   2.732   5.697   4.351
 6789TIP3    H220311   2.705   5.564   4.285
 6790TIP3   OH220312   6.233   6.514   2.396
 6790TIP3    H120313   6.206   6.481   2.311
 6790TIP3    H220314   6.279   6.596   2.377
 6791TIP3   OH220315   3.016   2.842   0.571
 6791TIP3    H120316   2.979   2.754   0.560
 6791TIP3    H220317   2.964   2.897   0.513
 6792TIP3   OH220318   0.124   7.834   0.890
 6792TIP3    H120319   0.124   7.837   0.794
 6792TIP3    H220320   0.182   7.760   0.911
 6793TIP3   OH220321   7.141   3.943   0.727
 6793TIP3    H120322   7.087   3.956   0.804
 6793TIP3    H220323   7.123   4.018   0.671
 6794TIP3   OH220324   6.775   0.037   3.055
 6794TIP3    H120325   6.686   0.064   3.031
 6794TIP3    H220326   6.769   0.014   3.148
 6795TIP3   OH220327   3.496   6.719   3.681
 6795TIP3    H120328   3.552   6.642   3.689
 6795TIP3    H220329   3.557   6.790   3.660
 6796TIP3   OH220330   5.120   0.544   1.643
 6796TIP3    H120331   5.047   0.606   1.644
 6796TIP3    H220332   5.198   0.599   1.638
 6797TIP3   OH220333   7.924   4.703   2.786
 6797TIP3    H120334   7.837   4.670   2.808
 6797TIP3    H220335   7.978   4.625   2.775
 6798TIP3   OH220336   4.747   1.685   0.514
 6798TIP3    H120337   4.771   1.774   0.543
 6798TIP3    H220338   4.741   1.692   0.419
 6799TIP3   OH220339   4.100   6.540   2.265
 6799TIP3    H120340   4.008   6.555   2.243
 6799TIP3    H220341   4.098   6.471   2.331
 6800TIP3   OH220342   2.866   0.126   2.363
 6800TIP3    H120343   2.892   0.217   2.367
 6800TIP3    H220344   2.781   0.123   2.408
 6801TIP3   OH220345   1.221   4.232   6.538
 6801TIP3    H120346   1.176   4.150   6.563
 6801TIP3    H220347   1.304   4.203   6.502
 6802TIP3   OH220348   7.052   2.812   5.490
 6802TIP3    H120349   7.044   2.859   5.407
 6802TIP3    H220350   7.072   2.722   5.464
 6803TIP3   OH220351   2.680   0.041   2.133
 6803TIP3    H120352   2.751   0.055   2.195
 6803TIP3    H220353   2.723   0.025   2.049
 6804TIP3   OH220354   2.833   6.062   4.601
 6804TIP3    H120355   2.846   6.092   4.691
 6804TIP3    H220356   2.834   6.142   4.548
 6805TIP3   OH220357   3.635   1.551   3.925
 6805TIP3    H120358   3.551   1.587   3.952
 6805TIP3    H220359   3.699   1.591   3.985
 6806TIP3   OH220360   7.698   1.283   0.200
 6806TIP3    H120361   7.770   1.230   0.167
 6806TIP3    H220362   7.720   1.372   0.176
 6807TIP3   OH220363   2.495   1.850   4.125
 6807TIP3    H120364   2.454   1.813   4.047
 6807TIP3    H220365   2.452   1.805   4.198
 6808TIP3   OH220366   5.824   5.500   3.661
 6808TIP3    H120367   5.852   5.476   3.749
 6808TIP3    H220368   5.812   5.595   3.665
 6809TIP3   OH220369   1.079   6.792   2.480
 6809TIP3    H120370   1.152   6.809   2.540
 6809TIP3    H220371   1.090   6.855   2.409
 6810TIP3   OH220372   6.694   4.677   4.105
 6810TIP3    H120373   6.768   4.669   4.166
 6810TIP3    H220374   6.719   4.747   4.046
 6811TIP3   OH220375   0.536   0.790   6.470
 6811TIP3    H120376   0.501   0.748   6.391
 6811TIP3    H220377   0.521   0.726   6.539
 6812TIP3   OH220378   5.447   2.803   6.665
 6812TIP3    H120379   5.459   2.882   6.613
 6812TIP3    H220380   5.524   2.799   6.721
 6813TIP3   OH220381   5.580   6.922   5.628
 6813TIP3    H120382   5.566   6.855   5.695
 6813TIP3    H220383   5.633   6.989   5.672
 6814TIP3   OH220384   7.968   0.290   1.601
 6814TIP3    H120385   8.010   0.347   1.537
 6814TIP3    H220386   7.896   0.342   1.636
 6815TIP3   OH220387   6.651   7.143   4.765
 6815TIP3    H120388   6.714   7.215   4.772
 6815TIP3    H220389   6.579   7.169   4.822
 6816TIP3   OH220390   3.558   7.096   6.029
 6816TIP3    H120391   3.541   7.076   6.121
 6816TIP3    H220392   3.527   7.018   5.982
 6817TIP3   OH220393   5.999   6.316   0.799
 6817TIP3    H120394   5.913   6.282   0.774
 6817TIP3    H220395   5.983   6.407   0.823
 6818TIP3   OH220396   7.402   0.824   6.152
 6818TIP3    H120397   7.475   0.775   6.113
 6818TIP3    H220398   7.324   0.783   6.113
 6819TIP3   OH220399   7.126   6.395   0.996
 6819TIP3    H120400   7.061   6.412   0.929
 6819TIP3    H220401   7.103   6.308   1.031
 6820TIP3   OH220402   1.105   1.385   2.427
 6820TIP3    H120403   1.094   1.331   2.506
 6820TIP3    H220404   1.192   1.424   2.437
 6821TIP3   OH220405   6.050   4.586   5.728
 6821TIP3    H120406   6.069   4.651   5.659
 6821TIP3    H220407   6.103   4.510   5.704
 6822TIP3   OH220408   3.565   1.791   5.396
 6822TIP3    H120409   3.650   1.751   5.414
 6822TIP3    H220410   3.520   1.727   5.341
 6823TIP3   OH220411   2.122   2.305   3.343
 6823TIP3    H120412   2.189   2.347   3.397
 6823TIP3    H220413   2.123   2.354   3.261
 6824TIP3   OH220414   1.766   6.663   5.679
 6824TIP3    H120415   1.762   6.716   5.600
 6824TIP3    H220416   1.735   6.721   5.749
 6825TIP3   OH220417   2.166   2.980   0.168
 6825TIP3    H120418   2.162   2.897   0.217
 6825TIP3    H220419   2.188   3.046   0.234
 6826TIP3   OH220420   0.829   1.067   6.151
 6826TIP3    H120421   0.871   1.135   6.203
 6826TIP3    H220422   0.765   1.114   6.097
 6827TIP3   OH220423   6.403   3.369   5.181
 6827TIP3    H120424   6.454   3.361   5.261
 6827TIP3    H220425   6.469   3.381   5.112
 6828TIP3   OH220426   2.180   2.810   0.516
 6828TIP3    H120427   2.159   2.792   0.424
 6828TIP3    H220428   2.101   2.787   0.564
 6829TIP3   OH220429   4.699   2.298   6.723
 6829TIP3    H120430   4.760   2.351   6.672
 6829TIP3    H220431   4.750   2.271   6.800
 6830TIP3   OH220432   4.358   4.363   6.388
 6830TIP3    H120433   4.333   4.291   6.331
 6830TIP3    H220434   4.283   4.422   6.387
 6831TIP3   OH220435   6.070   7.736   6.513
 6831TIP3    H120436   6.041   7.809   6.567
 6831TIP3    H220437   6.164   7.750   6.502
 6832TIP3   OH220438   3.986   2.692   2.945
 6832TIP3    H120439   4.008   2.641   2.866
 6832TIP3    H220440   4.032   2.647   3.016
 6833TIP3   OH220441   6.481   4.760   0.679
 6833TIP3    H120442   6.471   4.827   0.612
 6833TIP3    H220443   6.402   4.706   0.671
 6834TIP3   OH220444   7.304   7.540   3.667
 6834TIP3    H120445   7.238   7.494   3.615
 6834TIP3    H220446   7.384   7.532   3.617
 6835TIP3   OH220447   0.785   1.413   0.669
 6835TIP3    H120448   0.703   1.384   0.710
 6835TIP3    H220449   0.797   1.355   0.594
 6836TIP3   OH220450   1.299   4.112   2.549
 6836TIP3    H120451   1.229   4.097   2.612
 6836TIP3    H220452   1.375   4.134   2.602
 6837TIP3   OH220453   0.283   1.992   5.872
 6837TIP3    H120454   0.189   2.003   5.860
 6837TIP3    H220455   0.316   1.966   5.786
 6838TIP3   OH220456   4.928   1.349   3.290
 6838TIP3    H120457   4.946   1.398   3.371
 6838TIP3    H220458   4.842   1.310   3.305
 6839TIP3   OH220459   5.026   3.273   2.128
 6839TIP3    H120460   4.957   3.264   2.062
 6839TIP3    H220461   4.987   3.325   2.198
 6840TIP3   OH220462   5.577   3.984   1.191
 6840TIP3    H120463   5.551   4.039   1.265
 6840TIP3    H220464   5.536   3.899   1.208
 6841TIP3   OH220465   8.105   7.194   6.288
 6841TIP3    H120466   8.174   7.245   6.331
 6841TIP3    H220467   8.029   7.203   6.345
 6842TIP3   OH220468   1.172   6.172   1.846
 6842TIP3    H120469   1.184   6.236   1.777
 6842TIP3    H220470   1.258   6.163   1.887
 6843TIP3   OH220471   0.463   5.889   1.346
 6843TIP3    H120472   0.506   5.972   1.366
 6843TIP3    H220473   0.480   5.875   1.253
 6844TIP3   OH220474   7.812   2.324   2.258
 6844TIP3    H120475   7.817   2.312   2.352
 6844TIP3    H220476   7.726   2.364   2.244
 6845TIP3   OH220477   2.956   1.040   2.100
 6845TIP3    H120478   2.994   1.083   2.024
 6845TIP3    H220479   2.927   1.112   2.156
 6846TIP3   OH220480   4.066   3.166   0.805
 6846TIP3    H120481   4.078   3.226   0.731
 6846TIP3    H220482   3.999   3.105   0.776
 6847TIP3   OH220483   2.986   1.503   5.063
 6847TIP3    H120484   2.935   1.580   5.038
 6847TIP3    H220485   2.979   1.500   5.159
 6848TIP3   OH220486   3.061   4.315   1.826
 6848TIP3    H120487   3.038   4.393   1.776
 6848TIP3    H220488   2.998   4.313   1.898
 6849TIP3   OH220489   3.092   4.317   6.364
 6849TIP3    H120490   3.091   4.238   6.418
 6849TIP3    H220491   3.128   4.288   6.280
 6850TIP3   OH220492   6.859   5.796   0.953
 6850TIP3    H120493   6.796   5.724   0.945
 6850TIP3    H220494   6.935   5.757   0.996
 6851TIP3   OH220495   3.940   4.218   6.719
 6851TIP3    H120496   3.931   4.134   6.764
 6851TIP3    H220497   3.995   4.199   6.643
 6852TIP3   OH220498   3.505   1.170   6.065
 6852TIP3    H120499   3.516   1.118   5.986
 6852TIP3    H220500   3.460   1.249   6.036
 6853TIP3   OH220501   0.966   6.275   2.010
 6853TIP3    H120502   0.956   6.360   1.968
 6853TIP3    H220503   1.027   6.227   1.954
 6854TIP3   OH220504   4.444   2.983   3.024
 6854TIP3    H120505   4.520   3.013   3.075
 6854TIP3    H220506   4.384   2.946   3.089
 6855TIP3   OH220507   4.233   0.647   2.730
 6855TIP3    H120508   4.298   0.718   2.722
 6855TIP3    H220509   4.150   0.689   2.709
 6856TIP3   OH220510   0.145   5.035   6.197
 6856TIP3    H120511   0.216   5.083   6.154
 6856TIP3    H220512   0.106   4.982   6.128
 6857TIP3   OH220513   1.192   3.488   0.728
 6857TIP3    H120514   1.135   3.470   0.653
 6857TIP3    H220515   1.187   3.409   0.782
 6858TIP3   OH220516   2.160   1.246   3.996
 6858TIP3    H120517   2.095   1.214   3.933
 6858TIP3    H220518   2.244   1.219   3.960
 6859TIP3   OH220519   3.793   3.165   3.049
 6859TIP3    H120520   3.813   3.173   2.956
 6859TIP3    H220521   3.708   3.207   3.060
 6860TIP3   OH220522   1.904   6.866   0.363
 6860TIP3    H120523   2.000   6.871   0.366
 6860TIP3    H220524   1.883   6.786   0.411
 6861TIP3   OH220525   7.353   7.652   6.396
 6861TIP3    H120526   7.367   7.705   6.317
 6861TIP3    H220527   7.362   7.714   6.468
 6862TIP3   OH220528   5.820   2.691   6.240
 6862TIP3    H120529   5.816   2.785   6.220
 6862TIP3    H220530   5.729   2.665   6.250
 6863TIP3   OH220531   0.497   3.116   1.311
 6863TIP3    H120532   0.471   3.104   1.220
 6863TIP3    H220533   0.593   3.115   1.309
 6864TIP3   OH220534   5.635   6.368   4.123
 6864TIP3    H120535   5.569   6.354   4.055
 6864TIP3    H220536   5.633   6.462   4.139
 6865TIP3   OH220537   6.177   7.698   3.404
 6865TIP3    H120538   6.183   7.761   3.476
 6865TIP3    H220539   6.122   7.628   3.438
 6866TIP3   OH220540   3.461   3.135   6.225
 6866TIP3    H120541   3.468   3.053   6.273
 6866TIP3    H220542   3.536   3.187   6.252
 6867TIP3   OH220543   6.896   3.238   1.975
 6867TIP3    H120544   6.829   3.281   2.029
 6867TIP3    H220545   6.876   3.265   1.885
 6868TIP3   OH220546   4.135   3.676   6.119
 6868TIP3    H120547   4.145   3.770   6.135
 6868TIP3    H220548   4.162   3.635   6.202
 6869TIP3   OH220549   1.993   2.181   2.446
 6869TIP3    H120550   1.946   2.231   2.513
 6869TIP3    H220551   2.042   2.247   2.397
 6870TIP3   OH220552   5.285   0.294   4.528
 6870TIP3    H120553   5.207   0.295   4.583
 6870TIP3    H220554   5.348   0.348   4.576
 6871TIP3   OH220555   5.942   2.796   5.826
 6871TIP3    H120556   6.023   2.844   5.811
 6871TIP3    H220557   5.969   2.717   5.873
 6872TIP3   OH220558   1.546   5.063   0.562
 6872TIP3    H120559   1.562   5.029   0.474
 6872TIP3    H220560   1.620   5.123   0.578
 6873TIP3   OH220561   3.421   1.866   0.751
 6873TIP3    H120562   3.496   1.926   0.742
 6873TIP3    H220563   3.424   1.838   0.843
 6874TIP3   OH220564   2.868   0.132   6.749
 6874TIP3    H120565   2.955   0.171   6.759
 6874TIP3    H220566   2.844   0.149   6.658
 6875TIP3   OH220567   5.457   0.349   2.214
 6875TIP3    H120568   5.387   0.351   2.149
 6875TIP3    H220569   5.475   0.255   2.225
 6876TIP3   OH220570   7.858   4.800   0.240
 6876TIP3    H120571   7.846   4.826   0.149
 6876TIP3    H220572   7.947   4.829   0.262
 6877TIP3   OH220573   5.069   3.425   2.394
 6877TIP3    H120574   5.132   3.483   2.436
 6877TIP3    H220575   4.988   3.477   2.390
 6878TIP3   OH220576   5.354   7.540   5.101
 6878TIP3    H120577   5.296   7.483   5.050
 6878TIP3    H220578   5.442   7.507   5.081
 6879TIP3   OH220579   3.358   5.320   1.279
 6879TIP3    H120580   3.313   5.311   1.195
 6879TIP3    H220581   3.444   5.356   1.256
 6880TIP3   OH220582   3.239   5.114   4.389
 6880TIP3    H120583   3.205   5.131   4.476
 6880TIP3    H220584   3.170   5.064   4.345
 6881TIP3   OH220585   1.241   1.995   4.644
 6881TIP3    H120586   1.320   2.046   4.628
 6881TIP3    H220587   1.171   2.044   4.600
 6882TIP3   OH220588   3.433   2.384   2.627
 6882TIP3    H120589   3.358   2.369   2.683
 6882TIP3    H220590   3.504   2.408   2.687
 6883TIP3   OH220591   2.263   0.174   0.141
 6883TIP3    H120592   2.312   0.104   0.184
 6883TIP3    H220593   2.228   0.135   0.061
 6884TIP3   OH220594   4.959   0.652   6.204
 6884TIP3    H120595   4.909   0.629   6.282
 6884TIP3    H220596   4.924   0.595   6.135
 6885TIP3   OH220597   7.893   1.582   5.666
 6885TIP3    H120598   7.869   1.651   5.728
 6885TIP3    H220599   7.940   1.518   5.719
 6886TIP3   OH220600   7.126   2.484   4.895
 6886TIP3    H120601   7.148   2.571   4.862
 6886TIP3    H220602   7.138   2.426   4.820
 6887TIP3   OH220603   4.613   5.465   6.521
 6887TIP3    H120604   4.606   5.408   6.597
 6887TIP3    H220605   4.686   5.428   6.470
 6888TIP3   OH220606   5.216   6.054   0.961
 6888TIP3    H120607   5.178   6.120   1.019
 6888TIP3    H220608   5.176   5.972   0.989
 6889TIP3   OH220609   3.922   3.955   3.547
 6889TIP3    H120610   3.894   3.877   3.501
 6889TIP3    H220611   4.010   3.972   3.515
 6890TIP3   OH220612   5.552   5.981   2.341
 6890TIP3    H120613   5.505   6.054   2.301
 6890TIP3    H220614   5.494   5.906   2.329
 6891TIP3   OH220615   1.185   5.845   5.125
 6891TIP3    H120616   1.224   5.870   5.041
 6891TIP3    H220617   1.248   5.785   5.163
 6892TIP3   OH220618   7.268   1.905   3.809
 6892TIP3    H120619   7.212   1.919   3.885
 6892TIP3    H220620   7.355   1.891   3.846
 6893TIP3   OH220621   0.150   4.414   3.090
 6893TIP3    H120622   0.161   4.502   3.055
 6893TIP3    H220623   0.081   4.422   3.155
 6894TIP3   OH220624   5.258   7.736   3.208
 6894TIP3    H120625   5.249   7.797   3.135
 6894TIP3    H220626   5.174   7.740   3.254
 6895TIP3   OH220627   3.228   2.689   3.367
 6895TIP3    H120628   3.276   2.609   3.386
 6895TIP3    H220629   3.158   2.662   3.308
 6896TIP3   OH220630   1.103   7.417   6.707
 6896TIP3    H120631   1.094   7.504   6.746
 6896TIP3    H220632   1.189   7.387   6.735
 6897TIP3   OH220633   6.083   7.009   0.243
 6897TIP3    H120634   5.990   7.012   0.219
 6897TIP3    H220635   6.125   7.069   0.181
 6898TIP3   OH220636   6.790   2.792   5.553
 6898TIP3    H120637   6.883   2.814   5.550
 6898TIP3    H220638   6.766   2.779   5.461
 6899TIP3   OH220639   7.065   0.691   2.024
 6899TIP3    H120640   7.024   0.722   2.105
 6899TIP3    H220641   7.046   0.598   2.021
 6900TIP3   OH220642   4.447   1.537   6.592
 6900TIP3    H120643   4.385   1.484   6.541
 6900TIP3    H220644   4.413   1.626   6.585
 6901TIP3   OH220645   4.935   6.269   0.543
 6901TIP3    H120646   4.900   6.183   0.523
 6901TIP3    H220647   4.881   6.302   0.614
 6902TIP3   OH220648   0.456   5.128   2.770
 6902TIP3    H120649   0.464   5.043   2.729
 6902TIP3    H220650   0.374   5.164   2.736
 6903TIP3   OH220651   2.220   5.780   2.527
 6903TIP3    H120652   2.134   5.814   2.550
 6903TIP3    H220653   2.281   5.829   2.581
 6904TIP3   OH220654   0.308   5.568   0.342
 6904TIP3    H120655   0.357   5.590   0.421
 6904TIP3    H220656   0.355   5.494   0.304
 6905TIP3   OH220657   5.074   3.324   0.951
 6905TIP3    H120658   5.100   3.314   1.042
 6905TIP3    H220659   5.055   3.418   0.942
 6906TIP3   OH220660   0.814   0.224   2.922
 6906TIP3    H120661   0.888   0.206   2.980
 6906TIP3    H220662   0.833   0.175   2.842
 6907TIP3   OH220663   7.039   2.908   0.771
 6907TIP3    H120664   7.003   2.838   0.825
 6907TIP3    H220665   7.132   2.910   0.791
 6908TIP3   OH220666   8.136   5.325   0.834
 6908TIP3    H120667   8.194   5.380   0.886
 6908TIP3    H220668   8.166   5.235   0.850
 6909TIP3   OH220669   8.085   4.617   1.337
 6909TIP3    H120670   8.058   4.640   1.426
 6909TIP3    H220671   8.089   4.700   1.290
 6910TIP3   OH220672   5.535   5.547   2.682
 6910TIP3    H120673   5.454   5.530   2.635
 6910TIP3    H220674   5.521   5.510   2.769
 6911TIP3   OH220675   7.491   2.707   1.015
 6911TIP3    H120676   7.530   2.784   1.055
 6911TIP3    H220677   7.484   2.729   0.922
 6912TIP3   OH220678   3.672   3.315   3.340
 6912TIP3    H120679   3.589   3.270   3.358
 6912TIP3    H220680   3.652   3.374   3.268
 6913TIP3   OH220681   4.181   1.860   0.078
 6913TIP3    H120682   4.102   1.851   0.131
 6913TIP3    H220683   4.184   1.952   0.053
 6914TIP3   OH220684   5.015   4.078   0.034
 6914TIP3    H120685   5.005   4.173   0.044
 6914TIP3    H220686   4.953   4.041   0.097
 6915TIP3   OH220687   4.487   6.370   3.615
 6915TIP3    H120688   4.467   6.358   3.708
 6915TIP3    H220689   4.556   6.436   3.614
 6916TIP3   OH220690   6.166   3.324   1.968
 6916TIP3    H120691   6.141   3.392   2.030
 6916TIP3    H220692   6.241   3.362   1.921
 6917TIP3   OH220693   7.223   3.479   3.512
 6917TIP3    H120694   7.171   3.539   3.458
 6917TIP3    H220695   7.168   3.402   3.521
 6918TIP3   OH220696   2.728   1.881   5.139
 6918TIP3    H120697   2.796   1.824   5.102
 6918TIP3    H220698   2.648   1.828   5.134
 6919TIP3   OH220699   5.987   4.288   5.905
 6919TIP3    H120700   5.983   4.370   5.855
 6919TIP3    H220701   5.941   4.307   5.987
 6920TIP3   OH220702   0.559   7.059   0.678
 6920TIP3    H120703   0.631   7.108   0.718
 6920TIP3    H220704   0.527   7.117   0.609
 6921TIP3   OH220705   1.395   3.375   2.464
 6921TIP3    H120706   1.302   3.355   2.465
 6921TIP3    H220707   1.430   3.332   2.543
 6922TIP3   OH220708   2.350   0.312   3.611
 6922TIP3    H120709   2.373   0.239   3.553
 6922TIP3    H220710   2.254   0.314   3.610
 6923TIP3   OH220711   2.074   3.519   2.537
 6923TIP3    H120712   2.146   3.459   2.522
 6923TIP3    H220713   2.057   3.559   2.451
 6924TIP3   OH220714   0.925   0.593   2.332
 6924TIP3    H120715   1.008   0.592   2.379
 6924TIP3    H220716   0.871   0.530   2.380
 6925TIP3   OH220717   0.543   4.905   3.024
 6925TIP3    H120718   0.472   4.894   2.961
 6925TIP3    H220719   0.591   4.822   3.021
 6926TIP3   OH220720   2.500   7.172   2.453
 6926TIP3    H120721   2.590   7.181   2.422
 6926TIP3    H220722   2.494   7.233   2.526
 6927TIP3   OH220723   4.636   6.572   6.535
 6927TIP3    H120724   4.637   6.632   6.460
 6927TIP3    H220725   4.560   6.599   6.586
 6928TIP3   OH220726   5.584   1.498   3.307
 6928TIP3    H120727   5.646   1.425   3.305
 6928TIP3    H220728   5.525   1.477   3.379
 6929TIP3   OH220729   4.213   2.793   2.742
 6929TIP3    H120730   4.199   2.846   2.820
 6929TIP3    H220731   4.177   2.845   2.671
 6930TIP3   OH220732   3.773   2.452   5.832
 6930TIP3    H120733   3.752   2.400   5.909
 6930TIP3    H220734   3.835   2.518   5.863
 6931TIP3   OH220735   0.316   5.596   4.368
 6931TIP3    H120736   0.247   5.538   4.335
 6931TIP3    H220737   0.360   5.628   4.289
 6932TIP3   OH220738   2.560   6.670   1.876
 6932TIP3    H120739   2.581   6.762   1.891
 6932TIP3    H220740   2.538   6.665   1.783
 6933TIP3   OH220741   7.506   0.367   4.807
 6933TIP3    H120742   7.482   0.384   4.716
 6933TIP3    H220743   7.455   0.430   4.857
 6934TIP3   OH220744   5.003   0.775   0.275
 6934TIP3    H120745   4.954   0.832   0.215
 6934TIP3    H220746   4.965   0.792   0.361
 6935TIP3   OH220747   3.865   6.258   2.469
 6935TIP3    H120748   3.825   6.339   2.501
 6935TIP3    H220749   3.869   6.269   2.374
 6936TIP3   OH220750   4.659   6.579   3.922
 6936TIP3    H120751   4.729   6.578   3.987
 6936TIP3    H220752   4.622   6.491   3.925
 6937TIP3   OH220753   5.325   6.658   0.727
 6937TIP3    H120754   5.380   6.665   0.805
 6937TIP3    H220755   5.300   6.749   0.708
 6938TIP3   OH220756   2.176   0.943   5.280
 6938TIP3    H120757   2.271   0.945   5.273
 6938TIP3    H220758   2.144   0.947   5.190
 6939TIP3   OH220759   3.917   6.576   6.154
 6939TIP3    H120760   3.990   6.609   6.207
 6939TIP3    H220761   3.878   6.655   6.117
 6940TIP3   OH220762   7.852   2.512   3.916
 6940TIP3    H120763   7.923   2.572   3.893
 6940TIP3    H220764   7.804   2.499   3.834
 6941TIP3   OH220765   1.444   0.685   1.980
 6941TIP3    H120766   1.401   0.686   2.066
 6941TIP3    H220767   1.534   0.714   1.998
 6942TIP3   OH220768   3.881   7.040   6.612
 6942TIP3    H120769   3.902   7.046   6.705
 6942TIP3    H220770   3.882   6.947   6.593
 6943TIP3   OH220771   6.672   2.435   5.494
 6943TIP3    H120772   6.735   2.407   5.560
 6943TIP3    H220773   6.705   2.518   5.461
 6944TIP3   OH220774   0.252   7.485   3.011
 6944TIP3    H120775   0.319   7.417   3.003
 6944TIP3    H220776   0.247   7.503   3.105
 6945TIP3   OH220777   2.724   4.345   3.053
 6945TIP3    H120778   2.805   4.367   3.006
 6945TIP3    H220779   2.749   4.343   3.145
 6946TIP3   OH220780   3.898   6.728   4.549
 6946TIP3    H120781   3.805   6.742   4.568
 6946TIP3    H220782   3.901   6.640   4.512
 6947TIP3   OH220783   6.461   0.102   5.315
 6947TIP3    H120784   6.549   0.072   5.341
 6947TIP3    H220785   6.426   0.029   5.264
 6948TIP3   OH220786   5.327   5.317   2.111
 6948TIP3    H120787   5.376   5.335   2.031
 6948TIP3    H220788   5.235   5.326   2.086
 6949TIP3   OH220789   2.680   4.210   1.966
 6949TIP3    H120790   2.695   4.116   1.971
 6949TIP3    H220791   2.591   4.222   1.999
 6950TIP3   OH220792   5.449   3.326   5.546
 6950TIP3    H120793   5.400   3.352   5.624
 6950TIP3    H220794   5.479   3.409   5.508
 6951TIP3   OH220795   3.470   6.398   1.877
 6951TIP3    H120796   3.512   6.376   1.960
 6951TIP3    H220797   3.492   6.325   1.819
 6952TIP3   OH220798   1.193   7.428   3.536
 6952TIP3    H120799   1.121   7.464   3.587
 6952TIP3    H220800   1.214   7.345   3.579
 6953TIP3   OH220801   1.853   4.509   5.477
 6953TIP3    H120802   1.847   4.576   5.409
 6953TIP3    H220803   1.830   4.427   5.433
 6954TIP3   OH220804   2.833   5.320   4.592
 6954TIP3    H120805   2.809   5.413   4.596
 6954TIP3    H220806   2.837   5.293   4.684
 6955TIP3   OH220807   4.685   4.732   0.201
 6955TIP3    H120808   4.615   4.674   0.171
 6955TIP3    H220809   4.765   4.694   0.165
 6956TIP3   OH220810   1.011   2.990   5.616
 6956TIP3    H120811   1.072   2.917   5.629
 6956TIP3    H220812   1.067   3.066   5.600
 6957TIP3   OH220813   6.311   5.576   2.140
 6957TIP3    H120814   6.290   5.644   2.203
 6957TIP3    H220815   6.226   5.538   2.117
 6958TIP3   OH220816   6.252   1.727   4.612
 6958TIP3    H120817   6.253   1.632   4.597
 6958TIP3    H220818   6.170   1.743   4.658
 6959TIP3   OH220819   6.783   6.260   4.335
 6959TIP3    H120820   6.831   6.181   4.360
 6959TIP3    H220821   6.733   6.284   4.413
 6960TIP3   OH220822   6.779   3.787   1.523
 6960TIP3    H120823   6.740   3.709   1.484
 6960TIP3    H220824   6.718   3.814   1.591
 6961TIP3   OH220825   7.424  -0.012   2.232
 6961TIP3    H120826   7.461   0.047   2.298
 6961TIP3    H220827   7.431   0.036   2.150
 6962TIP3   OH220828   5.140   1.516   5.257
 6962TIP3    H120829   5.203   1.504   5.329
 6962TIP3    H220830   5.195   1.529   5.180
 6963TIP3   OH220831   4.784   3.206   0.392
 6963TIP3    H120832   4.698   3.166   0.405
 6963TIP3    H220833   4.800   3.199   0.298
 6964TIP3   OH220834   4.128   0.266   1.545
 6964TIP3    H120835   4.107   0.184   1.589
 6964TIP3    H220836   4.203   0.246   1.489
 6965TIP3   OH220837   7.312   6.860   1.660
 6965TIP3    H120838   7.343   6.900   1.741
 6965TIP3    H220839   7.250   6.924   1.624
 6966TIP3   OH220840   3.933   7.476   5.897
 6966TIP3    H120841   3.917   7.554   5.950
 6966TIP3    H220842   3.870   7.412   5.929
 6967TIP3   OH220843   3.085   1.623   6.472
 6967TIP3    H120844   3.006   1.575   6.497
 6967TIP3    H220845   3.147   1.555   6.444
 6968TIP3   OH220846   3.812   5.272   0.789
 6968TIP3    H120847   3.869   5.195   0.780
 6968TIP3    H220848   3.736   5.251   0.734
 6969TIP3   OH220849   4.147   2.721   6.630
 6969TIP3    H120850   4.065   2.675   6.616
 6969TIP3    H220851   4.210   2.652   6.654
 6970TIP3   OH220852   4.740   1.644   6.498
 6970TIP3    H120853   4.669   1.650   6.563
 6970TIP3    H220854   4.782   1.561   6.517
 6971TIP3   OH220855   7.770   6.490   3.648
 6971TIP3    H120856   7.786   6.524   3.559
 6971TIP3    H220857   7.691   6.437   3.639
 6972TIP3   OH220858   3.311   0.401   0.863
 6972TIP3    H120859   3.355   0.467   0.810
 6972TIP3    H220860   3.368   0.324   0.858
 6973TIP3   OH220861   0.640   1.619   5.148
 6973TIP3    H120862   0.638   1.700   5.097
 6973TIP3    H220863   0.553   1.612   5.186
 6974TIP3   OH220864   0.746   0.651   2.664
 6974TIP3    H120865   0.783   0.597   2.735
 6974TIP3    H220866   0.723   0.588   2.596
 6975TIP3   OH220867   7.666   6.021   3.061
 6975TIP3    H120868   7.674   6.056   3.150
 6975TIP3    H220869   7.732   5.952   3.057
 6976TIP3   OH220870   2.517   2.565   5.242
 6976TIP3    H120871   2.587   2.606   5.292
 6976TIP3    H220872   2.481   2.635   5.187
 6977TIP3   OH220873   3.627   3.821   4.860
 6977TIP3    H120874   3.659   3.773   4.784
 6977TIP3    H220875   3.622   3.912   4.831
 6978TIP3   OH220876   0.063   6.131   5.376
 6978TIP3    H120877   0.145   6.094   5.342
 6978TIP3    H220878   0.004   6.056   5.381
 6979TIP3   OH220879   7.861   1.739   5.893
 6979TIP3    H120880   7.900   1.689   5.964
 6979TIP3    H220881   7.775   1.699   5.880
 6980TIP3   OH220882   1.538  -0.005   1.048
 6980TIP3    H120883   1.468   0.053   1.018
 6980TIP3    H220884   1.577  -0.039   0.967
 6981TIP3   OH220885   4.146   6.829   3.608
 6981TIP3    H120886   4.083   6.757   3.600
 6981TIP3    H220887   4.094   6.903   3.639
 6982TIP3   OH220888   3.969   4.748   6.768
 6982TIP3    H120889   3.968   4.653   6.780
 6982TIP3    H220890   4.062   4.772   6.772
 6983TIP3   OH220891   5.161   4.144   0.649
 6983TIP3    H120892   5.221   4.206   0.690
 6983TIP3    H220893   5.085   4.141   0.708
 6984TIP3   OH220894   6.412   0.635   1.836
 6984TIP3    H120895   6.505   0.656   1.844
 6984TIP3    H220896   6.389   0.664   1.748
 6985TIP3   OH220897   7.050   0.686   0.911
 6985TIP3    H120898   6.997   0.758   0.943
 6985TIP3    H220899   6.994   0.609   0.918
 6986TIP3   OH220900   0.390   2.599   6.219
 6986TIP3    H120901   0.394   2.615   6.313
 6986TIP3    H220902   0.411   2.684   6.179
 6987TIP3   OH220903   8.122   4.150   2.416
 6987TIP3    H120904   8.138   4.244   2.413
 6987TIP3    H220905   8.168   4.115   2.340
 6988TIP3   OH220906   4.225   2.940   5.989
 6988TIP3    H120907   4.309   2.940   5.943
 6988TIP3    H220908   4.219   2.853   6.028
 6989TIP3   OH220909   2.591   3.354   3.722
 6989TIP3    H120910   2.533   3.280   3.703
 6989TIP3    H220911   2.645   3.363   3.644
 6990TIP3   OH220912   0.377   4.441   0.290
 6990TIP3    H120913   0.347   4.357   0.325
 6990TIP3    H220914   0.302   4.500   0.303
 6991TIP3   OH220915   5.469   2.497   2.545
 6991TIP3    H120916   5.475   2.504   2.450
 6991TIP3    H220917   5.389   2.544   2.567
 6992TIP3   OH220918   6.462   6.303   5.591
 6992TIP3    H120919   6.506   6.366   5.649
 6992TIP3    H220920   6.496   6.218   5.619
 6993TIP3   OH220921   2.130   2.230   6.692
 6993TIP3    H120922   2.152   2.298   6.755
 6993TIP3    H220923   2.149   2.148   6.738
 6994TIP3   OH220924   0.679   5.619   4.709
 6994TIP3    H120925   0.703   5.676   4.782
 6994TIP3    H220926   0.647   5.679   4.641
 6995TIP3   OH220927   5.992   7.357   4.476
 6995TIP3    H120928   5.899   7.334   4.482
 6995TIP3    H220929   5.995   7.431   4.415
 6996TIP3   OH220930   7.256   1.276   2.528
 6996TIP3    H120931   7.211   1.242   2.605
 6996TIP3    H220932   7.313   1.204   2.500
 6997TIP3   OH220933   7.430   1.457   4.280
 6997TIP3    H120934   7.421   1.528   4.343
 6997TIP3    H220935   7.344   1.415   4.279
 6998TIP3   OH220936   7.740   0.445   1.650
 6998TIP3    H120937   7.818   0.476   1.696
 6998TIP3    H220938   7.702   0.524   1.612
 6999TIP3   OH220939   5.679   0.285   4.940
 6999TIP3    H120940   5.614   0.355   4.929
 6999TIP3    H220941   5.628   0.204   4.937
 7000TIP3   OH220942   7.685   2.136   1.412
 7000TIP3    H120943   7.645   2.150   1.326
 7000TIP3    H220944   7.695   2.225   1.447
 7001TIP3   OH220945   2.036   0.550   1.741
 7001TIP3    H120946   1.980   0.487   1.786
 7001TIP3    H220947   2.119   0.504   1.728
 7002TIP3   OH220948   2.679   1.509   4.324
 7002TIP3    H120949   2.684   1.447   4.252
 7002TIP3    H220950   2.731   1.584   4.295
 7003TIP3   OH220951   8.251   4.518   0.539
 7003TIP3    H120952   8.290   4.567   0.467
 7003TIP3    H220953   8.315   4.523   0.610
 7004TIP3   OH220954   3.929   0.150   6.571
 7004TIP3    H120955   3.852   0.207   6.567
 7004TIP3    H220956   3.999   0.202   6.531
 7005TIP3   OH220957   3.944   1.304   0.051
 7005TIP3    H120958   4.034   1.334   0.065
 7005TIP3    H220959   3.890   1.380   0.070
 7006TIP3   OH220960   4.955   3.060   5.099
 7006TIP3    H120961   4.916   3.133   5.147
 7006TIP3    H220962   5.019   3.023   5.159
 7007TIP3   OH220963   6.919   6.399   5.037
 7007TIP3    H120964   6.999   6.444   5.009
 7007TIP3    H220965   6.944   6.307   5.041
 7008TIP3   OH220966   6.642   0.944   5.019
 7008TIP3    H120967   6.732   0.913   5.011
 7008TIP3    H220968   6.634   1.015   4.954
 7009TIP3   OH220969   2.179   5.180   0.468
 7009TIP3    H120970   2.240   5.144   0.403
 7009TIP3    H220971   2.106   5.119   0.468
 7010TIP3   OH220972   4.212   0.521   4.163
 7010TIP3    H120973   4.124   0.554   4.183
 7010TIP3    H220974   4.237   0.471   4.240
 7011TIP3   OH220975   4.404   7.439   3.373
 7011TIP3    H120976   4.361   7.516   3.409
 7011TIP3    H220977   4.396   7.449   3.278
 7012TIP3   OH220978   0.396   4.448   5.973
 7012TIP3    H120979   0.422   4.375   6.028
 7012TIP3    H220980   0.429   4.426   5.886
 7013TIP3   OH220981   8.194   4.696   0.895
 7013TIP3    H120982   8.270   4.654   0.854
 7013TIP3    H220983   8.231   4.768   0.946
 7014TIP3   OH220984   2.488   7.777   3.385
 7014TIP3    H120985   2.452   7.717   3.319
 7014TIP3    H220986   2.577   7.795   3.355
 7015TIP3   OH220987   1.576   5.519   3.292
 7015TIP3    H120988   1.658   5.500   3.248
 7015TIP3    H220989   1.510   5.518   3.223
 7016TIP3   OH220990   6.883   7.812   2.502
 7016TIP3    H120991   6.816   7.880   2.497
 7016TIP3    H220992   6.865   7.766   2.584
 7017TIP3   OH220993   7.300   5.181   3.963
 7017TIP3    H120994   7.315   5.135   4.046
 7017TIP3    H220995   7.307   5.113   3.896
 7018TIP3   OH220996   5.819   6.422   5.508
 7018TIP3    H120997   5.769   6.488   5.555
 7018TIP3    H220998   5.856   6.366   5.577
 7019TIP3   OH220999   0.491   7.141   1.132
 7019TIP3    H121000   0.406   7.121   1.093
 7019TIP3    H221001   0.493   7.092   1.214
 7020TIP3   OH221002   1.482   6.116   0.547
 7020TIP3    H121003   1.541   6.070   0.606
 7020TIP3    H221004   1.486   6.067   0.465
 7021TIP3   OH221005   2.514   0.918   3.622
 7021TIP3    H121006   2.543   1.009   3.624
 7021TIP3    H221007   2.502   0.895   3.714
 7022TIP3   OH221008   4.134   1.416   0.193
 7022TIP3    H121009   4.193   1.366   0.249
 7022TIP3    H221010   4.191   1.462   0.132
 7023TIP3   OH221011   5.671   0.038   1.181
 7023TIP3    H121012   5.674   0.114   1.121
 7023TIP3    H221013   5.707   0.071   1.263
 7024TIP3   OH221014   7.252   5.891   1.049
 7024TIP3    H121015   7.210   5.809   1.074
 7024TIP3    H221016   7.344   5.880   1.076
 7025TIP3   OH221017   1.687   1.127   3.979
 7025TIP3    H121018   1.616   1.108   4.039
 7025TIP3    H221019   1.765   1.133   4.035
 7026TIP3   OH221020   7.404   5.977   4.175
 7026TIP3    H121021   7.456   5.945   4.249
 7026TIP3    H221022   7.323   6.008   4.214
 7027TIP3   OH221023   5.276   4.377   1.122
 7027TIP3    H121024   5.212   4.378   1.050
 7027TIP3    H221025   5.361   4.378   1.078
 7028TIP3   OH221026   5.969   4.049   2.745
 7028TIP3    H121027   5.991   3.998   2.823
 7028TIP3    H221028   5.978   3.988   2.672
 7029TIP3   OH221029   0.985   7.272   0.259
 7029TIP3    H121030   1.073   7.241   0.235
 7029TIP3    H221031   0.945   7.198   0.304
 7030TIP3   OH221032   2.612   6.130   1.581
 7030TIP3    H121033   2.534   6.141   1.527
 7030TIP3    H221034   2.666   6.206   1.560
 7031TIP3   OH221035   2.470   6.354   6.274
 7031TIP3    H121036   2.494   6.267   6.243
 7031TIP3    H221037   2.445   6.401   6.194
 7032TIP3   OH221038   2.972   1.986   0.419
 7032TIP3    H121039   2.906   1.991   0.349
 7032TIP3    H221040   2.921   1.993   0.500
 7033TIP3   OH221041   6.605   0.934   5.329
 7033TIP3    H121042   6.573   1.018   5.362
 7033TIP3    H221043   6.574   0.931   5.238
 7034TIP3   OH221044   0.289   7.600   5.643
 7034TIP3    H121045   0.320   7.512   5.620
 7034TIP3    H221046   0.274   7.643   5.559
 7035TIP3   OH221047   4.018   0.708   1.417
 7035TIP3    H121048   4.032   0.614   1.411
 7035TIP3    H221049   4.097   0.742   1.458
 7036TIP3   OH221050   4.829   6.620   0.084
 7036TIP3    H121051   4.747   6.629   0.133
 7036TIP3    H221052   4.853   6.710   0.063
 7037TIP3   OH221053   1.998   6.242   3.682
 7037TIP3    H121054   1.984   6.328   3.721
 7037TIP3    H221055   1.910   6.205   3.673
 7038TIP3   OH221056   6.190   0.412   4.417
 7038TIP3    H121057   6.233   0.495   4.396
 7038TIP3    H221058   6.097   0.434   4.424
 7039TIP3   OH221059   0.377   2.887   1.430
 7039TIP3    H121060   0.420   2.963   1.391
 7039TIP3    H221061   0.307   2.864   1.368
 7040TIP3   OH221062   0.245   1.966   2.869
 7040TIP3    H121063   0.333   1.971   2.906
 7040TIP3    H221064   0.236   1.875   2.842
 7041TIP3   OH221065   5.872   4.253   6.201
 7041TIP3    H121066   5.789   4.273   6.245
 7041TIP3    H221067   5.937   4.308   6.245
 7042TIP3   OH221068   1.149   4.442   1.474
 7042TIP3    H121069   1.146   4.387   1.553
 7042TIP3    H221070   1.138   4.380   1.402
 7043TIP3   OH221071   0.969   2.355   3.804
 7043TIP3    H121072   0.989   2.355   3.898
 7043TIP3    H221073   1.054   2.352   3.761
 7044TIP3   OH221074   4.726   2.278   4.408
 7044TIP3    H121075   4.814   2.274   4.446
 7044TIP3    H221076   4.705   2.372   4.407
 7045TIP3   OH221077   3.450   6.111   1.670
 7045TIP3    H121078   3.528   6.085   1.622
 7045TIP3    H221079   3.403   6.029   1.686
 7046TIP3   OH221080   3.250   4.138   4.221
 7046TIP3    H121081   3.197   4.100   4.151
 7046TIP3    H221082   3.191   4.137   4.297
 7047TIP3   OH221083   4.795   7.504   3.527
 7047TIP3    H121084   4.846   7.423   3.536
 7047TIP3    H221085   4.739   7.506   3.605
 7048TIP3   OH221086   4.381   1.692   5.640
 7048TIP3    H121087   4.475   1.700   5.652
 7048TIP3    H221088   4.352   1.633   5.710
 7049TIP3   OH221089   6.198   3.090   1.837
 7049TIP3    H121090   6.236   3.177   1.834
 7049TIP3    H221091   6.121   3.099   1.893
 7050TIP3   OH221092   7.843   2.529   4.614
 7050TIP3    H121093   7.794   2.605   4.584
 7050TIP3    H221094   7.790   2.492   4.685
 7051TIP3   OH221095   0.254   4.075   3.734
 7051TIP3    H121096   0.221   4.144   3.676
 7051TIP3    H221097   0.267   4.118   3.818
 7052TIP3   OH221098   2.137   6.247   2.268
 7052TIP3    H121099   2.198   6.317   2.289
 7052TIP3    H221100   2.052   6.278   2.300
 7053TIP3   OH221101   3.718   7.099   4.942
 7053TIP3    H121102   3.671   7.134   5.017
 7053TIP3    H221103   3.731   7.174   4.883
 7054TIP3   OH221104   7.544   1.318   1.466
 7054TIP3    H121105   7.513   1.384   1.403
 7054TIP3    H221106   7.476   1.250   1.465
 7055TIP3   OH221107   7.907   2.831   6.442
 7055TIP3    H121108   7.818   2.826   6.408
 7055TIP3    H221109   7.912   2.760   6.506
 7056TIP3   OH221110   6.597   1.106   3.276
 7056TIP3    H121111   6.597   1.127   3.370
 7056TIP3    H221112   6.678   1.057   3.262
 7057TIP3   OH221113   4.628   6.484   1.207
 7057TIP3    H121114   4.542   6.497   1.247
 7057TIP3    H221115   4.690   6.517   1.273
 7058TIP3   OH221116   5.656   6.282   6.241
 7058TIP3    H121117   5.741   6.295   6.198
 7058TIP3    H221118   5.661   6.338   6.319
 7059TIP3   OH221119   7.803   4.247   0.532
 7059TIP3    H121120   7.828   4.181   0.597
 7059TIP3    H221121   7.844   4.328   0.563
 7060TIP3   OH221122   3.068   2.843   5.880
 7060TIP3    H121123   2.977   2.862   5.901
 7060TIP3    H221124   3.064   2.778   5.809
 7061TIP3   OH221125   2.729   2.292   5.784
 7061TIP3    H121126   2.773   2.214   5.751
 7061TIP3    H221127   2.725   2.351   5.708
 7062TIP3   OH221128   2.725   0.928   6.073
 7062TIP3    H121129   2.637   0.934   6.038
 7062TIP3    H221130   2.777   0.989   6.022
 7063TIP3   OH221131   4.536   4.636   2.193
 7063TIP3    H121132   4.600   4.589   2.139
 7063TIP3    H221133   4.508   4.709   2.138
 7064TIP3   OH221134   3.569   0.784   3.645
 7064TIP3    H121135   3.541   0.694   3.627
 7064TIP3    H221136   3.521   0.809   3.723
 7065TIP3   OH221137   0.705   2.298   6.723
 7065TIP3    H121138   0.673   2.364   6.784
 7065TIP3    H221139   0.626   2.252   6.693
 7066TIP3   OH221140   5.064   0.607   5.552
 7066TIP3    H121141   5.059   0.644   5.464
 7066TIP3    H221142   4.982   0.560   5.564
 7067TIP3   OH221143   5.175   1.941   5.415
 7067TIP3    H121144   5.229   1.862   5.412
 7067TIP3    H221145   5.180   1.970   5.506
 7068TIP3   OH221146   6.339   2.146   4.720
 7068TIP3    H121147   6.304   2.144   4.809
 7068TIP3    H221148   6.424   2.102   4.726
 7069TIP3   OH221149   4.495   2.593   1.087
 7069TIP3    H121150   4.505   2.688   1.086
 7069TIP3    H221151   4.558   2.561   1.023
 7070TIP3   OH221152   2.878   2.966   4.157
 7070TIP3    H121153   2.884   3.013   4.074
 7070TIP3    H221154   2.792   2.922   4.153
 7071TIP3   OH221155   8.303   2.304   1.219
 7071TIP3    H121156   8.342   2.218   1.238
 7071TIP3    H221157   8.216   2.283   1.185
 7072TIP3   OH221158   5.525   1.956   0.272
 7072TIP3    H121159   5.491   1.993   0.353
 7072TIP3    H221160   5.525   2.029   0.210
 7073TIP3   OH221161   7.095   1.851   3.272
 7073TIP3    H121162   7.078   1.930   3.323
 7073TIP3    H221163   7.101   1.882   3.182
 7074TIP3   OH221164   0.029   1.751   5.660
 7074TIP3    H121165   0.123   1.735   5.645
 7074TIP3    H221166  -0.012   1.666   5.648
 7075TIP3   OH221167   0.840   4.034   5.025
 7075TIP3    H121168   0.836   4.032   4.929
 7075TIP3    H221169   0.845   3.942   5.051
 7076TIP3   OH221170   3.292   0.157   6.736
 7076TIP3    H121171   3.374   0.206   6.741
 7076TIP3    H221172   3.314   0.079   6.685
 7077TIP3   OH221173   2.834   6.834   5.281
 7077TIP3    H121174   2.791   6.848   5.197
 7077TIP3    H221175   2.771   6.782   5.331
 7078TIP3   OH221176   0.814   1.921   6.106
 7078TIP3    H121177   0.896   1.908   6.058
 7078TIP3    H221178   0.751   1.949   6.039
 7079TIP3   OH221179   5.613   0.313   0.829
 7079TIP3    H121180   5.624   0.381   0.895
 7079TIP3    H221181   5.574   0.359   0.754
 7080TIP3   OH221182   3.105   7.531   3.260
 7080TIP3    H121183   3.027   7.576   3.226
 7080TIP3    H221184   3.103   7.445   3.217
 7081TIP3   OH221185   6.092   6.498   5.442
 7081TIP3    H121186   6.094   6.522   5.350
 7081TIP3    H221187   6.004   6.464   5.457
 7082TIP3   OH221188   1.451   1.181   1.852
 7082TIP3    H121189   1.391   1.116   1.890
 7082TIP3    H221190   1.538   1.144   1.867
 7083TIP3   OH221191   6.282   5.937   2.009
 7083TIP3    H121192   6.311   5.995   1.938
 7083TIP3    H221193   6.233   5.868   1.964
 7084TIP3   OH221194   1.945   6.426   5.063
 7084TIP3    H121195   1.993   6.360   5.014
 7084TIP3    H221196   1.876   6.377   5.107
 7085TIP3   OH221197   0.058   2.408   3.690
 7085TIP3    H121198   0.121   2.459   3.742
 7085TIP3    H221199  -0.026   2.424   3.732
 7086TIP3   OH221200   4.711   1.264   2.375
 7086TIP3    H121201   4.691   1.281   2.283
 7086TIP3    H221202   4.637   1.302   2.424
 7087TIP3   OH221203   2.621   7.147   5.946
 7087TIP3    H121204   2.547   7.166   6.004
 7087TIP3    H221205   2.669   7.229   5.941
 7088TIP3   OH221206   7.269   0.153   5.709
 7088TIP3    H121207   7.265   0.195   5.795
 7088TIP3    H221208   7.243   0.063   5.726
 7089TIP3   OH221209   6.814   5.133   3.894
 7089TIP3    H121210   6.865   5.056   3.918
 7089TIP3    H221211   6.877   5.205   3.898
 7090TIP3   OH221212   7.815   1.553   0.801
 7090TIP3    H121213   7.848   1.464   0.790
 7090TIP3    H221214   7.726   1.550   0.767
 7091TIP3   OH221215   4.804   0.180   1.953
 7091TIP3    H121216   4.816   0.113   2.019
 7091TIP3    H221217   4.893   0.199   1.922
 7092TIP3   OH221218   1.581   5.740   0.291
 7092TIP3    H121219   1.676   5.742   0.283
 7092TIP3    H221220   1.554   5.661   0.244
 7093TIP3   OH221221   1.701   5.382   0.296
 7093TIP3    H121222   1.641   5.453   0.273
 7093TIP3    H221223   1.764   5.422   0.355
 7094TIP3   OH221224   3.434   2.639   0.439
 7094TIP3    H121225   3.495   2.709   0.462
 7094TIP3    H221226   3.449   2.571   0.504
 7095TIP3   OH221227   1.898   1.975   2.343
 7095TIP3    H121228   1.955   2.050   2.362
 7095TIP3    H221229   1.907   1.918   2.420
 7096TIP3   OH221230   0.892   3.951   5.575
 7096TIP3    H121231   0.903   3.872   5.522
 7096TIP3    H221232   0.950   4.015   5.533
 7097TIP3   OH221233   0.378   6.925   5.626
 7097TIP3    H121234   0.283   6.924   5.634
 7097TIP3    H221235   0.410   6.874   5.701
 7098TIP3   OH221236   5.093   6.779   2.191
 7098TIP3    H121237   5.156   6.847   2.215
 7098TIP3    H221238   5.009   6.824   2.190
 7099TIP3   OH221239   4.319   6.930   1.145
 7099TIP3    H121240   4.307   6.966   1.232
 7099TIP3    H221241   4.362   6.845   1.160
 7100TIP3   OH221242   4.264   7.178   3.748
 7100TIP3    H121243   4.265   7.168   3.653
 7100TIP3    H221244   4.207   7.253   3.763
 7101TIP3   OH221245   2.554   6.697   3.450
 7101TIP3    H121246   2.617   6.645   3.400
 7101TIP3    H221247   2.608   6.754   3.504
 7102TIP3   OH221248   2.524   5.094   0.449
 7102TIP3    H121249   2.497   5.171   0.498
 7102TIP3    H221250   2.476   5.100   0.366
 7103TIP3   OH221251   1.814   1.772   2.499
 7103TIP3    H121252   1.866   1.709   2.549
 7103TIP3    H221253   1.760   1.816   2.565
 7104TIP3   OH221254   5.850   1.645   0.475
 7104TIP3    H121255   5.874   1.559   0.509
 7104TIP3    H221256   5.909   1.706   0.521
 7105TIP3   OH221257   1.715   1.855   3.803
 7105TIP3    H121258   1.735   1.800   3.726
 7105TIP3    H221259   1.636   1.903   3.779
 7106TIP3   OH221260   1.664   7.089   3.590
 7106TIP3    H121261   1.693   7.007   3.551
 7106TIP3    H221262   1.615   7.063   3.668
 7107TIP3   OH221263   8.044   3.633   1.163
 7107TIP3    H121264   8.032   3.726   1.180
 7107TIP3    H221265   8.108   3.604   1.228
 7108TIP3   OH221266   0.233   6.098   6.717
 7108TIP3    H121267   0.305   6.062   6.665
 7108TIP3    H221268   0.272   6.113   6.803
 7109TIP3   OH221269   2.420   3.156   3.629
 7109TIP3    H121270   2.480   3.107   3.573
 7109TIP3    H221271   2.354   3.192   3.570
 7110TIP3   OH221272   2.491   6.118   0.706
 7110TIP3    H121273   2.405   6.084   0.733
 7110TIP3    H221274   2.515   6.064   0.631
 7111TIP3   OH221275   2.547   4.364   1.774
 7111TIP3    H121276   2.474   4.412   1.814
 7111TIP3    H221277   2.612   4.358   1.844
 7112TIP3   OH221278   4.178   7.266   6.230
 7112TIP3    H121279   4.236   7.306   6.165
 7112TIP3    H221280   4.110   7.223   6.178
 7113TIP3   OH221281   0.270   6.928   3.816
 7113TIP3    H121282   0.245   6.839   3.841
 7113TIP3    H221283   0.188   6.977   3.815
 7114TIP3   OH221284   0.419   2.740   0.267
 7114TIP3    H121285   0.487   2.788   0.315
 7114TIP3    H221286   0.424   2.774   0.178
 7115TIP3   OH221287   4.200   7.082   4.545
 7115TIP3    H121288   4.238   7.151   4.491
 7115TIP3    H221289   4.131   7.044   4.490
 7116TIP3   OH221290   0.869   4.764   0.681
 7116TIP3    H121291   0.881   4.736   0.772
 7116TIP3    H221292   0.851   4.684   0.633
 7117TIP3   OH221293   7.946   5.780   6.214
 7117TIP3    H121294   7.940   5.726   6.292
 7117TIP3    H221295   7.943   5.870   6.246
 7118TIP3   OH221296   8.119   7.239   1.734
 7118TIP3    H121297   8.165   7.199   1.807
 7118TIP3    H221298   8.079   7.318   1.771
 7119TIP3   OH221299   0.421   4.259   0.088
 7119TIP3    H121300   0.472   4.304   0.021
 7119TIP3    H221301   0.388   4.329   0.144
 7120TIP3   OH221302   4.263   0.412   6.720
 7120TIP3    H121303   4.339   0.440   6.770
 7120TIP3    H221304   4.191   0.467   6.753
 7121TIP3   OH221305   5.508   2.901   2.507
 7121TIP3    H121306   5.575   2.947   2.458
 7121TIP3    H221307   5.556   2.853   2.575
 7122TIP3   OH221308   6.504   2.909   5.247
 7122TIP3    H121309   6.445   2.973   5.286
 7122TIP3    H221310   6.452   2.866   5.179
 7123TIP3   OH221311   4.869   6.557   2.190
 7123TIP3    H121312   4.913   6.639   2.168
 7123TIP3    H221313   4.841   6.522   2.105
 7124TIP3   OH221314   8.191   5.124   0.346
 7124TIP3    H121315   8.103   5.161   0.346
 7124TIP3    H221316   8.177   5.029   0.338
 7125TIP3   OH221317   4.016   2.060   0.289
 7125TIP3    H121318   4.076   2.009   0.344
 7125TIP3    H221319   4.019   2.149   0.325
 7126TIP3   OH221320   7.707   1.111   2.471
 7126TIP3    H121321   7.705   1.131   2.377
 7126TIP3    H221322   7.792   1.144   2.501
 7127TIP3   OH221323   4.375   4.863   2.428
 7127TIP3    H121324   4.381   4.894   2.518
 7127TIP3    H221325   4.321   4.784   2.433
 7128TIP3   OH221326   2.944   1.386   3.124
 7128TIP3    H121327   2.993   1.390   3.206
 7128TIP3    H221328   2.868   1.332   3.145
 7129TIP3   OH221329   4.276   5.561   3.753
 7129TIP3    H121330   4.287   5.473   3.717
 7129TIP3    H221331   4.363   5.601   3.747
 7130TIP3   OH221332   3.537   1.387   0.917
 7130TIP3    H121333   3.538   1.453   0.987
 7130TIP3    H221334   3.581   1.311   0.955
 7131TIP3   OH221335   5.172   1.847   3.517
 7131TIP3    H121336   5.231   1.802   3.456
 7131TIP3    H221337   5.172   1.792   3.595
 7132TIP3   OH221338   3.052   6.901   0.747
 7132TIP3    H121339   2.976   6.951   0.716
 7132TIP3    H221340   3.110   6.896   0.672
 7133TIP3   OH221341   4.255   2.275   1.532
 7133TIP3    H121342   4.313   2.337   1.489
 7133TIP3    H221343   4.240   2.312   1.619
 7134TIP3   OH221344   2.370   3.572   5.946
 7134TIP3    H121345   2.445   3.602   5.894
 7134TIP3    H221346   2.399   3.490   5.985
 7135TIP3   OH221347   2.140   1.852   2.525
 7135TIP3    H121348   2.180   1.794   2.590
 7135TIP3    H221349   2.152   1.940   2.560
 7136TIP3   OH221350   1.559   3.845   2.448
 7136TIP3    H121351   1.651   3.833   2.470
 7136TIP3    H221352   1.528   3.758   2.423
 7137TIP3   OH221353   6.516   0.117   3.009
 7137TIP3    H121354   6.518   0.212   3.019
 7137TIP3    H221355   6.443   0.089   3.064
 7138TIP3   OH221356   8.197   5.668   1.787
 7138TIP3    H121357   8.158   5.591   1.829
 7138TIP3    H221358   8.189   5.738   1.853
 7139TIP3   OH221359   3.732   6.404   0.162
 7139TIP3    H121360   3.784   6.433   0.237
 7139TIP3    H221361   3.783   6.333   0.123
 7140TIP3   OH221362   7.310   1.091   6.504
 7140TIP3    H121363   7.402   1.079   6.525
 7140TIP3    H221364   7.301   1.056   6.415
 7141TIP3   OH221365   2.052   7.792   0.853
 7141TIP3    H121366   1.993   7.735   0.805
 7141TIP3    H221367   2.111   7.827   0.786
 7142TIP3   OH221368   8.246   1.066   3.248
 7142TIP3    H121369   8.213   1.116   3.322
 7142TIP3    H221370   8.249   1.128   3.176
 7143TIP3   OH221371   1.175   6.188   5.073
 7143TIP3    H121372   1.146   6.269   5.031
 7143TIP3    H221373   1.148   6.196   5.164
 7144TIP3   OH221374   0.805   5.166   3.060
 7144TIP3    H121375   0.785   5.242   3.115
 7144TIP3    H221376   0.748   5.177   2.983
 7145TIP3   OH221377   4.403   3.043   4.349
 7145TIP3    H121378   4.457   3.096   4.408
 7145TIP3    H221379   4.395   2.959   4.393
 7146TIP3   OH221380   2.452   5.837   2.122
 7146TIP3    H121381   2.375   5.787   2.148
 7146TIP3    H221382   2.420   5.926   2.110
 7147TIP3   OH221383   6.314   7.326   6.167
 7147TIP3    H121384   6.275   7.244   6.136
 7147TIP3    H221385   6.293   7.330   6.260
 7148TIP3   OH221386   7.383   3.607   4.550
 7148TIP3    H121387   7.462   3.553   4.547
 7148TIP3    H221388   7.333   3.572   4.624
 7149TIP3   OH221389   7.896   5.015   5.505
 7149TIP3    H121390   7.907   4.963   5.426
 7149TIP3    H221391   7.908   4.952   5.577
 7150TIP3   OH221392   8.004   3.561   1.841
 7150TIP3    H121393   7.930   3.619   1.855
 7150TIP3    H221394   7.965   3.478   1.813
 7151TIP3   OH221395   6.839   1.918   2.237
 7151TIP3    H121396   6.909   1.905   2.301
 7151TIP3    H221397   6.820   1.830   2.204
 7152TIP3   OH221398   4.363   0.955   6.065
 7152TIP3    H121399   4.430   0.995   6.010
 7152TIP3    H221400   4.292   1.019   6.068
 7153TIP3   OH221401   2.146   2.366   2.361
 7153TIP3    H121402   2.230   2.341   2.323
 7153TIP3    H221403   2.160   2.454   2.395
 7154TIP3   OH221404   6.073   2.655   4.394
 7154TIP3    H121405   6.122   2.584   4.435
 7154TIP3    H221406   6.003   2.675   4.456
 7155TIP3   OH221407   6.134   2.155   4.518
 7155TIP3    H121408   6.215   2.141   4.566
 7155TIP3    H221409   6.065   2.123   4.576
 7156TIP3   OH221410   0.358   4.031   3.262
 7156TIP3    H121411   0.362   3.953   3.206
 7156TIP3    H221412   0.365   3.997   3.351
 7157TIP3   OH221413   5.702   2.022   2.645
 7157TIP3    H121414   5.667   1.999   2.559
 7157TIP3    H221415   5.682   2.115   2.655
 7158TIP3   OH221416   4.038   1.233   1.895
 7158TIP3    H121417   4.018   1.287   1.972
 7158TIP3    H221418   3.959   1.238   1.841
 7159TIP3   OH221419   3.414   0.368   0.099
 7159TIP3    H121420   3.435   0.420   0.021
 7159TIP3    H221421   3.378   0.287   0.065
 7160TIP3   OH221422   3.845   6.658   4.964
 7160TIP3    H121423   3.756   6.654   4.929
 7160TIP3    H221424   3.895   6.596   4.912
 7161TIP3   OH221425   7.102   2.738   2.329
 7161TIP3    H121426   7.040   2.811   2.324
 7161TIP3    H221427   7.117   2.726   2.423
 7162TIP3   OH221428   6.266   0.261   0.978
 7162TIP3    H121429   6.307   0.301   0.901
 7162TIP3    H221430   6.335   0.257   1.044
 7163TIP3   OH221431   5.289   6.514   0.150
 7163TIP3    H121432   5.332   6.546   0.071
 7163TIP3    H221433   5.197   6.507   0.126
 7164TIP3   OH221434   0.035   1.664   4.995
 7164TIP3    H121435   0.092   1.687   4.922
 7164TIP3    H221436   0.043   1.569   5.002
 7165TIP3   OH221437   7.132   0.418   1.329
 7165TIP3    H121438   7.060   0.356   1.340
 7165TIP3    H221439   7.141   0.428   1.235
 7166TIP3   OH221440   4.818   5.364   1.936
 7166TIP3    H121441   4.737   5.317   1.915
 7166TIP3    H221442   4.840   5.411   1.856
 7167TIP3   OH221443   7.443   7.095   0.469
 7167TIP3    H121444   7.437   6.999   0.476
 7167TIP3    H221445   7.379   7.118   0.403
 7168TIP3   OH221446   0.116   4.183   3.233
 7168TIP3    H121447   0.191   4.123   3.231
 7168TIP3    H221448   0.136   4.247   3.165
 7169TIP3   OH221449   4.196   1.039   1.378
 7169TIP3    H121450   4.166   1.014   1.291
 7169TIP3    H221451   4.116   1.057   1.427
 7170TIP3   OH221452   5.309   2.201   0.099
 7170TIP3    H121453   5.246   2.220   0.168
 7170TIP3    H221454   5.394   2.219   0.138
 7171TIP3   OH221455   5.296   6.504   3.908
 7171TIP3    H121456   5.209   6.531   3.879
 7171TIP3    H221457   5.294   6.514   4.003
 7172TIP3   OH221458   0.099   1.433   2.983
 7172TIP3    H121459   0.168   1.469   3.039
 7172TIP3    H221460   0.043   1.383   3.043
 7173TIP3   OH221461   3.546   7.457   2.115
 7173TIP3    H121462   3.589   7.430   2.034
 7173TIP3    H221463   3.468   7.401   2.121
 7174TIP3   OH221464   0.404   1.855   6.572
 7174TIP3    H121465   0.452   1.778   6.542
 7174TIP3    H221466   0.316   1.845   6.535
 7175TIP3   OH221467   0.497   4.411   2.243
 7175TIP3    H121468   0.443   4.490   2.251
 7175TIP3    H221469   0.581   4.443   2.212
 7176TIP3   OH221470   2.724   5.358   2.032
 7176TIP3    H121471   2.713   5.276   2.081
 7176TIP3    H221472   2.742   5.423   2.100
 7177TIP3   OH221473   3.772   3.643   1.077
 7177TIP3    H121474   3.806   3.563   1.038
 7177TIP3    H221475   3.744   3.617   1.165
 7178TIP3   OH221476   1.297   0.417   1.466
 7178TIP3    H121477   1.261   0.392   1.381
 7178TIP3    H221478   1.355   0.491   1.446
 7179TIP3   OH221479   7.948   7.470   1.360
 7179TIP3    H121480   7.918   7.379   1.367
 7179TIP3    H221481   7.873   7.518   1.327
 7180TIP3   OH221482   6.897   6.198   3.327
 7180TIP3    H121483   6.809   6.227   3.352
 7180TIP3    H221484   6.919   6.252   3.251
 7181TIP3   OH221485   0.583   2.497   1.826
 7181TIP3    H121486   0.678   2.499   1.835
 7181TIP3    H221487   0.568   2.486   1.732
 7182TIP3   OH221488   2.439   2.545   2.089
 7182TIP3    H121489   2.488   2.503   2.019
 7182TIP3    H221490   2.505   2.570   2.154
 7183TIP3   OH221491   5.970   2.516   1.299
 7183TIP3    H121492   5.940   2.598   1.339
 7183TIP3    H221493   6.058   2.535   1.269
 7184TIP3   OH221494   5.590   2.721   1.775
 7184TIP3    H121495   5.644   2.735   1.852
 7184TIP3    H221496   5.590   2.806   1.730
 7185TIP3   OH221497   0.611   6.724   1.113
 7185TIP3    H121498   0.562   6.642   1.104
 7185TIP3    H221499   0.554   6.781   1.164
 7186TIP3   OH221500   2.128   4.184   1.850
 7186TIP3    H121501   2.114   4.107   1.795
 7186TIP3    H221502   2.118   4.151   1.939
 7187TIP3   OH221503   2.159   6.611   5.052
 7187TIP3    H121504   2.099   6.539   5.037
 7187TIP3    H221505   2.121   6.658   5.127
 7188TIP3   OH221506   2.925   7.671   0.377
 7188TIP3    H121507   2.895   7.757   0.348
 7188TIP3    H221508   3.005   7.688   0.426
 7189TIP3   OH221509   3.320   7.484   2.440
 7189TIP3    H121510   3.277   7.529   2.367
 7189TIP3    H221511   3.268   7.404   2.452
 7190TIP3   OH221512   4.006   6.130   6.245
 7190TIP3    H121513   4.055   6.211   6.262
 7190TIP3    H221514   3.916   6.158   6.232
 7191TIP3   OH221515   4.481   2.344   2.994
 7191TIP3    H121516   4.439   2.377   2.914
 7191TIP3    H221517   4.488   2.421   3.050
 7192TIP3   OH221518   1.824   7.364   0.657
 7192TIP3    H121519   1.730   7.382   0.655
 7192TIP3    H221520   1.834   7.283   0.607
 7193TIP3   OH221521   1.335   2.024   4.213
 7193TIP3    H121522   1.415   2.007   4.264
 7193TIP3    H221523   1.283   2.081   4.270
 7194TIP3   OH221524   7.256   0.248   1.771
 7194TIP3    H121525   7.212   0.184   1.716
 7194TIP3    H221526   7.347   0.248   1.740
 7195TIP3   OH221527   6.863   6.706   5.143
 7195TIP3    H121528   6.811   6.683   5.066
 7195TIP3    H221529   6.816   6.780   5.182
 7196TIP3   OH221530   5.268   0.683   6.754
 7196TIP3    H121531   5.309   0.672   6.669
 7196TIP3    H221532   5.251   0.594   6.784
 7197TIP3   OH221533   6.477   4.306   0.542
 7197TIP3    H121534   6.471   4.370   0.471
 7197TIP3    H221535   6.554   4.332   0.592
 7198TIP3   OH221536   7.523   7.095   1.317
 7198TIP3    H121537   7.578   7.027   1.279
 7198TIP3    H221538   7.461   7.048   1.372
 7199TIP3   OH221539   4.375   5.426   5.531
 7199TIP3    H121540   4.339   5.342   5.504
 7199TIP3    H221541   4.470   5.414   5.528
 7200TIP3   OH221542   6.935   2.134   6.271
 7200TIP3    H121543   6.869   2.091   6.215
 7200TIP3    H221544   6.912   2.227   6.267
 7201TIP3   OH221545   5.470   6.467   4.398
 7201TIP3    H121546   5.465   6.504   4.486
 7201TIP3    H221547   5.506   6.537   4.344
 7202TIP3   OH221548   3.176   5.326   2.584
 7202TIP3    H121549   3.084   5.312   2.604
 7202TIP3    H221550   3.178   5.344   2.490
 7203TIP3   OH221551   6.199   7.167   0.052
 7203TIP3    H121552   6.171   7.176  -0.040
 7203TIP3    H221553   6.204   7.257   0.084
 7204TIP3   OH221554   6.353   2.687   4.047
 7204TIP3    H121555   6.334   2.594   4.039
 7204TIP3    H221556   6.273   2.725   4.084
 7205TIP3   OH221557   6.721   2.734   5.299
 7205TIP3    H121558   6.760   2.752   5.214
 7205TIP3    H221559   6.641   2.787   5.300
 7206TIP3   OH221560   7.037   5.394   4.370
 7206TIP3    H121561   6.961   5.436   4.411
 7206TIP3    H221562   7.057   5.450   4.295
 7207TIP3   OH221563   6.014   2.858   0.831
 7207TIP3    H121564   6.020   2.773   0.874
 7207TIP3    H221565   6.104   2.881   0.809
 7208TIP3   OH221566   4.094   5.244   1.789
 7208TIP3    H121567   4.159   5.225   1.857
 7208TIP3    H221568   4.137   5.218   1.707
 7209TIP3   OH221569   7.544   1.695   2.668
 7209TIP3    H121570   7.604   1.621   2.673
 7209TIP3    H221571   7.591   1.767   2.711
 7210TIP3   OH221572   1.100   5.310   5.493
 7210TIP3    H121573   1.102   5.292   5.399
 7210TIP3    H221574   1.190   5.300   5.522
 7211TIP3   OH221575   1.186   2.193   4.351
 7211TIP3    H121576   1.172   2.287   4.359
 7211TIP3    H221577   1.126   2.154   4.416
 7212TIP3   OH221578   4.622   2.168   1.541
 7212TIP3    H121579   4.679   2.231   1.496
 7212TIP3    H221580   4.637   2.085   1.495
 7213TIP3   OH221581   6.348   3.672   6.538
 7213TIP3    H121582   6.427   3.620   6.548
 7213TIP3    H221583   6.379   3.757   6.505
 7214TIP3   OH221584   2.763   5.100   5.357
 7214TIP3    H121585   2.766   5.183   5.404
 7214TIP3    H221586   2.805   5.118   5.273
 7215TIP3   OH221587   1.958   5.112   1.397
 7215TIP3    H121588   1.906   5.100   1.476
 7215TIP3    H221589   1.896   5.104   1.325
 7216TIP3   OH221590   4.869   2.616   1.072
 7216TIP3    H121591   4.946   2.569   1.041
 7216TIP3    H221592   4.867   2.599   1.167
 7217TIP3   OH221593   5.202   2.583   0.898
 7217TIP3    H121594   5.135   2.626   0.846
 7217TIP3    H221595   5.207   2.494   0.863
 7218TIP3   OH221596   4.142   7.193   4.969
 7218TIP3    H121597   4.062   7.191   4.916
 7218TIP3    H221598   4.140   7.111   5.019
 7219TIP3   OH221599   1.502   1.863   5.573
 7219TIP3    H121600   1.531   1.953   5.559
 7219TIP3    H221601   1.407   1.865   5.558
 7220TIP3   OH221602   6.185   3.008   3.285
 7220TIP3    H121603   6.106   2.956   3.302
 7220TIP3    H221604   6.256   2.955   3.322
 7221TIP3   OH221605   8.204   1.422   3.419
 7221TIP3    H121606   8.166   1.439   3.333
 7221TIP3    H221607   8.292   1.461   3.414
 7222TIP3   OH221608   1.529   1.260   0.263
 7222TIP3    H121609   1.489   1.177   0.288
 7222TIP3    H221610   1.521   1.315   0.341
 7223TIP3   OH221611   4.917   5.451   0.865
 7223TIP3    H121612   4.950   5.539   0.847
 7223TIP3    H221613   4.829   5.451   0.827
 7224TIP3   OH221614   3.733   6.311   4.362
 7224TIP3    H121615   3.760   6.226   4.326
 7224TIP3    H221616   3.661   6.290   4.421
 7225TIP3   OH221617   2.139   4.983   1.229
 7225TIP3    H121618   2.124   4.889   1.219
 7225TIP3    H221619   2.105   5.004   1.316
 7226TIP3   OH221620   7.669   5.215   6.628
 7226TIP3    H121621   7.742   5.190   6.571
 7226TIP3    H221622   7.631   5.292   6.586
 7227TIP3   OH221623   4.288   2.882   6.492
 7227TIP3    H121624   4.249   2.818   6.552
 7227TIP3    H221625   4.222   2.894   6.424
 7228TIP3   OH221626   3.675   2.591   1.672
 7228TIP3    H121627   3.704   2.679   1.697
 7228TIP3    H221628   3.632   2.557   1.750
 7229TIP3   OH221629   5.819   2.352   1.722
 7229TIP3    H121630   5.912   2.344   1.744
 7229TIP3    H221631   5.811   2.440   1.686
 7230TIP3   OH221632   1.473   2.509   1.662
 7230TIP3    H121633   1.505   2.578   1.603
 7230TIP3    H221634   1.433   2.557   1.734
 7231TIP3   OH221635   7.013   1.384   3.634
 7231TIP3    H121636   7.100   1.393   3.595
 7231TIP3    H221637   6.986   1.474   3.652
 7232TIP3   OH221638   2.004   7.651   2.462
 7232TIP3    H121639   1.974   7.568   2.500
 7232TIP3    H221640   2.099   7.640   2.452
 7233TIP3   OH221641   2.520   1.967   5.398
 7233TIP3    H121642   2.510   2.054   5.360
 7233TIP3    H221643   2.608   1.968   5.438
 7234TIP3   OH221644   2.343   2.119  -0.004
 7234TIP3    H121645   2.427   2.122  -0.050
 7234TIP3    H221646   2.362   2.152   0.084
 7235TIP3   OH221647   6.934   5.541   2.417
 7235TIP3    H121648   6.986   5.596   2.476
 7235TIP3    H221649   6.899   5.601   2.352
 7236TIP3   OH221650   4.946   0.150   4.349
 7236TIP3    H121651   4.906   0.194   4.273
 7236TIP3    H221652   5.040   0.156   4.333
 7237TIP3   OH221653   7.336   3.267   2.798
 7237TIP3    H121654   7.382   3.193   2.837
 7237TIP3    H221655   7.275   3.297   2.866
 7238TIP3   OH221656   6.351   1.960   5.531
 7238TIP3    H121657   6.428   1.933   5.581
 7238TIP3    H221658   6.276   1.927   5.582
 7239TIP3   OH221659   6.815   1.664   5.040
 7239TIP3    H121660   6.768   1.581   5.032
 7239TIP3    H221661   6.748   1.731   5.028
 7240TIP3   OH221662   2.301   4.781   4.530
 7240TIP3    H121663   2.213   4.798   4.497
 7240TIP3    H221664   2.306   4.833   4.610
 7241TIP3   OH221665   5.536   6.824   5.360
 7241TIP3    H121666   5.549   6.839   5.454
 7241TIP3    H221667   5.623   6.797   5.329
 7242TIP3   OH221668   8.184   5.365   1.141
 7242TIP3    H121669   8.250   5.365   1.072
 7242TIP3    H221670   8.141   5.450   1.133
 7243TIP3   OH221671   1.723   3.996   0.795
 7243TIP3    H121672   1.692   3.910   0.769
 7243TIP3    H221673   1.728   4.046   0.713
 7244TIP3   OH221674   6.558   7.141   0.811
 7244TIP3    H121675   6.489   7.131   0.877
 7244TIP3    H221676   6.521   7.204   0.748
 7245TIP3   OH221677   4.132   3.067   4.348
 7245TIP3    H121678   4.119   3.109   4.433
 7245TIP3    H221679   4.226   3.071   4.333
 7246TIP3   OH221680   6.188   5.348   0.000
 7246TIP3    H121681   6.245   5.377   0.071
 7246TIP3    H221682   6.107   5.397   0.012
 7247TIP3   OH221683   1.974   7.590   0.566
 7247TIP3    H121684   1.933   7.515   0.609
 7247TIP3    H221685   2.056   7.555   0.530
 7248TIP3   OH221686   0.098   5.746   5.832
 7248TIP3    H121687   0.122   5.806   5.903
 7248TIP3    H221688   0.029   5.792   5.784
 7249TIP3   OH221689   7.962   5.126   3.951
 7249TIP3    H121690   7.869   5.117   3.970
 7249TIP3    H221691   7.967   5.135   3.856
 7250TIP3   OH221692   7.218   1.916   6.634
 7250TIP3    H121693   7.223   1.912   6.538
 7250TIP3    H221694   7.304   1.886   6.664
 7251TIP3   OH221695   2.668   2.191   5.069
 7251TIP3    H121696   2.708   2.108   5.095
 7251TIP3    H221697   2.574   2.171   5.063
 7252TIP3   OH221698   3.686   0.230   2.501
 7252TIP3    H121699   3.591   0.239   2.492
 7252TIP3    H221700   3.714   0.312   2.542
 7253TIP3   OH221701   4.153   6.502   5.324
 7253TIP3    H121702   4.146   6.577   5.382
 7253TIP3    H221703   4.073   6.504   5.272
 7254TIP3   OH221704   4.565   1.039   6.606
 7254TIP3    H121705   4.642   0.991   6.636
 7254TIP3    H221706   4.537   0.992   6.527
 7255TIP3   OH221707   0.886   7.307   5.636
 7255TIP3    H121708   0.896   7.215   5.662
 7255TIP3    H221709   0.969   7.328   5.593
 7256TIP3   OH221710   5.220   6.677   5.579
 7256TIP3    H121711   5.213   6.751   5.519
 7256TIP3    H221712   5.213   6.600   5.523
 7257TIP3   OH221713   0.221   5.242   4.907
 7257TIP3    H121714   0.203   5.315   4.849
 7257TIP3    H221715   0.222   5.281   4.995
 7258TIP3   OH221716   3.168   5.830   0.760
 7258TIP3    H121717   3.261   5.807   0.759
 7258TIP3    H221718   3.138   5.814   0.671
 7259TIP3   OH221719   4.179   0.125   4.691
 7259TIP3    H121720   4.140   0.043   4.664
 7259TIP3    H221721   4.251   0.139   4.629
 7260TIP3   OH221722   2.222   2.131   5.289
 7260TIP3    H121723   2.171   2.204   5.255
 7260TIP3    H221724   2.301   2.170   5.323
 7261TIP3   OH221725   2.660   5.424   1.032
 7261TIP3    H121726   2.662   5.419   1.128
 7261TIP3    H221727   2.634   5.336   1.004
 7262TIP3   OH221728   2.619   3.248   1.259
 7262TIP3    H121729   2.541   3.300   1.282
 7262TIP3    H221730   2.658   3.296   1.186
 7263TIP3   OH221731   5.888   6.463   4.487
 7263TIP3    H121732   5.981   6.457   4.506
 7263TIP3    H221733   5.877   6.549   4.446
 7264TIP3   OH221734   3.241   7.768   4.556
 7264TIP3    H121735   3.234   7.816   4.474
 7264TIP3    H221736   3.334   7.744   4.561
 7265TIP3   OH221737   2.821   5.571   2.194
 7265TIP3    H121738   2.739   5.598   2.235
 7265TIP3    H221739   2.873   5.651   2.190
 7266TIP3   OH221740   1.108   7.010   3.413
 7266TIP3    H121741   1.032   6.953   3.421
 7266TIP3    H221742   1.183   6.952   3.431
 7267TIP3   OH221743   8.097   6.957   5.644
 7267TIP3    H121744   8.037   6.930   5.574
 7267TIP3    H221745   8.039   6.986   5.715
 7268TIP3   OH221746   2.011   1.174   3.472
 7268TIP3    H121747   2.106   1.189   3.475
 7268TIP3    H221748   2.000   1.109   3.403
 7269TIP3   OH221749   0.746   4.159   4.030
 7269TIP3    H121750   0.683   4.087   4.040
 7269TIP3    H221751   0.727   4.217   4.104
 7270TIP3   OH221752   5.375   1.789   6.734
 7270TIP3    H121753   5.397   1.703   6.771
 7270TIP3    H221754   5.395   1.851   6.803
 7271TIP3   OH221755   5.652   0.583   2.119
 7271TIP3    H121756   5.575   0.548   2.163
 7271TIP3    H221757   5.656   0.674   2.147
 7272TIP3   OH221758   6.607   2.120   4.793
 7272TIP3    H121759   6.676   2.059   4.770
 7272TIP3    H221760   6.630   2.201   4.746
 7273TIP3   OH221761   7.380   4.736   1.139
 7273TIP3    H121762   7.392   4.817   1.189
 7273TIP3    H221763   7.285   4.727   1.129
 7274TIP3   OH221764   1.895   2.780   2.333
 7274TIP3    H121765   1.871   2.868   2.362
 7274TIP3    H221766   1.989   2.785   2.316
 7275TIP3   OH221767   5.035   2.052   6.233
 7275TIP3    H121768   5.042   2.070   6.139
 7275TIP3    H221769   5.045   2.138   6.275
 7276TIP3   OH221770   0.438   0.292   1.612
 7276TIP3    H121771   0.529   0.264   1.615
 7276TIP3    H221772   0.389   0.213   1.588
 7277TIP3   OH221773   1.330   6.884   4.907
 7277TIP3    H121774   1.288   6.851   4.827
 7277TIP3    H221775   1.416   6.915   4.878
 7278TIP3   OH221776   2.272   4.008   1.455
 7278TIP3    H121777   2.281   4.099   1.426
 7278TIP3    H221778   2.246   4.014   1.547
 7279TIP3   OH221779   0.766   3.692   0.746
 7279TIP3    H121780   0.723   3.614   0.782
 7279TIP3    H221781   0.694   3.747   0.716
 7280TIP3   OH221782   2.924   0.705   3.765
 7280TIP3    H121783   2.971   0.772   3.716
 7280TIP3    H221784   2.840   0.696   3.720
 7281TIP3   OH221785   0.977   2.436   4.727
 7281TIP3    H121786   0.927   2.355   4.733
 7281TIP3    H221787   0.990   2.464   4.818
 7282TIP3   OH221788   0.959   6.824   4.179
 7282TIP3    H121789   0.953   6.827   4.274
 7282TIP3    H221790   0.985   6.912   4.153
 7283TIP3   OH221791   3.846   6.063   4.569
 7283TIP3    H121792   3.899   6.082   4.646
 7283TIP3    H221793   3.756   6.079   4.598
 7284TIP3   OH221794   6.855   2.764   0.363
 7284TIP3    H121795   6.948   2.747   0.381
 7284TIP3    H221796   6.839   2.850   0.401
 7285TIP3   OH221797   8.275   4.322   5.662
 7285TIP3    H121798   8.242   4.400   5.705
 7285TIP3    H221799   8.306   4.352   5.576
 7286TIP3   OH221800   5.808   5.154   0.270
 7286TIP3    H121801   5.890   5.204   0.273
 7286TIP3    H221802   5.743   5.211   0.311
 7287TIP3   OH221803   1.566   4.309   4.112
 7287TIP3    H121804   1.480   4.281   4.143
 7287TIP3    H221805   1.550   4.389   4.061
 7288TIP3   OH221806   1.749   3.066   1.460
 7288TIP3    H121807   1.764   2.976   1.428
 7288TIP3    H221808   1.659   3.065   1.493
 7289TIP3   OH221809   4.517   1.454   0.877
 7289TIP3    H121810   4.482   1.368   0.898
 7289TIP3    H221811   4.599   1.459   0.925
 7290TIP3   OH221812   4.760   2.334   2.921
 7290TIP3    H121813   4.762   2.426   2.893
 7290TIP3    H221814   4.669   2.318   2.945
 7291TIP3   OH221815   1.457   5.627   4.508
 7291TIP3    H121816   1.361   5.619   4.509
 7291TIP3    H221817   1.486   5.568   4.439
 7292TIP3   OH221818   1.707   3.964   4.123
 7292TIP3    H121819   1.768   3.941   4.053
 7292TIP3    H221820   1.623   3.929   4.094
 7293TIP3   OH221821   4.980   0.491   3.340
 7293TIP3    H121822   5.028   0.409   3.341
 7293TIP3    H221823   5.018   0.543   3.411
 7294TIP3   OH221824   5.973   5.170   0.747
 7294TIP3    H121825   5.929   5.119   0.815
 7294TIP3    H221826   6.032   5.108   0.705
 7295TIP3   OH221827   1.124   2.230   0.047
 7295TIP3    H121828   1.133   2.163  -0.021
 7295TIP3    H221829   1.103   2.311  -0.001
 7296TIP3   OH221830   0.565   1.160   4.243
 7296TIP3    H121831   0.626   1.179   4.314
 7296TIP3    H221832   0.483   1.202   4.270
 7297TIP3   OH221833   4.419   2.284   6.648
 7297TIP3    H121834   4.508   2.261   6.677
 7297TIP3    H221835   4.419   2.264   6.555
 7298TIP3   OH221836   5.681   1.697   3.758
 7298TIP3    H121837   5.727   1.738   3.832
 7298TIP3    H221838   5.627   1.768   3.722
 7299TIP3   OH221839   5.711   6.658   0.512
 7299TIP3    H121840   5.677   6.728   0.568
 7299TIP3    H221841   5.804   6.679   0.503
 7300TIP3   OH221842   7.491   7.545   4.785
 7300TIP3    H121843   7.411   7.533   4.735
 7300TIP3    H221844   7.484   7.483   4.857
 7301TIP3   OH221845   3.120   2.211   3.564
 7301TIP3    H121846   3.165   2.290   3.594
 7301TIP3    H221847   3.152   2.197   3.475
 7302TIP3   OH221848   0.219   4.670   1.175
 7302TIP3    H121849   0.239   4.647   1.265
 7302TIP3    H221850   0.290   4.631   1.124
 7303TIP3   OH221851   6.937   6.611   2.049
 7303TIP3    H121852   6.986   6.586   1.970
 7303TIP3    H221853   6.915   6.527   2.090
 7304TIP3   OH221854   5.597   5.148   4.243
 7304TIP3    H121855   5.628   5.161   4.333
 7304TIP3    H221856   5.648   5.210   4.191
 7305TIP3   OH221857   7.059   7.093   5.031
 7305TIP3    H121858   7.067   7.053   4.944
 7305TIP3    H221859   6.964   7.105   5.042
 7306TIP3   OH221860   4.195   0.061   0.523
 7306TIP3    H121861   4.154   0.119   0.587
 7306TIP3    H221862   4.288   0.065   0.544
 7307TIP3   OH221863   0.146   2.934   6.328
 7307TIP3    H121864   0.217   2.994   6.351
 7307TIP3    H221865   0.116   2.899   6.412
 7308TIP3   OH221866   4.562   7.777   5.127
 7308TIP3    H121867   4.566   7.872   5.127
 7308TIP3    H221868   4.517   7.755   5.208
 7309TIP3   OH221869   3.743   3.928   0.087
 7309TIP3    H121870   3.763   3.926  -0.006
 7309TIP3    H221871   3.738   4.021   0.109
 7310TIP3   OH221872   3.390   0.387   2.904
 7310TIP3    H121873   3.314   0.381   2.845
 7310TIP3    H221874   3.394   0.480   2.927
 7311TIP3   OH221875   8.066   7.091   5.316
 7311TIP3    H121876   8.005   7.022   5.341
 7311TIP3    H221877   8.068   7.150   5.392
 7312TIP3   OH221878   3.065   3.386   1.076
 7312TIP3    H121879   3.007   3.327   1.028
 7312TIP3    H221880   3.043   3.473   1.042
 7313TIP3   OH221881   2.048   6.743   5.975
 7313TIP3    H121882   1.968   6.705   6.013
 7313TIP3    H221883   2.094   6.668   5.936
 7314TIP3   OH221884   1.024   5.196   2.340
 7314TIP3    H121885   0.972   5.239   2.273
 7314TIP3    H221886   0.998   5.240   2.422
 7315TIP3   OH221887   4.259   2.468   4.325
 7315TIP3    H121888   4.225   2.400   4.384
 7315TIP3    H221889   4.315   2.421   4.264
 7316TIP3   OH221890   7.013   6.463   0.257
 7316TIP3    H121891   7.025   6.393   0.193
 7316TIP3    H221892   6.958   6.423   0.325
 7317TIP3   OH221893   3.462   7.127   4.528
 7317TIP3    H121894   3.400   7.190   4.566
 7317TIP3    H221895   3.548   7.162   4.550
 7318TIP3   OH221896   2.619   6.772   6.427
 7318TIP3    H121897   2.613   6.774   6.332
 7318TIP3    H221898   2.623   6.679   6.449
 7319TIP3   OH221899   8.194   4.793   0.062
 7319TIP3    H121900   8.140   4.719   0.034
 7319TIP3    H221901   8.181   4.859  -0.006
 7320TIP3   OH221902   4.419   0.867   5.377
 7320TIP3    H121903   4.443   0.957   5.354
 7320TIP3    H221904   4.453   0.855   5.465
 7321TIP3   OH221905   4.766   1.710   1.858
 7321TIP3    H121906   4.806   1.761   1.788
 7321TIP3    H221907   4.826   1.719   1.932
 7322TIP3   OH221908   1.382   2.066   3.063
 7322TIP3    H121909   1.475   2.049   3.048
 7322TIP3    H221910   1.378   2.102   3.151
 7323TIP3   OH221911   3.162   1.785   4.000
 7323TIP3    H121912   3.197   1.844   3.932
 7323TIP3    H221913   3.068   1.800   3.998
 7324TIP3   OH221914   6.886   2.199   2.173
 7324TIP3    H121915   6.873   2.107   2.194
 7324TIP3    H221916   6.873   2.205   2.079
 7325TIP3   OH221917   2.315   1.890   1.239
 7325TIP3    H121918   2.239   1.855   1.285
 7325TIP3    H221919   2.279   1.945   1.170
 7326TIP3   OH221920   0.999   0.511   5.906
 7326TIP3    H121921   0.971   0.596   5.940
 7326TIP3    H221922   0.918   0.466   5.884
 7327TIP3   OH221923   1.856   6.453   3.011
 7327TIP3    H121924   1.906   6.373   2.999
 7327TIP3    H221925   1.906   6.503   3.076
 7328TIP3   OH221926   5.159   2.724   4.990
 7328TIP3    H121927   5.242   2.679   4.978
 7328TIP3    H221928   5.159   2.793   4.923
 7329TIP3   OH221929   0.156   3.110   2.461
 7329TIP3    H121930   0.069   3.091   2.496
 7329TIP3    H221931   0.147   3.102   2.366
 7330TIP3   OH221932   3.846   0.766   3.668
 7330TIP3    H121933   3.888   0.737   3.587
 7330TIP3    H221934   3.754   0.777   3.645
 7331TIP3   OH221935   0.887   0.251   4.138
 7331TIP3    H121936   0.798   0.216   4.140
 7331TIP3    H221937   0.944   0.174   4.146
 7332TIP3   OH221938   1.592   4.871   0.810
 7332TIP3    H121939   1.528   4.869   0.881
 7332TIP3    H221940   1.627   4.960   0.812
 7333TIP3   OH221941   3.950   2.233   5.456
 7333TIP3    H121942   3.949   2.305   5.519
 7333TIP3    H221943   3.956   2.154   5.511
 7334TIP3   OH221944   4.774   2.142   0.789
 7334TIP3    H121945   4.712   2.193   0.738
 7334TIP3    H221946   4.720   2.083   0.842
 7335TIP3   OH221947   8.218   2.604   4.057
 7335TIP3    H121948   8.177   2.678   4.101
 7335TIP3    H221949   8.292   2.642   4.009
 7336TIP3   OH221950   5.981   7.305   0.239
 7336TIP3    H121951   5.936   7.382   0.274
 7336TIP3    H221952   5.924   7.231   0.261
 7337TIP3   OH221953   0.577   6.591   4.649
 7337TIP3    H121954   0.494   6.580   4.602
 7337TIP3    H221955   0.620   6.664   4.605
 7338TIP3   OH221956   5.947   5.734   2.111
 7338TIP3    H121957   6.016   5.750   2.046
 7338TIP3    H221958   5.867   5.728   2.060
 7339TIP3   OH221959   5.993   2.452   3.124
 7339TIP3    H121960   5.942   2.516   3.172
 7339TIP3    H221961   5.969   2.464   3.032
 7340TIP3   OH221962   6.712   5.694   0.256
 7340TIP3    H121963   6.680   5.684   0.345
 7340TIP3    H221964   6.654   5.759   0.216
 7341TIP3   OH221965   2.808   2.168   4.802
 7341TIP3    H121966   2.721   2.178   4.840
 7341TIP3    H221967   2.839   2.084   4.836
 7342TIP3   OH221968   0.402   5.878   0.014
 7342TIP3    H121969   0.464   5.808   0.033
 7342TIP3    H221970   0.319   5.847   0.050
 7343TIP3   OH221971   5.036   4.366   0.975
 7343TIP3    H121972   5.012   4.285   1.018
 7343TIP3    H221973   4.964   4.384   0.914
 7344TIP3   OH221974   6.151   0.162   5.947
 7344TIP3    H121975   6.065   0.195   5.972
 7344TIP3    H221976   6.136   0.069   5.928
 7345TIP3   OH221977   0.517   0.479   0.228
 7345TIP3    H121978   0.576   0.511   0.160
 7345TIP3    H221979   0.555   0.510   0.310
 7346TIP3   OH221980   1.362   4.709   6.742
 7346TIP3    H121981   1.353   4.803   6.758
 7346TIP3    H221982   1.452   4.699   6.710
 7347TIP3   OH221983   4.375   1.623   2.380
 7347TIP3    H121984   4.396   1.694   2.441
 7347TIP3    H221985   4.306   1.659   2.325
 7348TIP3   OH221986   1.784   3.872   1.740
 7348TIP3    H121987   1.794   3.778   1.723
 7348TIP3    H221988   1.690   3.889   1.732
 7349TIP3   OH221989   6.051   7.274   4.132
 7349TIP3    H121990   5.975   7.329   4.148
 7349TIP3    H221991   6.032   7.192   4.178
 7350TIP3   OH221992   0.720   3.133   0.692
 7350TIP3    H121993   0.640   3.104   0.737
 7350TIP3    H221994   0.767   3.051   0.673
 7351TIP3   OH221995   7.675   0.141   6.241
 7351TIP3    H121996   7.742   0.207   6.258
 7351TIP3    H221997   7.593   0.191   6.239
 7352TIP3   OH221998   6.513   1.719   1.942
 7352TIP3    H121999   6.459   1.640   1.938
 7352TIP3    H222000   6.476   1.777   1.877
 7353TIP3   OH222001   7.656   4.646   5.568
 7353TIP3    H122002   7.604   4.582   5.617
 7353TIP3    H222003   7.595   4.683   5.504
 7354TIP3   OH222004   2.533   6.368   5.726
 7354TIP3    H122005   2.605   6.429   5.713
 7354TIP3    H222006   2.492   6.360   5.640
 7355TIP3   OH222007   0.757   0.551   0.085
 7355TIP3    H122008   0.792   0.608   0.153
 7355TIP3    H222009   0.806   0.469   0.094
 7356TIP3   OH222010   0.665   7.439   4.688
 7356TIP3    H122011   0.610   7.405   4.758
 7356TIP3    H222012   0.738   7.377   4.682
 7357TIP3   OH222013   4.193   4.160   4.332
 7357TIP3    H122014   4.253   4.217   4.381
 7357TIP3    H222015   4.210   4.072   4.366
 7358TIP3   OH222016   5.884   1.346   1.016
 7358TIP3    H122017   5.916   1.270   0.968
 7358TIP3    H222018   5.789   1.345   1.004
 7359TIP3   OH222019   5.979   4.846   6.040
 7359TIP3    H122020   5.955   4.939   6.041
 7359TIP3    H222021   5.912   4.806   5.985
 7360TIP3   OH222022   1.402   7.703   6.426
 7360TIP3    H122023   1.393   7.670   6.516
 7360TIP3    H222024   1.407   7.798   6.435
 7361TIP3   OH222025   0.066   5.051   6.754
 7361TIP3    H122026   0.070   5.043   6.659
 7361TIP3    H222027   0.035   4.966   6.785
 7362TIP3   OH222028   8.189   7.275   5.139
 7362TIP3    H122029   8.188   7.264   5.044
 7362TIP3    H222030   8.175   7.187   5.173
 7363TIP3   OH222031   0.512   2.385   4.735
 7363TIP3    H122032   0.590   2.397   4.681
 7363TIP3    H222033   0.441   2.377   4.671
 7364TIP3   OH222034   3.611   5.940   6.570
 7364TIP3    H122035   3.543   5.966   6.633
 7364TIP3    H222036   3.564   5.890   6.503
 7365TIP3   OH222037   0.513   2.151   4.894
 7365TIP3    H122038   0.541   2.085   4.831
 7365TIP3    H222039   0.521   2.234   4.846
 7366TIP3   OH222040   4.851   4.973   0.922
 7366TIP3    H122041   4.789   5.024   0.869
 7366TIP3    H222042   4.937   5.005   0.896
 7367TIP3   OH222043   0.604   1.017   5.783
 7367TIP3    H122044   0.693   0.989   5.763
 7367TIP3    H222045   0.559   0.937   5.811
 7368TIP3   OH222046   3.376   5.319   4.256
 7368TIP3    H122047   3.469   5.300   4.262
 7368TIP3    H222048   3.333   5.245   4.299
 7369TIP3   OH222049   1.236   1.918   5.557
 7369TIP3    H122050   1.205   1.995   5.605
 7369TIP3    H222051   1.216   1.937   5.465
 7370TIP3   OH222052   5.578   0.516   4.181
 7370TIP3    H122053   5.624   0.446   4.226
 7370TIP3    H222054   5.537   0.567   4.251
 7371TIP3   OH222055   3.279   6.558   3.624
 7371TIP3    H122056   3.364   6.597   3.645
 7371TIP3    H222057   3.258   6.505   3.702
 7372TIP3   OH222058   3.840   1.316   4.028
 7372TIP3    H122059   3.752   1.313   4.067
 7372TIP3    H222060   3.827   1.357   3.943
 7373TIP3   OH222061   5.116   1.108   1.554
 7373TIP3    H122062   5.114   1.013   1.567
 7373TIP3    H222063   5.152   1.118   1.466
 7374TIP3   OH222064   7.794   5.514   2.326
 7374TIP3    H122065   7.812   5.479   2.413
 7374TIP3    H222066   7.769   5.605   2.342
 7375TIP3   OH222067   6.429   0.084   1.682
 7375TIP3    H122068   6.521   0.098   1.706
 7375TIP3    H222069   6.397   0.172   1.660
 7376TIP3   OH222070   7.711   0.093   5.246
 7376TIP3    H122071   7.753   0.060   5.325
 7376TIP3    H222072   7.662   0.169   5.275
 7377TIP3   OH222073   4.324   4.846   2.796
 7377TIP3    H122074   4.357   4.813   2.880
 7377TIP3    H222075   4.249   4.790   2.776
 7378TIP3   OH222076   7.561   7.135   6.427
 7378TIP3    H122077   7.471   7.165   6.417
 7378TIP3    H222078   7.569   7.109   6.519
 7379TIP3   OH222079   0.740   6.599   5.772
 7379TIP3    H122080   0.768   6.570   5.686
 7379TIP3    H222081   0.770   6.531   5.832
 7380TIP3   OH222082   5.335   2.262   5.705
 7380TIP3    H122083   5.276   2.191   5.680
 7380TIP3    H222084   5.292   2.341   5.670
 7381TIP3   OH222085   2.620   4.188   0.096
 7381TIP3    H122086   2.576   4.112   0.134
 7381TIP3    H222087   2.583   4.195   0.008
 7382TIP3   OH222088   2.690   6.244   2.956
 7382TIP3    H122089   2.649   6.320   2.914
 7382TIP3    H222090   2.734   6.281   3.032
 7383TIP3   OH222091   1.342   6.463   5.202
 7383TIP3    H122092   1.434   6.492   5.205
 7383TIP3    H222093   1.342   6.380   5.249
 7384TIP3   OH222094   5.837   7.161   2.183
 7384TIP3    H122095   5.856   7.159   2.277
 7384TIP3    H222096   5.921   7.145   2.141
 7385TIP3   OH222097   4.377   4.482   3.723
 7385TIP3    H122098   4.302   4.472   3.664
 7385TIP3    H222099   4.355   4.427   3.799
 7386TIP3   OH222100   0.879   4.522   0.553
 7386TIP3    H122101   0.849   4.435   0.580
 7386TIP3    H222102   0.968   4.507   0.519
 7387TIP3   OH222103   7.068   4.748   6.302
 7387TIP3    H122104   7.127   4.707   6.365
 7387TIP3    H222105   7.077   4.696   6.223
 7388TIP3   OH222106   1.260   7.152   1.864
 7388TIP3    H122107   1.242   7.236   1.820
 7388TIP3    H222108   1.281   7.092   1.793
 7389TIP3   OH222109   7.717   1.251   5.719
 7389TIP3    H122110   7.782   1.280   5.654
 7389TIP3    H222111   7.683   1.168   5.684
 7390TIP3   OH222112   7.149   5.781   5.343
 7390TIP3    H122113   7.175   5.873   5.350
 7390TIP3    H222114   7.194   5.749   5.265
 7391TIP3   OH222115   2.929   2.543   5.765
 7391TIP3    H122116   2.943   2.535   5.671
 7391TIP3    H222117   2.875   2.622   5.775
 7392TIP3   OH222118   5.416   3.893   4.563
 7392TIP3    H122119   5.372   3.857   4.486
 7392TIP3    H222120   5.355   3.877   4.636
 7393TIP3   OH222121   0.945   3.501   5.599
 7393TIP3    H122122   0.917   3.573   5.543
 7393TIP3    H222123   0.883   3.430   5.580
 7394TIP3   OH222124   2.242   6.191   0.869
 7394TIP3    H122125   2.201   6.104   0.869
 7394TIP3    H222126   2.311   6.184   0.935
 7395TIP3   OH222127   6.875   4.533   0.649
 7395TIP3    H122128   6.796   4.506   0.603
 7395TIP3    H222129   6.885   4.468   0.719
 7396TIP3   OH222130   3.295   0.910   6.233
 7396TIP3    H122131   3.225   0.933   6.294
 7396TIP3    H222132   3.250   0.893   6.150
 7397TIP3   OH222133   7.355   5.003   4.175
 7397TIP3    H122134   7.433   4.972   4.221
 7397TIP3    H222135   7.299   4.926   4.166
 7398TIP3   OH222136   5.256   0.207   3.597
 7398TIP3    H122137   5.341   0.166   3.613
 7398TIP3    H222138   5.193   0.136   3.605
 7399TIP3   OH222139   3.004   0.912   0.298
 7399TIP3    H122140   2.952   0.831   0.297
 7399TIP3    H222141   3.049   0.913   0.214
 7400TIP3   OH222142   6.769   0.602   4.913
 7400TIP3    H122143   6.785   0.548   4.835
 7400TIP3    H222144   6.674   0.598   4.926
 7401TIP3   OH222145   5.822   4.467   6.633
 7401TIP3    H122146   5.821   4.379   6.670
 7401TIP3    H222147   5.844   4.454   6.541
 7402TIP3   OH222148   4.114   5.736   4.314
 7402TIP3    H122149   4.152   5.810   4.361
 7402TIP3    H222150   4.052   5.775   4.253
 7403TIP3   OH222151   4.553   7.216   2.888
 7403TIP3    H122152   4.610   7.140   2.880
 7403TIP3    H222153   4.472   7.190   2.844
 7404TIP3   OH222154   2.127   3.619   6.077
 7404TIP3    H122155   2.194   3.573   6.026
 7404TIP3    H222156   2.175   3.689   6.122
 7405TIP3   OH222157   2.880   6.921   4.195
 7405TIP3    H122158   2.819   6.958   4.131
 7405TIP3    H222159   2.873   6.826   4.183
 7406TIP3   OH222160   0.146   0.112   3.605
 7406TIP3    H122161   0.132   0.055   3.680
 7406TIP3    H222162   0.082   0.183   3.615
 7407TIP3   OH222163   5.222   1.911   2.312
 7407TIP3    H122164   5.134   1.917   2.274
 7407TIP3    H222165   5.207   1.890   2.404
 7408TIP3   OH222166   4.677   2.528   0.898
 7408TIP3    H122167   4.742   2.461   0.878
 7408TIP3    H222168   4.719   2.582   0.966
 7409TIP3   OH222169   1.373   0.048   6.394
 7409TIP3    H122170   1.386   0.105   6.469
 7409TIP3    H222171   1.326   0.102   6.330
 7410TIP3   OH222172   0.062   7.529   6.616
 7410TIP3    H122173   0.145   7.564   6.650
 7410TIP3    H222174   0.009   7.512   6.693
 7411TIP3   OH222175   7.179   2.091   1.011
 7411TIP3    H122176   7.102   2.096   0.953
 7411TIP3    H222177   7.251   2.123   0.957
 7412TIP3   OH222178   6.380   6.361   1.606
 7412TIP3    H122179   6.309   6.310   1.646
 7412TIP3    H222180   6.418   6.302   1.541
 7413TIP3   OH222181   6.544   0.460   5.975
 7413TIP3    H122182   6.594   0.384   5.947
 7413TIP3    H222183   6.470   0.423   6.025
 7414TIP3   OH222184   8.271   5.726   3.498
 7414TIP3    H122185   8.343   5.664   3.504
 7414TIP3    H222186   8.203   5.690   3.555
 7415TIP3   OH222187   0.916   5.291   4.038
 7415TIP3    H122188   0.910   5.196   4.035
 7415TIP3    H222189   0.925   5.317   3.946
 7416TIP3   OH222190   2.377   4.540   6.242
 7416TIP3    H122191   2.411   4.451   6.251
 7416TIP3    H222192   2.348   4.546   6.151
 7417TIP3   OH222193   7.291   5.759   0.575
 7417TIP3    H122194   7.279   5.805   0.492
 7417TIP3    H222195   7.261   5.670   0.558
 7418TIP3   OH222196   8.209   2.331   4.940
 7418TIP3    H122197   8.119   2.354   4.963
 7418TIP3    H222198   8.254   2.323   5.024
 7419TIP3   OH222199   4.362   5.387   6.397
 7419TIP3    H122200   4.433   5.407   6.458
 7419TIP3    H222201   4.406   5.375   6.312
 7420TIP3   OH222202   1.382   2.923   6.526
 7420TIP3    H122203   1.288   2.938   6.518
 7420TIP3    H222204   1.390   2.832   6.554
 7421TIP3   OH222205   0.236   5.832   4.872
 7421TIP3    H122206   0.294   5.763   4.904
 7421TIP3    H222207   0.293   5.887   4.818
 7422TIP3   OH222208   6.245   5.289   1.020
 7422TIP3    H122209   6.174   5.292   0.956
 7422TIP3    H222210   6.259   5.196   1.037
 7423TIP3   OH222211   4.919   7.611   0.186
 7423TIP3    H122212   4.856   7.674   0.150
 7423TIP3    H222213   4.956   7.567   0.109
 7424TIP3   OH222214   0.323   4.700   1.836
 7424TIP3    H122215   0.293   4.610   1.831
 7424TIP3    H222216   0.245   4.753   1.824
 7425TIP3   OH222217   4.424   1.976   1.240
 7425TIP3    H122218   4.362   2.039   1.203
 7425TIP3    H222219   4.380   1.891   1.231
 7426TIP3   OH222220   4.899   7.113   6.536
 7426TIP3    H122221   4.900   7.174   6.463
 7426TIP3    H222222   4.892   7.026   6.496
 7427TIP3   OH222223   3.105   5.008   1.135
 7427TIP3    H122224   3.070   4.952   1.065
 7427TIP3    H222225   3.058   5.091   1.125
 7428TIP3   OH222226   7.620   5.246   2.937
 7428TIP3    H122227   7.604   5.338   2.916
 7428TIP3    H222228   7.703   5.247   2.986
 7429TIP3   OH222229   2.779   1.318   0.355
 7429TIP3    H122230   2.732   1.262   0.416
 7429TIP3    H222231   2.789   1.264   0.276
 7430TIP3   OH222232   6.368   4.604   5.916
 7430TIP3    H122233   6.327   4.585   5.832
 7430TIP3    H222234   6.455   4.563   5.910
 7431TIP3   OH222235   3.201   6.987   0.119
 7431TIP3    H122236   3.154   7.067   0.140
 7431TIP3    H222237   3.291   7.016   0.101
 7432TIP3   OH222238   2.720   7.216   1.218
 7432TIP3    H122239   2.749   7.243   1.305
 7432TIP3    H222240   2.756   7.282   1.159
 7433TIP3   OH222241   7.336   5.526   3.930
 7433TIP3    H122242   7.249   5.557   3.903
 7433TIP3    H222243   7.366   5.471   3.857
 7434TIP3   OH222244   4.691   1.131   0.481
 7434TIP3    H122245   4.705   1.175   0.397
 7434TIP3    H222246   4.705   1.038   0.461
 7435TIP3   OH222247   5.124   2.884   4.724
 7435TIP3    H122248   5.113   2.966   4.772
 7435TIP3    H222249   5.199   2.898   4.667
 7436TIP3   OH222250   3.454   7.349   3.849
 7436TIP3    H122251   3.436   7.344   3.943
 7436TIP3    H222252   3.410   7.273   3.812
 7437TIP3   OH222253   3.841   7.564   4.588
 7437TIP3    H122254   3.853   7.505   4.662
 7437TIP3    H222255   3.829   7.650   4.627
 7438TIP3   OH222256   7.926   6.181   3.041
 7438TIP3    H122257   7.977   6.160   3.119
 7438TIP3    H222258   7.857   6.115   3.037
 7439TIP3   OH222259   8.202   0.871   5.980
 7439TIP3    H122260   8.113   0.887   6.012
 7439TIP3    H222261   8.252   0.846   6.058
 7440TIP3   OH222262   5.709   6.829   4.855
 7440TIP3    H122263   5.614   6.834   4.866
 7440TIP3    H222264   5.728   6.884   4.779
 7441TIP3   OH222265   1.572   2.749   1.077
 7441TIP3    H122266   1.512   2.822   1.065
 7441TIP3    H222267   1.547   2.686   1.010
 7442TIP3   OH222268   7.787   0.128   2.831
 7442TIP3    H122269   7.871   0.104   2.871
 7442TIP3    H222270   7.722   0.111   2.900
 7443TIP3   OH222271   4.414   6.684   0.903
 7443TIP3    H122272   4.385   6.750   0.840
 7443TIP3    H222273   4.463   6.735   0.969
 7444TIP3   OH222274   4.340   6.183   1.044
 7444TIP3    H122275   4.401   6.239   1.091
 7444TIP3    H222276   4.304   6.239   0.975
 7445TIP3   OH222277   2.918   2.703   3.129
 7445TIP3    H122278   2.930   2.742   3.043
 7445TIP3    H222279   2.927   2.777   3.190
 7446TIP3   OH222280   7.524   6.697   6.187
 7446TIP3    H122281   7.577   6.748   6.248
 7446TIP3    H222282   7.548   6.606   6.205
 7447TIP3   OH222283   3.615   6.839   2.567
 7447TIP3    H122284   3.706   6.821   2.542
 7447TIP3    H222285   3.586   6.760   2.612
 7448TIP3   OH222286   5.920   5.541   2.316
 7448TIP3    H122287   5.902   5.565   2.407
 7448TIP3    H222288   5.931   5.626   2.272
 7449TIP3   OH222289   6.077   7.438   1.895
 7449TIP3    H122290   6.120   7.516   1.859
 7449TIP3    H222291   6.031   7.470   1.973
 7450TIP3   OH222292   8.080   5.716   5.503
 7450TIP3    H122293   8.103   5.649   5.568
 7450TIP3    H222294   7.989   5.736   5.520
 7451TIP3   OH222295   6.998   3.373   2.421
 7451TIP3    H122296   6.925   3.433   2.438
 7451TIP3    H222297   7.057   3.421   2.364
 7452TIP3   OH222298   3.262   4.580   0.757
 7452TIP3    H122299   3.239   4.583   0.664
 7452TIP3    H222300   3.338   4.637   0.765
 7453TIP3   OH222301   6.083   2.304   6.628
 7453TIP3    H122302   5.993   2.320   6.598
 7453TIP3    H222303   6.130   2.277   6.549
 7454TIP3   OH222304   6.296   7.300   5.459
 7454TIP3    H122305   6.333   7.218   5.493
 7454TIP3    H222306   6.366   7.364   5.472
 7455TIP3   OH222307   4.293   3.462   1.487
 7455TIP3    H122308   4.272   3.446   1.395
 7455TIP3    H222309   4.278   3.377   1.529
 7456TIP3   OH222310   7.937   1.336   6.781
 7456TIP3    H122311   7.901   1.288   6.706
 7456TIP3    H222312   8.030   1.343   6.763
 7457TIP3   OH222313   0.235   1.146   5.579
 7457TIP3    H122314   0.147   1.148   5.540
 7457TIP3    H222315   0.223   1.103   5.663
 7458TIP3   OH222316   5.242   3.502   6.747
 7458TIP3    H122317   5.238   3.539   6.659
 7458TIP3    H222318   5.170   3.544   6.795
 7459TIP3   OH222319   6.060   3.842   6.568
 7459TIP3    H122320   6.153   3.862   6.573
 7459TIP3    H222321   6.050   3.762   6.620
 7460TIP3   OH222322   2.849   0.926   5.026
 7460TIP3    H122323   2.934   0.909   4.987
 7460TIP3    H222324   2.808   0.840   5.033
 7461TIP3   OH222325   2.561   5.888   3.182
 7461TIP3    H122326   2.486   5.875   3.239
 7461TIP3    H222327   2.567   5.808   3.131
 7462TIP3   OH222328   2.124   3.073   3.988
 7462TIP3    H122329   2.057   3.014   3.954
 7462TIP3    H222330   2.085   3.110   4.067
 7463TIP3   OH222331   2.544   4.664   1.007
 7463TIP3    H122332   2.525   4.660   0.913
 7463TIP3    H222333   2.620   4.723   1.013
 7464TIP3   OH222334   5.942   7.756   0.972
 7464TIP3    H122335   6.036   7.769   0.959
 7464TIP3    H222336   5.903   7.841   0.952
 7465TIP3   OH222337   0.019   2.696   4.551
 7465TIP3    H122338   0.088   2.695   4.484
 7465TIP3    H222339   0.043   2.625   4.611
 7466TIP3   OH222340   5.475   2.169   0.909
 7466TIP3    H122341   5.502   2.261   0.912
 7466TIP3    H222342   5.528   2.126   0.977
 7467TIP3   OH222343   5.304   3.398   5.242
 7467TIP3    H122344   5.389   3.430   5.273
 7467TIP3    H222345   5.276   3.336   5.309
 7468TIP3   OH222346   6.611   1.473   3.698
 7468TIP3    H122347   6.593   1.458   3.605
 7468TIP3    H222348   6.596   1.388   3.740
 7469TIP3   OH222349   3.610   0.805   2.901
 7469TIP3    H122350   3.572   0.788   2.814
 7469TIP3    H222351   3.704   0.802   2.887
 7470TIP3   OH222352   4.415   5.810   4.468
 7470TIP3    H122353   4.362   5.739   4.433
 7470TIP3    H222354   4.484   5.824   4.402
 7471TIP3   OH222355   3.653   6.985   1.117
 7471TIP3    H122356   3.568   6.986   1.072
 7471TIP3    H222357   3.631   6.974   1.210
 7472TIP3   OH222358   1.197   7.443   1.397
 7472TIP3    H122359   1.279   7.486   1.371
 7472TIP3    H222360   1.200   7.357   1.354
 7473TIP3   OH222361   3.264   0.599   3.900
 7473TIP3    H122362   3.180   0.622   3.862
 7473TIP3    H222363   3.283   0.511   3.866
 7474TIP3   OH222364   2.408   5.186   3.168
 7474TIP3    H122365   2.414   5.282   3.174
 7474TIP3    H222366   2.490   5.160   3.127
 7475TIP3   OH222367   7.097   5.692   2.844
 7475TIP3    H122368   7.128   5.612   2.886
 7475TIP3    H222369   7.058   5.743   2.915
 7476TIP3   OH222370   3.942   5.054   0.692
 7476TIP3    H122371   3.923   5.078   0.601
 7476TIP3    H222372   3.946   4.958   0.691
 7477TIP3   OH222373   2.556   4.398   3.884
 7477TIP3    H122374   2.489   4.458   3.851
 7477TIP3    H222375   2.591   4.442   3.962
 7478TIP3   OH222376   0.204   0.753   5.074
 7478TIP3    H122377   0.253   0.758   5.155
 7478TIP3    H222378   0.143   0.827   5.078
 7479TIP3   OH222379   3.227   7.723   2.539
 7479TIP3    H122380   3.145   7.698   2.498
 7479TIP3    H222381   3.287   7.650   2.519
 7480TIP3   OH222382   6.335   1.577   6.101
 7480TIP3    H122383   6.379   1.501   6.139
 7480TIP3    H222384   6.242   1.556   6.107
 7481TIP3   OH222385   5.748   6.332   2.946
 7481TIP3    H122386   5.800   6.318   2.867
 7481TIP3    H222387   5.674   6.272   2.938
 7482TIP3   OH222388   4.669   0.851   0.518
 7482TIP3    H122389   4.670   0.792   0.593
 7482TIP3    H222390   4.578   0.849   0.488
 7483TIP3   OH222391   2.042   4.827   1.537
 7483TIP3    H122392   2.063   4.734   1.537
 7483TIP3    H222393   1.968   4.834   1.477
 7484TIP3   OH222394   2.853   1.437   5.344
 7484TIP3    H122395   2.807   1.487   5.411
 7484TIP3    H222396   2.923   1.392   5.391
 7485TIP3   OH222397   0.939   2.538   1.514
 7485TIP3    H122398   0.999   2.512   1.584
 7485TIP3    H222399   0.954   2.473   1.445
 7486TIP3   OH222400   7.788   2.809   0.869
 7486TIP3    H122401   7.812   2.868   0.940
 7486TIP3    H222402   7.720   2.856   0.821
 7487TIP3   OH222403   8.149   2.831   0.985
 7487TIP3    H122404   8.202   2.751   0.995
 7487TIP3    H222405   8.060   2.803   1.007
 7488TIP3   OH222406   6.570   5.330   5.993
 7488TIP3    H122407   6.560   5.327   6.088
 7488TIP3    H222408   6.622   5.253   5.971
 7489TIP3   OH222409   3.422   2.664   1.530
 7489TIP3    H122410   3.459   2.742   1.491
 7489TIP3    H222411   3.489   2.632   1.590
 7490TIP3   OH222412   0.573   3.423   3.160
 7490TIP3    H122413   0.562   3.328   3.166
 7490TIP3    H222414   0.564   3.455   3.250
 7491TIP3   OH222415   0.444   4.041   3.531
 7491TIP3    H122416   0.375   4.053   3.597
 7491TIP3    H222417   0.487   4.126   3.525
 7492TIP3   OH222418   1.303   7.709   2.935
 7492TIP3    H122419   1.323   7.701   3.029
 7492TIP3    H222420   1.381   7.676   2.891
 7493TIP3   OH222421   6.992   7.171   6.622
 7493TIP3    H122422   6.973   7.092   6.570
 7493TIP3    H222423   6.909   7.192   6.664
 7494TIP3   OH222424   7.645   5.417   0.669
 7494TIP3    H122425   7.616   5.488   0.612
 7494TIP3    H222426   7.610   5.337   0.628
 7495TIP3   OH222427   2.810   3.243   2.697
 7495TIP3    H122428   2.760   3.300   2.639
 7495TIP3    H222429   2.900   3.274   2.691
 7496TIP3   OH222430   0.820   4.964   2.854
 7496TIP3    H122431   0.755   4.981   2.922
 7496TIP3    H222432   0.903   4.992   2.893
 7497TIP3   OH222433   3.987   6.176   2.187
 7497TIP3    H122434   4.037   6.217   2.258
 7497TIP3    H222435   4.051   6.166   2.116
 7498TIP3   OH222436   2.022   7.733   5.545
 7498TIP3    H122437   1.962   7.746   5.618
 7498TIP3    H222438   2.059   7.646   5.558
 7499TIP3   OH222439   3.702   3.492   3.113
 7499TIP3    H122440   3.672   3.420   3.057
 7499TIP3    H222441   3.652   3.568   3.082
 7500TIP3   OH222442   4.635   3.028   5.610
 7500TIP3    H122443   4.543   3.025   5.587
 7500TIP3    H222444   4.680   3.050   5.529
 7501TIP3   OH222445   0.930   1.105   4.123
 7501TIP3    H122446   0.875   1.028   4.106
 7501TIP3    H222447   1.019   1.075   4.106
 7502TIP3   OH222448   7.167   1.655   6.643
 7502TIP3    H122449   7.223   1.733   6.650
 7502TIP3    H222450   7.091   1.684   6.592
 7503TIP3   OH222451   7.668   0.033   5.675
 7503TIP3    H122452   7.672   0.002   5.766
 7503TIP3    H222453   7.743   0.092   5.667
 7504TIP3   OH222454   7.147   1.814   1.147
 7504TIP3    H122455   7.057   1.827   1.176
 7504TIP3    H222456   7.170   1.895   1.102
 7505TIP3   OH222457   7.600   5.448   6.494
 7505TIP3    H122458   7.547   5.454   6.414
 7505TIP3    H222459   7.680   5.496   6.473
 7506TIP3   OH222460   3.076   3.516   2.539
 7506TIP3    H122461   3.040   3.571   2.608
 7506TIP3    H222462   3.098   3.576   2.468
 7507TIP3   OH222463   1.960   5.028   0.484
 7507TIP3    H122464   1.941   4.981   0.565
 7507TIP3    H222465   1.939   4.966   0.414
 7508TIP3   OH222466   3.763   4.490   5.998
 7508TIP3    H122467   3.729   4.575   6.026
 7508TIP3    H222468   3.697   4.427   6.027
 7509TIP3   OH222469   8.143   5.682   3.814
 7509TIP3    H122470   8.152   5.587   3.817
 7509TIP3    H222471   8.049   5.697   3.808
 7510TIP3   OH222472   7.195   6.310   6.400
 7510TIP3    H122473   7.218   6.363   6.323
 7510TIP3    H222474   7.226   6.360   6.475
 7511TIP3   OH222475   1.261   5.126   3.408
 7511TIP3    H122476   1.280   5.220   3.404
 7511TIP3    H222477   1.310   5.095   3.484
 7512TIP3   OH222478   0.411   6.523   4.136
 7512TIP3    H122479   0.339   6.479   4.090
 7512TIP3    H222480   0.474   6.544   4.068
 7513TIP3   OH222481   2.703   0.816   0.737
 7513TIP3    H122482   2.662   0.814   0.650
 7513TIP3    H222483   2.687   0.729   0.773
 7514TIP3   OH222484   2.359   2.994   0.824
 7514TIP3    H122485   2.334   3.046   0.900
 7514TIP3    H222486   2.418   2.927   0.859
 7515TIP3   OH222487   4.169   6.463   3.739
 7515TIP3    H122488   4.158   6.396   3.672
 7515TIP3    H222489   4.243   6.432   3.791
 7516TIP3   OH222490   7.192   3.173   6.241
 7516TIP3    H122491   7.157   3.094   6.201
 7516TIP3    H222492   7.287   3.168   6.226
 7517TIP3   OH222493   2.917   5.035   2.325
 7517TIP3    H122494   2.834   5.021   2.370
 7517TIP3    H222495   2.925   5.131   2.319
 7518TIP3   OH222496   8.016   5.521   2.159
 7518TIP3    H122497   7.949   5.508   2.227
 7518TIP3    H222498   8.033   5.615   2.160
 7519TIP3   OH222499   3.481   6.133   2.311
 7519TIP3    H122500   3.456   6.166   2.397
 7519TIP3    H222501   3.492   6.038   2.324
 7520TIP3   OH222502   7.204   3.667   3.951
 7520TIP3    H122503   7.278   3.617   3.917
 7520TIP3    H222504   7.199   3.641   4.043
 7521TIP3   OH222505   5.761   5.789   5.952
 7521TIP3    H122506   5.785   5.801   6.044
 7521TIP3    H222507   5.665   5.777   5.954
 7522TIP3   OH222508   4.997   7.822   3.252
 7522TIP3    H122509   4.953   7.767   3.317
 7522TIP3    H222510   4.937   7.822   3.177
 7523TIP3   OH222511   8.216   3.451   2.008
 7523TIP3    H122512   8.178   3.511   1.944
 7523TIP3    H222513   8.253   3.380   1.955
 7524TIP3   OH222514   3.187   0.797   2.802
 7524TIP3    H122515   3.259   0.846   2.761
 7524TIP3    H222516   3.207   0.705   2.784
 7525TIP3   OH222517   1.576   0.899   1.543
 7525TIP3    H122518   1.624   0.934   1.468
 7525TIP3    H222519   1.492   0.946   1.541
 7526TIP3   OH222520   3.094   1.284   0.023
 7526TIP3    H122521   3.118   1.367  -0.018
 7526TIP3    H222522   3.178   1.241   0.041
 7527TIP3   OH222523   7.435   4.467   3.146
 7527TIP3    H122524   7.495   4.412   3.196
 7527TIP3    H222525   7.433   4.429   3.059
 7528TIP3   OH222526   6.370   5.270   5.620
 7528TIP3    H122527   6.412   5.213   5.556
 7528TIP3    H222528   6.281   5.284   5.586
 7529TIP3   OH222529   4.721   0.596   6.021
 7529TIP3    H122530   4.734   0.575   5.928
 7529TIP3    H222531   4.677   0.518   6.057
 7530TIP3   OH222532   5.065   6.025   1.723
 7530TIP3    H122533   5.042   6.044   1.633
 7530TIP3    H222534   5.158   6.005   1.721
 7531TIP3   OH222535   2.221   6.161   1.278
 7531TIP3    H122536   2.143   6.195   1.321
 7531TIP3    H222537   2.236   6.076   1.319
 7532TIP3   OH222538   3.782   0.593   0.118
 7532TIP3    H122539   3.846   0.550   0.062
 7532TIP3    H222540   3.776   0.538   0.196
 7533TIP3   OH222541   6.889   5.743   2.246
 7533TIP3    H122542   6.817   5.796   2.279
 7533TIP3    H222543   6.923   5.792   2.171
 7534TIP3   OH222544   7.670   2.626   0.184
 7534TIP3    H122545   7.666   2.696   0.119
 7534TIP3    H222546   7.644   2.668   0.266
 7535TIP3   OH222547   4.975   4.069   6.205
 7535TIP3    H122548   5.060   4.032   6.183
 7535TIP3    H222549   4.955   4.129   6.133
 7536TIP3   OH222550   3.079   5.500   5.842
 7536TIP3    H122551   3.174   5.508   5.840
 7536TIP3    H222552   3.049   5.583   5.881
 7537TIP3   OH222553   6.215   2.884   0.602
 7537TIP3    H122554   6.243   2.805   0.556
 7537TIP3    H222555   6.292   2.941   0.600
 7538TIP3   OH222556   0.747   7.000   2.345
 7538TIP3    H122557   0.827   7.031   2.388
 7538TIP3    H222558   0.736   6.911   2.376
 7539TIP3   OH222559   3.272   6.367   4.815
 7539TIP3    H122560   3.314   6.281   4.810
 7539TIP3    H222561   3.322   6.414   4.882
 7540TIP3   OH222562   3.378   4.947   4.628
 7540TIP3    H122563   3.409   4.902   4.707
 7540TIP3    H222564   3.313   4.888   4.590
 7541TIP3   OH222565   3.581   5.918   5.662
 7541TIP3    H122566   3.514   5.849   5.665
 7541TIP3    H222567   3.532   5.998   5.643
 7542TIP3   OH222568   7.260   4.359   3.984
 7542TIP3    H122569   7.347   4.396   3.975
 7542TIP3    H222570   7.243   4.362   4.079
 7543TIP3   OH222571   2.132   6.657   0.996
 7543TIP3    H122572   2.156   6.740   1.038
 7543TIP3    H222573   2.164   6.590   1.057
 7544TIP3   OH222574   7.581   6.030   4.433
 7544TIP3    H122575   7.518   6.042   4.504
 7544TIP3    H222576   7.665   6.019   4.477
 7545TIP3   OH222577   0.484   3.672   0.853
 7545TIP3    H122578   0.409   3.693   0.798
 7545TIP3    H222579   0.464   3.710   0.938
 7546TIP3   OH222580   7.061   3.881   6.689
 7546TIP3    H122581   7.033   3.789   6.694
 7546TIP3    H222582   7.021   3.922   6.766
 7547TIP3   OH222583   6.964   7.328   5.219
 7547TIP3    H122584   7.016   7.284   5.152
 7547TIP3    H222585   6.882   7.350   5.175
 7548TIP3   OH222586   3.303   7.774   6.211
 7548TIP3    H122587   3.234   7.789   6.276
 7548TIP3    H222588   3.263   7.717   6.146
 7549TIP3   OH222589   1.105   4.936   3.584
 7549TIP3    H122590   1.197   4.959   3.584
 7549TIP3    H222591   1.093   4.885   3.504
 7550TIP3   OH222592   6.118   5.586   4.034
 7550TIP3    H122593   6.088   5.611   4.121
 7550TIP3    H222594   6.156   5.665   3.997
 7551TIP3   OH222595   0.719   1.261   6.454
 7551TIP3    H122596   0.655   1.274   6.385
 7551TIP3    H222597   0.694   1.179   6.497
 7552TIP3   OH222598   0.641   7.445   0.298
 7552TIP3    H122599   0.668   7.381   0.364
 7552TIP3    H222600   0.714   7.447   0.236
 7553TIP3   OH222601   3.093   5.849   5.418
 7553TIP3    H122602   3.131   5.772   5.462
 7553TIP3    H222603   3.153   5.921   5.441
 7554TIP3   OH222604   3.032   0.639   4.205
 7554TIP3    H122605   2.973   0.673   4.137
 7554TIP3    H222606   3.118   0.676   4.183
 7555TIP3   OH222607   5.886   6.294   6.065
 7555TIP3    H122608   5.968   6.323   6.105
 7555TIP3    H222609   5.831   6.372   6.062
 7556TIP3   OH222610   8.257   2.112   6.086
 7556TIP3    H122611   8.200   2.186   6.068
 7556TIP3    H222612   8.292   2.087   6.000
 7557TIP3   OH222613   1.555   6.072   0.279
 7557TIP3    H122614   1.517   5.999   0.232
 7557TIP3    H222615   1.626   6.103   0.223
 7558TIP3   OH222616   2.871   2.009   6.022
 7558TIP3    H122617   2.900   1.924   5.990
 7558TIP3    H222618   2.779   1.996   6.046
 7559TIP3   OH222619   5.164   5.453   1.416
 7559TIP3    H122620   5.075   5.442   1.450
 7559TIP3    H222621   5.179   5.373   1.364
 7560TIP3   OH222622   2.145   2.803   2.269
 7560TIP3    H122623   2.236   2.816   2.295
 7560TIP3    H222624   2.150   2.778   2.177
 7561TIP3   OH222625   5.118   4.874   1.759
 7561TIP3    H122626   5.081   4.852   1.673
 7561TIP3    H222627   5.042   4.875   1.817
 7562TIP3   OH222628   6.485   5.066   1.839
 7562TIP3    H122629   6.556   5.002   1.848
 7562TIP3    H222630   6.513   5.141   1.891
 7563TIP3   OH222631   3.692   6.598   5.867
 7563TIP3    H122632   3.631   6.531   5.898
 7563TIP3    H222633   3.779   6.562   5.885
 7564TIP3   OH222634   1.902   4.226   5.142
 7564TIP3    H122635   1.874   4.253   5.229
 7564TIP3    H222636   1.935   4.137   5.153
 7565TIP3   OH222637   4.604   3.480   3.281
 7565TIP3    H122638   4.569   3.558   3.239
 7565TIP3    H222639   4.678   3.455   3.226
 7566TIP3   OH222640   6.484   6.305   3.474
 7566TIP3    H122641   6.513   6.333   3.387
 7566TIP3    H222642   6.557   6.328   3.532
 7567TIP3   OH222643   7.277   7.178   6.171
 7567TIP3    H122644   7.302   7.268   6.190
 7567TIP3    H222645   7.354   7.140   6.130
 7568TIP3   OH222646   4.426   3.851   1.514
 7568TIP3    H122647   4.415   3.758   1.535
 7568TIP3    H222648   4.336   3.883   1.503
 7569TIP3   OH222649   4.752   2.976   0.720
 7569TIP3    H122650   4.824   3.034   0.743
 7569TIP3    H222651   4.676   3.010   0.767
 7570TIP3   OH222652   6.979   0.028   5.607
 7570TIP3    H122653   6.915  -0.008   5.546
 7570TIP3    H222654   6.980   0.122   5.588
 7571TIP3   OH222655   4.567   6.691   2.985
 7571TIP3    H122656   4.628   6.673   2.913
 7571TIP3    H222657   4.606   6.765   3.032
 7572TIP3   OH222658   2.697   5.858   5.434
 7572TIP3    H122659   2.680   5.918   5.361
 7572TIP3    H222660   2.762   5.903   5.487
 7573TIP3   OH222661   4.856   1.859   5.882
 7573TIP3    H122662   4.772   1.835   5.922
 7573TIP3    H222663   4.903   1.905   5.951
 7574TIP3   OH222664   1.148   1.116   0.355
 7574TIP3    H122665   1.104   1.157   0.429
 7574TIP3    H222666   1.091   1.133   0.280
 7575TIP3   OH222667   0.184   4.527   6.672
 7575TIP3    H122668   0.160   4.605   6.621
 7575TIP3    H222669   0.119   4.462   6.648
 7576TIP3   OH222670   8.082   5.434   1.896
 7576TIP3    H122671   8.062   5.342   1.915
 7576TIP3    H222672   8.042   5.482   1.968
 7577TIP3   OH222673   1.429   6.127   4.716
 7577TIP3    H122674   1.347   6.165   4.747
 7577TIP3    H222675   1.465   6.193   4.656
 7578TIP3   OH222676   3.298   4.304   1.961
 7578TIP3    H122677   3.232   4.281   1.897
 7578TIP3    H222678   3.249   4.334   2.037
 7579TIP3   OH222679   3.894   7.826   5.788
 7579TIP3    H122680   3.808   7.784   5.782
 7579TIP3    H222681   3.904   7.872   5.704
 7580TIP3   OH222682   5.159   6.909   6.482
 7580TIP3    H122683   5.159   6.832   6.424
 7580TIP3    H222684   5.220   6.970   6.440
 7581TIP3   OH222685   1.697   3.733   0.720
 7581TIP3    H122686   1.686   3.639   0.704
 7581TIP3    H222687   1.778   3.756   0.675
 7582TIP3   OH222688   6.638   0.806   0.893
 7582TIP3    H122689   6.657   0.785   0.984
 7582TIP3    H222690   6.723   0.802   0.849
 7583TIP3   OH222691   8.151   1.500   3.162
 7583TIP3    H122692   8.220   1.561   3.140
 7583TIP3    H222693   8.180   1.416   3.127
 7584TIP3   OH222694   3.954   2.365   3.872
 7584TIP3    H122695   4.022   2.394   3.811
 7584TIP3    H222696   3.929   2.278   3.840
 7585TIP3   OH222697   0.812   1.931   1.297
 7585TIP3    H122698   0.839   1.913   1.387
 7585TIP3    H222699   0.853   2.016   1.277
 7586TIP3   OH222700   2.776   7.129   0.802
 7586TIP3    H122701   2.713   7.200   0.815
 7586TIP3    H222702   2.860   7.167   0.825
 7587TIP3   OH222703   8.001   1.263   0.310
 7587TIP3    H122704   7.983   1.345   0.356
 7587TIP3    H222705   8.094   1.267   0.288
 7588TIP3   OH222706   6.032   0.886   1.807
 7588TIP3    H122707   6.121   0.914   1.785
 7588TIP3    H222708   6.015   0.926   1.892
 7589TIP3   OH222709   7.987   0.063   0.223
 7589TIP3    H122710   8.067   0.036   0.268
 7589TIP3    H222711   7.953   0.135   0.277
 7590TIP3   OH222712   7.872   0.176   1.294
 7590TIP3    H122713   7.824   0.202   1.372
 7590TIP3    H222714   7.932   0.249   1.278
 7591TIP3   OH222715   3.395   3.665   1.005
 7591TIP3    H122716   3.400   3.575   0.973
 7591TIP3    H222717   3.332   3.707   0.947
 7592TIP3   OH222718   2.156   4.988   1.787
 7592TIP3    H122719   2.090   4.941   1.736
 7592TIP3    H222720   2.222   5.014   1.723
 7593TIP3   OH222721   6.304   2.417   0.373
 7593TIP3    H122722   6.247   2.428   0.298
 7593TIP3    H222723   6.274   2.336   0.415
 7594TIP3   OH222724   2.807   0.162   5.172
 7594TIP3    H122725   2.825   0.160   5.078
 7594TIP3    H222726   2.874   0.219   5.209
 7595TIP3   OH222727   7.903   0.758   2.147
 7595TIP3    H122728   7.878   0.713   2.228
 7595TIP3    H222729   7.995   0.735   2.134
 7596TIP3   OH222730   1.896   4.818   0.344
 7596TIP3    H122731   1.834   4.758   0.385
 7596TIP3    H222732   1.856   4.841   0.260
 7597TIP3   OH222733   1.690   3.801   2.151
 7597TIP3    H122734   1.622   3.817   2.216
 7597TIP3    H222735   1.667   3.716   2.113
 7598TIP3   OH222736   5.998   1.117   2.176
 7598TIP3    H122737   5.943   1.192   2.156
 7598TIP3    H222738   6.069   1.153   2.230
 7599TIP3   OH222739   2.309   1.279   5.043
 7599TIP3    H122740   2.220   1.285   5.008
 7599TIP3    H222741   2.297   1.275   5.138
 7600TIP3   OH222742   6.898   7.065   0.633
 7600TIP3    H122743   6.905   7.120   0.711
 7600TIP3    H222744   6.845   7.116   0.572
 7601TIP3   OH222745   1.945   0.318   1.452
 7601TIP3    H122746   1.850   0.325   1.448
 7601TIP3    H222747   1.962   0.269   1.533
 7602TIP3   OH222748   4.608   3.320   2.639
 7602TIP3    H122749   4.674   3.252   2.647
 7602TIP3    H222750   4.590   3.327   2.546
 7603TIP3   OH222751   3.498   2.472   2.178
 7603TIP3    H122752   3.473   2.545   2.234
 7603TIP3    H222753   3.589   2.492   2.153
 7604TIP3   OH222754   5.771   0.715   1.732
 7604TIP3    H122755   5.702   0.779   1.747
 7604TIP3    H222756   5.851   0.757   1.765
 7605TIP3   OH222757   8.245   1.297   2.299
 7605TIP3    H122758   8.315   1.319   2.360
 7605TIP3    H222759   8.253   1.360   2.228
 7606TIP3   OH222760   7.134   1.065   2.231
 7606TIP3    H122761   7.199   1.000   2.202
 7606TIP3    H222762   7.065   1.061   2.165
 7607TIP3   OH222763   2.248   2.569   3.548
 7607TIP3    H122764   2.267   2.523   3.629
 7607TIP3    H222765   2.185   2.637   3.572
 7608TIP3   OH222766   4.418   5.158   4.849
 7608TIP3    H122767   4.435   5.206   4.768
 7608TIP3    H222768   4.323   5.162   4.860
 7609TIP3   OH222769   2.399   5.769   5.901
 7609TIP3    H122770   2.394   5.852   5.854
 7609TIP3    H222771   2.489   5.739   5.888
 7610TIP3   OH222772   2.854   1.143   5.943
 7610TIP3    H122773   2.940   1.159   5.982
 7610TIP3    H222774   2.811   1.228   5.941
 7611TIP3   OH222775   6.856   7.196   5.933
 7611TIP3    H122776   6.774   7.245   5.923
 7611TIP3    H222777   6.916   7.235   5.869
 7612TIP3   OH222778   0.345   0.874   1.250
 7612TIP3    H122779   0.432   0.842   1.275
 7612TIP3    H222780   0.324   0.827   1.170
 7613TIP3   OH222781   3.065   0.580   6.054
 7613TIP3    H122782   3.155   0.591   6.022
 7613TIP3    H222783   3.073   0.581   6.149
 7614TIP3   OH222784   7.444   6.015   5.677
 7614TIP3    H122785   7.464   5.980   5.764
 7614TIP3    H222786   7.349   6.026   5.678
 7615TIP3   OH222787   0.761   4.926   5.752
 7615TIP3    H122788   0.731   4.845   5.794
 7615TIP3    H222789   0.778   4.985   5.825
 7616TIP3   OH222790   0.712   2.534   1.181
 7616TIP3    H122791   0.713   2.471   1.253
 7616TIP3    H222792   0.801   2.569   1.180
 7617TIP3   OH222793   5.872   4.218   6.780
 7617TIP3    H122794   5.938   4.287   6.785
 7617TIP3    H222795   5.880   4.184   6.690
 7618TIP3   OH222796   4.510   6.040   3.654
 7618TIP3    H122797   4.441   5.977   3.635
 7618TIP3    H222798   4.531   6.079   3.569
 7619TIP3   OH222799   2.652   5.195   0.105
 7619TIP3    H122800   2.623   5.125   0.047
 7619TIP3    H222801   2.744   5.176   0.123
 7620TIP3   OH222802   6.858   3.772   0.506
 7620TIP3    H122803   6.859   3.852   0.558
 7620TIP3    H222804   6.811   3.797   0.426
 7621TIP3   OH222805   7.856   2.078   4.780
 7621TIP3    H122806   7.845   1.985   4.759
 7621TIP3    H222807   7.871   2.119   4.695
 7622TIP3   OH222808   7.983   3.901   4.277
 7622TIP3    H122809   7.958   3.813   4.247
 7622TIP3    H222810   8.011   3.888   4.368
 7623TIP3   OH222811   2.286   0.455   1.759
 7623TIP3    H122812   2.316   0.382   1.705
 7623TIP3    H222813   2.334   0.445   1.841
 7624TIP3   OH222814   8.006   4.182   4.279
 7624TIP3    H122815   8.013   4.088   4.262
 7624TIP3    H222816   7.912   4.199   4.281
 7625TIP3   OH222817   0.858   1.728   0.091
 7625TIP3    H122818   0.885   1.797   0.031
 7625TIP3    H222819   0.935   1.710   0.145
 7626TIP3   OH222820   6.433   3.952   2.043
 7626TIP3    H122821   6.489   3.959   2.120
 7626TIP3    H222822   6.442   4.037   1.999
 7627TIP3   OH222823   7.165   1.978   1.550
 7627TIP3    H122824   7.132   1.964   1.639
 7627TIP3    H222825   7.254   2.010   1.562
 7628TIP3   OH222826   5.901   5.952   4.805
 7628TIP3    H122827   5.916   5.889   4.875
 7628TIP3    H222828   5.987   5.992   4.790
 7629TIP3   OH222829   0.831   7.337   5.346
 7629TIP3    H122830   0.861   7.257   5.303
 7629TIP3    H222831   0.823   7.314   5.438
 7630TIP3   OH222832   1.683   2.876   4.622
 7630TIP3    H122833   1.628   2.857   4.699
 7630TIP3    H222834   1.763   2.825   4.637
 7631TIP3   OH222835   5.087   5.785   3.544
 7631TIP3    H122836   5.006   5.837   3.547
 7631TIP3    H222837   5.113   5.776   3.636
 7632TIP3   OH222838   4.472   6.828   0.434
 7632TIP3    H122839   4.459   6.868   0.348
 7632TIP3    H222840   4.500   6.900   0.490
 7633TIP3   OH222841   2.077   2.918   1.077
 7633TIP3    H122842   2.110   2.831   1.055
 7633TIP3    H222843   2.155   2.971   1.090
 7634TIP3   OH222844   0.628   0.343   5.319
 7634TIP3    H122845   0.646   0.433   5.290
 7634TIP3    H222846   0.553   0.351   5.377
 7635TIP3   OH222847   5.966   0.492   0.856
 7635TIP3    H122848   5.958   0.436   0.779
 7635TIP3    H222849   5.938   0.436   0.929
 7636TIP3   OH222850   1.373   2.201   3.300
 7636TIP3    H122851   1.306   2.269   3.287
 7636TIP3    H222852   1.339   2.149   3.373
 7637TIP3   OH222853   1.448   7.398   5.107
 7637TIP3    H122854   1.532   7.372   5.144
 7637TIP3    H222855   1.395   7.318   5.107
 7638TIP3   OH222856   1.043   1.737   2.178
 7638TIP3    H122857   0.987   1.769   2.108
 7638TIP3    H222858   1.045   1.808   2.243
 7639TIP3   OH222859   2.469   4.471   0.160
 7639TIP3    H122860   2.524   4.396   0.138
 7639TIP3    H222861   2.427   4.446   0.243
 7640TIP3   OH222862   3.798   2.407   2.950
 7640TIP3    H122863   3.719   2.402   3.005
 7640TIP3    H222864   3.767   2.444   2.867
 7641TIP3   OH222865   0.279   0.585   4.181
 7641TIP3    H122866   0.186   0.565   4.179
 7641TIP3    H222867   0.300   0.608   4.090
 7642TIP3   OH222868   5.787   0.920   3.126
 7642TIP3    H122869   5.817   0.993   3.179
 7642TIP3    H222870   5.793   0.844   3.183
 7643TIP3   OH222871   2.110   5.160   2.662
 7643TIP3    H122872   2.101   5.240   2.611
 7643TIP3    H222873   2.112   5.090   2.596
 7644TIP3   OH222874   0.432   2.733   6.521
 7644TIP3    H122875   0.362   2.739   6.586
 7644TIP3    H222876   0.504   2.691   6.567
 7645TIP3   OH222877   4.494   0.738   6.146
 7645TIP3    H122878   4.481   0.823   6.104
 7645TIP3    H222879   4.553   0.691   6.088
 7646TIP3   OH222880   3.630   3.689   3.794
 7646TIP3    H122881   3.573   3.752   3.750
 7646TIP3    H222882   3.716   3.703   3.755
 7647TIP3   OH222883   5.534   7.787   1.601
 7647TIP3    H122884   5.538   7.830   1.686
 7647TIP3    H222885   5.624   7.794   1.567
 7648TIP3   OH222886   4.022   0.541   3.006
 7648TIP3    H122887   4.118   0.541   3.010
 7648TIP3    H222888   3.995   0.488   3.081
 7649TIP3   OH222889   0.815   1.484   6.005
 7649TIP3    H122890   0.781   1.534   6.079
 7649TIP3    H222891   0.737   1.451   5.960
 7650TIP3   OH222892   2.163   7.463   4.926
 7650TIP3    H122893   2.211   7.459   4.843
 7650TIP3    H222894   2.231   7.461   4.993
 7651TIP3   OH222895   8.222   6.577   3.851
 7651TIP3    H122896   8.224   6.587   3.756
 7651TIP3    H222897   8.299   6.624   3.883
 7652TIP3   OH222898   5.608   6.037   1.913
 7652TIP3    H122899   5.624   5.957   1.964
 7652TIP3    H222900   5.671   6.031   1.840
 7653TIP3   OH222901   1.214   3.537   5.523
 7653TIP3    H122902   1.204   3.596   5.448
 7653TIP3    H222903   1.124   3.521   5.553
 7654TIP3   OH222904   0.277   5.057   5.435
 7654TIP3    H122905   0.339   5.051   5.362
 7654TIP3    H222906   0.264   5.151   5.447
 7655TIP3   OH222907   4.074   7.837   6.406
 7655TIP3    H122908   3.982   7.819   6.386
 7655TIP3    H222909   4.113   7.750   6.417
 7656TIP3   OH222910   4.358   0.254   1.759
 7656TIP3    H122911   4.429   0.196   1.785
 7656TIP3    H222912   4.376   0.336   1.805
 7657TIP3   OH222913   8.267   1.074   5.462
 7657TIP3    H122914   8.178   1.057   5.491
 7657TIP3    H222915   8.306   0.987   5.451
 7658TIP3   OH222916   7.394   1.470   3.219
 7658TIP3    H122917   7.301   1.474   3.194
 7658TIP3    H222918   7.438   1.523   3.153
 7659TIP3   OH222919   5.311   6.851   1.243
 7659TIP3    H122920   5.318   6.929   1.299
 7659TIP3    H222921   5.244   6.874   1.178
 7660TIP3   OH222922   6.175   5.989   5.119
 7660TIP3    H122923   6.173   5.998   5.024
 7660TIP3    H222924   6.190   5.896   5.135
 7661TIP3   OH222925   0.562   1.427   6.282
 7661TIP3    H122926   0.478   1.469   6.302
 7661TIP3    H222927   0.626   1.499   6.286
 7662TIP3   OH222928   0.385   3.811   3.088
 7662TIP3    H122929   0.450   3.754   3.047
 7662TIP3    H222930   0.304   3.762   3.085
 7663TIP3   OH222931   0.811   6.509   2.459
 7663TIP3    H122932   0.857   6.455   2.523
 7663TIP3    H222933   0.871   6.517   2.386
 7664TIP3   OH222934   5.604   3.059   5.030
 7664TIP3    H122935   5.509   3.060   5.040
 7664TIP3    H222936   5.637   3.095   5.112
 7665TIP3   OH222937   0.429   0.680   6.717
 7665TIP3    H122938   0.505   0.643   6.762
 7665TIP3    H222939   0.362   0.612   6.723
 7666TIP3   OH222940   7.386   3.789   4.335
 7666TIP3    H122941   7.401   3.724   4.266
 7666TIP3    H222942   7.370   3.737   4.414
 7667TIP3   OH222943   4.724   0.310   3.258
 7667TIP3    H122944   4.767   0.227   3.235
 7667TIP3    H222945   4.642   0.309   3.208
 7668TIP3   OH222946   2.467   3.256   1.874
 7668TIP3    H122947   2.506   3.172   1.850
 7668TIP3    H222948   2.515   3.283   1.953
 7669TIP3   OH222949   4.528   7.588   0.832
 7669TIP3    H122950   4.508   7.674   0.869
 7669TIP3    H222951   4.547   7.605   0.740
 7670TIP3   OH222952   5.342   6.248   2.736
 7670TIP3    H122953   5.356   6.332   2.779
 7670TIP3    H222954   5.285   6.267   2.662
 7671TIP3   OH222955   0.547   6.218   1.857
 7671TIP3    H122956   0.617   6.154   1.868
 7671TIP3    H222957   0.592   6.302   1.846
 7672TIP3   OH222958   2.575   6.940   2.991
 7672TIP3    H122959   2.667   6.961   3.011
 7672TIP3    H222960   2.557   6.862   3.043
 7673TIP3   OH222961   0.853   7.796   4.393
 7673TIP3    H122962   0.822   7.875   4.348
 7673TIP3    H222963   0.774   7.757   4.429
 7674TIP3   OH222964   0.221   3.954   2.574
 7674TIP3    H122965   0.138   3.959   2.621
 7674TIP3    H222966   0.283   4.001   2.630
 7675TIP3   OH222967   7.371   2.095   5.891
 7675TIP3    H122968   7.331   2.035   5.827
 7675TIP3    H222969   7.451   2.051   5.919
 7676TIP3   OH222970   3.597   4.663   6.616
 7676TIP3    H122971   3.590   4.568   6.629
 7676TIP3    H222972   3.662   4.673   6.547
 7677TIP3   OH222973   5.478   5.835   3.071
 7677TIP3    H122974   5.506   5.786   2.994
 7677TIP3    H222975   5.489   5.927   3.046
 7678TIP3   OH222976   7.949   4.647   4.255
 7678TIP3    H122977   7.904   4.704   4.193
 7678TIP3    H222978   7.882   4.583   4.281
 7679TIP3   OH222979   4.192   2.225   5.749
 7679TIP3    H122980   4.210   2.209   5.841
 7679TIP3    H222981   4.108   2.182   5.732
 7680TIP3   OH222982   7.781   4.735   4.050
 7680TIP3    H122983   7.697   4.690   4.041
 7680TIP3    H222984   7.821   4.729   3.963
 7681TIP3   OH222985   6.601   0.767   0.092
 7681TIP3    H122986   6.638   0.729   0.013
 7681TIP3    H222987   6.592   0.693   0.152
 7682TIP3   OH222988   1.062   4.448   3.281
 7682TIP3    H122989   1.106   4.486   3.205
 7682TIP3    H222990   0.998   4.515   3.306
 7683TIP3   OH222991   1.060   1.331   3.538
 7683TIP3    H122992   1.123   1.403   3.541
 7683TIP3    H222993   1.029   1.322   3.628
 7684TIP3   OH222994   0.295   0.132   1.241
 7684TIP3    H122995   0.238   0.171   1.175
 7684TIP3    H222996   0.356   0.202   1.264
 7685TIP3   OH222997   5.765   3.901   4.426
 7685TIP3    H122998   5.681   3.943   4.410
 7685TIP3    H222999   5.827   3.950   4.373
 7686TIP3   OH223000   4.115   4.588   2.503
 7686TIP3    H123001   4.183   4.570   2.438
 7686TIP3    H223002   4.068   4.664   2.469
 7687TIP3   OH223003   2.265   0.071   4.509
 7687TIP3    H123004   2.240  -0.020   4.527
 7687TIP3    H223005   2.358   0.066   4.487
 7688TIP3   OH223006   3.768   4.702   3.029
 7688TIP3    H123007   3.749   4.727   3.119
 7688TIP3    H223008   3.817   4.775   2.993
 7689TIP3   OH223009   5.884   4.346   1.639
 7689TIP3    H123010   5.967   4.395   1.645
 7689TIP3    H223011   5.853   4.342   1.730
 7690TIP3   OH223012   3.006   7.269   3.849
 7690TIP3    H123013   2.987   7.302   3.937
 7690TIP3    H223014   3.100   7.254   3.849
 7691TIP3   OH223015   7.250   2.617   6.476
 7691TIP3    H123016   7.198   2.658   6.406
 7691TIP3    H223017   7.299   2.689   6.515
 7692TIP3   OH223018   3.290   7.361   5.534
 7692TIP3    H123019   3.229   7.310   5.481
 7692TIP3    H223020   3.310   7.438   5.481
 7693TIP3   OH223021   3.160   2.896   2.332
 7693TIP3    H123022   3.129   2.805   2.330
 7693TIP3    H223023   3.118   2.934   2.408
 7694TIP3   OH223024   5.275   5.064   0.278
 7694TIP3    H123025   5.210   5.133   0.285
 7694TIP3    H223026   5.351   5.098   0.327
 7695TIP3   OH223027   4.307   7.647   5.967
 7695TIP3    H123028   4.382   7.696   6.002
 7695TIP3    H223029   4.314   7.660   5.872
 7696TIP3   OH223030   2.280   0.748   1.806
 7696TIP3    H123031   2.260   0.671   1.754
 7696TIP3    H223032   2.223   0.816   1.770
 7697TIP3   OH223033   7.034   3.088   5.814
 7697TIP3    H123034   7.021   3.016   5.876
 7697TIP3    H223035   7.035   3.167   5.868
 7698TIP3   OH223036   4.794   6.141   3.693
 7698TIP3    H123037   4.700   6.145   3.714
 7698TIP3    H223038   4.838   6.174   3.771
 7699TIP3   OH223039   6.888   6.374   3.941
 7699TIP3    H123040   6.897   6.279   3.947
 7699TIP3    H223041   6.794   6.388   3.932
 7700TIP3   OH223042   0.604   1.165   2.365
 7700TIP3    H123043   0.645   1.159   2.279
 7700TIP3    H223044   0.673   1.200   2.422
 7701TIP3   OH223045   8.288   7.000   4.340
 7701TIP3    H123046   8.230   6.936   4.382
 7701TIP3    H223047   8.335   7.042   4.413
 7702TIP3   OH223048   1.558   7.095   4.218
 7702TIP3    H123049   1.505   7.032   4.169
 7702TIP3    H223050   1.572   7.167   4.156
 7703TIP3   OH223051   0.663   2.822   0.501
 7703TIP3    H123052   0.615   2.811   0.583
 7703TIP3    H223053   0.622   2.897   0.459
 7704TIP3   OH223054   7.530   6.368   4.580
 7704TIP3    H123055   7.537   6.418   4.661
 7704TIP3    H223056   7.619   6.336   4.564
 7705TIP3   OH223057   7.215   2.133   3.370
 7705TIP3    H123058   7.294   2.091   3.405
 7705TIP3    H223059   7.205   2.212   3.423
 7706TIP3   OH223060   0.512   3.724   2.016
 7706TIP3    H123061   0.427   3.724   2.061
 7706TIP3    H223062   0.513   3.805   1.965
 7707TIP3   OH223063   3.030   6.436   2.177
 7707TIP3    H123064   3.047   6.364   2.117
 7707TIP3    H223065   2.961   6.488   2.134
 7708TIP3   OH223066   2.845   3.927   1.169
 7708TIP3    H123067   2.879   3.929   1.259
 7708TIP3    H223068   2.760   3.885   1.177
 7709TIP3   OH223069   5.602   5.796   4.311
 7709TIP3    H123070   5.576   5.885   4.287
 7709TIP3    H223071   5.538   5.739   4.266
 7710TIP3   OH223072   1.595   0.068   0.342
 7710TIP3    H123073   1.583   0.123   0.419
 7710TIP3    H223074   1.688   0.047   0.341
 7711TIP3   OH223075   7.843   4.745   3.491
 7711TIP3    H123076   7.938   4.758   3.491
 7711TIP3    H223077   7.831   4.658   3.453
 7712TIP3   OH223078   3.810   4.947   2.969
 7712TIP3    H123079   3.726   4.994   2.963
 7712TIP3    H223080   3.876   5.016   2.960
 7713TIP3   OH223081   4.981   6.135   5.850
 7713TIP3    H123082   4.993   6.220   5.893
 7713TIP3    H223083   4.905   6.147   5.794
 7714TIP3   OH223084   0.193   0.524   2.899
 7714TIP3    H123085   0.126   0.555   2.838
 7714TIP3    H223086   0.173   0.432   2.912
 7715TIP3   OH223087   0.108   3.031   5.567
 7715TIP3    H123088   0.090   3.125   5.568
 7715TIP3    H223089   0.094   3.005   5.476
 7716TIP3   OH223090   1.340   7.675   3.593
 7716TIP3    H123091   1.294   7.598   3.559
 7716TIP3    H223092   1.297   7.749   3.550
 7717TIP3   OH223093   6.440   2.954   3.983
 7717TIP3    H123094   6.360   2.985   3.940
 7717TIP3    H223095   6.423   2.861   3.999
 7718TIP3   OH223096   2.132   7.341   4.242
 7718TIP3    H123097   2.064   7.285   4.279
 7718TIP3    H223098   2.165   7.292   4.166
 7719TIP3   OH223099   2.185   5.432   6.504
 7719TIP3    H123100   2.249   5.366   6.476
 7719TIP3    H223101   2.104   5.382   6.515
 7720TIP3   OH223102   6.772   0.472   4.079
 7720TIP3    H123103   6.812   0.388   4.102
 7720TIP3    H223104   6.684   0.467   4.117
 7721TIP3   OH223105   7.259   6.846   2.076
 7721TIP3    H123106   7.250   6.823   2.169
 7721TIP3    H223107   7.311   6.926   2.076
 7722TIP3   OH223108   6.438   7.563   1.372
 7722TIP3    H123109   6.347   7.582   1.393
 7722TIP3    H223110   6.483   7.567   1.456
 7723TIP3   OH223111   2.775   4.085   0.869
 7723TIP3    H123112   2.703   4.052   0.924
 7723TIP3    H223113   2.797   4.012   0.812
 7724TIP3   OH223114   1.884   3.970   3.271
 7724TIP3    H123115   1.789   3.966   3.277
 7724TIP3    H223116   1.914   3.882   3.292
 7725TIP3   OH223117   1.176   6.035   2.573
 7725TIP3    H123118   1.262   6.007   2.542
 7725TIP3    H223119   1.142   5.959   2.620
 7726TIP3   OH223120   7.717   4.290   4.317
 7726TIP3    H123121   7.687   4.316   4.229
 7726TIP3    H223122   7.652   4.226   4.346
 7727TIP3   OH223123   4.563   2.709   6.126
 7727TIP3    H123124   4.484   2.730   6.076
 7727TIP3    H223125   4.533   2.704   6.217
 7728TIP3   OH223126   5.291   6.349   3.092
 7728TIP3    H123127   5.328   6.416   3.035
 7728TIP3    H223128   5.338   6.359   3.175
 7729TIP3   OH223129   0.320   4.640   2.179
 7729TIP3    H123130   0.355   4.725   2.153
 7729TIP3    H223131   0.286   4.602   2.097
 7730TIP3   OH223132   7.617   2.079   0.172
 7730TIP3    H123133   7.671   2.157   0.183
 7730TIP3    H223134   7.534   2.102   0.212
 7731TIP3   OH223135   0.615   4.707   3.641
 7731TIP3    H123136   0.540   4.666   3.684
 7731TIP3    H223137   0.592   4.707   3.548
 7732TIP3   OH223138   1.185   3.837   1.713
 7732TIP3    H123139   1.124   3.900   1.752
 7732TIP3    H223140   1.203   3.872   1.625
 7733TIP3   OH223141   2.265   2.446   4.440
 7733TIP3    H123142   2.196   2.424   4.378
 7733TIP3    H223143   2.219   2.486   4.514
 7734TIP3   OH223144   8.318   4.834   4.224
 7734TIP3    H123145   8.261   4.841   4.301
 7734TIP3    H223146   8.259   4.841   4.149
 7735TIP3   OH223147  -0.020   0.516   0.943
 7735TIP3    H123148   0.058   0.570   0.952
 7735TIP3    H223149   0.005   0.447   0.882
 7736TIP3   OH223150   5.422   6.669   1.825
 7736TIP3    H123151   5.356   6.700   1.887
 7736TIP3    H223152   5.476   6.746   1.806
 7737TIP3   OH223153   1.007   4.410   0.979
 7737TIP3    H123154   1.003   4.317   0.957
 7737TIP3    H223155   1.073   4.446   0.920
 7738TIP3   OH223156   8.022   5.456   6.174
 7738TIP3    H123157   8.032   5.366   6.142
 7738TIP3    H223158   8.020   5.446   6.270
 7739TIP3   OH223159   5.975   7.597   4.826
 7739TIP3    H123160   5.886   7.561   4.824
 7739TIP3    H223161   6.002   7.588   4.918
 7740TIP3   OH223162   5.071   7.608   6.530
 7740TIP3    H123163   5.014   7.538   6.564
 7740TIP3    H223164   5.027   7.636   6.450
 7741TIP3   OH223165   3.389   4.711   3.933
 7741TIP3    H123166   3.473   4.739   3.969
 7741TIP3    H223167   3.409   4.685   3.843
 7742TIP3   OH223168   0.162   3.654   3.107
 7742TIP3    H123169   0.162   3.573   3.158
 7742TIP3    H223170   0.146   3.723   3.171
 7743TIP3   OH223171   5.532   0.094   4.380
 7743TIP3    H123172   5.491   0.052   4.456
 7743TIP3    H223173   5.462   0.100   4.316
 7744TIP3   OH223174   6.055   2.295   6.307
 7744TIP3    H123175   6.070   2.390   6.313
 7744TIP3    H223176   5.964   2.283   6.334
 7745TIP3   OH223177   4.889   0.362   2.145
 7745TIP3    H123178   4.876   0.276   2.186
 7745TIP3    H223179   4.816   0.415   2.177
 7746TIP3   OH223180   8.082   6.688   2.870
 7746TIP3    H123181   8.043   6.735   2.796
 7746TIP3    H223182   8.010   6.676   2.931
 7747TIP3   OH223183   4.268   7.579   3.577
 7747TIP3    H123184   4.281   7.503   3.634
 7747TIP3    H223185   4.223   7.643   3.632
 7748TIP3   OH223186   1.864   2.280   6.658
 7748TIP3    H123187   1.817   2.296   6.740
 7748TIP3    H223188   1.954   2.259   6.685
 7749TIP3   OH223189   1.747   6.317   3.872
 7749TIP3    H123190   1.774   6.409   3.870
 7749TIP3    H223191   1.652   6.321   3.862
 7750TIP3   OH223192   3.425   0.134   5.873
 7750TIP3    H123193   3.490   0.203   5.886
 7750TIP3    H223194   3.473   0.064   5.828
 7751TIP3   OH223195   3.368   6.397   2.939
 7751TIP3    H123196   3.437   6.334   2.957
 7751TIP3    H223197   3.290   6.361   2.981
 7752TIP3   OH223198   2.514   6.402   1.936
 7752TIP3    H123199   2.533   6.491   1.904
 7752TIP3    H223200   2.433   6.412   1.986
 7753TIP3   OH223201   5.869   2.674   4.593
 7753TIP3    H123202   5.875   2.769   4.582
 7753TIP3    H223203   5.796   2.662   4.654
 7754TIP3   OH223204   3.558   1.785   6.442
 7754TIP3    H123205   3.580   1.791   6.349
 7754TIP3    H223206   3.553   1.876   6.472
 7755TIP3   OH223207   4.343   6.907   4.699
 7755TIP3    H123208   4.296   6.971   4.644
 7755TIP3    H223209   4.402   6.862   4.639
 7756TIP3   OH223210   3.545   6.660   4.916
 7756TIP3    H123211   3.530   6.575   4.877
 7756TIP3    H223212   3.486   6.664   4.991
 7757TIP3   OH223213   4.221   7.457   2.422
 7757TIP3    H123214   4.207   7.549   2.447
 7757TIP3    H223215   4.313   7.440   2.443
 7758TIP3   OH223216   1.086   1.386   1.043
 7758TIP3    H123217   1.064   1.427   1.127
 7758TIP3    H223218   1.182   1.386   1.040
 7759TIP3   OH223219   2.520   6.392   0.723
 7759TIP3    H123220   2.612   6.402   0.699
 7759TIP3    H223221   2.504   6.297   0.719
 7760TIP3   OH223222   6.490   6.198   1.424
 7760TIP3    H123223   6.559   6.202   1.357
 7760TIP3    H223224   6.446   6.114   1.408
 7761TIP3   OH223225   0.218   5.130   5.819
 7761TIP3    H123226   0.157   5.203   5.807
 7761TIP3    H223227   0.163   5.053   5.825
 7762TIP3   OH223228   5.313   6.372   3.360
 7762TIP3    H123229   5.261   6.414   3.428
 7762TIP3    H223230   5.385   6.330   3.407
 7763TIP3   OH223231   2.782   2.133   4.436
 7763TIP3    H123232   2.690   2.157   4.424
 7763TIP3    H223233   2.782   2.037   4.437
 7764TIP3   OH223234   1.851   2.859   6.628
 7764TIP3    H123235   1.769   2.835   6.672
 7764TIP3    H223236   1.903   2.779   6.628
 7765TIP3   OH223237   6.714   7.817   5.051
 7765TIP3    H123238   6.781   7.751   5.063
 7765TIP3    H223239   6.741   7.866   4.973
 7766TIP3   OH223240   7.894   3.342   2.372
 7766TIP3    H123241   7.908   3.370   2.282
 7766TIP3    H223242   7.804   3.368   2.391
 7767TIP3   OH223243   3.627   6.739   4.641
 7767TIP3    H123244   3.597   6.702   4.724
 7767TIP3    H223245   3.547   6.759   4.593
 7768TIP3   OH223246   0.108   5.798   0.641
 7768TIP3    H123247   0.027   5.796   0.693
 7768TIP3    H223248   0.101   5.724   0.582
 7769TIP3   OH223249   3.073   2.822   4.455
 7769TIP3    H123250   3.022   2.773   4.391
 7769TIP3    H223251   3.155   2.773   4.462
 7770TIP3   OH223252   7.432   3.850   5.535
 7770TIP3    H123253   7.439   3.755   5.546
 7770TIP3    H223254   7.522   3.881   5.528
 7771TIP3   OH223255   5.631   7.759   4.254
 7771TIP3    H123256   5.646   7.704   4.331
 7771TIP3    H223257   5.547   7.802   4.272
 7772TIP3   OH223258   0.160   2.565   3.359
 7772TIP3    H123259   0.144   2.644   3.411
 7772TIP3    H223260   0.208   2.596   3.282
 7773TIP3   OH223261   7.849   1.796   4.724
 7773TIP3    H123262   7.782   1.783   4.791
 7773TIP3    H223263   7.856   1.712   4.680
 7774TIP3   OH223264   3.321   4.673   4.194
 7774TIP3    H123265   3.363   4.707   4.115
 7774TIP3    H223266   3.375   4.598   4.219
 7775TIP3   OH223267   2.688   1.007   3.020
 7775TIP3    H123268   2.691   1.077   2.955
 7775TIP3    H223269   2.617   0.950   2.991
 7776TIP3   OH223270   3.212   5.341   5.600
 7776TIP3    H123271   3.269   5.359   5.674
 7776TIP3    H223272   3.174   5.255   5.620
 7777TIP3   OH223273   5.971   1.094   4.452
 7777TIP3    H123274   5.965   1.158   4.522
 7777TIP3    H223275   6.015   1.019   4.493
 7778TIP3   OH223276   6.507   4.761   5.001
 7778TIP3    H123277   6.533   4.769   5.092
 7778TIP3    H223278   6.443   4.690   5.000
 7779TIP3   OH223279   3.213   7.684   2.838
 7779TIP3    H123280   3.203   7.758   2.898
 7779TIP3    H223281   3.208   7.722   2.751
 7780TIP3   OH223282   1.312   3.154   3.226
 7780TIP3    H123283   1.379   3.155   3.295
 7780TIP3    H223284   1.294   3.246   3.209
 7781TIP3   OH223285   1.571   6.889   1.215
 7781TIP3    H123286   1.599   6.852   1.299
 7781TIP3    H223287   1.634   6.853   1.152
 7782TIP3   OH223288   8.137   6.076   2.875
 7782TIP3    H123289   8.061   6.097   2.929
 7782TIP3    H223290   8.210   6.073   2.936
 7783TIP3   OH223291   4.277   6.475   2.058
 7783TIP3    H123292   4.279   6.507   2.148
 7783TIP3    H223293   4.185   6.453   2.043
 7784TIP3   OH223294   0.706   2.139   5.946
 7784TIP3    H123295   0.754   2.216   5.914
 7784TIP3    H223296   0.615   2.155   5.921
 7785TIP3   OH223297   2.436   7.751   4.191
 7785TIP3    H123298   2.451   7.845   4.200
 7785TIP3    H223299   2.464   7.730   4.102
 7786TIP3   OH223300   3.795   1.765   4.839
 7786TIP3    H123301   3.870   1.758   4.899
 7786TIP3    H223302   3.834   1.795   4.757
 7787TIP3   OH223303   4.232   5.222   6.173
 7787TIP3    H123304   4.297   5.181   6.115
 7787TIP3    H223305   4.236   5.315   6.152
 7788TIP3   OH223306   5.183   1.697   1.988
 7788TIP3    H123307   5.151   1.640   2.057
 7788TIP3    H223308   5.116   1.765   1.979
 7789TIP3   OH223309   3.834   0.369   6.056
 7789TIP3    H123310   3.852   0.354   6.149
 7789TIP3    H223311   3.914   0.340   6.011
 7790TIP3   OH223312   5.102   7.809   6.738
 7790TIP3    H123313   5.144   7.863   6.671
 7790TIP3    H223314   5.057   7.741   6.688
 7791TIP3   OH223315   7.343   6.037   3.886
 7791TIP3    H123316   7.426   6.061   3.843
 7791TIP3    H223317   7.369   6.009   3.973
 7792TIP3   OH223318   2.527   3.139   4.183
 7792TIP3    H123319   2.573   3.061   4.214
 7792TIP3    H223320   2.589   3.211   4.197
 7793TIP3   OH223321   8.083   7.543   6.273
 7793TIP3    H123322   8.088   7.522   6.367
 7793TIP3    H223323   8.153   7.492   6.234
 7794TIP3   OH223324   2.867   0.679   5.885
 7794TIP3    H123325   2.930   0.678   5.958
 7794TIP3    H223326   2.792   0.630   5.917
 7795TIP3   OH223327   2.040   7.081   0.914
 7795TIP3    H123328   2.136   7.084   0.909
 7795TIP3    H223329   2.013   7.048   0.828
 7796TIP3   OH223330   6.072   4.163   0.440
 7796TIP3    H123331   5.989   4.180   0.395
 7796TIP3    H223332   6.088   4.069   0.427
 7797TIP3   OH223333   5.239   2.741   1.496
 7797TIP3    H123334   5.280   2.793   1.427
 7797TIP3    H223335   5.305   2.675   1.518
 7798TIP3   OH223336   3.704   0.293   2.128
 7798TIP3    H123337   3.654   0.321   2.205
 7798TIP3    H223338   3.656   0.331   2.054
 7799TIP3   OH223339   1.910   2.030   4.439
 7799TIP3    H123340   1.834   2.051   4.384
 7799TIP3    H223341   1.929   1.938   4.419
 7800TIP3   OH223342   8.135   7.307   0.593
 7800TIP3    H123343   8.176   7.384   0.633
 7800TIP3    H223344   8.142   7.322   0.498
 7801TIP3   OH223345   5.415   7.603   1.928
 7801TIP3    H123346   5.444   7.630   1.841
 7801TIP3    H223347   5.439   7.676   1.985
 7802TIP3   OH223348   2.544   7.215   3.082
 7802TIP3    H123349   2.454   7.244   3.097
 7802TIP3    H223350   2.536   7.123   3.057
 7803TIP3   OH223351   0.747   5.945   2.872
 7803TIP3    H123352   0.704   6.019   2.828
 7803TIP3    H223353   0.686   5.920   2.941
 7804TIP3   OH223354   0.653   5.154   5.177
 7804TIP3    H123355   0.609   5.235   5.152
 7804TIP3    H223356   0.593   5.085   5.148
 7805TIP3   OH223357   2.964   1.752   5.930
 7805TIP3    H123358   2.934   1.721   5.845
 7805TIP3    H223359   2.988   1.673   5.978
 7806TIP3   OH223360   0.050   4.784   1.845
 7806TIP3    H123361   0.067   4.795   1.938
 7806TIP3    H223362  -0.045   4.790   1.836
 7807TIP3   OH223363   4.746   6.334   4.277
 7807TIP3    H123364   4.790   6.403   4.326
 7807TIP3    H223365   4.812   6.266   4.264
 7808TIP3   OH223366   4.843   4.047   1.385
 7808TIP3    H123367   4.864   4.064   1.477
 7808TIP3    H223368   4.753   4.014   1.387
 7809TIP3   OH223369   3.562   4.698   5.788
 7809TIP3    H123370   3.575   4.662   5.876
 7809TIP3    H223371   3.642   4.674   5.741
 7810TIP3   OH223372   1.446   2.945   0.482
 7810TIP3    H123373   1.377   2.970   0.422
 7810TIP3    H223374   1.460   3.022   0.537
 7811TIP3   OH223375   6.908   0.121   4.820
 7811TIP3    H123376   6.836   0.140   4.880
 7811TIP3    H223377   6.987   0.127   4.874
 7812TIP3   OH223378   4.718   6.735   1.994
 7812TIP3    H123379   4.655   6.663   1.994
 7812TIP3    H223380   4.790   6.704   1.939
 7813TIP3   OH223381   5.092   4.190   2.985
 7813TIP3    H123382   5.050   4.104   2.989
 7813TIP3    H223383   5.117   4.200   2.893
 7814TIP3   OH223384   2.333   3.998   3.957
 7814TIP3    H123385   2.382   4.072   3.995
 7814TIP3    H223386   2.247   4.003   4.000
 7815TIP3   OH223387   1.184   0.710   5.765
 7815TIP3    H123388   1.150   0.755   5.688
 7815TIP3    H223389   1.130   0.631   5.773
 7816TIP3   OH223390   0.196   5.151   3.306
 7816TIP3    H123391   0.219   5.134   3.397
 7816TIP3    H223392   0.160   5.068   3.274
 7817TIP3   OH223393   7.994   1.977   4.161
 7817TIP3    H123394   8.006   1.901   4.219
 7817TIP3    H223395   7.901   1.998   4.168
 7818TIP3   OH223396   7.975   2.880   0.252
 7818TIP3    H123397   8.001   2.792   0.277
 7818TIP3    H223398   7.886   2.871   0.217
 7819TIP3   OH223399   2.515   3.664   2.141
 7819TIP3    H123400   2.495   3.676   2.234
 7819TIP3    H223401   2.572   3.738   2.119
 7820TIP3   OH223402   2.110   0.624   2.326
 7820TIP3    H123403   2.140   0.605   2.415
 7820TIP3    H223404   2.191   0.634   2.275
 7821TIP3   OH223405   5.111   4.856   2.140
 7821TIP3    H123406   5.032   4.852   2.194
 7821TIP3    H223407   5.167   4.920   2.185
 7822TIP3   OH223408   6.268   4.417   5.665
 7822TIP3    H123409   6.343   4.445   5.614
 7822TIP3    H223410   6.273   4.321   5.667
 7823TIP3   OH223411   5.728   4.887   0.345
 7823TIP3    H123412   5.778   4.966   0.321
 7823TIP3    H223413   5.660   4.881   0.277
 7824TIP3   OH223414   6.397   5.628   6.204
 7824TIP3    H123415   6.378   5.612   6.111
 7824TIP3    H223416   6.445   5.711   6.205
 7825TIP3   OH223417   4.699   3.654   4.346
 7825TIP3    H123418   4.723   3.571   4.386
 7825TIP3    H223419   4.615   3.676   4.386
 7826TIP3   OH223420   0.796   5.077   5.962
 7826TIP3    H123421   0.788   5.169   5.939
 7826TIP3    H223422   0.722   5.060   6.020
 7827TIP3   OH223423   6.958   3.307   2.690
 7827TIP3    H123424   6.955   3.299   2.595
 7827TIP3    H223425   7.051   3.302   2.711
 7828TIP3   OH223426   5.717   6.592   4.988
 7828TIP3    H123427   5.718   6.678   4.947
 7828TIP3    H223428   5.644   6.546   4.947
 7829TIP3   OH223429   1.221   1.668   5.317
 7829TIP3    H123430   1.277   1.624   5.382
 7829TIP3    H223431   1.282   1.717   5.263
 7830TIP3   OH223432   3.884   2.933   2.186
 7830TIP3    H123433   3.829   2.890   2.252
 7830TIP3    H223434   3.963   2.958   2.233
 7831TIP3   OH223435   5.203   3.755   2.349
 7831TIP3    H123436   5.132   3.752   2.285
 7831TIP3    H223437   5.159   3.756   2.434
 7832TIP3   OH223438   5.255   5.831   4.565
 7832TIP3    H123439   5.185   5.798   4.508
 7832TIP3    H223440   5.214   5.898   4.618
 7833TIP3   OH223441   3.564   7.419   4.595
 7833TIP3    H123442   3.631   7.437   4.529
 7833TIP3    H223443   3.488   7.390   4.545
 7834TIP3   OH223444   4.832   7.077   0.347
 7834TIP3    H123445   4.815   7.140   0.278
 7834TIP3    H223446   4.924   7.087   0.368
 7835TIP3   OH223447   0.789   1.463   2.007
 7835TIP3    H123448   0.707   1.414   2.005
 7835TIP3    H223449   0.842   1.423   1.939
 7836TIP3   OH223450   6.356   6.145   6.323
 7836TIP3    H123451   6.390   6.125   6.410
 7836TIP3    H223452   6.263   6.163   6.337
 7837TIP3   OH223453   1.568   7.560   2.126
 7837TIP3    H123454   1.479   7.595   2.121
 7837TIP3    H223455   1.570   7.490   2.062
 7838TIP3   OH223456   4.362   7.383   0.981
 7838TIP3    H123457   4.432   7.436   0.942
 7838TIP3    H223458   4.291   7.386   0.917
 7839TIP3   OH223459   1.283   6.273   0.172
 7839TIP3    H123460   1.260   6.202   0.112
 7839TIP3    H223461   1.206   6.281   0.229
 7840TIP3   OH223462   7.398   2.810   0.399
 7840TIP3    H123463   7.398   2.867   0.322
 7840TIP3    H223464   7.431   2.866   0.469
 7841TIP3   OH223465   3.530   2.571   4.416
 7841TIP3    H123466   3.619   2.561   4.382
 7841TIP3    H223467   3.495   2.482   4.418
 7842TIP3   OH223468   7.516   5.187   1.852
 7842TIP3    H123469   7.505   5.267   1.903
 7842TIP3    H223470   7.474   5.205   1.768
 7843TIP3   OH223471   3.724   7.050   4.646
 7843TIP3    H123472   3.671   6.972   4.628
 7843TIP3    H223473   3.782   7.023   4.717
 7844TIP3   OH223474   7.494   7.069   3.851
 7844TIP3    H123475   7.450   7.070   3.766
 7844TIP3    H223476   7.582   7.038   3.832
 7845TIP3   OH223477   7.103   0.536   3.521
 7845TIP3    H123478   7.076   0.512   3.432
 7845TIP3    H223479   7.046   0.609   3.544
 7846TIP3   OH223480   5.688   6.323   2.206
 7846TIP3    H123481   5.608   6.272   2.210
 7846TIP3    H223482   5.705   6.351   2.296
 7847TIP3   OH223483   5.168   7.686   4.791
 7847TIP3    H123484   5.162   7.779   4.767
 7847TIP3    H223485   5.258   7.662   4.769
 7848TIP3   OH223486   2.096   2.383   5.248
 7848TIP3    H123487   2.132   2.445   5.311
 7848TIP3    H223488   2.003   2.405   5.243
 7849TIP3   OH223489   0.677   3.108   2.648
 7849TIP3    H123490   0.703   3.180   2.590
 7849TIP3    H223491   0.591   3.082   2.615
 7850TIP3   OH223492   1.175   3.422   2.790
 7850TIP3    H123493   1.086   3.413   2.755
 7850TIP3    H223494   1.199   3.333   2.817
 7851TIP3   OH223495   5.703   3.560   5.059
 7851TIP3    H123496   5.712   3.466   5.047
 7851TIP3    H223497   5.737   3.598   4.978
 7852TIP3   OH223498   3.040   6.345   3.308
 7852TIP3    H123499   3.025   6.266   3.360
 7852TIP3    H223500   3.041   6.416   3.372
 7853TIP3   OH223501   6.572   1.257   3.043
 7853TIP3    H123502   6.569   1.215   3.129
 7853TIP3    H223503   6.652   1.223   3.003
 7854TIP3   OH223504   6.840   4.315   1.917
 7854TIP3    H123505   6.859   4.402   1.881
 7854TIP3    H223506   6.820   4.261   1.841
 7855TIP3   OH223507   6.922   1.330   1.985
 7855TIP3    H123508   6.937   1.362   1.897
 7855TIP3    H223509   6.961   1.396   2.042
 7856TIP3   OH223510   3.059   6.985   6.439
 7856TIP3    H123511   3.076   6.960   6.530
 7856TIP3    H223512   3.015   6.908   6.401
 7857TIP3   OH223513   1.757   5.024   4.569
 7857TIP3    H123514   1.834   4.989   4.615
 7857TIP3    H223515   1.693   5.039   4.639
 7858TIP3   OH223516   5.755   2.264   6.197
 7858TIP3    H123517   5.739   2.260   6.102
 7858TIP3    H223518   5.742   2.174   6.227
 7859TIP3   OH223519   3.135   3.758   3.817
 7859TIP3    H123520   3.180   3.720   3.892
 7859TIP3    H223521   3.044   3.728   3.826
 7860TIP3   OH223522   6.112   4.868   4.906
 7860TIP3    H123523   6.165   4.932   4.953
 7860TIP3    H223524   6.048   4.837   4.971
 7861TIP3   OH223525   2.822   1.120   4.275
 7861TIP3    H123526   2.914   1.137   4.295
 7861TIP3    H223527   2.790   1.201   4.236
 7862TIP3   OH223528   7.534   6.063   6.248
 7862TIP3    H123529   7.503   6.079   6.337
 7862TIP3    H223530   7.606   6.000   6.259
 7863TIP3   OH223531   1.743   4.986   2.117
 7863TIP3    H123532   1.692   4.925   2.064
 7863TIP3    H223533   1.814   4.933   2.152
 7864TIP3   OH223534   6.740   2.706   2.681
 7864TIP3    H123535   6.806   2.693   2.749
 7864TIP3    H223536   6.671   2.757   2.723
 7865TIP3   OH223537   6.681   6.121   2.317
 7865TIP3    H123538   6.723   6.085   2.239
 7865TIP3    H223539   6.605   6.170   2.284
 7866TIP3   OH223540   7.687   0.002   5.959
 7866TIP3    H123541   7.766  -0.005   6.011
 7866TIP3    H223542   7.654   0.090   5.975
 7867TIP3   OH223543   1.893   4.215   3.729
 7867TIP3    H123544   1.898   4.123   3.756
 7867TIP3    H223545   1.841   4.214   3.649
 7868TIP3   OH223546   6.097   6.099   6.619
 7868TIP3    H123547   6.172   6.057   6.661
 7868TIP3    H223548   6.025   6.089   6.682
 7869TIP3   OH223549   8.235   3.173   1.396
 7869TIP3    H123550   8.216   3.149   1.305
 7869TIP3    H223551   8.267   3.264   1.390
 7870TIP3   OH223552   2.975   4.762   4.849
 7870TIP3    H123553   2.897   4.780   4.901
 7870TIP3    H223554   2.973   4.826   4.778
 7871TIP3   OH223555   2.628   4.837   0.567
 7871TIP3    H123556   2.565   4.906   0.546
 7871TIP3    H223557   2.600   4.762   0.514
 7872TIP3   OH223558   2.279   7.662   2.841
 7872TIP3    H123559   2.251   7.753   2.826
 7872TIP3    H223560   2.357   7.671   2.895
 7873TIP3   OH223561   7.989   3.831   3.795
 7873TIP3    H123562   7.899   3.862   3.780
 7873TIP3    H223563   8.019   3.880   3.871
 7874TIP3   OH223564   7.749   7.610   5.022
 7874TIP3    H123565   7.797   7.539   4.980
 7874TIP3    H223566   7.680   7.566   5.072
 7875TIP3   OH223567   2.778   2.716   1.537
 7875TIP3    H123568   2.709   2.771   1.574
 7875TIP3    H223569   2.769   2.726   1.443
 7876TIP3   OH223570   2.422   7.518   4.736
 7876TIP3    H123571   2.514   7.512   4.761
 7876TIP3    H223572   2.406   7.440   4.683
 7877TIP3   OH223573   0.514   1.353   0.724
 7877TIP3    H123574   0.430   1.355   0.678
 7877TIP3    H223575   0.512   1.429   0.782
 7878TIP3   OH223576   4.976   0.891   4.276
 7878TIP3    H123577   4.950   0.903   4.185
 7878TIP3    H223578   4.916   0.824   4.309
 7879TIP3   OH223579   3.911   5.542   1.143
 7879TIP3    H123580   3.948   5.500   1.066
 7879TIP3    H223581   3.986   5.575   1.191
 7880TIP3   OH223582   4.679   6.945   5.702
 7880TIP3    H123583   4.651   6.867   5.655
 7880TIP3    H223584   4.666   6.924   5.794
 7881TIP3   OH223585   4.447   1.677   4.118
 7881TIP3    H123586   4.501   1.668   4.039
 7881TIP3    H223587   4.409   1.589   4.131
 7882TIP3   OH223588   6.110   1.063   2.925
 7882TIP3    H123589   6.054   1.123   2.876
 7882TIP3    H223590   6.198   1.079   2.890
 7883TIP3   OH223591   7.129   5.280   4.628
 7883TIP3    H123592   7.065   5.290   4.699
 7883TIP3    H223593   7.212   5.266   4.673
 7884TIP3   OH223594   0.198   2.746   0.412
 7884TIP3    H123595   0.273   2.758   0.353
 7884TIP3    H223596   0.232   2.688   0.481
 7885TIP3   OH223597   8.140   4.001   4.886
 7885TIP3    H123598   8.075   4.049   4.937
 7885TIP3    H223599   8.209   4.065   4.870
 7886TIP3   OH223600   6.514   2.508   4.489
 7886TIP3    H123601   6.543   2.551   4.569
 7886TIP3    H223602   6.479   2.579   4.434
 7887TIP3   OH223603   6.258   0.742   2.806
 7887TIP3    H123604   6.167   0.743   2.838
 7887TIP3    H223605   6.307   0.786   2.876
 7888TIP3   OH223606   7.205   1.512   5.552
 7888TIP3    H123607   7.238   1.519   5.641
 7888TIP3    H223608   7.257   1.441   5.513
 7889TIP3   OH223609   2.411   4.850   5.900
 7889TIP3    H123610   2.460   4.809   5.830
 7889TIP3    H223611   2.452   4.818   5.980
 7890TIP3   OH223612   5.231   7.131   3.952
 7890TIP3    H123613   5.326   7.123   3.954
 7890TIP3    H223614   5.202   7.052   3.905
 7891TIP3   OH223615   2.592   5.664   6.244
 7891TIP3    H123616   2.635   5.594   6.292
 7891TIP3    H223617   2.501   5.661   6.273
 7892TIP3   OH223618   4.339   3.604   4.945
 7892TIP3    H123619   4.267   3.548   4.975
 7892TIP3    H223620   4.298   3.688   4.924
 7893TIP3   OH223621   2.853   7.440   0.669
 7893TIP3    H123622   2.898   7.470   0.749
 7893TIP3    H223623   2.908   7.369   0.636
 7894TIP3   OH223624   3.709   6.893   3.592
 7894TIP3    H123625   3.721   6.895   3.497
 7894TIP3    H223626   3.704   6.986   3.617
 7895TIP3   OH223627   6.061   0.801   2.988
 7895TIP3    H123628   6.030   0.784   3.076
 7895TIP3    H223629   6.078   0.895   2.986
 7896TIP3   OH223630   5.850   2.871   0.108
 7896TIP3    H123631   5.808   2.936   0.052
 7896TIP3    H223632   5.942   2.871   0.081
 7897TIP3   OH223633   3.978   2.465   4.121
 7897TIP3    H123634   3.987   2.421   4.036
 7897TIP3    H223635   4.033   2.543   4.114
 7898TIP3   OH223636   3.864   4.882   3.938
 7898TIP3    H123637   3.830   4.964   3.974
 7898TIP3    H223638   3.889   4.830   4.014
 7899TIP3   OH223639   1.056   5.436   1.626
 7899TIP3    H123640   1.127   5.385   1.586
 7899TIP3    H223641   1.090   5.463   1.711
 7900TIP3   OH223642   2.297   3.412   0.990
 7900TIP3    H123643   2.226   3.350   0.974
 7900TIP3    H223644   2.353   3.405   0.912
 7901TIP3   OH223645   1.443   5.553   3.688
 7901TIP3    H123646   1.494   5.633   3.675
 7901TIP3    H223647   1.364   5.582   3.733
 7902TIP3   OH223648   6.282   2.969   6.077
 7902TIP3    H123649   6.202   2.989   6.028
 7902TIP3    H223650   6.324   2.900   6.025
 7903TIP3   OH223651   7.658   1.558   3.582
 7903TIP3    H123652   7.738   1.605   3.559
 7903TIP3    H223653   7.642   1.500   3.508
 7904TIP3   OH223654   8.273   7.772   1.302
 7904TIP3    H123655   8.200   7.834   1.311
 7904TIP3    H223656   8.233   7.686   1.316
 7905TIP3   OH223657   7.809   7.693   0.280
 7905TIP3    H123658   7.837   7.610   0.319
 7905TIP3    H223659   7.856   7.697   0.197
 7906TIP3   OH223660   1.621   7.121   1.891
 7906TIP3    H123661   1.648   7.108   1.800
 7906TIP3    H223662   1.702   7.148   1.935
 7907TIP3   OH223663   6.317   0.397   2.074
 7907TIP3    H123664   6.236   0.351   2.052
 7907TIP3    H223665   6.303   0.428   2.164
 7908TIP3   OH223666   2.313   4.794   0.564
 7908TIP3    H123667   2.315   4.805   0.469
 7908TIP3    H223668   2.225   4.764   0.583
 7909TIP3   OH223669   6.587   7.196   4.290
 7909TIP3    H123670   6.495   7.176   4.276
 7909TIP3    H223671   6.631   7.162   4.212
 7910TIP3   OH223672   4.071   4.592   5.510
 7910TIP3    H123673   4.062   4.576   5.416
 7910TIP3    H223674   4.070   4.504   5.549
 7911TIP3   OH223675   0.241   1.060   4.140
 7911TIP3    H123676   0.274   1.030   4.225
 7911TIP3    H223677   0.258   0.988   4.080
 7912TIP3   OH223678   0.090   5.926   6.040
 7912TIP3    H123679   0.120   6.016   6.029
 7912TIP3    H223680  -0.004   5.930   6.022
 7913TIP3   OH223681   0.385   4.921   5.658
 7913TIP3    H123682   0.339   4.967   5.587
 7913TIP3    H223683   0.371   4.976   5.735
 7914TIP3   OH223684   2.908   1.809   1.090
 7914TIP3    H123685   2.831   1.859   1.064
 7914TIP3    H223686   2.971   1.824   1.019
 7915TIP3   OH223687   7.216   3.919   1.850
 7915TIP3    H123688   7.166   3.897   1.772
 7915TIP3    H223689   7.153   3.962   1.908
 7916TIP3   OH223690   4.344   5.887   3.491
 7916TIP3    H123691   4.262   5.844   3.466
 7916TIP3    H223692   4.382   5.916   3.408
 7917TIP3   OH223693   7.101   0.173   0.438
 7917TIP3    H123694   7.126   0.263   0.418
 7917TIP3    H223695   7.089   0.172   0.533
 7918TIP3   OH223696   7.904   3.804   1.593
 7918TIP3    H123697   7.911   3.709   1.578
 7918TIP3    H223698   7.909   3.814   1.688
 7919TIP3   OH223699   0.628   4.542   6.251
 7919TIP3    H123700   0.533   4.557   6.249
 7919TIP3    H223701   0.640   4.476   6.319
 7920TIP3   OH223702   2.988   5.254   1.044
 7920TIP3    H123703   2.917   5.288   1.099
 7920TIP3    H223704   3.028   5.332   1.005
 7921TIP3   OH223705   3.043   0.463   3.551
 7921TIP3    H123706   3.076   0.552   3.563
 7921TIP3    H223707   3.116   0.415   3.512
 7922TIP3   OH223708   7.248   7.461   4.644
 7922TIP3    H123709   7.199   7.528   4.596
 7922TIP3    H223710   7.297   7.414   4.576
 7923TIP3   OH223711   8.111   6.628   5.343
 7923TIP3    H123712   8.062   6.628   5.425
 7923TIP3    H223713   8.109   6.536   5.314
 7924TIP3   OH223714   4.905   0.476   1.889
 7924TIP3    H123715   4.874   0.407   1.947
 7924TIP3    H223716   4.834   0.489   1.827
 7925TIP3   OH223717   5.182   4.535   0.832
 7925TIP3    H123718   5.121   4.600   0.800
 7925TIP3    H223719   5.128   4.471   0.877
 7926TIP3   OH223720   5.373   2.395   3.808
 7926TIP3    H123721   5.315   2.323   3.831
 7926TIP3    H223722   5.421   2.414   3.889
 7927TIP3   OH223723   0.680   3.718   2.694
 7927TIP3    H123724   0.646   3.712   2.783
 7927TIP3    H223725   0.666   3.809   2.669
 7928TIP3   OH223726   4.621   2.667   3.928
 7928TIP3    H123727   4.629   2.699   3.838
 7928TIP3    H223728   4.549   2.717   3.965
 7929TIP3   OH223729   0.286   4.814   0.847
 7929TIP3    H123730   0.202   4.770   0.858
 7929TIP3    H223731   0.333   4.761   0.783
 7930TIP3   OH223732   5.375   6.317   1.960
 7930TIP3    H123733   5.383   6.320   1.865
 7930TIP3    H223734   5.329   6.398   1.982
 7931TIP3   OH223735   5.733   6.425   2.448
 7931TIP3    H123736   5.670   6.431   2.520
 7931TIP3    H223737   5.817   6.448   2.487
 7932TIP3   OH223738   7.995   2.634   2.180
 7932TIP3    H123739   8.034   2.594   2.257
 7932TIP3    H223740   7.966   2.720   2.209
 7933TIP3   OH223741   7.139   5.404   5.364
 7933TIP3    H123742   7.131   5.451   5.447
 7933TIP3    H223743   7.076   5.447   5.306
 7934TIP3   OH223744   3.378   0.962   2.690
 7934TIP3    H123745   3.329   0.987   2.612
 7934TIP3    H223746   3.410   1.045   2.726
 7935TIP3   OH223747   3.363   7.715   4.124
 7935TIP3    H123748   3.279   7.731   4.081
 7935TIP3    H223749   3.339   7.676   4.208
 7936TIP3   OH223750   7.241   2.736   1.833
 7936TIP3    H123751   7.198   2.790   1.899
 7936TIP3    H223752   7.219   2.646   1.858
 7937TIP3   OH223753   0.047   6.394   5.454
 7937TIP3    H123754   0.137   6.425   5.447
 7937TIP3    H223755   0.052   6.300   5.435
 7938TIP3   OH223756   1.326   0.846   4.482
 7938TIP3    H123757   1.334   0.920   4.542
 7938TIP3    H223758   1.231   0.829   4.478
 7939TIP3   OH223759   7.727   4.421   5.018
 7939TIP3    H123760   7.671   4.476   5.072
 7939TIP3    H223761   7.766   4.358   5.080
 7940TIP3   OH223762   2.927   0.166   4.925
 7940TIP3    H123763   2.858   0.212   4.877
 7940TIP3    H223764   2.934   0.081   4.881
 7941TIP3   OH223765   0.677   4.610   4.448
 7941TIP3    H123766   0.591   4.572   4.433
 7941TIP3    H223767   0.675   4.693   4.401
 7942TIP3   OH223768   2.156   1.307   2.221
 7942TIP3    H123769   2.245   1.320   2.252
 7942TIP3    H223770   2.166   1.256   2.141
 7943TIP3   OH223771   7.332   3.937   5.285
 7943TIP3    H123772   7.363   3.910   5.372
 7943TIP3    H223773   7.406   3.984   5.247
 7944TIP3   OH223774   5.991   5.348   2.164
 7944TIP3    H123775   5.958   5.402   2.236
 7944TIP3    H223776   6.073   5.311   2.198
 7945TIP3   OH223777   5.393   0.134   0.906
 7945TIP3    H123778   5.448   0.197   0.859
 7945TIP3    H223779   5.351   0.185   0.975
 7946TIP3   OH223780   6.650   5.293   1.960
 7946TIP3    H123781   6.693   5.330   2.037
 7946TIP3    H223782   6.608   5.368   1.918
 7947TIP3   OH223783   0.551   0.766   4.257
 7947TIP3    H123784   0.462   0.741   4.279
 7947TIP3    H223785   0.587   0.803   4.337
 7948TIP3   OH223786   6.537   0.813   2.185
 7948TIP3    H123787   6.572   0.724   2.193
 7948TIP3    H223788   6.534   0.846   2.275
 7949TIP3   OH223789   2.261   7.238   0.336
 7949TIP3    H123790   2.340   7.292   0.339
 7949TIP3    H223791   2.293   7.148   0.342
 7950TIP3   OH223792   5.692   7.463   1.028
 7950TIP3    H123793   5.664   7.551   1.004
 7950TIP3    H223794   5.713   7.469   1.121
 7951TIP3   OH223795   3.981   4.914   3.454
 7951TIP3    H123796   4.039   4.875   3.388
 7951TIP3    H223797   4.038   4.930   3.529
 7952TIP3   OH223798   7.914   5.838   3.678
 7952TIP3    H123799   7.940   5.754   3.639
 7952TIP3    H223800   7.822   5.826   3.702
 7953TIP3   OH223801   6.532   3.410   4.905
 7953TIP3    H123802   6.601   3.347   4.924
 7953TIP3    H223803   6.565   3.458   4.828
 7954TIP3   OH223804   2.208   4.468   0.911
 7954TIP3    H123805   2.238   4.390   0.958
 7954TIP3    H223806   2.288   4.518   0.896
 7955TIP3   OH223807   7.681   0.559   0.098
 7955TIP3    H123808   7.608   0.566   0.036
 7955TIP3    H223809   7.663   0.626   0.164
 7956TIP3   OH223810   0.261   7.092   5.358
 7956TIP3    H123811   0.230   7.140   5.434
 7956TIP3    H223812   0.334   7.039   5.391
 7957TIP3   OH223813   5.162   1.676   3.725
 7957TIP3    H123814   5.200   1.594   3.756
 7957TIP3    H223815   5.098   1.701   3.792
 7958TIP3   OH223816   6.723   6.972   2.209
 7958TIP3    H123817   6.778   6.898   2.235
 7958TIP3    H223818   6.634   6.944   2.231
 7959TIP3   OH223819   2.898   4.466   2.819
 7959TIP3    H123820   2.826   4.408   2.792
 7959TIP3    H223821   2.907   4.528   2.746
 7960TIP3   OH223822   2.587   2.971   6.725
 7960TIP3    H123823   2.650   2.944   6.792
 7960TIP3    H223824   2.509   2.997   6.774
 7961TIP3   OH223825   4.363   2.814   1.344
 7961TIP3    H123826   4.330   2.745   1.286
 7961TIP3    H223827   4.457   2.815   1.329
 7962TIP3   OH223828   0.499   2.719   0.715
 7962TIP3    H123829   0.499   2.625   0.699
 7962TIP3    H223830   0.453   2.730   0.798
 7963TIP3   OH223831   7.788   1.195   2.220
 7963TIP3    H123832   7.862   1.195   2.280
 7963TIP3    H223833   7.813   1.132   2.152
 7964TIP3   OH223834   0.310   0.856   0.378
 7964TIP3    H123835   0.227   0.857   0.330
 7964TIP3    H223836   0.328   0.764   0.395
 7965TIP3   OH223837   2.667   4.393   5.058
 7965TIP3    H123838   2.718   4.367   5.135
 7965TIP3    H223839   2.725   4.374   4.984
 7966TIP3   OH223840   4.659   6.675   4.803
 7966TIP3    H123841   4.587   6.646   4.859
 7966TIP3    H223842   4.695   6.595   4.766
 7967TIP3   OH223843   3.320   2.464   0.004
 7967TIP3    H123844   3.355   2.542   0.045
 7967TIP3    H223845   3.336   2.394   0.067
 7968TIP3   OH223846   1.756   3.481   1.653
 7968TIP3    H123847   1.837   3.524   1.678
 7968TIP3    H223848   1.737   3.422   1.726
 7969TIP3   OH223849   2.077   1.710   2.308
 7969TIP3    H123850   1.991   1.674   2.328
 7969TIP3    H223851   2.100   1.762   2.385
 7970TIP3   OH223852   1.383   4.944   1.564
 7970TIP3    H123853   1.315   4.901   1.511
 7970TIP3    H223854   1.454   4.880   1.568
 7971TIP3   OH223855   2.493   1.124   6.245
 7971TIP3    H123856   2.482   1.217   6.222
 7971TIP3    H223857   2.494   1.079   6.161
 7972TIP3   OH223858   1.035   4.734   2.984
 7972TIP3    H123859   1.097   4.661   2.987
 7972TIP3    H223860   0.949   4.692   2.998
 7973TIP3   OH223861   4.828   3.085   3.391
 7973TIP3    H123862   4.869   3.092   3.477
 7973TIP3    H223863   4.899   3.057   3.333
 7974TIP3   OH223864   5.693   3.497   3.759
 7974TIP3    H123865   5.621   3.434   3.752
 7974TIP3    H223866   5.711   3.503   3.852
 7975TIP3   OH223867   3.971   2.857   4.713
 7975TIP3    H123868   3.937   2.785   4.660
 7975TIP3    H223869   4.052   2.882   4.669
 7976TIP3   OH223870   7.367   2.878   6.357
 7976TIP3    H123871   7.389   2.807   6.296
 7976TIP3    H223872   7.290   2.920   6.318
 7977TIP3   OH223873   2.298   3.686   5.250
 7977TIP3    H123874   2.340   3.768   5.274
 7977TIP3    H223875   2.369   3.622   5.246
 7978TIP3   OH223876   0.199   5.309   5.485
 7978TIP3    H123877   0.221   5.389   5.437
 7978TIP3    H223878   0.245   5.318   5.568
 7979TIP3   OH223879   3.262   5.555   2.065
 7979TIP3    H123880   3.175   5.517   2.056
 7979TIP3    H223881   3.321   5.494   2.021
 7980TIP3   OH223882   1.122   5.454   0.064
 7980TIP3    H123883   1.156   5.406   0.140
 7980TIP3    H223884   1.050   5.506   0.099
 7981TIP3   OH223885   6.386   7.404   0.209
 7981TIP3    H123886   6.316   7.467   0.189
 7981TIP3    H223887   6.424   7.383   0.123
 7982TIP3   OH223888   4.270   2.202   1.151
 7982TIP3    H123889   4.200   2.258   1.119
 7982TIP3    H223890   4.350   2.247   1.126
 7983TIP3   OH223891   1.370   5.608   5.539
 7983TIP3    H123892   1.314   5.654   5.602
 7983TIP3    H223893   1.396   5.528   5.585
 7984TIP3   OH223894   2.777   6.752   4.854
 7984TIP3    H123895   2.748   6.768   4.944
 7984TIP3    H223896   2.872   6.751   4.860
 7985TIP3   OH223897   0.465   3.457   1.676
 7985TIP3    H123898   0.514   3.476   1.756
 7985TIP3    H223899   0.493   3.369   1.650
 7986TIP3   OH223900   6.942   5.964   2.490
 7986TIP3    H123901   6.861   5.915   2.476
 7986TIP3    H223902   7.010   5.897   2.495
 7987TIP3   OH223903   8.192   5.878   5.699
 7987TIP3    H123904   8.122   5.942   5.713
 7987TIP3    H223905   8.156   5.816   5.636
 7988TIP3   OH223906   0.019   3.171   1.887
 7988TIP3    H123907   0.078   3.139   1.819
 7988TIP3    H223908  -0.067   3.174   1.845
 7989TIP3   OH223909   1.246   1.733   1.778
 7989TIP3    H123910   1.301   1.797   1.824
 7989TIP3    H223911   1.206   1.783   1.707
 7990TIP3   OH223912   1.234   7.719   1.917
 7990TIP3    H123913   1.144   7.733   1.887
 7990TIP3    H223914   1.287   7.778   1.865
 7991TIP3   OH223915   1.336   1.526   2.374
 7991TIP3    H123916   1.348   1.573   2.292
 7991TIP3    H223917   1.302   1.592   2.434
 7992TIP3   OH223918   1.543   3.037   2.780
 7992TIP3    H123919   1.498   3.037   2.865
 7992TIP3    H223920   1.542   3.129   2.753
 7993TIP3   OH223921   7.218   7.339   5.893
 7993TIP3    H123922   7.239   7.246   5.903
 7993TIP3    H223923   7.184   7.366   5.979
 7994TIP3   OH223924   5.235   0.368   0.769
 7994TIP3    H123925   5.179   0.367   0.692
 7994TIP3    H223926   5.231   0.459   0.801
 7995TIP3   OH223927   7.241   4.116   2.828
 7995TIP3    H123928   7.236   4.167   2.909
 7995TIP3    H223929   7.155   4.075   2.820
 7996TIP3   OH223930   4.531   3.499   3.767
 7996TIP3    H123931   4.484   3.582   3.765
 7996TIP3    H223932   4.557   3.483   3.677
 7997TIP3   OH223933   1.856   3.563   5.823
 7997TIP3    H123934   1.894   3.552   5.910
 7997TIP3    H223935   1.931   3.574   5.765
 7998TIP3   OH223936   6.328   3.934   0.484
 7998TIP3    H123937   6.408   3.980   0.460
 7998TIP3    H223938   6.274   3.935   0.405
 7999TIP3   OH223939   8.283   3.669   2.174
 7999TIP3    H123940   8.267   3.598   2.112
 7999TIP3    H223941   8.212   3.662   2.237
 8000TIP3   OH223942   1.584   2.097   5.199
 8000TIP3    H123943   1.668   2.109   5.153
 8000TIP3    H223944   1.518   2.125   5.136
 8001TIP3   OH223945   5.849   5.228   1.672
 8001TIP3    H123946   5.820   5.145   1.710
 8001TIP3    H223947   5.889   5.275   1.746
 8002TIP3   OH223948   0.331   5.823   2.604
 8002TIP3    H123949   0.271   5.881   2.650
 8002TIP3    H223950   0.388   5.882   2.555
 8003TIP3   OH223951   7.735   4.229   0.242
 8003TIP3    H123952   7.643   4.202   0.237
 8003TIP3    H223953   7.755   4.229   0.336
 8004TIP3   OH223954   8.109   0.363   4.071
 8004TIP3    H123955   8.175   0.365   4.140
 8004TIP3    H223956   8.030   0.398   4.112
 8005TIP3   OH223957   7.073   1.792   3.968
 8005TIP3    H123958   7.059   1.736   3.891
 8005TIP3    H223959   6.985   1.807   4.003
 8006TIP3   OH223960   8.291   2.571   1.014
 8006TIP3    H123961   8.331   2.547   0.930
 8006TIP3    H223962   8.216   2.512   1.022
 8007TIP3   OH223963   1.054   1.223   6.747
 8007TIP3    H123964   0.972   1.184   6.779
 8007TIP3    H223965   1.122   1.167   6.783
 8008TIP3   OH223966   3.054   2.651   2.430
 8008TIP3    H123967   3.110   2.575   2.414
 8008TIP3    H223968   3.026   2.640   2.521
 8009TIP3   OH223969   5.086   2.300   6.374
 8009TIP3    H123970   5.165   2.301   6.427
 8009TIP3    H223971   5.014   2.307   6.437
 8010TIP3   OH223972   5.106   2.693   3.551
 8010TIP3    H123973   5.103   2.631   3.624
 8010TIP3    H223974   5.180   2.662   3.497
 8011TIP3   OH223975   4.078   3.538   5.001
 8011TIP3    H123976   3.996   3.538   5.050
 8011TIP3    H223977   4.092   3.446   4.976
 8012TIP3   OH223978   4.709   0.819   4.125
 8012TIP3    H123979   4.650   0.837   4.198
 8012TIP3    H223980   4.734   0.727   4.137
 8013TIP3   OH223981   6.777   2.575   0.550
 8013TIP3    H123982   6.805   2.631   0.622
 8013TIP3    H223983   6.797   2.625   0.471
 8014TIP3   OH223984   5.039   3.483   1.858
 8014TIP3    H123985   4.990   3.412   1.898
 8014TIP3    H223986   5.018   3.477   1.765
 8015TIP3   OH223987   1.266   2.424   4.753
 8015TIP3    H123988   1.174   2.400   4.744
 8015TIP3    H223989   1.312   2.362   4.696
 8016TIP3   OH223990   4.892   3.216   1.170
 8016TIP3    H123991   4.911   3.304   1.137
 8016TIP3    H223992   4.939   3.212   1.254
 8017TIP3   OH223993   8.087   4.886   1.216
 8017TIP3    H123994   8.020   4.937   1.261
 8017TIP3    H223995   8.164   4.942   1.216
 8018TIP3   OH223996   6.283   7.632   3.832
 8018TIP3    H123997   6.341   7.610   3.759
 8018TIP3    H223998   6.321   7.588   3.907
 8019TIP3   OH223999   8.005   3.839   5.561
 8019TIP3    H124000   8.003   3.922   5.513
 8019TIP3    H224001   8.083   3.794   5.528
 8020TIP3   OH224002   1.358   4.890   4.515
 8020TIP3    H124003   1.270   4.861   4.490
 8020TIP3    H224004   1.370   4.858   4.604
 8021TIP3   OH224005   1.564   2.479   6.357
 8021TIP3    H124006   1.479   2.487   6.401
 8021TIP3    H224007   1.572   2.558   6.305
 8022TIP3   OH224008   7.764   6.241   4.001
 8022TIP3    H124009   7.679   6.285   3.988
 8022TIP3    H224010   7.780   6.248   4.095
 8023TIP3   OH224011   3.542   6.807   5.482
 8023TIP3    H124012   3.620   6.772   5.527
 8023TIP3    H224013   3.485   6.836   5.553
 8024TIP3   OH224014   5.899   7.030   4.269
 8024TIP3    H124015   5.911   7.031   4.364
 8024TIP3    H224016   5.928   6.942   4.243
 8025TIP3   OH224017   6.212   5.324   0.587
 8025TIP3    H124018   6.209   5.418   0.570
 8025TIP3    H224019   6.224   5.316   0.682
 8026TIP3   OH224020   2.448   2.150   6.648
 8026TIP3    H124021   2.447   2.137   6.743
 8026TIP3    H224022   2.441   2.244   6.637
 8027TIP3   OH224023   2.385   6.909   6.490
 8027TIP3    H124024   2.375   6.904   6.395
 8027TIP3    H224025   2.471   6.871   6.507
 8028TIP3   OH224026   3.229   4.513   6.510
 8028TIP3    H124027   3.277   4.574   6.454
 8028TIP3    H224028   3.200   4.444   6.451
 8029TIP3   OH224029   2.460   1.574   3.227
 8029TIP3    H124030   2.461   1.492   3.276
 8029TIP3    H224031   2.450   1.642   3.294
 8030TIP3   OH224032   4.281   0.715   3.988
 8030TIP3    H124033   4.226   0.682   3.917
 8030TIP3    H224034   4.266   0.655   4.061
 8031TIP3   OH224035   6.257   7.643   1.132
 8031TIP3    H124036   6.261   7.684   1.045
 8031TIP3    H224037   6.345   7.610   1.147
 8032TIP3   OH224038   5.782   6.854   5.144
 8032TIP3    H124039   5.764   6.930   5.200
 8032TIP3    H224040   5.759   6.884   5.056
 8033TIP3   OH224041   2.632   1.716   4.771
 8033TIP3    H124042   2.601   1.655   4.838
 8033TIP3    H224043   2.590   1.686   4.691
 8034TIP3   OH224044   7.330   3.919   6.618
 8034TIP3    H124045   7.243   3.901   6.655
 8034TIP3    H224046   7.317   3.913   6.523
 8035TIP3   OH224047   0.985   2.825   5.387
 8035TIP3    H124048   0.929   2.894   5.423
 8035TIP3    H224049   1.056   2.817   5.451
 8036TIP3   OH224050   0.018   4.199   4.890
 8036TIP3    H124051  -0.027   4.277   4.921
 8036TIP3    H224052   0.079   4.231   4.824
 8037TIP3   OH224053   1.344   7.168   3.551
 8037TIP3    H124054   1.377   7.202   3.468
 8037TIP3    H224055   1.326   7.076   3.535
 8038TIP3   OH224056   4.967   2.657   5.227
 8038TIP3    H124057   4.957   2.724   5.295
 8038TIP3    H224058   5.036   2.692   5.170
 8039TIP3   OH224059   6.127   0.342   4.085
 8039TIP3    H124060   6.049   0.288   4.092
 8039TIP3    H224061   6.164   0.341   4.174
 8040TIP3   OH224062   1.042   2.889   3.875
 8040TIP3    H124063   0.997   2.929   3.950
 8040TIP3    H224064   1.135   2.892   3.899
 8041TIP3   OH224065   3.693   2.427   5.571
 8041TIP3    H124066   3.725   2.432   5.661
 8041TIP3    H224067   3.674   2.334   5.558
 8042TIP3   OH224068   5.514   6.338   1.071
 8042TIP3    H124069   5.604   6.370   1.070
 8042TIP3    H224070   5.460   6.417   1.065
 8043TIP3   OH224071   3.492   5.010   3.366
 8043TIP3    H124072   3.567   4.971   3.412
 8043TIP3    H224073   3.482   5.096   3.408
 8044TIP3   OH224074   1.968   4.859   2.242
 8044TIP3    H124075   2.017   4.920   2.297
 8044TIP3    H224076   1.928   4.798   2.304
 8045TIP3   OH224077   8.086   0.515   0.574
 8045TIP3    H124078   8.008   0.568   0.586
 8045TIP3    H224079   8.055   0.425   0.585
 8046TIP3   OH224080   5.986   7.576   5.101
 8046TIP3    H124081   5.974   7.501   5.158
 8046TIP3    H224082   5.959   7.652   5.153
 8047TIP3   OH224083   0.091   5.317   3.954
 8047TIP3    H124084   0.108   5.289   3.864
 8047TIP3    H224085   0.124   5.245   4.008
 8048TIP3   OH224086   0.538   5.323   6.277
 8048TIP3    H124087   0.573   5.299   6.363
 8048TIP3    H224088   0.545   5.418   6.274
 8049TIP3   OH224089   3.469   1.912   3.609
 8049TIP3    H124090   3.535   1.860   3.654
 8049TIP3    H224091   3.519   1.982   3.567
 8050TIP3   OH224092   5.299   5.586   6.653
 8050TIP3    H124093   5.362   5.647   6.616
 8050TIP3    H224094   5.244   5.560   6.580
 8051TIP3   OH224095   3.165   5.222   0.551
 8051TIP3    H124096   3.201   5.310   0.558
 8051TIP3    H224097   3.145   5.197   0.641
 8052TIP3   OH224098   5.347   1.710   1.387
 8052TIP3    H124099   5.283   1.773   1.418
 8052TIP3    H224100   5.369   1.739   1.298
 8053TIP3   OH224101   7.087   1.712   6.286
 8053TIP3    H124102   7.108   1.619   6.291
 8053TIP3    H224103   7.068   1.727   6.194
 8054TIP3   OH224104   0.373   3.734   1.306
 8054TIP3    H124105   0.423   3.749   1.385
 8054TIP3    H224106   0.302   3.675   1.333
 8055TIP3   OH224107   6.911   4.179   4.798
 8055TIP3    H124108   6.933   4.092   4.831
 8055TIP3    H224109   6.983   4.235   4.827
 8056TIP3   OH224110   6.870   4.710   4.475
 8056TIP3    H124111   6.819   4.734   4.552
 8056TIP3    H224112   6.856   4.616   4.465
 8057TIP3   OH224113   2.941   4.689   5.121
 8057TIP3    H124114   2.955   4.726   5.033
 8057TIP3    H224115   2.972   4.599   5.114
 8058TIP3   OH224116   6.375   1.915   3.703
 8058TIP3    H124117   6.349   2.005   3.725
 8058TIP3    H224118   6.414   1.881   3.784
 8059TIP3   OH224119   2.383   1.311   0.056
 8059TIP3    H124120   2.402   1.250   0.127
 8059TIP3    H224121   2.403   1.397   0.091
 8060TIP3   OH224122   1.783   7.356   1.240
 8060TIP3    H124123   1.723   7.413   1.288
 8060TIP3    H224124   1.733   7.276   1.224
 8061TIP3   OH224125   7.279   0.430   3.223
 8061TIP3    H124126   7.344   0.375   3.179
 8061TIP3    H224127   7.213   0.369   3.255
 8062TIP3   OH224128   7.173   4.053   3.306
 8062TIP3    H124129   7.100   4.025   3.250
 8062TIP3    H224130   7.165   4.149   3.308
 8063TIP3   OH224131   4.097   1.293   5.396
 8063TIP3    H124132   4.172   1.328   5.443
 8063TIP3    H224133   4.024   1.302   5.457
 8064TIP3   OH224134   4.032   6.473   4.158
 8064TIP3    H124135   4.075   6.494   4.241
 8064TIP3    H224136   3.997   6.384   4.171
 8065TIP3   OH224137   6.523   4.578   4.413
 8065TIP3    H124138   6.527   4.509   4.347
 8065TIP3    H224139   6.485   4.653   4.366
 8066TIP3   OH224140   4.499   4.333   6.726
 8066TIP3    H124141   4.440   4.346   6.800
 8066TIP3    H224142   4.550   4.256   6.749
 8067TIP3   OH224143   0.244   5.559   5.340
 8067TIP3    H124144   0.316   5.622   5.351
 8067TIP3    H224145   0.177   5.588   5.402
 8068TIP3   OH224146   2.743   5.587   4.585
 8068TIP3    H124147   2.657   5.560   4.616
 8068TIP3    H224148   2.730   5.675   4.550
 8069TIP3   OH224149   6.754   2.369   5.995
 8069TIP3    H124150   6.662   2.376   5.969
 8069TIP3    H224151   6.775   2.454   6.033
 8070TIP3   OH224152   7.604   5.367   2.146
 8070TIP3    H124153   7.675   5.376   2.209
 8070TIP3    H224154   7.625   5.430   2.077
 8071TIP3   OH224155   2.984   5.540   0.677
 8071TIP3    H124156   3.045   5.521   0.606
 8071TIP3    H224157   2.921   5.468   0.674
 8072TIP3   OH224158   3.316   7.546   1.060
 8072TIP3    H124159   3.298   7.478   1.125
 8072TIP3    H224160   3.229   7.580   1.037
 8073TIP3   OH224161   1.426   6.563   0.486
 8073TIP3    H124162   1.346   6.540   0.439
 8073TIP3    H224163   1.496   6.524   0.433
 8074TIP3   OH224164   6.972   4.299   6.615
 8074TIP3    H124165   6.968   4.344   6.530
 8074TIP3    H224166   7.000   4.210   6.592
 8075TIP3   OH224167   4.261   7.725   2.386
 8075TIP3    H124168   4.356   7.715   2.381
 8075TIP3    H224169   4.247   7.785   2.459
 8076TIP3   OH224170   8.271   5.206   2.416
 8076TIP3    H124171   8.236   5.284   2.372
 8076TIP3    H224172   8.195   5.148   2.425
 8077TIP3   OH224173   4.030   3.479   4.538
 8077TIP3    H124174   4.099   3.476   4.472
 8077TIP3    H224175   3.954   3.514   4.491
 8078TIP3   OH224176   3.986   5.338   2.621
 8078TIP3    H124177   4.061   5.284   2.645
 8078TIP3    H224178   3.977   5.325   2.527
 8079TIP3   OH224179   6.240   1.269   2.418
 8079TIP3    H124180   6.285   1.203   2.365
 8079TIP3    H224181   6.267   1.352   2.380
 8080TIP3   OH224182   3.481   2.588   2.443
 8080TIP3    H124183   3.576   2.580   2.442
 8080TIP3    H224184   3.452   2.534   2.517
 8081TIP3   OH224185   5.127   0.521   0.161
 8081TIP3    H124186   5.043   0.484   0.189
 8081TIP3    H224187   5.137   0.601   0.213
 8082TIP3   OH224188   7.411   3.751   1.521
 8082TIP3    H124189   7.404   3.824   1.460
 8082TIP3    H224190   7.431   3.675   1.465
 8083TIP3   OH224191   1.749   4.582   0.681
 8083TIP3    H124192   1.739   4.498   0.635
 8083TIP3    H224193   1.722   4.564   0.771
 8084TIP3   OH224194   2.108   5.688   4.533
 8084TIP3    H124195   2.060   5.764   4.565
 8084TIP3    H224196   2.042   5.618   4.529
 8085TIP3   OH224197   7.699   7.528   5.573
 8085TIP3    H124198   7.605   7.543   5.572
 8085TIP3    H224199   7.737   7.608   5.536
 8086TIP3   OH224200   4.122   7.306   5.482
 8086TIP3    H124201   4.090   7.269   5.399
 8086TIP3    H224202   4.178   7.379   5.456
 8087TIP3   OH224203   7.491   4.839   3.343
 8087TIP3    H124204   7.396   4.827   3.345
 8087TIP3    H224205   7.520   4.789   3.267
 8088TIP3   OH224206   4.079   0.931   0.803
 8088TIP3    H124207   4.080   1.012   0.753
 8088TIP3    H224208   4.140   0.946   0.875
 8089TIP3   OH224209   6.029   4.525   3.880
 8089TIP3    H124210   6.071   4.453   3.833
 8089TIP3    H224211   5.971   4.565   3.816
 8090TIP3   OH224212   2.507   4.615   1.576
 8090TIP3    H124213   2.507   4.706   1.546
 8090TIP3    H224214   2.493   4.620   1.671
 8091TIP3   OH224215   6.408   5.891   1.102
 8091TIP3    H124216   6.407   5.796   1.090
 8091TIP3    H224217   6.485   5.921   1.054
 8092TIP3   OH224218   1.317   2.547   4.983
 8092TIP3    H124219   1.292   2.517   4.896
 8092TIP3    H224220   1.244   2.522   5.040
 8093TIP3   OH224221   4.697   6.882   0.198
 8093TIP3    H124222   4.612   6.919   0.175
 8093TIP3    H224223   4.743   6.954   0.242
 8094TIP3   OH224224   0.063   6.659   5.217
 8094TIP3    H124225   0.132   6.618   5.269
 8094TIP3    H224226  -0.013   6.660   5.275
 8095TIP3   OH224227   6.533   5.985   3.327
 8095TIP3    H124228   6.540   6.076   3.297
 8095TIP3    H224229   6.607   5.941   3.286
 8096TIP3   OH224230   7.336   0.354   4.253
 8096TIP3    H124231   7.276   0.390   4.188
 8096TIP3    H224232   7.408   0.416   4.255
 8097TIP3   OH224233   5.457   0.753   3.678
 8097TIP3    H124234   5.533   0.758   3.736
 8097TIP3    H224235   5.420   0.667   3.695
 8098TIP3   OH224236   3.308   6.476   6.289
 8098TIP3    H124237   3.346   6.520   6.365
 8098TIP3    H224238   3.213   6.485   6.302
 8099TIP3   OH224239   1.426   4.951   1.834
 8099TIP3    H124240   1.394   4.955   1.744
 8099TIP3    H224241   1.461   5.039   1.850
 8100TIP3   OH224242   0.954   2.971   2.208
 8100TIP3    H124243   0.965   2.924   2.291
 8100TIP3    H224244   0.969   3.063   2.231
 8101TIP3   OH224245   7.191   3.851   1.029
 8101TIP3    H124246   7.113   3.904   1.013
 8101TIP3    H224247   7.263   3.914   1.031
 8102TIP3   OH224248   1.854   4.605   6.217
 8102TIP3    H124249   1.926   4.565   6.169
 8102TIP3    H224250   1.778   4.592   6.161
 8103TIP3   OH224251   7.250   4.608   6.456
 8103TIP3    H124252   7.306   4.672   6.500
 8103TIP3    H224253   7.310   4.555   6.404
 8104TIP3   OH224254   8.018   3.700   5.802
 8104TIP3    H124255   7.954   3.739   5.861
 8104TIP3    H224256   8.033   3.767   5.735
 8105TIP3   OH224257   6.481   0.364   3.835
 8105TIP3    H124258   6.548   0.422   3.799
 8105TIP3    H224259   6.417   0.423   3.874
 8106TIP3   OH224260   5.279   3.153   0.047
 8106TIP3    H124261   5.227   3.157  -0.034
 8106TIP3    H224262   5.304   3.244   0.063
 8107TIP3   OH224263   2.670   1.642   1.328
 8107TIP3    H124264   2.731   1.648   1.401
 8107TIP3    H224265   2.723   1.610   1.255
 8108TIP3   OH224266   6.325   1.779   4.356
 8108TIP3    H124267   6.413   1.815   4.367
 8108TIP3    H224268   6.291   1.771   4.445
 8109TIP3   OH224269   1.990   3.922   0.418
 8109TIP3    H124270   1.999   3.974   0.339
 8109TIP3    H224271   2.063   3.950   0.474
 8110TIP3   OH224272   2.586   1.249   1.676
 8110TIP3    H124273   2.632   1.190   1.736
 8110TIP3    H224274   2.620   1.226   1.590
 8111TIP3   OH224275   5.669   2.375   2.058
 8111TIP3    H124276   5.704   2.455   2.020
 8111TIP3    H224277   5.593   2.404   2.109
 8112TIP3   OH224278   1.951   4.106   1.029
 8112TIP3    H124279   1.943   4.148   0.944
 8112TIP3    H224280   1.896   4.028   1.023
 8113TIP3   OH224281   4.082   6.677   5.822
 8113TIP3    H124282   4.034   6.759   5.829
 8113TIP3    H224283   4.169   6.703   5.791
 8114TIP3   OH224284   5.439   3.661   3.108
 8114TIP3    H124285   5.453   3.640   3.200
 8114TIP3    H224286   5.520   3.632   3.065
 8115TIP3   OH224287   8.011   5.615   3.531
 8115TIP3    H124288   7.978   5.566   3.457
 8115TIP3    H224289   8.084   5.563   3.565
 8116TIP3   OH224290   0.401   6.464   3.742
 8116TIP3    H124291   0.428   6.491   3.655
 8116TIP3    H224292   0.306   6.452   3.735
 8117TIP3   OH224293   1.022   0.446   0.364
 8117TIP3    H124294   0.949   0.441   0.426
 8117TIP3    H224295   1.094   0.401   0.410
 8118TIP3   OH224296   7.942   1.332   0.661
 8118TIP3    H124297   8.029   1.360   0.632
 8118TIP3    H224298   7.957   1.285   0.742
 8119TIP3   OH224299   0.288   1.381   1.167
 8119TIP3    H124300   0.302   1.395   1.074
 8119TIP3    H224301   0.193   1.381   1.177
 8120TIP3   OH224302   4.872   4.951   0.403
 8120TIP3    H124303   4.869   4.879   0.465
 8120TIP3    H224304   4.930   4.921   0.333
 8121TIP3   OH224305   3.792   4.906   4.248
 8121TIP3    H124306   3.864   4.845   4.263
 8121TIP3    H224307   3.748   4.913   4.333
 8122TIP3   OH224308   1.627   7.639   4.160
 8122TIP3    H124309   1.540   7.611   4.130
 8122TIP3    H224310   1.649   7.712   4.102
 8123TIP3   OH224311   7.278   5.002   0.754
 8123TIP3    H124312   7.310   4.912   0.765
 8123TIP3    H224313   7.347   5.056   0.791
 8124TIP3   OH224314   3.997   7.221   4.706
 8124TIP3    H124315   4.067   7.174   4.662
 8124TIP3    H224316   3.917   7.193   4.660
 8125TIP3   OH224317   3.348   3.859   4.607
 8125TIP3    H124318   3.364   3.931   4.668
 8125TIP3    H224319   3.415   3.871   4.539
 8126TIP3   OH224320   6.376   0.621   0.428
 8126TIP3    H124321   6.388   0.710   0.395
 8126TIP3    H224322   6.370   0.631   0.523
 8127TIP3   OH224323   7.465   3.624   5.818
 8127TIP3    H124324   7.487   3.532   5.831
 8127TIP3    H224325   7.414   3.626   5.737
 8128TIP3   OH224326   7.908   6.870   2.710
 8128TIP3    H124327   7.852   6.848   2.635
 8128TIP3    H224328   7.988   6.905   2.671
 8129TIP3   OH224329   6.679   6.667   4.945
 8129TIP3    H124330   6.666   6.604   4.874
 8129TIP3    H224331   6.701   6.749   4.900
 8130TIP3   OH224332   7.172   5.901   3.659
 8130TIP3    H124333   7.219   5.964   3.714
 8130TIP3    H224334   7.150   5.950   3.580
 8131TIP3   OH224335   5.633   0.183   5.275
 8131TIP3    H124336   5.672   0.146   5.196
 8131TIP3    H224337   5.563   0.240   5.243
 8132TIP3   OH224338   4.647   4.950   2.532
 8132TIP3    H124339   4.595   5.021   2.570
 8132TIP3    H224340   4.693   4.912   2.606
 8133TIP3   OH224341   7.864   5.586   1.754
 8133TIP3    H124342   7.927   5.514   1.742
 8133TIP3    H224343   7.908   5.663   1.718
 8134TIP3   OH224344   0.225   3.099   6.719
 8134TIP3    H124345   0.299   3.066   6.769
 8134TIP3    H224346   0.261   3.119   6.633
 8135TIP3   OH224347   0.949   2.127   3.102
 8135TIP3    H124348   0.954   2.031   3.107
 8135TIP3    H224349   0.882   2.150   3.165
 8136TIP3   OH224350   5.210   2.184   3.834
 8136TIP3    H124351   5.163   2.175   3.751
 8136TIP3    H224352   5.182   2.109   3.886
 8137TIP3   OH224353   0.804   1.438   5.269
 8137TIP3    H124354   0.799   1.466   5.360
 8137TIP3    H224355   0.780   1.516   5.218
 8138TIP3   OH224356   3.011   4.071   1.700
 8138TIP3    H124357   2.956   4.080   1.622
 8138TIP3    H224358   3.027   4.161   1.728
 8139TIP3   OH224359   0.932   5.589   4.868
 8139TIP3    H124360   0.933   5.498   4.838
 8139TIP3    H224361   0.862   5.592   4.933
 8140TIP3   OH224362   7.701   7.613   1.536
 8140TIP3    H124363   7.702   7.526   1.497
 8140TIP3    H224364   7.727   7.598   1.627
 8141TIP3   OH224365   7.649   5.779   6.303
 8141TIP3    H124366   7.741   5.756   6.285
 8141TIP3    H224367   7.644   5.784   6.398
 8142TIP3   OH224368   2.004   4.892   4.663
 8142TIP3    H124369   2.024   4.980   4.694
 8142TIP3    H224370   1.996   4.839   4.742
 8143TIP3   OH224371   0.415   6.090   6.498
 8143TIP3    H124372   0.460   6.134   6.425
 8143TIP3    H224373   0.414   5.998   6.473
 8144TIP3   OH224374   0.526   0.692   0.999
 8144TIP3    H124375   0.521   0.603   1.036
 8144TIP3    H224376   0.434   0.718   0.990
 8145TIP3   OH224377   7.670   5.558   1.529
 8145TIP3    H124378   7.601   5.601   1.580
 8145TIP3    H224379   7.724   5.514   1.594
 8146TIP3   OH224380   4.497   4.519   5.251
 8146TIP3    H124381   4.531   4.565   5.328
 8146TIP3    H224382   4.576   4.493   5.202
 8147TIP3   OH224383   6.766   7.028   1.090
 8147TIP3    H124384   6.780   6.933   1.082
 8147TIP3    H224385   6.802   7.050   1.176
 8148TIP3   OH224386   1.772   1.721   1.334
 8148TIP3    H124387   1.745   1.700   1.423
 8148TIP3    H224388   1.780   1.636   1.291
 8149TIP3   OH224389   6.716   3.005   0.117
 8149TIP3    H124390   6.661   3.078   0.089
 8149TIP3    H224391   6.655   2.945   0.161
 8150TIP3   OH224392   3.506   3.759   1.925
 8150TIP3    H124393   3.581   3.773   1.867
 8150TIP3    H224394   3.430   3.783   1.872
 8151TIP3   OH224395   5.033   6.888   2.553
 8151TIP3    H124396   5.019   6.959   2.615
 8151TIP3    H224397   4.945   6.859   2.530
 8152TIP3   OH224398   8.183   5.420   3.540
 8152TIP3    H124399   8.210   5.430   3.449
 8152TIP3    H224400   8.254   5.371   3.581
 8153TIP3   OH224401   3.454   2.282   5.398
 8153TIP3    H124402   3.511   2.317   5.329
 8153TIP3    H224403   3.416   2.203   5.360
 8154TIP3   OH224404   2.432   6.759   3.896
 8154TIP3    H124405   2.465   6.814   3.826
 8154TIP3    H224406   2.479   6.788   3.974
 8155TIP3   OH224407   4.634   3.883   1.340
 8155TIP3    H124408   4.554   3.877   1.392
 8155TIP3    H224409   4.604   3.895   1.250
 8156TIP3   OH224410   4.835   1.046   0.701
 8156TIP3    H124411   4.757   1.055   0.645
 8156TIP3    H224412   4.801   1.051   0.790
 8157TIP3   OH224413   0.602   4.837   4.301
 8157TIP3    H124414   0.544   4.839   4.377
 8157TIP3    H224415   0.619   4.929   4.281
 8158TIP3   OH224416   7.854   6.233   0.557
 8158TIP3    H124417   7.908   6.170   0.511
 8158TIP3    H224418   7.867   6.316   0.511
 8159TIP3   OH224419   8.257   3.768   6.006
 8159TIP3    H124420   8.189   3.805   5.948
 8159TIP3    H224421   8.229   3.793   6.094
 8160TIP3   OH224422   5.601   2.489   6.239
 8160TIP3    H124423   5.575   2.480   6.331
 8160TIP3    H224424   5.648   2.409   6.219
 8161TIP3   OH224425   2.305   2.425   6.184
 8161TIP3    H124426   2.324   2.399   6.094
 8161TIP3    H224427   2.299   2.342   6.232
 8162TIP3   OH224428   2.245   5.790   5.136
 8162TIP3    H124429   2.215   5.864   5.188
 8162TIP3    H224430   2.173   5.727   5.140
 8163TIP3   OH224431   5.099   5.849   1.391
 8163TIP3    H124432   5.095   5.942   1.367
 8163TIP3    H224433   5.110   5.850   1.486
 8164TIP3   OH224434   4.554   0.628   5.520
 8164TIP3    H124435   4.503   0.617   5.441
 8164TIP3    H224436   4.641   0.655   5.489
 8165TIP3   OH224437   2.394   0.937   3.347
 8165TIP3    H124438   2.383   0.842   3.346
 8165TIP3    H224439   2.455   0.953   3.419
 8166TIP3   OH224440   7.932   3.192   4.533
 8166TIP3    H124441   7.936   3.159   4.622
 8166TIP3    H224442   7.853   3.153   4.496
 8167TIP3   OH224443   1.271   2.973   4.846
 8167TIP3    H124444   1.244   2.921   4.770
 8167TIP3    H224445   1.363   2.951   4.859
 8168TIP3   OH224446   3.585   5.725   0.396
 8168TIP3    H124447   3.635   5.648   0.425
 8168TIP3    H224448   3.534   5.693   0.321
 8169TIP3   OH224449   5.998   1.588   4.057
 8169TIP3    H124450   5.954   1.543   4.128
 8169TIP3    H224451   6.072   1.632   4.098
 8170TIP3   OH224452   4.619   5.748   2.146
 8170TIP3    H124453   4.630   5.755   2.240
 8170TIP3    H224454   4.707   5.738   2.111
 8171TIP3   OH224455   6.439   6.617   1.706
 8171TIP3    H124456   6.528   6.587   1.725
 8171TIP3    H224457   6.397   6.542   1.663
 8172TIP3   OH224458   0.825   4.604   0.901
 8172TIP3    H124459   0.758   4.591   0.968
 8172TIP3    H224460   0.864   4.517   0.889
 8173TIP3   OH224461   7.671   2.751   0.443
 8173TIP3    H124462   7.700   2.686   0.507
 8173TIP3    H224463   7.576   2.749   0.449
 8174TIP3   OH224464   5.146   1.137   4.542
 8174TIP3    H124465   5.077   1.149   4.476
 8174TIP3    H224466   5.107   1.080   4.607
 8175TIP3   OH224467   5.918   5.911   4.116
 8175TIP3    H124468   5.999   5.919   4.167
 8175TIP3    H224469   5.879   5.829   4.147
 8176TIP3   OH224470   7.270   6.373   2.530
 8176TIP3    H124471   7.187   6.419   2.515
 8176TIP3    H224472   7.334   6.443   2.544
 8177TIP3   OH224473   7.177   1.490   5.160
 8177TIP3    H124474   7.103   1.476   5.218
 8177TIP3    H224475   7.154   1.568   5.110
 8178TIP3   OH224476   3.071   4.191   0.293
 8178TIP3    H124477   3.054   4.128   0.223
 8178TIP3    H224478   3.146   4.155   0.340
 8179TIP3   OH224479   5.001   5.299   2.932
 8179TIP3    H124480   5.070   5.310   2.997
 8179TIP3    H224481   5.037   5.238   2.868
 8180TIP3   OH224482   4.341   1.612   0.077
 8180TIP3    H124483   4.290   1.635   0.000
 8180TIP3    H224484   4.331   1.687   0.136
 8181TIP3   OH224485   3.745   5.273   3.511
 8181TIP3    H124486   3.825   5.285   3.562
 8181TIP3    H224487   3.771   5.213   3.440
 8182TIP3   OH224488   4.430   2.709   0.012
 8182TIP3    H124489   4.449   2.796  -0.022
 8182TIP3    H224490   4.348   2.720   0.060
 8183TIP3   OH224491   3.422   6.974   1.738
 8183TIP3    H124492   3.399   6.971   1.830
 8183TIP3    H224493   3.495   7.037   1.734
 8184TIP3   OH224494   2.104   0.966   4.595
 8184TIP3    H124495   2.055   1.012   4.662
 8184TIP3    H224496   2.086   1.014   4.514
 8185TIP3   OH224497   5.737   7.314   0.465
 8185TIP3    H124498   5.682   7.332   0.389
 8185TIP3    H224499   5.680   7.330   0.540
 8186TIP3   OH224500   7.483   3.259   1.938
 8186TIP3    H124501   7.528   3.339   1.910
 8186TIP3    H224502   7.410   3.289   1.992
 8187TIP3   OH224503   1.114   0.964   1.250
 8187TIP3    H124504   1.170   0.895   1.286
 8187TIP3    H224505   1.152   1.045   1.283
 8188TIP3   OH224506   8.250   3.898   1.446
 8188TIP3    H124507   8.186   3.914   1.515
 8188TIP3    H224508   8.334   3.921   1.484
 8189TIP3   OH224509   4.752   3.922   3.122
 8189TIP3    H124510   4.802   3.845   3.150
 8189TIP3    H224511   4.714   3.897   3.037
 8190TIP3   OH224512   3.623   7.354   6.217
 8190TIP3    H124513   3.611   7.447   6.238
 8190TIP3    H224514   3.534   7.322   6.200
 8191TIP3   OH224515   7.320   3.643   2.795
 8191TIP3    H124516   7.321   3.553   2.763
 8191TIP3    H224517   7.410   3.658   2.826
 8192TIP3   OH224518   5.285   3.219   6.812
 8192TIP3    H124519   5.271   3.309   6.784
 8192TIP3    H224520   5.302   3.171   6.730
 8193TIP3   OH224521   7.079   6.133   1.057
 8193TIP3    H124522   7.017   6.155   1.126
 8193TIP3    H224523   7.127   6.058   1.090
 8194TIP3   OH224524   0.716   2.929   3.453
 8194TIP3    H124525   0.697   3.002   3.511
 8194TIP3    H224526   0.797   2.955   3.408
 8195TIP3   OH224527   4.043   1.747   2.887
 8195TIP3    H124528   4.096   1.669   2.909
 8195TIP3    H224529   4.108   1.814   2.867
 8196TIP3   OH224530   1.198   3.172   0.081
 8196TIP3    H124531   1.130   3.220   0.127
 8196TIP3    H224532   1.273   3.231   0.078
 8197TIP3   OH224533   1.175   0.044   4.775
 8197TIP3    H124534   1.245   0.109   4.763
 8197TIP3    H224535   1.100   0.080   4.728
 8198TIP3   OH224536   1.997   4.569   3.956
 8198TIP3    H124537   2.069   4.516   3.991
 8198TIP3    H224538   1.972   4.524   3.875
 8199TIP3   OH224539   0.442   7.809   3.613
 8199TIP3    H124540   0.415   7.857   3.534
 8199TIP3    H224541   0.377   7.739   3.621
 8200TIP3   OH224542   7.536   7.056   6.065
 8200TIP3    H124543   7.525   7.130   6.006
 8200TIP3    H224544   7.628   7.059   6.092
 8201TIP3   OH224545   3.588   0.118   1.264
 8201TIP3    H124546   3.634   0.189   1.220
 8201TIP3    H224547   3.538   0.161   1.333
 8202TIP3   OH224548   6.806   2.728   4.595
 8202TIP3    H124549   6.750   2.674   4.652
 8202TIP3    H224550   6.799   2.687   4.509
 8203TIP3   OH224551   5.963   2.394   2.239
 8203TIP3    H124552   5.955   2.431   2.152
 8203TIP3    H224553   5.932   2.304   2.229
 8204TIP3   OH224554   3.521   2.480   3.819
 8204TIP3    H124555   3.553   2.570   3.824
 8204TIP3    H224556   3.572   2.441   3.748
 8205TIP3   OH224557   0.097   4.304   2.116
 8205TIP3    H124558   0.070   4.277   2.204
 8205TIP3    H224559   0.062   4.392   2.106
 8206TIP3   OH224560   3.564   2.752   6.463
 8206TIP3    H124561   3.564   2.677   6.523
 8206TIP3    H224562   3.598   2.718   6.381
 8207TIP3   OH224563   5.225   3.193   3.189
 8207TIP3    H124564   5.180   3.109   3.181
 8207TIP3    H224565   5.199   3.226   3.276
 8208TIP3   OH224566   5.255   3.707   5.085
 8208TIP3    H124567   5.163   3.726   5.068
 8208TIP3    H224568   5.282   3.651   5.013
 8209TIP3   OH224569   5.853   7.056   5.953
 8209TIP3    H124570   5.809   7.093   5.877
 8209TIP3    H224571   5.939   7.098   5.954
 8210TIP3   OH224572   3.594   0.944   2.163
 8210TIP3    H124573   3.668   0.891   2.131
 8210TIP3    H224574   3.518   0.911   2.116
 8211TIP3   OH224575   2.484   1.350   2.745
 8211TIP3    H124576   2.535   1.270   2.760
 8211TIP3    H224577   2.502   1.404   2.821
 8212TIP3   OH224578   5.272   0.115   6.054
 8212TIP3    H124579   5.364   0.126   6.075
 8212TIP3    H224580   5.238   0.057   6.122
 8213TIP3   OH224581   1.342   3.885   6.329
 8213TIP3    H124582   1.412   3.840   6.377
 8213TIP3    H224583   1.273   3.898   6.393
 8214TIP3   OH224584   4.002   2.792   3.891
 8214TIP3    H124585   4.010   2.765   3.982
 8214TIP3    H224586   3.989   2.887   3.895
 8215TIP3   OH224587   6.352   0.753   1.586
 8215TIP3    H124588   6.434   0.791   1.553
 8215TIP3    H224589   6.290   0.765   1.514
 8216TIP3   OH224590   0.948   3.084   5.160
 8216TIP3    H124591   0.947   3.051   5.070
 8216TIP3    H224592   0.857   3.111   5.176
 8217TIP3   OH224593   2.521   3.909   5.854
 8217TIP3    H124594   2.445   3.897   5.910
 8217TIP3    H224595   2.493   3.974   5.789
 8218TIP3   OH224596   2.585   1.710   1.672
 8218TIP3    H124597   2.553   1.680   1.757
 8218TIP3    H224598   2.506   1.718   1.619
 8219TIP3   OH224599   7.919   3.033   1.894
 8219TIP3    H124600   7.995   3.072   1.853
 8219TIP3    H224601   7.863   3.107   1.918
 8220TIP3   OH224602   6.919   1.048   5.318
 8220TIP3    H124603   6.849   1.057   5.253
 8220TIP3    H224604   6.893   1.106   5.389
 8221TIP3   OH224605   2.226   0.209   0.472
 8221TIP3    H124606   2.146   0.232   0.424
 8221TIP3    H224607   2.297   0.251   0.422
 8222TIP3   OH224608   1.013   1.862   5.100
 8222TIP3    H124609   0.998   1.767   5.102
 8222TIP3    H224610   0.940   1.898   5.150
 8223TIP3   OH224611   5.776   3.730   6.593
 8223TIP3    H124612   5.824   3.752   6.673
 8223TIP3    H224613   5.687   3.761   6.608
 8224TIP3   OH224614   6.258   2.821   6.540
 8224TIP3    H124615   6.322   2.767   6.493
 8224TIP3    H224616   6.199   2.758   6.581
 8225TIP3   OH224617   6.172   2.769   2.668
 8225TIP3    H124618   6.262   2.784   2.640
 8225TIP3    H224619   6.123   2.843   2.633
 8226TIP3   OH224620   3.097   2.279   1.981
 8226TIP3    H124621   3.087   2.221   2.056
 8226TIP3    H224622   3.093   2.221   1.905
 8227TIP3   OH224623   1.701   6.692   4.192
 8227TIP3    H124624   1.622   6.640   4.175
 8227TIP3    H224625   1.761   6.631   4.234
 8228TIP3   OH224626   3.806   1.748   3.397
 8228TIP3    H124627   3.897   1.732   3.375
 8228TIP3    H224628   3.764   1.773   3.315
 8229TIP3   OH224629   6.651   3.585   4.422
 8229TIP3    H124630   6.641   3.669   4.378
 8229TIP3    H224631   6.671   3.523   4.351
 8230TIP3   OH224632   1.418   2.382   2.914
 8230TIP3    H124633   1.340   2.329   2.932
 8230TIP3    H224634   1.413   2.403   2.821
 8231TIP3   OH224635   0.191   6.966   6.713
 8231TIP3    H124636   0.125   7.035   6.710
 8231TIP3    H224637   0.243   6.980   6.634
 8232TIP3   OH224638   5.316   0.172   2.889
 8232TIP3    H124639   5.265   0.108   2.939
 8232TIP3    H224640   5.263   0.252   2.892
 8233TIP3   OH224641   3.711   7.079   4.253
 8233TIP3    H124642   3.789   7.066   4.307
 8233TIP3    H224643   3.731   7.033   4.172
 8234TIP3   OH224644   3.477   3.502   3.945
 8234TIP3    H124645   3.527   3.505   4.027
 8234TIP3    H224646   3.531   3.552   3.883
 8235TIP3   OH224647   4.185   4.458   0.476
 8235TIP3    H124648   4.113   4.501   0.430
 8235TIP3    H224649   4.163   4.365   0.473
 8236TIP3   OH224650   3.261   4.328   5.036
 8236TIP3    H124651   3.284   4.354   4.946
 8236TIP3    H224652   3.255   4.232   5.032
 8237TIP3   OH224653   5.275   3.420   6.414
 8237TIP3    H124654   5.272   3.515   6.428
 8237TIP3    H224655   5.306   3.410   6.324
 8238TIP3   OH224656   1.407   4.177   0.200
 8238TIP3    H124657   1.378   4.250   0.145
 8238TIP3    H224658   1.337   4.113   0.194
 8239TIP3   OH224659   3.593   6.440   5.221
 8239TIP3    H124660   3.627   6.529   5.223
 8239TIP3    H224661   3.556   6.426   5.308
 8240TIP3   OH224662   3.779   6.265   1.944
 8240TIP3    H124663   3.809   6.179   1.972
 8240TIP3    H224664   3.706   6.285   2.003
 8241TIP3   OH224665   0.625   1.868   0.507
 8241TIP3    H124666   0.635   1.914   0.424
 8241TIP3    H224667   0.698   1.806   0.510
 8242TIP3   OH224668   7.084   5.527   4.141
 8242TIP3    H124669   7.176   5.519   4.117
 8242TIP3    H224670   7.038   5.542   4.058
 8243TIP3   OH224671   5.453   6.906   4.857
 8243TIP3    H124672   5.374   6.882   4.810
 8243TIP3    H224673   5.428   6.983   4.909
 8244TIP3   OH224674   1.978   3.751   5.327
 8244TIP3    H124675   2.003   3.670   5.282
 8244TIP3    H224676   2.055   3.773   5.380
 8245TIP3   OH224677   4.146   3.351   6.051
 8245TIP3    H124678   4.151   3.444   6.072
 8245TIP3    H224679   4.224   3.335   5.998
 8246TIP3   OH224680   5.182   3.280   1.238
 8246TIP3    H124681   5.195   3.200   1.288
 8246TIP3    H224682   5.140   3.340   1.300
 8247TIP3   OH224683   1.804   7.395   1.598
 8247TIP3    H124684   1.764   7.309   1.601
 8247TIP3    H224685   1.786   7.434   1.683
 8248TIP3   OH224686   4.707   5.878   6.273
 8248TIP3    H124687   4.683   5.967   6.299
 8248TIP3    H224688   4.802   5.881   6.260
 8249TIP3   OH224689   2.271   7.404   6.035
 8249TIP3    H124690   2.269   7.425   6.128
 8249TIP3    H224691   2.358   7.433   6.006
 8250TIP3   OH224692   8.168   7.578   3.190
 8250TIP3    H124693   8.149   7.497   3.238
 8250TIP3    H224694   8.138   7.561   3.101
 8251TIP3   OH224695   3.292   2.367   1.685
 8251TIP3    H124696   3.233   2.308   1.638
 8251TIP3    H224697   3.240   2.445   1.701
 8252TIP3   OH224698   6.525   0.526   2.281
 8252TIP3    H124699   6.437   0.557   2.301
 8252TIP3    H224700   6.522   0.432   2.299
 8253TIP3   OH224701   7.715   2.308   0.674
 8253TIP3    H124702   7.734   2.315   0.767
 8253TIP3    H224703   7.750   2.223   0.648
 8254TIP3   OH224704   7.130   6.919   6.231
 8254TIP3    H124705   7.078   6.918   6.150
 8254TIP3    H224706   7.199   6.982   6.213
 8255TIP3   OH224707   5.100   2.364   3.535
 8255TIP3    H124708   5.044   2.361   3.457
 8255TIP3    H224709   5.130   2.274   3.547
 8256TIP3   OH224710   6.557   3.159   1.695
 8256TIP3    H124711   6.577   3.085   1.639
 8256TIP3    H224712   6.628   3.222   1.679
 8257TIP3   OH224713   5.743   7.723   2.522
 8257TIP3    H124714   5.811   7.726   2.589
 8257TIP3    H224715   5.691   7.802   2.538
 8258TIP3   OH224716   1.052   7.454   2.965
 8258TIP3    H124717   1.053   7.543   2.931
 8258TIP3    H224718   1.131   7.448   3.019
 8259TIP3   OH224719   4.855   1.387   6.549
 8259TIP3    H124720   4.902   1.355   6.472
 8259TIP3    H224721   4.914   1.373   6.622
 8260TIP3   OH224722   7.375   2.447   6.271
 8260TIP3    H124723   7.284   2.452   6.299
 8260TIP3    H224724   7.426   2.460   6.351
 8261TIP3   OH224725   6.938   6.185   5.613
 8261TIP3    H124726   6.951   6.150   5.525
 8261TIP3    H224727   6.904   6.112   5.664
 8262TIP3   OH224728   6.332   1.372   2.788
 8262TIP3    H124729   6.309   1.284   2.757
 8262TIP3    H224730   6.337   1.363   2.883
 8263TIP3   OH224731   3.959   5.291   2.094
 8263TIP3    H124732   4.014   5.232   2.042
 8263TIP3    H224733   4.003   5.295   2.179
 8264TIP3   OH224734   3.088   1.194   0.322
 8264TIP3    H124735   3.055   1.104   0.322
 8264TIP3    H224736   3.053   1.233   0.242
 8265TIP3   OH224737   7.972   1.213   6.049
 8265TIP3    H124738   7.890   1.170   6.075
 8265TIP3    H224739   8.013   1.239   6.131
 8266TIP3   OH224740   0.252   7.618   3.612
 8266TIP3    H124741   0.252   7.529   3.647
 8266TIP3    H224742   0.199   7.668   3.674
 8267TIP3   OH224743   8.081   2.343   3.606
 8267TIP3    H124744   8.133   2.413   3.567
 8267TIP3    H224745   8.101   2.347   3.700
 8268TIP3   OH224746   4.327   2.401   0.813
 8268TIP3    H124747   4.410   2.368   0.849
 8268TIP3    H224748   4.264   2.388   0.884
 8269TIP3   OH224749   5.774   5.654   6.652
 8269TIP3    H124750   5.724   5.722   6.607
 8269TIP3    H224751   5.796   5.692   6.737
 8270TIP3   OH224752   1.443   5.506   6.805
 8270TIP3    H124753   1.354   5.512   6.770
 8270TIP3    H224754   1.484   5.437   6.752
 8271TIP3   OH224755   4.680   7.792   1.580
 8271TIP3    H124756   4.748   7.804   1.647
 8271TIP3    H224757   4.721   7.734   1.516
 8272TIP3   OH224758   2.245   3.689   1.682
 8272TIP3    H124759   2.268   3.607   1.638
 8272TIP3    H224760   2.326   3.716   1.726
 8273TIP3   OH224761   7.224   5.465   0.435
 8273TIP3    H124762   7.202   5.463   0.528
 8273TIP3    H224763   7.317   5.443   0.431
 8274TIP3   OH224764   5.859   5.705   4.419
 8274TIP3    H124765   5.862   5.771   4.489
 8274TIP3    H224766   5.769   5.708   4.387
 8275TIP3   OH224767   1.486   6.517   2.157
 8275TIP3    H124768   1.402   6.477   2.136
 8275TIP3    H224769   1.473   6.610   2.141
 8276TIP3   OH224770   4.498   5.991   5.263
 8276TIP3    H124771   4.418   6.040   5.281
 8276TIP3    H224772   4.529   5.962   5.350
 8277TIP3   OH224773   4.355   0.844   1.221
 8277TIP3    H124774   4.349   0.881   1.309
 8277TIP3    H224775   4.330   0.753   1.231
 8278TIP3   OH224776   1.858   7.513   6.170
 8278TIP3    H124777   1.782   7.456   6.163
 8278TIP3    H224778   1.876   7.520   6.264
 8279TIP3   OH224779   4.534   4.281   3.638
 8279TIP3    H124780   4.496   4.369   3.650
 8279TIP3    H224781   4.620   4.286   3.680
 8280TIP3   OH224782   7.877   4.309   3.616
 8280TIP3    H124783   7.859   4.280   3.526
 8280TIP3    H224784   7.959   4.359   3.609
 8281TIP3   OH224785   3.583   4.636   1.687
 8281TIP3    H124786   3.657   4.677   1.732
 8281TIP3    H224787   3.529   4.600   1.758
 8282TIP3   OH224788   5.377   1.735   5.361
 8282TIP3    H124789   5.377   1.783   5.278
 8282TIP3    H224790   5.373   1.643   5.335
 8283TIP3   OH224791   5.574   0.424   0.496
 8283TIP3    H124792   5.519   0.495   0.464
 8283TIP3    H224793   5.648   0.420   0.434
 8284TIP3   OH224794   7.129   3.715   0.566
 8284TIP3    H124795   7.157   3.776   0.634
 8284TIP3    H224796   7.048   3.752   0.532
 8285TIP3   OH224797   4.830   2.451   6.485
 8285TIP3    H124798   4.798   2.451   6.395
 8285TIP3    H224799   4.909   2.506   6.483
 8286TIP3   OH224800   6.602   6.051   5.408
 8286TIP3    H124801   6.578   5.961   5.431
 8286TIP3    H224802   6.519   6.098   5.401
 8287TIP3   OH224803   4.401   0.866   2.751
 8287TIP3    H124804   4.389   0.956   2.721
 8287TIP3    H224805   4.446   0.875   2.836
 8288TIP3   OH224806   1.940   5.402   0.130
 8288TIP3    H124807   1.930   5.355   0.213
 8288TIP3    H224808   1.854   5.398   0.089
 8289TIP3   OH224809   1.653   2.210   4.026
 8289TIP3    H124810   1.569   2.232   3.986
 8289TIP3    H224811   1.688   2.294   4.055
 8290TIP3   OH224812   1.516   0.286   3.850
 8290TIP3    H124813   1.442   0.228   3.868
 8290TIP3    H224814   1.593   0.233   3.869
 8291TIP3   OH224815   3.833   4.374   2.845
 8291TIP3    H124816   3.805   4.296   2.893
 8291TIP3    H224817   3.751   4.413   2.814
 8292TIP3   OH224818   5.574   5.699   3.636
 8292TIP3    H124819   5.639   5.745   3.582
 8292TIP3    H224820   5.492   5.745   3.618
 8293TIP3   OH224821   8.273   5.767   2.740
 8293TIP3    H124822   8.324   5.847   2.723
 8293TIP3    H224823   8.233   5.782   2.825
 8294TIP3   OH224824   1.732   4.070   2.509
 8294TIP3    H124825   1.657   4.018   2.479
 8294TIP3    H224826   1.736   4.056   2.603
 8295TIP3   OH224827   5.114   2.420   5.617
 8295TIP3    H124828   5.105   2.450   5.527
 8295TIP3    H224829   5.106   2.499   5.669
 8296TIP3   OH224830   7.501   2.176   1.165
 8296TIP3    H124831   7.481   2.087   1.136
 8296TIP3    H224832   7.417   2.213   1.191
 8297TIP3   OH224833   6.079   2.593   6.334
 8297TIP3    H124834   5.984   2.599   6.326
 8297TIP3    H224835   6.096   2.608   6.427
 8298TIP3   OH224836   5.913   6.968   5.557
 8298TIP3    H124837   5.911   6.873   5.551
 8298TIP3    H224838   5.930   6.987   5.649
 8299TIP3   OH224839   5.278   4.246   6.102
 8299TIP3    H124840   5.288   4.150   6.100
 8299TIP3    H224841   5.348   4.276   6.159
 8300TIP3   OH224842   4.358   4.065   4.056
 8300TIP3    H124843   4.435   4.013   4.033
 8300TIP3    H224844   4.285   4.019   4.013
 8301TIP3   OH224845   1.398   7.142   5.080
 8301TIP3    H124846   1.401   7.114   4.988
 8301TIP3    H224847   1.365   7.066   5.128
 8302TIP3   OH224848   3.606   7.395   5.769
 8302TIP3    H124849   3.641   7.476   5.734
 8302TIP3    H224850   3.677   7.358   5.822
 8303TIP3   OH224851   2.830   6.392   0.378
 8303TIP3    H124852   2.789   6.419   0.460
 8303TIP3    H224853   2.894   6.460   0.359
 8304TIP3   OH224854   4.166   2.201   6.004
 8304TIP3    H124855   4.240   2.250   6.040
 8304TIP3    H224856   4.195   2.110   6.005
 8305TIP3   OH224857   5.037   7.019   4.625
 8305TIP3    H124858   5.008   7.011   4.534
 8305TIP3    H224859   5.078   7.105   4.629
 8306TIP3   OH224860   0.816   6.707   1.658
 8306TIP3    H124861   0.879   6.662   1.714
 8306TIP3    H224862   0.868   6.745   1.588
 8307TIP3   OH224863   4.991   1.490   3.501
 8307TIP3    H124864   5.007   1.480   3.595
 8307TIP3    H224865   4.914   1.547   3.497
 8308TIP3   OH224866   5.799   4.279   3.859
 8308TIP3    H124867   5.855   4.288   3.781
 8308TIP3    H224868   5.856   4.239   3.924
 8309TIP3   OH224869   6.772   4.061   0.587
 8309TIP3    H124870   6.742   4.152   0.592
 8309TIP3    H224871   6.726   4.025   0.512
 8310TIP3   OH224872   4.257   4.936   0.217
 8310TIP3    H124873   4.268   4.844   0.241
 8310TIP3    H224874   4.335   4.957   0.166
 8311TIP3   OH224875   3.079   1.928   0.893
 8311TIP3    H124876   3.052   1.885   0.812
 8311TIP3    H224877   3.159   1.975   0.870
 8312TIP3   OH224878   3.869   0.528   2.488
 8312TIP3    H124879   3.809   0.580   2.434
 8312TIP3    H224880   3.818   0.506   2.566
 8313TIP3   OH224881   6.574   6.039   0.701
 8313TIP3    H124882   6.556   6.088   0.621
 8313TIP3    H224883   6.670   6.036   0.705
 8314TIP3   OH224884   1.596   4.925   2.753
 8314TIP3    H124885   1.665   4.991   2.755
 8314TIP3    H224886   1.599   4.884   2.839
 8315TIP3   OH224887   4.292   3.117   2.848
 8315TIP3    H124888   4.349   3.112   2.925
 8315TIP3    H224889   4.209   3.079   2.877
 8316TIP3   OH224890   1.380   6.345   6.010
 8316TIP3    H124891   1.410   6.352   5.920
 8316TIP3    H224892   1.453   6.305   6.058
 8317TIP3   OH224893   2.933   7.625   5.745
 8317TIP3    H124894   2.915   7.615   5.651
 8317TIP3    H224895   2.852   7.660   5.781
 8318TIP3   OH224896   6.025   3.083   0.518
 8318TIP3    H124897   6.069   3.038   0.591
 8318TIP3    H224898   5.966   3.016   0.482
 8319TIP3   OH224899   0.312   5.275   1.160
 8319TIP3    H124900   0.404   5.294   1.180
 8319TIP3    H224901   0.263   5.317   1.230
 8320TIP3   OH224902   7.740   0.836   0.179
 8320TIP3    H124903   7.750   0.880   0.094
 8320TIP3    H224904   7.648   0.846   0.200
 8321TIP3   OH224905   5.162   3.991   1.170
 8321TIP3    H124906   5.215   3.960   1.097
 8321TIP3    H224907   5.084   4.028   1.129
 8322TIP3   OH224908   7.330   3.377   2.564
 8322TIP3    H124909   7.293   3.335   2.642
 8322TIP3    H224910   7.359   3.305   2.509
 8323TIP3   OH224911   2.624   4.802   2.933
 8323TIP3    H124912   2.579   4.764   3.009
 8323TIP3    H224913   2.706   4.835   2.969
 8324TIP3   OH224914   4.335   4.340   4.452
 8324TIP3    H124915   4.376   4.334   4.539
 8324TIP3    H224916   4.289   4.424   4.453
 8325TIP3   OH224917   1.513   4.176   6.625
 8325TIP3    H124918   1.500   4.083   6.644
 8325TIP3    H224919   1.608   4.186   6.619
 8326TIP3   OH224920   0.771   2.464   5.018
 8326TIP3    H124921   0.857   2.505   5.027
 8326TIP3    H224922   0.743   2.446   5.107
 8327TIP3   OH224923   7.592   4.774   3.638
 8327TIP3    H124924   7.564   4.683   3.629
 8327TIP3    H224925   7.670   4.780   3.583
 8328TIP3   OH224926   0.826   6.424   5.228
 8328TIP3    H124927   0.784   6.396   5.147
 8328TIP3    H224928   0.920   6.418   5.209
 8329TIP3   OH224929   2.845   5.305   3.640
 8329TIP3    H124930   2.931   5.267   3.621
 8329TIP3    H224931   2.822   5.272   3.727
 8330TIP3   OH224932   4.349   2.456   0.531
 8330TIP3    H124933   4.422   2.427   0.587
 8330TIP3    H224934   4.271   2.445   0.586
 8331TIP3   OH224935   5.360   7.398   5.368
 8331TIP3    H124936   5.363   7.353   5.284
 8331TIP3    H224937   5.267   7.420   5.381
 8332TIP3   OH224938   8.145   6.195   0.095
 8332TIP3    H124939   8.161   6.225   0.184
 8332TIP3    H224940   8.218   6.229   0.044
 8333TIP3   OH224941   8.003   5.183   1.253
 8333TIP3    H124942   8.069   5.252   1.261
 8333TIP3    H224943   7.963   5.198   1.168
 8334TIP3   OH224944   3.828   3.584   4.362
 8334TIP3    H124945   3.744   3.538   4.374
 8334TIP3    H224946   3.851   3.568   4.270
 8335TIP3   OH224947   7.578   4.510   3.547
 8335TIP3    H124948   7.652   4.484   3.492
 8335TIP3    H224949   7.501   4.503   3.490
 8336TIP3   OH224950   5.433   4.422   4.180
 8336TIP3    H124951   5.388   4.503   4.206
 8336TIP3    H224952   5.522   4.451   4.158
 8337TIP3   OH224953   7.504   1.436   5.669
 8337TIP3    H124954   7.590   1.395   5.684
 8337TIP3    H224955   7.477   1.404   5.583
 8338TIP3   OH224956   4.159   0.507   4.928
 8338TIP3    H124957   4.064   0.515   4.927
 8338TIP3    H224958   4.191   0.597   4.931
 8339TIP3   OH224959   4.518   7.697   2.476
 8339TIP3    H124960   4.560   7.612   2.462
 8339TIP3    H224961   4.582   7.761   2.446
 8340TIP3   OH224962   6.294   3.658   2.162
 8340TIP3    H124963   6.201   3.637   2.167
 8340TIP3    H224964   6.309   3.718   2.235
 8341TIP3   OH224965   4.843   6.706   3.337
 8341TIP3    H124966   4.928   6.674   3.308
 8341TIP3    H224967   4.853   6.719   3.431
 8342TIP3   OH224968   0.690   0.127   1.860
 8342TIP3    H124969   0.771   0.178   1.850
 8342TIP3    H224970   0.657   0.152   1.946
 8343TIP3   OH224971   3.385   3.371   3.214
 8343TIP3    H124972   3.370   3.407   3.302
 8343TIP3    H224973   3.372   3.445   3.155
 8344TIP3   OH224974   5.158   1.581   1.727
 8344TIP3    H124975   5.126   1.502   1.770
 8344TIP3    H224976   5.195   1.634   1.797
 8345TIP3   OH224977   2.065   1.022   2.464
 8345TIP3    H124978   2.144   1.074   2.479
 8345TIP3    H224979   2.077   0.987   2.375
 8346TIP3   OH224980   0.089   1.730   4.313
 8346TIP3    H124981   0.046   1.806   4.352
 8346TIP3    H224982   0.182   1.753   4.314
 8347TIP3   OH224983   6.041   3.980   5.214
 8347TIP3    H124984   6.075   3.996   5.302
 8347TIP3    H224985   6.116   3.989   5.156
 8348TIP3   OH224986   5.738   1.260   3.955
 8348TIP3    H124987   5.701   1.296   3.874
 8348TIP3    H224988   5.729   1.330   4.019
 8349TIP3   OH224989   5.748   7.196   5.726
 8349TIP3    H124990   5.703   7.273   5.691
 8349TIP3    H224991   5.836   7.200   5.689
 8350TIP3   OH224992   2.678   1.636   5.483
 8350TIP3    H124993   2.627   1.558   5.462
 8350TIP3    H224994   2.660   1.697   5.412
 8351TIP3   OH224995   1.832   2.577   1.247
 8351TIP3    H124996   1.864   2.667   1.240
 8351TIP3    H224997   1.754   2.575   1.192
 8352TIP3   OH224998   2.715   4.512   6.030
 8352TIP3    H124999   2.722   4.602   5.998
 8352TIP3    H225000   2.792   4.500   6.085
 8353TIP3   OH225001   0.550   4.408   3.942
 8353TIP3    H125002   0.605   4.333   3.966
 8353TIP3    H225003   0.490   4.419   4.016
 8354TIP3   OH225004   3.215   3.551   1.524
 8354TIP3    H125005   3.279   3.503   1.577
 8354TIP3    H225006   3.254   3.638   1.513
 8355TIP3   OH225007   6.768   6.532   0.581
 8355TIP3    H125008   6.736   6.580   0.657
 8355TIP3    H225009   6.771   6.598   0.511
 8356TIP3   OH225010   5.750   7.428   5.967
 8356TIP3    H125011   5.765   7.401   5.877
 8356TIP3    H225012   5.837   7.427   6.008
 8357TIP3   OH225013   6.017   6.676   1.284
 8357TIP3    H125014   6.006   6.739   1.355
 8357TIP3    H225015   5.939   6.687   1.230
 8358TIP3   OH225016   3.563   3.701   3.431
 8358TIP3    H125017   3.549   3.629   3.494
 8358TIP3    H225018   3.477   3.714   3.390
 8359TIP3   OH225019   3.130   6.072   6.304
 8359TIP3    H125020   3.114   6.156   6.348
 8359TIP3    H225021   3.105   6.006   6.369
 8360TIP3   OH225022   5.021   3.891   5.786
 8360TIP3    H125023   5.073   3.958   5.742
 8360TIP3    H225024   4.933   3.927   5.790
 8361TIP3   OH225025   3.853   3.383   1.032
 8361TIP3    H125026   3.825   3.353   1.119
 8361TIP3    H225027   3.828   3.312   0.973
 8362TIP3   OH225028   0.979   7.210   3.549
 8362TIP3    H125029   1.017   7.136   3.502
 8362TIP3    H225030   1.000   7.286   3.495
 8363TIP3   OH225031   7.613   0.854   1.905
 8363TIP3    H125032   7.689   0.897   1.946
 8363TIP3    H225033   7.633   0.760   1.912
 8364TIP3   OH225034   2.389   4.213   4.773
 8364TIP3    H125035   2.370   4.128   4.736
 8364TIP3    H225036   2.333   4.218   4.851
 8365TIP3   OH225037   4.476   3.293   3.952
 8365TIP3    H125038   4.392   3.266   3.913
 8365TIP3    H225039   4.508   3.361   3.893
 8366TIP3   OH225040   6.669   2.427   6.501
 8366TIP3    H125041   6.656   2.340   6.538
 8366TIP3    H225042   6.657   2.487   6.574
 8367TIP3   OH225043   8.232   7.057   2.293
 8367TIP3    H125044   8.299   7.002   2.254
 8367TIP3    H225045   8.191   7.102   2.219
 8368TIP3   OH225046   0.947   0.252   4.846
 8368TIP3    H125047   0.982   0.341   4.847
 8368TIP3    H225048   0.933   0.233   4.753
 8369TIP3   OH225049   4.766   5.610   4.161
 8369TIP3    H125050   4.727   5.657   4.088
 8369TIP3    H225051   4.780   5.521   4.127
 8370TIP3   OH225052   6.749   5.034   6.611
 8370TIP3    H125053   6.743   5.086   6.691
 8370TIP3    H225054   6.842   5.036   6.588
 8371TIP3   OH225055   6.805   1.943   4.740
 8371TIP3    H125056   6.784   1.855   4.710
 8371TIP3    H225057   6.871   1.930   4.809
 8372TIP3   OH225058   5.845   1.622   3.507
 8372TIP3    H125059   5.800   1.593   3.586
 8372TIP3    H225060   5.819   1.713   3.496
 8373TIP3   OH225061   6.009   0.911   2.701
 8373TIP3    H125062   6.065   0.988   2.706
 8373TIP3    H225063   5.958   0.913   2.782
 8374TIP3   OH225064   1.140   1.636   0.686
 8374TIP3    H125065   1.121   1.542   0.688
 8374TIP3    H225066   1.139   1.659   0.593
 8375TIP3   OH225067   3.839   0.373   5.115
 8375TIP3    H125068   3.832   0.323   5.197
 8375TIP3    H225069   3.757   0.356   5.069
 8376TIP3   OH225070   1.380   3.737   0.134
 8376TIP3    H125071   1.461   3.786   0.116
 8376TIP3    H225072   1.378   3.670   0.066
 8377TIP3   OH225073   7.514   4.300   0.685
 8377TIP3    H125074   7.535   4.211   0.656
 8377TIP3    H225075   7.500   4.349   0.604
 8378TIP3   OH225076   2.194   3.293   3.848
 8378TIP3    H125077   2.264   3.263   3.790
 8378TIP3    H225078   2.167   3.215   3.897
 8379TIP3   OH225079   3.274   6.587   1.452
 8379TIP3    H125080   3.288   6.504   1.497
 8379TIP3    H225081   3.285   6.654   1.521
 8380TIP3   OH225082   3.150   6.855   5.630
 8380TIP3    H125083   3.092   6.926   5.659
 8380TIP3    H225084   3.098   6.776   5.642
 8381TIP3   OH225085   6.213   6.904   0.537
 8381TIP3    H125086   6.199   6.998   0.540
 8381TIP3    H225087   6.218   6.883   0.444
 8382TIP3   OH225088   1.027   2.597   4.513
 8382TIP3    H125089   0.980   2.553   4.583
 8382TIP3    H225090   1.100   2.642   4.557
 8383TIP3   OH225091   1.323   7.673   2.163
 8383TIP3    H125092   1.272   7.710   2.235
 8383TIP3    H225093   1.271   7.692   2.085
 8384TIP3   OH225094   7.494   0.765   3.911
 8384TIP3    H125095   7.419   0.805   3.867
 8384TIP3    H225096   7.567   0.822   3.889
 8385TIP3   OH225097   4.384   7.022   1.424
 8385TIP3    H125098   4.407   7.052   1.512
 8385TIP3    H225099   4.466   7.030   1.374
 8386TIP3   OH225100   2.675   5.391   6.319
 8386TIP3    H125101   2.620   5.386   6.241
 8386TIP3    H225102   2.613   5.393   6.392
 8387TIP3   OH225103   0.521   5.424   3.881
 8387TIP3    H125104   0.483   5.424   3.794
 8387TIP3    H225105   0.475   5.493   3.928
 8388TIP3   OH225106   8.186   1.347   5.665
 8388TIP3    H125107   8.175   1.269   5.719
 8388TIP3    H225108   8.226   1.411   5.724
 8389TIP3   OH225109   7.868   1.629   6.560
 8389TIP3    H125110   7.880   1.724   6.557
 8389TIP3    H225111   7.787   1.617   6.609
 8390TIP3   OH225112   5.859   4.716   4.388
 8390TIP3    H125113   5.789   4.780   4.406
 8390TIP3    H225114   5.858   4.707   4.293
 8391TIP3   OH225115   3.648   2.197   1.055
 8391TIP3    H125116   3.741   2.195   1.078
 8391TIP3    H225117   3.615   2.277   1.095
 8392TIP3   OH225118   5.312   1.221   0.632
 8392TIP3    H125119   5.289   1.161   0.561
 8392TIP3    H225120   5.406   1.209   0.644
 8393TIP3   OH225121   2.939   4.709   6.402
 8393TIP3    H125122   3.014   4.754   6.442
 8393TIP3    H225123   2.863   4.743   6.450
 8394TIP3   OH225124   6.865   4.366   5.233
 8394TIP3    H125125   6.802   4.408   5.175
 8394TIP3    H225126   6.834   4.275   5.240
 8395TIP3   OH225127   5.660   4.967   5.119
 8395TIP3    H125128   5.629   4.941   5.206
 8395TIP3    H225129   5.619   5.052   5.103
 8396TIP3   OH225130   2.301   3.278   5.821
 8396TIP3    H125131   2.331   3.332   5.748
 8396TIP3    H225132   2.304   3.188   5.787
 8397TIP3   OH225133   0.702   3.498   4.329
 8397TIP3    H125134   0.636   3.568   4.330
 8397TIP3    H225135   0.758   3.516   4.405
 8398TIP3   OH225136   1.020   1.438   2.983
 8398TIP3    H125137   1.102   1.427   2.935
 8398TIP3    H225138   1.046   1.442   3.075
 8399TIP3   OH225139   2.473   7.196   0.616
 8399TIP3    H125140   2.446   7.258   0.685
 8399TIP3    H225141   2.527   7.248   0.557
 8400TIP3   OH225142   4.351   4.757   5.134
 8400TIP3    H125143   4.299   4.741   5.056
 8400TIP3    H225144   4.376   4.669   5.165
 8401TIP3   OH225145   0.778   3.663   1.620
 8401TIP3    H125146   0.867   3.628   1.626
 8401TIP3    H225147   0.731   3.620   1.691
 8402TIP3   OH225148   7.070   5.627   1.065
 8402TIP3    H125149   7.045   5.566   0.996
 8402TIP3    H225150   7.012   5.606   1.138
 8403TIP3   OH225151   4.382   3.044   1.512
 8403TIP3    H125152   4.388   3.121   1.569
 8403TIP3    H225153   4.299   3.056   1.465
 8404TIP3   OH225154   5.120   0.786   5.049
 8404TIP3    H125155   5.027   0.803   5.034
 8404TIP3    H225156   5.143   0.844   5.122
 8405TIP3   OH225157   4.335   4.807   5.907
 8405TIP3    H125158   4.287   4.734   5.866
 8405TIP3    H225159   4.361   4.773   5.993
 8406TIP3   OH225160   7.073   6.972   2.320
 8406TIP3    H125161   7.141   7.039   2.314
 8406TIP3    H225162   7.039   6.965   2.231
 8407TIP3   OH225163   4.478   5.122   0.540
 8407TIP3    H125164   4.487   5.054   0.607
 8407TIP3    H225165   4.388   5.111   0.507
 8408TIP3   OH225166   6.025   7.483   3.436
 8408TIP3    H125167   6.052   7.392   3.420
 8408TIP3    H225168   5.937   7.476   3.474
 8409TIP3   OH225169   6.690   7.400   1.915
 8409TIP3    H125170   6.728   7.486   1.898
 8409TIP3    H225171   6.690   7.393   2.011
 8410TIP3   OH225172   0.802   1.565   3.383
 8410TIP3    H125173   0.776   1.478   3.356
 8410TIP3    H225174   0.807   1.560   3.479
 8411TIP3   OH225175   0.571   3.365   1.022
 8411TIP3    H125176   0.635   3.304   0.985
 8411TIP3    H225177   0.551   3.329   1.109
 8412TIP3   OH225178   5.872   7.543   0.318
 8412TIP3    H125179   5.854   7.560   0.225
 8412TIP3    H225180   5.935   7.611   0.343
 8413TIP3   OH225181   3.556   1.815   2.546
 8413TIP3    H125182   3.479   1.870   2.557
 8413TIP3    H225183   3.580   1.788   2.634
 8414TIP3   OH225184   4.922   6.752   3.580
 8414TIP3    H125185   4.988   6.714   3.639
 8414TIP3    H225186   4.867   6.805   3.637
 8415TIP3   OH225187   2.493   6.715   4.401
 8415TIP3    H125188   2.428   6.760   4.454
 8415TIP3    H225189   2.573   6.718   4.454
 8416TIP3   OH225190   2.356   4.885   0.826
 8416TIP3    H125191   2.324   4.832   0.753
 8416TIP3    H225192   2.366   4.973   0.790
 8417TIP3   OH225193   2.258   5.376   5.332
 8417TIP3    H125194   2.190   5.373   5.264
 8417TIP3    H225195   2.244   5.460   5.376
 8418TIP3   OH225196   0.772   0.103   3.204
 8418TIP3    H125197   0.853   0.054   3.194
 8418TIP3    H225198   0.711   0.041   3.245
 8419TIP3   OH225199   2.631   4.958   4.531
 8419TIP3    H125200   2.681   5.019   4.477
 8419TIP3    H225201   2.557   5.009   4.564
 8420TIP3   OH225202   2.792   1.947   5.447
 8420TIP3    H125203   2.831   2.034   5.451
 8420TIP3    H225204   2.862   1.891   5.414
 8421TIP3   OH225205   6.447   3.594   3.094
 8421TIP3    H125206   6.399   3.658   3.147
 8421TIP3    H225207   6.460   3.639   3.010
 8422TIP3   OH225208   8.042   7.449   5.854
 8422TIP3    H125209   7.999   7.393   5.919
 8422TIP3    H225210   8.007   7.419   5.770
 8423TIP3   OH225211   5.598   7.300   0.736
 8423TIP3    H125212   5.652   7.231   0.773
 8423TIP3    H225213   5.618   7.377   0.788
 8424TIP3   OH225214   5.078   6.225   3.851
 8424TIP3    H125215   5.119   6.299   3.895
 8424TIP3    H225216   4.996   6.211   3.899
 8425TIP3   OH225217   1.468   6.883   0.439
 8425TIP3    H125218   1.385   6.845   0.468
 8425TIP3    H225219   1.487   6.840   0.355
 8426TIP3   OH225220   6.497   4.237   5.797
 8426TIP3    H125221   6.408   4.209   5.820
 8426TIP3    H225222   6.554   4.173   5.839
 8427TIP3   OH225223   0.634   3.311   0.474
 8427TIP3    H125224   0.632   3.401   0.508
 8427TIP3    H225225   0.686   3.263   0.538
 8428TIP3   OH225226   5.096   5.391   6.203
 8428TIP3    H125227   5.056   5.355   6.124
 8428TIP3    H225228   5.177   5.340   6.215
 8429TIP3   OH225229   7.913   1.803   5.105
 8429TIP3    H125230   7.993   1.827   5.153
 8429TIP3    H225231   7.906   1.709   5.118
 8430TIP3   OH225232   2.395   6.483   3.531
 8430TIP3    H125233   2.366   6.511   3.618
 8430TIP3    H225234   2.458   6.551   3.504
 8431TIP3   OH225235   7.338   1.147   3.260
 8431TIP3    H125236   7.283   1.098   3.322
 8431TIP3    H225237   7.425   1.145   3.299
 8432TIP3   OH225238   1.447   6.801   5.697
 8432TIP3    H125239   1.496   6.738   5.644
 8432TIP3    H225240   1.376   6.830   5.641
 8433TIP3   OH225241   4.075   0.856   0.282
 8433TIP3    H125242   3.996   0.813   0.313
 8433TIP3    H225243   4.101   0.805   0.205
 8434TIP3   OH225244   2.249   4.239   6.007
 8434TIP3    H125245   2.247   4.150   6.042
 8434TIP3    H225246   2.197   4.234   5.927
 8435TIP3   OH225247   5.843   0.693   1.309
 8435TIP3    H125248   5.764   0.740   1.284
 8435TIP3    H225249   5.913   0.756   1.299
 8436TIP3   OH225250   7.442   3.450   1.655
 8436TIP3    H125251   7.370   3.417   1.708
 8436TIP3    H225252   7.405   3.457   1.566
 8437TIP3   OH225253   3.620   0.728   1.843
 8437TIP3    H125254   3.541   0.769   1.809
 8437TIP3    H225255   3.678   0.800   1.864
 8438TIP3   OH225256   5.236   5.423   3.097
 8438TIP3    H125257   5.307   5.369   3.132
 8438TIP3    H225258   5.195   5.462   3.174
 8439TIP3   OH225259   0.675   4.186   0.241
 8439TIP3    H125260   0.710   4.275   0.246
 8439TIP3    H225261   0.612   4.189   0.169
 8440TIP3   OH225262   2.443   7.171   6.192
 8440TIP3    H125263   2.492   7.245   6.228
 8440TIP3    H225264   2.352   7.189   6.213
 8441TIP3   OH225265   7.583   2.870   5.660
 8441TIP3    H125266   7.663   2.818   5.667
 8441TIP3    H225267   7.512   2.805   5.666
 8442TIP3   OH225268   5.014   3.132   2.395
 8442TIP3    H125269   5.048   3.218   2.417
 8442TIP3    H225270   4.920   3.138   2.411
 8443TIP3   OH225271   0.835   6.327   0.172
 8443TIP3    H125272   0.885   6.279   0.106
 8443TIP3    H225273   0.896   6.336   0.246
 8444TIP3   OH225274   4.036   4.475   4.157
 8444TIP3    H125275   4.090   4.542   4.115
 8444TIP3    H225276   4.076   4.392   4.130
 8445TIP3   OH225277   7.483   7.430   6.083
 8445TIP3    H125278   7.498   7.404   5.992
 8445TIP3    H225279   7.447   7.518   6.077
 8446TIP3   OH225280   5.999   3.869   6.048
 8446TIP3    H125281   6.038   3.789   6.082
 8446TIP3    H225282   5.972   3.918   6.125
 8447TIP3   OH225283   3.453   5.236   3.531
 8447TIP3    H125284   3.416   5.291   3.462
 8447TIP3    H225285   3.510   5.295   3.581
 8448TIP3   OH225286   7.584   1.589   1.747
 8448TIP3    H125287   7.594   1.683   1.766
 8448TIP3    H225288   7.654   1.569   1.685
 8449TIP3   OH225289   3.175   3.194   6.220
 8449TIP3    H125290   3.131   3.111   6.241
 8449TIP3    H225291   3.267   3.177   6.237
 8450TIP3   OH225292   2.928   0.357   5.973
 8450TIP3    H125293   2.976   0.435   6.002
 8450TIP3    H225294   2.903   0.376   5.883
 8451TIP3   OH225295   1.503   2.169   3.735
 8451TIP3    H125296   1.447   2.171   3.812
 8451TIP3    H225297   1.508   2.077   3.710
 8452TIP3   OH225298   7.631   4.646   2.438
 8452TIP3    H125299   7.670   4.558   2.440
 8452TIP3    H225300   7.544   4.632   2.399
 8453TIP3   OH225301   2.917   3.748   4.531
 8453TIP3    H125302   2.848   3.805   4.497
 8453TIP3    H225303   2.997   3.779   4.490
 8454TIP3   OH225304   6.949   6.046   6.800
 8454TIP3    H125305   6.903   6.130   6.805
 8454TIP3    H225306   6.986   6.045   6.712
 8455TIP3   OH225307   2.545   5.599   2.263
 8455TIP3    H125308   2.486   5.574   2.192
 8455TIP3    H225309   2.529   5.693   2.275
 8456TIP3   OH225310   1.906   2.928   3.903
 8456TIP3    H125311   1.927   2.952   3.813
 8456TIP3    H225312   1.812   2.946   3.911
 8457TIP3   OH225313   6.651   7.217   1.604
 8457TIP3    H125314   6.572   7.198   1.553
 8457TIP3    H225315   6.642   7.309   1.629
 8458TIP3   OH225316   2.298   6.509   0.604
 8458TIP3    H125317   2.211   6.471   0.615
 8458TIP3    H225318   2.358   6.438   0.628
 8459TIP3   OH225319   4.948   6.304   2.333
 8459TIP3    H125320   4.933   6.387   2.288
 8459TIP3    H225321   4.880   6.246   2.299
 8460TIP3   OH225322   0.119   5.554   2.032
 8460TIP3    H125323   0.212   5.578   2.033
 8460TIP3    H225324   0.079   5.615   1.970
 8461TIP3   OH225325   6.386   4.747   4.278
 8461TIP3    H125326   6.300   4.758   4.319
 8461TIP3    H225327   6.394   4.822   4.219
 8462TIP3   OH225328   4.581   4.370   3.240
 8462TIP3    H125329   4.555   4.435   3.305
 8462TIP3    H225330   4.509   4.306   3.240
 8463TIP3   OH225331   0.765   5.483   6.074
 8463TIP3    H125332   0.765   5.529   6.158
 8463TIP3    H225333   0.857   5.460   6.059
 8464TIP3   OH225334   7.961   0.841   3.763
 8464TIP3    H125335   8.053   0.868   3.760
 8464TIP3    H225336   7.946   0.795   3.681
 8465TIP3   OH225337   1.905   4.007   5.808
 8465TIP3    H125338   1.981   3.965   5.849
 8465TIP3    H225339   1.838   3.939   5.807
 8466TIP3   OH225340   5.643   5.825   2.550
 8466TIP3    H125341   5.595   5.874   2.483
 8466TIP3    H225342   5.713   5.781   2.502
 8467TIP3   OH225343   0.375   7.356   3.322
 8467TIP3    H125344   0.461   7.381   3.356
 8467TIP3    H225345   0.392   7.315   3.238
 8468TIP3   OH225346   2.029   6.144   1.469
 8468TIP3    H125347   1.960   6.122   1.531
 8468TIP3    H225348   2.104   6.091   1.496
 8469TIP3   OH225349   3.524   0.687   6.330
 8469TIP3    H125350   3.481   0.749   6.390
 8469TIP3    H225351   3.532   0.734   6.248
 8470TIP3   OH225352   5.807   4.861   1.281
 8470TIP3    H125353   5.758   4.784   1.254
 8470TIP3    H225354   5.743   4.918   1.323
 8471TIP3   OH225355   3.772   6.308   5.755
 8471TIP3    H125356   3.851   6.358   5.778
 8471TIP3    H225357   3.795   6.217   5.775
 8472TIP3   OH225358   7.958   0.437   6.476
 8472TIP3    H125359   8.029   0.501   6.465
 8472TIP3    H225360   7.939   0.408   6.387
 8473TIP3   OH225361   3.320   6.209   5.227
 8473TIP3    H125362   3.382   6.139   5.206
 8473TIP3    H225363   3.339   6.278   5.163
 8474TIP3   OH225364   3.711   2.768   2.312
 8474TIP3    H125365   3.721   2.715   2.233
 8474TIP3    H225366   3.719   2.706   2.384
 8475TIP3   OH225367   2.834   1.951   6.446
 8475TIP3    H125368   2.840   1.883   6.379
 8475TIP3    H225369   2.740   1.970   6.452
 8476TIP3   OH225370   4.797   3.611   0.373
 8476TIP3    H125371   4.849   3.684   0.407
 8476TIP3    H225372   4.797   3.546   0.443
 8477TIP3   OH225373   1.346   1.275   0.682
 8477TIP3    H125374   1.338   1.193   0.731
 8477TIP3    H225375   1.354   1.342   0.750
 8478TIP3   OH225376   5.637   6.516   2.688
 8478TIP3    H125377   5.557   6.503   2.739
 8478TIP3    H225378   5.683   6.586   2.734
 8479TIP3   OH225379   7.465   5.956   0.322
 8479TIP3    H125380   7.542   5.922   0.367
 8479TIP3    H225381   7.410   5.879   0.306
 8480TIP3   OH225382   1.969   5.503   5.484
 8480TIP3    H125383   1.949   5.558   5.560
 8480TIP3    H225384   2.051   5.539   5.449
 8481TIP3   OH225385   1.616   6.767   2.660
 8481TIP3    H125386   1.674   6.723   2.722
 8481TIP3    H225387   1.665   6.768   2.578
 8482TIP3   OH225388   3.183   6.779   6.050
 8482TIP3    H125389   3.201   6.861   6.097
 8482TIP3    H225390   3.234   6.713   6.096
 8483TIP3   OH225391   1.266   0.712   6.003
 8483TIP3    H125392   1.223   0.793   6.032
 8483TIP3    H225393   1.243   0.705   5.910
 8484TIP3   OH225394   5.545   5.456   3.808
 8484TIP3    H125395   5.512   5.526   3.751
 8484TIP3    H225396   5.627   5.429   3.767
 8485TIP3   OH225397   1.225   4.220   0.573
 8485TIP3    H125398   1.321   4.222   0.573
 8485TIP3    H225399   1.200   4.299   0.525
 8486TIP3   OH225400   3.823   4.974   1.528
 8486TIP3    H125401   3.853   4.981   1.618
 8486TIP3    H225402   3.727   4.971   1.535
 8487TIP3   OH225403   0.629   7.675   4.527
 8487TIP3    H125404   0.634   7.585   4.558
 8487TIP3    H225405   0.622   7.728   4.607
 8488TIP3   OH225406   6.293   4.990   3.170
 8488TIP3    H125407   6.233   4.947   3.109
 8488TIP3    H225408   6.241   5.058   3.212
 8489TIP3   OH225409   6.989   0.996   4.976
 8489TIP3    H125410   6.997   0.924   5.039
 8489TIP3    H225411   7.009   1.075   5.026
 8490TIP3   OH225412   0.387   6.775   3.065
 8490TIP3    H125413   0.461   6.715   3.048
 8490TIP3    H225414   0.399   6.801   3.156
 8491TIP3   OH225415   2.356   5.214   2.133
 8491TIP3    H125416   2.379   5.219   2.226
 8491TIP3    H225417   2.275   5.163   2.131
 8492TIP3   OH225418   5.575   5.725   3.304
 8492TIP3    H125419   5.580   5.811   3.347
 8492TIP3    H225420   5.534   5.744   3.220
 8493TIP3   OH225421   4.970   7.368   2.259
 8493TIP3    H125422   4.974   7.429   2.185
 8493TIP3    H225423   5.006   7.417   2.333
 8494TIP3   OH225424   5.593   4.825   0.100
 8494TIP3    H125425   5.630   4.750   0.146
 8494TIP3    H225426   5.622   4.814   0.009
 8495TIP3   OH225427   5.383   3.674   0.087
 8495TIP3    H125428   5.436   3.753   0.101
 8495TIP3    H225429   5.293   3.702   0.106
 8496TIP3   OH225430   4.804   2.991   5.849
 8496TIP3    H125431   4.785   3.003   5.756
 8496TIP3    H225432   4.772   2.902   5.868
 8497TIP3   OH225433   6.966   0.052   2.607
 8497TIP3    H125434   6.887   0.106   2.610
 8497TIP3    H225435   7.035   0.110   2.640
 8498TIP3   OH225436   2.162   5.970   6.470
 8498TIP3    H125437   2.200   5.929   6.548
 8498TIP3    H225438   2.234   6.019   6.431
 8499TIP3   OH225439   0.763   1.552   1.076
 8499TIP3    H125440   0.836   1.584   1.023
 8499TIP3    H225441   0.712   1.629   1.097
 8500TIP3   OH225442   7.944   3.110   0.401
 8500TIP3    H125443   7.956   3.026   0.356
 8500TIP3    H225444   7.896   3.088   0.481
 8501TIP3   OH225445   6.484   0.765   4.592
 8501TIP3    H125446   6.573   0.775   4.626
 8501TIP3    H225447   6.490   0.793   4.501
 8502TIP3   OH225448   3.490   4.516   1.044
 8502TIP3    H125449   3.557   4.535   0.978
 8502TIP3    H225450   3.482   4.596   1.095
 8503TIP3   OH225451   0.313   1.870   1.255
 8503TIP3    H125452   0.389   1.912   1.295
 8503TIP3    H225453   0.263   1.834   1.328
 8504TIP3   OH225454   0.496   0.414   2.133
 8504TIP3    H125455   0.474   0.335   2.083
 8504TIP3    H225456   0.490   0.485   2.070
 8505TIP3   OH225457   0.044   5.592   0.480
 8505TIP3    H125458   0.129   5.569   0.440
 8505TIP3    H225459   0.010   5.509   0.512
 8506TIP3   OH225460   7.593   3.892   6.179
 8506TIP3    H125461   7.541   3.857   6.107
 8506TIP3    H225462   7.534   3.953   6.223
 8507TIP3   OH225463   4.391   5.313   5.234
 8507TIP3    H125464   4.383   5.269   5.318
 8507TIP3    H225465   4.437   5.250   5.178
 8508TIP3   OH225466   0.734   7.692   2.019
 8508TIP3    H125467   0.653   7.681   1.969
 8508TIP3    H225468   0.767   7.603   2.032
 8509TIP3   OH225469   4.966   4.157   5.963
 8509TIP3    H125470   5.002   4.227   5.908
 8509TIP3    H225471   4.897   4.118   5.909
 8510TIP3   OH225472   7.085   3.261   1.009
 8510TIP3    H125473   7.010   3.250   0.950
 8510TIP3    H225474   7.124   3.345   0.984
 8511TIP3   OH225475   7.602   0.572   1.272
 8511TIP3    H125476   7.513   0.598   1.247
 8511TIP3    H225477   7.602   0.578   1.367
 8512TIP3   OH225478   6.046   2.764   3.398
 8512TIP3    H125479   6.139   2.781   3.409
 8512TIP3    H225480   6.004   2.814   3.469
 8513TIP3   OH225481   6.547   7.495   2.748
 8513TIP3    H125482   6.590   7.410   2.754
 8513TIP3    H225483   6.573   7.541   2.828
 8514TIP3   OH225484   2.944   1.826   2.150
 8514TIP3    H125485   3.023   1.794   2.195
 8514TIP3    H225486   2.961   1.919   2.135
 8515TIP3   OH225487   2.257   7.264   2.316
 8515TIP3    H125488   2.336   7.212   2.330
 8515TIP3    H225489   2.201   7.243   2.391
 8516TIP3   OH225490   6.430   5.576   3.929
 8516TIP3    H125491   6.355   5.565   3.870
 8516TIP3    H225492   6.427   5.500   3.987
 8517TIP3   OH225493   1.435   3.589   4.480
 8517TIP3    H125494   1.480   3.527   4.536
 8517TIP3    H225495   1.342   3.570   4.493
 8518TIP3   OH225496   6.697   5.082   5.953
 8518TIP3    H125497   6.633   5.032   6.004
 8518TIP3    H225498   6.777   5.029   5.957
 8519TIP3   OH225499   3.300   3.803   2.920
 8519TIP3    H125500   3.324   3.895   2.926
 8519TIP3    H225501   3.204   3.803   2.917
 8520TIP3   OH225502   0.458   2.912   3.968
 8520TIP3    H125503   0.439   2.919   4.061
 8520TIP3    H225504   0.372   2.911   3.925
 8521TIP3   OH225505   1.412   1.673   6.441
 8521TIP3    H125506   1.501   1.644   6.460
 8521TIP3    H225507   1.417   1.709   6.353
 8522TIP3   OH225508   5.459   0.963   2.841
 8522TIP3    H125509   5.472   0.893   2.906
 8522TIP3    H225510   5.460   1.044   2.893
 8523TIP3   OH225511   2.807   7.247   4.628
 8523TIP3    H125512   2.788   7.340   4.624
 8523TIP3    H225513   2.810   7.220   4.536
 8524TIP3   OH225514   1.760   3.025   5.621
 8524TIP3    H125515   1.731   3.056   5.535
 8524TIP3    H225516   1.817   3.095   5.654
 8525TIP3   OH225517   2.352   4.148   3.576
 8525TIP3    H125518   2.446   4.157   3.595
 8525TIP3    H225519   2.349   4.125   3.483
 8526TIP3   OH225520   6.491   5.817   5.507
 8526TIP3    H125521   6.414   5.871   5.489
 8526TIP3    H225522   6.464   5.760   5.579
 8527TIP3   OH225523   5.288   2.403   1.739
 8527TIP3    H125524   5.374   2.369   1.716
 8527TIP3    H225525   5.253   2.340   1.803
 8528TIP3   OH225526   1.618   6.922   4.826
 8528TIP3    H125527   1.637   6.939   4.918
 8528TIP3    H225528   1.699   6.942   4.780
 8529TIP3   OH225529   4.072   2.495   2.761
 8529TIP3    H125530   4.031   2.476   2.676
 8529TIP3    H225531   4.036   2.429   2.820
 8530TIP3   OH225532   3.247   2.887   0.757
 8530TIP3    H125533   3.229   2.928   0.842
 8530TIP3    H225534   3.165   2.895   0.709
 8531TIP3   OH225535   7.513   1.818   2.034
 8531TIP3    H125536   7.423   1.817   2.001
 8531TIP3    H225537   7.505   1.802   2.128
 8532TIP3   OH225538   8.184   4.974   0.746
 8532TIP3    H125539   8.204   4.900   0.803
 8532TIP3    H225540   8.089   4.969   0.732
 8533TIP3   OH225541   3.659   5.741   6.351
 8533TIP3    H125542   3.749   5.759   6.381
 8533TIP3    H225543   3.666   5.739   6.255
 8534TIP3   OH225544   0.444   7.461   1.174
 8534TIP3    H125545   0.399   7.377   1.170
 8534TIP3    H225546   0.386   7.522   1.128
 8535TIP3   OH225547   7.281   5.818   2.112
 8535TIP3    H125548   7.314   5.746   2.166
 8535TIP3    H225549   7.356   5.843   2.057
 8536TIP3   OH225550   1.758   6.206   3.535
 8536TIP3    H125551   1.702   6.128   3.525
 8536TIP3    H225552   1.715   6.258   3.603
 8537TIP3   OH225553   7.948   0.050   6.460
 8537TIP3    H125554   7.986   0.064   6.374
 8537TIP3    H225555   7.883  -0.019   6.446
 8538TIP3   OH225556   2.357   2.981   1.108
 8538TIP3    H125557   2.445   2.944   1.107
 8538TIP3    H225558   2.359   3.046   1.178
 8539TIP3   OH225559   6.320   7.426   2.117
 8539TIP3    H125560   6.305   7.337   2.150
 8539TIP3    H225561   6.249   7.477   2.156
 8540TIP3   OH225562   5.577   5.222   3.403
 8540TIP3    H125563   5.492   5.241   3.441
 8540TIP3    H225564   5.634   5.291   3.437
 8541TIP3   OH225565   1.535   6.298   0.865
 8541TIP3    H125566   1.582   6.240   0.925
 8541TIP3    H225567   1.588   6.299   0.786
 8542TIP3   OH225568   5.227   3.211   4.235
 8542TIP3    H125569   5.179   3.138   4.274
 8542TIP3    H225570   5.162   3.258   4.183
 8543TIP3   OH225571   4.026   5.912   3.454
 8543TIP3    H125572   4.073   5.829   3.458
 8543TIP3    H225573   3.965   5.909   3.528
 8544TIP3   OH225574   5.914   3.906   3.858
 8544TIP3    H125575   5.844   3.964   3.887
 8544TIP3    H225576   5.957   3.878   3.939
 8545TIP3   OH225577   2.718   2.598   2.519
 8545TIP3    H125578   2.788   2.601   2.584
 8545TIP3    H225579   2.694   2.690   2.506
 8546TIP3   OH225580   4.520   0.974   1.654
 8546TIP3    H125581   4.530   0.974   1.749
 8546TIP3    H225582   4.551   0.888   1.627
 8547TIP3   OH225583   1.420   5.854   3.876
 8547TIP3    H125584   1.375   5.868   3.792
 8547TIP3    H225585   1.506   5.818   3.851
 8548TIP3   OH225586   3.133   6.363   4.113
 8548TIP3    H125587   3.132   6.304   4.189
 8548TIP3    H225588   3.097   6.311   4.041
 8549TIP3   OH225589   4.828   3.498   2.745
 8549TIP3    H125590   4.824   3.582   2.700
 8549TIP3    H225591   4.746   3.454   2.722
 8550TIP3   OH225592   0.358   5.555   3.051
 8550TIP3    H125593   0.307   5.476   3.031
 8550TIP3    H225594   0.385   5.588   2.965
 8551TIP3   OH225595   7.999   0.240   6.644
 8551TIP3    H125596   7.989   0.323   6.596
 8551TIP3    H225597   8.009   0.174   6.575
 8552TIP3   OH225598   6.020   0.046   3.272
 8552TIP3    H125599   6.040   0.039   3.365
 8552TIP3    H225600   6.023  -0.044   3.239
 8553TIP3   OH225601   2.645   3.867   2.937
 8553TIP3    H125602   2.570   3.927   2.928
 8553TIP3    H225603   2.608   3.781   2.922
 8554TIP3   OH225604   0.901   1.522   5.536
 8554TIP3    H125605   0.965   1.571   5.485
 8554TIP3    H225606   0.897   1.568   5.620
 8555TIP3   OH225607   1.058   6.452   4.029
 8555TIP3    H125608   1.099   6.432   4.113
 8555TIP3    H225609   0.964   6.452   4.048
 8556TIP3   OH225610   1.923   3.153   6.243
 8556TIP3    H125611   1.900   3.114   6.159
 8556TIP3    H225612   1.916   3.081   6.306
 8557TIP3   OH225613   4.091   4.225   4.068
 8557TIP3    H125614   4.034   4.161   4.025
 8557TIP3    H225615   4.128   4.177   4.142
 8558TIP3   OH225616   5.399   2.421   0.357
 8558TIP3    H125617   5.356   2.407   0.441
 8558TIP3    H225618   5.352   2.496   0.319
 8559TIP3   OH225619   4.174   3.286   3.920
 8559TIP3    H125620   4.103   3.331   3.874
 8559TIP3    H225621   4.134   3.205   3.952
 8560TIP3   OH225622   7.909   4.954   2.890
 8560TIP3    H125623   7.818   4.981   2.892
 8560TIP3    H225624   7.906   4.858   2.886
 8561TIP3   OH225625   4.601   1.582   6.229
 8561TIP3    H125626   4.693   1.569   6.206
 8561TIP3    H225627   4.597   1.562   6.323
 8562TIP3   OH225628   4.933   7.465   0.550
 8562TIP3    H125629   4.901   7.402   0.615
 8562TIP3    H225630   5.005   7.419   0.506
 8563TIP3   OH225631   5.247   3.960   3.793
 8563TIP3    H125632   5.339   3.939   3.777
 8563TIP3    H225633   5.246   3.996   3.882
 8564TIP3   OH225634   0.601   5.803   3.403
 8564TIP3    H125635   0.694   5.824   3.395
 8564TIP3    H225636   0.596   5.710   3.384
 8565TIP3   OH225637   7.912   6.596   6.470
 8565TIP3    H125638   7.953   6.605   6.384
 8565TIP3    H225639   7.893   6.685   6.498
 8566TIP3   OH225640   5.217   6.559   2.034
 8566TIP3    H125641   5.224   6.627   2.102
 8566TIP3    H225642   5.145   6.589   1.978
 8567TIP3   OH225643   7.164   6.496   4.955
 8567TIP3    H125644   7.180   6.523   4.865
 8567TIP3    H225645   7.149   6.578   5.002
 8568TIP3   OH225646   0.556   0.295   2.899
 8568TIP3    H125647   0.648   0.272   2.917
 8568TIP3    H225648   0.513   0.289   2.984
 8569TIP3   OH225649   7.124   1.453   6.139
 8569TIP3    H125650   7.141   1.401   6.060
 8569TIP3    H225651   7.029   1.448   6.151
 8570TIP3   OH225652   3.365   3.068   0.300
 8570TIP3    H125653   3.401   3.059   0.388
 8570TIP3    H225654   3.285   3.014   0.302
 8571TIP3   OH225655   7.528   2.473   6.518
 8571TIP3    H125656   7.544   2.510   6.604
 8571TIP3    H225657   7.591   2.517   6.461
 8572TIP3   OH225658   3.301   3.360   6.580
 8572TIP3    H125659   3.248   3.371   6.501
 8572TIP3    H225660   3.345   3.445   6.591
 8573TIP3   OH225661   6.806   4.657   6.507
 8573TIP3    H125662   6.816   4.719   6.435
 8573TIP3    H225663   6.853   4.579   6.477
 8574TIP3   OH225664   1.696   3.731   4.331
 8574TIP3    H125665   1.654   3.787   4.397
 8574TIP3    H225666   1.626   3.714   4.267
 8575TIP3   OH225667   6.002   3.013   2.922
 8575TIP3    H125668   6.094   3.037   2.925
 8575TIP3    H225669   5.995   2.937   2.980
 8576TIP3   OH225670   0.032   0.213   6.344
 8576TIP3    H125671   0.015   0.149   6.412
 8576TIP3    H225672   0.017   0.298   6.385
 8577TIP3   OH225673   1.221   6.529   4.538
 8577TIP3    H125674   1.295   6.589   4.533
 8577TIP3    H225675   1.148   6.578   4.500
 8578TIP3   OH225676   8.323   7.794   3.191
 8578TIP3    H125677   8.263   7.869   3.190
 8578TIP3    H225678   8.267   7.719   3.171
 8579TIP3   OH225679   4.026   6.238   1.084
 8579TIP3    H125680   3.996   6.187   1.009
 8579TIP3    H225681   4.008   6.329   1.061
 8580TIP3   OH225682   0.035   3.928   6.649
 8580TIP3    H125683   0.114   3.981   6.653
 8580TIP3    H225684  -0.032   3.987   6.615
 8581TIP3   OH225685   4.478   5.764   1.897
 8581TIP3    H125686   4.527   5.727   1.970
 8581TIP3    H225687   4.540   5.822   1.853
 8582TIP3   OH225688   2.916   1.126   1.186
 8582TIP3    H125689   2.840   1.174   1.155
 8582TIP3    H225690   2.894   1.034   1.171
 8583TIP3   OH225691   5.401   6.659   3.073
 8583TIP3    H125692   5.319   6.705   3.088
 8583TIP3    H225693   5.438   6.647   3.160
 8584TIP3   OH225694   3.071   2.307   5.271
 8584TIP3    H125695   3.128   2.243   5.313
 8584TIP3    H225696   3.122   2.340   5.197
 8585TIP3   OH225697   8.076   3.689   2.342
 8585TIP3    H125698   7.986   3.683   2.374
 8585TIP3    H225699   8.126   3.725   2.416
 8586TIP3   OH225700   7.023   6.137   6.207
 8586TIP3    H125701   7.111   6.125   6.171
 8586TIP3    H225702   7.037   6.164   6.297
 8587TIP3   OH225703   5.704   6.124   6.718
 8587TIP3    H125704   5.747   6.092   6.797
 8587TIP3    H225705   5.743   6.210   6.702
 8588TIP3   OH225706   0.146   4.362   4.427
 8588TIP3    H125707   0.184   4.286   4.471
 8588TIP3    H225708   0.201   4.435   4.455
 8589TIP3   OH225709   7.685   3.195   0.341
 8589TIP3    H125710   7.776   3.164   0.349
 8589TIP3    H225711   7.686   3.281   0.383
 8590TIP3   OH225712   5.383   1.555   3.031
 8590TIP3    H125713   5.470   1.540   3.066
 8590TIP3    H225714   5.332   1.590   3.104
 8591TIP3   OH225715   7.767   0.620   3.068
 8591TIP3    H125716   7.812   0.697   3.033
 8591TIP3    H225717   7.736   0.648   3.154
 8592TIP3   OH225718   7.802   4.847   2.371
 8592TIP3    H125719   7.748   4.775   2.400
 8592TIP3    H225720   7.871   4.806   2.319
 8593TIP3   OH225721   5.136   6.172   5.428
 8593TIP3    H125722   5.144   6.077   5.422
 8593TIP3    H225723   5.056   6.193   5.380
 8594TIP3   OH225724   2.229   5.476   4.781
 8594TIP3    H125725   2.272   5.460   4.865
 8594TIP3    H225726   2.193   5.564   4.789
 8595TIP3   OH225727   5.677   4.425   6.349
 8595TIP3    H125728   5.628   4.502   6.380
 8595TIP3    H225729   5.769   4.449   6.359
 8596TIP3   OH225730   2.054   3.274   6.007
 8596TIP3    H125731   2.145   3.297   5.990
 8596TIP3    H225732   2.025   3.335   6.074
 8597TIP3   OH225733   1.401   7.142   0.860
 8597TIP3    H125734   1.416   7.133   0.766
 8597TIP3    H225735   1.339   7.215   0.867
 8598TIP3   OH225736   2.094   1.245   3.165
 8598TIP3    H125737   2.098   1.330   3.209
 8598TIP3    H225738   2.004   1.240   3.132
 8599TIP3   OH225739   3.426   4.891   2.460
 8599TIP3    H125740   3.480   4.899   2.381
 8599TIP3    H225741   3.362   4.962   2.451
 8600TIP3   OH225742   1.935   2.185   1.707
 8600TIP3    H125743   1.847   2.183   1.746
 8600TIP3    H225744   1.968   2.273   1.727
 8601TIP3   OH225745   1.832   4.467   4.834
 8601TIP3    H125746   1.923   4.491   4.817
 8601TIP3    H225747   1.786   4.487   4.752
 8602TIP3   OH225748   5.165   0.434   4.200
 8602TIP3    H125749   5.228   0.496   4.238
 8602TIP3    H225750   5.131   0.480   4.123
 8603TIP3   OH225751   7.554   6.071   1.160
 8603TIP3    H125752   7.607   6.149   1.176
 8603TIP3    H225753   7.524   6.080   1.070
 8604TIP3   OH225754   7.330   0.525   1.513
 8604TIP3    H125755   7.363   0.444   1.552
 8604TIP3    H225756   7.312   0.502   1.422
 8605TIP3   OH225757   5.794   5.096   2.790
 8605TIP3    H125758   5.889   5.107   2.788
 8605TIP3    H225759   5.775   5.039   2.716
 8606TIP3   OH225760   3.645   3.798   2.719
 8606TIP3    H125761   3.586   3.843   2.658
 8606TIP3    H225762   3.690   3.733   2.665
 8607TIP3   OH225763   4.628   2.045   2.892
 8607TIP3    H125764   4.572   2.039   2.969
 8607TIP3    H225765   4.603   2.128   2.850
 8608TIP3   OH225766   0.054   6.855   2.669
 8608TIP3    H125767   0.098   6.819   2.747
 8608TIP3    H225768   0.035   6.946   2.693
 8609TIP3   OH225769   2.323   1.148   3.046
 8609TIP3    H125770   2.384   1.160   3.119
 8609TIP3    H225771   2.237   1.169   3.082
 8610TIP3   OH225772   1.468   5.744   6.372
 8610TIP3    H125773   1.530   5.723   6.303
 8610TIP3    H225774   1.522   5.770   6.446
 8611TIP3   OH225775   4.257   2.666   3.411
 8611TIP3    H125776   4.214   2.728   3.470
 8611TIP3    H225777   4.349   2.668   3.436
 8612TIP3   OH225778   2.271   4.339   5.314
 8612TIP3    H125779   2.223   4.256   5.320
 8612TIP3    H225780   2.266   4.376   5.402
 8613TIP3   OH225781   7.769   1.681   2.088
 8613TIP3    H125782   7.678   1.672   2.059
 8613TIP3    H225783   7.794   1.594   2.118
 8614TIP3   OH225784   3.306   5.394   3.351
 8614TIP3    H125785   3.245   5.442   3.407
 8614TIP3    H225786   3.357   5.463   3.307
 8615TIP3   OH225787   1.984   3.630   6.643
 8615TIP3    H125788   1.905   3.670   6.678
 8615TIP3    H225789   1.967   3.535   6.645
 8616TIP3   OH225790   6.314   7.344   4.312
 8616TIP3    H125791   6.390   7.402   4.307
 8616TIP3    H225792   6.289   7.329   4.221
 8617TIP3   OH225793   0.192   6.620   6.686
 8617TIP3    H125794   0.230   6.667   6.761
 8617TIP3    H225795   0.135   6.554   6.726
 8618TIP3   OH225796   4.841   0.784   4.959
 8618TIP3    H125797   4.775   0.738   5.011
 8618TIP3    H225798   4.806   0.783   4.870
 8619TIP3   OH225799   8.042   6.017   0.475
 8619TIP3    H125800   8.097   6.083   0.516
 8619TIP3    H225801   8.088   5.934   0.491
 8620TIP3   OH225802   5.320   7.116   3.116
 8620TIP3    H125803   5.302   7.198   3.163
 8620TIP3    H225804   5.414   7.118   3.100
 8621TIP3   OH225805   7.003   1.896   0.066
 8621TIP3    H125806   6.966   1.809   0.049
 8621TIP3    H225807   7.039   1.924  -0.018
 8622TIP3   OH225808   0.409   2.201   3.974
 8622TIP3    H125809   0.318   2.232   3.969
 8622TIP3    H225810   0.444   2.241   4.053
 8623TIP3   OH225811   0.438   1.159   5.363
 8623TIP3    H125812   0.491   1.236   5.383
 8623TIP3    H225813   0.389   1.142   5.443
 8624TIP3   OH225814   6.510   7.789   0.266
 8624TIP3    H125815   6.532   7.749   0.350
 8624TIP3    H225816   6.442   7.853   0.287
 8625TIP3   OH225817   6.481   2.692   3.814
 8625TIP3    H125818   6.499   2.599   3.797
 8625TIP3    H225819   6.411   2.691   3.879
 8626TIP3   OH225820   6.934   4.493   1.285
 8626TIP3    H125821   6.891   4.559   1.232
 8626TIP3    H225822   6.866   4.461   1.343
 8627TIP3   OH225823   3.080   5.932   4.911
 8627TIP3    H125824   3.080   5.910   4.817
 8627TIP3    H225825   3.054   6.024   4.914
 8628TIP3   OH225826   8.291   4.925   5.633
 8628TIP3    H125827   8.256   4.981   5.703
 8628TIP3    H225828   8.323   4.987   5.568
 8629TIP3   OH225829   7.476   6.434   0.095
 8629TIP3    H125830   7.406   6.450   0.158
 8629TIP3    H225831   7.465   6.343   0.070
 8630TIP3   OH225832   8.030   0.609   3.621
 8630TIP3    H125833   8.088   0.560   3.680
 8630TIP3    H225834   7.942   0.577   3.642
 8631TIP3   OH225835   0.055   5.078   1.332
 8631TIP3    H125836   0.047   5.129   1.252
 8631TIP3    H225837   0.134   5.025   1.319
 8632TIP3   OH225838   3.932   6.902   5.056
 8632TIP3    H125839   3.887   6.821   5.031
 8632TIP3    H225840   3.874   6.972   5.025
 8633TIP3   OH225841   3.575   6.106   4.604
 8633TIP3    H125842   3.520   6.039   4.565
 8633TIP3    H225843   3.543   6.115   4.693
 8634TIP3   OH225844   2.105   2.053   3.212
 8634TIP3    H125845   2.012   2.063   3.190
 8634TIP3    H225846   2.125   2.130   3.265
 8635TIP3   OH225847   8.111   0.361   1.129
 8635TIP3    H125848   8.114   0.430   1.063
 8635TIP3    H225849   8.088   0.282   1.080
 8636TIP3   OH225850   0.968   1.730   4.493
 8636TIP3    H125851   1.033   1.716   4.424
 8636TIP3    H225852   1.020   1.753   4.570
 8637TIP3   OH225853   7.589   6.633   1.566
 8637TIP3    H125854   7.499   6.635   1.535
 8637TIP3    H225855   7.591   6.558   1.627
 8638TIP3   OH225856   1.289   1.062   5.527
 8638TIP3    H125857   1.257   1.114   5.453
 8638TIP3    H225858   1.381   1.088   5.537
 8639TIP3   OH225859   3.639   5.464   0.835
 8639TIP3    H125860   3.693   5.386   0.823
 8639TIP3    H225861   3.701   5.537   0.834
 8640TIP3   OH225862   5.632   6.989   4.195
 8640TIP3    H125863   5.612   6.929   4.267
 8640TIP3    H225864   5.716   7.028   4.218
 8641TIP3   OH225865   6.561   1.456   0.384
 8641TIP3    H125866   6.479   1.407   0.380
 8641TIP3    H225867   6.569   1.497   0.298
 8642TIP3   OH225868   4.642   7.280   0.910
 8642TIP3    H125869   4.623   7.287   1.004
 8642TIP3    H225870   4.626   7.187   0.890
 8643TIP3   OH225871   4.763   4.886   1.504
 8643TIP3    H125872   4.703   4.812   1.510
 8643TIP3    H225873   4.708   4.962   1.522
 8644TIP3   OH225874   2.155   3.547   6.425
 8644TIP3    H125875   2.097   3.558   6.501
 8644TIP3    H225876   2.134   3.622   6.369
 8645TIP3   OH225877   5.418   6.180   2.204
 8645TIP3    H125878   5.416   6.231   2.123
 8645TIP3    H225879   5.328   6.148   2.214
 8646TIP3   OH225880   7.486   5.415   0.307
 8646TIP3    H125881   7.411   5.450   0.259
 8646TIP3    H225882   7.486   5.321   0.285
 8647TIP3   OH225883   3.264   5.374   2.325
 8647TIP3    H125884   3.266   5.421   2.242
 8647TIP3    H225885   3.347   5.326   2.328
 8648TIP3   OH225886   8.211   6.417   0.615
 8648TIP3    H125887   8.172   6.343   0.663
 8648TIP3    H225888   8.305   6.402   0.621
 8649TIP3   OH225889   6.784   0.260   3.727
 8649TIP3    H125890   6.738   0.342   3.748
 8649TIP3    H225891   6.876   0.279   3.745
 8650TIP3   OH225892   2.210   3.027   1.819
 8650TIP3    H125893   2.209   3.024   1.724
 8650TIP3    H225894   2.196   3.119   1.840
 8651TIP3   OH225895   2.068   2.371   4.972
 8651TIP3    H125896   2.066   2.282   4.936
 8651TIP3    H225897   2.085   2.358   5.065
 8652TIP3   OH225898   8.251   3.784   5.179
 8652TIP3    H125899   8.319   3.719   5.160
 8652TIP3    H225900   8.295   3.868   5.172
 8653TIP3   OH225901   6.033   7.500   3.885
 8653TIP3    H125902   6.017   7.488   3.978
 8653TIP3    H225903   6.094   7.573   3.880
 8654TIP3   OH225904   2.009   0.159   0.645
 8654TIP3    H125905   2.096   0.195   0.626
 8654TIP3    H225906   1.959   0.234   0.677
 8655TIP3   OH225907   5.489   4.094   5.706
 8655TIP3    H125908   5.472   4.138   5.623
 8655TIP3    H225909   5.528   4.163   5.761
 8656TIP3   OH225910   0.464   6.019   2.449
 8656TIP3    H125911   0.397   6.085   2.434
 8656TIP3    H225912   0.545   6.069   2.458
 8657TIP3   OH225913   5.663   0.263   1.349
 8657TIP3    H125914   5.682   0.355   1.329
 8657TIP3    H225915   5.723   0.241   1.420
 8658TIP3   OH225916   5.669   4.761   4.893
 8658TIP3    H125917   5.700   4.814   4.966
 8658TIP3    H225918   5.574   4.764   4.899
 8659TIP3   OH225919   5.638   3.837   0.917
 8659TIP3    H125920   5.586   3.914   0.941
 8659TIP3    H225921   5.575   3.766   0.911
 8660TIP3   OH225922   4.489   1.796   2.555
 8660TIP3    H125923   4.581   1.798   2.528
 8660TIP3    H225924   4.491   1.772   2.647
 8661TIP3   OH225925   5.037   0.227   6.344
 8661TIP3    H125926   4.987   0.223   6.425
 8661TIP3    H225927   5.110   0.167   6.358
 8662TIP3   OH225928   4.606   5.759   3.459
 8662TIP3    H125929   4.639   5.780   3.372
 8662TIP3    H225930   4.512   5.779   3.456
 8663TIP3   OH225931   4.781   3.194   0.085
 8663TIP3    H125932   4.834   3.271   0.105
 8663TIP3    H225933   4.697   3.229   0.055
 8664TIP3   OH225934   6.383   4.235   0.896
 8664TIP3    H125935   6.460   4.178   0.892
 8664TIP3    H225936   6.330   4.209   0.821
 8665TIP3   OH225937   2.855   1.463   6.265
 8665TIP3    H125938   2.765   1.471   6.298
 8665TIP3    H225939   2.876   1.371   6.274
 8666TIP3   OH225940   2.056   2.916   2.021
 8666TIP3    H125941   2.117   2.918   1.947
 8666TIP3    H225942   1.969   2.916   1.980
 8667TIP3   OH225943   7.011   2.833   2.040
 8667TIP3    H125944   7.010   2.758   2.101
 8667TIP3    H225945   6.990   2.908   2.095
 8668TIP3   OH225946   7.811   2.473   3.575
 8668TIP3    H125947   7.740   2.425   3.618
 8668TIP3    H225948   7.886   2.413   3.579
 8669TIP3   OH225949   1.737   1.521   0.499
 8669TIP3    H125950   1.796   1.559   0.564
 8669TIP3    H225951   1.745   1.578   0.422
 8670TIP3   OH225952   5.034   4.027   2.235
 8670TIP3    H125953   5.026   4.092   2.165
 8670TIP3    H225954   5.111   4.056   2.285
 8671TIP3   OH225955   3.320   4.456   3.119
 8671TIP3    H125956   3.292   4.447   3.029
 8671TIP3    H225957   3.404   4.410   3.123
 8672TIP3   OH225958   0.853   0.544   1.837
 8672TIP3    H125959   0.853   0.598   1.917
 8672TIP3    H225960   0.842   0.608   1.766
 8673TIP3   OH225961   0.601   4.871   0.184
 8673TIP3    H125962   0.589   4.776   0.194
 8673TIP3    H225963   0.515   4.904   0.161
 8674TIP3   OH225964   6.969   1.173   0.411
 8674TIP3    H125965   7.012   1.220   0.339
 8674TIP3    H225966   7.041   1.131   0.459
 8675TIP3   OH225967   4.470   6.345   0.431
 8675TIP3    H125968   4.437   6.368   0.518
 8675TIP3    H225969   4.566   6.354   0.439
 8676TIP3   OH225970   2.656   2.214   1.338
 8676TIP3    H125971   2.581   2.264   1.371
 8676TIP3    H225972   2.658   2.232   1.244
 8677TIP3   OH225973   5.022   1.608   1.140
 8677TIP3    H125974   4.963   1.534   1.150
 8677TIP3    H225975   5.045   1.609   1.047
 8678TIP3   OH225976   5.629   1.666   0.985
 8678TIP3    H125977   5.619   1.590   0.928
 8678TIP3    H225978   5.571   1.733   0.948
 8679TIP3   OH225979   6.930   4.933   4.322
 8679TIP3    H125980   6.892   4.996   4.384
 8679TIP3    H225981   6.905   4.847   4.357
 8680TIP3   OH225982   3.016   2.697   5.290
 8680TIP3    H125983   3.074   2.688   5.214
 8680TIP3    H225984   2.975   2.783   5.278
 8681TIP3   OH225985   2.114   5.328   4.588
 8681TIP3    H125986   2.024   5.322   4.619
 8681TIP3    H225987   2.159   5.378   4.656
 8682TIP3   OH225988   2.836   3.212   4.466
 8682TIP3    H125989   2.854   3.303   4.490
 8682TIP3    H225990   2.858   3.162   4.545
 8683TIP3   OH225991   8.150   1.940   5.519
 8683TIP3    H125992   8.180   1.852   5.543
 8683TIP3    H225993   8.107   1.973   5.598
 8684TIP3   OH225994   3.391   6.046   1.384
 8684TIP3    H125995   3.387   6.012   1.473
 8684TIP3    H225996   3.469   6.100   1.382
 8685TIP3   OH225997   1.460   7.663   5.210
 8685TIP3    H125998   1.430   7.589   5.158
 8685TIP3    H225999   1.380   7.710   5.233
 8686TIP3   OH226000   2.213   0.725   3.435
 8686TIP3    H126001   2.212   0.654   3.370
 8686TIP3    H226002   2.184   0.684   3.516
 8687TIP3   OH226003   5.935   5.339   2.538
 8687TIP3    H126004   5.902   5.427   2.556
 8687TIP3    H226005   5.858   5.287   2.518
 8688TIP3   OH226006   0.038   3.295   5.508
 8688TIP3    H126007  -0.040   3.348   5.522
 8688TIP3    H226008   0.109   3.359   5.501
 8689TIP3   OH226009   7.502   2.346   2.002
 8689TIP3    H126010   7.424   2.402   2.006
 8689TIP3    H226011   7.575   2.407   1.997
 8690TIP3   OH226012   5.182   7.031   5.841
 8690TIP3    H126013   5.105   6.996   5.796
 8690TIP3    H226014   5.256   6.990   5.798
 8691TIP3   OH226015   4.017   5.277   1.293
 8691TIP3    H126016   3.941   5.255   1.240
 8691TIP3    H226017   3.991   5.356   1.340
 8692TIP3   OH226018   6.189   0.642   5.624
 8692TIP3    H126019   6.164   0.606   5.539
 8692TIP3    H226020   6.271   0.597   5.646
 8693TIP3   OH226021   1.552   1.077   3.135
 8693TIP3    H126022   1.585   1.000   3.182
 8693TIP3    H226023   1.532   1.044   3.047
 8694TIP3   OH226024   8.183   2.897   6.606
 8694TIP3    H126025   8.245   2.896   6.680
 8694TIP3    H226026   8.122   2.968   6.627
 8695TIP3   OH226027   3.666   6.571   0.584
 8695TIP3    H126028   3.659   6.490   0.634
 8695TIP3    H226029   3.742   6.558   0.528
 8696TIP3   OH226030   1.021   0.497   5.370
 8696TIP3    H126031   0.953   0.502   5.437
 8696TIP3    H226032   1.027   0.586   5.335
 8697TIP3   OH226033   4.651   3.065   3.180
 8697TIP3    H126034   4.724   3.075   3.242
 8697TIP3    H226035   4.576   3.106   3.225
 8698TIP3   OH226036   0.925   6.432   0.884
 8698TIP3    H126037   0.866   6.376   0.934
 8698TIP3    H226038   1.008   6.427   0.932
 8699TIP3   OH226039   4.899   7.119   1.411
 8699TIP3    H126040   4.825   7.146   1.467
 8699TIP3    H226041   4.914   7.027   1.433
 8700TIP3   OH226042   4.140   4.322   3.749
 8700TIP3    H126043   4.067   4.380   3.772
 8700TIP3    H226044   4.150   4.266   3.826
 8701TIP3   OH226045   3.860   7.075   1.600
 8701TIP3    H126046   3.802   7.120   1.538
 8701TIP3    H226047   3.845   7.120   1.683
 8702TIP3   OH226048   8.011   3.982   3.556
 8702TIP3    H126049   8.025   3.930   3.634
 8702TIP3    H226050   8.062   4.062   3.571
 8703TIP3   OH226051   6.347   3.251   0.997
 8703TIP3    H126052   6.284   3.322   1.013
 8703TIP3    H226053   6.413   3.291   0.940
 8704TIP3   OH226054   3.584   7.344   3.600
 8704TIP3    H126055   3.583   7.349   3.696
 8704TIP3    H226056   3.533   7.419   3.571
 8705TIP3   OH226057   6.714   4.920   0.114
 8705TIP3    H126058   6.741   4.941   0.025
 8705TIP3    H226059   6.658   4.993   0.140
 8706TIP3   OH226060   0.595   1.231   6.090
 8706TIP3    H126061   0.564   1.255   6.002
 8706TIP3    H226062   0.600   1.315   6.136
 8707TIP3   OH226063   2.983   1.978   3.566
 8707TIP3    H126064   2.902   2.021   3.592
 8707TIP3    H226065   3.050   2.046   3.573
 8708TIP3   OH226066   2.404   1.220   4.426
 8708TIP3    H126067   2.385   1.127   4.424
 8708TIP3    H226068   2.342   1.256   4.490
 8709TIP3   OH226069   4.189   7.801   0.714
 8709TIP3    H126070   4.098   7.777   0.727
 8709TIP3    H226071   4.230   7.721   0.679
 8710TIP3   OH226072   6.012   2.211   4.285
 8710TIP3    H126073   6.039   2.131   4.240
 8710TIP3    H226074   6.064   2.212   4.366
 8711TIP3   OH226075   2.917   0.294   3.741
 8711TIP3    H126076   2.823   0.313   3.740
 8711TIP3    H226077   2.953   0.351   3.673
 8712TIP3   OH226078   1.243   4.893   5.729
 8712TIP3    H126079   1.295   4.843   5.666
 8712TIP3    H226080   1.194   4.828   5.778
 8713TIP3   OH226081   0.983   2.945   4.910
 8713TIP3    H126082   0.965   2.940   4.816
 8713TIP3    H226083   1.078   2.943   4.916
 8714TIP3   OH226084   7.614   6.544   3.364
 8714TIP3    H126085   7.537   6.487   3.360
 8714TIP3    H226086   7.672   6.510   3.296
 8715TIP3   OH226087   2.587   2.653   5.727
 8715TIP3    H126088   2.570   2.563   5.701
 8715TIP3    H226089   2.586   2.651   5.823
 8716TIP3   OH226090   1.953   2.994   3.640
 8716TIP3    H126091   1.915   2.951   3.562
 8716TIP3    H226092   2.047   2.986   3.628
 8717TIP3   OH226093   4.682   2.746   5.877
 8717TIP3    H126094   4.667   2.731   5.971
 8717TIP3    H226095   4.691   2.659   5.840
 8718TIP3   OH226096   1.521   3.304   2.696
 8718TIP3    H126097   1.571   3.372   2.652
 8718TIP3    H226098   1.525   3.328   2.789
 8719TIP3   OH226099   7.892   6.115   0.153
 8719TIP3    H126100   7.976   6.161   0.146
 8719TIP3    H226101   7.882   6.098   0.246
 8720TIP3   OH226102   0.159   1.424   5.611
 8720TIP3    H126103   0.195   1.337   5.626
 8720TIP3    H226104   0.164   1.437   5.516
 8721TIP3   OH226105   5.343   4.511   4.588
 8721TIP3    H126106   5.338   4.447   4.659
 8721TIP3    H226107   5.423   4.561   4.605
 8722TIP3   OH226108   6.678   0.196   4.983
 8722TIP3    H126109   6.611   0.244   4.933
 8722TIP3    H226110   6.630   0.126   5.026
 8723TIP3   OH226111   6.451   7.698   3.251
 8723TIP3    H126112   6.427   7.708   3.343
 8723TIP3    H226113   6.382   7.644   3.213
 8724TIP3   OH226114   3.953   1.138   0.413
 8724TIP3    H126115   3.860   1.119   0.430
 8724TIP3    H226116   3.981   1.070   0.352
 8725TIP3   OH226117   1.053   2.666   5.679
 8725TIP3    H126118   0.961   2.683   5.699
 8725TIP3    H226119   1.098   2.675   5.763
 8726TIP3   OH226120   4.861   6.515   4.747
 8726TIP3    H126121   4.949   6.504   4.712
 8726TIP3    H226122   4.831   6.426   4.766
 8727TIP3   OH226123   2.300   4.695   2.003
 8727TIP3    H126124   2.297   4.621   1.943
 8727TIP3    H226125   2.239   4.672   2.073
 8728TIP3   OH226126   2.341   7.154   5.268
 8728TIP3    H126127   2.345   7.070   5.222
 8728TIP3    H226128   2.406   7.146   5.338
 8729TIP3   OH226129   5.474   5.734   6.522
 8729TIP3    H126130   5.553   5.788   6.524
 8729TIP3    H226131   5.463   5.711   6.429
 8730TIP3   OH226132   4.650   2.826   1.007
 8730TIP3    H126133   4.606   2.905   0.976
 8730TIP3    H226134   4.741   2.852   1.018
 8731TIP3   OH226135   5.387   4.983   3.720
 8731TIP3    H126136   5.326   4.910   3.710
 8731TIP3    H226137   5.370   5.039   3.645
 8732TIP3   OH226138   5.257   7.412   2.039
 8732TIP3    H126139   5.304   7.475   1.984
 8732TIP3    H226140   5.188   7.463   2.081
 8733TIP3   OH226141   7.301   2.531   0.505
 8733TIP3    H126142   7.318   2.600   0.441
 8733TIP3    H226143   7.244   2.469   0.460
 8734TIP3   OH226144   1.780   3.576   1.112
 8734TIP3    H126145   1.691   3.566   1.080
 8734TIP3    H226146   1.779   3.538   1.200
 8735TIP3   OH226147   3.749   6.364   3.495
 8735TIP3    H126148   3.820   6.395   3.551
 8735TIP3    H226149   3.767   6.271   3.482
 8736TIP3   OH226150   1.311   4.699   5.130
 8736TIP3    H126151   1.231   4.736   5.168
 8736TIP3    H226152   1.304   4.717   5.036
 8737TIP3   OH226153   7.700   4.372   6.133
 8737TIP3    H126154   7.707   4.349   6.040
 8737TIP3    H226155   7.764   4.315   6.176
 8738TIP3   OH226156   7.133   0.421   5.179
 8738TIP3    H126157   7.101   0.392   5.265
 8738TIP3    H226158   7.056   0.420   5.123
 8739TIP3   OH226159   5.927   1.709   3.086
 8739TIP3    H126160   5.870   1.752   3.150
 8739TIP3    H226161   5.980   1.648   3.138
 8740TIP3   OH226162   2.407   3.001   5.811
 8740TIP3    H126163   2.352   2.945   5.866
 8740TIP3    H226164   2.496   2.981   5.839
 8741TIP3   OH226165   5.944   3.455   1.624
 8741TIP3    H126166   5.868   3.507   1.598
 8741TIP3    H226167   6.012   3.520   1.642
 8742TIP3   OH226168   4.392   2.062   5.626
 8742TIP3    H126169   4.460   2.079   5.691
 8742TIP3    H226170   4.316   2.111   5.658
 8743TIP3   OH226171   2.520   4.284   6.181
 8743TIP3    H126172   2.434   4.243   6.177
 8743TIP3    H226173   2.542   4.305   6.090
 8744TIP3   OH226174   2.289   0.159   5.273
 8744TIP3    H126175   2.281   0.143   5.179
 8744TIP3    H226176   2.383   0.161   5.290
 8745TIP3   OH226177   3.446   2.490   6.480
 8745TIP3    H126178   3.359   2.495   6.442
 8745TIP3    H226179   3.442   2.544   6.559
 8746TIP3   OH226180   1.104   0.661   0.633
 8746TIP3    H126181   1.050   0.729   0.594
 8746TIP3    H226182   1.175   0.646   0.570
 8747TIP3   OH226183   1.051   4.917   4.831
 8747TIP3    H126184   1.020   4.912   4.741
 8747TIP3    H226185   1.127   4.858   4.834
 8748TIP3   OH226186   6.908   0.826   6.730
 8748TIP3    H126187   6.864   0.864   6.806
 8748TIP3    H226188   6.918   0.899   6.669
 8749TIP3   OH226189   5.076   2.606   4.073
 8749TIP3    H126190   5.119   2.688   4.098
 8749TIP3    H226191   4.983   2.623   4.086
 8750TIP3   OH226192   3.201   3.169   3.480
 8750TIP3    H126193   3.150   3.172   3.561
 8750TIP3    H226194   3.135   3.172   3.410
 8751TIP3   OH226195   2.102   0.472   6.642
 8751TIP3    H126196   2.157   0.484   6.719
 8751TIP3    H226197   2.045   0.399   6.665
 8752TIP3   OH226198   4.268   0.189   3.972
 8752TIP3    H126199   4.357   0.204   4.002
 8752TIP3    H226200   4.212   0.215   4.046
 8753TIP3   OH226201   6.117   6.619   3.222
 8753TIP3    H126202   6.096   6.542   3.169
 8753TIP3    H226203   6.052   6.620   3.292
 8754TIP3   OH226204   6.906   4.813   2.545
 8754TIP3    H126205   6.903   4.747   2.476
 8754TIP3    H226206   6.886   4.895   2.501
 8755TIP3   OH226207   5.297   3.169   2.854
 8755TIP3    H126208   5.287   3.092   2.797
 8755TIP3    H226209   5.390   3.168   2.879
 8756TIP3   OH226210   3.493   3.137   3.125
 8756TIP3    H126211   3.490   3.084   3.204
 8756TIP3    H226212   3.448   3.218   3.149
 8757TIP3   OH226213   2.468   2.118   4.633
 8757TIP3    H126214   2.472   2.170   4.552
 8757TIP3    H226215   2.411   2.169   4.691
 8758TIP3   OH226216   6.842   0.563   4.403
 8758TIP3    H126217   6.820   0.541   4.494
 8758TIP3    H226218   6.771   0.621   4.375
 8759TIP3   OH226219   7.606   0.906   1.431
 8759TIP3    H126220   7.545   0.909   1.357
 8759TIP3    H226221   7.681   0.958   1.401
 8760TIP3   OH226222   7.627   1.920   5.663
 8760TIP3    H126223   7.655   1.847   5.718
 8760TIP3    H226224   7.531   1.922   5.672
 8761TIP3   OH226225   2.264   2.597   6.627
 8761TIP3    H126226   2.327   2.534   6.595
 8761TIP3    H226227   2.227   2.558   6.706
 8762TIP3   OH226228   8.034   2.937   5.060
 8762TIP3    H126229   7.971   2.928   4.988
 8762TIP3    H226230   8.118   2.953   5.017
 8763TIP3   OH226231   4.653   2.740   1.407
 8763TIP3    H126232   4.746   2.719   1.400
 8763TIP3    H226233   4.634   2.733   1.501
 8764TIP3   OH226234   6.597   1.714   2.456
 8764TIP3    H126235   6.566   1.652   2.390
 8764TIP3    H226236   6.591   1.665   2.538
 8765TIP3   OH226237   1.046   7.623   4.457
 8765TIP3    H126238   1.077   7.690   4.518
 8765TIP3    H226239   0.978   7.667   4.405
 8766TIP3   OH226240   0.649   4.081   5.581
 8766TIP3    H126241   0.624   4.076   5.673
 8766TIP3    H226242   0.733   4.035   5.577
 8767TIP3   OH226243   4.935   4.762   5.012
 8767TIP3    H126244   4.842   4.765   4.989
 8767TIP3    H226245   4.957   4.853   5.033
 8768TIP3   OH226246   8.110   2.342   6.042
 8768TIP3    H126247   8.025   2.383   6.029
 8768TIP3    H226248   8.172   2.399   5.997
 8769TIP3   OH226249   7.339   1.087   6.218
 8769TIP3    H126250   7.250   1.112   6.192
 8769TIP3    H226251   7.353   1.002   6.177
 8770TIP3   OH226252   5.809   2.047   5.444
 8770TIP3    H126253   5.872   1.984   5.479
 8770TIP3    H226254   5.778   2.008   5.363
 8771TIP3   OH226255   4.954   6.130   1.477
 8771TIP3    H126256   4.872   6.101   1.517
 8771TIP3    H226257   4.950   6.097   1.387
 8772TIP3   OH226258   2.826   2.717   1.246
 8772TIP3    H126259   2.840   2.624   1.226
 8772TIP3    H226260   2.898   2.761   1.201
 8773TIP3   OH226261   2.727   2.883   2.791
 8773TIP3    H126262   2.738   2.848   2.703
 8773TIP3    H226263   2.676   2.963   2.779
 8774TIP3   OH226264   4.986   3.826   4.727
 8774TIP3    H126265   4.988   3.805   4.633
 8774TIP3    H226266   5.012   3.918   4.731
 8775TIP3   OH226267   5.719   0.420   3.918
 8775TIP3    H126268   5.671   0.467   3.987
 8775TIP3    H226269   5.784   0.483   3.887
 8776TIP3   OH226270   4.070   2.666   1.852
 8776TIP3    H126271   3.984   2.693   1.887
 8776TIP3    H226272   4.124   2.744   1.859
 8777TIP3   OH226273   5.466   1.985   3.530
 8777TIP3    H126274   5.408   1.929   3.479
 8777TIP3    H226275   5.553   1.948   3.515
 8778TIP3   OH226276   5.760   4.290   4.239
 8778TIP3    H126277   5.853   4.294   4.216
 8778TIP3    H226278   5.759   4.268   4.332
 8779TIP3   OH226279   3.104   0.531   1.995
 8779TIP3    H126280   3.164   0.477   2.046
 8779TIP3    H226281   3.130   0.621   2.015
 8780TIP3   OH226282   0.404   3.371   1.303
 8780TIP3    H126283   0.483   3.415   1.271
 8780TIP3    H226284   0.434   3.283   1.324
 8781TIP3   OH226285   1.931   5.076   4.925
 8781TIP3    H126286   1.883   5.149   4.964
 8781TIP3    H226287   1.864   5.010   4.908
 8782TIP3   OH226288   1.573   5.877   4.542
 8782TIP3    H126289   1.516   5.807   4.510
 8782TIP3    H226290   1.530   5.958   4.515
 8783TIP3   OH226291   6.645   1.528   5.575
 8783TIP3    H126292   6.636   1.572   5.491
 8783TIP3    H226293   6.737   1.537   5.598
 8784TIP3   OH226294   1.476   1.401   3.967
 8784TIP3    H126295   1.410   1.388   4.036
 8784TIP3    H226296   1.472   1.320   3.916
 8785TIP3   OH226297   2.414   4.190   2.082
 8785TIP3    H126298   2.335   4.239   2.103
 8785TIP3    H226299   2.383   4.114   2.033
 8786TIP3   OH226300   2.709   1.343   5.757
 8786TIP3    H126301   2.690   1.432   5.787
 8786TIP3    H226302   2.799   1.347   5.724
 8787TIP3   OH226303   7.929   2.019   1.430
 8787TIP3    H126304   7.845   2.053   1.398
 8787TIP3    H226305   7.948   2.072   1.507
 8788TIP3   OH226306   3.270   4.319   1.103
 8788TIP3    H126307   3.352   4.368   1.100
 8788TIP3    H226308   3.250   4.312   1.196
 8789TIP3   OH226309   7.679   7.433   0.463
 8789TIP3    H126310   7.653   7.432   0.555
 8789TIP3    H226311   7.663   7.344   0.433
 8790TIP3   OH226312   2.765   1.516   0.176
 8790TIP3    H126313   2.787   1.466   0.097
 8790TIP3    H226314   2.740   1.449   0.240
 8791TIP3   OH226315   5.773   4.775   5.867
 8791TIP3    H126316   5.733   4.790   5.781
 8791TIP3    H226317   5.752   4.684   5.888
 8792TIP3   OH226318   0.280   1.304   6.104
 8792TIP3    H126319   0.294   1.348   6.020
 8792TIP3    H226320   0.322   1.361   6.168
 8793TIP3   OH226321   1.634   1.542   5.161
 8793TIP3    H126322   1.545   1.567   5.186
 8793TIP3    H226323   1.651   1.462   5.211
 8794TIP3   OH226324   8.217   5.357   0.582
 8794TIP3    H126325   8.184   5.366   0.671
 8794TIP3    H226326   8.258   5.271   0.580
 8795TIP3   OH226327   3.747   0.216   0.703
 8795TIP3    H126328   3.783   0.212   0.791
 8795TIP3    H226329   3.719   0.307   0.692
 8796TIP3   OH226330   2.368   4.129   6.475
 8796TIP3    H126331   2.336   4.208   6.518
 8796TIP3    H226332   2.433   4.093   6.535
 8797TIP3   OH226333   4.814   2.794   6.540
 8797TIP3    H126334   4.786   2.884   6.553
 8797TIP3    H226335   4.850   2.792   6.451
 8798TIP3   OH226336   6.386   3.062   2.735
 8798TIP3    H126337   6.329   3.067   2.812
 8798TIP3    H226338   6.456   3.125   2.753
 8799TIP3   OH226339   1.190   1.467   1.287
 8799TIP3    H126340   1.120   1.519   1.324
 8799TIP3    H226341   1.253   1.531   1.253
 8800TIP3   OH226342   5.537   6.621   3.862
 8800TIP3    H126343   5.495   6.706   3.853
 8800TIP3    H226344   5.465   6.558   3.867
 8801TIP3   OH226345   6.914   7.427   3.159
 8801TIP3    H126346   6.885   7.356   3.103
 8801TIP3    H226347   6.937   7.497   3.099
 8802TIP3   OH226348   4.898   4.448   0.557
 8802TIP3    H126349   4.900   4.438   0.652
 8802TIP3    H226350   4.823   4.505   0.540
 8803TIP3   OH226351   5.359   1.743   5.637
 8803TIP3    H126352   5.360   1.726   5.543
 8803TIP3    H226353   5.276   1.706   5.667
 8804TIP3   OH226354   6.678   3.481   4.129
 8804TIP3    H126355   6.661   3.406   4.071
 8804TIP3    H226356   6.760   3.518   4.096
 8805TIP3   OH226357   3.649   3.723   6.209
 8805TIP3    H126358   3.618   3.814   6.202
 8805TIP3    H226359   3.599   3.675   6.143
 8806TIP3   OH226360   4.811   1.651   5.110
 8806TIP3    H126361   4.767   1.704   5.177
 8806TIP3    H226362   4.749   1.580   5.092
 8807TIP3   OH226363   6.528   1.439   5.792
 8807TIP3    H126364   6.436   1.463   5.803
 8807TIP3    H226365   6.550   1.466   5.702
 8808TIP3   OH226366   0.442   5.627   0.589
 8808TIP3    H126367   0.436   5.698   0.653
 8808TIP3    H226368   0.511   5.570   0.624
 8809TIP3   OH226369   5.167   5.909   2.412
 8809TIP3    H126370   5.180   5.820   2.379
 8809TIP3    H226371   5.249   5.930   2.457
 8810TIP3   OH226372   1.329   7.189   6.655
 8810TIP3    H126373   1.362   7.136   6.728
 8810TIP3    H226374   1.242   7.153   6.638
 8811TIP3   OH226375   6.348   0.120   2.214
 8811TIP3    H126376   6.252   0.113   2.211
 8811TIP3    H226377   6.377   0.034   2.246
 8812TIP3   OH226378   5.210   1.411   4.713
 8812TIP3    H126379   5.195   1.318   4.731
 8812TIP3    H226380   5.124   1.452   4.725
 8813TIP3   OH226381   3.124   2.666   6.141
 8813TIP3    H126382   3.082   2.581   6.132
 8813TIP3    H226383   3.108   2.709   6.057
 8814TIP3   OH226384   7.837   6.298   6.558
 8814TIP3    H126385   7.826   6.334   6.647
 8814TIP3    H226386   7.918   6.248   6.562
 8815TIP3   OH226387   4.447   5.300   0.968
 8815TIP3    H126388   4.374   5.313   1.029
 8815TIP3    H226389   4.498   5.381   0.974
 8816TIP3   OH226390   3.513   7.255   0.441
 8816TIP3    H126391   3.459   7.327   0.473
 8816TIP3    H226392   3.590   7.298   0.404
 8817TIP3   OH226393   7.453   1.508   3.765
 8817TIP3    H126394   7.517   1.510   3.694
 8817TIP3    H226395   7.502   1.539   3.842
 8818TIP3   OH226396   5.746   0.154   0.627
 8818TIP3    H126397   5.679   0.193   0.570
 8818TIP3    H226398   5.733   0.198   0.712
 8819TIP3   OH226399   5.254   3.697   4.723
 8819TIP3    H126400   5.223   3.677   4.812
 8819TIP3    H226401   5.177   3.683   4.668
 8820TIP3   OH226402   4.175   4.232   3.460
 8820TIP3    H126403   4.166   4.256   3.552
 8820TIP3    H226404   4.187   4.137   3.461
 8821TIP3   OH226405   1.155   7.230   0.502
 8821TIP3    H126406   1.180   7.284   0.427
 8821TIP3    H226407   1.078   7.273   0.537
 8822TIP3   OH226408   6.816   5.902   3.351
 8822TIP3    H126409   6.833   5.996   3.348
 8822TIP3    H226410   6.896   5.861   3.319
 8823TIP3   OH226411   1.862   3.832   0.991
 8823TIP3    H126412   1.801   3.860   0.922
 8823TIP3    H226413   1.819   3.759   1.035
 8824TIP3   OH226414   6.582   6.918   0.467
 8824TIP3    H126415   6.532   6.989   0.426
 8824TIP3    H226416   6.531   6.895   0.545
 8825TIP3   OH226417   6.539   0.908   6.752
 8825TIP3    H126418   6.582   0.947   6.676
 8825TIP3    H226419   6.509   0.822   6.721
 8826TIP3   OH226420   5.406   0.963   0.920
 8826TIP3    H126421   5.381   0.895   0.982
 8826TIP3    H226422   5.392   1.045   0.967
 8827TIP3   OH226423   1.638   5.424   2.186
 8827TIP3    H126424   1.605   5.513   2.192
 8827TIP3    H226425   1.567   5.375   2.144
 8828TIP3   OH226426   0.927   7.237   1.878
 8828TIP3    H126427   1.010   7.201   1.846
 8828TIP3    H226428   0.890   7.166   1.930
 8829TIP3   OH226429   7.114   2.225   2.538
 8829TIP3    H126430   7.124   2.269   2.454
 8829TIP3    H226431   7.058   2.149   2.518
 8830TIP3   OH226432   8.032   0.926   2.424
 8830TIP3    H126433   7.973   0.902   2.496
 8830TIP3    H226434   8.083   0.847   2.408
 8831TIP3   OH226435   6.693   5.817   1.206
 8831TIP3    H126436   6.679   5.911   1.210
 8831TIP3    H226437   6.718   5.792   1.295
 8832TIP3   OH226438   8.061   6.110   3.253
 8832TIP3    H126439   8.079   6.168   3.327
 8832TIP3    H226440   8.027   6.030   3.293
 8833TIP3   OH226441   3.007   0.531   6.579
 8833TIP3    H126442   2.973   0.531   6.668
 8833TIP3    H226443   3.094   0.494   6.586
 8834TIP3   OH226444   0.663   0.951   5.333
 8834TIP3    H126445   0.732   0.998   5.381
 8834TIP3    H226446   0.589   1.012   5.332
 8835TIP3   OH226447   0.069   3.307   2.743
 8835TIP3    H126448   0.002   3.369   2.771
 8835TIP3    H226449   0.094   3.260   2.822
 8836TIP3   OH226450   3.302   7.308   4.618
 8836TIP3    H126451   3.214   7.281   4.643
 8836TIP3    H226452   3.322   7.382   4.675
 8837TIP3   OH226453   0.821   4.810   4.050
 8837TIP3    H126454   0.796   4.874   4.117
 8837TIP3    H226455   0.808   4.725   4.093
 8838TIP3   OH226456   1.249   2.844   5.502
 8838TIP3    H126457   1.308   2.829   5.427
 8838TIP3    H226458   1.305   2.882   5.569
 8839TIP3   OH226459   6.170   5.111   4.291
 8839TIP3    H126460   6.112   5.185   4.311
 8839TIP3    H226461   6.111   5.042   4.262
 8840TIP3   OH226462   2.258   3.417   0.266
 8840TIP3    H126463   2.315   3.378   0.199
 8840TIP3    H226464   2.240   3.505   0.234
 8841TIP3   OH226465   5.974   0.389   2.470
 8841TIP3    H126466   5.996   0.327   2.539
 8841TIP3    H226467   5.899   0.350   2.424
 8842TIP3   OH226468   4.754   3.051   2.342
 8842TIP3    H126469   4.772   3.018   2.254
 8842TIP3    H226470   4.669   3.095   2.334
 8843TIP3   OH226471   2.980   0.697   1.528
 8843TIP3    H126472   2.953   0.710   1.437
 8843TIP3    H226473   3.053   0.636   1.522
 8844TIP3   OH226474   0.784   4.444   5.653
 8844TIP3    H126475   0.861   4.499   5.639
 8844TIP3    H226476   0.747   4.433   5.565
 8845TIP3   OH226477   0.394   2.138   0.719
 8845TIP3    H126478   0.459   2.187   0.770
 8845TIP3    H226479   0.403   2.048   0.750
 8846TIP3   OH226480   6.645   1.430   5.053
 8846TIP3    H126481   6.551   1.437   5.040
 8846TIP3    H226482   6.675   1.373   4.982
 8847TIP3   OH226483   0.130   6.080   0.748
 8847TIP3    H126484   0.184   6.155   0.774
 8847TIP3    H226485   0.191   6.020   0.705
 8848TIP3   OH226486   4.505   1.076   4.814
 8848TIP3    H126487   4.574   1.054   4.877
 8848TIP3    H226488   4.426   1.035   4.848
 8849TIP3   OH226489   7.095   7.461   5.449
 8849TIP3    H126490   7.055   7.400   5.387
 8849TIP3    H226491   7.082   7.420   5.534
 8850TIP3   OH226492   6.075   7.171   1.773
 8850TIP3    H126493   6.058   7.264   1.789
 8850TIP3    H226494   6.170   7.164   1.769
 8851TIP3   OH226495   1.517   1.120   6.538
 8851TIP3    H126496   1.440   1.066   6.557
 8851TIP3    H226497   1.592   1.062   6.551
 8852TIP3   OH226498   3.064   5.914   1.743
 8852TIP3    H126499   2.974   5.945   1.748
 8852TIP3    H226500   3.058   5.820   1.761
 8853TIP3   OH226501   3.760   2.719   5.724
 8853TIP3    H126502   3.760   2.644   5.664
 8853TIP3    H226503   3.693   2.696   5.789
 8854TIP3   OH226504   5.096   1.538   2.213
 8854TIP3    H126505   5.012   1.530   2.169
 8854TIP3    H226506   5.079   1.596   2.287
 8855TIP3   OH226507   0.215   4.166   2.757
 8855TIP3    H126508   0.135   4.167   2.809
 8855TIP3    H226509   0.277   4.114   2.808
 8856TIP3   OH226510   6.616   0.695   5.462
 8856TIP3    H126511   6.623   0.782   5.422
 8856TIP3    H226512   6.699   0.683   5.508
 8857TIP3   OH226513   2.220   7.178   6.380
 8857TIP3    H126514   2.264   7.223   6.452
 8857TIP3    H226515   2.137   7.148   6.417
 8858TIP3   OH226516   1.369   3.436   5.698
 8858TIP3    H126517   1.311   3.481   5.637
 8858TIP3    H226518   1.310   3.385   5.754
 8859TIP3   OH226519   5.026   6.195   3.078
 8859TIP3    H126520   4.996   6.250   3.005
 8859TIP3    H226521   5.109   6.235   3.105
 8860TIP3   OH226522   5.267   1.318   2.152
 8860TIP3    H126523   5.201   1.257   2.119
 8860TIP3    H226524   5.217   1.386   2.197
 8861TIP3   OH226525   6.155   2.446   0.163
 8861TIP3    H126526   6.154   2.503   0.086
 8861TIP3    H226527   6.069   2.403   0.163
 8862TIP3   OH226528   3.811   7.177   5.363
 8862TIP3    H126529   3.822   7.216   5.450
 8862TIP3    H226530   3.717   7.184   5.345
 8863TIP3   OH226531   1.643   2.007   2.984
 8863TIP3    H126532   1.604   1.927   2.949
 8863TIP3    H226533   1.628   2.073   2.916
 8864TIP3   OH226534   7.168   4.419   2.133
 8864TIP3    H126535   7.184   4.428   2.039
 8864TIP3    H226536   7.223   4.346   2.160
 8865TIP3   OH226537   7.780   4.724   6.234
 8865TIP3    H126538   7.850   4.666   6.263
 8865TIP3    H226539   7.825   4.803   6.205
 8866TIP3   OH226540   7.237   0.419   0.395
 8866TIP3    H126541   7.328   0.448   0.407
 8866TIP3    H226542   7.192   0.449   0.474
 8867TIP3   OH226543   2.492   4.577   3.045
 8867TIP3    H126544   2.568   4.520   3.054
 8867TIP3    H226545   2.425   4.537   3.101
 8868TIP3   OH226546   4.673   1.406   5.113
 8868TIP3    H126547   4.711   1.340   5.054
 8868TIP3    H226548   4.579   1.401   5.096
 8869TIP3   OH226549   0.772   6.558   0.401
 8869TIP3    H126550   0.714   6.481   0.393
 8869TIP3    H226551   0.715   6.633   0.382
 8870TIP3   OH226552   7.718   1.551   0.106
 8870TIP3    H126553   7.743   1.635   0.144
 8870TIP3    H226554   7.726   1.564   0.012
 8871TIP3   OH226555   5.371   3.295   4.789
 8871TIP3    H126556   5.345   3.213   4.831
 8871TIP3    H226557   5.427   3.267   4.716
 8872TIP3   OH226558   4.832   6.372   6.188
 8872TIP3    H126559   4.786   6.385   6.105
 8872TIP3    H226560   4.922   6.353   6.163
 8873TIP3   OH226561   2.497   5.303   5.200
 8873TIP3    H126562   2.402   5.314   5.205
 8873TIP3    H226563   2.513   5.215   5.235
 8874TIP3   OH226564   2.537   1.531   2.957
 8874TIP3    H126565   2.538   1.540   3.053
 8874TIP3    H226566   2.544   1.620   2.925
 8875TIP3   OH226567   5.661   2.558   1.181
 8875TIP3    H126568   5.693   2.497   1.248
 8875TIP3    H226569   5.639   2.637   1.230
 8876TIP3   OH226570   1.135   2.795   1.584
 8876TIP3    H126571   1.061   2.804   1.524
 8876TIP3    H226572   1.212   2.794   1.526
 8877TIP3   OH226573   4.006   4.928   1.311
 8877TIP3    H126574   3.948   4.949   1.384
 8877TIP3    H226575   4.070   4.868   1.348
 8878TIP3   OH226576   3.339   0.143   6.376
 8878TIP3    H126577   3.310   0.137   6.285
 8878TIP3    H226578   3.430   0.114   6.374
 8879TIP3   OH226579   7.656   7.735   3.643
 8879TIP3    H126580   7.663   7.786   3.723
 8879TIP3    H226581   7.746   7.724   3.613
 8880TIP3   OH226582   3.469   2.186   1.466
 8880TIP3    H126583   3.385   2.140   1.469
 8880TIP3    H226584   3.449   2.270   1.425
 8881TIP3   OH226585   3.067   3.069   4.337
 8881TIP3    H126586   3.089   2.997   4.396
 8881TIP3    H226587   2.985   3.042   4.296
 8882TIP3   OH226588   3.677   6.159   1.150
 8882TIP3    H126589   3.727   6.206   1.217
 8882TIP3    H226590   3.709   6.069   1.156
 8883TIP3   OH226591   2.417   7.122   3.476
 8883TIP3    H126592   2.459   7.137   3.560
 8883TIP3    H226593   2.370   7.039   3.486
 8884TIP3   OH226594   5.562   2.926   1.610
 8884TIP3    H126595   5.511   3.006   1.618
 8884TIP3    H226596   5.635   2.950   1.552
 8885TIP3   OH226597   3.434   6.525   0.889
 8885TIP3    H126598   3.372   6.544   0.819
 8885TIP3    H226599   3.432   6.429   0.897
 8886TIP3   OH226600   7.222   6.964   3.158
 8886TIP3    H126601   7.171   6.930   3.232
 8886TIP3    H226602   7.263   6.886   3.120
 8887TIP3   OH226603   4.699   3.959   6.205
 8887TIP3    H126604   4.678   4.032   6.147
 8887TIP3    H226605   4.782   3.983   6.245
 8888TIP3   OH226606   1.327   5.939   1.645
 8888TIP3    H126607   1.278   5.861   1.621
 8888TIP3    H226608   1.261   6.000   1.679
 8889TIP3   OH226609   7.748   3.412   1.257
 8889TIP3    H126610   7.818   3.475   1.273
 8889TIP3    H226611   7.704   3.403   1.342
 8890TIP3   OH226612   3.753   7.125   5.712
 8890TIP3    H126613   3.660   7.107   5.725
 8890TIP3    H226614   3.756   7.215   5.679
 8891TIP3   OH226615   2.807   7.584   6.753
 8891TIP3    H126616   2.849   7.533   6.823
 8891TIP3    H226617   2.879   7.622   6.704
 8892TIP3   OH226618   7.242   0.844   3.882
 8892TIP3    H126619   7.205   0.883   3.962
 8892TIP3    H226620   7.236   0.914   3.817
 8893TIP3   OH226621   4.177   4.043   5.716
 8893TIP3    H126622   4.104   3.999   5.759
 8893TIP3    H226623   4.146   4.060   5.627
 8894TIP3   OH226624   4.124   7.615   0.960
 8894TIP3    H126625   4.165   7.540   0.915
 8894TIP3    H226626   4.194   7.680   0.966
 8895TIP3   OH226627   4.991   4.982   2.410
 8895TIP3    H126628   4.896   4.982   2.417
 8895TIP3    H226629   5.018   4.898   2.449
 8896TIP3   OH226630   6.121   3.397   5.124
 8896TIP3    H126631   6.123   3.331   5.055
 8896TIP3    H226632   6.212   3.404   5.154
 8897TIP3   OH226633   4.080   4.096   2.819
 8897TIP3    H126634   4.087   4.174   2.764
 8897TIP3    H226635   3.987   4.075   2.819
 8898TIP3   OH226636   2.694   4.497   4.109
 8898TIP3    H126637   2.762   4.564   4.119
 8898TIP3    H226638   2.693   4.451   4.193
 8899TIP3   OH226639   3.206   3.968   2.624
 8899TIP3    H126640   3.133   3.991   2.568
 8899TIP3    H226641   3.272   3.931   2.564
 8900TIP3   OH226642   0.684   5.239   2.479
 8900TIP3    H126643   0.621   5.181   2.522
 8900TIP3    H226644   0.655   5.327   2.502
 8901TIP3   OH226645   7.471   6.002   3.326
 8901TIP3    H126646   7.561   6.032   3.329
 8901TIP3    H226647   7.461   5.947   3.404
 8902TIP3   OH226648   6.408   1.522   4.309
 8902TIP3    H126649   6.359   1.604   4.310
 8902TIP3    H226650   6.354   1.463   4.255
 8903TIP3   OH226651   2.970   6.678   6.488
 8903TIP3    H126652   2.917   6.603   6.460
 8903TIP3    H226653   2.975   6.734   6.411
 8904TIP3   OH226654   1.841   2.940   0.150
 8904TIP3    H126655   1.776   3.011   0.156
 8904TIP3    H226656   1.901   2.957   0.222
 8905TIP3   OH226657   0.724   1.336   2.992
 8905TIP3    H126658   0.818   1.350   3.002
 8905TIP3    H226659   0.716   1.245   2.961
 8906TIP3   OH226660   7.440   4.181   1.503
 8906TIP3    H126661   7.402   4.097   1.480
 8906TIP3    H226662   7.390   4.245   1.452
 8907TIP3   OH226663   1.790   1.500   4.669
 8907TIP3    H126664   1.837   1.444   4.607
 8907TIP3    H226665   1.844   1.497   4.749
 8908TIP3   OH226666   7.304   3.226   5.851
 8908TIP3    H126667   7.281   3.287   5.781
 8908TIP3    H226668   7.317   3.282   5.928
 8909TIP3   OH226669   7.309   1.739   1.517
 8909TIP3    H126670   7.267   1.654   1.511
 8909TIP3    H226671   7.237   1.802   1.515
 8910TIP3   OH226672   2.552   0.217   5.554
 8910TIP3    H126673   2.614   0.278   5.594
 8910TIP3    H226674   2.591   0.131   5.567
 8911TIP3   OH226675   2.232   2.427   1.930
 8911TIP3    H126676   2.271   2.349   1.890
 8911TIP3    H226677   2.299   2.461   1.989
 8912TIP3   OH226678   7.839   0.871   5.769
 8912TIP3    H126679   7.845   0.833   5.857
 8912TIP3    H226680   7.747   0.896   5.760
 8913TIP3   OH226681   2.709   6.512   6.322
 8913TIP3    H126682   2.728   6.574   6.251
 8913TIP3    H226683   2.640   6.457   6.287
 8914TIP3   OH226684   2.575   6.454   1.481
 8914TIP3    H126685   2.508   6.388   1.462
 8914TIP3    H226686   2.528   6.522   1.529
 8915TIP3   OH226687   3.327   3.341   5.701
 8915TIP3    H126688   3.339   3.306   5.789
 8915TIP3    H226689   3.263   3.411   5.710
 8916TIP3   OH226690   5.367   1.367   4.322
 8916TIP3    H126691   5.400   1.287   4.363
 8916TIP3    H226692   5.391   1.437   4.382
 8917TIP3   OH226693   3.437   3.020   0.564
 8917TIP3    H126694   3.375   2.989   0.630
 8917TIP3    H226695   3.512   2.961   0.572
 8918TIP3   OH226696   4.373   0.556   3.626
 8918TIP3    H126697   4.376   0.471   3.582
 8918TIP3    H226698   4.302   0.548   3.690
 8919TIP3   OH226699   5.683   4.516   4.089
 8919TIP3    H126700   5.725   4.444   4.136
 8919TIP3    H226701   5.756   4.568   4.056
 8920TIP3   OH226702   7.712   2.263   0.345
 8920TIP3    H126703   7.772   2.336   0.331
 8920TIP3    H226704   7.764   2.197   0.390
 8921TIP3   OH226705   7.795   6.232   5.514
 8921TIP3    H126706   7.769   6.212   5.605
 8921TIP3    H226707   7.778   6.325   5.504
 8922TIP3   OH226708   5.125   1.649   6.709
 8922TIP3    H126709   5.137   1.606   6.625
 8922TIP3    H226710   5.204   1.704   6.719
 8923TIP3   OH226711   0.681   7.485   2.580
 8923TIP3    H126712   0.772   7.504   2.601
 8923TIP3    H226713   0.680   7.478   2.484
 8924TIP3   OH226714   5.677   1.734   3.211
 8924TIP3    H126715   5.665   1.727   3.116
 8924TIP3    H226716   5.658   1.646   3.244
 8925TIP3   OH226717   2.754   6.981   0.580
 8925TIP3    H126718   2.750   7.041   0.654
 8925TIP3    H226719   2.741   7.036   0.503
 8926TIP3   OH226720   5.556   1.040   4.071
 8926TIP3    H126721   5.574   1.104   4.002
 8926TIP3    H226722   5.643   1.016   4.104
 8927TIP3   OH226723   3.168   2.180   0.138
 8927TIP3    H126724   3.255   2.218   0.141
 8927TIP3    H226725   3.118   2.230   0.203
 8928TIP3   OH226726   5.374   3.404   0.101
 8928TIP3    H126727   5.450   3.345   0.098
 8928TIP3    H226728   5.412   3.492   0.098
 8929TIP3   OH226729   0.307   2.431   4.917
 8929TIP3    H126730   0.272   2.343   4.902
 8929TIP3    H226731   0.393   2.430   4.875
 8930TIP3   OH226732   6.705   0.181   4.282
 8930TIP3    H126733   6.778   0.220   4.233
 8930TIP3    H226734   6.734   0.093   4.303
 8931TIP3   OH226735   3.283   6.761   1.655
 8931TIP3    H126736   3.320   6.848   1.672
 8931TIP3    H226737   3.270   6.723   1.742
 8932TIP3   OH226738   6.691   1.500   1.853
 8932TIP3    H126739   6.769   1.490   1.798
 8932TIP3    H226740   6.633   1.429   1.826
 8933TIP3   OH226741   1.090   4.081   2.721
 8933TIP3    H126742   1.033   4.027   2.666
 8933TIP3    H226743   1.079   4.046   2.809
 8934TIP3   OH226744   3.028   3.142   5.119
 8934TIP3    H126745   3.030   3.221   5.173
 8934TIP3    H226746   3.102   3.152   5.060
 8935TIP3   OH226747   3.177   7.358   0.382
 8935TIP3    H126748   3.253   7.381   0.436
 8935TIP3    H226749   3.126   7.299   0.437
 8936TIP3   OH226750   6.816   2.087   5.164
 8936TIP3    H126751   6.796   2.087   5.070
 8936TIP3    H226752   6.877   2.159   5.175
 8937TIP3   OH226753   1.101   5.594   2.994
 8937TIP3    H126754   1.049   5.557   2.923
 8937TIP3    H226755   1.052   5.671   3.022
 8938TIP3   OH226756   3.980   6.499   5.595
 8938TIP3    H126757   3.996   6.409   5.567
 8938TIP3    H226758   4.055   6.521   5.651
 8939TIP3   OH226759   4.849   1.989   5.047
 8939TIP3    H126760   4.826   1.912   5.099
 8939TIP3    H226761   4.937   2.013   5.078
 8940TIP3   OH226762   4.863   7.284   0.744
 8940TIP3    H126763   4.797   7.271   0.812
 8940TIP3    H226764   4.944   7.300   0.793
 8941TIP3   OH226765   1.926   2.695   2.961
 8941TIP3    H126766   1.899   2.606   2.981
 8941TIP3    H226767   1.970   2.725   3.040
 8942TIP3   OH226768   2.295   2.591   0.636
 8942TIP3    H126769   2.289   2.672   0.585
 8942TIP3    H226770   2.345   2.531   0.580
 8943TIP3   OH226771   3.611   6.488   1.546
 8943TIP3    H126772   3.565   6.455   1.469
 8943TIP3    H226773   3.648   6.410   1.587
 8944TIP3   OH226774   4.285   3.571   0.552
 8944TIP3    H126775   4.287   3.531   0.465
 8944TIP3    H226776   4.249   3.659   0.537
 8945TIP3   OH226777   0.641   2.576   2.307
 8945TIP3    H126778   0.599   2.563   2.222
 8945TIP3    H226779   0.693   2.498   2.321
 8946TIP3   OH226780   4.067   5.486   0.708
 8946TIP3    H126781   4.114   5.541   0.645
 8946TIP3    H226782   4.026   5.418   0.654
 8947TIP3   OH226783   0.215   3.915   4.207
 8947TIP3    H126784   0.257   3.920   4.293
 8947TIP3    H226785   0.288   3.926   4.145
 8948TIP3   OH226786   5.578   7.320   3.412
 8948TIP3    H126787   5.603   7.410   3.431
 8948TIP3    H226788   5.519   7.296   3.484
 8949TIP3   OH226789   7.419   6.991   4.736
 8949TIP3    H126790   7.412   6.952   4.823
 8949TIP3    H226791   7.399   6.919   4.676
 8950TIP3   OH226792   2.126   1.431   1.476
 8950TIP3    H126793   2.217   1.441   1.448
 8950TIP3    H226794   2.098   1.520   1.498
 8951TIP3   OH226795   3.226   7.771   2.090
 8951TIP3    H126796   3.253   7.851   2.134
 8951TIP3    H226797   3.299   7.749   2.032
 8952TIP3   OH226798   6.545   6.104   6.105
 8952TIP3    H126799   6.516   6.132   6.192
 8952TIP3    H226800   6.627   6.151   6.092
 8953TIP3   OH226801   2.494   7.301   1.490
 8953TIP3    H126802   2.466   7.378   1.540
 8953TIP3    H226803   2.575   7.329   1.447
 8954TIP3   OH226804   7.287   7.291   3.125
 8954TIP3    H126805   7.378   7.299   3.098
 8954TIP3    H226806   7.248   7.231   3.061
 8955TIP3   OH226807   1.859   6.892   5.290
 8955TIP3    H126808   1.909   6.972   5.278
 8955TIP3    H226809   1.920   6.822   5.267
 8956TIP3   OH226810   6.015   7.328   4.732
 8956TIP3    H126811   6.002   7.416   4.767
 8956TIP3    H226812   6.031   7.342   4.638
 8957TIP3   OH226813   2.274   4.342   6.631
 8957TIP3    H126814   2.214   4.381   6.694
 8957TIP3    H226815   2.358   4.340   6.676
 8958TIP3   OH226816   1.123   1.821   0.200
 8958TIP3    H126817   1.076   1.867   0.131
 8958TIP3    H226818   1.215   1.822   0.171
 8959TIP3   OH226819   3.673   4.254   4.549
 8959TIP3    H126820   3.672   4.326   4.612
 8959TIP3    H226821   3.766   4.237   4.534
 8960TIP3   OH226822   4.265   4.206   6.198
 8960TIP3    H126823   4.270   4.272   6.129
 8960TIP3    H226824   4.345   4.154   6.188
 8961TIP3   OH226825   3.978   6.478   4.806
 8961TIP3    H126826   4.056   6.533   4.806
 8961TIP3    H226827   3.965   6.454   4.715
 8962TIP3   OH226828   0.444   4.382   1.242
 8962TIP3    H126829   0.393   4.393   1.162
 8962TIP3    H226830   0.532   4.413   1.219
 8963TIP3   OH226831   0.647   7.044   0.261
 8963TIP3    H126832   0.727   7.058   0.312
 8963TIP3    H226833   0.678   7.018   0.174
 8964TIP3   OH226834   5.451   4.540   5.053
 8964TIP3    H126835   5.379   4.477   5.049
 8964TIP3    H226836   5.530   4.486   5.048
 8965TIP3   OH226837   0.991   4.758   6.546
 8965TIP3    H126838   0.999   4.806   6.629
 8965TIP3    H226839   0.897   4.746   6.534
 8966TIP3   OH226840   8.089   3.164   1.747
 8966TIP3    H126841   8.024   3.231   1.725
 8966TIP3    H226842   8.088   3.105   1.672
 8967TIP3   OH226843   6.246   7.179   0.973
 8967TIP3    H126844   6.330   7.169   1.017
 8967TIP3    H226845   6.203   7.251   1.020
 8968TIP3   OH226846   8.266   6.975   0.849
 8968TIP3    H126847   8.189   6.922   0.830
 8968TIP3    H226848   8.299   6.940   0.932
 8969TIP3   OH226849   6.459   6.905   3.059
 8969TIP3    H126850   6.475   6.891   2.965
 8969TIP3    H226851   6.432   6.819   3.091
 8970TIP3   OH226852   1.188   4.071   4.946
 8970TIP3    H126853   1.240   4.123   4.884
 8970TIP3    H226854   1.097   4.083   4.917
 8971TIP3   OH226855   7.903   3.612   4.726
 8971TIP3    H126856   7.822   3.570   4.758
 8971TIP3    H226857   7.943   3.650   4.804
 8972TIP3   OH226858   3.976   4.842   4.796
 8972TIP3    H126859   3.889   4.881   4.782
 8972TIP3    H226860   3.966   4.790   4.875
 8973TIP3   OH226861   0.779   6.759   5.272
 8973TIP3    H126862   0.714   6.775   5.341
 8973TIP3    H226863   0.749   6.680   5.228
 8974TIP3   OH226864   4.783   7.197   2.150
 8974TIP3    H126865   4.689   7.208   2.165
 8974TIP3    H226866   4.825   7.246   2.221
 8975TIP3   OH226867   4.773   0.895   5.697
 8975TIP3    H126868   4.739   0.877   5.610
 8975TIP3    H226869   4.777   0.991   5.702
 8976TIP3   OH226870   4.394   0.150   5.525
 8976TIP3    H126871   4.352   0.210   5.463
 8976TIP3    H226872   4.458   0.102   5.473
 8977TIP3   OH226873   5.686   4.243   1.136
 8977TIP3    H126874   5.646   4.157   1.130
 8977TIP3    H226875   5.703   4.255   1.230
 8978TIP3   OH226876   4.512   1.829   1.615
 8978TIP3    H126877   4.595   1.832   1.567
 8978TIP3    H226878   4.454   1.887   1.567
 8979TIP3   OH226879   0.300   0.544   6.416
 8979TIP3    H126880   0.266   0.501   6.337
 8979TIP3    H226881   0.342   0.624   6.383
 8980TIP3   OH226882   7.017   2.134   2.817
 8980TIP3    H126883   7.012   2.113   2.723
 8980TIP3    H226884   6.941   2.190   2.833
 8981TIP3   OH226885   5.410   4.145   2.724
 8981TIP3    H126886   5.315   4.159   2.723
 8981TIP3    H226887   5.428   4.098   2.643
 8982TIP3   OH226888   0.610   0.487   0.755
 8982TIP3    H126889   0.618   0.565   0.809
 8982TIP3    H226890   0.615   0.520   0.665
 8983TIP3   OH226891   2.805   2.045   5.702
 8983TIP3    H126892   2.805   1.999   5.618
 8983TIP3    H226893   2.752   1.989   5.760
 8984TIP3   OH226894   7.982   5.841   1.671
 8984TIP3    H126895   8.006   5.931   1.650
 8984TIP3    H226896   8.053   5.809   1.727
 8985TIP3   OH226897   1.479   1.597   1.393
 8985TIP3    H126898   1.554   1.539   1.407
 8985TIP3    H226899   1.485   1.663   1.462
 8986TIP3   OH226900   6.364   6.594   4.789
 8986TIP3    H126901   6.362   6.674   4.736
 8986TIP3    H226902   6.394   6.623   4.875
 8987TIP3   OH226903   4.825   1.855   6.332
 8987TIP3    H126904   4.905   1.811   6.303
 8987TIP3    H226905   4.807   1.817   6.418
 8988TIP3   OH226906   4.440   1.361   5.009
 8988TIP3    H126907   4.382   1.294   4.972
 8988TIP3    H226908   4.413   1.442   4.966
 8989TIP3   OH226909   2.089   3.926   5.515
 8989TIP3    H126910   1.994   3.924   5.526
 8989TIP3    H226911   2.122   3.872   5.586
 8990TIP3   OH226912   2.038   3.577   1.422
 8990TIP3    H126913   2.072   3.576   1.333
 8990TIP3    H226914   1.954   3.622   1.415
 8991TIP3   OH226915   1.705   1.105   1.030
 8991TIP3    H126916   1.766   1.031   1.029
 8991TIP3    H226917   1.663   1.102   0.944
 8992TIP3   OH226918   7.414   3.513   4.244
 8992TIP3    H126919   7.319   3.508   4.235
 8992TIP3    H226920   7.441   3.573   4.174
 8993TIP3   OH226921   3.316   7.168   3.665
 8993TIP3    H126922   3.311   7.219   3.584
 8993TIP3    H226923   3.363   7.088   3.641
 8994TIP3   OH226924   0.413   2.596   3.622
 8994TIP3    H126925   0.486   2.615   3.563
 8994TIP3    H226926   0.337   2.637   3.581
 8995TIP3   OH226927   1.618   0.613   6.161
 8995TIP3    H126928   1.561   0.629   6.236
 8995TIP3    H226929   1.559   0.597   6.088
 8996TIP3   OH226930   4.414   2.208   2.665
 8996TIP3    H126931   4.364   2.127   2.663
 8996TIP3    H226932   4.414   2.239   2.575
 8997TIP3   OH226933   5.749   4.154   2.537
 8997TIP3    H126934   5.801   4.164   2.617
 8997TIP3    H226935   5.790   4.214   2.474
 8998TIP3   OH226936   1.303   1.371   4.177
 8998TIP3    H126937   1.275   1.333   4.260
 8998TIP3    H226938   1.243   1.443   4.161
 8999TIP3   OH226939   4.837   0.797   3.558
 8999TIP3    H126940   4.742   0.790   3.573
 8999TIP3    H226941   4.847   0.877   3.506
 9000TIP3   OH226942   5.153   5.532   4.048
 9000TIP3    H126943   5.078   5.478   4.071
 9000TIP3    H226944   5.220   5.469   4.019
 9001TIP3   OH226945   6.737   4.273   6.265
 9001TIP3    H126946   6.649   4.303   6.285
 9001TIP3    H226947   6.732   4.177   6.273
 9002TIP3   OH226948   0.338   6.400   6.584
 9002TIP3    H126949   0.285   6.322   6.598
 9002TIP3    H226950   0.280   6.473   6.605
 9003TIP3   OH226951   8.211   6.666   0.881
 9003TIP3    H126952   8.287   6.662   0.824
 9003TIP3    H226953   8.150   6.601   0.845
 9004TIP3   OH226954   4.826   0.862   4.661
 9004TIP3    H126955   4.882   0.898   4.593
 9004TIP3    H226956   4.742   0.907   4.650
 9005TIP3   OH226957   5.023   3.988   5.038
 9005TIP3    H126958   4.941   3.999   5.087
 9005TIP3    H226959   5.022   3.897   5.010
 9006TIP3   OH226960   5.004   4.721   2.515
 9006TIP3    H126961   4.922   4.721   2.466
 9006TIP3    H226962   4.997   4.646   2.574
 9007TIP3   OH226963   6.794   0.428   6.484
 9007TIP3    H126964   6.703   0.453   6.500
 9007TIP3    H226965   6.840   0.454   6.563
 9008TIP3   OH226966   3.688   5.465   4.902
 9008TIP3    H126967   3.778   5.495   4.888
 9008TIP3    H226968   3.647   5.474   4.816
 9009TIP3   OH226969   6.838   4.256   2.521
 9009TIP3    H126970   6.914   4.281   2.467
 9009TIP3    H226971   6.823   4.333   2.576
 9010TIP3   OH226972   1.379   6.069   4.436
 9010TIP3    H126973   1.344   6.045   4.350
 9010TIP3    H226974   1.324   6.021   4.498
 9011TIP3   OH226975   2.402   2.284   4.858
 9011TIP3    H126976   2.342   2.354   4.884
 9011TIP3    H226977   2.382   2.213   4.918
 9012TIP3   OH226978   0.463   2.905   5.258
 9012TIP3    H126979   0.447   2.923   5.165
 9012TIP3    H226980   0.522   2.830   5.258
 9013TIP3   OH226981   5.486   3.548   2.365
 9013TIP3    H126982   5.423   3.487   2.327
 9013TIP3    H226983   5.489   3.621   2.303
 9014TIP3   OH226984   3.124   3.327   4.310
 9014TIP3    H126985   3.085   3.241   4.324
 9014TIP3    H226986   3.084   3.358   4.228
 9015TIP3   OH226987   1.949   4.977   3.661
 9015TIP3    H126988   2.019   4.938   3.712
 9015TIP3    H226989   1.882   5.001   3.725
 9016TIP3   OH226990   3.383   1.669   1.373
 9016TIP3    H126991   3.402   1.598   1.434
 9016TIP3    H226992   3.464   1.719   1.368
 9017TIP3   OH226993   2.873   5.593   5.562
 9017TIP3    H126994   2.884   5.669   5.618
 9017TIP3    H226995   2.783   5.564   5.576
 9018TIP3   OH226996   3.954   6.871   1.101
 9018TIP3    H126997   3.992   6.940   1.155
 9018TIP3    H226998   3.861   6.894   1.093
 9019TIP3   OH226999   3.186   4.866   5.574
 9019TIP3    H127000   3.119   4.838   5.513
 9019TIP3    H227001   3.215   4.786   5.617
 9020TIP3   OH227002   2.442   1.584   5.261
 9020TIP3    H127003   2.453   1.529   5.338
 9020TIP3    H227004   2.494   1.542   5.194
 9021TIP3   OH227005   0.046   1.426   1.561
 9021TIP3    H127006   0.125   1.479   1.559
 9021TIP3    H227007  -0.021   1.483   1.599
 9022TIP3   OH227008   2.203   6.675   6.514
 9022TIP3    H127009   2.249   6.757   6.496
 9022TIP3    H227010   2.206   6.627   6.431
 9023TIP3   OH227011   0.584   5.150   3.912
 9023TIP3    H127012   0.601   5.159   3.818
 9023TIP3    H227013   0.547   5.235   3.937
 9024TIP3   OH227014   0.434   7.827   1.609
 9024TIP3    H127015   0.341   7.834   1.589
 9024TIP3    H227016   0.477   7.821   1.523
 9025TIP3   OH227017   3.870   0.637   6.162
 9025TIP3    H127018   3.912   0.568   6.213
 9025TIP3    H227019   3.842   0.594   6.081
 9026TIP3   OH227020   3.197   4.217   1.349
 9026TIP3    H127021   3.242   4.152   1.403
 9026TIP3    H227022   3.213   4.300   1.394
 9027TIP3   OH227023   4.592   1.034   2.507
 9027TIP3    H127024   4.589   1.042   2.412
 9027TIP3    H227025   4.516   1.084   2.538
 9028TIP3   OH227026   3.441   3.401   3.670
 9028TIP3    H127027   3.503   3.329   3.679
 9028TIP3    H227028   3.412   3.419   3.760
 9029TIP3   OH227029   4.871   5.219   4.233
 9029TIP3    H127030   4.847   5.172   4.313
 9029TIP3    H227031   4.847   5.159   4.162
 9030TIP3   OH227032   3.484   5.974   6.006
 9030TIP3    H127033   3.467   5.893   5.958
 9030TIP3    H227034   3.465   5.952   6.097
 9031TIP3   OH227035   4.806   4.130   4.290
 9031TIP3    H127036   4.834   4.191   4.221
 9031TIP3    H227037   4.714   4.152   4.305
 9032TIP3   OH227038   4.353   0.905   4.189
 9032TIP3    H127039   4.371   0.851   4.266
 9032TIP3    H227040   4.326   0.843   4.121
 9033TIP3   OH227041   1.337   3.031   1.835
 9033TIP3    H127042   1.326   3.021   1.929
 9033TIP3    H227043   1.264   3.087   1.808
 9034TIP3   OH227044   1.181   2.935   0.903
 9034TIP3    H127045   1.105   2.965   0.853
 9034TIP3    H227046   1.164   2.964   0.993
 9035TIP3   OH227047   6.903   3.999   5.064
 9035TIP3    H127048   6.944   3.917   5.035
 9035TIP3    H227049   6.838   4.018   4.998
 9036TIP3   OH227050   2.924   5.891   4.209
 9036TIP3    H127051   2.860   5.845   4.264
 9036TIP3    H227052   2.872   5.956   4.161
 9037TIP3   OH227053   4.912   5.880   4.377
 9037TIP3    H127054   4.972   5.838   4.316
 9037TIP3    H227055   4.905   5.818   4.450
 9038TIP3   OH227056   4.983   2.175   1.434
 9038TIP3    H127057   4.968   2.260   1.475
 9038TIP3    H227058   5.046   2.131   1.491
 9039TIP3   OH227059   6.817   1.189   5.532
 9039TIP3    H127060   6.775   1.210   5.616
 9039TIP3    H227061   6.759   1.229   5.467
 9040TIP3   OH227062   2.246   0.046   1.464
 9040TIP3    H127063   2.233  -0.046   1.442
 9040TIP3    H227064   2.166   0.071   1.510
 9041TIP3   OH227065   3.897   6.572   2.780
 9041TIP3    H127066   3.910   6.665   2.798
 9041TIP3    H227067   3.944   6.527   2.851
 9042TIP3   OH227068   3.557   4.108   0.937
 9042TIP3    H127069   3.533   4.016   0.929
 9042TIP3    H227070   3.550   4.126   1.031
 9043TIP3   OH227071   3.135   3.476   3.674
 9043TIP3    H127072   3.082   3.556   3.668
 9043TIP3    H227073   3.202   3.487   3.607
 9044TIP3   OH227074   6.785   3.367   6.485
 9044TIP3    H127075   6.875   3.344   6.460
 9044TIP3    H227076   6.732   3.295   6.452
 9045TIP3   OH227077   1.025   6.486   3.316
 9045TIP3    H127078   0.971   6.487   3.395
 9045TIP3    H227079   1.103   6.538   3.338
 9046TIP3   OH227080   4.057   2.345   0.675
 9046TIP3    H127081   4.055   2.438   0.700
 9046TIP3    H227082   3.978   2.308   0.714
 9047TIP3   OH227083   4.342   4.083   0.347
 9047TIP3    H127084   4.281   4.125   0.407
 9047TIP3    H227085   4.409   4.045   0.404
 9048TIP3   OH227086   1.115   7.302   5.125
 9048TIP3    H127087   1.102   7.391   5.157
 9048TIP3    H227088   1.189   7.308   5.065
 9049TIP3   OH227089   4.647   2.400   1.696
 9049TIP3    H127090   4.713   2.403   1.627
 9049TIP3    H227091   4.614   2.310   1.693
 9050TIP3   OH227092   2.259   5.691   2.835
 9050TIP3    H127093   2.222   5.689   2.923
 9050TIP3    H227094   2.189   5.655   2.780
 9051TIP3   OH227095   2.492   5.628   2.701
 9051TIP3    H127096   2.419   5.676   2.740
 9051TIP3    H227097   2.570   5.671   2.736
 9052TIP3   OH227098   1.294   1.667   3.002
 9052TIP3    H127099   1.346   1.746   3.018
 9052TIP3    H227100   1.304   1.616   3.082
 9053TIP3   OH227101   3.993   5.034   4.414
 9053TIP3    H127102   4.012   5.110   4.468
 9053TIP3    H227103   3.924   4.987   4.461
 9054TIP3   OH227104   2.184   5.508   2.632
 9054TIP3    H127105   2.277   5.487   2.645
 9054TIP3    H227106   2.183   5.564   2.555
 9055TIP3   OH227107   8.252   1.275   5.080
 9055TIP3    H127108   8.308   1.337   5.034
 9055TIP3    H227109   8.269   1.291   5.173
 9056TIP3   OH227110   2.460   5.724   3.457
 9056TIP3    H127111   2.400   5.717   3.531
 9056TIP3    H227112   2.404   5.716   3.379
 9057TIP3   OH227113   2.640   4.624   0.391
 9057TIP3    H127114   2.735   4.616   0.394
 9057TIP3    H227115   2.621   4.658   0.304
 9058TIP3   OH227116   3.886   2.245   4.250
 9058TIP3    H127117   3.830   2.280   4.319
 9058TIP3    H227118   3.902   2.320   4.192
 9059TIP3   OH227119   1.241   4.898   0.151
 9059TIP3    H127120   1.256   4.992   0.142
 9059TIP3    H227121   1.162   4.881   0.100
 9060TIP3   OH227122   4.372   6.103   3.005
 9060TIP3    H127123   4.442   6.122   2.943
 9060TIP3    H227124   4.294   6.090   2.951
 9061TIP3   OH227125   7.752   4.463   4.537
 9061TIP3    H127126   7.752   4.442   4.630
 9061TIP3    H227127   7.761   4.378   4.493
 9062TIP3   OH227128   3.222   1.092   1.770
 9062TIP3    H127129   3.280   1.140   1.710
 9062TIP3    H227130   3.210   1.151   1.844
 9063TIP3   OH227131   1.957   3.132   2.138
 9063TIP3    H127132   2.004   3.059   2.098
 9063TIP3    H227133   2.022   3.202   2.144
 9064TIP3   OH227134   3.347   4.670   2.822
 9064TIP3    H127135   3.433   4.629   2.813
 9064TIP3    H227136   3.287   4.608   2.782
 9065TIP3   OH227137   3.731   0.278   3.897
 9065TIP3    H127138   3.639   0.302   3.885
 9065TIP3    H227139   3.778   0.361   3.891
 9066TIP3   OH227140   5.496   0.563   3.290
 9066TIP3    H127141   5.438   0.548   3.215
 9066TIP3    H227142   5.471   0.495   3.353
 9067TIP3   OH227143   1.555   0.719   0.160
 9067TIP3    H127144   1.510   0.798   0.129
 9067TIP3    H227145   1.570   0.667   0.081
 9068TIP3   OH227146   0.152   6.320   3.725
 9068TIP3    H127147   0.197   6.257   3.669
 9068TIP3    H227148   0.142   6.275   3.809
 9069TIP3   OH227149   0.643   6.295   0.415
 9069TIP3    H127150   0.585   6.221   0.436
 9069TIP3    H227151   0.677   6.274   0.328
 9070TIP3   OH227152   3.568   1.583   1.123
 9070TIP3    H127153   3.579   1.530   1.202
 9070TIP3    H227154   3.634   1.651   1.130
 9071TIP3   OH227155   4.507   4.925   2.101
 9071TIP3    H127156   4.549   4.972   2.173
 9071TIP3    H227157   4.419   4.961   2.098
 9072TIP3   OH227158   5.092   4.177   2.715
 9072TIP3    H127159   5.033   4.125   2.660
 9072TIP3    H227160   5.078   4.267   2.688
 9073TIP3   OH227161   8.040   7.378   3.364
 9073TIP3    H127162   7.946   7.391   3.356
 9073TIP3    H227163   8.051   7.284   3.378
 9074TIP3   OH227164   2.412   3.823   0.878
 9074TIP3    H127165   2.340   3.774   0.838
 9074TIP3    H227166   2.371   3.903   0.911
 9075TIP3   OH227167   7.162   3.705   6.393
 9075TIP3    H127168   7.082   3.673   6.435
 9075TIP3    H227169   7.131   3.768   6.328
 9076TIP3   OH227170   1.289   3.749   3.545
 9076TIP3    H127171   1.241   3.832   3.545
 9076TIP3    H227172   1.237   3.691   3.488
 9077TIP3   OH227173   1.613   4.419   0.017
 9077TIP3    H127174   1.653   4.481   0.079
 9077TIP3    H227175   1.609   4.337   0.065
 9078TIP3   OH227176   0.082   6.379   4.291
 9078TIP3    H127177   0.066   6.424   4.374
 9078TIP3    H227178   0.143   6.308   4.313
 9079TIP3   OH227179   0.271   5.849   1.534
 9079TIP3    H127180   0.343   5.851   1.472
 9079TIP3    H227181   0.193   5.839   1.481
 9080TIP3   OH227182   6.239   4.162   2.183
 9080TIP3    H127183   6.293   4.188   2.257
 9080TIP3    H227184   6.245   4.067   2.181
 9081TIP3   OH227185   1.046   4.307   6.259
 9081TIP3    H127186   1.119   4.305   6.321
 9081TIP3    H227187   1.034   4.400   6.239
 9082TIP3   OH227188   5.121   1.361   1.859
 9082TIP3    H127189   5.143   1.269   1.872
 9082TIP3    H227190   5.028   1.361   1.834
 9083TIP3   OH227191   1.901   4.209   1.302
 9083TIP3    H127192   1.920   4.168   1.218
 9083TIP3    H227193   1.806   4.221   1.302
 9084TIP3   OH227194   7.832   0.509   2.778
 9084TIP3    H127195   7.773   0.496   2.852
 9084TIP3    H227196   7.843   0.604   2.773
 9085TIP3   OH227197   6.526   4.206   1.973
 9085TIP3    H127198   6.507   4.290   1.933
 9085TIP3    H227199   6.615   4.217   2.009
 9086TIP3   OH227200   0.632   7.646   6.201
 9086TIP3    H127201   0.701   7.699   6.239
 9086TIP3    H227202   0.566   7.709   6.173
 9087TIP3   OH227203   2.436   7.266   1.181
 9087TIP3    H127204   2.400   7.195   1.128
 9087TIP3    H227205   2.530   7.248   1.184
 9088TIP3   OH227206   1.905   7.184   6.336
 9088TIP3    H127207   1.813   7.207   6.322
 9088TIP3    H227208   1.948   7.208   6.254
 9089TIP3   OH227209   6.920   0.248   2.919
 9089TIP3    H127210   6.843   0.304   2.935
 9089TIP3    H227211   6.915   0.181   2.987
 9090TIP3   OH227212   6.544   5.860   4.070
 9090TIP3    H127213   6.601   5.797   4.115
 9090TIP3    H227214   6.526   5.927   4.136
 9091TIP3   OH227215   2.499   1.732   0.543
 9091TIP3    H127216   2.524   1.783   0.466
 9091TIP3    H227217   2.501   1.641   0.513
 9092TIP3   OH227218   3.464   7.700   1.949
 9092TIP3    H127219   3.453   7.747   1.866
 9092TIP3    H227220   3.555   7.671   1.949
 9093TIP3   OH227221   7.745   6.477   0.127
 9093TIP3    H127222   7.727   6.566   0.097
 9093TIP3    H227223   7.660   6.434   0.129
 9094TIP3   OH227224   5.368   2.863   4.578
 9094TIP3    H127225   5.413   2.906   4.505
 9094TIP3    H227226   5.430   2.867   4.650
 9095TIP3   OH227227   6.555   4.815   6.540
 9095TIP3    H127228   6.630   4.873   6.554
 9095TIP3    H227229   6.579   4.733   6.583
 9096TIP3   OH227230   2.977   1.180   1.572
 9096TIP3    H127231   3.056   1.224   1.540
 9096TIP3    H227232   2.927   1.162   1.492
 9097TIP3   OH227233   1.071   7.370   6.026
 9097TIP3    H127234   1.015   7.446   6.040
 9097TIP3    H227235   1.011   7.295   6.032
 9098TIP3   OH227236   4.385   0.349   0.744
 9098TIP3    H127237   4.450   0.280   0.753
 9098TIP3    H227238   4.427   0.416   0.690
 9099TIP3   OH227239   1.718   3.560   3.440
 9099TIP3    H127240   1.657   3.494   3.474
 9099TIP3    H227241   1.668   3.641   3.440
 9100TIP3   OH227242   4.490   3.020   0.851
 9100TIP3    H127243   4.456   3.107   0.830
 9100TIP3    H227244   4.424   2.959   0.818
 9101TIP3   OH227245   1.487   3.840   1.767
 9101TIP3    H127246   1.420   3.793   1.817
 9101TIP3    H227247   1.444   3.923   1.743
 9102TIP3   OH227248   5.995   0.837   1.124
 9102TIP3    H127249   5.925   0.837   1.058
 9102TIP3    H227250   6.018   0.744   1.133
 9103TIP3   OH227251   1.761   2.619   3.302
 9103TIP3    H127252   1.739   2.540   3.350
 9103TIP3    H227253   1.805   2.588   3.223
 9104TIP3   OH227254   1.829   5.960   4.465
 9104TIP3    H127255   1.758   5.902   4.495
 9104TIP3    H227256   1.830   6.031   4.528
 9105TIP3   OH227257   2.170   6.323   1.963
 9105TIP3    H127258   2.221   6.362   2.034
 9105TIP3    H227259   2.147   6.236   1.994
 9106TIP3   OH227260   3.267   6.856   4.819
 9106TIP3    H127261   3.297   6.868   4.729
 9106TIP3    H227262   3.283   6.941   4.860
 9107TIP3   OH227263   6.867   3.829   1.988
 9107TIP3    H127264   6.929   3.892   1.952
 9107TIP3    H227265   6.789   3.881   2.009
 9108TIP3   OH227266   1.434   3.869   4.466
 9108TIP3    H127267   1.464   3.878   4.557
 9108TIP3    H227268   1.411   3.776   4.458
 9109TIP3   OH227269   6.919   7.550   1.039
 9109TIP3    H127270   6.943   7.590   1.123
 9109TIP3    H227271   6.899   7.459   1.061
 9110TIP3   OH227272   0.413   0.341   5.506
 9110TIP3    H127273   0.385   0.413   5.563
 9110TIP3    H227274   0.460   0.281   5.564
 9111TIP3   OH227275   6.912   2.523   2.051
 9111TIP3    H127276   6.842   2.462   2.029
 9111TIP3    H227277   6.939   2.560   1.967
 9112TIP3   OH227278   5.453   5.143   0.479
 9112TIP3    H127279   5.471   5.188   0.562
 9112TIP3    H227280   5.433   5.053   0.506
 9113TIP3   OH227281   3.089   2.829   6.752
 9113TIP3    H127282   3.154   2.770   6.713
 9113TIP3    H227283   3.066   2.787   6.836
 9114TIP3   OH227284   4.749   5.222   6.306
 9114TIP3    H127285   4.666   5.231   6.353
 9114TIP3    H227286   4.812   5.272   6.359
 9115TIP3   OH227287   4.298   2.690   3.857
 9115TIP3    H127288   4.205   2.713   3.856
 9115TIP3    H227289   4.342   2.767   3.822
 9116TIP3   OH227290   5.478   7.369   1.283
 9116TIP3    H127291   5.546   7.434   1.303
 9116TIP3    H227292   5.458   7.327   1.367
 9117TIP3   OH227293   3.070   6.602   3.436
 9117TIP3    H127294   3.138   6.567   3.493
 9117TIP3    H227295   2.988   6.576   3.478
 9118TIP3   OH227296   6.758   4.453   3.889
 9118TIP3    H127297   6.841   4.410   3.910
 9118TIP3    H227298   6.782   4.542   3.865
 9119TIP3   OH227299   7.661   4.575   2.781
 9119TIP3    H127300   7.710   4.494   2.799
 9119TIP3    H227301   7.576   4.544   2.750
 9120TIP3   OH227302   6.950   2.432   5.321
 9120TIP3    H127303   6.970   2.405   5.231
 9120TIP3    H227304   6.903   2.357   5.358
 9121TIP3   OH227305   1.003   4.190   5.508
 9121TIP3    H127306   0.993   4.275   5.466
 9121TIP3    H227307   1.010   4.209   5.601
 9122TIP3   OH227308   4.894   5.375   6.449
 9122TIP3    H127309   4.927   5.347   6.534
 9122TIP3    H227310   4.972   5.398   6.399
 9123TIP3   OH227311   0.625   6.910   3.044
 9123TIP3    H127312   0.645   6.835   2.987
 9123TIP3    H227313   0.533   6.899   3.067
 9124TIP3   OH227314   2.919   1.016   4.670
 9124TIP3    H127315   2.898   0.929   4.704
 9124TIP3    H227316   2.834   1.052   4.644
 9125TIP3   OH227317   6.697   1.233   5.799
 9125TIP3    H127318   6.633   1.302   5.781
 9125TIP3    H227319   6.685   1.211   5.891
 9126TIP3   OH227320   4.045   5.240   2.359
 9126TIP3    H127321   4.090   5.155   2.363
 9126TIP3    H227322   4.113   5.304   2.382
 9127TIP3   OH227323   0.302   6.945   0.490
 9127TIP3    H127324   0.342   7.031   0.478
 9127TIP3    H227325   0.219   6.963   0.535
 9128TIP3   OH227326   1.393   3.005   3.013
 9128TIP3    H127327   1.369   3.073   3.076
 9128TIP3    H227328   1.411   2.928   3.067
 9129TIP3   OH227329   1.239   1.963   5.258
 9129TIP3    H127330   1.152   1.984   5.226
 9129TIP3    H227331   1.294   2.036   5.230
 9130TIP3   OH227332   8.211   7.500   1.264
 9130TIP3    H127333   8.123   7.465   1.278
 9130TIP3    H227334   8.266   7.423   1.250
 9131TIP3   OH227335   7.986   5.425   0.223
 9131TIP3    H127336   8.073   5.436   0.184
 9131TIP3    H227337   7.936   5.378   0.156
 9132TIP3   OH227338   5.040   2.041   0.906
 9132TIP3    H127339   4.949   2.055   0.879
 9132TIP3    H227340   5.034   1.987   0.985
 9133TIP3   OH227341   4.666   6.506   3.270
 9133TIP3    H127342   4.730   6.567   3.308
 9133TIP3    H227343   4.700   6.419   3.292
 9134TIP3   OH227344   0.353   4.147   5.775
 9134TIP3    H127345   0.446   4.157   5.757
 9134TIP3    H227346   0.349   4.109   5.863
 9135TIP3   OH227347   2.951   6.178   3.686
 9135TIP3    H127348   2.952   6.131   3.603
 9135TIP3    H227349   2.950   6.271   3.660
 9136TIP3   OH227350   6.651   6.255   0.197
 9136TIP3    H127351   6.672   6.349   0.190
 9136TIP3    H227352   6.718   6.212   0.144
 9137TIP3   OH227353   4.649   5.586   5.487
 9137TIP3    H127354   4.584   5.636   5.438
 9137TIP3    H227355   4.651   5.626   5.574
 9138TIP3   OH227356   5.977   3.737   1.686
 9138TIP3    H127357   5.944   3.815   1.731
 9138TIP3    H227358   6.047   3.770   1.629
 9139TIP3   OH227359   6.065   7.725   4.573
 9139TIP3    H127360   6.019   7.702   4.654
 9139TIP3    H227361   6.155   7.696   4.588
 9140TIP3   OH227362   4.411   7.316   1.671
 9140TIP3    H127363   4.359   7.308   1.751
 9140TIP3    H227364   4.354   7.282   1.602
 9141TIP3   OH227365   8.051   0.855   6.404
 9141TIP3    H127366   8.008   0.912   6.467
 9141TIP3    H227367   8.093   0.788   6.457
 9142TIP3   OH227368   3.056   6.529   4.424
 9142TIP3    H127369   3.081   6.518   4.515
 9142TIP3    H227370   3.120   6.590   4.388
 9143TIP3   OH227371   5.846   3.797   5.303
 9143TIP3    H127372   5.794   3.812   5.224
 9143TIP3    H227373   5.922   3.854   5.293
 9144TIP3   OH227374   7.169   3.452   1.778
 9144TIP3    H127375   7.122   3.461   1.861
 9144TIP3    H227376   7.142   3.528   1.727
 9145TIP3   OH227377   5.052   0.077   5.864
 9145TIP3    H127378   5.083   0.050   5.778
 9145TIP3    H227379   5.114   0.036   5.925
 9146TIP3   OH227380   6.077   2.570   3.781
 9146TIP3    H127381   6.104   2.527   3.863
 9146TIP3    H227382   6.157   2.576   3.730
 9147TIP3   OH227383   1.547   6.711   0.218
 9147TIP3    H127384   1.625   6.660   0.239
 9147TIP3    H227385   1.494   6.653   0.164
 9148TIP3   OH227386   0.741   6.097   5.138
 9148TIP3    H127387   0.779   6.126   5.221
 9148TIP3    H227388   0.815   6.062   5.089
 9149TIP3   OH227389   5.813   6.000   5.751
 9149TIP3    H127390   5.750   5.967   5.687
 9149TIP3    H227391   5.804   5.942   5.826
 9150TIP3   OH227392   1.877   1.853   6.432
 9150TIP3    H127393   1.821   1.914   6.480
 9150TIP3    H227394   1.933   1.910   6.378
 9151TIP3   OH227395   1.074   5.793   3.465
 9151TIP3    H127396   1.162   5.757   3.470
 9151TIP3    H227397   1.086   5.887   3.459
 9152TIP3   OH227398   3.018   0.257   5.520
 9152TIP3    H127399   2.998   0.326   5.583
 9152TIP3    H227400   3.108   0.231   5.540
 9153TIP3   OH227401   6.064   1.549   6.737
 9153TIP3    H127402   5.978   1.580   6.708
 9153TIP3    H227403   6.071   1.580   6.827
 9154TIP3   OH227404   4.123   0.282   6.163
 9154TIP3    H127405   4.174   0.345   6.112
 9154TIP3    H227406   4.063   0.337   6.214
 9155TIP3   OH227407   4.525   1.364   5.776
 9155TIP3    H127408   4.565   1.341   5.692
 9155TIP3    H227409   4.594   1.345   5.840
 9156TIP3   OH227410   0.607   3.796   0.279
 9156TIP3    H127411   0.568   3.785   0.365
 9156TIP3    H227412   0.688   3.844   0.294
 9157TIP3   OH227413   5.188   7.742   3.588
 9157TIP3    H127414   5.117   7.804   3.569
 9157TIP3    H227415   5.164   7.664   3.538
 9158TIP3   OH227416   2.443   4.808   3.848
 9158TIP3    H127417   2.455   4.815   3.942
 9158TIP3    H227418   2.507   4.869   3.811
 9159TIP3   OH227419   0.068   5.262   0.182
 9159TIP3    H127420   0.132   5.276   0.252
 9159TIP3    H227421   0.001   5.206   0.223
 9160TIP3   OH227422   5.126   0.875   6.159
 9160TIP3    H127423   5.067   0.800   6.153
 9160TIP3    H227424   5.213   0.837   6.155
 9161TIP3   OH227425   1.864   5.954   5.025
 9161TIP3    H127426   1.853   5.859   5.025
 9161TIP3    H227427   1.806   5.984   4.955
 9162TIP3   OH227428   1.894   0.118   4.354
 9162TIP3    H127429   1.825   0.052   4.341
 9162TIP3    H227430   1.899   0.129   4.449
 9163TIP3   OH227431   3.027   0.345   4.219
 9163TIP3    H127432   3.039   0.438   4.202
 9163TIP3    H227433   3.102   0.321   4.273
 9164TIP3   OH227434   5.983   1.849   1.340
 9164TIP3    H127435   5.891   1.825   1.337
 9164TIP3    H227436   6.012   1.846   1.249
 9165TIP3   OH227437   5.943   4.868   2.298
 9165TIP3    H127438   6.005   4.929   2.259
 9165TIP3    H227439   5.993   4.820   2.363
 9166TIP3   OH227440   5.860   0.815   4.014
 9166TIP3    H127441   5.847   0.871   4.091
 9166TIP3    H227442   5.899   0.873   3.949
 9167TIP3   OH227443   6.137   7.394   1.156
 9167TIP3    H127444   6.105   7.476   1.119
 9167TIP3    H227445   6.186   7.420   1.234
 9168TIP3   OH227446   3.842   6.226   3.126
 9168TIP3    H127447   3.931   6.256   3.108
 9168TIP3    H227448   3.852   6.138   3.162
 9169TIP3   OH227449   4.191   7.452   2.134
 9169TIP3    H127450   4.270   7.488   2.094
 9169TIP3    H227451   4.195   7.481   2.225
 9170TIP3   OH227452   1.308   4.242   4.136
 9170TIP3    H127453   1.280   4.168   4.189
 9170TIP3    H227454   1.229   4.272   4.092
 9171TIP3   OH227455   4.936   2.411   3.748
 9171TIP3    H127456   4.866   2.405   3.682
 9171TIP3    H227457   5.016   2.402   3.697
 9172TIP3   OH227458   3.890   4.761   0.721
 9172TIP3    H127459   3.971   4.719   0.692
 9172TIP3    H227460   3.899   4.767   0.816
 9173TIP3   OH227461   1.871   3.620   6.166
 9173TIP3    H127462   1.960   3.609   6.133
 9173TIP3    H227463   1.849   3.711   6.145
 9174TIP3   OH227464   1.246   5.552   5.046
 9174TIP3    H127465   1.162   5.507   5.030
 9174TIP3    H227466   1.252   5.558   5.141
 9175TIP3   OH227467   6.472   1.857   4.710
 9175TIP3    H127468   6.540   1.802   4.673
 9175TIP3    H227469   6.392   1.828   4.667
 9176TIP3   OH227470   6.710   6.029   1.024
 9176TIP3    H127471   6.772   5.956   1.022
 9176TIP3    H227472   6.726   6.076   0.942
 9177TIP3   OH227473   4.738   7.019   5.382
 9177TIP3    H127474   4.758   6.930   5.410
 9177TIP3    H227475   4.656   7.011   5.333
 9178TIP3   OH227476   3.501   4.483   1.913
 9178TIP3    H127477   3.504   4.525   1.999
 9178TIP3    H227478   3.427   4.423   1.918
 9179TIP3   OH227479   6.812   4.919   0.391
 9179TIP3    H127480   6.787   4.992   0.334
 9179TIP3    H227481   6.761   4.933   0.471
 9180TIP3   OH227482   7.583   6.446   2.966
 9180TIP3    H127483   7.502   6.397   2.956
 9180TIP3    H227484   7.560   6.536   2.943
 9181TIP3   OH227485   3.623   2.458   1.143
 9181TIP3    H127486   3.613   2.434   1.235
 9181TIP3    H227487   3.534   2.479   1.115
 9182TIP3   OH227488   0.377   3.231   0.443
 9182TIP3    H127489   0.469   3.256   0.455
 9182TIP3    H227490   0.346   3.211   0.532
 9183TIP3   OH227491   0.995   1.597   4.254
 9183TIP3    H127492   0.922   1.573   4.197
 9183TIP3    H227493   0.971   1.561   4.339
 9184TIP3   OH227494   1.987   5.220   3.852
 9184TIP3    H127495   1.966   5.312   3.870
 9184TIP3    H227496   1.905   5.183   3.818
 9185TIP3   OH227497   8.161   2.157   4.299
 9185TIP3    H127498   8.102   2.096   4.256
 9185TIP3    H227499   8.158   2.236   4.244
 9186TIP3   OH227500   4.947   2.310   3.997
 9186TIP3    H127501   4.952   2.369   4.072
 9186TIP3    H227502   4.947   2.368   3.920
 9187TIP3   OH227503   7.861   2.921   3.727
 9187TIP3    H127504   7.795   2.905   3.660
 9187TIP3    H227505   7.817   2.977   3.791
 9188TIP3   OH227506   0.020   1.899   2.541
 9188TIP3    H127507   0.073   1.978   2.529
 9188TIP3    H227508   0.085   1.830   2.554
 9189TIP3   OH227509   2.081   5.413   4.312
 9189TIP3    H127510   2.105   5.413   4.405
 9189TIP3    H227511   2.153   5.460   4.269
 9190TIP3   OH227512   4.102   6.265   3.008
 9190TIP3    H127513   4.126   6.176   2.979
 9190TIP3    H227514   4.166   6.322   2.965
 9191TIP3   OH227515   1.257   4.981   6.454
 9191TIP3    H127516   1.271   4.924   6.378
 9191TIP3    H227517   1.261   5.070   6.417
 9192TIP3   OH227518   5.392   3.313   5.880
 9192TIP3    H127519   5.485   3.291   5.884
 9192TIP3    H227520   5.385   3.400   5.920
 9193TIP3   OH227521   1.495   7.105   3.814
 9193TIP3    H127522   1.470   7.169   3.747
 9193TIP3    H227523   1.549   7.154   3.876
 9194TIP3   OH227524   5.539   1.601   1.625
 9194TIP3    H127525   5.494   1.535   1.572
 9194TIP3    H227526   5.470   1.663   1.651
 9195TIP3   OH227527   2.474   3.590   0.668
 9195TIP3    H127528   2.449   3.500   0.691
 9195TIP3    H227529   2.455   3.597   0.574
 9196TIP3   OH227530   5.746   2.013   1.845
 9196TIP3    H127531   5.817   1.962   1.806
 9196TIP3    H227532   5.733   1.973   1.931
 9197TIP3   OH227533   3.427   3.260   1.179
 9197TIP3    H127534   3.345   3.298   1.211
 9197TIP3    H227535   3.463   3.213   1.254
 9198TIP3   OH227536   0.251   1.510   6.374
 9198TIP3    H127537   0.258   1.535   6.466
 9198TIP3    H227538   0.196   1.578   6.335
 9199TIP3   OH227539   8.049   5.178   6.145
 9199TIP3    H127540   8.142   5.177   6.123
 9199TIP3    H227541   8.024   5.085   6.146
 9200TIP3   OH227542   7.065   4.373   3.588
 9200TIP3    H127543   7.126   4.306   3.618
 9200TIP3    H227544   7.089   4.451   3.637
 9201TIP3   OH227545   1.870   0.201   3.182
 9201TIP3    H127546   1.855   0.115   3.222
 9201TIP3    H227547   1.805   0.207   3.112
 9202TIP3   OH227548   5.233   1.068   6.008
 9202TIP3    H127549   5.186   1.003   6.060
 9202TIP3    H227550   5.233   1.033   5.919
 9203TIP3   OH227551   4.764   4.046   0.631
 9203TIP3    H127552   4.726   3.965   0.596
 9203TIP3    H227553   4.763   4.106   0.557
 9204TIP3   OH227554   1.368   6.559   1.535
 9204TIP3    H127555   1.453   6.589   1.504
 9204TIP3    H227556   1.353   6.476   1.488
 9205TIP3   OH227557   6.344   6.439   2.922
 9205TIP3    H127558   6.346   6.359   2.869
 9205TIP3    H227559   6.325   6.409   3.011
 9206TIP3   OH227560   2.577   2.384   1.722
 9206TIP3    H127561   2.645   2.322   1.694
 9206TIP3    H227562   2.598   2.404   1.813
 9207TIP3   OH227563   1.981   2.560   5.468
 9207TIP3    H127564   1.994   2.636   5.523
 9207TIP3    H227565   1.938   2.594   5.389
 9208TIP3   OH227566   2.888   5.872   3.884
 9208TIP3    H127567   2.942   5.875   3.805
 9208TIP3    H227568   2.815   5.931   3.865
 9209TIP3   OH227569   7.024   3.683   0.260
 9209TIP3    H127570   6.969   3.607   0.277
 9209TIP3    H227571   7.104   3.647   0.223
 9210TIP3   OH227572   6.601   0.611   3.344
 9210TIP3    H127573   6.643   0.692   3.373
 9210TIP3    H227574   6.671   0.546   3.346
 9211TIP3   OH227575   4.367   2.861   2.331
 9211TIP3    H127576   4.380   2.776   2.289
 9211TIP3    H227577   4.380   2.845   2.424
 9212TIP3   OH227578   0.868   2.524   1.815
 9212TIP3    H127579   0.916   2.531   1.898
 9212TIP3    H227580   0.876   2.610   1.775
 9213TIP3   OH227581   6.203   5.025   4.591
 9213TIP3    H127582   6.111   5.046   4.610
 9213TIP3    H227583   6.212   5.040   4.497
 9214TIP3   OH227584   4.032   6.970   3.920
 9214TIP3    H127585   4.120   7.006   3.919
 9214TIP3    H227586   3.986   7.018   3.851
 9215TIP3   OH227587   3.141   5.024   4.971
 9215TIP3    H127588   3.195   4.950   4.940
 9215TIP3    H227589   3.200   5.099   4.966
 9216TIP3   OH227590   4.420   7.713   5.709
 9216TIP3    H127591   4.447   7.637   5.657
 9216TIP3    H227592   4.335   7.738   5.671
 9217TIP3   OH227593   3.622   6.489   5.606
 9217TIP3    H127594   3.635   6.544   5.683
 9217TIP3    H227595   3.678   6.413   5.620
 9218TIP3   OH227596   2.453   7.796   5.627
 9218TIP3    H127597   2.477   7.883   5.595
 9218TIP3    H227598   2.445   7.743   5.548
 9219TIP3   OH227599   2.338   7.165   0.875
 9219TIP3    H127600   2.296   7.206   0.799
 9219TIP3    H227601   2.363   7.077   0.844
 9220TIP3   OH227602   6.824   2.809   6.435
 9220TIP3    H127603   6.896   2.872   6.441
 9220TIP3    H227604   6.780   2.830   6.352
 9221TIP3   OH227605   7.174   7.098   0.259
 9221TIP3    H127606   7.179   7.004   0.271
 9221TIP3    H227607   7.086   7.114   0.226
 9222TIP3   OH227608   4.567   2.193   5.337
 9222TIP3    H127609   4.516   2.124   5.295
 9222TIP3    H227610   4.502   2.246   5.384
 9223TIP3   OH227611   7.211   2.970   3.268
 9223TIP3    H127612   7.290   2.918   3.254
 9223TIP3    H227613   7.159   2.919   3.330
 9224TIP3   OH227614   7.878   6.688   3.305
 9224TIP3    H127615   7.879   6.594   3.290
 9224TIP3    H227616   7.933   6.700   3.383
 9225TIP3   OH227617   5.670   5.900   6.538
 9225TIP3    H127618   5.684   5.980   6.588
 9225TIP3    H227619   5.657   5.930   6.448
 9226TIP3   OH227620   3.034   4.452   5.115
 9226TIP3    H127621   3.123   4.422   5.096
 9226TIP3    H227622   3.024   4.436   5.209
 9227TIP3   OH227623   5.105   3.983   4.092
 9227TIP3    H127624   5.027   3.942   4.129
 9227TIP3    H227625   5.072   4.045   4.027
 9228TIP3   OH227626   3.467   0.103   5.075
 9228TIP3    H127627   3.515   0.184   5.090
 9228TIP3    H227628   3.376   0.131   5.061
 9229TIP3   OH227629   1.391   3.503   1.779
 9229TIP3    H127630   1.444   3.489   1.701
 9229TIP3    H227631   1.426   3.442   1.844
 9230TIP3   OH227632   3.704   4.392   3.335
 9230TIP3    H127633   3.690   4.410   3.428
 9230TIP3    H227634   3.784   4.339   3.333
 9231TIP3   OH227635   1.685   2.738   1.675
 9231TIP3    H127636   1.733   2.662   1.643
 9231TIP3    H227637   1.686   2.800   1.602
 9232TIP3   OH227638   2.405   2.275   5.932
 9232TIP3    H127639   2.312   2.256   5.941
 9232TIP3    H227640   2.442   2.199   5.888
 9233TIP3   OH227641   8.268   4.127   5.438
 9233TIP3    H127642   8.324   4.201   5.413
 9233TIP3    H227643   8.267   4.130   5.534
 9234TIP3   OH227644   0.591   3.613   2.944
 9234TIP3    H127645   0.570   3.551   2.874
 9234TIP3    H227646   0.584   3.562   3.025
 9235TIP3   OH227647   2.174   0.373   4.613
 9235TIP3    H127648   2.082   0.398   4.602
 9235TIP3    H227649   2.210   0.378   4.524
 9236TIP3   OH227650   4.767   2.440   0.026
 9236TIP3    H127651   4.737   2.485   0.105
 9236TIP3    H227652   4.827   2.503  -0.016
 9237TIP3   OH227653   2.602   1.865   1.182
 9237TIP3    H127654   2.511   1.856   1.207
 9237TIP3    H227655   2.652   1.831   1.256
 9238TIP3   OH227656   7.543   7.664   0.347
 9238TIP3    H127657   7.625   7.711   0.333
 9238TIP3    H227658   7.569   7.572   0.351
 9239TIP3   OH227659   5.083   5.676   1.621
 9239TIP3    H127660   5.159   5.626   1.591
 9239TIP3    H227661   5.103   5.698   1.712
 9240TIP3   OH227662   4.823   3.748   2.595
 9240TIP3    H127663   4.784   3.821   2.644
 9240TIP3    H227664   4.913   3.776   2.579
 9241TIP3   OH227665   2.519   3.337   0.801
 9241TIP3    H127666   2.562   3.340   0.887
 9241TIP3    H227667   2.583   3.295   0.743
 9242TIP3   OH227668   7.121   0.675   1.496
 9242TIP3    H127669   7.144   0.749   1.552
 9242TIP3    H227670   7.198   0.618   1.499
 9243TIP3   OH227671   8.228   3.910   0.738
 9243TIP3    H127672   8.203   3.971   0.808
 9243TIP3    H227673   8.232   3.824   0.781
 9244TIP3   OH227674   6.292   0.134   4.729
 9244TIP3    H127675   6.221   0.195   4.709
 9244TIP3    H227676   6.337   0.121   4.645
 9245TIP3   OH227677   4.492   3.789   0.337
 9245TIP3    H127678   4.399   3.801   0.359
 9245TIP3    H227679   4.491   3.742   0.254
 9246TIP3   OH227680   4.800   2.894   0.422
 9246TIP3    H127681   4.815   2.813   0.471
 9246TIP3    H227682   4.851   2.960   0.468
 9247TIP3   OH227683   2.164   3.661   2.330
 9247TIP3    H127684   2.106   3.733   2.306
 9247TIP3    H227685   2.242   3.704   2.365
 9248TIP3   OH227686   3.785   5.228   4.764
 9248TIP3    H127687   3.783   5.262   4.853
 9248TIP3    H227688   3.698   5.249   4.728
 9249TIP3   OH227689   7.690   2.576   4.115
 9249TIP3    H127690   7.756   2.583   4.184
 9249TIP3    H227691   7.740   2.559   4.035
 9250TIP3   OH227692   7.842   2.785   5.564
 9250TIP3    H127693   7.889   2.807   5.645
 9250TIP3    H227694   7.862   2.857   5.504
 9251TIP3   OH227695   0.426   5.291   3.360
 9251TIP3    H127696   0.347   5.258   3.317
 9251TIP3    H227697   0.498   5.254   3.309
 9252TIP3   OH227698   1.052   5.519   5.811
 9252TIP3    H127699   1.057   5.532   5.905
 9252TIP3    H227700   1.086   5.600   5.773
 9253TIP3   OH227701   0.924   6.902   0.655
 9253TIP3    H127702   0.960   6.897   0.744
 9253TIP3    H227703   0.947   6.818   0.616
 9254TIP3   OH227704   3.269   7.072   4.954
 9254TIP3    H127705   3.241   7.048   5.043
 9254TIP3    H227706   3.290   7.166   4.961
 9255TIP3   OH227707   3.567   5.083   1.652
 9255TIP3    H127708   3.531   5.170   1.635
 9255TIP3    H227709   3.652   5.099   1.693
 9256TIP3   OH227710   0.114   4.174   6.209
 9256TIP3    H127711   0.109   4.156   6.303
 9256TIP3    H227712   0.154   4.261   6.203
 9257TIP3   OH227713   1.521   4.046   1.029
 9257TIP3    H127714   1.582   4.074   0.960
 9257TIP3    H227715   1.475   3.971   0.992
 9258TIP3   OH227716   6.332   0.608   3.733
 9258TIP3    H127717   6.367   0.697   3.742
 9258TIP3    H227718   6.388   0.568   3.666
 9259TIP3   OH227719   6.625   5.772   6.268
 9259TIP3    H127720   6.669   5.711   6.208
 9259TIP3    H227721   6.648   5.859   6.235
 9260TIP3   OH227722   1.409   1.966   6.643
 9260TIP3    H127723   1.336   1.908   6.667
 9260TIP3    H227724   1.482   1.935   6.697
 9261TIP3   OH227725   7.750   1.421   5.479
 9261TIP3    H127726   7.799   1.488   5.528
 9261TIP3    H227727   7.710   1.468   5.407
 9262TIP3   OH227728   4.043   3.326   2.392
 9262TIP3    H127729   4.102   3.291   2.326
 9262TIP3    H227730   3.966   3.269   2.386
 9263TIP3   OH227731   5.403   2.264   5.084
 9263TIP3    H127732   5.370   2.285   5.172
 9263TIP3    H227733   5.474   2.327   5.070
 9264TIP3   OH227734   6.476   0.464   3.519
 9264TIP3    H127735   6.513   0.527   3.457
 9264TIP3    H227736   6.393   0.438   3.480
 9265TIP3   OH227737   3.263   2.109   0.764
 9265TIP3    H127738   3.206   2.113   0.687
 9265TIP3    H227739   3.315   2.030   0.752
 9266TIP3   OH227740   5.261   7.768   2.652
 9266TIP3    H127741   5.205   7.845   2.646
 9266TIP3    H227742   5.280   7.744   2.561
 9267TIP3   OH227743   7.234   7.765   2.671
 9267TIP3    H127744   7.157   7.726   2.714
 9267TIP3    H227745   7.264   7.697   2.611
 9268TIP3   OH227746   2.923   4.071   3.347
 9268TIP3    H127747   2.935   4.035   3.259
 9268TIP3    H227748   2.828   4.073   3.360
 9269TIP3   OH227749   2.213   6.977   4.206
 9269TIP3    H127750   2.202   7.023   4.289
 9269TIP3    H227751   2.215   7.047   4.140
 9270TIP3   OH227752   6.152   3.679   6.163
 9270TIP3    H127753   6.204   3.756   6.186
 9270TIP3    H227754   6.202   3.605   6.197
 9271TIP3   OH227755   5.450   1.696   0.292
 9271TIP3    H127756   5.453   1.791   0.284
 9271TIP3    H227757   5.357   1.676   0.302
 9272TIP3   OH227758   5.217   7.733   5.250
 9272TIP3    H127759   5.150   7.689   5.303
 9272TIP3    H227760   5.281   7.665   5.232
 9273TIP3   OH227761   7.762   2.960   2.551
 9273TIP3    H127762   7.698   2.888   2.555
 9273TIP3    H227763   7.833   2.933   2.609
 9274TIP3   OH227764   2.470   5.682   6.588
 9274TIP3    H127765   2.531   5.624   6.542
 9274TIP3    H227766   2.470   5.649   6.678
 9275TIP3   OH227767   8.072   6.215   3.522
 9275TIP3    H127768   8.142   6.151   3.514
 9275TIP3    H227769   8.022   6.187   3.599
 9276TIP3   OH227770   1.032   6.132   6.583
 9276TIP3    H127771   1.019   6.226   6.596
 9276TIP3    H227772   1.102   6.127   6.516
 9277TIP3   OH227773   7.129   6.095   0.454
 9277TIP3    H127774   7.155   6.177   0.495
 9277TIP3    H227775   7.041   6.112   0.421
 9278TIP3   OH227776   1.586   1.314   5.316
 9278TIP3    H127777   1.652   1.334   5.382
 9278TIP3    H227778   1.609   1.226   5.285
 9279TIP3   OH227779   1.521   0.943   2.153
 9279TIP3    H127780   1.454   0.971   2.092
 9279TIP3    H227781   1.480   0.950   2.239
 9280TIP3   OH227782   3.211   0.202   2.683
 9280TIP3    H127783   3.256   0.184   2.601
 9280TIP3    H227784   3.191   0.295   2.680
 9281TIP3   OH227785   7.258   5.134   5.908
 9281TIP3    H127786   7.348   5.150   5.938
 9281TIP3    H227787   7.204   5.192   5.962
 9282TIP3   OH227788   4.737   5.252   2.721
 9282TIP3    H127789   4.719   5.231   2.812
 9282TIP3    H227790   4.692   5.336   2.706
 9283TIP3   OH227791   1.951   3.470   0.933
 9283TIP3    H127792   2.008   3.411   0.982
 9283TIP3    H227793   1.884   3.496   0.996
 9284TIP3   OH227794   3.154   0.065   2.271
 9284TIP3    H127795   3.073   0.110   2.295
 9284TIP3    H227796   3.222   0.109   2.321
 9285TIP3   OH227797   2.048   7.805   2.174
 9285TIP3    H127798   2.028   7.850   2.256
 9285TIP3    H227799   2.133   7.765   2.188
 9286TIP3   OH227800   6.716   7.082   6.701
 9286TIP3    H127801   6.665   7.162   6.712
 9286TIP3    H227802   6.654   7.020   6.661
 9287TIP3   OH227803   6.122   5.538   0.202
 9287TIP3    H127804   6.217   5.524   0.201
 9287TIP3    H227805   6.112   5.633   0.199
 9288TIP3   OH227806   7.634   1.201   4.575
 9288TIP3    H127807   7.634   1.124   4.632
 9288TIP3    H227808   7.683   1.267   4.625
 9289TIP3   OH227809   3.168   4.615   3.291
 9289TIP3    H127810   3.228   4.610   3.217
 9289TIP3    H227811   3.141   4.525   3.306
 9290TIP3   OH227812   6.612   7.661   2.965
 9290TIP3    H127813   6.632   7.723   3.036
 9290TIP3    H227814   6.518   7.672   2.950
 9291TIP3   OH227815   3.586   1.187   1.177
 9291TIP3    H127816   3.511   1.235   1.211
 9291TIP3    H227817   3.660   1.248   1.184
 9292TIP3   OH227818   7.145   2.845   3.687
 9292TIP3    H127819   7.180   2.816   3.602
 9292TIP3    H227820   7.050   2.844   3.676
 9293TIP3   OH227821   0.668   3.827   6.724
 9293TIP3    H127822   0.581   3.867   6.720
 9293TIP3    H227823   0.727   3.893   6.688
 9294TIP3   OH227824   2.139   3.875   5.821
 9294TIP3    H127825   2.134   3.781   5.800
 9294TIP3    H227826   2.218   3.884   5.874
 9295TIP3   OH227827   1.331   2.186   5.070
 9295TIP3    H127828   1.327   2.120   5.001
 9295TIP3    H227829   1.277   2.258   5.037
 9296TIP3   OH227830   4.448   3.233   0.387
 9296TIP3    H127831   4.374   3.281   0.350
 9296TIP3    H227832   4.421   3.142   0.386
 9297TIP3   OH227833   4.255   3.474   0.033
 9297TIP3    H127834   4.265   3.408  -0.036
 9297TIP3    H227835   4.163   3.500   0.027
 9298TIP3   OH227836   6.967   6.702   4.067
 9298TIP3    H127837   7.023   6.642   4.116
 9298TIP3    H227838   6.963   6.664   3.979
 9299TIP3   OH227839   4.814   4.464   0.817
 9299TIP3    H127840   4.736   4.410   0.834
 9299TIP3    H227841   4.784   4.554   0.832
 9300TIP3   OH227842   1.846   4.996   3.039
 9300TIP3    H127843   1.761   4.997   3.084
 9300TIP3    H227844   1.902   5.053   3.091
 9301TIP3   OH227845   1.671   0.461   3.165
 9301TIP3    H127846   1.670   0.399   3.091
 9301TIP3    H227847   1.709   0.541   3.128
 9302TIP3   OH227848   0.263   1.051   1.645
 9302TIP3    H127849   0.178   1.054   1.602
 9302TIP3    H227850   0.309   0.979   1.601
 9303TIP3   OH227851   5.781   6.647   2.079
 9303TIP3    H127852   5.839   6.572   2.093
 9303TIP3    H227853   5.696   6.619   2.113
 9304TIP3   OH227854   3.335   6.675   2.395
 9304TIP3    H127855   3.369   6.706   2.479
 9304TIP3    H227856   3.264   6.615   2.418
 9305TIP3   OH227857   4.571   4.905   5.208
 9305TIP3    H127858   4.571   4.976   5.144
 9305TIP3    H227859   4.490   4.858   5.193
 9306TIP3   OH227860   6.590   4.374   4.929
 9306TIP3    H127861   6.554   4.435   4.865
 9306TIP3    H227862   6.626   4.429   4.998
 9307TIP3   OH227863   4.635   1.653   2.293
 9307TIP3    H127864   4.550   1.608   2.294
 9307TIP3    H227865   4.619   1.731   2.240
 9308TIP3   OH227866   3.015   5.697   1.899
 9308TIP3    H127867   3.025   5.623   1.958
 9308TIP3    H227868   2.960   5.664   1.828
 9309TIP3   OH227869   1.747   5.710   4.224
 9309TIP3    H127870   1.807   5.639   4.203
 9309TIP3    H227871   1.740   5.708   4.319
 9310TIP3   OH227872   7.893   2.381   1.453
 9310TIP3    H127873   7.946   2.327   1.511
 9310TIP3    H227874   7.945   2.392   1.374
 9311TIP3   OH227875   5.107   6.326   6.107
 9311TIP3    H127876   5.202   6.342   6.104
 9311TIP3    H227877   5.077   6.347   6.018
 9312TIP3   OH227878   0.237   0.477   6.166
 9312TIP3    H127879   0.307   0.504   6.107
 9312TIP3    H227880   0.175   0.430   6.110
 9313TIP3   OH227881   3.820   1.817   0.647
 9313TIP3    H127882   3.855   1.796   0.733
 9313TIP3    H227883   3.798   1.732   0.608
 9314TIP3   OH227884   6.325   6.238   3.115
 9314TIP3    H127885   6.299   6.168   3.056
 9314TIP3    H227886   6.415   6.216   3.140
 9315TIP3   OH227887   6.099   0.731   0.521
 9315TIP3    H127888   6.112   0.825   0.510
 9315TIP3    H227889   6.186   0.693   0.506
 9316TIP3   OH227890   1.864   0.667   2.397
 9316TIP3    H127891   1.819   0.710   2.325
 9316TIP3    H227892   1.953   0.651   2.364
 9317TIP3   OH227893   3.259   5.357   1.536
 9317TIP3    H127894   3.199   5.425   1.505
 9317TIP3    H227895   3.292   5.316   1.456
 9318TIP3   OH227896   6.326   6.914   3.806
 9318TIP3    H127897   6.255   6.880   3.861
 9318TIP3    H227898   6.351   6.839   3.751
 9319TIP3   OH227899   7.389   6.740   3.069
 9319TIP3    H127900   7.357   6.663   3.116
 9319TIP3    H227901   7.388   6.714   2.977
 9320TIP3   OH227902   3.762   4.863   0.498
 9320TIP3    H127903   3.742   4.799   0.430
 9320TIP3    H227904   3.787   4.810   0.574
 9321TIP3   OH227905   4.326   7.583   1.561
 9321TIP3    H127906   4.299   7.505   1.609
 9321TIP3    H227907   4.359   7.550   1.478
 9322TIP3   OH227908   3.513   6.073   4.193
 9322TIP3    H127909   3.597   6.032   4.169
 9322TIP3    H227910   3.506   6.060   4.287
 9323TIP3   OH227911   4.768   7.601   5.848
 9323TIP3    H127912   4.787   7.694   5.835
 9323TIP3    H227913   4.847   7.565   5.888
 9324TIP3   OH227914   2.194   5.683   5.715
 9324TIP3    H127915   2.246   5.731   5.779
 9324TIP3    H227916   2.162   5.606   5.763
 9325TIP3   OH227917   5.946   4.409   5.029
 9325TIP3    H127918   6.034   4.380   5.008
 9325TIP3    H227919   5.904   4.422   4.944
 9326TIP3   OH227920   0.557   2.647   5.135
 9326TIP3    H127921   0.565   2.649   5.039
 9326TIP3    H227922   0.593   2.562   5.160
 9327TIP3   OH227923   0.203   2.110   2.618
 9327TIP3    H127924   0.248   2.195   2.618
 9327TIP3    H227925   0.218   2.074   2.705
 9328TIP3   OH227926   6.647   3.604   4.683
 9328TIP3    H127927   6.664   3.580   4.592
 9328TIP3    H227928   6.592   3.681   4.678
 9329TIP3   OH227929   4.640   2.401   4.889
 9329TIP3    H127930   4.556   2.400   4.935
 9329TIP3    H227931   4.704   2.422   4.957
 9330TIP3   OH227932   3.652   2.356   6.346
 9330TIP3    H127933   3.725   2.372   6.406
 9330TIP3    H227934   3.581   2.411   6.379
 9331TIP3   OH227935   7.811   4.306   5.298
 9331TIP3    H127936   7.850   4.381   5.344
 9331TIP3    H227937   7.757   4.263   5.364
 9332TIP3   OH227938   2.527   3.696   0.155
 9332TIP3    H127939   2.432   3.685   0.152
 9332TIP3    H227940   2.562   3.615   0.119
 9333TIP3   OH227941   6.362   6.715   6.755
 9333TIP3    H127942   6.330   6.663   6.827
 9333TIP3    H227943   6.394   6.652   6.691
 9334TIP3   OH227944   0.655   4.239   1.711
 9334TIP3    H127945   0.745   4.213   1.693
 9334TIP3    H227946   0.601   4.173   1.668
 9335TIP3   OH227947   6.710   0.128   1.762
 9335TIP3    H127948   6.723   0.124   1.668
 9335TIP3    H227949   6.795   0.103   1.799
 9336TIP3   OH227950   5.411   4.974   4.953
 9336TIP3    H127951   5.451   5.043   5.006
 9336TIP3    H227952   5.378   4.911   5.018
 9337TIP3   OH227953   2.766   4.833   0.993
 9337TIP3    H127954   2.798   4.747   0.965
 9337TIP3    H227955   2.797   4.893   0.924
 9338TIP3   OH227956   0.380   4.648   0.669
 9338TIP3    H127957   0.451   4.586   0.652
 9338TIP3    H227958   0.382   4.708   0.594
 9339TIP3   OH227959   6.956   7.762   5.535
 9339TIP3    H127960   6.905   7.724   5.463
 9339TIP3    H227961   7.040   7.784   5.496
 9340TIP3   OH227962   1.432   1.134   1.550
 9340TIP3    H127963   1.390   1.202   1.602
 9340TIP3    H227964   1.523   1.161   1.544
 9341TIP3   OH227965   6.013   6.654   5.732
 9341TIP3    H127966   6.064   6.731   5.756
 9341TIP3    H227967   6.055   6.621   5.652
 9342TIP3   OH227968   0.483   4.965   3.278
 9342TIP3    H127969   0.425   5.038   3.256
 9342TIP3    H227970   0.509   4.928   3.193
 9343TIP3   OH227971   3.096   5.740   1.013
 9343TIP3    H127972   3.114   5.795   0.936
 9343TIP3    H227973   3.130   5.790   1.087
 9344TIP3   OH227974   0.606   7.778   6.572
 9344TIP3    H127975   0.611   7.818   6.485
 9344TIP3    H227976   0.627   7.686   6.557
 9345TIP3   OH227977   4.221   3.146   6.205
 9345TIP3    H127978   4.168   3.206   6.152
 9345TIP3    H227979   4.208   3.060   6.165
 9346TIP3   OH227980   6.097   6.376   6.244
 9346TIP3    H127981   6.050   6.439   6.299
 9346TIP3    H227982   6.061   6.291   6.269
 9347TIP3   OH227983   7.776   3.639   4.482
 9347TIP3    H127984   7.827   3.610   4.558
 9347TIP3    H227985   7.736   3.558   4.449
 9348TIP3   OH227986   6.487   1.288   0.990
 9348TIP3    H127987   6.471   1.375   1.026
 9348TIP3    H227988   6.402   1.243   0.997
 9349TIP3   OH227989   0.831   2.956   6.211
 9349TIP3    H127990   0.916   2.914   6.200
 9349TIP3    H227991   0.849   3.035   6.262
 9350TIP3   OH227992   7.935   6.740   4.815
 9350TIP3    H127993   7.979   6.818   4.849
 9350TIP3    H227994   7.846   6.746   4.850
 9351TIP3   OH227995   5.354   7.047   6.322
 9351TIP3    H127996   5.375   6.988   6.250
 9351TIP3    H227997   5.333   7.130   6.280
 9352TIP3   OH227998   2.033   5.041   5.974
 9352TIP3    H127999   1.958   5.079   5.930
 9352TIP3    H228000   2.020   5.061   6.067
 9353TIP3   OH228001   0.987   4.062   3.932
 9353TIP3    H128002   0.998   3.969   3.953
 9353TIP3    H228003   0.895   4.080   3.953
 9354TIP3   OH228004   5.211   6.986   4.932
 9354TIP3    H128005   5.228   6.954   5.021
 9354TIP3    H228006   5.228   7.080   4.936
 9355TIP3   OH228007   5.582   2.580   0.576
 9355TIP3    H128008   5.634   2.560   0.498
 9355TIP3    H228009   5.561   2.494   0.613
 9356TIP3   OH228010   3.006   0.067   0.128
 9356TIP3    H128011   2.944   0.068   0.054
 9356TIP3    H228012   3.082   0.116   0.095
 9357TIP3   OH228013   0.559   2.565   5.487
 9357TIP3    H128014   0.593   2.619   5.559
 9357TIP3    H228015   0.466   2.588   5.483
 9358TIP3   OH228016   0.964   3.248   4.709
 9358TIP3    H128017   0.895   3.242   4.774
 9358TIP3    H228018   1.000   3.160   4.704
 9359TIP3   OH228019   6.904   7.670   4.733
 9359TIP3    H128020   6.990   7.706   4.755
 9359TIP3    H228021   6.843   7.742   4.750
 9360TIP3   OH228022   7.544   5.050   2.717
 9360TIP3    H128023   7.573   4.961   2.699
 9360TIP3    H228024   7.500   5.078   2.637
 9361TIP3   OH228025   6.170   1.756   6.579
 9361TIP3    H128026   6.262   1.746   6.602
 9361TIP3    H228027   6.129   1.675   6.609
 9362TIP3   OH228028   7.540   5.320   4.039
 9362TIP3    H128029   7.544   5.389   4.105
 9362TIP3    H228030   7.449   5.320   4.011
 9363TIP3   OH228031   4.948   3.659   3.523
 9363TIP3    H128032   4.969   3.681   3.432
 9363TIP3    H228033   4.968   3.739   3.572
 9364TIP3   OH228034   2.398   6.504   3.807
 9364TIP3    H128035   2.478   6.460   3.836
 9364TIP3    H228036   2.398   6.587   3.853
 9365TIP3   OH228037   0.078   2.456   0.753
 9365TIP3    H128038  -0.015   2.476   0.737
 9365TIP3    H228039   0.091   2.369   0.716
 9366TIP3   OH228040   2.438   2.232   0.707
 9366TIP3    H128041   2.530   2.258   0.716
 9366TIP3    H228042   2.401   2.295   0.646
 9367TIP3   OH228043   4.108   6.364   2.671
 9367TIP3    H128044   4.171   6.292   2.676
 9367TIP3    H228045   4.023   6.322   2.688
 9368TIP3   OH228046   4.679   3.316   5.840
 9368TIP3    H128047   4.661   3.241   5.897
 9368TIP3    H228048   4.738   3.281   5.772
 9369TIP3   OH228049   3.859   3.449   0.597
 9369TIP3    H128050   3.853   3.499   0.516
 9369TIP3    H228051   3.806   3.371   0.581
 9370TIP3   OH228052   4.154   4.822   6.342
 9370TIP3    H128053   4.249   4.823   6.347
 9370TIP3    H228054   4.126   4.759   6.408
 9371TIP3   OH228055   4.262   6.463   5.635
 9371TIP3    H128056   4.260   6.556   5.613
 9371TIP3    H228057   4.347   6.432   5.601
 9372TIP3   OH228058   2.039   3.757   4.016
 9372TIP3    H128059   2.134   3.745   4.018
 9372TIP3    H228060   2.014   3.766   4.108
 9373TIP3   OH228061   3.794   2.970   0.322
 9373TIP3    H128062   3.770   3.038   0.259
 9373TIP3    H228063   3.867   3.008   0.371
 9374TIP3   OH228064   3.983   1.165   3.491
 9374TIP3    H128065   4.033   1.116   3.556
 9374TIP3    H228066   3.999   1.120   3.408
 9375TIP3   OH228067   5.930   6.863   3.333
 9375TIP3    H128068   6.002   6.849   3.395
 9375TIP3    H228069   5.908   6.776   3.302
 9376TIP3   OH228070   4.906   2.556   4.401
 9376TIP3    H128071   4.899   2.582   4.309
 9376TIP3    H228072   4.969   2.483   4.400
 9377TIP3   OH228073   0.233   2.548   3.830
 9377TIP3    H128074   0.313   2.574   3.785
 9377TIP3    H228075   0.262   2.518   3.916
 9378TIP3   OH228076   0.457   1.266   4.959
 9378TIP3    H128077   0.472   1.171   4.954
 9378TIP3    H228078   0.395   1.277   5.031
 9379TIP3   OH228079   1.774   7.341   4.665
 9379TIP3    H128080   1.814   7.343   4.578
 9379TIP3    H228081   1.712   7.415   4.664
 9380TIP3   OH228082   2.496   4.158   2.359
 9380TIP3    H128083   2.477   4.167   2.265
 9380TIP3    H228084   2.429   4.097   2.391
 9381TIP3   OH228085   1.997   2.092   4.691
 9381TIP3    H128086   2.039   2.176   4.673
 9381TIP3    H228087   1.963   2.063   4.607
 9382TIP3   OH228088   3.821   7.434   2.520
 9382TIP3    H128089   3.795   7.502   2.582
 9382TIP3    H228090   3.740   7.411   2.474
 9383TIP3   OH228091   2.274   6.726   5.555
 9383TIP3    H128092   2.214   6.661   5.519
 9383TIP3    H228093   2.219   6.801   5.575
 9384TIP3   OH228094   4.937   3.686   6.470
 9384TIP3    H128095   4.861   3.736   6.501
 9384TIP3    H228096   4.932   3.603   6.517
 9385TIP3   OH228097   7.591   3.836   6.618
 9385TIP3    H128098   7.685   3.827   6.599
 9385TIP3    H228099   7.548   3.820   6.534
 9386TIP3   OH228100   5.839   0.039   1.497
 9386TIP3    H128101   5.842  -0.055   1.512
 9386TIP3    H228102   5.889   0.077   1.569
 9387TIP3   OH228103   3.789   2.573   4.270
 9387TIP3    H128104   3.719   2.530   4.220
 9387TIP3    H228105   3.869   2.553   4.222
 9388TIP3   OH228106   0.039   3.182   6.314
 9388TIP3    H128107  -0.044   3.168   6.270
 9388TIP3    H228108   0.087   3.100   6.301
 9389TIP3   OH228109   0.644   7.775   2.922
 9389TIP3    H128110   0.631   7.852   2.977
 9389TIP3    H228111   0.556   7.739   2.909
 9390TIP3   OH228112   7.014   5.687   6.366
 9390TIP3    H128113   7.083   5.753   6.375
 9390TIP3    H228114   7.060   5.603   6.370
 9391TIP3   OH228115   2.492   5.723   1.427
 9391TIP3    H128116   2.441   5.694   1.351
 9391TIP3    H228117   2.462   5.667   1.498
 9392TIP3   OH228118   5.336   7.414   4.699
 9392TIP3    H128119   5.336   7.510   4.692
 9392TIP3    H228120   5.274   7.395   4.770
 9393TIP3   OH228121   1.584   6.550   5.927
 9393TIP3    H128122   1.634   6.581   6.002
 9393TIP3    H228123   1.515   6.615   5.915
 9394TIP3   OH228124   4.772   6.301   3.465
 9394TIP3    H128125   4.764   6.261   3.552
 9394TIP3    H228126   4.824   6.239   3.414
 9395TIP3   OH228127   1.616   1.121   0.549
 9395TIP3    H128128   1.635   1.193   0.610
 9395TIP3    H228129   1.692   1.119   0.491
 9396TIP3   OH228130   5.799   0.518   0.286
 9396TIP3    H128131   5.823   0.448   0.226
 9396TIP3    H228132   5.787   0.595   0.231
 9397TIP3   OH228133   7.993   5.272   5.469
 9397TIP3    H128134   7.940   5.192   5.470
 9397TIP3    H228135   8.070   5.249   5.418
 9398TIP3   OH228136   2.480   3.725   6.334
 9398TIP3    H128137   2.405   3.779   6.359
 9398TIP3    H228138   2.527   3.709   6.416
 9399TIP3   OH228139   0.070   1.399   3.791
 9399TIP3    H128140   0.042   1.374   3.879
 9399TIP3    H228141   0.122   1.325   3.760
 9400TIP3   OH228142   2.995   7.331   5.646
 9400TIP3    H128143   3.038   7.394   5.704
 9400TIP3    H228144   3.032   7.350   5.560
 9401TIP3   OH228145   4.200   0.780   6.625
 9401TIP3    H128146   4.107   0.789   6.609
 9401TIP3    H228147   4.240   0.777   6.538
 9402TIP3   OH228148   0.173   4.025   1.556
 9402TIP3    H128149   0.238   4.016   1.627
 9402TIP3    H228150   0.190   4.111   1.520
 9403TIP3   OH228151   4.164   3.086   2.599
 9403TIP3    H128152   4.130   3.090   2.688
 9403TIP3    H228153   4.259   3.085   2.609
 9404TIP3   OH228154   7.486   3.494   3.381
 9404TIP3    H128155   7.483   3.405   3.345
 9404TIP3    H228156   7.402   3.504   3.426
 9405TIP3   OH228157   5.693   0.807   3.798
 9405TIP3    H128158   5.740   0.887   3.775
 9405TIP3    H228159   5.737   0.775   3.877
 9406TIP3   OH228160   3.169   3.015   0.995
 9406TIP3    H128161   3.102   3.073   1.032
 9406TIP3    H228162   3.220   2.986   1.070
 9407TIP3   OH228163   1.153   6.090   3.027
 9407TIP3    H128164   1.246   6.075   3.009
 9407TIP3    H228165   1.150   6.112   3.120
 9408TIP3   OH228166   3.996   1.678   3.899
 9408TIP3    H128167   3.967   1.723   3.821
 9408TIP3    H228168   3.935   1.706   3.968
 9409TIP3   OH228169   4.894   1.769   1.326
 9409TIP3    H128170   4.929   1.716   1.255
 9409TIP3    H228171   4.886   1.708   1.400
 9410TIP3   OH228172   3.536   5.953   0.083
 9410TIP3    H128173   3.522   5.863   0.055
 9410TIP3    H228174   3.508   6.006   0.008
 9411TIP3   OH228175   0.884   1.904   3.906
 9411TIP3    H128176   0.945   1.969   3.873
 9411TIP3    H228177   0.841   1.869   3.828
 9412TIP3   OH228178   3.929   4.294   5.150
 9412TIP3    H128179   3.975   4.212   5.169
 9412TIP3    H228180   3.855   4.294   5.211
 9413TIP3   OH228181   5.092   0.385   1.030
 9413TIP3    H128182   5.101   0.310   0.970
 9413TIP3    H228183   5.160   0.370   1.096
 9414TIP3   OH228184   4.536   1.118   4.175
 9414TIP3    H128185   4.626   1.092   4.196
 9414TIP3    H228186   4.488   1.036   4.172
 9415TIP3   OH228187   8.173   6.878   0.115
 9415TIP3    H128188   8.172   6.800   0.060
 9415TIP3    H228189   8.147   6.950   0.057
 9416TIP3   OH228190   1.136   6.675   1.595
 9416TIP3    H128191   1.117   6.584   1.619
 9416TIP3    H228192   1.231   6.677   1.585
 9417TIP3   OH228193   4.339   6.319   5.291
 9417TIP3    H128194   4.292   6.394   5.328
 9417TIP3    H228195   4.402   6.295   5.359
 9418TIP3   OH228196   4.557   0.070   1.851
 9418TIP3    H128197   4.640   0.115   1.868
 9418TIP3    H228198   4.538   0.024   1.933
 9419TIP3   OH228199   1.595   5.501   2.970
 9419TIP3    H128200   1.613   5.420   2.922
 9419TIP3    H228201   1.680   5.543   2.978
 9420TIP3   OH228202   0.096   1.858   3.562
 9420TIP3    H128203   0.131   1.933   3.610
 9420TIP3    H228204   0.109   1.784   3.620
 9421TIP3   OH228205   6.869   7.539   0.147
 9421TIP3    H128206   6.819   7.556   0.227
 9421TIP3    H228207   6.877   7.444   0.144
 9422TIP3   OH228208   3.335   7.099   2.257
 9422TIP3    H128209   3.419   7.077   2.297
 9422TIP3    H228210   3.271   7.090   2.328
 9423TIP3   OH228211   3.509   1.532   2.442
 9423TIP3    H128212   3.486   1.526   2.349
 9423TIP3    H228213   3.597   1.496   2.448
 9424TIP3   OH228214   2.863   2.972   4.940
 9424TIP3    H128215   2.878   2.878   4.935
 9424TIP3    H228216   2.916   3.001   5.013
 9425TIP3   OH228217   5.554   6.389   4.814
 9425TIP3    H128218   5.605   6.308   4.820
 9425TIP3    H228219   5.471   6.362   4.775
 9426TIP3   OH228220   6.225   3.897   2.886
 9426TIP3    H128221   6.190   3.824   2.937
 9426TIP3    H228222   6.196   3.880   2.796
 9427TIP3   OH228223   0.797   2.998   4.083
 9427TIP3    H128224   0.788   2.947   4.164
 9427TIP3    H228225   0.834   3.082   4.112
 9428TIP3   OH228226   2.121   7.688   1.265
 9428TIP3    H128227   2.030   7.697   1.294
 9428TIP3    H228228   2.120   7.611   1.208
 9429TIP3   OH228229   7.079   5.190   2.026
 9429TIP3    H128230   7.014   5.136   2.071
 9429TIP3    H228231   7.119   5.241   2.095
 9430TIP3   OH228232   1.868   5.999   5.306
 9430TIP3    H128233   1.886   6.009   5.212
 9430TIP3    H228234   1.859   5.905   5.319
 9431TIP3   OH228235   4.256   7.554   0.265
 9431TIP3    H128236   4.177   7.516   0.227
 9431TIP3    H228237   4.260   7.643   0.230
 9432TIP3   OH228238   4.247   3.918   6.128
 9432TIP3    H128239   4.342   3.907   6.133
 9432TIP3    H228240   4.234   4.009   6.102
 9433TIP3   OH228241   3.044   3.877   2.809
 9433TIP3    H128242   3.111   3.905   2.747
 9433TIP3    H228243   2.976   3.944   2.802
 9434TIP3   OH228244   4.433   3.132   0.059
 9434TIP3    H128245   4.352   3.158   0.103
 9434TIP3    H228246   4.483   3.085   0.126
 9435TIP3   OH228247   3.772   4.825   3.262
 9435TIP3    H128248   3.765   4.920   3.249
 9435TIP3    H228249   3.761   4.813   3.356
 9436TIP3   OH228250   4.559   5.764   3.972
 9436TIP3    H128251   4.556   5.725   3.884
 9436TIP3    H228252   4.483   5.728   4.017
 9437TIP3   OH228253   0.400   6.840   0.795
 9437TIP3    H128254   0.471   6.886   0.750
 9437TIP3    H228255   0.355   6.792   0.725
 9438TIP3   OH228256   3.545   4.421   3.597
 9438TIP3    H128257   3.480   4.492   3.594
 9438TIP3    H228258   3.583   4.429   3.685
 9439TIP3   OH228259   4.445   5.604   3.165
 9439TIP3    H128260   4.376   5.671   3.161
 9439TIP3    H228261   4.488   5.609   3.080
 9440TIP3   OH228262   1.971   2.751   2.654
 9440TIP3    H128263   1.964   2.749   2.749
 9440TIP3    H228264   1.884   2.779   2.625
 9441TIP3   OH228265  -0.008   5.401   3.296
 9441TIP3    H128266   0.032   5.485   3.275
 9441TIP3    H228267   0.002   5.349   3.217
 9442TIP3   OH228268   3.119   1.822   6.298
 9442TIP3    H128269   3.037   1.790   6.261
 9442TIP3    H228270   3.121   1.785   6.386
 9443TIP3   OH228271   6.564   2.734   0.165
 9443TIP3    H128272   6.492   2.729   0.103
 9443TIP3    H228273   6.579   2.643   0.192
 9444TIP3   OH228274   4.852   7.733   1.369
 9444TIP3    H128275   4.946   7.720   1.374
 9444TIP3    H228276   4.840   7.805   1.308
 9445TIP3   OH228277   5.941   4.056   1.630
 9445TIP3    H128278   5.915   4.142   1.595
 9445TIP3    H228279   6.019   4.074   1.682
 9446TIP3   OH228280   7.395   2.924   4.850
 9446TIP3    H128281   7.431   2.984   4.915
 9446TIP3    H228282   7.343   2.862   4.901
 9447TIP3   OH228283   3.947   2.058   5.658
 9447TIP3    H128284   3.990   1.983   5.699
 9447TIP3    H228285   3.856   2.032   5.649
 9448TIP3   OH228286   0.523   1.100   3.960
 9448TIP3    H128287   0.533   1.116   4.054
 9448TIP3    H228288   0.429   1.095   3.946
 9449TIP3   OH228289   7.722   1.025   2.844
 9449TIP3    H128290   7.771   0.968   2.785
 9449TIP3    H228291   7.631   0.995   2.837
 9450TIP3   OH228292   5.864   4.228   0.020
 9450TIP3    H128293   5.885   4.321   0.011
 9450TIP3    H228294   5.942   4.183  -0.013
 9451TIP3   OH228295   5.523   4.222   4.417
 9451TIP3    H128296   5.434   4.239   4.386
 9451TIP3    H228297   5.540   4.291   4.481
 9452TIP3   OH228298   0.930   0.021   0.601
 9452TIP3    H128299   0.931  -0.042   0.673
 9452TIP3    H228300   0.845   0.065   0.609
 9453TIP3   OH228301   2.194   6.958   6.103
 9453TIP3    H128302   2.190   6.877   6.053
 9453TIP3    H228303   2.278   6.953   6.149
 9454TIP3   OH228304   2.876   6.363   4.630
 9454TIP3    H128305   2.948   6.425   4.625
 9454TIP3    H228306   2.821   6.396   4.702
 9455TIP3   OH228307   6.246   0.133   6.387
 9455TIP3    H128308   6.222   0.111   6.297
 9455TIP3    H228309   6.335   0.169   6.379
 9456TIP3   OH228310   6.514   0.260   6.377
 9456TIP3    H128311   6.568   0.223   6.307
 9456TIP3    H228312   6.558   0.341   6.402
 9457TIP3   OH228313   7.337   2.573   2.921
 9457TIP3    H128314   7.295   2.659   2.916
 9457TIP3    H228315   7.264   2.511   2.920
 9458TIP3   OH228316   4.753   4.417   1.564
 9458TIP3    H128317   4.665   4.434   1.598
 9458TIP3    H228318   4.739   4.407   1.469
 9459TIP3   OH228319   0.264   5.542   3.932
 9459TIP3    H128320   0.216   5.460   3.923
 9459TIP3    H228321   0.230   5.598   3.863
 9460TIP3   OH228322   4.572   3.445   2.343
 9460TIP3    H128323   4.508   3.506   2.379
 9460TIP3    H228324   4.649   3.500   2.324
 9461TIP3   OH228325   7.143   2.920   6.166
 9461TIP3    H128326   7.126   2.827   6.181
 9461TIP3    H228327   7.080   2.944   6.097
 9462TIP3   OH228328   3.624   3.508   0.787
 9462TIP3    H128329   3.691   3.441   0.772
 9462TIP3    H228330   3.577   3.477   0.864
 9463TIP3   OH228331   0.595   5.687   5.691
 9463TIP3    H128332   0.501   5.691   5.677
 9463TIP3    H228333   0.605   5.689   5.787
 9464TIP3   OH228334   6.876   3.075   0.617
 9464TIP3    H128335   6.934   3.047   0.687
 9464TIP3    H228336   6.934   3.102   0.546
 9465TIP3   OH228337   5.715   7.297   4.063
 9465TIP3    H128338   5.666   7.296   4.146
 9465TIP3    H228339   5.761   7.380   4.064
 9466TIP3   OH228340   2.648   7.433   0.010
 9466TIP3    H128341   2.678   7.343   0.023
 9466TIP3    H228342   2.560   7.423  -0.027
 9467TIP3   OH228343   3.365   4.311   5.974
 9467TIP3    H128344   3.273   4.302   6.000
 9467TIP3    H228345   3.402   4.375   6.035
 9468TIP3   OH228346   2.758   5.677   5.010
 9468TIP3    H128347   2.687   5.630   5.053
 9468TIP3    H228348   2.824   5.688   5.078
 9469TIP3   OH228349   7.813   7.026   6.160
 9469TIP3    H128350   7.814   7.087   6.233
 9469TIP3    H228351   7.876   6.958   6.184
 9470TIP3   OH228352   2.365   0.161   1.721
 9470TIP3    H128353   2.328   0.114   1.647
 9470TIP3    H228354   2.314   0.133   1.796
 9471TIP3   OH228355   6.262   4.928   6.744
 9471TIP3    H128356   6.229   5.012   6.775
 9471TIP3    H228357   6.331   4.904   6.807
 9472TIP3   OH228358   3.705   4.951   3.517
 9472TIP3    H128359   3.684   4.916   3.604
 9472TIP3    H228360   3.801   4.947   3.512
 9473TIP3   OH228361   5.754   3.567   4.019
 9473TIP3    H128362   5.820   3.622   4.060
 9473TIP3    H228363   5.671   3.609   4.041
 9474TIP3   OH228364   6.947   0.730   3.632
 9474TIP3    H128365   6.944   0.823   3.609
 9474TIP3    H228366   6.979   0.729   3.722
 9475TIP3   OH228367   5.986   0.057  -0.026
 9475TIP3    H128368   6.032   0.088   0.052
 9475TIP3    H228369   5.947  -0.026   0.000
 9476TIP3   OH228370   2.010   2.319   1.158
 9476TIP3    H128371   1.940   2.367   1.203
 9476TIP3    H228372   1.966   2.243   1.119
 9477TIP3   OH228373   4.159   1.428   3.233
 9477TIP3    H128374   4.229   1.471   3.283
 9477TIP3    H228375   4.079   1.448   3.281
 9478TIP3   OH228376   4.599   3.773   5.977
 9478TIP3    H128377   4.665   3.816   6.032
 9478TIP3    H228378   4.630   3.683   5.968
 9479TIP3   OH228379   3.494   5.378   5.448
 9479TIP3    H128380   3.473   5.351   5.358
 9479TIP3    H228381   3.412   5.367   5.496
 9480TIP3   OH228382   0.562   5.030   3.632
 9480TIP3    H128383   0.561   4.957   3.694
 9480TIP3    H228384   0.625   5.003   3.565
 9481TIP3   OH228385   0.083   2.049   1.180
 9481TIP3    H128386   0.060   1.964   1.143
 9481TIP3    H228387   0.170   2.068   1.144
 9482TIP3   OH228388   5.273   0.868   0.383
 9482TIP3    H128389   5.240   0.872   0.293
 9482TIP3    H228390   5.202   0.904   0.436
 9483TIP3   OH228391   3.599   1.507   3.273
 9483TIP3    H128392   3.619   1.533   3.183
 9483TIP3    H228393   3.576   1.415   3.267
 9484TIP3   OH228394   6.076   4.771   5.527
 9484TIP3    H128395   6.142   4.731   5.471
 9484TIP3    H228396   6.005   4.795   5.467
 9485TIP3   OH228397   2.359   2.138   4.192
 9485TIP3    H128398   2.279   2.088   4.177
 9485TIP3    H228399   2.429   2.084   4.156
 9486TIP3   OH228400   5.700   6.995   3.395
 9486TIP3    H128401   5.785   6.975   3.357
 9486TIP3    H228402   5.713   7.078   3.441
 9487TIP3   OH228403   7.881   5.313   1.643
 9487TIP3    H128404   7.814   5.279   1.583
 9487TIP3    H228405   7.875   5.256   1.720
 9488TIP3   OH228406   7.046   4.048   2.258
 9488TIP3    H128407   7.055   4.020   2.349
 9488TIP3    H228408   6.979   4.116   2.261
 9489TIP3   OH228409   2.040   4.703   0.557
 9489TIP3    H128410   2.000   4.683   0.642
 9489TIP3    H228411   1.979   4.765   0.516
 9490TIP3   OH228412   2.473   3.897   4.710
 9490TIP3    H128413   2.497   3.891   4.802
 9490TIP3    H228414   2.377   3.891   4.710
 9491TIP3   OH228415   1.774   5.098   4.256
 9491TIP3    H128416   1.738   5.073   4.342
 9491TIP3    H228417   1.860   5.056   4.254
 9492TIP3   OH228418   6.226   7.295   5.198
 9492TIP3    H128419   6.272   7.265   5.277
 9492TIP3    H228420   6.134   7.301   5.224
 9493TIP3   OH228421   5.299   1.995   4.299
 9493TIP3    H128422   5.335   2.083   4.291
 9493TIP3    H228423   5.374   1.940   4.322
 9494TIP3   OH228424   2.934   4.530   1.660
 9494TIP3    H128425   2.891   4.541   1.576
 9494TIP3    H228426   2.863   4.538   1.724
 9495TIP3   OH228427   5.333   0.986   2.468
 9495TIP3    H128428   5.371   0.900   2.482
 9495TIP3    H228429   5.239   0.969   2.457
 9496TIP3   OH228430   2.024   0.946   6.087
 9496TIP3    H128431   2.040   0.952   5.993
 9496TIP3    H228432   1.932   0.921   6.095
 9497TIP3   OH228433   3.585   6.343   2.131
 9497TIP3    H128434   3.574   6.430   2.169
 9497TIP3    H228435   3.539   6.284   2.191
 9498TIP3   OH228436   5.897   6.048   0.102
 9498TIP3    H128437   5.856   6.115   0.157
 9498TIP3    H228438   5.825   6.008   0.054
 9499TIP3   OH228439   7.703   4.875   1.247
 9499TIP3    H128440   7.631   4.833   1.294
 9499TIP3    H228441   7.765   4.805   1.228
 9500TIP3   OH228442   5.770   2.459   4.727
 9500TIP3    H128443   5.806   2.486   4.642
 9500TIP3    H228444   5.841   2.409   4.768
 9501TIP3   OH228445   3.285   1.671   4.993
 9501TIP3    H128446   3.272   1.599   4.932
 9501TIP3    H228447   3.244   1.746   4.952
 9502TIP3   OH228448   6.240   5.774   2.309
 9502TIP3    H128449   6.205   5.783   2.397
 9502TIP3    H228450   6.318   5.829   2.308
 9503TIP3   OH228451   6.754   1.597   3.259
 9503TIP3    H128452   6.777   1.580   3.168
 9503TIP3    H228453   6.833   1.574   3.308
 9504TIP3   OH228454   5.498   2.563   4.058
 9504TIP3    H128455   5.582   2.563   4.103
 9504TIP3    H228456   5.477   2.656   4.046
 9505TIP3   OH228457   7.883   1.432   2.082
 9505TIP3    H128458   7.895   1.363   2.148
 9505TIP3    H228459   7.960   1.425   2.026
 9506TIP3   OH228460   6.839   6.518   3.318
 9506TIP3    H128461   6.808   6.575   3.389
 9506TIP3    H228462   6.760   6.474   3.286
 9507TIP3   OH228463   1.778   0.567   5.771
 9507TIP3    H128464   1.781   0.471   5.768
 9507TIP3    H228465   1.769   0.587   5.864
 9508TIP3   OH228466   3.997   7.251   3.329
 9508TIP3    H128467   3.923   7.311   3.322
 9508TIP3    H228468   3.986   7.191   3.255
 9509TIP3   OH228469   0.868   4.870   3.711
 9509TIP3    H128470   0.826   4.890   3.628
 9509TIP3    H228471   0.960   4.891   3.698
 9510TIP3   OH228472   7.662   4.455   0.876
 9510TIP3    H128473   7.754   4.441   0.851
 9510TIP3    H228474   7.612   4.414   0.806
 9511TIP3   OH228475   2.165   6.389   1.104
 9511TIP3    H128476   2.206   6.375   1.018
 9511TIP3    H228477   2.232   6.362   1.167
 9512TIP3   OH228478   4.551   1.879   5.217
 9512TIP3    H128479   4.634   1.873   5.265
 9512TIP3    H228480   4.489   1.913   5.281
 9513TIP3   OH228481   7.667   1.215   3.854
 9513TIP3    H128482   7.736   1.281   3.845
 9513TIP3    H228483   7.631   1.230   3.942
 9514TIP3   OH228484   6.493   0.969   6.085
 9514TIP3    H128485   6.405   1.000   6.067
 9514TIP3    H228486   6.486   0.919   6.166
 9515TIP3   OH228487   5.543   2.628   6.008
 9515TIP3    H128488   5.573   2.579   6.085
 9515TIP3    H228489   5.449   2.635   6.020
 9516TIP3   OH228490   1.614   5.962   0.745
 9516TIP3    H128491   1.519   5.959   0.754
 9516TIP3    H228492   1.646   5.985   0.832
 9517TIP3   OH228493   4.508   1.812   3.133
 9517TIP3    H128494   4.438   1.788   3.193
 9517TIP3    H228495   4.494   1.906   3.116
 9518TIP3   OH228496   7.938   6.954   3.246
 9518TIP3    H128497   7.906   6.864   3.232
 9518TIP3    H228498   7.859   7.004   3.267
 9519TIP3   OH228499   8.142   0.657   1.674
 9519TIP3    H128500   8.139   0.630   1.582
 9519TIP3    H228501   8.163   0.750   1.670
 9520TIP3   OH228502   7.879   6.464   4.991
 9520TIP3    H128503   7.860   6.447   4.899
 9520TIP3    H228504   7.972   6.489   4.991
 9521TIP3   OH228505   5.261   5.546   2.593
 9521TIP3    H128506   5.274   5.503   2.508
 9521TIP3    H228507   5.166   5.550   2.604
 9522TIP3   OH228508   4.927   7.221   3.108
 9522TIP3    H128509   4.981   7.201   3.032
 9522TIP3    H228510   4.854   7.272   3.072
 9523TIP3   OH228511   3.782   7.196   0.965
 9523TIP3    H128512   3.871   7.187   1.000
 9523TIP3    H228513   3.739   7.114   0.988
 9524TIP3   OH228514   6.024   1.787   4.779
 9524TIP3    H128515   6.007   1.694   4.794
 9524TIP3    H228516   5.997   1.802   4.688
 9525TIP3   OH228517   2.497   7.130   5.501
 9525TIP3    H128518   2.471   7.093   5.585
 9525TIP3    H228519   2.584   7.168   5.516
 9526TIP3   OH228520   2.782   4.978   6.137
 9526TIP3    H128521   2.783   4.994   6.043
 9526TIP3    H228522   2.709   4.917   6.150
 9527TIP3   OH228523   4.023   4.766   5.879
 9527TIP3    H128524   4.019   4.765   5.975
 9527TIP3    H228525   3.946   4.816   5.853
 9528TIP3   OH228526   7.769   7.396   3.350
 9528TIP3    H128527   7.716   7.362   3.422
 9528TIP3    H228528   7.723   7.367   3.270
 9529TIP3   OH228529   5.401   6.508   2.851
 9529TIP3    H128530   5.390   6.570   2.923
 9529TIP3    H228531   5.322   6.517   2.799
 9530TIP3   OH228532   7.094   2.302   1.644
 9530TIP3    H128533   7.154   2.229   1.662
 9530TIP3    H228534   7.101   2.316   1.550
 9531TIP3   OH228535   6.640   3.337   5.310
 9531TIP3    H128536   6.725   3.381   5.308
 9531TIP3    H228537   6.660   3.244   5.309
 9532TIP3   OH228538   0.235   6.873   6.017
 9532TIP3    H128539   0.205   6.824   5.941
 9532TIP3    H228540   0.327   6.849   6.026
 9533TIP3   OH228541   0.895   3.907   3.330
 9533TIP3    H128542   0.853   3.829   3.295
 9533TIP3    H228543   0.830   3.946   3.388
 9534TIP3   OH228544   3.302   3.108   4.513
 9534TIP3    H128545   3.213   3.135   4.490
 9534TIP3    H228546   3.314   3.139   4.603
 9535TIP3   OH228547   6.377   6.053   4.529
 9535TIP3    H128548   6.299   6.098   4.561
 9535TIP3    H228549   6.363   5.961   4.553
 9536TIP3   OH228550   0.537   1.359   0.115
 9536TIP3    H128551   0.563   1.267   0.120
 9536TIP3    H228552   0.554   1.393   0.203
 9537TIP3   OH228553   1.536   1.522   3.065
 9537TIP3    H128554   1.622   1.497   3.100
 9537TIP3    H228555   1.481   1.529   3.143
 9538TIP3   OH228556   6.924   0.249   1.276
 9538TIP3    H128557   6.924   0.248   1.181
 9538TIP3    H228558   6.987   0.182   1.301
 9539TIP3   OH228559   8.187   4.522   4.182
 9539TIP3    H128560   8.202   4.480   4.266
 9539TIP3    H228561   8.108   4.575   4.195
 9540TIP3   OH228562   2.581   7.599   3.001
 9540TIP3    H128563   2.649   7.632   2.943
 9540TIP3    H228564   2.628   7.568   3.079
 9541TIP3   OH228565   3.964   1.012   3.227
 9541TIP3    H128566   4.053   1.011   3.192
 9541TIP3    H228567   3.924   1.090   3.189
 9542TIP3   OH228568   6.278   3.529   1.530
 9542TIP3    H128569   6.266   3.479   1.450
 9542TIP3    H228570   6.298   3.464   1.597
 9543TIP3   OH228571   5.038   6.602   3.828
 9543TIP3    H128572   4.986   6.611   3.908
 9543TIP3    H228573   4.984   6.548   3.771
 9544TIP3   OH228574   1.597   4.328   1.599
 9544TIP3    H128575   1.673   4.282   1.635
 9544TIP3    H228576   1.544   4.259   1.559
 9545TIP3   OH228577   1.692   5.740   5.935
 9545TIP3    H128578   1.631   5.759   6.006
 9545TIP3    H228579   1.764   5.691   5.977
 9546TIP3   OH228580   6.499   3.697   3.728
 9546TIP3    H128581   6.526   3.704   3.819
 9546TIP3    H228582   6.403   3.696   3.731
 9547TIP3   OH228583   1.656   6.120   1.056
 9547TIP3    H128584   1.714   6.149   1.126
 9547TIP3    H228585   1.572   6.102   1.100
 9548TIP3   OH228586   0.877   1.798   3.165
 9548TIP3    H128587   0.971   1.807   3.177
 9548TIP3    H228588   0.851   1.729   3.226
 9549TIP3   OH228589   4.131   3.852   2.673
 9549TIP3    H128590   4.116   3.788   2.743
 9549TIP3    H228591   4.122   3.937   2.715
 9550TIP3   OH228592   3.990   6.128   0.830
 9550TIP3    H128593   3.970   6.041   0.866
 9550TIP3    H228594   3.969   6.121   0.737
 9551TIP3   OH228595   4.656   5.813   6.006
 9551TIP3    H128596   4.671   5.904   5.980
 9551TIP3    H228597   4.652   5.816   6.101
 9552TIP3   OH228598   0.904   3.698   5.415
 9552TIP3    H128599   0.982   3.733   5.371
 9552TIP3    H228600   0.860   3.647   5.347
 9553TIP3   OH228601   4.659   7.029   1.917
 9553TIP3    H128602   4.707   7.071   1.988
 9553TIP3    H228603   4.658   6.936   1.940
 9554TIP3   OH228604   5.579   5.433   6.590
 9554TIP3    H128605   5.606   5.519   6.622
 9554TIP3    H228606   5.559   5.384   6.670
 9555TIP3   OH228607   1.824   3.437   4.804
 9555TIP3    H128608   1.884   3.467   4.735
 9555TIP3    H228609   1.879   3.383   4.860
 9556TIP3   OH228610   4.370   2.745   1.614
 9556TIP3    H128611   4.367   2.776   1.523
 9556TIP3    H228612   4.416   2.814   1.661
 9557TIP3   OH228613   1.115   4.683   5.878
 9557TIP3    H128614   1.167   4.617   5.926
 9557TIP3    H228615   1.072   4.734   5.947
 9558TIP3   OH228616   3.366   7.520   3.551
 9558TIP3    H128617   3.354   7.610   3.520
 9558TIP3    H228618   3.329   7.520   3.639
 9559TIP3   OH228619   4.910   4.141   1.116
 9559TIP3    H128620   4.832   4.156   1.063
 9559TIP3    H228621   4.876   4.126   1.205
 9560TIP3   OH228622   5.341   0.293   1.112
 9560TIP3    H128623   5.332   0.260   1.202
 9560TIP3    H228624   5.406   0.363   1.118
 9561TIP3   OH228625   7.722   4.559   0.338
 9561TIP3    H128626   7.769   4.641   0.357
 9561TIP3    H228627   7.774   4.491   0.381
 9562TIP3   OH228628   3.730   6.350   6.666
 9562TIP3    H128629   3.685   6.412   6.608
 9562TIP3    H228630   3.777   6.406   6.728
 9563TIP3   OH228631   0.952   4.708   5.626
 9563TIP3    H128632   0.910   4.776   5.679
 9563TIP3    H228633   1.043   4.709   5.655
 9564TIP3   OH228634   0.422   5.415   3.618
 9564TIP3    H128635   0.498   5.357   3.612
 9564TIP3    H228636   0.371   5.395   3.539
 9565TIP3   OH228637   3.299   4.850   1.874
 9565TIP3    H128638   3.299   4.885   1.785
 9565TIP3    H228639   3.210   4.814   1.886
 9566TIP3   OH228640   0.955   1.453   0.172
 9566TIP3    H128641   0.895   1.503   0.117
 9566TIP3    H228642   1.012   1.407   0.110
 9567TIP3   OH228643   3.913   4.472   3.814
 9567TIP3    H128644   3.889   4.432   3.730
 9567TIP3    H228645   3.835   4.462   3.868
 9568TIP3   OH228646   1.991   5.263   3.588
 9568TIP3    H128647   1.954   5.175   3.585
 9568TIP3    H228648   2.020   5.273   3.679
 9569TIP3   OH228649   6.290   2.682   5.344
 9569TIP3    H128650   6.309   2.607   5.401
 9569TIP3    H228651   6.317   2.758   5.395
 9570TIP3   OH228652   2.150   4.966   3.440
 9570TIP3    H128653   2.217   4.899   3.454
 9570TIP3    H228654   2.090   4.956   3.514
 9571TIP3   OH228655   1.338   0.445   2.512
 9571TIP3    H128656   1.244   0.432   2.522
 9571TIP3    H228657   1.355   0.426   2.419
 9572TIP3   OH228658   1.688   5.216   1.192
 9572TIP3    H128659   1.763   5.169   1.156
 9572TIP3    H228660   1.723   5.301   1.219
 9573TIP3   OH228661   0.139   6.077   4.931
 9573TIP3    H128662   0.044   6.068   4.938
 9573TIP3    H228663   0.170   5.989   4.915
 9574TIP3   OH228664   1.579   5.457   0.673
 9574TIP3    H128665   1.614   5.545   0.665
 9574TIP3    H228666   1.630   5.404   0.612
 9575TIP3   OH228667   3.738   5.533   0.498
 9575TIP3    H128668   3.737   5.541   0.593
 9575TIP3    H228669   3.820   5.575   0.471
 9576TIP3   OH228670   2.911   7.631   6.296
 9576TIP3    H128671   2.984   7.625   6.234
 9576TIP3    H228672   2.838   7.665   6.244
 9577TIP3   OH228673   7.042   6.940   4.796
 9577TIP3    H128674   7.065   6.965   4.706
 9577TIP3    H228675   6.952   6.908   4.789
 9578TIP3   OH228676   4.322   3.293   2.479
 9578TIP3    H128677   4.240   3.300   2.529
 9578TIP3    H228678   4.367   3.219   2.519
 9579TIP3   OH228679   8.290   4.816   1.455
 9579TIP3    H128680   8.195   4.803   1.464
 9579TIP3    H228681   8.299   4.905   1.422
 9580TIP3   OH228682   5.596   6.447   0.004
 9580TIP3    H128683   5.609   6.509   0.075
 9580TIP3    H228684   5.517   6.478  -0.041
 9581TIP3   OH228685   5.722   6.978  -0.009
 9581TIP3    H128686   5.770   6.895  -0.016
 9581TIP3    H228687   5.767   7.025   0.062
 9582TIP3   OH228688   8.106   7.039   1.551
 9582TIP3    H128689   8.121   7.065   1.642
 9582TIP3    H228690   8.193   7.034   1.512
 9583TIP3   OH228691   3.305   7.180   2.809
 9583TIP3    H128692   3.325   7.270   2.833
 9583TIP3    H228693   3.335   7.127   2.883
 9584TIP3   OH228694   6.357   6.835   3.455
 9584TIP3    H128695   6.348   6.779   3.532
 9584TIP3    H228696   6.270   6.874   3.444
 9585TIP3   OH228697   4.567   4.297   2.337
 9585TIP3    H128698   4.625   4.366   2.368
 9585TIP3    H228699   4.483   4.314   2.380
 9586TIP3   OH228700   7.279   1.290   2.261
 9586TIP3    H128701   7.290   1.305   2.355
 9586TIP3    H228702   7.234   1.206   2.254
 9587TIP3   OH228703   4.493   3.672   3.129
 9587TIP3    H128704   4.574   3.661   3.080
 9587TIP3    H228705   4.432   3.711   3.067
 9588TIP3   OH228706   1.407   1.208   3.775
 9588TIP3    H128707   1.424   1.116   3.793
 9588TIP3    H228708   1.452   1.225   3.692
 9589TIP3   OH228709   7.880   2.168   5.766
 9589TIP3    H128710   7.892   2.218   5.847
 9589TIP3    H228711   7.790   2.186   5.740
 9590TIP3   OH228712   0.142   2.571   1.560
 9590TIP3    H128713   0.054   2.592   1.590
 9590TIP3    H228714   0.192   2.652   1.575
 9591TIP3   OH228715   1.479   5.892   0.091
 9591TIP3    H128716   1.540   5.863   0.023
 9591TIP3    H228717   1.489   5.829   0.162
 9592TIP3   OH228718   6.620   0.633   2.511
 9592TIP3    H128719   6.593   0.579   2.437
 9592TIP3    H228720   6.695   0.682   2.480
 9593TIP3   OH228721   0.022   7.156   3.354
 9593TIP3    H128722   0.061   7.218   3.416
 9593TIP3    H228723  -0.064   7.136   3.392
 9594TIP3   OH228724   5.367   0.603   0.426
 9594TIP3    H128725   5.350   0.693   0.399
 9594TIP3    H228726   5.369   0.606   0.521
 9595TIP3   OH228727   6.874   7.503   1.426
 9595TIP3    H128728   6.953   7.453   1.448
 9595TIP3    H228729   6.906   7.577   1.373
 9596TIP3   OH228730   1.895   1.866   4.048
 9596TIP3    H128731   1.848   1.869   3.965
 9596TIP3    H228732   1.827   1.868   4.115
 9597TIP3   OH228733   5.516   4.982   0.818
 9597TIP3    H128734   5.475   5.061   0.784
 9597TIP3    H228735   5.455   4.912   0.793
 9598TIP3   OH228736   6.717   4.738   1.305
 9598TIP3    H128737   6.721   4.830   1.330
 9598TIP3    H228738   6.717   4.690   1.388
 9599TIP3   OH228739   6.707   0.816   6.151
 9599TIP3    H128740   6.798   0.814   6.119
 9599TIP3    H228741   6.656   0.845   6.075
 9600TIP3   OH228742   3.278   7.648   1.317
 9600TIP3    H128743   3.325   7.569   1.291
 9600TIP3    H228744   3.234   7.625   1.399
 9601TIP3   OH228745   5.086   6.269   1.073
 9601TIP3    H128746   5.066   6.347   1.125
 9601TIP3    H228747   5.067   6.295   0.983
 9602TIP3   OH228748   0.291   4.158   4.010
 9602TIP3    H128749   0.345   4.158   4.089
 9602TIP3    H228750   0.218   4.216   4.031
 9603TIP3   OH228751   7.225   4.897   6.688
 9603TIP3    H128752   7.320   4.892   6.692
 9603TIP3    H228753   7.206   4.918   6.597
 9604TIP3   OH228754   3.279   6.564   4.224
 9604TIP3    H128755   3.361   6.517   4.241
 9604TIP3    H228756   3.221   6.498   4.186
 9605TIP3   OH228757   3.014   3.585   3.102
 9605TIP3    H128758   2.955   3.654   3.073
 9605TIP3    H228759   2.962   3.531   3.160
 9606TIP3   OH228760   8.017   5.164   0.051
 9606TIP3    H128761   8.080   5.233   0.072
 9606TIP3    H228762   8.049   5.125  -0.030
 9607TIP3   OH228763   8.316   4.037   4.420
 9607TIP3    H128764   8.346   3.949   4.398
 9607TIP3    H228765   8.231   4.024   4.463
 9608TIP3   OH228766   6.535   3.325   3.376
 9608TIP3    H128767   6.445   3.354   3.391
 9608TIP3    H228768   6.581   3.348   3.457
 9609TIP3   OH228769   2.353   6.914   0.770
 9609TIP3    H128770   2.445   6.889   0.771
 9609TIP3    H228771   2.305   6.833   0.753
 9610TIP3   OH228772   0.898   4.387   4.483
 9610TIP3    H128773   0.852   4.431   4.555
 9610TIP3    H228774   0.881   4.443   4.407
 9611TIP3   OH228775   2.594   6.998   2.183
 9611TIP3    H128776   2.655   6.992   2.256
 9611TIP3    H228777   2.643   6.965   2.108
 9612TIP3   OH228778   0.642   4.759   4.870
 9612TIP3    H128779   0.555   4.762   4.831
 9612TIP3    H228780   0.627   4.773   4.964
 9613TIP3   OH228781   4.669   1.218   2.920
 9613TIP3    H128782   4.642   1.300   2.961
 9613TIP3    H228783   4.717   1.172   2.988
 9614TIP3   OH228784   1.066   0.552   1.313
 9614TIP3    H128785   1.114   0.633   1.323
 9614TIP3    H228786   1.118   0.499   1.253
 9615TIP3   OH228787   0.685   2.135   6.323
 9615TIP3    H128788   0.676   2.203   6.255
 9615TIP3    H228789   0.661   2.054   6.278
 9616TIP3   OH228790   4.120   1.951   1.045
 9616TIP3    H128791   4.098   1.938   0.953
 9616TIP3    H228792   4.191   2.015   1.044
 9617TIP3   OH228793   0.726   4.766   1.139
 9617TIP3    H128794   0.696   4.682   1.174
 9617TIP3    H228795   0.681   4.775   1.055
 9618TIP3   OH228796   7.636   4.736   0.795
 9618TIP3    H128797   7.666   4.650   0.827
 9618TIP3    H228798   7.623   4.787   0.875
 9619TIP3   OH228799   7.154   0.905   1.629
 9619TIP3    H128800   7.238   0.948   1.637
 9619TIP3    H228801   7.110   0.949   1.557
 9620TIP3   OH228802   3.275   0.179   5.620
 9620TIP3    H128803   3.268   0.084   5.627
 9620TIP3    H228804   3.343   0.204   5.683
 9621TIP3   OH228805   7.791   5.804   3.003
 9621TIP3    H128806   7.843   5.754   2.940
 9621TIP3    H228807   7.702   5.770   2.993
 9622TIP3   OH228808   8.053   2.416   0.951
 9622TIP3    H128809   7.961   2.442   0.959
 9622TIP3    H228810   8.074   2.434   0.859
 9623TIP3   OH228811   0.494   0.683   3.272
 9623TIP3    H128812   0.463   0.748   3.209
 9623TIP3    H228813   0.444   0.604   3.252
 9624TIP3   OH228814   3.958   7.169   2.215
 9624TIP3    H128815   3.912   7.241   2.170
 9624TIP3    H228816   3.959   7.195   2.307
 9625TIP3   OH228817   4.488   3.163   6.279
 9625TIP3    H128818   4.476   3.212   6.360
 9625TIP3    H228819   4.399   3.150   6.246
 9626TIP3   OH228820   0.326   3.145   1.865
 9626TIP3    H128821   0.258   3.152   1.932
 9626TIP3    H228822   0.377   3.068   1.891
 9627TIP3   OH228823   5.884   7.504   4.177
 9627TIP3    H128824   5.839   7.580   4.141
 9627TIP3    H228825   5.954   7.541   4.230
 9628TIP3   OH228826   1.696   0.220   2.969
 9628TIP3    H128827   1.713   0.261   2.884
 9628TIP3    H228828   1.622   0.162   2.953
 9629TIP3   OH228829   3.301   4.644   5.710
 9629TIP3    H128830   3.374   4.680   5.760
 9629TIP3    H228831   3.340   4.576   5.655
 9630TIP3   OH228832   4.234   1.572   2.971
 9630TIP3    H128833   4.313   1.587   3.023
 9630TIP3    H228834   4.216   1.479   2.981
 9631TIP3   OH228835   7.107   5.735   2.566
 9631TIP3    H128836   7.193   5.753   2.528
 9631TIP3    H228837   7.126   5.718   2.659
 9632TIP3   OH228838   7.702  -0.001   2.602
 9632TIP3    H128839   7.762   0.045   2.543
 9632TIP3    H228840   7.716   0.040   2.687
 9633TIP3   OH228841   1.642   4.229   5.773
 9633TIP3    H128842   1.647   4.201   5.682
 9633TIP3    H228843   1.722   4.197   5.813
 9634TIP3   OH228844   4.487   0.743   6.648
 9634TIP3    H128845   4.396   0.771   6.637
 9634TIP3    H228846   4.514   0.716   6.561
 9635TIP3   OH228847   6.422   7.783   2.039
 9635TIP3    H128848   6.394   7.701   1.998
 9635TIP3    H228849   6.384   7.851   1.983
 9636TIP3   OH228850   2.825   7.190   3.322
 9636TIP3    H128851   2.814   7.241   3.402
 9636TIP3    H228852   2.920   7.178   3.314
 9637TIP3   OH228853   6.893   3.168   3.092
 9637TIP3    H128854   6.837   3.218   3.033
 9637TIP3    H228855   6.977   3.163   3.047
 9638TIP3   OH228856   3.106   0.986   4.946
 9638TIP3    H128857   3.183   1.035   4.974
 9638TIP3    H228858   3.141   0.915   4.892
 9639TIP3   OH228859   3.935   4.566   2.125
 9639TIP3    H128860   3.881   4.531   2.054
 9639TIP3    H228861   3.895   4.649   2.148
 9640TIP3   OH228862   3.572   3.699   2.985
 9640TIP3    H128863   3.489   3.652   2.991
 9640TIP3    H228864   3.570   3.740   2.898
 9641TIP3   OH228865   7.632   6.735   2.817
 9641TIP3    H128866   7.631   6.809   2.756
 9641TIP3    H228867   7.725   6.719   2.834
 9642TIP3   OH228868   0.387   2.439   6.672
 9642TIP3    H128869   0.341   2.515   6.637
 9642TIP3    H228870   0.424   2.470   6.755
 9643TIP3   OH228871   7.211   2.370   4.073
 9643TIP3    H128872   7.172   2.368   4.160
 9643TIP3    H228873   7.298   2.408   4.087
 9644TIP3   OH228874   0.017   1.218   4.343
 9644TIP3    H128875   0.015   1.276   4.419
 9644TIP3    H228876   0.108   1.188   4.339
 9645TIP3   OH228877   6.008   0.077   1.260
 9645TIP3    H128878   6.047  -0.010   1.269
 9645TIP3    H228879   5.939   0.079   1.326
 9646TIP3   OH228880   0.585   7.101   4.244
 9646TIP3    H128881   0.508   7.137   4.288
 9646TIP3    H228882   0.549   7.041   4.178
 9647TIP3   OH228883   2.672   3.448   3.422
 9647TIP3    H128884   2.650   3.361   3.389
 9647TIP3    H228885   2.747   3.476   3.369
 9648TIP3   OH228886   1.323   0.311   5.113
 9648TIP3    H128887   1.349   0.230   5.068
 9648TIP3    H228888   1.363   0.381   5.062
 9649TIP3   OH228889   4.876   1.134   4.405
 9649TIP3    H128890   4.908   1.059   4.355
 9649TIP3    H228891   4.869   1.204   4.341
 9650TIP3   OH228892   4.678   6.829   1.553
 9650TIP3    H128893   4.671   6.924   1.559
 9650TIP3    H228894   4.613   6.796   1.616
 9651TIP3   OH228895   2.987   6.867   3.274
 9651TIP3    H128896   3.019   6.945   3.320
 9651TIP3    H228897   3.066   6.820   3.248
 9652TIP3   OH228898   4.576   1.459   0.533
 9652TIP3    H128899   4.610   1.460   0.443
 9652TIP3    H228900   4.639   1.511   0.583
 9653TIP3   OH228901   5.819   1.827   3.966
 9653TIP3    H128902   5.907   1.815   3.932
 9653TIP3    H228903   5.822   1.911   4.012
 9654TIP3   OH228904   3.173   0.946   0.075
 9654TIP3    H128905   3.249   1.001   0.094
 9654TIP3    H228906   3.202   0.887   0.005
 9655TIP3   OH228907   4.987   4.379   4.642
 9655TIP3    H128908   5.013   4.449   4.701
 9655TIP3    H228909   5.007   4.299   4.690
 9656TIP3   OH228910   5.608   6.471   1.769
 9656TIP3    H128911   5.558   6.548   1.797
 9656TIP3    H228912   5.633   6.490   1.679
 9657TIP3   OH228913   5.217   2.100   1.853
 9657TIP3    H128914   5.313   2.098   1.847
 9657TIP3    H228915   5.200   2.147   1.935
 9658TIP3   OH228916   3.173   4.531   3.773
 9658TIP3    H128917   3.235   4.587   3.725
 9658TIP3    H228918   3.204   4.442   3.757
 9659TIP3   OH228919   6.393   6.368   0.213
 9659TIP3    H128920   6.448   6.321   0.150
 9659TIP3    H228921   6.455   6.413   0.270
 9660TIP3   OH228922   7.231   0.692   1.797
 9660TIP3    H128923   7.178   0.717   1.872
 9660TIP3    H228924   7.220   0.765   1.735
 9661TIP3   OH228925   5.243   6.543   4.928
 9661TIP3    H128926   5.326   6.572   4.965
 9661TIP3    H228927   5.228   6.456   4.965
 9662TIP3   OH228928   3.257   0.533   5.595
 9662TIP3    H128929   3.290   0.607   5.544
 9662TIP3    H228930   3.301   0.457   5.556
 9663TIP3   OH228931   7.018   5.248   3.273
 9663TIP3    H128932   7.029   5.228   3.180
 9663TIP3    H228933   7.090   5.308   3.293
 9664TIP3   OH228934   1.914   0.369   4.861
 9664TIP3    H128935   1.894   0.351   4.953
 9664TIP3    H228936   1.860   0.444   4.839
 9665TIP3   OH228937   6.076   1.076   1.284
 9665TIP3    H128938   6.022   1.066   1.362
 9665TIP3    H228939   6.061   0.995   1.234
 9666TIP3   OH228940   6.576   1.844   0.312
 9666TIP3    H128941   6.647   1.900   0.280
 9666TIP3    H228942   6.578   1.768   0.253
 9667TIP3   OH228943   6.371   4.075   3.264
 9667TIP3    H128944   6.379   4.042   3.354
 9667TIP3    H228945   6.355   3.997   3.211
 9668TIP3   OH228946   5.998   5.993   3.388
 9668TIP3    H128947   6.033   5.968   3.302
 9668TIP3    H228948   6.075   6.009   3.442
 9669TIP3   OH228949   2.727   1.708   2.404
 9669TIP3    H128950   2.698   1.678   2.490
 9669TIP3    H228951   2.822   1.702   2.407
 9670TIP3   OH228952   5.385   1.739   3.359
 9670TIP3    H128953   5.467   1.691   3.363
 9670TIP3    H228954   5.320   1.673   3.335
 9671TIP3   OH228955   2.774   5.973   1.743
 9671TIP3    H128956   2.725   6.023   1.678
 9671TIP3    H228957   2.709   5.915   1.783
 9672TIP3   OH228958   1.935   3.437   4.087
 9672TIP3    H128959   1.860   3.453   4.144
 9672TIP3    H228960   1.915   3.354   4.043
 9673TIP3   OH228961   1.244   6.449   4.954
 9673TIP3    H128962   1.271   6.529   4.910
 9673TIP3    H228963   1.298   6.445   5.032
 9674TIP3   OH228964   5.663   0.873   6.137
 9674TIP3    H128965   5.693   0.946   6.192
 9674TIP3    H228966   5.624   0.914   6.061
 9675TIP3   OH228967   4.195   5.642   2.626
 9675TIP3    H128968   4.186   5.618   2.718
 9675TIP3    H228969   4.279   5.689   2.622
 9676TIP3   OH228970   6.343   6.926   4.752
 9676TIP3    H128971   6.369   6.965   4.835
 9676TIP3    H228972   6.248   6.921   4.756
 9677TIP3   OH228973   3.146   0.124   2.946
 9677TIP3    H128974   3.162   0.166   2.862
 9677TIP3    H228975   3.099   0.190   2.997
 9678TIP3   OH228976   2.151   6.857   0.515
 9678TIP3    H128977   2.175   6.818   0.600
 9678TIP3    H228978   2.228   6.909   0.491
 9679TIP3   OH228979   1.862   0.578   5.134
 9679TIP3    H128980   1.885   0.538   5.217
 9679TIP3    H228981   1.938   0.631   5.110
 9680TIP3   OH228982   6.182   1.661   3.252
 9680TIP3    H128983   6.241   1.644   3.178
 9680TIP3    H228984   6.240   1.690   3.322
 9681TIP3   OH228985   4.955   5.891   2.207
 9681TIP3    H128986   4.969   5.980   2.176
 9681TIP3    H228987   4.946   5.839   2.127
 9682TIP3   OH228988   4.051   3.069   4.053
 9682TIP3    H128989   4.122   3.051   4.115
 9682TIP3    H228990   3.976   3.020   4.089
 9683TIP3   OH228991   8.272   6.738   6.563
 9683TIP3    H128992   8.232   6.667   6.512
 9683TIP3    H228993   8.350   6.699   6.602
 9684TIP3   OH228994   1.157   2.364   3.258
 9684TIP3    H128995   1.116   2.372   3.172
 9684TIP3    H228996   1.084   2.348   3.318
 9685TIP3   OH228997   2.671   6.062   5.265
 9685TIP3    H128998   2.709   6.077   5.178
 9685TIP3    H228999   2.621   6.142   5.283
 9686TIP3   OH229000   8.219   1.110   0.104
 9686TIP3    H129001   8.298   1.153   0.138
 9686TIP3    H229002   8.188   1.057   0.178
 9687TIP3   OH229003   0.535   1.626   6.520
 9687TIP3    H129004   0.488   1.570   6.581
 9687TIP3    H229005   0.627   1.614   6.543
 9688TIP3   OH229006   6.008   4.810   4.662
 9688TIP3    H129007   6.055   4.841   4.739
 9688TIP3    H229008   5.942   4.750   4.697
 9689TIP3   OH229009   6.211   0.272   1.304
 9689TIP3    H129010   6.129   0.225   1.292
 9689TIP3    H229011   6.220   0.281   1.399
 9690TIP3   OH229012   0.896   3.487   4.543
 9690TIP3    H129013   0.927   3.413   4.596
 9690TIP3    H229014   0.842   3.538   4.602
 9691TIP3   OH229015   4.751   0.164   6.126
 9691TIP3    H129016   4.767   0.110   6.049
 9691TIP3    H229017   4.811   0.238   6.117
 9692TIP3   OH229018   1.189   4.316   1.723
 9692TIP3    H129019   1.228   4.320   1.810
 9692TIP3    H229020   1.098   4.291   1.739
 9693TIP3   OH229021   0.927   1.640   1.332
 9693TIP3    H129022   0.878   1.658   1.252
 9693TIP3    H229023   0.864   1.594   1.388
 9694TIP3   OH229024   2.042   1.012   2.805
 9694TIP3    H129025   2.015   0.947   2.740
 9694TIP3    H229026   2.138   1.012   2.799
 9695TIP3   OH229027   0.219   6.067   5.717
 9695TIP3    H129028   0.138   6.118   5.709
 9695TIP3    H229029   0.205   5.990   5.662
 9696TIP3   OH229030   1.111   0.308   3.390
 9696TIP3    H129031   1.071   0.318   3.476
 9696TIP3    H229032   1.163   0.228   3.397
 9697TIP3   OH229033   6.814   5.301   0.190
 9697TIP3    H129034   6.844   5.248   0.116
 9697TIP3    H229035   6.882   5.291   0.256
 9698TIP3   OH229036   5.749   0.862   6.773
 9698TIP3    H129037   5.654   0.871   6.773
 9698TIP3    H229038   5.765   0.781   6.724
 9699TIP3   OH229039   2.403   6.281   5.482
 9699TIP3    H129040   2.407   6.281   5.386
 9699TIP3    H229041   2.384   6.191   5.505
 9700TIP3   OH229042   5.046   3.402   4.060
 9700TIP3    H129043   5.027   3.496   4.056
 9700TIP3    H229044   4.960   3.360   4.053
 9701TIP3   OH229045   4.830   0.428   5.563
 9701TIP3    H129046   4.871   0.342   5.574
 9701TIP3    H229047   4.756   0.427   5.623
 9702TIP3   OH229048   0.079   0.969   0.555
 9702TIP3    H129049   0.106   1.039   0.615
 9702TIP3    H229050   0.161   0.924   0.533
 9703TIP3   OH229051   5.823   7.447   3.685
 9703TIP3    H129052   5.777   7.516   3.636
 9703TIP3    H229053   5.903   7.489   3.717
 9704TIP3   OH229054   0.498   2.448   2.105
 9704TIP3    H129055   0.505   2.467   2.011
 9704TIP3    H229056   0.480   2.354   2.109
 9705TIP3   OH229057   5.078   6.375   0.834
 9705TIP3    H129058   5.113   6.337   0.753
 9705TIP3    H229059   5.052   6.464   0.809
 9706TIP3   OH229060   4.256   2.399   4.759
 9706TIP3    H129061   4.341   2.419   4.720
 9706TIP3    H229062   4.269   2.414   4.853
 9707TIP3   OH229063   5.048   4.370   0.122
 9707TIP3    H129064   5.112   4.438   0.102
 9707TIP3    H229065   5.083   4.326   0.199
 9708TIP3   OH229066   6.855   3.542   6.812
 9708TIP3    H129067   6.921   3.520   6.746
 9708TIP3    H229068   6.771   3.528   6.768
 9709TIP3   OH229069   5.497   6.141   3.231
 9709TIP3    H129070   5.589   6.167   3.240
 9709TIP3    H229071   5.479   6.146   3.137
 9710TIP3   OH229072   3.753   6.911   4.005
 9710TIP3    H129073   3.725   6.827   4.039
 9710TIP3    H229074   3.848   6.905   4.000
 9711TIP3   OH229075   1.468   0.151   1.608
 9711TIP3    H129076   1.494   0.213   1.677
 9711TIP3    H229077   1.460   0.067   1.653
 9712TIP3   OH229078   2.999   7.271   2.939
 9712TIP3    H129079   3.045   7.214   2.878
 9712TIP3    H229080   3.042   7.258   3.023
 9713TIP3   OH229081   4.879   6.514   3.036
 9713TIP3    H129082   4.789   6.495   3.060
 9713TIP3    H229083   4.926   6.522   3.119
 9714TIP3   OH229084   7.216   2.312   1.164
 9714TIP3    H129085   7.125   2.342   1.162
 9714TIP3    H229086   7.211   2.221   1.136
 9715TIP3   OH229087   8.031   0.117   2.961
 9715TIP3    H129088   8.023   0.208   2.988
 9715TIP3    H229089   8.124   0.097   2.969
 9716TIP3   OH229090   6.325   4.268   1.160
 9716TIP3    H129091   6.331   4.236   1.070
 9716TIP3    H229092   6.337   4.191   1.215
 9717TIP3   OH229093   6.601   2.904   5.959
 9717TIP3    H129094   6.576   2.973   5.898
 9717TIP3    H229095   6.538   2.834   5.943
 9718TIP3   OH229096   4.129   1.777   4.653
 9718TIP3    H129097   4.167   1.814   4.573
 9718TIP3    H229098   4.045   1.741   4.625
 9719TIP3   OH229099   3.698   7.602   5.573
 9719TIP3    H129100   3.622   7.657   5.590
 9719TIP3    H229101   3.715   7.614   5.479
 9720TIP3   OH229102   1.141   2.434   1.709
 9720TIP3    H129103   1.200   2.423   1.635
 9720TIP3    H229104   1.166   2.367   1.772
 9721TIP3   OH229105   2.631   7.673   6.243
 9721TIP3    H129106   2.632   7.587   6.285
 9721TIP3    H229107   2.592   7.731   6.308
 9722TIP3   OH229108   2.261   0.057   2.715
 9722TIP3    H129109   2.339   0.104   2.686
 9722TIP3    H229110   2.193   0.124   2.722
 9723TIP3   OH229111   4.948   3.031   1.438
 9723TIP3    H129112   5.040   3.026   1.411
 9723TIP3    H229113   4.928   2.943   1.471
 9724TIP3   OH229114   0.519   7.265   6.497
 9724TIP3    H129115   0.478   7.259   6.583
 9724TIP3    H229116   0.447   7.253   6.435
 9725TIP3   OH229117   7.020   0.254   3.220
 9725TIP3    H129118   6.931   0.226   3.245
 9725TIP3    H229119   7.051   0.184   3.163
 9726TIP3   OH229120   7.354   2.606   2.197
 9726TIP3    H129121   7.285   2.584   2.260
 9726TIP3    H229122   7.334   2.695   2.170
 9727TIP3   OH229123   8.166   3.376   0.155
 9727TIP3    H129124   8.251   3.373   0.111
 9727TIP3    H229125   8.125   3.292   0.133
 9728TIP3   OH229126   2.450   5.287   1.364
 9728TIP3    H129127   2.517   5.343   1.324
 9728TIP3    H229128   2.486   5.198   1.356
 9729TIP3   OH229129   1.175   1.409   5.644
 9729TIP3    H129130   1.181   1.499   5.677
 9729TIP3    H229131   1.257   1.369   5.671
 9730TIP3   OH229132   6.015   6.754   6.759
 9730TIP3    H129133   5.960   6.819   6.802
 9730TIP3    H229134   6.006   6.773   6.666
 9731TIP3   OH229135   2.999   0.381   1.622
 9731TIP3    H129136   3.075   0.392   1.564
 9731TIP3    H229137   2.931   0.343   1.566
 9732TIP3   OH229138   0.125   4.655   1.625
 9732TIP3    H129139   0.084   4.706   1.555
 9732TIP3    H229140   0.107   4.704   1.705
 9733TIP3   OH229141   1.544   6.384   4.620
 9733TIP3    H129142   1.505   6.468   4.644
 9733TIP3    H229143   1.638   6.400   4.623
 9734TIP3   OH229144   6.133   4.972   3.728
 9734TIP3    H129145   6.217   4.947   3.766
 9734TIP3    H229146   6.155   5.013   3.645
 9735TIP3   OH229147   1.071   4.329   4.800
 9735TIP3    H129148   1.164   4.315   4.816
 9735TIP3    H229149   1.064   4.420   4.772
 9736TIP3   OH229150   0.558   1.129   6.642
 9736TIP3    H129151   0.587   1.038   6.641
 9736TIP3    H229152   0.472   1.127   6.684
 9737TIP3   OH229153   8.225   0.373   2.554
 9737TIP3    H129154   8.144   0.418   2.532
 9737TIP3    H229155   8.294   0.438   2.543
 9738TIP3   OH229156   4.867   7.708   3.888
 9738TIP3    H129157   4.872   7.798   3.857
 9738TIP3    H229158   4.790   7.672   3.844
 9739TIP3   OH229159   2.070   6.456   4.538
 9739TIP3    H129160   2.117   6.420   4.614
 9739TIP3    H229161   2.089   6.550   4.540
 9740TIP3   OH229162   2.352   4.456   2.644
 9740TIP3    H129163   2.379   4.534   2.693
 9740TIP3    H229164   2.407   4.457   2.566
 9741TIP3   OH229165   2.508   2.339   3.284
 9741TIP3    H129166   2.538   2.413   3.337
 9741TIP3    H229167   2.417   2.325   3.311
 9742TIP3   OH229168   6.921   4.242   2.990
 9742TIP3    H129169   6.853   4.309   2.980
 9742TIP3    H229170   6.874   4.162   3.013
 9743TIP3   OH229171   4.650   1.692   5.691
 9743TIP3    H129172   4.672   1.694   5.784
 9743TIP3    H229173   4.688   1.611   5.658
 9744TIP3   OH229174   3.743   3.148   4.403
 9744TIP3    H129175   3.817   3.167   4.344
 9744TIP3    H229176   3.746   3.054   4.416
 9745TIP3   OH229177   6.350   4.337   1.453
 9745TIP3    H129178   6.305   4.254   1.465
 9745TIP3    H229179   6.368   4.341   1.359
 9746TIP3   OH229180   8.054   0.725   4.033
 9746TIP3    H129181   8.148   0.738   4.048
 9746TIP3    H229182   8.039   0.762   3.946
 9747TIP3   OH229183   5.578   6.910   6.682
 9747TIP3    H129184   5.486   6.925   6.660
 9747TIP3    H229185   5.575   6.839   6.746
 9748TIP3   OH229186   7.862   3.111   2.802
 9748TIP3    H129187   7.888   3.019   2.805
 9748TIP3    H229188   7.929   3.156   2.853
 9749TIP3   OH229189   0.298   6.262   5.060
 9749TIP3    H129190   0.368   6.206   5.027
 9749TIP3    H229191   0.217   6.222   5.028
 9750TIP3   OH229192   2.467   1.133   0.238
 9750TIP3    H129193   2.515   1.064   0.192
 9750TIP3    H229194   2.465   1.103   0.329
 9751TIP3   OH229195   7.861   7.111   1.857
 9751TIP3    H129196   7.804   7.155   1.794
 9751TIP3    H229197   7.925   7.065   1.803
 9752TIP3   OH229198   7.351   6.844   0.696
 9752TIP3    H129199   7.412   6.793   0.750
 9752TIP3    H229200   7.370   6.935   0.719
 9753TIP3   OH229201   5.693   5.880   0.935
 9753TIP3    H129202   5.647   5.951   0.891
 9753TIP3    H229203   5.646   5.801   0.909
 9754TIP3   OH229204   6.348   5.638   3.205
 9754TIP3    H129205   6.396   5.692   3.143
 9754TIP3    H229206   6.389   5.552   3.200
 9755TIP3   OH229207   6.575   1.239   1.395
 9755TIP3    H129208   6.586   1.222   1.489
 9755TIP3    H229209   6.597   1.156   1.353
 9756TIP3   OH229210   1.265   0.172   6.183
 9756TIP3    H129211   1.247   0.262   6.156
 9756TIP3    H229212   1.323   0.138   6.114
 9757TIP3   OH229213   2.390   0.312   4.036
 9757TIP3    H129214   2.424   0.368   3.967
 9757TIP3    H229215   2.314   0.359   4.070
 9758TIP3   OH229216   5.755   5.335   4.727
 9758TIP3    H129217   5.801   5.332   4.811
 9758TIP3    H229218   5.824   5.342   4.662
 9759TIP3   OH229219   1.018   0.248   5.632
 9759TIP3    H129220   1.015   0.153   5.631
 9759TIP3    H229221   1.077   0.270   5.704
 9760TIP3   OH229222   5.626   1.752   2.936
 9760TIP3    H129223   5.654   1.842   2.955
 9760TIP3    H229224   5.556   1.762   2.872
 9761TIP3   OH229225   0.485   2.867   6.104
 9761TIP3    H129226   0.565   2.864   6.051
 9761TIP3    H229227   0.513   2.906   6.188
 9762TIP3   OH229228   0.157   5.717   0.120
 9762TIP3    H129229   0.197   5.678   0.198
 9762TIP3    H229230   0.074   5.753   0.151
 9763TIP3   OH229231   5.473   3.329   1.317
 9763TIP3    H129232   5.433   3.295   1.237
 9763TIP3    H229233   5.441   3.419   1.323
 9764TIP3   OH229234   3.519   4.088   5.959
 9764TIP3    H129235   3.586   4.110   6.023
 9764TIP3    H229236   3.451   4.155   5.972
 9765TIP3   OH229237   2.565   6.939   3.725
 9765TIP3    H129238   2.567   7.032   3.705
 9765TIP3    H229239   2.647   6.905   3.690
 9766TIP3   OH229240   1.627   3.491   5.343
 9766TIP3    H129241   1.636   3.486   5.438
 9766TIP3    H229242   1.704   3.444   5.309
 9767TIP3   OH229243   2.610   0.675   1.317
 9767TIP3    H129244   2.600   0.609   1.248
 9767TIP3    H229245   2.576   0.633   1.396
 9768TIP3   OH229246   3.414   5.135   2.140
 9768TIP3    H129247   3.497   5.178   2.123
 9768TIP3    H229248   3.408   5.067   2.072
 9769TIP3   OH229249   0.069   7.536   0.315
 9769TIP3    H129250   0.087   7.459   0.368
 9769TIP3    H229251   0.147   7.591   0.324
 9770TIP3   OH229252   3.456   3.129   3.405
 9770TIP3    H129253   3.361   3.140   3.403
 9770TIP3    H229254   3.478   3.132   3.498
 9771TIP3   OH229255   8.113   3.245   4.983
 9771TIP3    H129256   8.137   3.334   5.009
 9771TIP3    H229257   8.106   3.196   5.065
 9772TIP3   OH229258   6.137   4.080   1.812
 9772TIP3    H129259   6.107   4.160   1.855
 9772TIP3    H229260   6.179   4.029   1.881
 9773TIP3   OH229261   6.523   0.267   2.360
 9773TIP3    H129262   6.446   0.231   2.317
 9773TIP3    H229263   6.593   0.205   2.339
 9774TIP3   OH229264   0.756   6.061   3.436
 9774TIP3    H129265   0.681   6.037   3.491
 9774TIP3    H229266   0.817   6.104   3.497
 9775TIP3   OH229267   1.770   2.714   2.107
 9775TIP3    H129268   1.817   2.733   2.188
 9775TIP3    H229269   1.712   2.789   2.094
 9776TIP3   OH229270   4.329   4.532   4.870
 9776TIP3    H129271   4.361   4.461   4.815
 9776TIP3    H229272   4.293   4.596   4.809
 9777TIP3   OH229273   6.343   1.171   5.654
 9777TIP3    H129274   6.367   1.095   5.707
 9777TIP3    H229275   6.278   1.218   5.707
 9778TIP3   OH229276   6.062   1.160   0.871
 9778TIP3    H129277   6.103   1.115   0.798
 9778TIP3    H229278   6.128   1.160   0.940
 9779TIP3   OH229279   6.337   6.096   5.888
 9779TIP3    H129280   6.325   6.067   5.978
 9779TIP3    H229281   6.418   6.053   5.860
 9780TIP3   OH229282   4.519   7.327   0.655
 9780TIP3    H129283   4.586   7.358   0.594
 9780TIP3    H229284   4.549   7.357   0.741
 9781TIP3   OH229285   2.740   1.698   3.379
 9781TIP3    H129286   2.681   1.766   3.412
 9781TIP3    H229287   2.688   1.617   3.384
 9782TIP3   OH229288   3.349   1.198   0.141
 9782TIP3    H129289   3.372   1.206   0.234
 9782TIP3    H229290   3.386   1.277   0.101
 9783TIP3   OH229291   4.226   7.186   2.143
 9783TIP3    H129292   4.200   7.275   2.168
 9783TIP3    H229293   4.145   7.135   2.150
 9784TIP3   OH229294   6.430   2.406   4.768
 9784TIP3    H129295   6.430   2.314   4.744
 9784TIP3    H229296   6.402   2.408   4.859
 9785TIP3   OH229297   2.861   0.712   3.361
 9785TIP3    H129298   2.875   0.798   3.320
 9785TIP3    H229299   2.842   0.653   3.288
 9786TIP3   OH229300   0.179   3.530   5.527
 9786TIP3    H129301   0.224   3.565   5.450
 9786TIP3    H229302   0.168   3.606   5.585
 9787TIP3   OH229303   4.592   4.984   3.506
 9787TIP3    H129304   4.570   5.075   3.524
 9787TIP3    H229305   4.552   4.935   3.578
 9788TIP3   OH229306   8.157   2.381   6.318
 9788TIP3    H129307   8.199   2.335   6.245
 9788TIP3    H229308   8.229   2.397   6.380
 9789TIP3   OH229309   7.715   7.361   1.976
 9789TIP3    H129310   7.742   7.277   1.941
 9789TIP3    H229311   7.756   7.366   2.062
 9790TIP3   OH229312   3.276   2.903   6.239
 9790TIP3    H129313   3.293   2.900   6.334
 9790TIP3    H229314   3.181   2.912   6.232
 9791TIP3   OH229315   2.529   3.356   4.551
 9791TIP3    H129316   2.572   3.277   4.582
 9791TIP3    H229317   2.442   3.355   4.592
 9792TIP3   OH229318   5.176   6.676   2.762
 9792TIP3    H129319   5.173   6.757   2.812
 9792TIP3    H229320   5.199   6.702   2.673
 9793TIP3   OH229321   3.910   5.154   4.159
 9793TIP3    H129322   3.982   5.199   4.204
 9793TIP3    H229323   3.895   5.076   4.212
 9794TIP3   OH229324   3.960   7.532   3.142
 9794TIP3    H129325   3.893   7.500   3.203
 9794TIP3    H229326   4.012   7.454   3.121
 9795TIP3   OH229327   7.736   3.986   3.524
 9795TIP3    H129328   7.740   3.962   3.431
 9795TIP3    H229329   7.827   4.004   3.548
 9796TIP3   OH229330   1.663   3.241   6.262
 9796TIP3    H129331   1.757   3.223   6.270
 9796TIP3    H229332   1.655   3.335   6.277
 9797TIP3   OH229333   7.757   0.287   6.810
 9797TIP3    H129334   7.850   0.280   6.789
 9797TIP3    H229335   7.716   0.314   6.728
 9798TIP3   OH229336   7.645   3.299   0.754
 9798TIP3    H129337   7.577   3.366   0.744
 9798TIP3    H229338   7.718   3.330   0.700
 9799TIP3   OH229339   0.110   6.427   2.137
 9799TIP3    H129340   0.119   6.521   2.150
 9799TIP3    H229341   0.041   6.400   2.199
 9800TIP3   OH229342   2.468   0.400   6.553
 9800TIP3    H129343   2.503   0.464   6.615
 9800TIP3    H229344   2.501   0.316   6.584
 9801TIP3   OH229345   1.284   6.620   5.871
 9801TIP3    H129346   1.219   6.553   5.852
 9801TIP3    H229347   1.338   6.625   5.793
 9802TIP3   OH229348   5.464   0.628   4.402
 9802TIP3    H129349   5.398   0.673   4.349
 9802TIP3    H229350   5.455   0.666   4.489
 9803TIP3   OH229351   4.617   6.801   5.052
 9803TIP3    H129352   4.629   6.799   4.957
 9803TIP3    H229353   4.555   6.872   5.066
 9804TIP3   OH229354   8.126   7.747   4.979
 9804TIP3    H129355   8.131   7.832   4.934
 9804TIP3    H229356   8.164   7.685   4.917
 9805TIP3   OH229357   0.432   2.098   5.579
 9805TIP3    H129358   0.378   2.176   5.588
 9805TIP3    H229359   0.520   2.131   5.563
 9806TIP3   OH229360   2.419   5.002   6.137
 9806TIP3    H129361   2.355   5.071   6.118
 9806TIP3    H229362   2.385   4.959   6.215
 9807TIP3   OH229363   7.893   7.394   4.547
 9807TIP3    H129364   7.870   7.301   4.556
 9807TIP3    H229365   7.900   7.408   4.453
 9808TIP3   OH229366   6.710   3.254   2.238
 9808TIP3    H129367   6.741   3.344   2.232
 9808TIP3    H229368   6.617   3.259   2.215
 9809TIP3   OH229369   0.693   2.376   0.362
 9809TIP3    H129370   0.678   2.398   0.270
 9809TIP3    H229371   0.648   2.292   0.375
 9810TIP3   OH229372   0.560   0.397   4.113
 9810TIP3    H129373   0.614   0.462   4.068
 9810TIP3    H229374   0.485   0.446   4.145
 9811TIP3   OH229375   0.456   3.300   2.417
 9811TIP3    H129376   0.418   3.372   2.367
 9811TIP3    H229377   0.479   3.234   2.351
 9812TIP3   OH229378   5.661   6.100   5.994
 9812TIP3    H129379   5.708   6.173   6.034
 9812TIP3    H229380   5.688   6.101   5.902
 9813TIP3   OH229381   5.638   1.267   4.614
 9813TIP3    H129382   5.603   1.196   4.561
 9813TIP3    H229383   5.719   1.233   4.650
 9814TIP3   OH229384   7.629   4.080   3.114
 9814TIP3    H129385   7.666   4.012   3.171
 9814TIP3    H229386   7.566   4.126   3.169
 9815TIP3   OH229387   1.880   3.414   0.663
 9815TIP3    H129388   1.886   3.499   0.621
 9815TIP3    H229389   1.892   3.432   0.757
 9816TIP3   OH229390   6.762   4.090   5.268
 9816TIP3    H129391   6.830   4.058   5.209
 9816TIP3    H229392   6.682   4.047   5.237
 9817TIP3   OH229393   3.603   6.062   5.336
 9817TIP3    H129394   3.698   6.067   5.345
 9817TIP3    H229395   3.569   6.121   5.403
 9818TIP3   OH229396   5.187   1.508   6.463
 9818TIP3    H129397   5.190   1.441   6.396
 9818TIP3    H229398   5.181   1.591   6.414
 9819TIP3   OH229399   4.046   1.519   5.650
 9819TIP3    H129400   4.133   1.512   5.690
 9819TIP3    H229401   3.992   1.458   5.700
 9820TIP3   OH229402   5.071   0.962   4.760
 9820TIP3    H129403   5.104   1.024   4.825
 9820TIP3    H229404   4.977   0.956   4.778
 9821TIP3   OH229405   7.111   4.779   1.156
 9821TIP3    H129406   7.040   4.732   1.112
 9821TIP3    H229407   7.068   4.852   1.200
 9822TIP3   OH229408   3.214   7.005   6.222
 9822TIP3    H129409   3.138   7.026   6.277
 9822TIP3    H229410   3.274   6.958   6.280
 9823TIP3   OH229411   7.032   4.433   2.393
 9823TIP3    H129412   7.075   4.455   2.310
 9823TIP3    H229413   6.954   4.489   2.395
 9824TIP3   OH229414   7.501   4.475   0.470
 9824TIP3    H129415   7.580   4.509   0.430
 9824TIP3    H229416   7.470   4.546   0.526
 9825TIP3   OH229417   2.660   0.035   3.713
 9825TIP3    H129418   2.663  -0.007   3.627
 9825TIP3    H229419   2.568   0.054   3.728
 9826TIP3   OH229420   4.703   0.787   2.390
 9826TIP3    H129421   4.741   0.815   2.473
 9826TIP3    H229422   4.657   0.865   2.358
 9827TIP3   OH229423   7.133   6.729   5.132
 9827TIP3    H129424   7.038   6.714   5.132
 9827TIP3    H229425   7.156   6.742   5.224
 9828TIP3   OH229426   1.742   5.666   6.258
 9828TIP3    H129427   1.803   5.677   6.185
 9828TIP3    H229428   1.795   5.627   6.328
 9829TIP3   OH229429   3.740   5.355   3.073
 9829TIP3    H129430   3.744   5.418   3.145
 9829TIP3    H229431   3.802   5.389   3.008
 9830TIP3   OH229432   2.580   7.304   0.913
 9830TIP3    H129433   2.563   7.379   0.855
 9830TIP3    H229434   2.498   7.255   0.914
 9831TIP3   OH229435   0.640   7.499   0.726
 9831TIP3    H129436   0.726   7.517   0.688
 9831TIP3    H229437   0.644   7.539   0.813
 9832TIP3   OH229438   0.519   7.129   2.002
 9832TIP3    H129439   0.485   7.168   1.921
 9832TIP3    H229440   0.597   7.081   1.973
 9833TIP3   OH229441   5.235   6.141   1.333
 9833TIP3    H129442   5.219   6.213   1.394
 9833TIP3    H229443   5.181   6.162   1.257
 9834TIP3   OH229444   6.952   5.569   5.247
 9834TIP3    H129445   6.857   5.569   5.253
 9834TIP3    H229446   6.973   5.650   5.202
 9835TIP3   OH229447   6.497   7.525   1.025
 9835TIP3    H129448   6.555   7.491   1.093
 9835TIP3    H229449   6.479   7.449   0.969
 9836TIP3   OH229450   3.285   2.638   5.377
 9836TIP3    H129451   3.195   2.665   5.361
 9836TIP3    H229452   3.280   2.583   5.455
 9837TIP3   OH229453   2.337   4.848   1.538
 9837TIP3    H129454   2.300   4.935   1.519
 9837TIP3    H229455   2.262   4.789   1.531
 9838TIP3   OH229456   7.501   0.294   0.302
 9838TIP3    H129457   7.594   0.311   0.292
 9838TIP3    H229458   7.460   0.380   0.305
 9839TIP3   OH229459   6.237   3.669   5.485
 9839TIP3    H129460   6.152   3.642   5.518
 9839TIP3    H229461   6.293   3.676   5.563
 9840TIP3   OH229462   6.881   4.183   3.558
 9840TIP3    H129463   6.910   4.106   3.607
 9840TIP3    H229464   6.956   4.243   3.563
 9841TIP3   OH229465   0.391   7.069   2.848
 9841TIP3    H129466   0.431   7.011   2.783
 9841TIP3    H229467   0.323   7.116   2.800
 9842TIP3   OH229468   2.827   3.149   3.899
 9842TIP3    H129469   2.914   3.184   3.876
 9842TIP3    H229470   2.785   3.220   3.947
 9843TIP3   OH229471   2.553   4.701   1.876
 9843TIP3    H129472   2.472   4.751   1.887
 9843TIP3    H229473   2.545   4.629   1.939
 9844TIP3   OH229474   3.576   4.318   1.238
 9844TIP3    H129475   3.631   4.353   1.308
 9844TIP3    H229476   3.538   4.396   1.196
 9845TIP3   OH229477   2.495   2.562   4.338
 9845TIP3    H129478   2.563   2.571   4.405
 9845TIP3    H229479   2.423   2.517   4.382
 9846TIP3   OH229480   0.733   7.611   3.169
 9846TIP3    H129481   0.725   7.648   3.081
 9846TIP3    H229482   0.772   7.525   3.155
 9847TIP3   OH229483   8.151   6.454   2.347
 9847TIP3    H129484   8.072   6.501   2.321
 9847TIP3    H229485   8.197   6.514   2.405
 9848TIP3   OH229486   6.060   5.637   1.492
 9848TIP3    H129487   6.085   5.724   1.462
 9848TIP3    H229488   6.069   5.581   1.414
 9849TIP3   OH229489   8.062   7.657   4.016
 9849TIP3    H129490   8.008   7.613   3.950
 9849TIP3    H229491   8.028   7.747   4.019
 9850TIP3   OH229492   2.371   6.027   5.761
 9850TIP3    H129493   2.311   6.099   5.780
 9850TIP3    H229494   2.352   6.003   5.671
 9851TIP3   OH229495   4.520   0.745   1.521
 9851TIP3    H129496   4.484   0.657   1.517
 9851TIP3    H229497   4.595   0.743   1.462
 9852TIP3   OH229498   2.070   6.370   0.731
 9852TIP3    H129499   2.001   6.428   0.763
 9852TIP3    H229500   2.111   6.336   0.811
 9853TIP3   OH229501   6.636   1.031   3.869
 9853TIP3    H129502   6.703   1.094   3.842
 9853TIP3    H229503   6.657   1.013   3.961
 9854TIP3   OH229504   7.958   5.529   4.147
 9854TIP3    H129505   8.039   5.580   4.135
 9854TIP3    H229506   7.933   5.547   4.238
 9855TIP3   OH229507   0.067   2.711   5.526
 9855TIP3    H129508   0.126   2.692   5.599
 9855TIP3    H229509   0.093   2.798   5.496
 9856TIP3   OH229510   6.468   5.636   0.448
 9856TIP3    H129511   6.529   5.673   0.513
 9856TIP3    H229512   6.499   5.546   0.434
 9857TIP3   OH229513   0.791   7.177   6.437
 9857TIP3    H129514   0.716   7.185   6.496
 9857TIP3    H229515   0.768   7.229   6.361
 9858TIP3   OH229516   7.902   2.747   1.550
 9858TIP3    H129517   7.888   2.684   1.621
 9858TIP3    H229518   7.815   2.784   1.534
 9859TIP3   OH229519   0.352   3.305   3.743
 9859TIP3    H129520   0.400   3.329   3.822
 9859TIP3    H229521   0.401   3.232   3.706
 9860TIP3   OH229522   4.642   7.573   4.979
 9860TIP3    H129523   4.611   7.631   5.049
 9860TIP3    H229524   4.727   7.541   5.011
 9861TIP3   OH229525   6.943   0.705   4.175
 9861TIP3    H129526   6.919   0.618   4.208
 9861TIP3    H229527   6.875   0.763   4.210
 9862TIP3   OH229528   3.606   7.390   2.382
 9862TIP3    H129529   3.581   7.404   2.291
 9862TIP3    H229530   3.523   7.389   2.430
 9863TIP3   OH229531   3.256   5.238   6.602
 9863TIP3    H129532   3.265   5.278   6.689
 9863TIP3    H229533   3.341   5.198   6.585
 9864TIP3   OH229534   3.082   6.250   4.356
 9864TIP3    H129535   3.077   6.344   4.376
 9864TIP3    H229536   2.993   6.218   4.371
 9865TIP3   OH229537   7.750   3.351   3.858
 9865TIP3    H129538   7.803   3.351   3.778
 9865TIP3    H229539   7.713   3.440   3.862
 9866TIP3   OH229540   2.379   1.082   0.497
 9866TIP3    H129541   2.349   1.014   0.557
 9866TIP3    H229542   2.299   1.122   0.463
 9867TIP3   OH229543   1.932   5.312   6.522
 9867TIP3    H129544   1.875   5.389   6.530
 9867TIP3    H229545   1.874   5.240   6.500
 9868TIP3   OH229546   4.839   5.487   5.102
 9868TIP3    H129547   4.808   5.427   5.170
 9868TIP3    H229548   4.764   5.499   5.044
 9869TIP3   OH229549   6.161   5.265   5.024
 9869TIP3    H129550   6.195   5.262   4.935
 9869TIP3    H229551   6.237   5.246   5.079
 9870TIP3   OH229552   6.720   6.551   1.791
 9870TIP3    H129553   6.674   6.488   1.847
 9870TIP3    H229554   6.717   6.634   1.838
 9871TIP3   OH229555   3.511   1.167   6.710
 9871TIP3    H129556   3.591   1.175   6.658
 9871TIP3    H229557   3.473   1.255   6.711
 9872TIP3   OH229558   7.744   0.765   5.531
 9872TIP3    H129559   7.817   0.827   5.531
 9872TIP3    H229560   7.696   0.785   5.611
 9873TIP3   OH229561   3.624   4.096   2.338
 9873TIP3    H129562   3.567   4.096   2.261
 9873TIP3    H229563   3.574   4.140   2.406
 9874TIP3   OH229564   3.622   4.048   1.895
 9874TIP3    H129565   3.626   3.986   1.822
 9874TIP3    H229566   3.576   4.124   1.859
 9875TIP3   OH229567   3.057   5.138   0.784
 9875TIP3    H129568   2.982   5.177   0.829
 9875TIP3    H229569   3.051   5.045   0.804
 9876TIP3   OH229570   4.250   5.879   1.872
 9876TIP3    H129571   4.232   5.854   1.782
 9876TIP3    H229572   4.325   5.827   1.898
 9877TIP3   OH229573   6.359   1.837   4.019
 9877TIP3    H129574   6.379   1.745   4.007
 9877TIP3    H229575   6.442   1.877   4.044
 9878TIP3   OH229576   2.830   4.308   0.406
 9878TIP3    H129577   2.906   4.255   0.380
 9878TIP3    H229578   2.838   4.318   0.500
 9879TIP3   OH229579   2.716   5.880   1.426
 9879TIP3    H129580   2.777   5.806   1.430
 9879TIP3    H229581   2.631   5.841   1.446
 9880TIP3   OH229582   2.346   5.983   5.493
 9880TIP3    H129583   2.400   5.914   5.455
 9880TIP3    H229584   2.267   5.984   5.440
 9881TIP3   OH229585   7.838   6.695   3.001
 9881TIP3    H129586   7.807   6.616   3.045
 9881TIP3    H229587   7.776   6.763   3.027
 9882TIP3   OH229588   0.408   1.136   1.258
 9882TIP3    H129589   0.412   1.154   1.164
 9882TIP3    H229590   0.405   1.041   1.264
 9883TIP3   OH229591   0.036   7.210   6.618
 9883TIP3    H129592   0.034   7.264   6.538
 9883TIP3    H229593   0.068   7.270   6.686
 9884TIP3   OH229594   5.261   0.193   4.274
 9884TIP3    H129595   5.239   0.266   4.217
 9884TIP3    H229596   5.259   0.230   4.362
 9885TIP3   OH229597   0.644   3.185   3.325
 9885TIP3    H129598   0.649   3.115   3.260
 9885TIP3    H229599   0.580   3.155   3.389
 9886TIP3   OH229600   6.013   6.240   5.079
 9886TIP3    H129601   6.028   6.190   4.998
 9886TIP3    H229602   6.080   6.208   5.140
 9887TIP3   OH229603   0.644   3.146   3.638
 9887TIP3    H129604   0.707   3.115   3.704
 9887TIP3    H229605   0.659   3.241   3.635
 9888TIP3   OH229606   5.044   7.085   3.696
 9888TIP3    H129607   4.977   7.105   3.761
 9888TIP3    H229608   5.086   7.005   3.728
 9889TIP3   OH229609   3.951   4.214   0.725
 9889TIP3    H129610   3.987   4.154   0.791
 9889TIP3    H229611   3.859   4.224   0.750
 9890TIP3   OH229612   5.160   4.571   2.016
 9890TIP3    H129613   5.214   4.545   2.091
 9890TIP3    H229614   5.108   4.644   2.048
 9891TIP3   OH229615   7.639   4.994   0.099
 9891TIP3    H129616   7.718   4.966   0.052
 9891TIP3    H229617   7.567   4.950   0.054
 9892TIP3   OH229618   1.792   5.198   1.976
 9892TIP3    H129619   1.849   5.163   1.908
 9892TIP3    H229620   1.791   5.130   2.044
 9893TIP3   OH229621   1.283   0.396   2.252
 9893TIP3    H129622   1.246   0.409   2.165
 9893TIP3    H229623   1.229   0.328   2.291
 9894TIP3   OH229624   6.469   0.295   2.653
 9894TIP3    H129625   6.474   0.322   2.561
 9894TIP3    H229626   6.446   0.374   2.701
 9895TIP3   OH229627   5.509   5.369   1.912
 9895TIP3    H129628   5.560   5.293   1.940
 9895TIP3    H229629   5.533   5.381   1.820
 9896TIP3   OH229630   0.423   1.586   5.301
 9896TIP3    H129631   0.456   1.540   5.378
 9896TIP3    H229632   0.330   1.600   5.320
 9897TIP3   OH229633   5.033   6.292   4.653
 9897TIP3    H129634   5.082   6.370   4.629
 9897TIP3    H229635   5.010   6.251   4.570
 9898TIP3   OH229636   7.302   1.636   0.466
 9898TIP3    H129637   7.362   1.694   0.514
 9898TIP3    H229638   7.356   1.600   0.396
 9899TIP3   OH229639   3.759   6.029   2.241
 9899TIP3    H129640   3.815   6.094   2.199
 9899TIP3    H229641   3.779   6.036   2.334
 9900TIP3   OH229642   0.331   2.732   1.651
 9900TIP3    H129643   0.409   2.677   1.651
 9900TIP3    H229644   0.358   2.813   1.608
 9901TIP3   OH229645   8.023   1.334   5.448
 9901TIP3    H129646   7.932   1.363   5.461
 9901TIP3    H229647   8.060   1.331   5.537
 9902TIP3   OH229648   2.002   7.261   0.427
 9902TIP3    H129649   2.085   7.255   0.380
 9902TIP3    H229650   1.936   7.266   0.358
 9903TIP3   OH229651   1.770   0.202   3.994
 9903TIP3    H129652   1.812   0.244   4.069
 9903TIP3    H229653   1.776   0.108   4.013
 9904TIP3   OH229654   7.985   4.789   1.552
 9904TIP3    H129655   7.913   4.765   1.609
 9904TIP3    H229656   7.951   4.860   1.498
 9905TIP3   OH229657   7.712   2.908   3.492
 9905TIP3    H129658   7.680   2.820   3.472
 9905TIP3    H229659   7.786   2.920   3.432
 9906TIP3   OH229660   3.342   5.971   0.291
 9906TIP3    H129661   3.430   5.977   0.253
 9906TIP3    H229662   3.295   5.910   0.235
 9907TIP3   OH229663   3.055   5.180   1.838
 9907TIP3    H129664   3.018   5.121   1.904
 9907TIP3    H229665   2.992   5.179   1.767
 9908TIP3   OH229666   2.391   5.962   1.839
 9908TIP3    H129667   2.435   6.045   1.859
 9908TIP3    H229668   2.458   5.895   1.853
 9909TIP3   OH229669   7.952   6.606   6.207
 9909TIP3    H129670   8.043   6.629   6.185
 9909TIP3    H229671   7.900   6.651   6.140
 9910TIP3   OH229672   3.457   2.977   4.336
 9910TIP3    H129673   3.424   3.034   4.406
 9910TIP3    H229674   3.541   2.944   4.370
 9911TIP3   OH229675   3.954   7.739   4.376
 9911TIP3    H129676   3.861   7.720   4.392
 9911TIP3    H229677   3.998   7.714   4.458
 9912TIP3   OH229678   0.791   1.291   1.114
 9912TIP3    H129679   0.774   1.383   1.093
 9912TIP3    H229680   0.771   1.243   1.033
 9913TIP3   OH229681   7.086   7.332   1.482
 9913TIP3    H129682   7.108   7.262   1.544
 9913TIP3    H229683   7.170   7.361   1.448
 9914TIP3   OH229684   8.168   5.301   5.228
 9914TIP3    H129685   8.159   5.396   5.233
 9914TIP3    H229686   8.149   5.279   5.137
 9915TIP3   OH229687   4.907   2.223   6.046
 9915TIP3    H129688   4.878   2.303   6.001
 9915TIP3    H229689   4.981   2.193   5.994
 9916TIP3   OH229690   2.340   7.550   1.081
 9916TIP3    H129691   2.400   7.613   1.042
 9916TIP3    H229692   2.280   7.527   1.010
 9917TIP3   OH229693   1.993   1.847   2.903
 9917TIP3    H129694   2.025   1.889   2.983
 9917TIP3    H229695   2.072   1.806   2.866
 9918TIP3   OH229696   2.912   4.599   0.449
 9918TIP3    H129697   2.929   4.629   0.538
 9918TIP3    H229698   2.909   4.503   0.456
 9919TIP3   OH229699   6.987   5.452   2.927
 9919TIP3    H129700   6.909   5.405   2.899
 9919TIP3    H229701   7.053   5.384   2.941
 9920TIP3   OH229702   3.448   5.210   5.772
 9920TIP3    H129703   3.410   5.122   5.761
 9920TIP3    H229704   3.465   5.218   5.866
 9921TIP3   OH229705   0.846   7.159   0.707
 9921TIP3    H129706   0.884   7.071   0.706
 9921TIP3    H229707   0.879   7.198   0.788
 9922TIP3   OH229708   4.808   3.493   6.190
 9922TIP3    H129709   4.751   3.503   6.114
 9922TIP3    H229710   4.844   3.405   6.182
 9923TIP3   OH229711   4.525   2.347   3.338
 9923TIP3    H129712   4.436   2.376   3.361
 9923TIP3    H229713   4.545   2.394   3.257
 9924TIP3   OH229714   5.774   5.290   4.079
 9924TIP3    H129715   5.796   5.377   4.044
 9924TIP3    H229716   5.766   5.234   4.002
 9925TIP3   OH229717   3.361   7.380   5.935
 9925TIP3    H129718   3.430   7.388   5.869
 9925TIP3    H229719   3.303   7.313   5.900
 9926TIP3   OH229720   3.551   3.287   5.549
 9926TIP3    H129721   3.475   3.315   5.600
 9926TIP3    H229722   3.520   3.211   5.500
 9927TIP3   OH229723   4.796   4.035   5.795
 9927TIP3    H129724   4.737   4.092   5.845
 9927TIP3    H229725   4.772   4.051   5.704
 9928TIP3   OH229726   2.621   0.903   1.167
 9928TIP3    H129727   2.599   0.834   1.229
 9928TIP3    H229728   2.537   0.939   1.140
 9929TIP3   OH229729   0.022   2.275   1.564
 9929TIP3    H129730  -0.057   2.298   1.613
 9929TIP3    H229731   0.049   2.357   1.522
 9930TIP3   OH229732   6.474   2.992   2.127
 9930TIP3    H129733   6.557   2.994   2.175
 9930TIP3    H229734   6.478   3.068   2.070
 9931TIP3   OH229735   8.005   5.200   2.832
 9931TIP3    H129736   7.937   5.242   2.885
 9931TIP3    H229737   7.983   5.107   2.833
 9932TIP3   OH229738   1.225   0.311   5.789
 9932TIP3    H129739   1.187   0.356   5.865
 9932TIP3    H229740   1.276   0.378   5.744
 9933TIP3   OH229741   0.035   6.267   6.618
 9933TIP3    H129742   0.090   6.191   6.640
 9933TIP3    H229743   0.043   6.324   6.695
 9934TIP3   OH229744   0.555   4.800   2.358
 9934TIP3    H129745   0.475   4.756   2.329
 9934TIP3    H229746   0.626   4.756   2.311
 9935TIP3   OH229747   0.441   0.010   3.899
 9935TIP3    H129748   0.389  -0.025   3.971
 9935TIP3    H229749   0.414   0.102   3.893
 9936TIP3   OH229750   1.898   6.002   0.680
 9936TIP3    H129751   1.949   5.991   0.761
 9936TIP3    H229752   1.822   5.946   0.692
 9937TIP3   OH229753   3.962   4.020   0.337
 9937TIP3    H129754   3.871   4.037   0.311
 9937TIP3    H229755   3.997   3.965   0.267
 9938TIP3   OH229756   5.364   2.080   6.318
 9938TIP3    H129757   5.373   2.024   6.395
 9938TIP3    H229758   5.354   2.168   6.353
 9939TIP3   OH229759   3.600   7.185   1.732
 9939TIP3    H129760   3.676   7.216   1.781
 9939TIP3    H229761   3.525   7.228   1.772
 9940TIP3   OH229762   6.747   0.329   3.328
 9940TIP3    H129763   6.821   0.367   3.375
 9940TIP3    H229764   6.734   0.243   3.368
 9941TIP3   OH229765   8.008   0.989   5.392
 9941TIP3    H129766   7.987   1.011   5.483
 9941TIP3    H229767   7.976   1.065   5.342
 9942TIP3   OH229768   2.426   2.419   1.060
 9942TIP3    H129769   2.363   2.443   0.992
 9942TIP3    H229770   2.432   2.324   1.056
 9943TIP3   OH229771   2.964   6.791   6.232
 9943TIP3    H129772   2.990   6.708   6.192
 9943TIP3    H229773   2.875   6.806   6.199
 9944TIP3   OH229774   1.862   7.702   5.165
 9944TIP3    H129775   1.807   7.630   5.197
 9944TIP3    H229776   1.848   7.702   5.070
 9945TIP3   OH229777   1.560   3.795   3.537
 9945TIP3    H129778   1.592   3.817   3.624
 9945TIP3    H229779   1.466   3.781   3.549
 9946TIP3   OH229780   0.206   1.880   3.995
 9946TIP3    H129781   0.298   1.856   4.009
 9946TIP3    H229782   0.169   1.805   3.947
 9947TIP3   OH229783   5.944   3.550   2.513
 9947TIP3    H129784   5.952   3.599   2.431
 9947TIP3    H229785   5.851   3.531   2.521
 9948TIP3   OH229786   4.920   3.287   1.435
 9948TIP3    H129787   4.829   3.308   1.460
 9948TIP3    H229788   4.931   3.196   1.461
 9949TIP3   OH229789   3.113   7.263   3.182
 9949TIP3    H129790   3.151   7.179   3.155
 9949TIP3    H229791   3.133   7.270   3.275
 9950TIP3   OH229792   1.324   0.842   2.437
 9950TIP3    H129793   1.243   0.875   2.400
 9950TIP3    H229794   1.374   0.920   2.460
 9951TIP3   OH229795   1.078   0.604   6.375
 9951TIP3    H129796   1.024   0.525   6.368
 9951TIP3    H229797   1.024   0.673   6.336
 9952TIP3   OH229798   6.639   7.516   1.572
 9952TIP3    H129799   6.650   7.562   1.655
 9952TIP3    H229800   6.719   7.534   1.524
 9953TIP3   OH229801   4.260   3.520   4.027
 9953TIP3    H129802   4.248   3.429   4.000
 9953TIP3    H229803   4.209   3.571   3.964
 9954TIP3   OH229804   7.363   3.669   3.175
 9954TIP3    H129805   7.410   3.595   3.215
 9954TIP3    H229806   7.426   3.708   3.115
 9955TIP3   OH229807   6.268   1.184   4.480
 9955TIP3    H129808   6.247   1.103   4.435
 9955TIP3    H229809   6.354   1.168   4.519
 9956TIP3   OH229810   0.723   2.713   5.710
 9956TIP3    H129811   0.733   2.737   5.802
 9956TIP3    H229812   0.723   2.797   5.663
 9957TIP3   OH229813   2.213   1.996   1.693
 9957TIP3    H129814   2.175   2.039   1.616
 9957TIP3    H229815   2.276   2.059   1.727
 9958TIP3   OH229816   5.598   5.280   4.496
 9958TIP3    H129817   5.596   5.198   4.544
 9958TIP3    H229818   5.653   5.338   4.549
 9959TIP3   OH229819   7.833   7.090   0.236
 9959TIP3    H129820   7.892   7.096   0.161
 9959TIP3    H229821   7.880   7.036   0.299
 9960TIP3   OH229822   1.470   2.328   6.804
 9960TIP3    H129823   1.502   2.417   6.788
 9960TIP3    H229824   1.402   2.314   6.738
 9961TIP3   OH229825   1.820   6.417   4.657
 9961TIP3    H129826   1.909   6.440   4.633
 9961TIP3    H229827   1.802   6.469   4.735
 9962TIP3   OH229828   2.959   3.948   5.217
 9962TIP3    H129829   2.900   3.971   5.288
 9962TIP3    H229830   3.014   3.878   5.254
 9963TIP3   OH229831   2.029   6.050   2.555
 9963TIP3    H129832   2.125   6.046   2.554
 9963TIP3    H229833   2.003   5.995   2.629
 9964TIP3   OH229834   5.369   7.317   2.659
 9964TIP3    H129835   5.453   7.291   2.697
 9964TIP3    H229836   5.305   7.258   2.699
 9965TIP3   OH229837   1.698   1.985   4.184
 9965TIP3    H129838   1.696   2.071   4.142
 9965TIP3    H229839   1.637   1.992   4.257
 9966TIP3   OH229840   6.161   2.331   0.648
 9966TIP3    H129841   6.129   2.295   0.731
 9966TIP3    H229842   6.154   2.258   0.586
 9967TIP3   OH229843   1.783   1.365   6.135
 9967TIP3    H129844   1.797   1.339   6.226
 9967TIP3    H229845   1.754   1.456   6.140
 9968TIP3   OH229846   4.647   1.506   2.967
 9968TIP3    H129847   4.735   1.510   3.006
 9968TIP3    H229848   4.656   1.549   2.882
 9969TIP3   OH229849   3.052   7.319   2.084
 9969TIP3    H129850   3.002   7.242   2.108
 9969TIP3    H229851   3.030   7.385   2.150
 9970TIP3   OH229852   4.611   3.674   3.514
 9970TIP3    H129853   4.567   3.595   3.481
 9970TIP3    H229854   4.704   3.657   3.501
 9971TIP3   OH229855   3.612   1.223   3.363
 9971TIP3    H129856   3.574   1.138   3.342
 9971TIP3    H229857   3.599   1.234   3.457
 9972TIP3   OH229858   2.421   7.760   0.503
 9972TIP3    H129859   2.502   7.777   0.551
 9972TIP3    H229860   2.447   7.759   0.411
 9973TIP3   OH229861   6.111   4.966   5.724
 9973TIP3    H129862   6.125   4.908   5.649
 9973TIP3    H229863   6.041   4.923   5.774
 9974TIP3   OH229864   5.565   2.251   0.198
 9974TIP3    H129865   5.544   2.324   0.256
 9974TIP3    H229866   5.660   2.254   0.189
 9975TIP3   OH229867   6.985   7.408   1.817
 9975TIP3    H129868   6.964   7.434   1.727
 9975TIP3    H229869   6.911   7.354   1.844
 9976TIP3   OH229870   8.131   7.721   2.832
 9976TIP3    H129871   8.109   7.811   2.854
 9976TIP3    H229872   8.047   7.675   2.832
 9977TIP3   OH229873   1.609   2.135   5.995
 9977TIP3    H129874   1.698   2.152   6.026
 9977TIP3    H229875   1.554   2.191   6.049
 9978TIP3   OH229876   1.200   5.695   0.716
 9978TIP3    H129877   1.172   5.677   0.627
 9978TIP3    H229878   1.132   5.657   0.772
 9979TIP3   OH229879   5.042   7.090   6.762
 9979TIP3    H129880   4.989   7.011   6.775
 9979TIP3    H229881   5.019   7.120   6.674
 9980TIP3   OH229882   2.647   3.041   2.356
 9980TIP3    H129883   2.664   3.010   2.267
 9980TIP3    H229884   2.554   3.024   2.370
 9981TIP3   OH229885   1.376   3.610   2.833
 9981TIP3    H129886   1.384   3.661   2.753
 9981TIP3    H229887   1.306   3.547   2.814
 9982TIP3   OH229888   6.913   3.641   4.556
 9982TIP3    H129889   6.969   3.697   4.502
 9982TIP3    H229890   6.827   3.682   4.553
 9983TIP3   OH229891   7.232   7.799   5.071
 9983TIP3    H129892   7.254   7.769   5.159
 9983TIP3    H229893   7.293   7.752   5.014
 9984TIP3   OH229894   2.427   4.883   1.106
 9984TIP3    H129895   2.487   4.812   1.080
 9984TIP3    H229896   2.403   4.925   1.023
 9985TIP3   OH229897   6.994   1.695   1.689
 9985TIP3    H129898   6.910   1.706   1.734
 9985TIP3    H229899   6.970   1.677   1.598
 9986TIP3   OH229900   4.743   2.002   6.109
 9986TIP3    H129901   4.799   2.080   6.101
 9986TIP3    H229902   4.765   1.966   6.195
 9987TIP3   OH229903   1.428   6.859   0.874
 9987TIP3    H129904   1.505   6.896   0.832
 9987TIP3    H229905   1.372   6.934   0.894
 9988TIP3   OH229906   5.920   1.708   6.171
 9988TIP3    H129907   5.853   1.734   6.234
 9988TIP3    H229908   5.872   1.695   6.089
 9989TIP3   OH229909   8.127   4.816   0.349
 9989TIP3    H129910   8.165   4.819   0.262
 9989TIP3    H229911   8.121   4.723   0.370
 9990TIP3   OH229912   1.167   1.154   5.817
 9990TIP3    H129913   1.126   1.240   5.808
 9990TIP3    H229914   1.211   1.140   5.733
 9991TIP3   OH229915   7.120   7.132   2.081
 9991TIP3    H129916   7.158   7.188   2.013
 9991TIP3    H229917   7.158   7.164   2.163
 9992TIP3   OH229918   6.808   0.453   6.134
 9992TIP3    H129919   6.785   0.363   6.159
 9992TIP3    H229920   6.771   0.507   6.204
 9993TIP3   OH229921   3.255   7.728   5.563
 9993TIP3    H129922   3.276   7.668   5.492
 9993TIP3    H229923   3.189   7.786   5.527
 9994TIP3   OH229924   8.228   2.634   5.192
 9994TIP3    H129925   8.312   2.654   5.234
 9994TIP3    H229926   8.242   2.656   5.100
 9995TIP3   OH229927   7.279   4.432   0.328
 9995TIP3    H129928   7.248   4.510   0.282
 9995TIP3    H229929   7.365   4.456   0.362
 9996TIP3   OH229930   4.981   3.436   3.763
 9996TIP3    H129931   5.007   3.445   3.855
 9996TIP3    H229932   5.053   3.477   3.714
 9997TIP3   OH229933   6.626   3.583   1.691
 9997TIP3    H129934   6.535   3.611   1.699
 9997TIP3    H229935   6.633   3.548   1.601
 9998TIP3   OH229936   1.209   7.254   4.652
 9998TIP3    H129937   1.264   7.188   4.609
 9998TIP3    H229938   1.270   7.326   4.670
 9999TIP3   OH229939   3.288   2.375   4.685
 9999TIP3    H129940   3.296   2.281   4.701
 9999TIP3    H229941   3.336   2.416   4.757
10000TIP3   OH229942   2.722   4.330   2.665
10000TIP3    H129943   2.648   4.371   2.622
10000TIP3    H229944   2.697   4.238   2.674
10001TIP3   OH229945   3.910   6.611   3.392
10001TIP3    H129946   3.900   6.623   3.487
10001TIP3    H229947   3.934   6.698   3.360
10002TIP3   OH229948   5.380   0.821   4.037
10002TIP3    H129949   5.425   0.904   4.023
10002TIP3    H229950   5.449   0.759   4.059
10003TIP3   OH229951   7.130   0.557   3.009
10003TIP3    H129952   7.190   0.495   3.051
10003TIP3    H229953   7.182   0.600   2.942
10004TIP3   OH229954   5.625   0.461   2.388
10004TIP3    H129955   5.545   0.464   2.337
10004TIP3    H229956   5.681   0.398   2.341
10005TIP3   OH229957   2.029   2.477   1.738
10005TIP3    H129958   2.083   2.489   1.816
10005TIP3    H229959   1.939   2.482   1.770
10006TIP3   OH229960   6.081   2.052   1.573
10006TIP3    H129961   6.163   2.041   1.525
10006TIP3    H229962   6.054   2.142   1.553
10007TIP3   OH229963   6.615   1.776   6.187
10007TIP3    H129964   6.661   1.828   6.121
10007TIP3    H229965   6.618   1.687   6.153
10008TIP3   OH229966   4.457   7.395   2.569
10008TIP3    H129967   4.493   7.332   2.631
10008TIP3    H229968   4.532   7.425   2.518
10009TIP3   OH229969   3.839   6.388   1.372
10009TIP3    H129970   3.827   6.476   1.335
10009TIP3    H229971   3.753   6.364   1.406
10010TIP3   OH229972   3.270   1.512   1.024
10010TIP3    H129973   3.271   1.534   0.930
10010TIP3    H229974   3.303   1.591   1.067
10011TIP3   OH229975   4.485   2.940   1.800
10011TIP3    H129976   4.492   3.033   1.820
10011TIP3    H229977   4.463   2.899   1.884
10012TIP3   OH229978   2.350   0.159   1.197
10012TIP3    H129979   2.256   0.150   1.211
10012TIP3    H229980   2.388   0.148   1.285
10013TIP3   OH229981   1.129   2.746   2.116
10013TIP3    H129982   1.133   2.751   2.021
10013TIP3    H229983   1.069   2.817   2.141
10014TIP3   OH229984   5.123   3.024   6.448
10014TIP3    H129985   5.092   3.110   6.477
10014TIP3    H229986   5.117   3.027   6.353
10015TIP3   OH229987   4.925   2.360   0.892
10015TIP3    H129988   4.892   2.310   0.818
10015TIP3    H229989   5.004   2.315   0.919
10016TIP3   OH229990   6.757   1.795   1.790
10016TIP3    H129991   6.718   1.879   1.813
10016TIP3    H229992   6.698   1.730   1.828
10017TIP3   OH229993   1.641   0.971   4.740
10017TIP3    H129994   1.643   0.875   4.734
10017TIP3    H229995   1.549   0.991   4.757
10018TIP3   OH229996   6.809   5.639   3.056
10018TIP3    H129997   6.868   5.657   3.129
10018TIP3    H229998   6.860   5.581   2.999
10019TIP3   OH229999   4.638   6.941   6.238
10019TIP3    H130000   4.560   6.962   6.289
10019TIP3    H230001   4.703   6.914   6.303
10020TIP3   OH230002   6.572   3.673   5.431
10020TIP3    H130003   6.500   3.619   5.398
10020TIP3    H230004   6.629   3.685   5.356
10021TIP3   OH230005   1.044   2.888   3.128
10021TIP3    H130006   0.949   2.879   3.120
10021TIP3    H230007   1.080   2.835   3.057
10022TIP3   OH230008   1.285   1.734   4.696
10022TIP3    H130009   1.381   1.737   4.701
10022TIP3    H230010   1.261   1.821   4.665
10023TIP3   OH230011   7.879   6.416   2.116
10023TIP3    H130012   7.852   6.359   2.188
10023TIP3    H230013   7.942   6.364   2.066
10024TIP3   OH230014   1.679   5.229   2.857
10024TIP3    H130015   1.722   5.228   2.771
10024TIP3    H230016   1.743   5.272   2.914
10025TIP3   OH230017   6.113   4.255   6.596
10025TIP3    H130018   6.189   4.202   6.621
10025TIP3    H230019   6.056   4.195   6.547
10026TIP3   OH230020   5.111   5.556   3.288
10026TIP3    H130021   5.112   5.537   3.382
10026TIP3    H230022   5.151   5.642   3.280
10027TIP3   OH230023   3.282   1.692   1.953
10027TIP3    H130024   3.281   1.757   1.883
10027TIP3    H230025   3.359   1.638   1.935
10028TIP3   OH230026   2.435   4.164   3.266
10028TIP3    H130027   2.429   4.156   3.171
10028TIP3    H230028   2.449   4.257   3.281
10029TIP3   OH230029   5.307   2.489   2.180
10029TIP3    H130030   5.392   2.532   2.171
10029TIP3    H230031   5.244   2.561   2.182
10030TIP3   OH230032   0.944   3.287   2.131
10030TIP3    H130033   0.849   3.282   2.122
10030TIP3    H230034   0.959   3.365   2.185
10031TIP3   OH230035   2.044   1.686   1.552
10031TIP3    H130036   1.971   1.665   1.610
10031TIP3    H230037   2.111   1.723   1.610
10032TIP3   OH230038   1.546   3.316   1.928
10032TIP3    H130039   1.639   3.296   1.931
10032TIP3    H230040   1.505   3.249   1.983
10033TIP3   OH230041   2.275   7.352   6.600
10033TIP3    H130042   2.312   7.438   6.583
10033TIP3    H230043   2.277   7.344   6.696
10034TIP3   OH230044   6.515   7.460   5.488
10034TIP3    H130045   6.498   7.549   5.456
10034TIP3    H230046   6.610   7.452   5.488
10035TIP3   OH230047   3.961   6.478   1.009
10035TIP3    H130048   4.016   6.554   1.025
10035TIP3    H230049   3.875   6.502   1.045
10036TIP3   OH230050   6.334   0.325   5.212
10036TIP3    H130051   6.386   0.256   5.255
10036TIP3    H230052   6.244   0.305   5.234
10037TIP3   OH230053   6.533   2.046   5.089
10037TIP3    H130054   6.595   2.099   5.139
10037TIP3    H230055   6.485   2.110   5.035
10038TIP3   OH230056   6.591   7.136   1.937
10038TIP3    H130057   6.672   7.186   1.924
10038TIP3    H230058   6.537   7.158   1.861
10039TIP3   OH230059   6.235   1.228   1.089
10039TIP3    H130060   6.291   1.260   1.160
10039TIP3    H230061   6.168   1.175   1.133
10040TIP3   OH230062   4.761   4.990  -0.037
10040TIP3    H130063   4.824   5.017   0.029
10040TIP3    H230064   4.678   4.984   0.009
10041TIP3   OH230065   2.764   5.778   6.530
10041TIP3    H130066   2.692   5.822   6.485
10041TIP3    H230067   2.811   5.732   6.460
10042TIP3   OH230068   6.918   1.437   6.585
10042TIP3    H130069   7.000   1.402   6.551
10042TIP3    H230070   6.914   1.527   6.551
10043TIP3   OH230071   6.450   6.299   2.183
10043TIP3    H130072   6.480   6.358   2.252
10043TIP3    H230073   6.355   6.307   2.183
10044TIP3   OH230074   1.749   0.789   2.116
10044TIP3    H130075   1.662   0.828   2.124
10044TIP3    H230076   1.796   0.849   2.058
10045TIP3   OH230077   1.276   2.617   1.283
10045TIP3    H130078   1.317   2.697   1.317
10045TIP3    H230079   1.270   2.632   1.189
10046TIP3   OH230080   8.077   5.679   5.019
10046TIP3    H130081   8.147   5.638   5.071
10046TIP3    H230082   8.071   5.768   5.055
10047TIP3   OH230083   6.467   5.855   1.716
10047TIP3    H130084   6.543   5.913   1.727
10047TIP3    H230085   6.477   5.789   1.785
10048TIP3   OH230086   0.040   5.240   3.688
10048TIP3    H130087   0.100   5.183   3.641
10048TIP3    H230088  -0.033   5.184   3.713
10049TIP3   OH230089   4.308   0.556   3.018
10049TIP3    H130090   4.340   0.631   3.069
10049TIP3    H230091   4.319   0.583   2.927
10050TIP3   OH230092   2.168   5.397   3.413
10050TIP3    H130093   2.099   5.348   3.457
10050TIP3    H230094   2.163   5.485   3.452
10051TIP3   OH230095   8.048   0.437   5.372
10051TIP3    H130096   8.045   0.347   5.341
10051TIP3    H230097   8.014   0.489   5.299
10052TIP3   OH230098   2.997   6.061   1.330
10052TIP3    H130099   3.001   6.049   1.235
10052TIP3    H230100   2.910   6.031   1.354
10053TIP3   OH230101   0.691   4.317   5.433
10053TIP3    H130102   0.733   4.308   5.347
10053TIP3    H230103   0.711   4.235   5.478
10054TIP3   OH230104   7.319   4.383   6.024
10054TIP3    H130105   7.399   4.338   6.051
10054TIP3    H230106   7.348   4.469   5.993
10055TIP3   OH230107   0.650   2.639   4.846
10055TIP3    H130108   0.587   2.599   4.786
10055TIP3    H230109   0.698   2.565   4.883
10056TIP3   OH230110   6.248   5.865   6.058
10056TIP3    H130111   6.218   5.862   6.149
10056TIP3    H230112   6.169   5.879   6.007
10057TIP3   OH230113   3.602   7.698   2.283
10057TIP3    H130114   3.684   7.663   2.248
10057TIP3    H230115   3.535   7.660   2.227
10058TIP3   OH230116   6.379   4.455   6.696
10058TIP3    H130117   6.342   4.532   6.655
10058TIP3    H230118   6.430   4.489   6.770
10059TIP3   OH230119   8.207   3.565   3.417
10059TIP3    H130120   8.139   3.503   3.443
10059TIP3    H230121   8.252   3.521   3.345
10060TIP3   OH230122   6.111   7.557   4.333
10060TIP3    H130123   6.182   7.604   4.290
10060TIP3    H230124   6.138   7.548   4.424
10061TIP3   OH230125   0.516   6.437   0.596
10061TIP3    H130126   0.570   6.386   0.536
10061TIP3    H230127   0.574   6.455   0.671
10062TIP3   OH230128   2.976   3.432   4.108
10062TIP3    H130129   2.960   3.525   4.124
10062TIP3    H230130   3.011   3.429   4.019
10063TIP3   OH230131   2.478   3.618   4.983
10063TIP3    H130132   2.495   3.704   4.945
10063TIP3    H230133   2.541   3.611   5.054
10064TIP3   OH230134   3.150   1.902   4.881
10064TIP3    H130135   3.190   1.898   4.794
10064TIP3    H230136   3.162   1.993   4.908
10065TIP3   OH230137   0.508   7.758   1.101
10065TIP3    H130138   0.588   7.707   1.089
10065TIP3    H230139   0.444   7.716   1.043
10066TIP3   OH230140   6.669   4.111   4.913
10066TIP3    H130141   6.612   4.184   4.935
10066TIP3    H230142   6.731   4.147   4.850
10067TIP3   OH230143   7.651   0.332   2.667
10067TIP3    H130144   7.698   0.261   2.709
10067TIP3    H230145   7.709   0.408   2.676
10068TIP3   OH230146   5.266   6.024   3.375
10068TIP3    H130147   5.248   6.076   3.453
10068TIP3    H230148   5.317   6.082   3.319
10069TIP3   OH230149   7.729   5.446   6.113
10069TIP3    H130150   7.825   5.447   6.114
10069TIP3    H230151   7.705   5.460   6.205
10070TIP3   OH230152   2.011   2.090   4.964
10070TIP3    H130153   2.021   2.025   5.034
10070TIP3    H230154   2.011   2.039   4.884
10071TIP3   OH230155   3.190   5.191   3.199
10071TIP3    H130156   3.239   5.260   3.245
10071TIP3    H230157   3.187   5.118   3.261
10072TIP3   OH230158   7.966   3.469   3.212
10072TIP3    H130159   7.882   3.515   3.205
10072TIP3    H230160   8.031   3.538   3.213
10073TIP3   OH230161   0.058   4.036   5.177
10073TIP3    H130162   0.054   4.128   5.149
10073TIP3    H230163   0.027   4.037   5.267
10074TIP3   OH230164   3.238   6.108   5.455
10074TIP3    H130165   3.257   6.190   5.500
10074TIP3    H230166   3.250   6.128   5.362
10075TIP3   OH230167   3.473   0.523   4.357
10075TIP3    H130168   3.515   0.482   4.281
10075TIP3    H230169   3.537   0.515   4.427
10076TIP3   OH230170   4.183   6.334   0.875
10076TIP3    H130171   4.124   6.398   0.916
10076TIP3    H230172   4.125   6.275   0.827
10077TIP3   OH230173   0.152   3.204   1.637
10077TIP3    H130174   0.151   3.128   1.579
10077TIP3    H230175   0.236   3.198   1.683
10078TIP3   OH230176   7.021   6.153   5.111
10078TIP3    H130177   7.106   6.114   5.128
10078TIP3    H230178   6.992   6.113   5.029
10079TIP3   OH230179   8.259   5.930   3.931
10079TIP3    H130180   8.204   5.861   3.893
10079TIP3    H230181   8.226   5.940   4.020
10080TIP3   OH230182   3.243   6.649   2.996
10080TIP3    H130183   3.246   6.716   2.928
10080TIP3    H230184   3.326   6.659   3.044
10081TIP3   OH230185   7.052   3.378   4.056
10081TIP3    H130186   7.011   3.425   3.984
10081TIP3    H230187   7.102   3.308   4.015
10082TIP3   OH230188   3.852   1.898   2.606
10082TIP3    H130189   3.813   1.887   2.693
10082TIP3    H230190   3.878   1.990   2.604
10083TIP3   OH230191   2.520   4.298   5.534
10083TIP3    H130192   2.471   4.312   5.453
10083TIP3    H230193   2.611   4.286   5.506
10084TIP3   OH230194   2.071   0.290   5.638
10084TIP3    H130195   2.043   0.357   5.576
10084TIP3    H230196   2.166   0.285   5.627
10085TIP3   OH230197   2.466   2.805   6.534
10085TIP3    H130198   2.505   2.861   6.601
10085TIP3    H230199   2.372   2.826   6.538
10086TIP3   OH230200   7.470   1.337   1.785
10086TIP3    H130201   7.496   1.292   1.704
10086TIP3    H230202   7.482   1.430   1.764
10087TIP3   OH230203   5.146   3.419   0.320
10087TIP3    H130204   5.233   3.413   0.279
10087TIP3    H230205   5.163   3.458   0.406
10088TIP3   OH230206   3.674   4.569   5.488
10088TIP3    H130207   3.579   4.580   5.477
10088TIP3    H230208   3.708   4.658   5.490
10089TIP3   OH230209   4.365   4.346   5.984
10089TIP3    H130210   4.374   4.426   6.037
10089TIP3    H230211   4.444   4.345   5.929
10090TIP3   OH230212   6.372   1.109   2.924
10090TIP3    H130213   6.439   1.097   2.856
10090TIP3    H230214   6.410   1.172   2.985
10091TIP3   OH230215   7.579   1.477   0.692
10091TIP3    H130216   7.577   1.461   0.598
10091TIP3    H230217   7.545   1.566   0.703
10092TIP3   OH230218   6.806   5.541   4.048
10092TIP3    H130219   6.854   5.464   4.078
10092TIP3    H230220   6.750   5.564   4.122
10093TIP3   OH230221   0.735   1.150   2.148
10093TIP3    H130222   0.750   1.124   2.057
10093TIP3    H230223   0.820   1.141   2.190
10094TIP3   OH230224   3.891   6.462   0.443
10094TIP3    H130225   3.975   6.486   0.403
10094TIP3    H230226   3.914   6.432   0.531
10095TIP3   OH230227   1.595   4.863   3.388
10095TIP3    H130228   1.680   4.906   3.394
10095TIP3    H230229   1.608   4.778   3.430
10096TIP3   OH230230   5.449   2.187   4.046
10096TIP3    H130231   5.358   2.198   4.019
10096TIP3    H230232   5.450   2.216   4.138
10097TIP3   OH230233   4.836   1.943   3.666
10097TIP3    H130234   4.842   2.012   3.732
10097TIP3    H230235   4.854   1.862   3.714
10098TIP3   OH230236   3.007   7.392   2.445
10098TIP3    H130237   3.048   7.410   2.529
10098TIP3    H230238   3.018   7.473   2.395
10099TIP3   OH230239   3.374   3.511   0.617
10099TIP3    H130240   3.442   3.483   0.678
10099TIP3    H230241   3.300   3.535   0.672
10100TIP3   OH230242   5.881   2.149   2.836
10100TIP3    H130243   5.930   2.104   2.767
10100TIP3    H230244   5.790   2.146   2.807
10101TIP3   OH230245   1.192   1.996   0.617
10101TIP3    H130246   1.251   2.036   0.682
10101TIP3    H230247   1.166   1.913   0.657
10102TIP3   OH230248   6.185   6.356   2.192
10102TIP3    H130249   6.121   6.399   2.136
10102TIP3    H230250   6.150   6.268   2.207
10103TIP3   OH230251   0.676   3.395   5.010
10103TIP3    H130252   0.718   3.321   4.965
10103TIP3    H230253   0.582   3.381   4.997
10104TIP3   OH230254   6.199   0.241   3.796
10104TIP3    H130255   6.293   0.257   3.790
10104TIP3    H230256   6.184   0.219   3.887
10105TIP3   OH230257   0.039   2.977   6.072
10105TIP3    H130258   0.108   2.939   6.018
10105TIP3    H230259   0.069   2.964   6.162
10106TIP3   OH230260   7.623   5.815   0.898
10106TIP3    H130261   7.665   5.818   0.812
10106TIP3    H230262   7.585   5.903   0.908
10107TIP3   OH230263   3.681   3.484   6.736
10107TIP3    H130264   3.627   3.495   6.658
10107TIP3    H230265   3.734   3.563   6.740
10108TIP3   OH230266   6.592   0.385   0.604
10108TIP3    H130267   6.619   0.476   0.593
10108TIP3    H230268   6.626   0.340   0.527
10109TIP3   OH230269   6.158   0.093   4.988
10109TIP3    H130270   6.090   0.045   4.941
10109TIP3    H230271   6.222   0.116   4.921
10110TIP3   OH230272   6.071   4.662   6.208
10110TIP3    H130273   6.055   4.751   6.178
10110TIP3    H230274   6.154   4.666   6.255
10111TIP3   OH230275   1.720   1.545   3.838
10111TIP3    H130276   1.629   1.574   3.849
10111TIP3    H230277   1.767   1.585   3.911
10112TIP3   OH230278   0.073   5.493   1.279
10112TIP3    H130279   0.055   5.577   1.321
10112TIP3    H230280  -0.009   5.444   1.288
10113TIP3   OH230281   4.972   2.296   5.043
10113TIP3    H130282   5.008   2.336   5.122
10113TIP3    H230283   4.887   2.262   5.069
10114TIP3   OH230284   0.126   5.066   2.816
10114TIP3    H130285   0.198   5.122   2.844
10114TIP3    H230286   0.068   5.124   2.767
10115TIP3   OH230287   2.306   0.848   0.654
10115TIP3    H130288   2.284   0.816   0.567
10115TIP3    H230289   2.345   0.773   0.699
10116TIP3   OH230290   1.418   4.091   1.704
10116TIP3    H130291   1.375   4.150   1.766
10116TIP3    H230292   1.348   4.067   1.643
10117TIP3   OH230293   4.496   6.822   2.736
10117TIP3    H130294   4.454   6.797   2.654
10117TIP3    H230295   4.463   6.760   2.801
10118TIP3   OH230296   3.946   1.900   6.040
10118TIP3    H130297   3.966   1.915   5.947
10118TIP3    H230298   4.029   1.915   6.085
10119TIP3   OH230299   4.891   3.177   6.236
10119TIP3    H130300   4.959   3.215   6.292
10119TIP3    H230301   4.857   3.104   6.286
10120TIP3   OH230302   7.662   5.700   4.282
10120TIP3    H130303   7.632   5.627   4.336
10120TIP3    H230304   7.596   5.709   4.214
10121TIP3   OH230305   2.119   4.734   4.940
10121TIP3    H130306   2.156   4.810   4.983
10121TIP3    H230307   2.079   4.683   5.010
10122TIP3   OH230308   1.477   6.900   1.564
10122TIP3    H130309   1.381   6.904   1.569
10122TIP3    H230310   1.498   6.934   1.477
10123TIP3   OH230311   7.053   6.810   5.423
10123TIP3    H130312   7.068   6.891   5.376
10123TIP3    H230313   7.107   6.818   5.502
10124TIP3   OH230314   6.215   6.814   2.799
10124TIP3    H130315   6.193   6.803   2.891
10124TIP3    H230316   6.303   6.778   2.791
10125TIP3   OH230317   5.995   7.454   6.100
10125TIP3    H130318   6.064   7.401   6.060
10125TIP3    H230319   6.042   7.519   6.153
10126TIP3   OH230320   6.985   3.956   4.061
10126TIP3    H130321   7.023   3.951   3.973
10126TIP3    H230322   7.060   3.947   4.120
10127TIP3   OH230323   4.018   2.286   3.354
10127TIP3    H130324   3.972   2.369   3.358
10127TIP3    H230325   3.967   2.233   3.292
10128TIP3   OH230326   6.724   5.465   0.686
10128TIP3    H130327   6.774   5.384   0.693
10128TIP3    H230328   6.633   5.437   0.675
10129TIP3   OH230329   6.983   6.187   4.662
10129TIP3    H130330   7.069   6.215   4.692
10129TIP3    H230331   6.934   6.269   4.650
10130TIP3   OH230332   2.666   7.232   6.623
10130TIP3    H130333   2.751   7.226   6.666
10130TIP3    H230334   2.671   7.169   6.551
10131TIP3   OH230335   5.078   0.961   6.745
10131TIP3    H130336   5.166   0.947   6.710
10131TIP3    H230337   5.026   0.891   6.706
10132TIP3   OH230338   2.563   7.542   1.270
10132TIP3    H130339   2.620   7.556   1.346
10132TIP3    H230340   2.603   7.595   1.200
10133TIP3   OH230341   6.355   1.065   2.255
10133TIP3    H130342   6.426   1.024   2.304
10133TIP3    H230343   6.378   1.050   2.163
10134TIP3   OH230344   6.894   4.407   5.877
10134TIP3    H130345   6.938   4.487   5.848
10134TIP3    H230346   6.850   4.374   5.799
10135TIP3   OH230347   6.718   5.407   4.417
10135TIP3    H130348   6.690   5.491   4.454
10135TIP3    H230349   6.638   5.370   4.379
10136TIP3   OH230350   0.373   4.477   4.135
10136TIP3    H130351   0.376   4.498   4.228
10136TIP3    H230352   0.290   4.429   4.124
10137TIP3   OH230353   0.796   1.665   0.534
10137TIP3    H130354   0.886   1.657   0.503
10137TIP3    H230355   0.783   1.588   0.589
10138TIP3   OH230356   6.672   2.109   0.611
10138TIP3    H130357   6.734   2.139   0.545
10138TIP3    H230358   6.713   2.032   0.649
10139TIP3   OH230359   1.739   3.457   4.264
10139TIP3    H130360   1.738   3.531   4.325
10139TIP3    H230361   1.768   3.383   4.318
10140TIP3   OH230362   0.475   2.190   2.211
10140TIP3    H130363   0.548   2.173   2.270
10140TIP3    H230364   0.454   2.104   2.174
10141TIP3   OH230365   4.339   4.584   2.357
10141TIP3    H130366   4.392   4.570   2.436
10141TIP3    H230367   4.402   4.613   2.291
10142TIP3   OH230368   3.789   2.305   2.363
10142TIP3    H130369   3.724   2.337   2.301
10142TIP3    H230370   3.746   2.232   2.408
10143TIP3   OH230371   7.705   7.207   2.488
10143TIP3    H130372   7.739   7.218   2.577
10143TIP3    H230373   7.757   7.267   2.435
10144TIP3   OH230374   4.600   5.555   2.915
10144TIP3    H130375   4.648   5.599   2.844
10144TIP3    H230376   4.668   5.507   2.963
10145TIP3   OH230377   4.970   7.432   6.718
10145TIP3    H130378   5.046   7.375   6.709
10145TIP3    H230379   4.897   7.380   6.685
10146TIP3   OH230380   8.176   6.169   0.724
10146TIP3    H130381   8.130   6.144   0.804
10146TIP3    H230382   8.264   6.134   0.735
10147TIP3   OH230383   4.596   3.317   0.993
10147TIP3    H130384   4.522   3.346   0.940
10147TIP3    H230385   4.582   3.357   1.078
10148TIP3   OH230386   4.354   2.063   3.534
10148TIP3    H130387   4.316   2.150   3.524
10148TIP3    H230388   4.280   2.002   3.528
10149TIP3   OH230389   0.064   0.431   6.503
10149TIP3    H130390   0.100   0.367   6.564
10149TIP3    H230391   0.141   0.480   6.473
10150TIP3   OH230392   8.104   5.743   0.417
10150TIP3    H130393   8.180   5.688   0.436
10150TIP3    H230394   8.031   5.698   0.459
10151TIP3   OH230395   7.755   2.577   0.613
10151TIP3    H130396   7.724   2.601   0.701
10151TIP3    H230397   7.763   2.482   0.615
10152TIP3   OH230398   1.276   4.933   4.037
10152TIP3    H130399   1.298   4.869   4.104
10152TIP3    H230400   1.284   4.885   3.954
10153TIP3   OH230401   2.489   5.009   1.334
10153TIP3    H130402   2.472   4.946   1.264
10153TIP3    H230403   2.510   4.956   1.410
10154TIP3   OH230404   5.523   3.587   5.605
10154TIP3    H130405   5.487   3.599   5.517
10154TIP3    H230406   5.524   3.675   5.642
10155TIP3   OH230407   5.511   3.882   3.849
10155TIP3    H130408   5.529   3.806   3.793
10155TIP3    H230409   5.477   3.845   3.930
10156TIP3   OH230410   5.345   4.859   1.964
10156TIP3    H130411   5.282   4.856   2.036
10156TIP3    H230412   5.425   4.823   2.002
10157TIP3   OH230413   7.697   7.076   3.358
10157TIP3    H130414   7.637   7.004   3.379
10157TIP3    H230415   7.699   7.129   3.438
10158TIP3   OH230416   4.012   1.391   1.636
10158TIP3    H130417   4.031   1.299   1.652
10158TIP3    H230418   4.094   1.436   1.657
10159TIP3   OH230419   4.076   6.415   3.284
10159TIP3    H130420   4.043   6.496   3.323
10159TIP3    H230421   4.043   6.416   3.194
10160TIP3   OH230422   6.423   7.281   3.847
10160TIP3    H130423   6.513   7.274   3.879
10160TIP3    H230424   6.423   7.232   3.765
10161TIP3   OH230425   5.025   0.993   5.516
10161TIP3    H130426   5.094   0.938   5.554
10161TIP3    H230427   5.061   1.081   5.517
10162TIP3   OH230428   6.754   7.671   2.027
10162TIP3    H130429   6.731   7.611   2.098
10162TIP3    H230430   6.795   7.746   2.071
10163TIP3   OH230431   7.947   1.784   2.283
10163TIP3    H130432   7.890   1.739   2.220
10163TIP3    H230433   7.902   1.867   2.299
10164TIP3   OH230434   2.605   6.153   1.888
10164TIP3    H130435   2.646   6.160   1.802
10164TIP3    H230436   2.562   6.238   1.901
10165TIP3   OH230437   5.267   2.902   3.765
10165TIP3    H130438   5.201   2.950   3.815
10165TIP3    H230439   5.236   2.812   3.763
10166TIP3   OH230440   3.190   4.994   2.224
10166TIP3    H130441   3.117   5.024   2.277
10166TIP3    H230442   3.247   5.071   2.215
10167TIP3   OH230443   7.570   3.173   2.615
10167TIP3    H130444   7.536   3.164   2.704
10167TIP3    H230445   7.637   3.106   2.608
10168TIP3   OH230446   7.305   1.891   5.733
10168TIP3    H130447   7.268   1.808   5.764
10168TIP3    H230448   7.321   1.877   5.640
10169TIP3   OH230449   7.273   5.904   1.478
10169TIP3    H130450   7.280   5.965   1.551
10169TIP3    H230451   7.242   5.958   1.405
10170TIP3   OH230452   0.178   6.449   4.042
10170TIP3    H130453   0.145   6.457   4.132
10170TIP3    H230454   0.117   6.388   3.999
10171TIP3   OH230455   4.736   2.832   2.056
10171TIP3    H130456   4.830   2.818   2.045
10171TIP3    H230457   4.720   2.919   2.021
10172TIP3   OH230458   0.510   1.018   5.028
10172TIP3    H130459   0.585   0.969   4.994
10172TIP3    H230460   0.477   0.963   5.099
10173TIP3   OH230461   7.418   3.753   1.811
10173TIP3    H130462   7.351   3.820   1.828
10173TIP3    H230463   7.440   3.765   1.719
10174TIP3   OH230464   7.146   6.952   4.383
10174TIP3    H130465   7.162   6.865   4.347
10174TIP3    H230466   7.144   7.010   4.307
10175TIP3   OH230467   0.999   0.225   2.194
10175TIP3    H130468   0.914   0.220   2.151
10175TIP3    H230469   1.062   0.235   2.123
10176TIP3   OH230470   2.514   4.036   6.726
10176TIP3    H130471   2.602   4.074   6.723
10176TIP3    H230472   2.491   4.037   6.819
10177TIP3   OH230473   7.448   7.623   5.567
10177TIP3    H130474   7.382   7.608   5.634
10177TIP3    H230475   7.482   7.711   5.584
10178TIP3   OH230476   1.761   0.975   5.060
10178TIP3    H130477   1.734   0.990   5.150
10178TIP3    H230478   1.740   0.883   5.043
10179TIP3   OH230479   4.973   6.970   5.694
10179TIP3    H130480   4.882   6.941   5.686
10179TIP3    H230481   4.968   7.066   5.698
10180TIP3   OH230482   7.859   7.517   3.828
10180TIP3    H130483   7.769   7.485   3.836
10180TIP3    H230484   7.866   7.548   3.738
10181TIP3   OH230485   6.614   7.246   3.525
10181TIP3    H130486   6.522   7.225   3.538
10181TIP3    H230487   6.625   7.255   3.431
10182TIP3   OH230488   0.123   6.096   1.012
10182TIP3    H130489   0.070   6.176   1.004
10182TIP3    H230490   0.115   6.053   0.927
10183TIP3   OH230491   5.452   3.926   4.906
10183TIP3    H130492   5.407   3.842   4.897
10183TIP3    H230493   5.511   3.929   4.830
10184TIP3   OH230494   0.618   6.788   0.449
10184TIP3    H130495   0.544   6.797   0.388
10184TIP3    H230496   0.644   6.878   0.469
10185TIP3   OH230497   2.150   1.900   5.137
10185TIP3    H130498   2.121   1.816   5.172
10185TIP3    H230499   2.160   1.956   5.215
10186TIP3   OH230500   8.091   3.327   0.431
10186TIP3    H130501   8.088   3.369   0.344
10186TIP3    H230502   8.036   3.249   0.422
10187TIP3   OH230503   6.604   2.260   4.469
10187TIP3    H130504   6.565   2.334   4.515
10187TIP3    H230505   6.641   2.299   4.390
10188TIP3   OH230506   6.246   5.635   6.669
10188TIP3    H130507   6.185   5.693   6.624
10188TIP3    H230508   6.285   5.583   6.599
10189TIP3   OH230509   7.312   2.484   1.448
10189TIP3    H130510   7.388   2.471   1.391
10189TIP3    H230511   7.236   2.470   1.391
10190TIP3   OH230512   1.332   3.758   3.890
10190TIP3    H130513   1.327   3.765   3.794
10190TIP3    H230514   1.242   3.737   3.917
10191TIP3   OH230515   4.518   0.991   5.615
10191TIP3    H130516   4.523   0.952   5.702
10191TIP3    H230517   4.542   1.083   5.629
10192TIP3   OH230518   2.032   6.923   6.321
10192TIP3    H130519   2.086   6.918   6.242
10192TIP3    H230520   2.001   7.013   6.323
10193TIP3   OH230521   4.581   3.836   2.386
10193TIP3    H130522   4.623   3.922   2.382
10193TIP3    H230523   4.533   3.837   2.469
10194TIP3   OH230524   4.417   2.902   3.748
10194TIP3    H130525   4.485   2.876   3.685
10194TIP3    H230526   4.379   2.981   3.710
10195TIP3   OH230527   7.998   7.797   6.331
10195TIP3    H130528   8.024   7.720   6.281
10195TIP3    H230529   8.018   7.775   6.422
10196TIP3   OH230530   1.406   6.415   3.956
10196TIP3    H130531   1.415   6.326   3.989
10196TIP3    H230532   1.360   6.406   3.873
10197TIP3   OH230533   1.275   2.106   2.133
10197TIP3    H130534   1.354   2.130   2.180
10197TIP3    H230535   1.299   2.027   2.084
10198TIP3   OH230536   1.649   3.632   0.316
10198TIP3    H130537   1.690   3.698   0.258
10198TIP3    H230538   1.718   3.567   0.330
10199TIP3   OH230539   1.501   2.673   4.457
10199TIP3    H130540   1.533   2.762   4.448
10199TIP3    H230541   1.483   2.645   4.367
10200TIP3   OH230542   7.554   5.332   5.741
10200TIP3    H130543   7.459   5.346   5.733
10200TIP3    H230544   7.577   5.280   5.665
10201TIP3   OH230545   2.507   0.364   5.070
10201TIP3    H130546   2.487   0.399   4.983
10201TIP3    H230547   2.421   0.341   5.106
10202TIP3   OH230548   4.030   3.514   0.845
10202TIP3    H130549   3.977   3.572   0.790
10202TIP3    H230550   3.969   3.480   0.911
10203TIP3   OH230551   7.663   4.380   4.043
10203TIP3    H130552   7.753   4.385   4.011
10203TIP3    H230553   7.626   4.467   4.027
10204TIP3   OH230554   7.562   4.088   5.187
10204TIP3    H130555   7.580   4.032   5.111
10204TIP3    H230556   7.635   4.150   5.188
10205TIP3   OH230557   5.010   7.705   5.436
10205TIP3    H130558   5.074   7.706   5.507
10205TIP3    H230559   4.927   7.725   5.479
10206TIP3   OH230560   3.134   2.281   3.982
10206TIP3    H130561   3.218   2.235   3.988
10206TIP3    H230562   3.147   2.349   3.917
10207TIP3   OH230563   3.823   2.985   5.050
10207TIP3    H130564   3.788   2.898   5.068
10207TIP3    H230565   3.757   3.027   4.994
10208TIP3   OH230566   5.134   3.006   6.108
10208TIP3    H130567   5.057   3.063   6.112
10208TIP3    H230568   5.208   3.067   6.112
10209TIP3   OH230569   0.424   6.834   0.274
10209TIP3    H130570   0.391   6.884   0.199
10209TIP3    H230571   0.373   6.868   0.348
10210TIP3   OH230572   0.843   7.282   1.272
10210TIP3    H130573   0.767   7.333   1.300
10210TIP3    H230574   0.898   7.344   1.224
10211TIP3   OH230575   6.731   1.104   2.250
10211TIP3    H130576   6.692   1.152   2.178
10211TIP3    H230577   6.768   1.026   2.209
10212TIP3   OH230578   4.932   2.793   0.844
10212TIP3    H130579   4.900   2.727   0.906
10212TIP3    H230580   4.909   2.877   0.883
10213TIP3   OH230581   5.067   2.455   3.089
10213TIP3    H130582   5.114   2.371   3.094
10213TIP3    H230583   5.016   2.459   3.170
10214TIP3   OH230584   1.886   0.904   0.183
10214TIP3    H130585   1.859   0.861   0.264
10214TIP3    H230586   1.921   0.833   0.128
10215TIP3   OH230587   5.297   5.641   6.112
10215TIP3    H130588   5.342   5.560   6.089
10215TIP3    H230589   5.298   5.642   6.208
10216TIP3   OH230590   1.101   0.173   0.463
10216TIP3    H130591   1.020   0.144   0.506
10216TIP3    H230592   1.110   0.115   0.387
10217TIP3   OH230593   0.872   7.552   5.151
10217TIP3    H130594   0.966   7.570   5.162
10217TIP3    H230595   0.859   7.468   5.195
10218TIP3   OH230596   4.544   2.735   3.350
10218TIP3    H130597   4.482   2.802   3.321
10218TIP3    H230598   4.611   2.784   3.399
10219TIP3   OH230599   4.093   1.462   4.767
10219TIP3    H130600   4.042   1.478   4.847
10219TIP3    H230601   4.174   1.511   4.780
10220TIP3   OH230602   2.268   7.079   3.183
10220TIP3    H130603   2.320   6.998   3.177
10220TIP3    H230604   2.205   7.071   3.111
10221TIP3   OH230605   0.211   7.203   4.528
10221TIP3    H130606   0.232   7.236   4.616
10221TIP3    H230607   0.276   7.244   4.471
10222TIP3   OH230608   1.904   1.490   3.646
10222TIP3    H130609   1.857   1.522   3.723
10222TIP3    H230610   1.994   1.481   3.675
10223TIP3   OH230611   0.282   4.082   5.022
10223TIP3    H130612   0.349   4.013   5.016
10223TIP3    H230613   0.206   4.038   5.062
10224TIP3   OH230614   8.006   6.679   4.034
10224TIP3    H130615   8.040   6.751   3.980
10224TIP3    H230616   7.920   6.709   4.063
10225TIP3   OH230617   1.999   2.657   5.002
10225TIP3    H130618   2.058   2.581   5.000
10225TIP3    H230619   1.997   2.683   5.094
10226TIP3   OH230620   4.322   4.033   2.948
10226TIP3    H130621   4.394   4.031   2.885
10226TIP3    H230622   4.254   4.085   2.904
10227TIP3   OH230623   0.514   5.231   5.407
10227TIP3    H130624   0.557   5.287   5.472
10227TIP3    H230625   0.585   5.176   5.373
10228TIP3   OH230626   8.007   0.799   0.204
10228TIP3    H130627   7.916   0.827   0.197
10228TIP3    H230628   8.054   0.877   0.234
10229TIP3   OH230629   0.412   1.580   2.442
10229TIP3    H130630   0.437   1.564   2.351
10229TIP3    H230631   0.492   1.567   2.492
10230TIP3   OH230632   1.649   7.331   3.759
10230TIP3    H130633   1.684   7.265   3.698
10230TIP3    H230634   1.615   7.400   3.702
10231TIP3   OH230635   1.893   4.989   2.760
10231TIP3    H130636   1.959   5.058   2.751
10231TIP3    H230637   1.885   4.976   2.854
10232TIP3   OH230638   2.041   7.552   2.783
10232TIP3    H130639   2.026   7.498   2.705
10232TIP3    H230640   2.134   7.574   2.779
10233TIP3   OH230641   2.203   2.415   1.539
10233TIP3    H130642   2.198   2.480   1.469
10233TIP3    H230643   2.156   2.454   1.613
10234TIP3   OH230644   1.521   1.949   4.415
10234TIP3    H130645   1.462   1.886   4.458
10234TIP3    H230646   1.548   2.009   4.485
10235TIP3   OH230647   3.628   7.348   1.208
10235TIP3    H130648   3.634   7.258   1.241
10235TIP3    H230649   3.692   7.352   1.137
10236TIP3   OH230650   8.095   1.953   3.217
10236TIP3    H130651   8.109   1.935   3.124
10236TIP3    H230652   8.145   2.032   3.234
10237TIP3   OH230653   3.776   5.939   1.812
10237TIP3    H130654   3.700   5.993   1.833
10237TIP3    H230655   3.745   5.849   1.817
10238TIP3   OH230656   5.589   1.434   1.309
10238TIP3    H130657   5.590   1.439   1.214
10238TIP3    H230658   5.673   1.471   1.336
10239TIP3   OH230659   7.290   0.700   3.340
10239TIP3    H130660   7.295   0.608   3.312
10239TIP3    H230661   7.350   0.746   3.281
10240TIP3   OH230662   0.845   6.667   4.809
10240TIP3    H130663   0.814   6.601   4.747
10240TIP3    H230664   0.897   6.618   4.872
10241TIP3   OH230665   4.411   4.097   2.180
10241TIP3    H130666   4.438   4.183   2.215
10241TIP3    H230667   4.488   4.042   2.193
10242TIP3   OH230668   6.924   0.699   2.342
10242TIP3    H130669   6.950   0.617   2.299
10242TIP3    H230670   6.904   0.673   2.432
10243TIP3   OH230671   0.500   6.405   1.178
10243TIP3    H130672   0.466   6.320   1.151
10243TIP3    H230673   0.424   6.463   1.173
10244TIP3   OH230674   0.171   4.641   4.394
10244TIP3    H130675   0.136   4.666   4.480
10244TIP3    H230676   0.102   4.665   4.333
10245TIP3   OH230677   3.907   0.318   2.751
10245TIP3    H130678   3.917   0.226   2.773
10245TIP3    H230679   3.994   0.356   2.767
10246TIP3   OH230680   0.085   7.496   5.816
10246TIP3    H130681   0.143   7.430   5.855
10246TIP3    H230682   0.144   7.554   5.768
10247TIP3   OH230683   1.771   1.634   2.777
10247TIP3    H130684   1.827   1.620   2.701
10247TIP3    H230685   1.831   1.653   2.848
10248TIP3   OH230686   4.272   6.856   0.753
10248TIP3    H130687   4.235   6.802   0.683
10248TIP3    H230688   4.208   6.926   0.767
10249TIP3   OH230689   4.065   2.357   2.987
10249TIP3    H130690   4.106   2.404   3.060
10249TIP3    H230691   3.971   2.371   3.000
10250TIP3   OH230692   4.686   1.432   1.101
10250TIP3    H130693   4.667   1.429   1.195
10250TIP3    H230694   4.756   1.367   1.089
10251TIP3   OH230695   3.204   4.892   6.343
10251TIP3    H130696   3.127   4.949   6.342
10251TIP3    H230697   3.279   4.951   6.347
10252TIP3   OH230698   2.653   5.874   3.608
10252TIP3    H130699   2.577   5.842   3.560
10252TIP3    H230700   2.728   5.833   3.565
10253TIP3   OH230701   1.089   5.771   1.979
10253TIP3    H130702   1.167   5.771   2.033
10253TIP3    H230703   1.016   5.769   2.041
10254TIP3   OH230704   5.863   5.652   5.723
10254TIP3    H130705   5.949   5.694   5.714
10254TIP3    H230706   5.812   5.713   5.776
10255TIP3   OH230707   3.303   7.601   0.201
10255TIP3    H130708   3.264   7.526   0.246
10255TIP3    H230709   3.301   7.672   0.266
10256TIP3   OH230710   7.310   0.112   0.127
10256TIP3    H130711   7.320   0.139   0.035
10256TIP3    H230712   7.376   0.163   0.174
10257TIP3   OH230713   0.565   6.179   2.830
10257TIP3    H130714   0.612   6.253   2.868
10257TIP3    H230715   0.536   6.210   2.745
10258TIP3   OH230716   0.542   6.181   4.209
10258TIP3    H130717   0.563   6.274   4.220
10258TIP3    H230718   0.624   6.141   4.179
10259TIP3   OH230719   5.756   6.523   6.068
10259TIP3    H130720   5.778   6.594   6.008
10259TIP3    H230721   5.668   6.545   6.100
10260TIP3   OH230722   3.948   3.287   4.263
10260TIP3    H130723   4.011   3.221   4.233
10260TIP3    H230724   3.986   3.371   4.235
10261TIP3   OH230725   0.441   5.087   0.458
10261TIP3    H130726   0.466   5.014   0.515
10261TIP3    H230727   0.523   5.113   0.416
10262TIP3   OH230728   6.829   7.749   0.381
10262TIP3    H130729   6.873   7.817   0.330
10262TIP3    H230730   6.881   7.742   0.461
10263TIP3   OH230731   3.170   2.594   1.605
10263TIP3    H130732   3.136   2.617   1.518
10263TIP3    H230733   3.265   2.608   1.597
10264TIP3   OH230734   7.136   2.481   1.864
10264TIP3    H130735   7.083   2.459   1.788
10264TIP3    H230736   7.218   2.434   1.852
10265TIP3   OH230737   0.391   2.300   2.641
10265TIP3    H130738   0.414   2.382   2.599
10265TIP3    H230739   0.474   2.256   2.656
10266TIP3   OH230740   4.257   4.842   0.728
10266TIP3    H130741   4.343   4.827   0.689
10266TIP3    H230742   4.223   4.754   0.745
10267TIP3   OH230743   5.383   5.318   5.487
10267TIP3    H130744   5.308   5.366   5.451
10267TIP3    H230745   5.417   5.376   5.556
10268TIP3   OH230746   5.139   5.203   4.240
10268TIP3    H130747   5.176   5.195   4.328
10268TIP3    H230748   5.045   5.214   4.255
10269TIP3   OH230749   0.304   1.689   2.919
10269TIP3    H130750   0.374   1.685   2.853
10269TIP3    H230751   0.346   1.658   2.999
10270TIP3   OH230752   5.246   5.784   3.216
10270TIP3    H130753   5.240   5.850   3.286
10270TIP3    H230754   5.321   5.812   3.163
10271TIP3   OH230755   2.487   1.276   2.278
10271TIP3    H130756   2.484   1.243   2.188
10271TIP3    H230757   2.512   1.368   2.268
10272TIP3   OH230758   3.442   5.031   4.109
10272TIP3    H130759   3.435   4.956   4.168
10272TIP3    H230760   3.521   5.077   4.137
10273TIP3   OH230761   3.201   1.736   6.675
10273TIP3    H130762   3.170   1.706   6.589
10273TIP3    H230763   3.155   1.819   6.690
10274TIP3   OH230764   3.201   6.268   6.104
10274TIP3    H130765   3.277   6.283   6.160
10274TIP3    H230766   3.143   6.214   6.157
10275TIP3   OH230767   1.075   7.435   6.303
10275TIP3    H130768   1.000   7.391   6.262
10275TIP3    H230769   1.142   7.437   6.234
10276TIP3   OH230770   5.098   6.307   2.609
10276TIP3    H130771   5.063   6.219   2.601
10276TIP3    H230772   5.059   6.341   2.689
10277TIP3   OH230773   5.890   7.741   0.655
10277TIP3    H130774   5.875   7.767   0.746
10277TIP3    H230775   5.966   7.794   0.628
10278TIP3   OH230776   4.920   4.690   1.266
10278TIP3    H130777   4.870   4.670   1.187
10278TIP3    H230778   4.978   4.615   1.278
10279TIP3   OH230779   7.725   7.659   2.595
10279TIP3    H130780   7.652   7.608   2.629
10279TIP3    H230781   7.737   7.730   2.658
10280TIP3   OH230782   7.352   6.614   0.558
10280TIP3    H130783   7.420   6.585   0.618
10280TIP3    H230784   7.344   6.708   0.575
10281TIP3   OH230785   1.993   3.655   3.333
10281TIP3    H130786   1.910   3.608   3.330
10281TIP3    H230787   2.058   3.587   3.351
10282TIP3   OH230788   3.298   0.864   5.158
10282TIP3    H130789   3.219   0.885   5.208
10282TIP3    H230790   3.301   0.768   5.157
10283TIP3   OH230791   2.478   2.406   1.462
10283TIP3    H130792   2.391   2.366   1.469
10283TIP3    H230793   2.517   2.393   1.549
10284TIP3   OH230794   0.580   4.851   3.891
10284TIP3    H130795   0.490   4.835   3.865
10284TIP3    H230796   0.581   4.943   3.919
10285TIP3   OH230797   4.341   5.545   4.429
10285TIP3    H130798   4.282   5.520   4.500
10285TIP3    H230799   4.414   5.484   4.435
10286TIP3   OH230800   1.749   5.901   1.332
10286TIP3    H130801   1.799   5.892   1.413
10286TIP3    H230802   1.661   5.872   1.355
10287TIP3   OH230803   3.003   4.405  -0.002
10287TIP3    H130804   2.998   4.317  -0.039
10287TIP3    H230805   2.921   4.416   0.046
10288TIP3   OH230806   7.272   3.023   4.434
10288TIP3    H130807   7.193   3.025   4.486
10288TIP3    H230808   7.291   3.116   4.416
10289TIP3   OH230809   4.747   6.842   6.692
10289TIP3    H130810   4.766   6.748   6.687
10289TIP3    H230811   4.740   6.860   6.785
10290TIP3   OH230812   0.591   5.465   0.825
10290TIP3    H130813   0.511   5.473   0.877
10290TIP3    H230814   0.580   5.382   0.777
10291TIP3   OH230815   3.160   6.487   2.438
10291TIP3    H130816   3.119   6.487   2.352
10291TIP3    H230817   3.094   6.449   2.496
10292TIP3   OH230818   0.260   2.222   6.585
10292TIP3    H130819   0.316   2.145   6.591
10292TIP3    H230820   0.311   2.293   6.623
10293TIP3   OH230821   6.907   3.935   3.688
10293TIP3    H130822   6.848   3.908   3.757
10293TIP3    H230823   6.972   3.865   3.682
10294TIP3   OH230824   6.439   0.257   4.212
10294TIP3    H130825   6.522   0.214   4.230
10294TIP3    H230826   6.400   0.205   4.142
10295TIP3   OH230827   0.802   6.673   6.102
10295TIP3    H130828   0.800   6.589   6.057
10295TIP3    H230829   0.881   6.716   6.069
10296TIP3   OH230830   1.144   3.715   1.057
10296TIP3    H130831   1.216   3.732   0.997
10296TIP3    H230832   1.067   3.751   1.013
10297TIP3   OH230833   7.390   6.611   2.333
10297TIP3    H130834   7.347   6.674   2.390
10297TIP3    H230835   7.474   6.592   2.376
10298TIP3   OH230836   3.860   1.095   6.064
10298TIP3    H130837   3.807   1.015   6.056
10298TIP3    H230838   3.804   1.155   6.113
10299TIP3   OH230839   7.609   1.461   2.008
10299TIP3    H130840   7.591   1.443   1.916
10299TIP3    H230841   7.704   1.454   2.016
10300TIP3   OH230842   4.266   2.310   3.458
10300TIP3    H130843   4.286   2.381   3.519
10300TIP3    H230844   4.173   2.318   3.441
10301TIP3   OH230845   5.783   2.611   3.302
10301TIP3    H130846   5.846   2.620   3.374
10301TIP3    H230847   5.711   2.560   3.340
10302TIP3   OH230848   7.146   4.724   4.477
10302TIP3    H130849   7.050   4.728   4.473
10302TIP3    H230850   7.164   4.646   4.530
10303TIP3   OH230851   7.961   1.982   3.891
10303TIP3    H130852   7.973   1.981   3.986
10303TIP3    H230853   7.903   2.056   3.875
10304TIP3   OH230854   4.846   2.559   2.759
10304TIP3    H130855   4.752   2.559   2.740
10304TIP3    H230856   4.888   2.553   2.673
10305TIP3   OH230857   6.951   1.141   5.920
10305TIP3    H130858   6.871   1.192   5.909
10305TIP3    H230859   7.014   1.182   5.860
10306TIP3   OH230860   4.236   6.763   3.296
10306TIP3    H130861   4.289   6.694   3.256
10306TIP3    H230862   4.206   6.725   3.378
10307TIP3   OH230863   6.822   3.023   2.139
10307TIP3    H130864   6.789   3.081   2.208
10307TIP3    H230865   6.842   3.082   2.067
10308TIP3   OH230866   1.138   4.649   6.353
10308TIP3    H130867   1.189   4.721   6.314
10308TIP3    H230868   1.080   4.693   6.416
10309TIP3   OH230869   6.194   1.487   5.282
10309TIP3    H130870   6.266   1.509   5.341
10309TIP3    H230871   6.131   1.558   5.293
10310TIP3   OH230872   4.330   0.386   1.126
10310TIP3    H130873   4.290   0.461   1.170
10310TIP3    H230874   4.262   0.353   1.068
10311TIP3   OH230875   0.394   3.706   1.583
10311TIP3    H130876   0.367   3.760   1.657
10311TIP3    H230877   0.423   3.624   1.622
10312TIP3   OH230878   6.654   5.613   5.400
10312TIP3    H130879   6.593   5.664   5.454
10312TIP3    H230880   6.729   5.672   5.388
10313TIP3   OH230881   2.557   4.397   3.328
10313TIP3    H130882   2.506   4.472   3.359
10313TIP3    H230883   2.643   4.408   3.369
10314TIP3   OH230884   4.377   0.734   2.170
10314TIP3    H130885   4.395   0.726   2.264
10314TIP3    H230886   4.286   0.707   2.161
10315TIP3   OH230887   4.663   7.713   0.153
10315TIP3    H130888   4.615   7.639   0.190
10315TIP3    H230889   4.595   7.779   0.136
10316TIP3   OH230890   2.918   3.166   1.346
10316TIP3    H130891   2.822   3.165   1.341
10316TIP3    H230892   2.940   3.257   1.366
10317TIP3   OH230893   2.713   2.572   4.151
10317TIP3    H130894   2.702   2.528   4.067
10317TIP3    H230895   2.638   2.543   4.203
10318TIP3   OH230896   5.811   2.596   2.410
10318TIP3    H130897   5.880   2.617   2.474
10318TIP3    H230898   5.857   2.548   2.340
10319TIP3   OH230899   3.566   2.468   0.624
10319TIP3    H130900   3.641   2.467   0.564
10319TIP3    H230901   3.507   2.401   0.590
10320TIP3   OH230902   6.737   3.889   4.528
10320TIP3    H130903   6.789   3.930   4.459
10320TIP3    H230904   6.648   3.888   4.495
10321TIP3   OH230905   0.452   5.779   5.355
10321TIP3    H130906   0.487   5.810   5.271
10321TIP3    H230907   0.524   5.793   5.416
10322TIP3   OH230908   5.760   6.877   2.731
10322TIP3    H130909   5.667   6.864   2.750
10322TIP3    H230910   5.803   6.801   2.769
10323TIP3   OH230911   6.686   2.948   4.744
10323TIP3    H130912   6.636   2.981   4.669
10323TIP3    H230913   6.709   2.858   4.721
10324TIP3   OH230914   5.243   6.637   3.460
10324TIP3    H130915   5.211   6.727   3.455
10324TIP3    H230916   5.338   6.646   3.463
10325TIP3   OH230917   1.008   2.603   2.381
10325TIP3    H130918   0.952   2.533   2.347
10325TIP3    H230919   1.097   2.572   2.365
10326TIP3   OH230920   5.702   5.481   6.181
10326TIP3    H130921   5.746   5.417   6.237
10326TIP3    H230922   5.620   5.500   6.226
10327TIP3   OH230923   4.247   0.808   0.619
10327TIP3    H130924   4.170   0.823   0.674
10327TIP3    H230925   4.215   0.752   0.548
10328TIP3   OH230926   7.204   5.444   3.282
10328TIP3    H130927   7.232   5.448   3.191
10328TIP3    H230928   7.252   5.515   3.325
10329TIP3   OH230929   1.802   3.222   3.970
10329TIP3    H130930   1.727   3.163   3.978
10329TIP3    H230931   1.815   3.231   3.875
10330TIP3   OH230932   2.525   3.536   5.302
10330TIP3    H130933   2.565   3.552   5.387
10330TIP3    H230934   2.531   3.441   5.290
10331TIP3   OH230935   7.846   3.483   0.104
10331TIP3    H130936   7.939   3.472   0.084
10331TIP3    H230937   7.842   3.564   0.155
10332TIP3   OH230938   1.259   2.851   2.854
10332TIP3    H130939   1.262   2.769   2.905
10332TIP3    H230940   1.303   2.915   2.909
10333TIP3   OH230941   0.122   4.223   0.640
10333TIP3    H130942   0.061   4.274   0.692
10333TIP3    H230943   0.183   4.186   0.704
10334TIP3   OH230944   7.214   7.441   4.970
10334TIP3    H130945   7.206   7.470   4.880
10334TIP3    H230946   7.256   7.355   4.965
10335TIP3   OH230947   1.460   6.223   1.951
10335TIP3    H130948   1.525   6.208   1.882
10335TIP3    H230949   1.443   6.317   1.947
10336TIP3   OH230950   0.734   0.913   4.065
10336TIP3    H130951   0.664   0.858   4.100
10336TIP3    H230952   0.696   0.952   3.986
10337TIP3   OH230953   4.314   4.180   1.630
10337TIP3    H130954   4.292   4.100   1.677
10337TIP3    H230955   4.262   4.248   1.672
10338TIP3   OH230956   2.761   3.157   0.305
10338TIP3    H130957   2.685   3.189   0.353
10338TIP3    H230958   2.739   3.169   0.213
10339TIP3   OH230959   2.922   1.504   0.497
10339TIP3    H130960   2.928   1.476   0.588
10339TIP3    H230961   2.864   1.440   0.456
10340TIP3   OH230962   3.240   1.414   0.450
10340TIP3    H130963   3.161   1.371   0.418
10340TIP3    H230964   3.305   1.344   0.454
10341TIP3   OH230965   3.564   1.274   5.483
10341TIP3    H130966   3.550   1.332   5.557
10341TIP3    H230967   3.508   1.198   5.502
10342TIP3   OH230968   2.625   0.183   3.302
10342TIP3    H130969   2.705   0.204   3.350
10342TIP3    H230970   2.599   0.266   3.262
10343TIP3   OH230971   0.683   5.406   4.338
10343TIP3    H130972   0.652   5.441   4.254
10343TIP3    H230973   0.644   5.319   4.343
10344TIP3   OH230974   6.351   1.305   5.138
10344TIP3    H130975   6.298   1.371   5.183
10344TIP3    H230976   6.333   1.320   5.045
10345TIP3   OH230977   6.744   6.002   2.061
10345TIP3    H130978   6.717   6.009   1.970
10345TIP3    H230979   6.831   5.962   2.058
10346TIP3   OH230980   0.602   7.154   4.951
10346TIP3    H130981   0.678   7.100   4.971
10346TIP3    H230982   0.529   7.093   4.950
10347TIP3   OH230983   3.125   5.547   3.525
10347TIP3    H130984   3.031   5.534   3.515
10347TIP3    H230985   3.150   5.494   3.601
10348TIP3   OH230986   5.473   4.277   1.524
10348TIP3    H130987   5.492   4.264   1.616
10348TIP3    H230988   5.402   4.215   1.505
10349TIP3   OH230989   7.700   0.835   5.068
10349TIP3    H130990   7.758   0.825   4.992
10349TIP3    H230991   7.721   0.922   5.103
10350TIP3   OH230992   0.300   0.166   0.885
10350TIP3    H130993   0.211   0.185   0.916
10350TIP3    H230994   0.323   0.241   0.831
10351TIP3   OH230995   6.297   3.366   3.098
10351TIP3    H130996   6.247   3.356   3.179
10351TIP3    H230997   6.336   3.454   3.104
10352TIP3   OH230998   0.299   0.835   5.526
10352TIP3    H130999   0.388   0.803   5.540
10352TIP3    H231000   0.265   0.851   5.614
10353TIP3   OH231001   1.226   3.258   0.912
10353TIP3    H131002   1.226   3.271   1.007
10353TIP3    H231003   1.134   3.251   0.889
10354TIP3   OH231004   0.210   0.234   6.679
10354TIP3    H131005   0.169   0.168   6.622
10354TIP3    H231006   0.303   0.211   6.679
10355TIP3   OH231007   3.881   4.285   6.182
10355TIP3    H131008   3.956   4.323   6.137
10355TIP3    H231009   3.916   4.252   6.265
10356TIP3   OH231010   0.031   5.048   4.906
10356TIP3    H131011   0.094   5.109   4.867
10356TIP3    H231012   0.066   4.961   4.886
10357TIP3   OH231013   3.016   2.152   5.845
10357TIP3    H131014   2.967   2.132   5.766
10357TIP3    H231015   2.972   2.102   5.914
10358TIP3   OH231016   7.297   6.428   6.618
10358TIP3    H131017   7.285   6.497   6.684
10358TIP3    H231018   7.352   6.363   6.661
10359TIP3   OH231019   1.115   3.918   1.442
10359TIP3    H131020   1.176   3.934   1.370
10359TIP3    H231021   1.030   3.943   1.406
10360TIP3   OH231022   1.208   7.381   1.679
10360TIP3    H131023   1.195   7.321   1.606
10360TIP3    H231024   1.145   7.452   1.663
10361TIP3   OH231025   0.004   0.261   4.269
10361TIP3    H131026  -0.038   0.181   4.300
10361TIP3    H231027   0.077   0.231   4.214
10362TIP3   OH231028   5.337   5.580   1.692
10362TIP3    H131029   5.415   5.525   1.688
10362TIP3    H231030   5.351   5.634   1.770
10363TIP3   OH231031   4.093   6.751   5.461
10363TIP3    H131032   4.007   6.717   5.484
10363TIP3    H231033   4.076   6.832   5.414
10364TIP3   OH231034   7.410   4.705   0.589
10364TIP3    H131035   7.319   4.717   0.615
10364TIP3    H231036   7.461   4.753   0.655
10365TIP3   OH231037   5.890   3.189   1.720
10365TIP3    H131038   5.924   3.279   1.723
10365TIP3    H231039   5.795   3.200   1.722
10366TIP3   OH231040   0.495   1.669   1.565
10366TIP3    H131041   0.547   1.612   1.509
10366TIP3    H231042   0.515   1.639   1.654
10367TIP3   OH231043   1.127   2.523   5.225
10367TIP3    H131044   1.169   2.535   5.310
10367TIP3    H231045   1.074   2.602   5.212
10368TIP3   OH231046   2.819   1.116   0.168
10368TIP3    H131047   2.893   1.074   0.123
10368TIP3    H231048   2.756   1.045   0.181
10369TIP3   OH231049   5.536   6.850   2.300
10369TIP3    H131050   5.466   6.910   2.325
10369TIP3    H231051   5.497   6.763   2.306
10370TIP3   OH231052   1.132   0.046   0.059
10370TIP3    H131053   1.085   0.012   0.135
10370TIP3    H231054   1.225   0.040   0.084
10371TIP3   OH231055   1.546   7.274   5.400
10371TIP3    H131056   1.609   7.256   5.470
10371TIP3    H231057   1.588   7.240   5.321
10372TIP3   OH231058   4.995   5.533   2.601
10372TIP3    H131059   4.922   5.587   2.570
10372TIP3    H231060   4.955   5.471   2.662
10373TIP3   OH231061   7.651   3.228   4.145
10373TIP3    H131062   7.577   3.219   4.086
10373TIP3    H231063   7.680   3.139   4.162
10374TIP3   OH231064   2.621   5.539   1.838
10374TIP3    H131065   2.631   5.491   1.756
10374TIP3    H231066   2.649   5.476   1.905
10375TIP3   OH231067   6.412   2.817   4.709
10375TIP3    H131068   6.418   2.900   4.663
10375TIP3    H231069   6.319   2.796   4.709
10376TIP3   OH231070   4.327   4.353   2.933
10376TIP3    H131071   4.298   4.405   3.008
10376TIP3    H231072   4.274   4.384   2.860
10377TIP3   OH231073   4.021   2.681   1.102
10377TIP3    H131074   4.083   2.660   1.171
10377TIP3    H231075   3.937   2.646   1.134
10378TIP3   OH231076   0.664   3.857   1.471
10378TIP3    H131077   0.717   3.787   1.508
10378TIP3    H231078   0.587   3.861   1.527
10379TIP3   OH231079   6.378   4.891   3.607
10379TIP3    H131080   6.338   4.973   3.578
10379TIP3    H231081   6.332   4.823   3.558
10380TIP3   OH231082   0.395   5.754   6.610
10380TIP3    H131083   0.301   5.762   6.595
10380TIP3    H231084   0.403   5.724   6.701
10381TIP3   OH231085   3.107   3.523   6.012
10381TIP3    H131086   3.153   3.548   6.092
10381TIP3    H231087   3.019   3.501   6.041
10382TIP3   OH231088   2.334   0.925   1.398
10382TIP3    H131089   2.406   0.886   1.447
10382TIP3    H231090   2.304   0.998   1.452
10383TIP3   OH231091   3.268   3.648   4.044
10383TIP3    H131092   3.308   3.570   4.005
10383TIP3    H231093   3.273   3.633   4.139
10384TIP3   OH231094   7.580   0.246   5.962
10384TIP3    H131095   7.669   0.281   5.977
10384TIP3    H231096   7.534   0.318   5.920
10385TIP3   OH231097   4.852   6.170   3.997
10385TIP3    H131098   4.762   6.137   4.005
10385TIP3    H231099   4.893   6.146   4.080
10386TIP3   OH231100   8.297   7.249   1.143
10386TIP3    H131101   8.287   7.183   1.211
10386TIP3    H231102   8.211   7.253   1.101
10387TIP3   OH231103   6.610   7.649   2.501
10387TIP3    H131104   6.546   7.658   2.430
10387TIP3    H231105   6.579   7.574   2.552
10388TIP3   OH231106   7.045   1.485   2.165
10388TIP3    H131107   7.108   1.425   2.204
10388TIP3    H231108   7.000   1.525   2.240
10389TIP3   OH231109   7.956   2.471   4.945
10389TIP3    H131110   7.981   2.537   4.880
10389TIP3    H231111   7.887   2.420   4.903
10390TIP3   OH231112   3.618   6.571   6.546
10390TIP3    H131113   3.702   6.611   6.524
10390TIP3    H231114   3.554   6.642   6.534
10391TIP3   OH231115   2.275   6.243   4.628
10391TIP3    H131116   2.285   6.233   4.722
10391TIP3    H231117   2.292   6.155   4.593
10392TIP3   OH231118   0.613   5.510   2.243
10392TIP3    H131119   0.629   5.578   2.308
10392TIP3    H231120   0.520   5.491   2.249
10393TIP3   OH231121   7.443   5.591   5.081
10393TIP3    H131122   7.532   5.606   5.049
10393TIP3    H231123   7.400   5.676   5.073
10394TIP3   OH231124   2.018   3.349   6.647
10394TIP3    H131125   1.943   3.290   6.640
10394TIP3    H231126   2.092   3.298   6.613
10395TIP3   OH231127   3.385   4.577   0.149
10395TIP3    H131128   3.440   4.499   0.150
10395TIP3    H231129   3.300   4.547   0.184
10396TIP3   OH231130   3.997   3.358   6.607
10396TIP3    H131131   4.049   3.306   6.545
10396TIP3    H231132   3.910   3.319   6.604
10397TIP3   OH231133   1.507   6.680   4.691
10397TIP3    H131134   1.461   6.750   4.644
10397TIP3    H231135   1.542   6.723   4.769
10398TIP3   OH231136   0.114   3.470   1.071
10398TIP3    H131137   0.136   3.465   1.164
10398TIP3    H231138   0.027   3.431   1.065
10399TIP3   OH231139   2.813   2.491   3.411
10399TIP3    H131140   2.877   2.535   3.466
10399TIP3    H231141   2.757   2.444   3.472
10400TIP3   OH231142   1.203   2.444   0.842
10400TIP3    H131143   1.142   2.488   0.782
10400TIP3    H231144   1.148   2.416   0.915
10401TIP3   OH231145   2.177   4.008   2.067
10401TIP3    H131146   2.136   4.018   2.153
10401TIP3    H231147   2.145   3.924   2.034
10402TIP3   OH231148   1.373   1.899   1.980
10402TIP3    H131149   1.456   1.873   1.941
10402TIP3    H231150   1.342   1.820   2.026
10403TIP3   OH231151   4.391   2.448   5.046
10403TIP3    H131152   4.351   2.471   5.129
10403TIP3    H231153   4.390   2.352   5.044
10404TIP3   OH231154   3.153   6.777   2.710
10404TIP3    H131155   3.174   6.684   2.724
10404TIP3    H231156   3.080   6.776   2.648
10405TIP3   OH231157   4.954   4.667   2.919
10405TIP3    H131158   4.997   4.587   2.950
10405TIP3    H231159   4.906   4.699   2.996
10406TIP3   OH231160   0.017   3.948   1.182
10406TIP3    H131161  -0.004   3.921   1.271
10406TIP3    H231162   0.045   4.039   1.191
10407TIP3   OH231163   5.971   4.782   0.443
10407TIP3    H131164   5.891   4.827   0.418
10407TIP3    H231165   5.962   4.694   0.406
10408TIP3   OH231166   7.048   4.878   2.061
10408TIP3    H131167   7.063   4.902   2.152
10408TIP3    H231168   7.107   4.935   2.011
10409TIP3   OH231169   5.749   7.674   5.428
10409TIP3    H131170   5.836   7.634   5.419
10409TIP3    H231171   5.762   7.749   5.486
10410TIP3   OH231172   7.904   0.166   5.636
10410TIP3    H131173   7.934   0.075   5.646
10410TIP3    H231174   7.982   0.219   5.655
10411TIP3   OH231175   3.798   6.736   6.721
10411TIP3    H131176   3.864   6.742   6.653
10411TIP3    H231177   3.804   6.646   6.753
10412TIP3   OH231178   4.360   6.654   3.705
10412TIP3    H131179   4.328   6.705   3.631
10412TIP3    H231180   4.283   6.606   3.737
10413TIP3   OH231181   8.243   1.708   0.207
10413TIP3    H131182   8.329   1.746   0.188
10413TIP3    H231183   8.238   1.710   0.303
10414TIP3   OH231184   1.419   4.365   5.607
10414TIP3    H131185   1.379   4.311   5.540
10414TIP3    H231186   1.465   4.434   5.558
10415TIP3   OH231187   7.300   6.346   1.376
10415TIP3    H131188   7.387   6.377   1.401
10415TIP3    H231189   7.261   6.419   1.329
10416TIP3   OH231190   1.206   5.700   1.570
10416TIP3    H131191   1.240   5.621   1.612
10416TIP3    H231192   1.211   5.682   1.476
10417TIP3   OH231193   3.411   5.596   0.806
10417TIP3    H131194   3.488   5.539   0.815
10417TIP3    H231195   3.406   5.642   0.890
10418TIP3   OH231196   4.607   3.092   2.040
10418TIP3    H131197   4.553   3.090   2.119
10418TIP3    H231198   4.580   3.171   1.993
10419TIP3   OH231199   6.897   1.475   2.560
10419TIP3    H131200   6.968   1.498   2.620
10419TIP3    H231201   6.905   1.537   2.488
10420TIP3   OH231202   0.296   3.819   4.727
10420TIP3    H131203   0.374   3.875   4.732
10420TIP3    H231204   0.324   3.736   4.767
10421TIP3   OH231205   4.370   3.263   5.283
10421TIP3    H131206   4.275   3.271   5.282
10421TIP3    H231207   4.388   3.202   5.354
10422TIP3   OH231208   5.798   2.995   2.714
10422TIP3    H131209   5.867   3.011   2.649
10422TIP3    H231210   5.843   2.999   2.798
10423TIP3   OH231211   6.431   4.505   4.715
10423TIP3    H131212   6.416   4.596   4.687
10423TIP3    H231213   6.480   4.466   4.643
10424TIP3   OH231214   8.137   0.827   5.222
10424TIP3    H131215   8.225   0.818   5.260
10424TIP3    H231216   8.088   0.879   5.285
10425TIP3   OH231217   6.430   5.570   5.202
10425TIP3    H131218   6.505   5.582   5.260
10425TIP3    H231219   6.391   5.487   5.230
10426TIP3   OH231220   0.328   0.967   6.715
10426TIP3    H131221   0.380   0.886   6.718
10426TIP3    H231222   0.239   0.939   6.735
10427TIP3   OH231223   0.542   2.101   6.581
10427TIP3    H131224   0.579   2.106   6.493
10427TIP3    H231225   0.513   2.010   6.590
10428TIP3   OH231226   4.737   7.148   3.360
10428TIP3    H131227   4.815   7.111   3.318
10428TIP3    H231228   4.674   7.155   3.289
10429TIP3   OH231229   4.189   7.235   1.861
10429TIP3    H131230   4.168   7.156   1.811
10429TIP3    H231231   4.211   7.204   1.948
10430TIP3   OH231232   0.831   6.473   3.534
10430TIP3    H131233   0.772   6.523   3.477
10430TIP3    H231234   0.833   6.524   3.616
10431TIP3   OH231235   0.395   7.401   0.792
10431TIP3    H131236   0.490   7.413   0.787
10431TIP3    H231237   0.383   7.307   0.803
10432TIP3   OH231238   7.851   3.700   2.473
10432TIP3    H131239   7.824   3.616   2.509
10432TIP3    H231240   7.770   3.752   2.470
10433TIP3   OH231241   5.518   7.098   3.984
10433TIP3    H131242   5.561   7.182   3.969
10433TIP3    H231243   5.565   7.060   4.058
10434TIP3   OH231244   0.999   2.356   5.580
10434TIP3    H131245   0.931   2.387   5.639
10434TIP3    H231246   1.081   2.388   5.618
10435TIP3   OH231247   7.429   3.876   5.961
10435TIP3    H131248   7.466   3.814   5.900
10435TIP3    H231249   7.348   3.906   5.920
10436TIP3   OH231250   4.146   5.126   4.777
10436TIP3    H131251   4.088   5.050   4.787
10436TIP3    H231252   4.107   5.176   4.705
10437TIP3   OH231253   7.588   7.616   2.349
10437TIP3    H131254   7.618   7.610   2.440
10437TIP3    H231255   7.621   7.536   2.307
10438TIP3   OH231256   6.511   3.686   2.802
10438TIP3    H131257   6.461   3.657   2.726
10438TIP3    H231258   6.603   3.679   2.774
10439TIP3   OH231259   1.511   0.739   6.496
10439TIP3    H131260   1.598   0.777   6.500
10439TIP3    H231261   1.465   0.791   6.430
10440TIP3   OH231262   4.032   1.998   0.593
10440TIP3    H131263   3.938   1.980   0.584
10440TIP3    H231264   4.074   1.919   0.558
10441TIP3   OH231265   0.768   3.863   4.369
10441TIP3    H131266   0.857   3.846   4.340
10441TIP3    H231267   0.776   3.932   4.434
10442TIP3   OH231268   5.864   6.877   2.228
10442TIP3    H131269   5.866   6.811   2.159
10442TIP3    H231270   5.956   6.891   2.251
10443TIP3   OH231271   7.746   1.207   4.323
10443TIP3    H131272   7.710   1.183   4.409
10443TIP3    H231273   7.832   1.164   4.321
10444TIP3   OH231274   0.593   4.406   6.520
10444TIP3    H131275   0.683   4.408   6.488
10444TIP3    H231276   0.600   4.388   6.613
10445TIP3   OH231277   3.626   4.556   2.835
10445TIP3    H131278   3.638   4.634   2.781
10445TIP3    H231279   3.670   4.577   2.918
10446TIP3   OH231280   7.724   4.173   5.541
10446TIP3    H131281   7.806   4.167   5.591
10446TIP3    H231282   7.660   4.204   5.605
10447TIP3   OH231283   6.935   1.731   0.539
10447TIP3    H131284   7.002   1.707   0.475
10447TIP3    H231285   6.879   1.654   0.546
10448TIP3   OH231286   0.454   7.818   1.346
10448TIP3    H131287   0.423   7.728   1.353
10448TIP3    H231288   0.479   7.828   1.254
10449TIP3   OH231289   5.984   6.258   3.953
10449TIP3    H131290   5.941   6.266   4.038
10449TIP3    H231291   5.917   6.220   3.896
10450TIP3   OH231292   2.721   5.025   0.779
10450TIP3    H131293   2.763   5.067   0.704
10450TIP3    H231294   2.678   4.948   0.741
10451TIP3   OH231295   5.091   7.339   1.495
10451TIP3    H131296   5.037   7.301   1.426
10451TIP3    H231297   5.069   7.289   1.574
10452TIP3   OH231298   0.055   2.016   1.444
10452TIP3    H131299   0.053   2.111   1.458
10452TIP3    H231300   0.039   2.005   1.351
10453TIP3   OH231301   1.190   7.772   2.415
10453TIP3    H131302   1.096   7.756   2.419
10453TIP3    H231303   1.205   7.849   2.470
10454TIP3   OH231304   2.121   1.690   0.080
10454TIP3    H131305   2.069   1.752   0.131
10454TIP3    H231306   2.169   1.743   0.018
10455TIP3   OH231307   1.873   0.407   0.648
10455TIP3    H131308   1.965   0.408   0.621
10455TIP3    H231309   1.823   0.410   0.567
10456TIP3   OH231310   2.340   4.368   4.362
10456TIP3    H131311   2.367   4.456   4.337
10456TIP3    H231312   2.410   4.337   4.420
10457TIP3   OH231313   4.629   3.230   4.459
10457TIP3    H131314   4.613   3.181   4.540
10457TIP3    H231315   4.691   3.298   4.484
10458TIP3   OH231316   0.291   2.239   0.190
10458TIP3    H131317   0.305   2.332   0.207
10458TIP3    H231318   0.287   2.232   0.094
10459TIP3   OH231319   5.605   6.798   4.450
10459TIP3    H131320   5.516   6.782   4.480
10459TIP3    H231321   5.641   6.861   4.512
10460TIP3   OH231322   0.072   6.852   1.553
10460TIP3    H131323   0.162   6.827   1.573
10460TIP3    H231324   0.031   6.772   1.522
10461TIP3   OH231325   5.071   4.339   4.085
10461TIP3    H131326   4.986   4.383   4.082
10461TIP3    H231327   5.096   4.340   4.177
10462TIP3   OH231328   7.898   3.032   4.060
10462TIP3    H131329   7.946   3.115   4.068
10462TIP3    H231330   7.830   3.049   3.995
10463TIP3   OH231331   2.960   0.749   5.373
10463TIP3    H131332   2.917   0.761   5.458
10463TIP3    H231333   3.004   0.832   5.357
10464TIP3   OH231334   1.764   7.847   1.328
10464TIP3    H131335   1.783   7.804   1.244
10464TIP3    H231336   1.811   7.794   1.393
10465TIP3   OH231337   0.580   4.434   0.667
10465TIP3    H131338   0.605   4.392   0.585
10465TIP3    H231339   0.615   4.377   0.735
10466TIP3   OH231340   0.737   4.776   1.903
10466TIP3    H131341   0.752   4.791   1.997
10466TIP3    H231342   0.642   4.764   1.897
10467TIP3   OH231343   3.403   6.473   5.451
10467TIP3    H131344   3.363   6.424   5.523
10467TIP3    H231345   3.491   6.495   5.483
10468TIP3   OH231346   2.416   2.757   5.051
10468TIP3    H131347   2.464   2.725   4.975
10468TIP3    H231348   2.474   2.821   5.092
10469TIP3   OH231349   5.203   5.281   4.807
10469TIP3    H131350   5.211   5.297   4.713
10469TIP3    H231351   5.256   5.349   4.848
10470TIP3   OH231352   0.966   5.460   0.568
10470TIP3    H131353   0.994   5.392   0.630
10470TIP3    H231354   1.039   5.466   0.506
10471TIP3   OH231355   1.740   0.090   4.662
10471TIP3    H131356   1.750   0.177   4.625
10471TIP3    H231357   1.819   0.077   4.716
10472TIP3   OH231358   4.026   7.195   1.085
10472TIP3    H131359   4.031   7.287   1.058
10472TIP3    H231360   4.089   7.187   1.157
10473TIP3   OH231361   3.435   6.711   0.590
10473TIP3    H131362   3.516   6.687   0.634
10473TIP3    H231363   3.408   6.793   0.632
10474TIP3   OH231364   2.482   6.213   3.712
10474TIP3    H131365   2.415   6.259   3.661
10474TIP3    H231366   2.433   6.169   3.782
10475TIP3   OH231367   7.526   6.814   1.115
10475TIP3    H131368   7.432   6.823   1.101
10475TIP3    H231369   7.561   6.800   1.027
10476TIP3   OH231370   5.435   3.067   2.073
10476TIP3    H131371   5.441   3.152   2.028
10476TIP3    H231372   5.342   3.054   2.087
10477TIP3   OH231373   2.496   1.802   3.415
10477TIP3    H131374   2.415   1.785   3.462
10477TIP3    H231375   2.498   1.897   3.403
10478TIP3   OH231376   4.098   6.917   3.117
10478TIP3    H131377   4.143   6.856   3.177
10478TIP3    H231378   4.167   6.947   3.058
10479TIP3   OH231379   6.724   1.482   6.355
10479TIP3    H131380   6.642   1.514   6.392
10479TIP3    H231381   6.778   1.460   6.431
10480TIP3   OH231382   6.435   5.728   1.438
10480TIP3    H131383   6.411   5.797   1.376
10480TIP3    H231384   6.439   5.772   1.523
10481TIP3   OH231385   1.439   4.079   2.976
10481TIP3    H131386   1.380   4.003   2.968
10481TIP3    H231387   1.392   4.139   3.033
10482TIP3   OH231388   4.395   2.190   6.394
10482TIP3    H131389   4.438   2.265   6.354
10482TIP3    H231390   4.464   2.124   6.401
10483TIP3   OH231391   6.160   3.605   0.100
10483TIP3    H131392   6.195   3.549   0.170
10483TIP3    H231393   6.213   3.584   0.023
10484TIP3   OH231394   7.408   7.591   1.769
10484TIP3    H131395   7.442   7.604   1.858
10484TIP3    H231396   7.356   7.669   1.751
10485TIP3   OH231397   7.956   3.505   6.603
10485TIP3    H131398   7.893   3.550   6.548
10485TIP3    H231399   7.906   3.435   6.646
10486TIP3   OH231400   5.848   5.123   5.514
10486TIP3    H131401   5.776   5.180   5.489
10486TIP3    H231402   5.880   5.159   5.596
10487TIP3   OH231403   1.999   5.771   6.711
10487TIP3    H131404   1.938   5.833   6.752
10487TIP3    H231405   2.084   5.815   6.716
10488TIP3   OH231406   3.798   4.807   5.599
10488TIP3    H131407   3.884   4.819   5.560
10488TIP3    H231408   3.797   4.864   5.675
10489TIP3   OH231409   4.789   5.702   0.598
10489TIP3    H131410   4.714   5.761   0.608
10489TIP3    H231411   4.845   5.722   0.673
10490TIP3   OH231412   3.575   3.132   4.138
10490TIP3    H131413   3.545   3.088   4.059
10490TIP3    H231414   3.533   3.083   4.209
10491TIP3   OH231415   6.944   0.502   5.449
10491TIP3    H131416   6.974   0.509   5.540
10491TIP3    H231417   6.919   0.592   5.426
10492TIP3   OH231418   2.238   4.045   0.984
10492TIP3    H131419   2.151   4.066   0.952
10492TIP3    H231420   2.283   4.129   0.990
10493TIP3   OH231421   1.094   7.792   1.542
10493TIP3    H131422   1.075   7.744   1.462
10493TIP3    H231423   1.014   7.842   1.559
10494TIP3   OH231424   3.202   0.208   4.758
10494TIP3    H131425   3.273   0.212   4.693
10494TIP3    H231426   3.200   0.297   4.796
10495TIP3   OH231427   7.134   3.860   6.159
10495TIP3    H131428   7.192   3.828   6.090
10495TIP3    H231429   7.052   3.882   6.113
10496TIP3   OH231430   0.817   6.659   6.754
10496TIP3    H131431   0.834   6.588   6.693
10496TIP3    H231432   0.829   6.739   6.702
10497TIP3   OH231433   2.972   3.655   1.618
10497TIP3    H131434   3.017   3.727   1.573
10497TIP3    H231435   3.043   3.605   1.658
10498TIP3   OH231436   6.356   4.116   6.146
10498TIP3    H131437   6.334   4.203   6.113
10498TIP3    H231438   6.417   4.080   6.082
10499TIP3   OH231439   1.028   1.734   4.814
10499TIP3    H131440   1.115   1.751   4.775
10499TIP3    H231441   1.046   1.717   4.906
10500TIP3   OH231442   7.046   5.178   2.992
10500TIP3    H131443   7.124   5.140   2.952
10500TIP3    H231444   6.974   5.124   2.959
10501TIP3   OH231445   2.716   3.675   0.807
10501TIP3    H131446   2.648   3.667   0.740
10501TIP3    H231447   2.669   3.670   0.890
10502TIP3   OH231448   7.510   2.350   6.068
10502TIP3    H131449   7.449   2.362   6.141
10502TIP3    H231450   7.459   2.374   5.991
10503TIP3   OH231451   5.867   7.692   6.768
10503TIP3    H131452   5.941   7.657   6.818
10503TIP3    H231453   5.905   7.764   6.718
10504TIP3   OH231454   5.778   7.710   6.308
10504TIP3    H131455   5.794   7.803   6.322
10504TIP3    H231456   5.745   7.705   6.218
10505TIP3   OH231457   0.741   6.287   1.081
10505TIP3    H131458   0.819   6.280   1.136
10505TIP3    H231459   0.669   6.305   1.143
10506TIP3   OH231460   7.291   3.992   6.345
10506TIP3    H131461   7.233   3.959   6.276
10506TIP3    H231462   7.330   4.072   6.307
10507TIP3   OH231463   3.330   5.863   1.599
10507TIP3    H131464   3.236   5.880   1.609
10507TIP3    H231465   3.335   5.775   1.561
10508TIP3   OH231466   5.735   5.251   1.033
10508TIP3    H131467   5.720   5.321   1.096
10508TIP3    H231468   5.707   5.286   0.949
10509TIP3   OH231469   1.378   4.516   4.241
10509TIP3    H131470   1.362   4.425   4.219
10509TIP3    H231471   1.455   4.514   4.299
10510TIP3   OH231472   0.101   7.474   5.233
10510TIP3    H131473   0.021   7.429   5.206
10510TIP3    H231474   0.075   7.528   5.307
10511TIP3   OH231475   3.521   1.852   6.189
10511TIP3    H131476   3.544   1.875   6.099
10511TIP3    H231477   3.534   1.932   6.239
10512TIP3   OH231478   6.225   0.695   4.644
10512TIP3    H131479   6.314   0.731   4.647
10512TIP3    H231480   6.201   0.683   4.735
10513TIP3   OH231481   5.451   4.307   5.897
10513TIP3    H131482   5.528   4.296   5.953
10513TIP3    H231483   5.387   4.245   5.933
10514TIP3   OH231484   5.898   0.194   4.103
10514TIP3    H131485   5.845   0.250   4.159
10514TIP3    H231486   5.835   0.140   4.056
10515TIP3   OH231487   5.681   6.124   4.848
10515TIP3    H131488   5.767   6.092   4.875
10515TIP3    H231489   5.621   6.050   4.866
10516TIP3   OH231490   2.234   4.422   3.484
10516TIP3    H131491   2.200   4.475   3.556
10516TIP3    H231492   2.256   4.338   3.524
10517TIP3   OH231493   5.063   6.110   6.300
10517TIP3    H131494   5.069   6.168   6.376
10517TIP3    H231495   5.082   6.166   6.225
10518TIP3   OH231496   0.523   4.468   1.565
10518TIP3    H131497   0.606   4.465   1.517
10518TIP3    H231498   0.548   4.463   1.657
10519TIP3   OH231499   6.645   6.609   2.577
10519TIP3    H131500   6.617   6.518   2.576
10519TIP3    H231501   6.740   6.606   2.566
10520TIP3   OH231502   1.043   1.132   2.606
10520TIP3    H131503   0.993   1.068   2.658
10520TIP3    H231504   1.116   1.156   2.663
10521TIP3   OH231505   6.169   6.466   5.929
10521TIP3    H131506   6.252   6.419   5.921
10521TIP3    H231507   6.153   6.501   5.842
10522TIP3   OH231508   1.216   1.628   4.115
10522TIP3    H131509   1.175   1.628   4.029
10522TIP3    H231510   1.143   1.623   4.177
10523TIP3   OH231511   3.394   1.251   4.713
10523TIP3    H131512   3.359   1.332   4.675
10523TIP3    H231513   3.322   1.189   4.706
10524TIP3   OH231514   2.496   3.828   3.782
10524TIP3    H131515   2.426   3.864   3.836
10524TIP3    H231516   2.479   3.864   3.695
10525TIP3   OH231517   6.725  -0.010   0.112
10525TIP3    H131518   6.759   0.079   0.122
10525TIP3    H231519   6.727  -0.047   0.200
10526TIP3   OH231520   6.070   6.130   6.346
10526TIP3    H131521   6.099   6.048   6.305
10526TIP3    H231522   6.068   6.111   6.440
10527TIP3   OH231523   4.797   4.563   6.568
10527TIP3    H131524   4.804   4.563   6.663
10527TIP3    H231525   4.757   4.479   6.547
10528TIP3   OH231526   6.843   3.957   6.288
10528TIP3    H131527   6.919   3.992   6.334
10528TIP3    H231528   6.777   3.944   6.356
10529TIP3   OH231529   0.368   5.739   2.258
10529TIP3    H131530   0.450   5.726   2.305
10529TIP3    H231531   0.302   5.695   2.312
10530TIP3   OH231532   1.466   2.449   3.538
10530TIP3    H131533   1.515   2.425   3.617
10530TIP3    H231534   1.528   2.434   3.466
10531TIP3   OH231535   6.875   2.159   5.458
10531TIP3    H131536   6.878   2.103   5.536
10531TIP3    H231537   6.786   2.147   5.424
10532TIP3   OH231538   3.472   2.010   5.256
10532TIP3    H131539   3.523   2.017   5.175
10532TIP3    H231540   3.511   1.936   5.302
10533TIP3   OH231541   7.435   5.704   4.099
10533TIP3    H131542   7.420   5.786   4.052
10533TIP3    H231543   7.389   5.638   4.047
10534TIP3   OH231544   3.367   0.443   2.412
10534TIP3    H131545   3.333   0.468   2.497
10534TIP3    H231546   3.385   0.349   2.419
10535TIP3   OH231547   6.920   1.180   4.649
10535TIP3    H131548   6.914   1.249   4.583
10535TIP3    H231549   6.835   1.181   4.693
10536TIP3   OH231550   0.799   3.116   1.361
10536TIP3    H131551   0.824   3.204   1.387
10536TIP3    H231552   0.852   3.058   1.416
10537TIP3   OH231553   5.764   3.477   6.713
10537TIP3    H131554   5.681   3.492   6.757
10537TIP3    H231555   5.767   3.544   6.645
10538TIP3   OH231556   2.288   7.732   2.295
10538TIP3    H131557   2.363   7.787   2.273
10538TIP3    H231558   2.312   7.691   2.378
10539TIP3   OH231559   0.404   3.764   3.568
10539TIP3    H131560   0.313   3.738   3.581
10539TIP3    H231561   0.402   3.860   3.575
10540TIP3   OH231562   1.139   6.435   3.751
10540TIP3    H131563   1.108   6.512   3.703
10540TIP3    H231564   1.102   6.445   3.839
10541TIP3   OH231565   4.958   7.518   5.207
10541TIP3    H131566   5.013   7.468   5.268
10541TIP3    H231567   4.929   7.594   5.257
10542TIP3   OH231568   0.174   1.689   6.785
10542TIP3    H131569   0.175   1.731   6.700
10542TIP3    H231570   0.081   1.680   6.807
10543TIP3   OH231571   1.529   4.589   5.420
10543TIP3    H131572   1.603   4.629   5.374
10543TIP3    H231573   1.489   4.662   5.468
10544TIP3   OH231574   4.613   3.352   5.205
10544TIP3    H131575   4.532   3.312   5.238
10544TIP3    H231576   4.584   3.435   5.167
10545TIP3   OH231577   8.218   6.648   1.962
10545TIP3    H131578   8.239   6.557   1.939
10545TIP3    H231579   8.123   6.648   1.976
10546TIP3   OH231580   6.748   7.514   6.169
10546TIP3    H131581   6.820   7.576   6.158
10546TIP3    H231582   6.713   7.501   6.081
10547TIP3   OH231583   5.245   2.240   2.264
10547TIP3    H131584   5.290   2.214   2.344
10547TIP3    H231585   5.269   2.332   2.252
10548TIP3   OH231586   2.061   4.458   3.702
10548TIP3    H131587   1.982   4.485   3.657
10548TIP3    H231588   2.059   4.363   3.701
10549TIP3   OH231589   5.653   3.254   0.306
10549TIP3    H131590   5.740   3.220   0.286
10549TIP3    H231591   5.599   3.175   0.316
10550TIP3   OH231592   0.098   5.972   3.709
10550TIP3    H131593   0.188   5.999   3.730
10550TIP3    H231594   0.058   5.952   3.794
10551TIP3   OH231595   0.257   5.779   4.115
10551TIP3    H131596   0.343   5.741   4.136
10551TIP3    H231597   0.230   5.733   4.036
10552TIP3   OH231598   5.033   4.400   3.578
10552TIP3    H131599   5.099   4.441   3.521
10552TIP3    H231600   4.953   4.450   3.562
10553TIP3   OH231601   4.990   5.649   1.237
10553TIP3    H131602   4.921   5.597   1.280
10553TIP3    H231603   5.029   5.699   1.308
10554TIP3   OH231604   1.918   0.350   4.214
10554TIP3    H131605   1.908   0.276   4.273
10554TIP3    H231606   2.011   0.351   4.192
10555TIP3   OH231607   4.199   7.571   5.341
10555TIP3    H131608   4.266   7.639   5.347
10555TIP3    H231609   4.121   7.611   5.380
10556TIP3   OH231610   8.220   5.616   4.775
10556TIP3    H131611   8.133   5.626   4.737
10556TIP3    H231612   8.205   5.597   4.867
10557TIP3   OH231613   7.635   3.265   4.617
10557TIP3    H131614   7.686   3.197   4.573
10557TIP3    H231615   7.546   3.231   4.617
10558TIP3   OH231616   0.435   7.551   1.545
10558TIP3    H131617   0.352   7.519   1.509
10558TIP3    H231618   0.412   7.636   1.583
10559TIP3   OH231619   2.373   2.129   2.180
10559TIP3    H131620   2.368   2.173   2.265
10559TIP3    H231621   2.282   2.127   2.149
10560TIP3   OH231622   4.165   2.488   5.720
10560TIP3    H131623   4.179   2.397   5.746
10560TIP3    H231624   4.070   2.497   5.714
10561TIP3   OH231625   4.211   3.667   3.353
10561TIP3    H131626   4.257   3.747   3.328
10561TIP3    H231627   4.178   3.631   3.270
10562TIP3   OH231628   1.200   1.699   5.705
10562TIP3    H131629   1.105   1.697   5.691
10562TIP3    H231630   1.230   1.774   5.654
10563TIP3   OH231631   0.819   1.383   4.383
10563TIP3    H131632   0.858   1.332   4.313
10563TIP3    H231633   0.812   1.321   4.456
10564TIP3   OH231634   4.117   0.653   1.858
10564TIP3    H131635   4.061   0.717   1.901
10564TIP3    H231636   4.190   0.640   1.919
10565TIP3   OH231637   5.517   1.025   3.693
10565TIP3    H131638   5.505   0.931   3.683
10565TIP3    H231639   5.431   1.063   3.674
10566TIP3   OH231640   0.434   4.473   3.672
10566TIP3    H131641   0.476   4.461   3.757
10566TIP3    H231642   0.465   4.399   3.619
10567TIP3   OH231643   2.826   1.836   1.562
10567TIP3    H131644   2.896   1.772   1.551
10567TIP3    H231645   2.762   1.791   1.617
10568TIP3   OH231646   1.791   2.238   5.039
10568TIP3    H131647   1.795   2.303   4.969
10568TIP3    H231648   1.869   2.184   5.026
10569TIP3   OH231649   2.594   6.243   4.892
10569TIP3    H131650   2.650   6.166   4.904
10569TIP3    H231651   2.652   6.317   4.908
10570TIP3   OH231652   0.001   0.525   4.279
10570TIP3    H131653  -0.005   0.587   4.352
10570TIP3    H231654   0.019   0.441   4.321
10571TIP3   OH231655   5.427   6.312   6.049
10571TIP3    H131656   5.471   6.301   6.133
10571TIP3    H231657   5.469   6.249   5.991
10572TIP3   OH231658   7.540   4.619   3.992
10572TIP3    H131659   7.493   4.601   3.910
10572TIP3    H231660   7.472   4.616   4.059
10573TIP3   OH231661   7.908   1.106   3.398
10573TIP3    H131662   7.852   1.130   3.472
10573TIP3    H231663   7.852   1.117   3.321
10574TIP3   OH231664   3.405   3.137   1.456
10574TIP3    H131665   3.429   3.227   1.477
10574TIP3    H231666   3.310   3.136   1.457
10575TIP3   OH231667   1.933   1.236   2.714
10575TIP3    H131668   1.976   1.251   2.630
10575TIP3    H231669   1.983   1.166   2.755
10576TIP3   OH231670   7.572   4.728   3.112
10576TIP3    H131671   7.519   4.777   3.050
10576TIP3    H231672   7.534   4.640   3.113
10577TIP3   OH231673   4.863   0.146   4.631
10577TIP3    H131674   4.896   0.144   4.541
10577TIP3    H231675   4.895   0.064   4.669
10578TIP3   OH231676   3.386   2.245   3.063
10578TIP3    H131677   3.354   2.221   2.977
10578TIP3    H231678   3.349   2.331   3.080
10579TIP3   OH231679   7.016   2.647   6.628
10579TIP3    H131680   7.103   2.622   6.596
10579TIP3    H231681   6.973   2.689   6.553
10580TIP3   OH231682   7.327   3.391   6.430
10580TIP3    H131683   7.379   3.322   6.389
10580TIP3    H231684   7.238   3.355   6.433
10581TIP3   OH231685   2.673   2.078   4.167
10581TIP3    H131686   2.635   1.998   4.132
10581TIP3    H231687   2.693   2.057   4.258
10582TIP3   OH231688   1.994   7.487   3.055
10582TIP3    H131689   2.017   7.521   2.969
10582TIP3    H231690   2.003   7.392   3.046
10583TIP3   OH231691   0.674   3.516   1.857
10583TIP3    H131692   0.637   3.588   1.906
10583TIP3    H231693   0.708   3.456   1.923
10584TIP3   OH231694   8.164   5.507   2.619
10584TIP3    H131695   8.170   5.491   2.525
10584TIP3    H231696   8.204   5.593   2.630
10585TIP3   OH231697   7.849   5.244   0.732
10585TIP3    H131698   7.778   5.286   0.683
10585TIP3    H231699   7.919   5.310   0.734
10586TIP3   OH231700   1.774   2.739   5.670
10586TIP3    H131701   1.745   2.828   5.653
10586TIP3    H231702   1.720   2.710   5.744
10587TIP3   OH231703   3.357   4.208   2.380
10587TIP3    H131704   3.353   4.126   2.331
10587TIP3    H231705   3.270   4.247   2.371
10588TIP3   OH231706   1.474   3.136   2.121
10588TIP3    H131707   1.386   3.136   2.160
10588TIP3    H231708   1.528   3.181   2.186
10589TIP3   OH231709   3.933   7.618   6.609
10589TIP3    H131710   3.987   7.580   6.540
10589TIP3    H231711   3.844   7.616   6.573
10590TIP3   OH231712   5.992   3.552   5.313
10590TIP3    H131713   5.940   3.625   5.278
10590TIP3    H231714   6.055   3.533   5.243
10591TIP3   OH231715   1.609   5.076   3.194
10591TIP3    H131716   1.581   5.006   3.254
10591TIP3    H231717   1.527   5.116   3.165
10592TIP3   OH231718   1.647   2.869   3.374
10592TIP3    H131719   1.708   2.812   3.421
10592TIP3    H231720   1.621   2.819   3.297
10593TIP3   OH231721   4.893   2.152   3.104
10593TIP3    H131722   4.824   2.085   3.112
10593TIP3    H231723   4.854   2.220   3.049
10594TIP3   OH231724   1.526   5.820   5.486
10594TIP3    H131725   1.547   5.843   5.577
10594TIP3    H231726   1.502   5.727   5.490
10595TIP3   OH231727   0.130   0.259   2.911
10595TIP3    H131728   0.191   0.186   2.917
10595TIP3    H231729   0.066   0.242   2.981
10596TIP3   OH231730   7.002   0.036   6.693
10596TIP3    H131731   7.016   0.111   6.636
10596TIP3    H231732   6.908   0.018   6.686
10597TIP3   OH231733   4.773   7.330   4.399
10597TIP3    H131734   4.744   7.309   4.310
10597TIP3    H231735   4.696   7.367   4.442
10598TIP3   OH231736   4.944   0.663   2.369
10598TIP3    H131737   5.022   0.717   2.382
10598TIP3    H231738   4.873   0.726   2.356
10599TIP3   OH231739   3.262   0.349   5.195
10599TIP3    H131740   3.228   0.264   5.166
10599TIP3    H231741   3.316   0.379   5.121
10600TIP3   OH231742   6.160   2.585   2.139
10600TIP3    H131743   6.134   2.551   2.225
10600TIP3    H231744   6.149   2.511   2.080
10601TIP3   OH231745   0.592   1.982   3.160
10601TIP3    H131746   0.651   1.964   3.233
10601TIP3    H231747   0.517   2.026   3.200
10602TIP3   OH231748   7.210   5.869   6.342
10602TIP3    H131749   7.263   5.940   6.380
10602TIP3    H231750   7.270   5.823   6.284
10603TIP3   OH231751   4.651   1.519   4.348
10603TIP3    H131752   4.595   1.584   4.306
10603TIP3    H231753   4.738   1.558   4.348
10604TIP3   OH231754   4.095   2.009   6.639
10604TIP3    H131755   4.057   1.947   6.577
10604TIP3    H231756   4.171   1.962   6.676
10605TIP3   OH231757   0.631   3.349   5.717
10605TIP3    H131758   0.667   3.414   5.778
10605TIP3    H231759   0.656   3.264   5.754
10606TIP3   OH231760   4.535   7.475   4.517
10606TIP3    H131761   4.583   7.483   4.599
10606TIP3    H231762   4.456   7.427   4.538
10607TIP3   OH231763   0.300   7.159   0.737
10607TIP3    H131764   0.369   7.097   0.760
10607TIP3    H231765   0.230   7.105   0.702
10608TIP3   OH231766   2.466   4.932   4.089
10608TIP3    H131767   2.399   4.978   4.140
10608TIP3    H231768   2.521   4.890   4.154
10609TIP3   OH231769   4.952   0.969   5.248
10609TIP3    H131770   4.980   0.996   5.336
10609TIP3    H231771   4.952   1.050   5.197
10610TIP3   OH231772   2.743   5.168   1.240
10610TIP3    H131773   2.720   5.091   1.292
10610TIP3    H231774   2.695   5.157   1.158
10611TIP3   OH231775   6.566   2.626   3.288
10611TIP3    H131776   6.577   2.631   3.193
10611TIP3    H231777   6.501   2.557   3.301
10612TIP3   OH231778   1.425   5.471   1.996
10612TIP3    H131779   1.368   5.502   1.925
10612TIP3    H231780   1.365   5.429   2.057
10613TIP3   OH231781   3.827   4.318   1.082
10613TIP3    H131782   3.803   4.238   1.129
10613TIP3    H231783   3.751   4.375   1.092
10614TIP3   OH231784   4.041   5.254   4.553
10614TIP3    H131785   3.952   5.289   4.548
10614TIP3    H231786   4.094   5.329   4.580
10615TIP3   OH231787   4.681   6.257   5.737
10615TIP3    H131788   4.606   6.210   5.774
10615TIP3    H231789   4.690   6.221   5.648
10616TIP3   OH231790   2.388   4.115   5.689
10616TIP3    H131791   2.389   4.204   5.653
10616TIP3    H231792   2.303   4.106   5.730
10617TIP3   OH231793   1.292   6.085   6.455
10617TIP3    H131794   1.348   6.109   6.530
10617TIP3    H231795   1.330   6.133   6.381
10618TIP3   OH231796   4.754   3.769   3.820
10618TIP3    H131797   4.763   3.726   3.735
10618TIP3    H231798   4.749   3.697   3.883
10619TIP3   OH231799   0.735   1.512   1.517
10619TIP3    H131800   0.779   1.520   1.602
10619TIP3    H231801   0.755   1.422   1.489
10620TIP3   OH231802   1.850   5.992   4.191
10620TIP3    H131803   1.790   5.921   4.167
10620TIP3    H231804   1.855   5.988   4.286
10621TIP3   OH231805   2.474   2.962   0.388
10621TIP3    H131806   2.393   3.014   0.387
10621TIP3    H231807   2.515   2.983   0.472
10622TIP3   OH231808   7.568   0.972   6.562
10622TIP3    H131809   7.586   0.902   6.626
10622TIP3    H231810   7.576   0.929   6.477
10623TIP3   OH231811   5.725   4.334   1.404
10623TIP3    H131812   5.783   4.336   1.480
10623TIP3    H231813   5.637   4.326   1.441
10624TIP3   OH231814   7.702   2.183   6.043
10624TIP3    H131815   7.654   2.108   6.008
10624TIP3    H231816   7.643   2.257   6.034
10625TIP3   OH231817   3.721   2.346   1.890
10625TIP3    H131818   3.696   2.302   1.971
10625TIP3    H231819   3.638   2.376   1.853
10626TIP3   OH231820   4.416   6.976   4.967
10626TIP3    H131821   4.388   6.972   4.876
10626TIP3    H231822   4.467   7.057   4.973
10627TIP3   OH231823   5.432   5.149   2.756
10627TIP3    H131824   5.492   5.082   2.724
10627TIP3    H231825   5.488   5.217   2.792
10628TIP3   OH231826   7.949   0.601   5.162
10628TIP3    H131827   7.994   0.683   5.184
10628TIP3    H231828   7.991   0.572   5.082
10629TIP3   OH231829   7.771   6.709   1.379
10629TIP3    H131830   7.715   6.689   1.454
10629TIP3    H231831   7.796   6.623   1.345
10630TIP3   OH231832   4.544   1.959   1.881
10630TIP3    H131833   4.458   1.971   1.843
10630TIP3    H231834   4.594   1.912   1.815
10631TIP3   OH231835   4.689   0.340   1.428
10631TIP3    H131836   4.685   0.312   1.336
10631TIP3    H231837   4.783   0.339   1.449
10632TIP3   OH231838   6.019   5.335   3.512
10632TIP3    H131839   6.062   5.332   3.597
10632TIP3    H231840   5.942   5.390   3.526
10633TIP3   OH231841   2.899   1.857   3.962
10633TIP3    H131842   2.842   1.820   3.895
10633TIP3    H231843   2.913   1.948   3.934
10634TIP3   OH231844   2.542   6.956   6.766
10634TIP3    H131845   2.495   6.924   6.842
10634TIP3    H231846   2.478   7.009   6.718
10635TIP3   OH231847   2.579   1.696   4.516
10635TIP3    H131848   2.489   1.727   4.517
10635TIP3    H231849   2.586   1.644   4.437
10636TIP3   OH231850   6.329   2.002   1.866
10636TIP3    H131851   6.255   1.943   1.856
10636TIP3    H231852   6.303   2.062   1.936
10637TIP3   OH231853   0.665   5.293   3.590
10637TIP3    H131854   0.693   5.308   3.499
10637TIP3    H231855   0.647   5.199   3.594
10638TIP3   OH231856   4.483   1.500   1.524
10638TIP3    H131857   4.422   1.460   1.463
10638TIP3    H231858   4.472   1.594   1.511
10639TIP3   OH231859   7.927   2.744   5.229
10639TIP3    H131860   7.836   2.715   5.228
10639TIP3    H231861   7.935   2.803   5.154
10640TIP3   OH231862   6.133   7.666   6.252
10640TIP3    H131863   6.097   7.727   6.316
10640TIP3    H231864   6.134   7.715   6.170
10641TIP3   OH231865  -0.001   7.082   4.964
10641TIP3    H131866   0.063   7.114   4.900
10641TIP3    H231867   0.052   7.038   5.030
10642TIP3   OH231868   2.349   0.579   0.890
10642TIP3    H131869   2.321   0.667   0.917
10642TIP3    H231870   2.295   0.560   0.813
10643TIP3   OH231871   0.391   2.880   4.677
10643TIP3    H131872   0.356   2.950   4.621
10643TIP3    H231873   0.403   2.806   4.617
10644TIP3   OH231874   2.965   3.216   1.704
10644TIP3    H131875   2.903   3.282   1.733
10644TIP3    H231876   3.040   3.227   1.763
10645TIP3   OH231877   1.009   2.737   6.436
10645TIP3    H131878   1.006   2.716   6.529
10645TIP3    H231879   0.917   2.741   6.410
10646TIP3   OH231880   2.917   5.703   2.511
10646TIP3    H131881   2.926   5.608   2.498
10646TIP3    H231882   3.007   5.733   2.527
10647TIP3   OH231883   3.793   1.655   0.925
10647TIP3    H131884   3.735   1.640   1.000
10647TIP3    H231885   3.872   1.604   0.945
10648TIP3   OH231886   4.184   1.489   3.926
10648TIP3    H131887   4.144   1.573   3.945
10648TIP3    H231888   4.207   1.493   3.833
10649TIP3   OH231889   2.050   4.191   2.849
10649TIP3    H131890   2.043   4.100   2.818
10649TIP3    H231891   2.124   4.227   2.801
10650TIP3   OH231892   2.178   2.531   2.736
10650TIP3    H131893   2.105   2.588   2.713
10650TIP3    H231894   2.254   2.589   2.741
10651TIP3   OH231895   1.545   1.670  -0.020
10651TIP3    H131896   1.506   1.654   0.066
10651TIP3    H231897   1.618   1.608  -0.024
10652TIP3   OH231898   4.235   1.920   2.830
10652TIP3    H131899   4.257   1.939   2.738
10652TIP3    H231900   4.307   1.864   2.860
10653TIP3   OH231901   0.872   2.254   2.879
10653TIP3    H131902   0.785   2.261   2.919
10653TIP3    H231903   0.929   2.225   2.950
10654TIP3   OH231904   2.942   4.673   0.185
10654TIP3    H131905   3.030   4.639   0.166
10654TIP3    H231906   2.931   4.658   0.279
10655TIP3   OH231907   6.940   6.959   6.033
10655TIP3    H131908   6.895   7.038   6.001
10655TIP3    H231909   6.933   6.897   5.960
10656TIP3   OH231910   5.034   4.383   4.377
10656TIP3    H131911   4.959   4.414   4.327
10656TIP3    H231912   5.005   4.387   4.468
10657TIP3   OH231913   1.277   6.261   5.361
10657TIP3    H131914   1.185   6.235   5.365
10657TIP3    H231915   1.323   6.180   5.337
10658TIP3   OH231916   8.136   4.070   5.879
10658TIP3    H131917   8.136   4.063   5.974
10658TIP3    H231918   8.226   4.095   5.857
10659TIP3   OH231919   2.219   0.567   2.595
10659TIP3    H131920   2.215   0.611   2.680
10659TIP3    H231921   2.190   0.478   2.613
10660TIP3   OH231922   4.317   1.918   5.376
10660TIP3    H131923   4.352   1.956   5.456
10660TIP3    H231924   4.317   1.824   5.391
10661TIP3   OH231925   6.794   3.509   2.171
10661TIP3    H131926   6.815   3.591   2.216
10661TIP3    H231927   6.806   3.529   2.078
10662TIP3   OH231928   7.793   5.909   1.178
10662TIP3    H131929   7.712   5.959   1.172
10662TIP3    H231930   7.788   5.847   1.105
10663TIP3   OH231931  -0.004   6.806   0.458
10663TIP3    H131932   0.060   6.813   0.387
10663TIP3    H231933  -0.013   6.712   0.474
10664TIP3   OH231934   3.351   7.096   4.282
10664TIP3    H131935   3.400   7.107   4.363
10664TIP3    H231936   3.363   7.004   4.258
10665TIP3   OH231937   6.930   7.201   4.293
10665TIP3    H131938   6.876   7.187   4.370
10665TIP3    H231939   6.983   7.278   4.315
10666TIP3   OH231940   6.414   7.838   2.731
10666TIP3    H131941   6.398   7.794   2.815
10666TIP3    H231942   6.362   7.789   2.668
10667TIP3   OH231943   3.139   2.934   1.273
10667TIP3    H131944   3.047   2.909   1.270
10667TIP3    H231945   3.148   2.984   1.354
10668TIP3   OH231946   6.529   6.894   6.612
10668TIP3    H131947   6.578   6.826   6.566
10668TIP3    H231948   6.462   6.846   6.661
10669TIP3   OH231949   6.427   7.764   6.316
10669TIP3    H131950   6.424   7.713   6.396
10669TIP3    H231951   6.418   7.700   6.246
10670TIP3   OH231952   2.227   1.728   0.591
10670TIP3    H131953   2.244   1.822   0.597
10670TIP3    H231954   2.312   1.689   0.570
10671TIP3   OH231955   5.433   5.374   2.362
10671TIP3    H131956   5.363   5.342   2.419
10671TIP3    H231957   5.400   5.360   2.273
10672TIP3   OH231958   6.742   4.306   3.301
10672TIP3    H131959   6.711   4.216   3.301
10672TIP3    H231960   6.770   4.321   3.392
10673TIP3   OH231961   2.252   0.537   0.561
10673TIP3    H131962   2.211   0.537   0.475
10673TIP3    H231963   2.192   0.488   0.617
10674TIP3   OH231964   0.232   3.748   0.702
10674TIP3    H131965   0.178   3.680   0.741
10674TIP3    H231966   0.208   3.828   0.749
10675TIP3   OH231967   1.151   2.852   5.145
10675TIP3    H131968   1.169   2.946   5.145
10675TIP3    H231969   1.101   2.837   5.226
10676TIP3   OH231970   3.656   2.069   2.456
10676TIP3    H131971   3.649   1.991   2.511
10676TIP3    H231972   3.668   2.035   2.367
10677TIP3   OH231973   1.869   5.400   5.793
10677TIP3    H131974   1.838   5.318   5.832
10677TIP3    H231975   1.954   5.415   5.834
10678TIP3   OH231976   3.819   1.067   4.418
10678TIP3    H131977   3.876   0.991   4.415
10678TIP3    H231978   3.868   1.136   4.374
10679TIP3   OH231979   2.868   3.802   6.548
10679TIP3    H131980   2.945   3.751   6.523
10679TIP3    H231981   2.799   3.737   6.562
10680TIP3   OH231982   6.067   3.554   2.778
10680TIP3    H131983   6.138   3.494   2.752
10680TIP3    H231984   6.012   3.560   2.700
10681TIP3   OH231985   1.271   6.192   3.732
10681TIP3    H131986   1.228   6.145   3.661
10681TIP3    H231987   1.217   6.270   3.746
10682TIP3   OH231988   3.158   2.661   3.771
10682TIP3    H131989   3.217   2.729   3.806
10682TIP3    H231990   3.100   2.640   3.844
10683TIP3   OH231991   6.889   3.552   3.441
10683TIP3    H131992   6.815   3.610   3.424
10683TIP3    H231993   6.965   3.602   3.410
10684TIP3   OH231994   6.227   4.081   1.361
10684TIP3    H131995   6.218   3.986   1.366
10684TIP3    H231996   6.137   4.113   1.351
10685TIP3   OH231997   5.264   4.084   1.561
10685TIP3    H131998   5.219   4.162   1.531
10685TIP3    H231999   5.211   4.051   1.633
10686TIP3   OH232000   1.257   7.020   2.293
10686TIP3    H132001   1.226   7.059   2.211
10686TIP3    H232002   1.215   7.071   2.361
10687TIP3   OH232003   1.921   1.753   0.863
10687TIP3    H132004   1.926   1.668   0.908
10687TIP3    H232005   1.938   1.732   0.771
10688TIP3   OH232006   4.051   3.261   3.497
10688TIP3    H132007   4.071   3.242   3.406
10688TIP3    H232008   3.971   3.212   3.515
10689TIP3   OH232009   5.162   0.943   2.837
10689TIP3    H132010   5.246   0.977   2.868
10689TIP3    H232011   5.157   0.973   2.746
10690TIP3   OH232012   7.479  -0.025   5.389
10690TIP3    H132013   7.513  -0.004   5.302
10690TIP3    H232014   7.422   0.049   5.410
10691TIP3   OH232015   0.202   3.513   6.751
10691TIP3    H132016   0.215   3.457   6.674
10691TIP3    H232017   0.110   3.541   6.744
10692TIP3   OH232018   4.050   1.958   2.319
10692TIP3    H132019   3.984   2.003   2.266
10692TIP3    H232020   4.024   1.974   2.409
10693TIP3   OH232021   3.137   2.343   1.272
10693TIP3    H132022   3.137   2.270   1.209
10693TIP3    H232023   3.229   2.350   1.299
10694TIP3   OH232024   0.887   4.328   6.757
10694TIP3    H132025   0.960   4.370   6.711
10694TIP3    H232026   0.894   4.360   6.847
10695TIP3   OH232027   4.178   2.511   6.393
10695TIP3    H132028   4.224   2.457   6.328
10695TIP3    H232029   4.248   2.546   6.447
10696TIP3   OH232030   4.179   6.779   5.008
10696TIP3    H132031   4.092   6.817   4.997
10696TIP3    H232032   4.229   6.846   5.054
10697TIP3   OH232033   0.695   1.938   2.165
10697TIP3    H132034   0.661   1.849   2.176
10697TIP3    H232035   0.622   1.987   2.129
10698TIP3   OH232036   7.980   1.279   1.143
10698TIP3    H132037   8.045   1.294   1.211
10698TIP3    H232038   7.907   1.337   1.166
10699TIP3   OH232039   5.937   4.552   6.001
10699TIP3    H132040   5.988   4.598   5.935
10699TIP3    H232041   5.962   4.593   6.084
10700TIP3   OH232042   0.197   3.446   0.580
10700TIP3    H132043   0.238   3.406   0.656
10700TIP3    H232044   0.257   3.516   0.553
10701TIP3   OH232045   3.329   5.714   3.898
10701TIP3    H132046   3.251   5.761   3.928
10701TIP3    H232047   3.357   5.662   3.973
10702TIP3   OH232048   6.685   4.337   6.752
10702TIP3    H132049   6.603   4.295   6.726
10702TIP3    H232050   6.748   4.310   6.686
10703TIP3   OH232051   0.407   4.389   1.831
10703TIP3    H132052   0.336   4.383   1.768
10703TIP3    H232053   0.402   4.307   1.880
10704TIP3   OH232054   0.765   0.080   6.520
10704TIP3    H132055   0.841   0.065   6.464
10704TIP3    H232056   0.697   0.112   6.461
10705TIP3   OH232057   6.587   5.941   2.710
10705TIP3    H132058   6.644   6.017   2.722
10705TIP3    H232059   6.618   5.900   2.629
10706TIP3   OH232060   7.757   3.234   1.987
10706TIP3    H132061   7.669   3.198   1.993
10706TIP3    H232062   7.753   3.315   2.039
10707TIP3   OH232063   5.109   2.021   0.042
10707TIP3    H132064   5.176   2.089   0.039
10707TIP3    H232065   5.026   2.068   0.036
10708TIP3   OH232066   7.262   1.925   6.346
10708TIP3    H132067   7.273   1.974   6.265
10708TIP3    H232068   7.187   1.868   6.329
10709TIP3   OH232069   0.639   4.714   2.615
10709TIP3    H132070   0.730   4.732   2.637
10709TIP3    H232071   0.621   4.770   2.540
10710TIP3   OH232072   2.865   3.002   3.323
10710TIP3    H132073   2.816   2.995   3.241
10710TIP3    H232074   2.955   2.980   3.300
10711TIP3   OH232075   0.897   7.720   2.861
10711TIP3    H132076   0.819   7.762   2.897
10711TIP3    H232077   0.874   7.698   2.771
10712TIP3   OH232078   4.825   0.917   1.872
10712TIP3    H132079   4.833   0.959   1.786
10712TIP3    H232080   4.813   0.990   1.933
10713TIP3   OH232081   3.481   1.467   2.165
10713TIP3    H132082   3.487   1.498   2.074
10713TIP3    H232083   3.406   1.406   2.164
10714TIP3   OH232084   0.489   1.960   2.587
10714TIP3    H132085   0.577   1.923   2.581
10714TIP3    H232086   0.502   2.044   2.632
10715TIP3   OH232087   2.483   3.211   6.314
10715TIP3    H132088   2.397   3.209   6.356
10715TIP3    H232089   2.471   3.268   6.238
10716TIP3   OH232090   3.445   0.335   3.848
10716TIP3    H132091   3.433   0.322   3.942
10716TIP3    H232092   3.395   0.264   3.807
10717TIP3   OH232093   1.191   7.600   2.667
10717TIP3    H132094   1.213   7.610   2.574
10717TIP3    H232095   1.274   7.580   2.709
10718TIP3   OH232096   7.471   0.898   0.198
10718TIP3    H132097   7.389   0.855   0.173
10718TIP3    H232098   7.443   0.974   0.249
10719TIP3   OH232099   0.769   6.165   5.398
10719TIP3    H132100   0.713   6.112   5.454
10719TIP3    H232101   0.726   6.249   5.391
10720TIP3   OH232102   5.796   6.110   2.473
10720TIP3    H132103   5.799   6.206   2.478
10720TIP3    H232104   5.703   6.090   2.461
10721TIP3   OH232105   7.968   2.674   1.127
10721TIP3    H132106   7.907   2.619   1.176
10721TIP3    H232107   7.918   2.754   1.108
10722TIP3   OH232108   5.777   5.907   4.576
10722TIP3    H132109   5.804   5.947   4.659
10722TIP3    H232110   5.705   5.849   4.599
10723TIP3   OH232111   2.286   1.874   0.233
10723TIP3    H132112   2.192   1.877   0.212
10723TIP3    H232113   2.315   1.965   0.226
10724TIP3   OH232114   2.018   4.097   2.279
10724TIP3    H132115   1.964   4.164   2.237
10724TIP3    H232116   2.025   4.126   2.370
10725TIP3   OH232117   6.343   6.703   1.167
10725TIP3    H132118   6.280   6.643   1.208
10725TIP3    H232119   6.389   6.650   1.103
10726TIP3   OH232120   1.471   6.149   4.998
10726TIP3    H132121   1.518   6.101   5.067
10726TIP3    H232122   1.379   6.132   5.015
10727TIP3   OH232123   4.111   2.637   3.184
10727TIP3    H132124   4.088   2.729   3.181
10727TIP3    H232125   4.160   2.627   3.266
10728TIP3   OH232126   1.414   0.156   5.948
10728TIP3    H132127   1.476   0.204   5.892
10728TIP3    H232128   1.328   0.180   5.914
10729TIP3   OH232129   3.406   3.366   4.298
10729TIP3    H132130   3.311   3.359   4.306
10729TIP3    H232131   3.436   3.276   4.285
10730TIP3   OH232132   6.899   6.442   4.692
10730TIP3    H132133   6.854   6.496   4.628
10730TIP3    H232134   6.867   6.473   4.777
10731TIP3   OH232135   8.256   0.126   4.595
10731TIP3    H132136   8.202   0.108   4.518
10731TIP3    H232137   8.309   0.201   4.569
10732TIP3   OH232138   7.624   4.668   4.390
10732TIP3    H132139   7.550   4.619   4.353
10732TIP3    H232140   7.662   4.607   4.453
10733TIP3   OH232141   2.513   6.292   0.049
10733TIP3    H132142   2.474   6.295  -0.038
10733TIP3    H232143   2.440   6.307   0.109
10734TIP3   OH232144   4.001   6.050   6.567
10734TIP3    H132145   3.957   6.077   6.486
10734TIP3    H232146   4.094   6.049   6.545
10735TIP3   OH232147   5.776   3.315   1.084
10735TIP3    H132148   5.763   3.387   1.022
10735TIP3    H232149   5.688   3.288   1.109
10736TIP3   OH232150   2.157   4.960   0.075
10736TIP3    H132151   2.124   5.016   0.005
10736TIP3    H232152   2.131   4.872   0.049
10737TIP3   OH232153   1.150   3.171   6.571
10737TIP3    H132154   1.220   3.179   6.506
10737TIP3    H232155   1.101   3.093   6.544
10738TIP3   OH232156   5.687   6.378   0.554
10738TIP3    H132157   5.689   6.354   0.647
10738TIP3    H232158   5.760   6.440   0.545
10739TIP3   OH232159   6.204   4.195   2.450
10739TIP3    H132160   6.233   4.117   2.403
10739TIP3    H232161   6.108   4.188   2.450
10740TIP3   OH232162   0.476   5.166   4.872
10740TIP3    H132163   0.386   5.178   4.903
10740TIP3    H232164   0.511   5.254   4.861
10741TIP3   OH232165   7.603   3.888   4.984
10741TIP3    H132166   7.680   3.845   5.021
10741TIP3    H232167   7.534   3.821   4.988
10742TIP3   OH232168   3.353   3.413   4.920
10742TIP3    H132169   3.350   3.494   4.870
10742TIP3    H232170   3.397   3.437   5.002
10743TIP3   OH232171   7.956   0.790   3.297
10743TIP3    H132172   7.991   0.868   3.341
10743TIP3    H232173   7.958   0.812   3.204
10744TIP3   OH232174   2.427   6.120   3.012
10744TIP3    H132175   2.508   6.149   2.971
10744TIP3    H232176   2.449   6.111   3.105
10745TIP3   OH232177   7.403   1.209   4.876
10745TIP3    H132178   7.383   1.140   4.938
10745TIP3    H232179   7.331   1.207   4.813
10746TIP3   OH232180   6.594   6.330   2.635
10746TIP3    H132181   6.658   6.260   2.627
10746TIP3    H232182   6.531   6.298   2.699
10747TIP3   OH232183   5.688   2.783   5.753
10747TIP3    H132184   5.780   2.765   5.771
10747TIP3    H232185   5.648   2.696   5.745
10748TIP3   OH232186   1.489   5.025   6.643
10748TIP3    H132187   1.421   5.033   6.577
10748TIP3    H232188   1.566   4.994   6.596
10749TIP3   OH232189   1.350   6.879   3.461
10749TIP3    H132190   1.410   6.924   3.401
10749TIP3    H232191   1.403   6.811   3.502
10750TIP3   OH232192   2.429   1.236   1.365
10750TIP3    H132193   2.436   1.328   1.388
10750TIP3    H232194   2.519   1.204   1.366
10751TIP3   OH232195   0.801   6.796   2.490
10751TIP3    H132196   0.785   6.706   2.460
10751TIP3    H232197   0.896   6.803   2.496
10752TIP3   OH232198   2.794   6.387   0.658
10752TIP3    H132199   2.858   6.443   0.702
10752TIP3    H232200   2.827   6.298   0.672
10753TIP3   OH232201   5.634   7.419   5.163
10753TIP3    H132202   5.701   7.404   5.229
10753TIP3    H232203   5.655   7.504   5.126
10754TIP3   OH232204   3.768   1.780   2.857
10754TIP3    H132205   3.747   1.687   2.849
10754TIP3    H232206   3.862   1.782   2.873
10755TIP3   OH232207   5.740   5.820   1.526
10755TIP3    H132208   5.649   5.796   1.508
10755TIP3    H232209   5.786   5.806   1.444
10756TIP3   OH232210   6.561   7.637   4.801
10756TIP3    H132211   6.600   7.722   4.820
10756TIP3    H232212   6.531   7.605   4.886
10757TIP3   OH232213   5.537   1.098   6.041
10757TIP3    H132214   5.498   1.138   6.119
10757TIP3    H232215   5.473   1.032   6.014
10758TIP3   OH232216   0.215   4.660   5.862
10758TIP3    H132217   0.307   4.649   5.885
10758TIP3    H232218   0.172   4.583   5.900
10759TIP3   OH232219   3.310   7.783   0.428
10759TIP3    H132220   3.320   7.874   0.401
10759TIP3    H232221   3.250   7.786   0.502
10760TIP3   OH232222   0.946   5.812   3.121
10760TIP3    H132223   0.945   5.814   3.217
10760TIP3    H232224   0.904   5.894   3.094
10761TIP3   OH232225   3.249   2.116   3.323
10761TIP3    H132226   3.326   2.093   3.374
10761TIP3    H232227   3.282   2.169   3.251
10762TIP3   OH232228   3.618   3.379   1.498
10762TIP3    H132229   3.525   3.367   1.520
10762TIP3    H232230   3.664   3.320   1.558
10763TIP3   OH232231   2.803   3.326   4.940
10763TIP3    H132232   2.837   3.332   5.030
10763TIP3    H232233   2.867   3.373   4.887
10764TIP3   OH232234   1.928   3.839   4.583
10764TIP3    H132235   1.976   3.876   4.509
10764TIP3    H232236   1.874   3.911   4.615
10765TIP3   OH232237   3.727   0.029   6.091
10765TIP3    H132238   3.818   0.004   6.076
10765TIP3    H232239   3.691   0.041   6.003
10766TIP3   OH232240   0.568   4.613   0.183
10766TIP3    H132241   0.510   4.565   0.242
10766TIP3    H232242   0.544   4.582   0.095
10767TIP3   OH232243   5.094   0.293   4.728
10767TIP3    H132244   5.010   0.252   4.706
10767TIP3    H232245   5.070   0.379   4.763
10768TIP3   OH232246   4.878   6.718   5.106
10768TIP3    H132247   4.914   6.749   5.023
10768TIP3    H232248   4.785   6.741   5.102
10769TIP3   OH232249   3.736   4.430   0.532
10769TIP3    H132250   3.696   4.500   0.584
10769TIP3    H232251   3.705   4.349   0.572
10770TIP3   OH232252   2.539   7.379   2.704
10770TIP3    H132253   2.447   7.362   2.722
10770TIP3    H232254   2.584   7.362   2.787
10771TIP3   OH232255   4.499   3.871   1.946
10771TIP3    H132256   4.569   3.924   1.983
10771TIP3    H232257   4.506   3.787   1.991
10772TIP3   OH232258   4.649   5.072   2.291
10772TIP3    H132259   4.592   5.149   2.287
10772TIP3    H232260   4.648   5.047   2.384
10773TIP3   OH232261   3.975   0.014   5.070
10773TIP3    H132262   4.033   0.083   5.038
10773TIP3    H232263   3.890   0.033   5.030
10774TIP3   OH232264   0.410   3.910   4.417
10774TIP3    H132265   0.445   3.845   4.478
10774TIP3    H232266   0.452   3.890   4.333
10775TIP3   OH232267   2.725   3.676   1.818
10775TIP3    H132268   2.685   3.589   1.816
10775TIP3    H232269   2.802   3.668   1.761
10776TIP3   OH232270   1.024   2.509   2.056
10776TIP3    H132271   1.065   2.587   2.093
10776TIP3    H232272   1.076   2.436   2.090
10777TIP3   OH232273   0.773   4.446   0.265
10777TIP3    H132274   0.812   4.493   0.339
10777TIP3    H232275   0.720   4.512   0.219
10778TIP3   OH232276   2.974   4.253   5.764
10778TIP3    H132277   2.921   4.248   5.844
10778TIP3    H232278   2.973   4.346   5.740
10779TIP3   OH232279   5.425   0.199   0.564
10779TIP3    H132280   5.461   0.278   0.524
10779TIP3    H232281   5.368   0.231   0.634
10780TIP3   OH232282   6.417   0.667   5.875
10780TIP3    H132283   6.467   0.601   5.923
10780TIP3    H232284   6.419   0.636   5.784
10781TIP3   OH232285   0.173   1.204   0.669
10781TIP3    H132286   0.225   1.196   0.749
10781TIP3    H232287   0.223   1.262   0.612
10782TIP3   OH232288   5.290   7.373   3.222
10782TIP3    H132289   5.201   7.382   3.189
10782TIP3    H232290   5.341   7.438   3.175
10783TIP3   OH232291   0.890   5.899   1.341
10783TIP3    H132292   0.896   5.861   1.429
10783TIP3    H232293   0.821   5.965   1.347
10784TIP3   OH232294   2.098   6.725   5.299
10784TIP3    H132295   2.111   6.801   5.356
10784TIP3    H232296   2.123   6.650   5.353
10785TIP3   OH232297   4.733   6.942   4.780
10785TIP3    H132298   4.708   6.850   4.778
10785TIP3    H232299   4.828   6.943   4.769
10786TIP3   OH232300   6.434   1.567   3.893
10786TIP3    H132301   6.495   1.524   3.833
10786TIP3    H232302   6.358   1.510   3.894
10787TIP3   OH232303   5.769   6.777   1.721
10787TIP3    H132304   5.692   6.826   1.692
10787TIP3    H232305   5.828   6.844   1.757
10788TIP3   OH232306   4.428   4.714   3.023
10788TIP3    H132307   4.393   4.712   3.112
10788TIP3    H232308   4.496   4.782   3.026
10789TIP3   OH232309   0.816   4.667   1.682
10789TIP3    H132310   0.796   4.689   1.773
10789TIP3    H232311   0.911   4.680   1.675
10790TIP3   OH232312   7.778   1.113   5.104
10790TIP3    H132313   7.725   1.190   5.083
10790TIP3    H232314   7.868   1.146   5.108
10791TIP3   OH232315   0.277   0.312   2.268
10791TIP3    H132316   0.365   0.338   2.238
10791TIP3    H232317   0.218   0.351   2.204
10792TIP3   OH232318   6.815   2.334   1.645
10792TIP3    H132319   6.911   2.344   1.651
10792TIP3    H232320   6.802   2.269   1.577
10793TIP3   OH232321   6.061   0.486   6.150
10793TIP3    H132322   6.107   0.522   6.225
10793TIP3    H232323   6.007   0.558   6.117
10794TIP3   OH232324   6.330   3.988   6.599
10794TIP3    H132325   6.369   3.961   6.682
10794TIP3    H232326   6.390   4.054   6.565
10795TIP3   OH232327   7.277   4.689   4.232
10795TIP3    H132328   7.257   4.595   4.230
10795TIP3    H232329   7.259   4.715   4.322
10796TIP3   OH232330   0.236   2.365   1.012
10796TIP3    H132331   0.185   2.419   1.071
10796TIP3    H232332   0.185   2.362   0.931
10797TIP3   OH232333   2.147   4.085   5.314
10797TIP3    H132334   2.101   4.043   5.387
10797TIP3    H232335   2.093   4.066   5.237
10798TIP3   OH232336   7.194   1.373   5.807
10798TIP3    H132337   7.286   1.379   5.835
10798TIP3    H232338   7.184   1.283   5.777
10799TIP3   OH232339   6.816   3.627   2.805
10799TIP3    H132340   6.869   3.694   2.761
10799TIP3    H232341   6.865   3.607   2.885
10800TIP3   OH232342   0.420   3.314   5.019
10800TIP3    H132343   0.326   3.329   5.031
10800TIP3    H232344   0.426   3.251   4.948
10801TIP3   OH232345   7.131   6.778   1.326
10801TIP3    H132346   7.096   6.858   1.366
10801TIP3    H232347   7.170   6.730   1.399
10802TIP3   OH232348   0.966   5.370   6.616
10802TIP3    H132349   0.930   5.287   6.584
10802TIP3    H232350   0.905   5.397   6.686
10803TIP3   OH232351   5.557   6.980   0.345
10803TIP3    H132352   5.548   6.986   0.440
10803TIP3    H232353   5.528   6.892   0.324
10804TIP3   OH232354   0.076   1.789   1.076
10804TIP3    H132355   0.158   1.750   1.044
10804TIP3    H232356   0.008   1.733   1.040
10805TIP3   OH232357   3.054   3.931   6.070
10805TIP3    H132358   3.111   4.006   6.052
10805TIP3    H232359   2.965   3.967   6.067
10806TIP3   OH232360   0.369   0.643   3.922
10806TIP3    H132361   0.462   0.646   3.899
10806TIP3    H232362   0.333   0.571   3.870
10807TIP3   OH232363   2.830   3.237   0.054
10807TIP3    H132364   2.832   3.161  -0.005
10807TIP3    H232365   2.921   3.264   0.063
10808TIP3   OH232366   4.365   4.216   3.237
10808TIP3    H132367   4.296   4.222   3.303
10808TIP3    H232368   4.318   4.201   3.155
10809TIP3   OH232369   0.932   1.309   1.360
10809TIP3    H132370   0.868   1.287   1.293
10809TIP3    H232371   1.015   1.278   1.324
10810TIP3   OH232372   4.337   3.563   2.406
10810TIP3    H132373   4.328   3.470   2.426
10810TIP3    H232374   4.255   3.602   2.436
10811TIP3   OH232375   7.269   3.615   6.044
10811TIP3    H132376   7.353   3.618   5.999
10811TIP3    H232377   7.292   3.609   6.136
10812TIP3   OH232378   7.851   5.204   3.334
10812TIP3    H132379   7.799   5.138   3.380
10812TIP3    H232380   7.942   5.181   3.354
10813TIP3   OH232381   6.690   2.200   3.690
10813TIP3    H132382   6.783   2.196   3.714
10813TIP3    H232383   6.650   2.129   3.739
10814TIP3   OH232384   5.645   5.162   2.005
10814TIP3    H132385   5.675   5.115   2.084
10814TIP3    H232386   5.715   5.149   1.942
10815TIP3   OH232387   7.682   1.530   2.431
10815TIP3    H132388   7.621   1.602   2.416
10815TIP3    H232389   7.746   1.565   2.493
10816TIP3   OH232390   1.020   1.398   0.780
10816TIP3    H132391   0.935   1.437   0.759
10816TIP3    H232392   1.025   1.400   0.875
10817TIP3   OH232393   5.738   6.603   5.288
10817TIP3    H132394   5.800   6.613   5.360
10817TIP3    H232395   5.785   6.631   5.211
10818TIP3   OH232396   4.340   5.293   3.701
10818TIP3    H132397   4.289   5.215   3.680
10818TIP3    H232398   4.423   5.281   3.655
10819TIP3   OH232399   6.354   4.050   5.483
10819TIP3    H132400   6.326   4.131   5.440
10819TIP3    H232401   6.273   4.000   5.496
10820TIP3   OH232402   7.006   7.730   6.185
10820TIP3    H132403   6.964   7.790   6.247
10820TIP3    H232404   7.058   7.786   6.128
10821TIP3   OH232405   0.482   4.895   2.084
10821TIP3    H132406   0.554   4.909   2.146
10821TIP3    H232407   0.493   4.964   2.019
10822TIP3   OH232408   2.200   5.797   2.232
10822TIP3    H132409   2.124   5.854   2.228
10822TIP3    H232410   2.208   5.773   2.324
10823TIP3   OH232411   0.129   1.062   6.364
10823TIP3    H132412   0.224   1.052   6.379
10823TIP3    H232413   0.089   1.001   6.425
10824TIP3   OH232414   1.943   3.922   2.810
10824TIP3    H132415   1.945   3.826   2.799
10824TIP3    H232416   1.876   3.938   2.876
10825TIP3   OH232417   5.823   2.252   0.669
10825TIP3    H132418   5.872   2.326   0.706
10825TIP3    H232419   5.832   2.182   0.733
10826TIP3   OH232420   7.889   7.336   6.715
10826TIP3    H132421   7.814   7.365   6.766
10826TIP3    H232422   7.965   7.357   6.770
10827TIP3   OH232423   5.419   4.765   5.971
10827TIP3    H132424   5.471   4.692   5.938
10827TIP3    H232425   5.333   4.727   5.990
10828TIP3   OH232426   8.015   7.706   4.299
10828TIP3    H132427   8.059   7.777   4.252
10828TIP3    H232428   7.922   7.724   4.289
10829TIP3   OH232429   2.541   4.410   2.469
10829TIP3    H132430   2.624   4.442   2.434
10829TIP3    H232431   2.533   4.321   2.435
10830TIP3   OH232432   2.190   6.469   0.271
10830TIP3    H132433   2.276   6.440   0.302
10830TIP3    H232434   2.136   6.390   0.276
10831TIP3   OH232435   6.109   2.809   0.162
10831TIP3    H132436   6.161   2.803   0.242
10831TIP3    H232437   6.158   2.757   0.098
10832TIP3   OH232438   0.939   1.645   5.812
10832TIP3    H132439   0.927   1.740   5.809
10832TIP3    H232440   0.874   1.615   5.876
10833TIP3   OH232441   2.491   5.873   5.001
10833TIP3    H132442   2.437   5.844   5.074
10833TIP3    H232443   2.429   5.890   4.930
10834TIP3   OH232444   7.538   6.496   0.746
10834TIP3    H132445   7.487   6.469   0.822
10834TIP3    H232446   7.575   6.415   0.712
10835TIP3   OH232447   1.878   4.704   2.449
10835TIP3    H132448   1.833   4.619   2.444
10835TIP3    H232449   1.924   4.701   2.533
10836TIP3   OH232450   4.607   6.629   5.796
10836TIP3    H132451   4.540   6.617   5.863
10836TIP3    H232452   4.561   6.671   5.724
10837TIP3   OH232453   0.407   7.492   6.313
10837TIP3    H132454   0.399   7.524   6.403
10837TIP3    H232455   0.497   7.513   6.288
10838TIP3   OH232456   0.414   3.275   4.350
10838TIP3    H132457   0.368   3.298   4.269
10838TIP3    H232458   0.441   3.359   4.387
10839TIP3   OH232459   2.992   7.133   6.058
10839TIP3    H132460   2.912   7.089   6.087
10839TIP3    H232461   3.063   7.085   6.101
10840TIP3   OH232462   4.183   3.290   6.440
10840TIP3    H132463   4.175   3.229   6.367
10840TIP3    H232464   4.263   3.263   6.485
10841TIP3   OH232465   3.499   6.762   2.016
10841TIP3    H132466   3.426   6.820   1.992
10841TIP3    H232467   3.521   6.717   1.934
10842TIP3   OH232468   0.837   3.208   1.059
10842TIP3    H132469   0.824   3.152   1.135
10842TIP3    H232470   0.856   3.294   1.095
10843TIP3   OH232471   7.562   6.423   3.970
10843TIP3    H132472   7.564   6.512   3.934
10843TIP3    H232473   7.469   6.402   3.976
10844TIP3   OH232474   6.447   2.964   4.953
10844TIP3    H132475   6.424   2.904   4.883
10844TIP3    H232476   6.543   2.961   4.956
10845TIP3   OH232477   5.861   5.914   0.371
10845TIP3    H132478   5.951   5.925   0.400
10845TIP3    H232479   5.851   5.975   0.297
10846TIP3   OH232480   5.889   1.047   6.280
10846TIP3    H132481   5.982   1.030   6.294
10846TIP3    H232482   5.849   1.030   6.365
10847TIP3   OH232483   3.208   3.108   0.054
10847TIP3    H132484   3.155   3.178   0.092
10847TIP3    H232485   3.255   3.071   0.129
10848TIP3   OH232486   4.239   6.351   6.269
10848TIP3    H132487   4.318   6.373   6.318
10848TIP3    H232488   4.234   6.417   6.200
10849TIP3   OH232489   4.073   4.312   5.582
10849TIP3    H132490   4.059   4.330   5.675
10849TIP3    H232491   3.988   4.280   5.552
10850TIP3   OH232492   3.505   0.629   2.243
10850TIP3    H132493   3.445   0.670   2.181
10850TIP3    H232494   3.448   0.582   2.304
10851TIP3   OH232495   5.872   0.731   0.671
10851TIP3    H132496   5.954   0.713   0.626
10851TIP3    H232497   5.823   0.785   0.610
10852TIP3   OH232498   3.622   2.051   0.806
10852TIP3    H132499   3.597   2.108   0.879
10852TIP3    H232500   3.683   1.988   0.844
10853TIP3   OH232501   0.396   3.023   3.657
10853TIP3    H132502   0.491   3.025   3.652
10853TIP3    H232503   0.369   2.969   3.583
10854TIP3   OH232504   7.140   0.156   4.950
10854TIP3    H132505   7.212   0.136   5.010
10854TIP3    H232506   7.174   0.227   4.895
10855TIP3   OH232507   3.090   5.170   3.608
10855TIP3    H132508   3.123   5.173   3.518
10855TIP3    H232509   3.118   5.084   3.641
10856TIP3   OH232510   2.972   7.017   2.837
10856TIP3    H132511   2.941   7.061   2.759
10856TIP3    H232512   2.972   6.924   2.814
10857TIP3   OH232513   7.735   3.619   5.692
10857TIP3    H132514   7.641   3.620   5.707
10857TIP3    H232515   7.768   3.696   5.740
10858TIP3   OH232516   5.643   2.289   2.687
10858TIP3    H132517   5.607   2.374   2.711
10858TIP3    H232518   5.665   2.297   2.594
10859TIP3   OH232519   7.032   6.580   3.819
10859TIP3    H132520   7.006   6.556   3.730
10859TIP3    H232521   6.998   6.510   3.874
10860TIP3   OH232522   7.601   1.333   4.115
10860TIP3    H132523   7.649   1.292   4.187
10860TIP3    H232524   7.551   1.403   4.158
10861TIP3   OH232525   3.666   2.534   3.548
10861TIP3    H132526   3.714   2.600   3.599
10861TIP3    H232527   3.734   2.484   3.503
10862TIP3   OH232528   6.398   0.522   2.771
10862TIP3    H132529   6.330   0.588   2.780
10862TIP3    H232530   6.466   0.548   2.833
10863TIP3   OH232531   2.342   1.053   1.124
10863TIP3    H132532   2.328   1.034   1.217
10863TIP3    H232533   2.307   1.141   1.112
10864TIP3   OH232534   5.081   7.342   6.398
10864TIP3    H132535   5.110   7.317   6.486
10864TIP3    H232536   5.159   7.332   6.344
10865TIP3   OH232537   6.606   5.140   1.617
10865TIP3    H132538   6.574   5.115   1.704
10865TIP3    H232539   6.628   5.233   1.626
10866TIP3   OH232540   3.201   1.175   1.065
10866TIP3    H132541   3.121   1.183   1.117
10866TIP3    H232542   3.254   1.250   1.090
10867TIP3   OH232543   0.126   7.748   3.825
10867TIP3    H132544   0.044   7.785   3.792
10867TIP3    H232545   0.170   7.821   3.869
10868TIP3   OH232546   4.032   7.319   0.390
10868TIP3    H132547   4.120   7.304   0.427
10868TIP3    H232548   4.048   7.339   0.298
10869TIP3   OH232549   0.897   6.199   2.908
10869TIP3    H132550   0.988   6.176   2.929
10869TIP3    H232551   0.851   6.115   2.907
10870TIP3   OH232552   0.292   4.449   5.583
10870TIP3    H132553   0.332   4.514   5.525
10870TIP3    H232554   0.359   4.432   5.650
10871TIP3   OH232555   3.533   1.200   2.687
10871TIP3    H132556   3.448   1.245   2.686
10871TIP3    H232557   3.546   1.171   2.597
10872TIP3   OH232558   2.227   5.413   0.127
10872TIP3    H132559   2.135   5.395   0.148
10872TIP3    H232560   2.251   5.346   0.063
10873TIP3   OH232561   0.519   2.957   1.894
10873TIP3    H132562   0.598   3.001   1.926
10873TIP3    H232563   0.537   2.940   1.802
10874TIP3   OH232564   7.837   7.055   4.459
10874TIP3    H132565   7.901   6.991   4.490
10874TIP3    H232566   7.754   7.029   4.500
10875TIP3   OH232567   8.226   3.687   5.480
10875TIP3    H132568   8.288   3.702   5.551
10875TIP3    H232569   8.281   3.681   5.401
10876TIP3   OH232570   3.915   6.601   5.221
10876TIP3    H132571   3.836   6.643   5.257
10876TIP3    H232572   3.911   6.620   5.127
10877TIP3   OH232573   1.058   2.619   0.654
10877TIP3    H132574   1.125   2.658   0.598
10877TIP3    H232575   0.983   2.606   0.596
10878TIP3   OH232576   7.618   6.999   2.340
10878TIP3    H132577   7.693   6.940   2.336
10878TIP3    H232578   7.652   7.078   2.380
10879TIP3   OH232579   8.156   3.262   5.252
10879TIP3    H132580   8.125   3.352   5.247
10879TIP3    H232581   8.223   3.264   5.321
10880TIP3   OH232582   1.519   3.480   1.531
10880TIP3    H132583   1.604   3.460   1.571
10880TIP3    H232584   1.524   3.573   1.509
10881TIP3   OH232585   5.399   0.856   3.424
10881TIP3    H132586   5.414   0.826   3.513
10881TIP3    H232587   5.444   0.791   3.369
10882TIP3   OH232588   4.266   0.304   2.026
10882TIP3    H132589   4.360   0.293   2.038
10882TIP3    H232590   4.227   0.260   2.102
10883TIP3   OH232591   8.059   2.107   6.387
10883TIP3    H132592   7.997   2.177   6.365
10883TIP3    H232593   8.037   2.035   6.327
10884TIP3   OH232594   5.676   7.217   3.691
10884TIP3    H132595   5.725   7.299   3.698
10884TIP3    H232596   5.586   7.244   3.669
10885TIP3   OH232597   1.969   7.011   1.565
10885TIP3    H132598   2.050   7.000   1.615
10885TIP3    H232599   1.988   6.973   1.479
10886TIP3   OH232600   1.634   3.575   2.753
10886TIP3    H132601   1.677   3.618   2.826
10886TIP3    H232602   1.548   3.550   2.787
10887TIP3   OH232603   6.000   2.379   4.844
10887TIP3    H132604   5.979   2.440   4.915
10887TIP3    H232605   6.093   2.395   4.826
10888TIP3   OH232606   5.447   1.429   3.537
10888TIP3    H132607   5.388   1.374   3.588
10888TIP3    H232608   5.512   1.460   3.601
10889TIP3   OH232609   7.359   4.507   2.729
10889TIP3    H132610   7.276   4.487   2.685
10889TIP3    H232611   7.345   4.592   2.770
10890TIP3   OH232612   5.463   3.339   6.595
10890TIP3    H132613   5.440   3.385   6.676
10890TIP3    H232614   5.392   3.361   6.535
10891TIP3   OH232615   1.077   5.002   2.889
10891TIP3    H132616   1.086   4.907   2.881
10891TIP3    H232617   1.167   5.034   2.893
10892TIP3   OH232618   0.057   3.193   0.560
10892TIP3    H132619   0.033   3.182   0.468
10892TIP3    H232620   0.061   3.288   0.573
10893TIP3   OH232621   2.338   6.971   2.325
10893TIP3    H132622   2.387   7.012   2.397
10893TIP3    H232623   2.393   6.984   2.248
10894TIP3   OH232624   6.941   6.031   4.872
10894TIP3    H132625   6.968   6.080   4.794
10894TIP3    H232626   6.864   5.982   4.844
10895TIP3   OH232627   6.894   0.555   1.602
10895TIP3    H132628   6.986   0.570   1.584
10895TIP3    H232629   6.893   0.495   1.677
10896TIP3   OH232630   8.061   1.855   2.581
10896TIP3    H132631   8.037   1.948   2.583
10896TIP3    H232632   8.156   1.855   2.574
10897TIP3   OH232633   0.826   3.700   4.733
10897TIP3    H132634   0.803   3.774   4.789
10897TIP3    H232635   0.912   3.672   4.764
10898TIP3   OH232636   5.747   5.437   1.251
10898TIP3    H132637   5.790   5.446   1.336
10898TIP3    H232638   5.802   5.487   1.191
10899TIP3   OH232639   5.641   7.568   1.372
10899TIP3    H132640   5.713   7.617   1.333
10899TIP3    H232641   5.678   7.532   1.453
10900TIP3   OH232642   1.103   2.392   6.107
10900TIP3    H132643   1.017   2.392   6.147
10900TIP3    H232644   1.147   2.315   6.144
10901TIP3   OH232645   1.420   1.002   0.410
10901TIP3    H132646   1.478   1.038   0.477
10901TIP3    H232647   1.339   1.052   0.417
10902TIP3   OH232648   6.386   3.743   1.722
10902TIP3    H132649   6.336   3.786   1.791
10902TIP3    H232650   6.338   3.662   1.704
10903TIP3   OH232651   2.594   0.670   3.122
10903TIP3    H132652   2.540   0.749   3.117
10903TIP3    H232653   2.648   0.673   3.042
10904TIP3   OH232654   7.440   0.290   6.213
10904TIP3    H132655   7.349   0.278   6.241
10904TIP3    H232656   7.444   0.253   6.125
10905TIP3   OH232657   0.128   1.034   4.591
10905TIP3    H132658   0.084   1.112   4.626
10905TIP3    H232659   0.113   0.966   4.656
10906TIP3   OH232660   5.607   4.555   5.831
10906TIP3    H132661   5.656   4.529   5.753
10906TIP3    H232662   5.547   4.483   5.846
10907TIP3   OH232663   1.689   3.478   2.514
10907TIP3    H132664   1.686   3.532   2.593
10907TIP3    H232665   1.623   3.517   2.456
10908TIP3   OH232666   0.805   3.076   0.281
10908TIP3    H132667   0.720   3.095   0.321
10908TIP3    H232668   0.787   3.007   0.217
10909TIP3   OH232669   1.444   5.616   0.865
10909TIP3    H132670   1.370   5.623   0.804
10909TIP3    H232671   1.496   5.543   0.831
10910TIP3   OH232672   3.221   5.695   2.430
10910TIP3    H132673   3.279   5.620   2.442
10910TIP3    H232674   3.248   5.734   2.347
10911TIP3   OH232675   0.577   4.878   0.643
10911TIP3    H132676   0.645   4.867   0.576
10911TIP3    H232677   0.624   4.871   0.726
10912TIP3   OH232678   3.206   3.264   1.832
10912TIP3    H132679   3.161   3.337   1.876
10912TIP3    H232680   3.227   3.203   1.902
10913TIP3   OH232681   0.686   7.166   6.782
10913TIP3    H132682   0.619   7.234   6.774
10913TIP3    H232683   0.653   7.093   6.730
10914TIP3   OH232684   4.928   3.745   3.226
10914TIP3    H132685   4.980   3.669   3.198
10914TIP3    H232686   4.991   3.817   3.229
10915TIP3   OH232687   4.120   6.984   6.437
10915TIP3    H132688   4.033   7.003   6.472
10915TIP3    H232689   4.105   6.968   6.343
10916TIP3   OH232690   1.473   0.544   5.918
10916TIP3    H132691   1.381   0.568   5.925
10916TIP3    H232692   1.478   0.493   5.837
10917TIP3   OH232693   6.399   5.557   5.565
10917TIP3    H132694   6.451   5.483   5.535
10917TIP3    H232695   6.308   5.528   5.553
10918TIP3   OH232696   3.587   2.344   5.139
10918TIP3    H132697   3.602   2.398   5.061
10918TIP3    H232698   3.630   2.261   5.119
10919TIP3   OH232699   7.465   4.227   0.190
10919TIP3    H132700   7.459   4.288   0.263
10919TIP3    H232701   7.409   4.265   0.122
10920TIP3   OH232702   0.551   6.665   1.566
10920TIP3    H132703   0.491   6.619   1.624
10920TIP3    H232704   0.632   6.674   1.617
10921TIP3   OH232705   4.658   7.480   0.463
10921TIP3    H132706   4.750   7.457   0.475
10921TIP3    H232707   4.642   7.469   0.369
10922TIP3   OH232708   4.436   5.847   6.749
10922TIP3    H132709   4.366   5.910   6.766
10922TIP3    H232710   4.390   5.765   6.729
10923TIP3   OH232711   4.297   4.338   0.962
10923TIP3    H132712   4.323   4.275   1.029
10923TIP3    H232713   4.205   4.354   0.979
10924TIP3   OH232714   7.368   0.133   2.906
10924TIP3    H132715   7.442   0.107   2.960
10924TIP3    H232716   7.384   0.224   2.885
10925TIP3   OH232717   1.902   6.748   6.686
10925TIP3    H132718   1.867   6.796   6.611
10925TIP3    H232719   1.985   6.712   6.655
10926TIP3   OH232720   3.208   6.998   5.206
10926TIP3    H132721   3.124   6.955   5.219
10926TIP3    H232722   3.273   6.932   5.230
10927TIP3   OH232723   7.642   4.365   6.743
10927TIP3    H132724   7.635   4.358   6.838
10927TIP3    H232725   7.635   4.275   6.712
10928TIP3   OH232726   3.361   1.325   1.237
10928TIP3    H132727   3.377   1.397   1.175
10928TIP3    H232728   3.280   1.349   1.281
10929TIP3   OH232729   0.113   5.035   5.180
10929TIP3    H132730   0.113   4.941   5.195
10929TIP3    H232731   0.058   5.047   5.103
10930TIP3   OH232732   0.737   5.072   0.908
10930TIP3    H132733   0.801   5.084   0.838
10930TIP3    H232734   0.775   5.119   0.983
10931TIP3   OH232735   0.794   6.897   6.409
10931TIP3    H132736   0.771   6.983   6.444
10931TIP3    H232737   0.854   6.860   6.473
10932TIP3   OH232738   1.725   0.159   3.423
10932TIP3    H132739   1.718   0.228   3.357
10932TIP3    H232740   1.723   0.205   3.507
10933TIP3   OH232741   8.311   3.574   0.277
10933TIP3    H132742   8.242   3.521   0.237
10933TIP3    H232743   8.295   3.567   0.371
10934TIP3   OH232744   4.992   7.473   4.435
10934TIP3    H132745   4.903   7.439   4.428
10934TIP3    H232746   5.038   7.437   4.359
10935TIP3   OH232747   6.031   7.058   5.331
10935TIP3    H132748   5.989   7.019   5.407
10935TIP3    H232749   6.012   7.151   5.338
10936TIP3   OH232750   0.582   6.137   4.646
10936TIP3    H132751   0.642   6.063   4.658
10936TIP3    H232752   0.632   6.199   4.593
10937TIP3   OH232753   7.783   6.380   6.260
10937TIP3    H132754   7.830   6.440   6.202
10937TIP3    H232755   7.813   6.404   6.348
10938TIP3   OH232756   1.096   4.775   0.416
10938TIP3    H132757   1.142   4.844   0.368
10938TIP3    H232758   1.069   4.713   0.349
10939TIP3   OH232759   4.136   5.964   2.387
10939TIP3    H132760   4.083   5.981   2.464
10939TIP3    H232761   4.079   5.914   2.329
10940TIP3   OH232762   5.637   2.872   6.395
10940TIP3    H132763   5.545   2.857   6.417
10940TIP3    H232764   5.635   2.926   6.316
10941TIP3   OH232765   3.204   1.705   2.235
10941TIP3    H132766   3.237   1.714   2.146
10941TIP3    H232767   3.258   1.764   2.288
10942TIP3   OH232768   6.063   1.193   3.951
10942TIP3    H132769   6.083   1.280   3.917
10942TIP3    H232770   6.022   1.210   4.036
10943TIP3   OH232771   6.876   2.697   5.822
10943TIP3    H132772   6.835   2.727   5.741
10943TIP3    H232773   6.939   2.630   5.795
10944TIP3   OH232774   6.327   5.195   3.890
10944TIP3    H132775   6.358   5.192   3.800
10944TIP3    H232776   6.235   5.219   3.883
10945TIP3   OH232777   0.833   4.149   1.059
10945TIP3    H132778   0.819   4.132   1.152
10945TIP3    H232779   0.926   4.171   1.052
10946TIP3   OH232780   6.619   7.355   5.851
10946TIP3    H132781   6.545   7.300   5.827
10946TIP3    H232782   6.607   7.435   5.801
10947TIP3   OH232783   6.691   2.894   6.210
10947TIP3    H132784   6.621   2.931   6.263
10947TIP3    H232785   6.673   2.924   6.121
10948TIP3   OH232786   0.344   4.079   1.760
10948TIP3    H132787   0.280   4.094   1.830
10948TIP3    H232788   0.415   4.030   1.802
10949TIP3   OH232789   5.426   1.446   5.320
10949TIP3    H132790   5.450   1.371   5.373
10949TIP3    H232791   5.507   1.474   5.277
10950TIP3   OH232792   6.304   0.528   1.212
10950TIP3    H132793   6.275   0.437   1.211
10950TIP3    H232794   6.359   0.537   1.134
10951TIP3   OH232795   7.472   5.162   0.875
10951TIP3    H132796   7.509   5.082   0.912
10951TIP3    H232797   7.514   5.233   0.924
10952TIP3   OH232798   6.049   4.198   3.982
10952TIP3    H132799   6.084   4.281   4.014
10952TIP3    H232800   6.123   4.157   3.937
10953TIP3   OH232801   7.964   4.189   1.770
10953TIP3    H132802   7.887   4.156   1.724
10953TIP3    H232803   7.932   4.267   1.815
10954TIP3   OH232804   2.383   3.407   1.281
10954TIP3    H132805   2.382   3.410   1.185
10954TIP3    H232806   2.374   3.499   1.308
10955TIP3   OH232807   5.880   4.716   4.040
10955TIP3    H132808   5.846   4.777   3.975
10955TIP3    H232809   5.973   4.709   4.020
10956TIP3   OH232810   0.897   3.978   1.330
10956TIP3    H132811   0.824   3.917   1.320
10956TIP3    H232812   0.858   4.065   1.321
10957TIP3   OH232813   5.275   4.640   3.807
10957TIP3    H132814   5.200   4.591   3.841
10957TIP3    H232815   5.295   4.704   3.875
10958TIP3   OH232816   4.091   2.189   6.420
10958TIP3    H132817   4.183   2.188   6.447
10958TIP3    H232818   4.052   2.258   6.474
10959TIP3   OH232819   0.295   3.433   0.840
10959TIP3    H132820   0.240   3.442   0.918
10959TIP3    H232821   0.384   3.450   0.871
10960TIP3   OH232822   0.487   4.530   5.398
10960TIP3    H132823   0.529   4.611   5.428
10960TIP3    H232824   0.558   4.466   5.399
10961TIP3   OH232825   6.091   7.155   2.085
10961TIP3    H132826   6.180   7.122   2.092
10961TIP3    H232827   6.088   7.199   2.000
10962TIP3   OH232828   1.276   1.409   6.344
10962TIP3    H132829   1.293   1.375   6.432
10962TIP3    H232830   1.309   1.498   6.346
10963TIP3   OH232831   4.394   6.748   1.382
10963TIP3    H132832   4.419   6.833   1.418
10963TIP3    H232833   4.421   6.685   1.450
10964TIP3   OH232834   4.349   5.708   0.428
10964TIP3    H132835   4.339   5.758   0.348
10964TIP3    H232836   4.434   5.664   0.418
10965TIP3   OH232837   4.265   4.568   1.706
10965TIP3    H132838   4.223   4.543   1.789
10965TIP3    H232839   4.256   4.663   1.703
10966TIP3   OH232840   3.824   3.005   0.717
10966TIP3    H132841   3.859   2.947   0.650
10966TIP3    H232842   3.828   2.954   0.798
10967TIP3   OH232843   1.751   2.977   0.644
10967TIP3    H132844   1.783   2.992   0.733
10967TIP3    H232845   1.675   2.920   0.656
10968TIP3   OH232846   3.729   3.351   0.339
10968TIP3    H132847   3.720   3.314   0.427
10968TIP3    H232848   3.669   3.299   0.285
10969TIP3   OH232849   5.228   2.448   6.157
10969TIP3    H132850   5.170   2.393   6.208
10969TIP3    H232851   5.273   2.388   6.097
10970TIP3   OH232852   5.247   6.447   5.413
10970TIP3    H132853   5.331   6.468   5.373
10970TIP3    H232854   5.227   6.358   5.382
10971TIP3   OH232855   1.407   7.186   4.448
10971TIP3    H132856   1.458   7.152   4.374
10971TIP3    H232857   1.398   7.279   4.430
10972TIP3   OH232858   7.649   6.797   4.772
10972TIP3    H132859   7.621   6.873   4.822
10972TIP3    H232860   7.648   6.825   4.681
10973TIP3   OH232861   2.761   6.614   0.889
10973TIP3    H132862   2.760   6.521   0.914
10973TIP3    H232863   2.845   6.646   0.922
10974TIP3   OH232864   0.935   3.392   2.685
10974TIP3    H132865   0.918   3.382   2.779
10974TIP3    H232866   0.878   3.327   2.643
10975TIP3   OH232867   4.982   2.110   4.185
10975TIP3    H132868   4.963   2.169   4.112
10975TIP3    H232869   4.997   2.169   4.259
10976TIP3   OH232870   2.568   6.077   6.203
10976TIP3    H132871   2.639   6.018   6.176
10976TIP3    H232872   2.488   6.036   6.170
10977TIP3   OH232873   4.966   2.768   1.507
10977TIP3    H132874   5.057   2.741   1.520
10977TIP3    H232875   4.925   2.758   1.593
10978TIP3   OH232876   5.851   7.819   2.277
10978TIP3    H132877   5.788   7.803   2.347
10978TIP3    H232878   5.933   7.838   2.322
10979TIP3   OH232879   3.704   0.486   0.710
10979TIP3    H132880   3.616   0.525   0.711
10979TIP3    H232881   3.757   0.545   0.764
10980TIP3   OH232882   1.887   5.609   3.253
10980TIP3    H132883   1.908   5.699   3.281
10980TIP3    H232884   1.841   5.572   3.328
10981TIP3   OH232885   1.751   6.853   5.888
10981TIP3    H132886   1.658   6.875   5.893
10981TIP3    H232887   1.773   6.826   5.978
10982TIP3   OH232888   3.847   0.167   3.676
10982TIP3    H132889   3.813   0.190   3.763
10982TIP3    H232890   3.939   0.193   3.679
10983TIP3   OH232891   5.406   0.135   0.107
10983TIP3    H132892   5.367   0.213   0.146
10983TIP3    H232893   5.375   0.136   0.016
10984TIP3   OH232894   6.958   5.720   4.301
10984TIP3    H132895   6.994   5.804   4.273
10984TIP3    H232896   7.011   5.655   4.255
10985TIP3   OH232897   0.788   6.135   5.969
10985TIP3    H132898   0.730   6.062   5.989
10985TIP3    H232899   0.785   6.143   5.874
10986TIP3   OH232900   7.683   3.077   3.883
10986TIP3    H132901   7.593   3.061   3.910
10986TIP3    H232902   7.687   3.172   3.868
10987TIP3   OH232903   3.928   5.536   6.156
10987TIP3    H132904   3.881   5.590   6.219
10987TIP3    H232905   4.014   5.578   6.147
10988TIP3   OH232906   2.697   3.375   5.622
10988TIP3    H132907   2.747   3.442   5.669
10988TIP3    H232908   2.750   3.295   5.631
10989TIP3   OH232909   1.727   7.350   2.550
10989TIP3    H132910   1.706   7.442   2.566
10989TIP3    H232911   1.657   7.320   2.491
10990TIP3   OH232912   5.518   1.709   0.030
10990TIP3    H132913   5.539   1.802   0.023
10990TIP3    H232914   5.507   1.694   0.124
10991TIP3   OH232915   2.248   6.241   3.507
10991TIP3    H132916   2.273   6.334   3.511
10991TIP3    H232917   2.200   6.226   3.588
10992TIP3   OH232918   3.931   4.683   5.000
10992TIP3    H132919   3.948   4.626   5.075
10992TIP3    H232920   3.868   4.634   4.947
10993TIP3   OH232921   3.543   6.892   0.187
10993TIP3    H132922   3.616   6.954   0.190
10993TIP3    H232923   3.581   6.811   0.151
10994TIP3   OH232924   7.523   0.621   2.450
10994TIP3    H132925   7.497   0.536   2.416
10994TIP3    H232926   7.477   0.685   2.395
10995TIP3   OH232927   6.766   6.883   4.827
10995TIP3    H132928   6.750   6.861   4.735
10995TIP3    H232929   6.757   6.979   4.830
10996TIP3   OH232930   5.858   3.210   3.542
10996TIP3    H132931   5.799   3.275   3.504
10996TIP3    H232932   5.810   3.177   3.618
10997TIP3   OH232933   1.269   5.974   4.198
10997TIP3    H132934   1.338   5.909   4.185
10997TIP3    H232935   1.297   6.050   4.147
10998TIP3   OH232936   7.461   1.838   0.564
10998TIP3    H132937   7.487   1.918   0.520
10998TIP3    H232938   7.537   1.813   0.617
10999TIP3   OH232939   6.494   1.990   4.457
10999TIP3    H132940   6.515   2.081   4.435
10999TIP3    H232941   6.474   1.992   4.550
11000TIP3   OH232942   1.694   1.060   4.445
11000TIP3    H132943   1.691   0.965   4.434
11000TIP3    H232944   1.698   1.073   4.539
11001TIP3   OH232945   0.570   7.571   2.325
11001TIP3    H132946   0.574   7.654   2.277
11001TIP3    H232947   0.619   7.509   2.271
11002TIP3   OH232948   2.755   7.015   1.468
11002TIP3    H132949   2.662   7.038   1.465
11002TIP3    H232950   2.765   6.964   1.549
11003TIP3   OH232951   3.258   3.278   0.510
11003TIP3    H132952   3.302   3.354   0.549
11003TIP3    H232953   3.310   3.203   0.539
11004TIP3   OH232954   7.809   3.297   6.748
11004TIP3    H132955   7.725   3.327   6.782
11004TIP3    H232956   7.827   3.216   6.796
11005TIP3   OH232957   2.304   7.436   3.626
11005TIP3    H132958   2.309   7.432   3.721
11005TIP3    H232959   2.226   7.386   3.603
11006TIP3   OH232960   3.712   0.506   3.531
11006TIP3    H132961   3.650   0.528   3.461
11006TIP3    H232962   3.765   0.436   3.494
11007TIP3   OH232963   2.828   2.018   0.662
11007TIP3    H132964   2.857   2.085   0.724
11007TIP3    H232965   2.739   1.997   0.689
11008TIP3   OH232966   8.124   2.870   1.993
11008TIP3    H132967   8.162   2.910   2.071
11008TIP3    H232968   8.045   2.920   1.976
11009TIP3   OH232969   0.987   6.697   0.475
11009TIP3    H132970   0.899   6.666   0.455
11009TIP3    H232971   1.042   6.660   0.406
11010TIP3   OH232972   2.448   1.972   3.793
11010TIP3    H132973   2.434   2.065   3.811
11010TIP3    H232974   2.512   1.971   3.722
11011TIP3   OH232975   2.539   5.971   1.224
11011TIP3    H132976   2.532   5.927   1.309
11011TIP3    H232977   2.594   6.047   1.240
11012TIP3   OH232978   0.012   3.773   4.777
11012TIP3    H132979   0.084   3.793   4.718
11012TIP3    H232980  -0.029   3.858   4.795
11013TIP3   OH232981   4.886   0.616   1.527
11013TIP3    H132982   4.840   0.573   1.454
11013TIP3    H232983   4.852   0.573   1.605
11014TIP3   OH232984   7.971   6.462   4.656
11014TIP3    H132985   7.949   6.550   4.688
11014TIP3    H232986   8.064   6.451   4.678
11015TIP3   OH232987   2.300   3.734   2.715
11015TIP3    H132988   2.215   3.772   2.736
11015TIP3    H232989   2.308   3.745   2.620
11016TIP3   OH232990   7.618   2.679   4.448
11016TIP3    H132991   7.670   2.704   4.372
11016TIP3    H232992   7.547   2.743   4.451
11017TIP3   OH232993   8.197   0.113   5.974
11017TIP3    H132994   8.196   0.128   5.879
11017TIP3    H232995   8.224   0.021   5.983
11018TIP3   OH232996   4.860   1.562   6.174
11018TIP3    H132997   4.943   1.594   6.208
11018TIP3    H232998   4.856   1.471   6.203
11019TIP3   OH232999   6.051   4.234   4.412
11019TIP3    H133000   5.993   4.221   4.488
11019TIP3    H233001   6.085   4.322   4.423
11020TIP3   OH233002   4.628   4.925   2.985
11020TIP3    H133003   4.713   4.967   2.998
11020TIP3    H233004   4.569   4.996   2.962
11021TIP3   OH233005   1.078   0.846   5.551
11021TIP3    H133006   1.123   0.930   5.543
11021TIP3    H233007   1.071   0.813   5.462
11022TIP3   OH233008   4.556   1.463   2.536
11022TIP3    H133009   4.516   1.505   2.460
11022TIP3    H233010   4.487   1.461   2.602
11023TIP3   OH233011   6.344   2.412   3.958
11023TIP3    H133012   6.418   2.418   3.898
11023TIP3    H233013   6.301   2.330   3.936
11024TIP3   OH233014   3.917   7.691   1.948
11024TIP3    H133015   3.891   7.782   1.961
11024TIP3    H233016   4.006   7.696   1.912
11025TIP3   OH233017   5.092   0.658   2.673
11025TIP3    H133018   5.174   0.702   2.695
11025TIP3    H233019   5.041   0.726   2.629
11026TIP3   OH233020   6.805   1.832   5.870
11026TIP3    H133021   6.754   1.756   5.899
11026TIP3    H233022   6.883   1.830   5.925
11027TIP3   OH233023   4.176   5.983   1.099
11027TIP3    H133024   4.215   5.954   1.181
11027TIP3    H233025   4.217   6.067   1.081
11028TIP3   OH233026   5.340   7.757   2.298
11028TIP3    H133027   5.357   7.789   2.209
11028TIP3    H233028   5.372   7.667   2.297
11029TIP3   OH233029   8.132   3.549   4.611
11029TIP3    H133030   8.184   3.614   4.659
11029TIP3    H233031   8.047   3.550   4.655
11030TIP3   OH233032   2.258   0.698   4.308
11030TIP3    H133033   2.243   0.611   4.273
11030TIP3    H233034   2.353   0.708   4.309
11031TIP3   OH233035   6.895   5.407   6.219
11031TIP3    H133036   6.958   5.455   6.274
11031TIP3    H233037   6.844   5.355   6.282
11032TIP3   OH233038   5.217   3.551   3.690
11032TIP3    H133039   5.184   3.605   3.617
11032TIP3    H233040   5.260   3.478   3.648
11033TIP3   OH233041   3.188   1.476   5.396
11033TIP3    H133042   3.276   1.462   5.432
11033TIP3    H233043   3.154   1.387   5.381
11034TIP3   OH233044   2.273   0.813   1.029
11034TIP3    H133045   2.181   0.833   1.041
11034TIP3    H233046   2.318   0.896   1.046
11035TIP3   OH233047   4.732   4.329   5.374
11035TIP3    H133048   4.650   4.331   5.326
11035TIP3    H233049   4.713   4.373   5.457
11036TIP3   OH233050   7.536   6.899   5.504
11036TIP3    H133051   7.481   6.978   5.502
11036TIP3    H233052   7.594   6.912   5.579
11037TIP3   OH233053   3.101   3.745   5.356
11037TIP3    H133054   3.044   3.740   5.433
11037TIP3    H233055   3.162   3.672   5.367
11038TIP3   OH233056   6.421   4.554   0.430
11038TIP3    H133057   6.511   4.565   0.399
11038TIP3    H233058   6.381   4.640   0.420
11039TIP3   OH233059   3.756   3.022   1.252
11039TIP3    H133060   3.707   3.050   1.175
11039TIP3    H233061   3.826   3.086   1.261
11040TIP3   OH233062   0.602   3.667   4.986
11040TIP3    H133063   0.597   3.694   5.078
11040TIP3    H233064   0.640   3.580   4.989
11041TIP3   OH233065   0.537   1.672   3.356
11041TIP3    H133066   0.525   1.698   3.265
11041TIP3    H233067   0.631   1.665   3.368
11042TIP3   OH233068   1.017   0.029   3.808
11042TIP3    H133069   1.016   0.023   3.712
11042TIP3    H233070   0.991   0.119   3.827
11043TIP3   OH233071   8.327   5.617   4.498
11043TIP3    H133072   8.301   5.589   4.585
11043TIP3    H233073   8.270   5.692   4.478
11044TIP3   OH233074   6.079   3.957   5.496
11044TIP3    H133075   6.028   4.018   5.548
11044TIP3    H233076   6.074   3.874   5.543
11045TIP3   OH233077   6.180   5.870   3.967
11045TIP3    H133078   6.182   5.929   4.042
11045TIP3    H233079   6.146   5.924   3.895
11046TIP3   OH233080   0.215   5.172   1.695
11046TIP3    H133081   0.259   5.197   1.776
11046TIP3    H233082   0.161   5.247   1.673
11047TIP3   OH233083   7.577   5.550   6.741
11047TIP3    H133084   7.555   5.523   6.652
11047TIP3    H233085   7.664   5.512   6.757
11048TIP3   OH233086   4.651   2.751   1.694
11048TIP3    H133087   4.721   2.700   1.734
11048TIP3    H233088   4.611   2.798   1.767
11049TIP3   OH233089   2.329   0.348   5.630
11049TIP3    H133090   2.359   0.438   5.633
11049TIP3    H233091   2.410   0.296   5.634
11050TIP3   OH233092   4.956   4.024   0.826
11050TIP3    H133093   4.875   4.017   0.775
11050TIP3    H233094   4.949   3.956   0.892
11051TIP3   OH233095   2.091   7.231   5.373
11051TIP3    H133096   2.182   7.223   5.344
11051TIP3    H233097   2.070   7.324   5.362
11052TIP3   OH233098   4.571   5.145   5.058
11052TIP3    H133099   4.654   5.140   5.011
11052TIP3    H233100   4.506   5.160   4.990
11053TIP3   OH233101   7.293   4.373   1.366
11053TIP3    H133102   7.377   4.410   1.341
11053TIP3    H233103   7.235   4.449   1.375
11054TIP3   OH233104   4.066   0.393   5.913
11054TIP3    H133105   4.153   0.396   5.872
11054TIP3    H233106   4.024   0.475   5.885
11055TIP3   OH233107   4.407   7.765   5.391
11055TIP3    H133108   4.391   7.809   5.475
11055TIP3    H233109   4.468   7.694   5.413
11056TIP3   OH233110   3.329   5.803   2.196
11056TIP3    H133111   3.255   5.854   2.164
11056TIP3    H233112   3.323   5.720   2.149
11057TIP3   OH233113   6.826   7.177   1.338
11057TIP3    H133114   6.737   7.198   1.309
11057TIP3    H233115   6.824   7.192   1.432
11058TIP3   OH233116   8.248   4.562   5.379
11058TIP3    H133117   8.273   4.641   5.427
11058TIP3    H233118   8.327   4.507   5.382
11059TIP3   OH233119   5.317   0.313   2.604
11059TIP3    H133120   5.259   0.361   2.545
11059TIP3    H233121   5.384   0.376   2.628
11060TIP3   OH233122   7.775   0.355   2.097
11060TIP3    H133123   7.764   0.285   2.032
11060TIP3    H233124   7.747   0.315   2.180
11061TIP3   OH233125   0.748   3.569   4.039
11061TIP3    H133126   0.779   3.514   4.110
11061TIP3    H233127   0.826   3.617   4.010
11062TIP3   OH233128   6.256   6.154   0.946
11062TIP3    H133129   6.185   6.188   0.891
11062TIP3    H233130   6.301   6.091   0.891
11063TIP3   OH233131   3.173   5.866   4.066
11063TIP3    H133132   3.082   5.855   4.093
11063TIP3    H233133   3.220   5.887   4.147
11064TIP3   OH233134   1.315   4.751   3.343
11064TIP3    H133135   1.360   4.821   3.295
11064TIP3    H233136   1.356   4.670   3.311
11065TIP3   OH233137   4.328   0.030   2.998
11065TIP3    H133138   4.379   0.015   2.919
11065TIP3    H233139   4.391   0.019   3.070
11066TIP3   OH233140   6.808   5.039   3.498
11066TIP3    H133141   6.748   5.041   3.572
11066TIP3    H233142   6.764   5.090   3.430
11067TIP3   OH233143   4.237   6.378   5.944
11067TIP3    H133144   4.144   6.365   5.924
11067TIP3    H233145   4.273   6.420   5.866
11068TIP3   OH233146   4.260   1.467   3.672
11068TIP3    H133147   4.353   1.473   3.650
11068TIP3    H233148   4.238   1.375   3.656
11069TIP3   OH233149   3.099   3.884   1.023
11069TIP3    H133150   3.168   3.932   1.069
11069TIP3    H233151   3.018   3.910   1.068
11070TIP3   OH233152   7.136   4.639   3.071
11070TIP3    H133153   7.059   4.646   3.127
11070TIP3    H233154   7.152   4.545   3.061
11071TIP3   OH233155   2.781   6.300   3.194
11071TIP3    H133156   2.869   6.326   3.222
11071TIP3    H233157   2.766   6.215   3.237
11072TIP3   OH233158   5.605   1.402   6.138
11072TIP3    H133159   5.598   1.392   6.044
11072TIP3    H233160   5.688   1.448   6.152
11073TIP3   OH233161   3.039   1.218   2.557
11073TIP3    H133162   3.057   1.164   2.634
11073TIP3    H233163   2.996   1.159   2.496
11074TIP3   OH233164   0.662   2.051   1.885
11074TIP3    H133165   0.625   1.998   1.814
11074TIP3    H233166   0.694   2.130   1.841
11075TIP3   OH233167   1.017   7.700   0.229
11075TIP3    H133168   1.018   7.677   0.322
11075TIP3    H233169   1.045   7.791   0.227
11076TIP3   OH233170   6.084   3.258   3.274
11076TIP3    H133171   5.989   3.246   3.268
11076TIP3    H233172   6.120   3.174   3.244
11077TIP3   OH233173   2.125   1.658   4.701
11077TIP3    H133174   2.197   1.712   4.732
11077TIP3    H233175   2.166   1.579   4.666
11078TIP3   OH233176   6.556   7.382   6.335
11078TIP3    H133177   6.486   7.323   6.310
11078TIP3    H233178   6.516   7.442   6.398
11079TIP3   OH233179   2.955   4.916   0.422
11079TIP3    H133180   2.946   4.824   0.449
11079TIP3    H233181   2.907   4.965   0.488
11080TIP3   OH233182   2.258   2.899   2.995
11080TIP3    H133183   2.323   2.857   2.939
11080TIP3    H233184   2.272   2.993   2.982
11081TIP3   OH233185   1.342   3.450   5.279
11081TIP3    H133186   1.277   3.447   5.350
11081TIP3    H233187   1.424   3.424   5.321
11082TIP3   OH233188   6.560   3.999   5.993
11082TIP3    H133189   6.499   3.928   6.011
11082TIP3    H233190   6.646   3.957   5.998
11083TIP3   OH233191   3.538   1.974   0.115
11083TIP3    H133192   3.553   1.883   0.139
11083TIP3    H233193   3.626   2.009   0.098
11084TIP3   OH233194   3.916   2.433   4.948
11084TIP3    H133195   3.955   2.520   4.943
11084TIP3    H233196   3.953   2.395   5.028
11085TIP3   OH233197   3.344   5.482   5.824
11085TIP3    H133198   3.408   5.520   5.884
11085TIP3    H233199   3.358   5.388   5.831
11086TIP3   OH233200   3.834   3.732   3.421
11086TIP3    H133201   3.739   3.721   3.414
11086TIP3    H233202   3.866   3.721   3.331
11087TIP3   OH233203   2.224   1.728   2.777
11087TIP3    H133204   2.238   1.714   2.870
11087TIP3    H233205   2.276   1.660   2.733
11088TIP3   OH233206   7.368   5.076   3.105
11088TIP3    H133207   7.359   5.117   3.019
11088TIP3    H233208   7.430   5.132   3.152
11089TIP3   OH233209   1.538   3.285   4.168
11089TIP3    H133210   1.490   3.367   4.165
11089TIP3    H233211   1.619   3.307   4.215
11090TIP3   OH233212   7.058   3.536   6.636
11090TIP3    H133213   7.136   3.509   6.684
11090TIP3    H233214   7.058   3.481   6.557
11091TIP3   OH233215   0.448   5.229   0.718
11091TIP3    H133216   0.468   5.170   0.644
11091TIP3    H233217   0.399   5.174   0.779
11092TIP3   OH233218   4.974   6.393   0.084
11092TIP3    H133219   4.911   6.464   0.094
11092TIP3    H233220   5.003   6.374   0.174
11093TIP3   OH233221   5.987   6.095   3.043
11093TIP3    H133222   5.927   6.025   3.020
11093TIP3    H233223   6.053   6.053   3.099
11094TIP3   OH233224   4.931   0.708   6.647
11094TIP3    H133225   4.893   0.690   6.733
11094TIP3    H233226   5.002   0.644   6.638
11095TIP3   OH233227   6.554   1.303   6.735
11095TIP3    H133228   6.526   1.302   6.644
11095TIP3    H233229   6.590   1.391   6.749
11096TIP3   OH233230   3.839   2.127   0.071
11096TIP3    H133231   3.925   2.129   0.028
11096TIP3    H233232   3.858   2.142   0.163
11097TIP3   OH233233   6.989   2.121   3.691
11097TIP3    H133234   7.076   2.101   3.659
11097TIP3    H233235   7.002   2.153   3.780
11098TIP3   OH233236   8.256   5.288   2.753
11098TIP3    H133237   8.238   5.374   2.716
11098TIP3    H233238   8.170   5.246   2.758
11099TIP3   OH233239   7.215   4.178   3.703
11099TIP3    H133240   7.309   4.194   3.700
11099TIP3    H233241   7.208   4.088   3.737
11100TIP3   OH233242   4.361   3.951   3.321
11100TIP3    H133243   4.386   4.026   3.267
11100TIP3    H233244   4.439   3.933   3.374
11101TIP3   OH233245   2.720   1.413   3.539
11101TIP3    H133246   2.777   1.467   3.594
11101TIP3    H233247   2.779   1.354   3.493
11102TIP3   OH233248   5.422   3.657   1.459
11102TIP3    H133249   5.434   3.752   1.464
11102TIP3    H233250   5.444   3.635   1.368
11103TIP3   OH233251   7.212   5.013   6.359
11103TIP3    H133252   7.188   4.944   6.297
11103TIP3    H233253   7.305   5.002   6.373
11104TIP3   OH233254   4.898   0.682   1.062
11104TIP3    H133255   4.810   0.712   1.084
11104TIP3    H233256   4.909   0.602   1.114
11105TIP3   OH233257   4.744   3.116   2.617
11105TIP3    H133258   4.758   3.054   2.545
11105TIP3    H233259   4.815   3.096   2.679
11106TIP3   OH233260   2.283   1.191   3.454
11106TIP3    H133261   2.343   1.265   3.456
11106TIP3    H233262   2.314   1.137   3.381
11107TIP3   OH233263   0.967   1.047   5.235
11107TIP3    H133264   0.941   1.031   5.325
11107TIP3    H233265   0.886   1.070   5.190
11108TIP3   OH233266   7.933   7.153   1.383
11108TIP3    H133267   8.004   7.118   1.437
11108TIP3    H233268   7.914   7.083   1.320
11109TIP3   OH233269   3.306   4.641   2.497
11109TIP3    H133270   3.280   4.620   2.407
11109TIP3    H233271   3.361   4.718   2.489
11110TIP3   OH233272   3.510   5.139   4.780
11110TIP3    H133273   3.570   5.077   4.822
11110TIP3    H233274   3.498   5.105   4.691
11111TIP3   OH233275   7.842   7.679   1.176
11111TIP3    H133276   7.916   7.633   1.134
11111TIP3    H233277   7.871   7.770   1.182
11112TIP3   OH233278   1.756   5.195   2.608
11112TIP3    H133279   1.733   5.239   2.526
11112TIP3    H233280   1.754   5.101   2.586
11113TIP3   OH233281   3.349   7.435   2.863
11113TIP3    H133282   3.308   7.518   2.889
11113TIP3    H233283   3.416   7.419   2.929
11114TIP3   OH233284   4.797   2.041   2.646
11114TIP3    H133285   4.799   1.968   2.584
11114TIP3    H233286   4.743   2.010   2.719
11115TIP3   OH233287   7.904   4.973   5.827
11115TIP3    H133288   7.898   4.889   5.782
11115TIP3    H233289   7.822   5.018   5.806
11116TIP3   OH233290   5.461   1.690   4.745
11116TIP3    H133291   5.554   1.671   4.761
11116TIP3    H233292   5.440   1.644   4.664
11117TIP3   OH233293   4.760   7.678   6.651
11117TIP3    H133294   4.677   7.714   6.619
11117TIP3    H233295   4.821   7.690   6.578
11118TIP3   OH233296   3.487   3.036   1.727
11118TIP3    H133297   3.460   3.062   1.639
11118TIP3    H233298   3.532   3.113   1.762
11119TIP3   OH233299   8.272   5.869   4.827
11119TIP3    H133300   8.366   5.852   4.832
11119TIP3    H233301   8.232   5.792   4.868
11120TIP3   OH233302   5.055   7.170   3.346
11120TIP3    H133303   5.006   7.228   3.404
11120TIP3    H233304   5.024   7.191   3.258
11121TIP3   OH233305   8.085   6.036   2.601
11121TIP3    H133306   8.107   6.120   2.560
11121TIP3    H233307   8.096   6.051   2.694
11122TIP3   OH233308   8.077   7.102   3.426
11122TIP3    H133309   8.022   7.044   3.373
11122TIP3    H233310   8.104   7.047   3.500
11123TIP3   OH233311   4.450   1.506   3.160
11123TIP3    H133312   4.530   1.504   3.107
11123TIP3    H233313   4.479   1.537   3.246
11124TIP3   OH233314   4.917   2.549   1.331
11124TIP3    H133315   4.999   2.521   1.290
11124TIP3    H233316   4.940   2.629   1.377
11125TIP3   OH233317   4.983   3.116   0.763
11125TIP3    H133318   4.967   3.203   0.800
11125TIP3    H233319   5.024   3.134   0.678
11126TIP3   OH233320   5.873   4.454   5.292
11126TIP3    H133321   5.892   4.365   5.323
11126TIP3    H233322   5.905   4.454   5.202
11127TIP3   OH233323   2.098   0.365   2.125
11127TIP3    H133324   2.034   0.389   2.192
11127TIP3    H233325   2.047   0.356   2.045
11128TIP3   OH233326   1.094   5.261   6.237
11128TIP3    H133327   1.099   5.217   6.152
11128TIP3    H233328   1.124   5.350   6.219
11129TIP3   OH233329   5.412   0.455   3.030
11129TIP3    H133330   5.451   0.401   2.961
11129TIP3    H233331   5.318   0.453   3.012
11130TIP3   OH233332   2.298   1.516   2.362
11130TIP3    H133333   2.230   1.572   2.324
11130TIP3    H233334   2.380   1.554   2.332
11131TIP3   OH233335   1.074   4.597   4.707
11131TIP3    H133336   1.146   4.657   4.725
11131TIP3    H233337   1.015   4.646   4.650
11132TIP3   OH233338   1.316   1.489   3.560
11132TIP3    H133339   1.362   1.405   3.565
11132TIP3    H233340   1.343   1.535   3.640
11133TIP3   OH233341   4.895   6.959   2.203
11133TIP3    H133342   4.905   7.041   2.155
11133TIP3    H233343   4.808   6.963   2.241
11134TIP3   OH233344   4.266   2.518   0.178
11134TIP3    H133345   4.200   2.461   0.138
11134TIP3    H233346   4.337   2.458   0.202
11135TIP3   OH233347   4.284   5.470   3.455
11135TIP3    H133348   4.266   5.378   3.471
11135TIP3    H233349   4.379   5.478   3.458
11136TIP3   OH233350   3.561   4.805   2.216
11136TIP3    H133351   3.580   4.856   2.137
11136TIP3    H233352   3.647   4.784   2.251
11137TIP3   OH233353   0.781   4.325   3.338
11137TIP3    H133354   0.848   4.292   3.278
11137TIP3    H233355   0.819   4.406   3.374
11138TIP3   OH233356   4.848   3.384   3.198
11138TIP3    H133357   4.862   3.300   3.155
11138TIP3    H233358   4.897   3.379   3.280
11139TIP3   OH233359   6.486   7.130   1.118
11139TIP3    H133360   6.478   7.131   1.213
11139TIP3    H233361   6.558   7.068   1.101
11140TIP3   OH233362   7.813   0.963   2.025
11140TIP3    H133363   7.851   0.899   2.085
11140TIP3    H233364   7.872   0.964   1.950
11141TIP3   OH233365   1.670   4.636   3.910
11141TIP3    H133366   1.692   4.600   3.824
11141TIP3    H233367   1.748   4.621   3.963
11142TIP3   OH233368   3.956   4.458   6.486
11142TIP3    H133369   3.989   4.370   6.505
11142TIP3    H233370   4.005   4.486   6.409
11143TIP3   OH233371   2.815   6.622   6.797
11143TIP3    H133372   2.801   6.575   6.715
11143TIP3    H233373   2.806   6.715   6.773
11144TIP3   OH233374   7.006   5.915   2.058
11144TIP3    H133375   7.015   5.975   2.132
11144TIP3    H233376   7.096   5.887   2.038
11145TIP3   OH233377   4.501   2.559   3.150
11145TIP3    H133378   4.450   2.618   3.095
11145TIP3    H233379   4.533   2.615   3.221
11146TIP3   OH233380   2.861   4.735   0.680
11146TIP3    H133381   2.774   4.770   0.665
11146TIP3    H233382   2.852   4.680   0.758
11147TIP3   OH233383   4.514   5.258   4.633
11147TIP3    H133384   4.564   5.340   4.630
11147TIP3    H233385   4.440   5.274   4.574
11148TIP3   OH233386   1.456   3.227   0.534
11148TIP3    H133387   1.397   3.270   0.473
11148TIP3    H233388   1.538   3.275   0.527
11149TIP3   OH233389   0.339   2.613   5.312
11149TIP3    H133390   0.400   2.629   5.240
11149TIP3    H233391   0.266   2.672   5.295
11150TIP3   OH233392   6.026   1.862   0.530
11150TIP3    H133393   6.071   1.882   0.612
11150TIP3    H233394   5.952   1.922   0.528
11151TIP3   OH233395   6.739   7.685   0.752
11151TIP3    H133396   6.755   7.600   0.793
11151TIP3    H233397   6.692   7.735   0.820
11152TIP3   OH233398   7.679   2.396   5.766
11152TIP3    H133399   7.593   2.428   5.793
11152TIP3    H233400   7.671   2.380   5.672
11153TIP3   OH233401   0.605   1.182   2.706
11153TIP3    H133402   0.527   1.188   2.650
11153TIP3    H233403   0.574   1.139   2.786
11154TIP3   OH233404   7.837   5.380   5.194
11154TIP3    H133405   7.903   5.361   5.260
11154TIP3    H233406   7.758   5.401   5.244
11155TIP3   OH233407   7.371   1.557   3.487
11155TIP3    H133408   7.360   1.512   3.403
11155TIP3    H233409   7.282   1.564   3.522
11156TIP3   OH233410   5.973   7.806   4.291
11156TIP3    H133411   5.883   7.774   4.292
11156TIP3    H233412   6.012   7.768   4.371
11157TIP3   OH233413   2.605   0.327   1.249
11157TIP3    H133414   2.534   0.384   1.218
11157TIP3    H233415   2.560   0.252   1.287
11158TIP3   OH233416   6.454   0.550   5.622
11158TIP3    H133417   6.451   0.457   5.603
11158TIP3    H233418   6.531   0.582   5.575
11159TIP3   OH233419   3.559   6.488   4.212
11159TIP3    H133420   3.607   6.437   4.278
11159TIP3    H233421   3.620   6.557   4.187
11160TIP3   OH233422   0.624   2.202   1.137
11160TIP3    H133423   0.681   2.169   1.068
11160TIP3    H233424   0.663   2.285   1.163
11161TIP3   OH233425   3.925   7.726   0.697
11161TIP3    H133426   3.853   7.779   0.732
11161TIP3    H233427   3.889   7.637   0.690
11162TIP3   OH233428   6.742   4.783   1.604
11162TIP3    H133429   6.737   4.859   1.545
11162TIP3    H233430   6.755   4.822   1.691
11163TIP3   OH233431   5.033   0.186   2.745
11163TIP3    H133432   5.106   0.125   2.755
11163TIP3    H233433   5.075   0.272   2.738
11164TIP3   OH233434   2.145   6.959   2.942
11164TIP3    H133435   2.054   6.955   2.972
11164TIP3    H233436   2.172   6.867   2.936
11165TIP3   OH233437   0.025   2.085   6.467
11165TIP3    H133438   0.069   2.170   6.464
11165TIP3    H233439  -0.067   2.105   6.451
11166TIP3   OH233440   1.180   7.343   5.558
11166TIP3    H133441   1.212   7.294   5.634
11166TIP3    H233442   1.142   7.423   5.596
11167TIP3   OH233443   3.664   4.512   2.422
11167TIP3    H133444   3.747   4.479   2.459
11167TIP3    H233445   3.597   4.473   2.478
11168TIP3   OH233446   2.162   4.176   0.643
11168TIP3    H133447   2.204   4.094   0.621
11168TIP3    H233448   2.226   4.223   0.695
11169TIP3   OH233449   5.315   0.927   6.567
11169TIP3    H133450   5.277   0.972   6.491
11169TIP3    H233451   5.408   0.919   6.545
11170TIP3   OH233452   0.270   6.185   2.880
11170TIP3    H133453   0.233   6.117   2.936
11170TIP3    H233454   0.362   6.158   2.868
11171TIP3   OH233455   5.564   2.912   0.465
11171TIP3    H133456   5.594   2.850   0.398
11171TIP3    H233457   5.489   2.955   0.426
11172TIP3   OH233458   7.757   4.348   2.900
11172TIP3    H133459   7.796   4.291   2.833
11172TIP3    H233460   7.678   4.302   2.927
11173TIP3   OH233461   2.562   5.080   3.669
11173TIP3    H133462   2.494   5.115   3.612
11173TIP3    H233463   2.616   5.026   3.613
11174TIP3   OH233464   4.283   6.224   4.847
11174TIP3    H133465   4.204   6.234   4.900
11174TIP3    H233466   4.354   6.251   4.905
11175TIP3   OH233467   3.404   4.321   6.681
11175TIP3    H133468   3.470   4.381   6.716
11175TIP3    H233469   3.337   4.378   6.644
11176TIP3   OH233470   6.036   3.053   5.947
11176TIP3    H133471   6.011   3.141   5.977
11176TIP3    H233472   5.963   3.026   5.891
11177TIP3   OH233473   3.009   4.743   1.931
11177TIP3    H133474   2.965   4.826   1.912
11177TIP3    H233475   2.959   4.677   1.883
11178TIP3   OH233476   6.104   5.748   3.641
11178TIP3    H133477   6.165   5.780   3.574
11178TIP3    H233478   6.019   5.748   3.597
11179TIP3   OH233479   7.853   5.670   3.927
11179TIP3    H133480   7.801   5.739   3.967
11179TIP3    H233481   7.896   5.625   4.000
11180TIP3   OH233482   8.200   2.980   2.493
11180TIP3    H133483   8.207   2.946   2.404
11180TIP3    H233484   8.109   3.008   2.501
11181TIP3   OH233485   1.549   0.711   4.659
11181TIP3    H133486   1.538   0.678   4.570
11181TIP3    H233487   1.461   0.709   4.697
11182TIP3   OH233488   5.291   5.223   6.352
11182TIP3    H133489   5.298   5.192   6.442
11182TIP3    H233490   5.363   5.181   6.305
11183TIP3   OH233491   2.618   2.712   6.013
11183TIP3    H133492   2.576   2.741   6.094
11183TIP3    H233493   2.608   2.617   6.013
11184TIP3   OH233494   5.820   0.821   0.917
11184TIP3    H133495   5.852   0.772   0.842
11184TIP3    H233496   5.726   0.831   0.900
11185TIP3   OH233497   6.371   0.416   0.777
11185TIP3    H133498   6.441   0.371   0.731
11185TIP3    H233499   6.329   0.472   0.711
11186TIP3   OH233500   3.976   5.511   4.326
11186TIP3    H133501   3.948   5.512   4.417
11186TIP3    H233502   4.023   5.594   4.315
11187TIP3   OH233503   1.884   2.433   2.373
11187TIP3    H133504   1.973   2.417   2.342
11187TIP3    H233505   1.877   2.528   2.378
11188TIP3   OH233506   3.313   4.094   4.726
11188TIP3    H133507   3.268   4.075   4.809
11188TIP3    H233508   3.405   4.107   4.751
11189TIP3   OH233509   2.781   3.461   0.495
11189TIP3    H133510   2.693   3.429   0.474
11189TIP3    H233511   2.803   3.416   0.577
11190TIP3   OH233512   7.450   1.810   6.703
11190TIP3    H133513   7.496   1.726   6.699
11190TIP3    H233514   7.483   1.851   6.783
11191TIP3   OH233515   5.203   4.793   1.103
11191TIP3    H133516   5.298   4.788   1.091
11191TIP3    H233517   5.187   4.747   1.186
11192TIP3   OH233518   0.854   3.304   5.405
11192TIP3    H133519   0.890   3.352   5.331
11192TIP3    H233520   0.769   3.272   5.375
11193TIP3   OH233521   3.189   7.085   2.523
11193TIP3    H133522   3.238   7.138   2.586
11193TIP3    H233523   3.105   7.069   2.565
11194TIP3   OH233524   7.326   2.591   2.608
11194TIP3    H133525   7.232   2.606   2.602
11194TIP3    H233526   7.335   2.495   2.604
11195TIP3   OH233527   0.748   7.272   1.610
11195TIP3    H133528   0.711   7.328   1.678
11195TIP3    H233529   0.697   7.293   1.531
11196TIP3   OH233530   0.560   3.868   4.819
11196TIP3    H133531   0.589   3.799   4.879
11196TIP3    H233532   0.641   3.897   4.776
11197TIP3   OH233533   7.448   2.817   3.223
11197TIP3    H133534   7.483   2.808   3.135
11197TIP3    H233535   7.478   2.739   3.269
11198TIP3   OH233536   5.907   4.544   1.082
11198TIP3    H133537   5.992   4.517   1.119
11198TIP3    H233538   5.874   4.466   1.039
11199TIP3   OH233539   5.422   7.827   5.005
11199TIP3    H133540   5.354   7.788   5.061
11199TIP3    H233541   5.499   7.829   5.062
11200TIP3   OH233542   7.324   1.496   1.318
11200TIP3    H133543   7.303   1.453   1.234
11200TIP3    H233544   7.250   1.553   1.335
11201TIP3   OH233545   6.184   1.020   0.659
11201TIP3    H133546   6.208   1.069   0.580
11201TIP3    H233547   6.260   0.965   0.677
11202TIP3   OH233548   3.864   7.334   5.593
11202TIP3    H133549   3.958   7.336   5.579
11202TIP3    H233550   3.840   7.426   5.606
11203TIP3   OH233551   3.970   4.173   1.990
11203TIP3    H133552   3.950   4.195   2.080
11203TIP3    H233553   4.037   4.104   1.996
11204TIP3   OH233554   3.666   0.375   4.467
11204TIP3    H133555   3.724   0.451   4.472
11204TIP3    H233556   3.717   0.309   4.421
11205TIP3   OH233557   7.225   5.524   5.864
11205TIP3    H133558   7.303   5.546   5.915
11205TIP3    H233559   7.152   5.555   5.917
11206TIP3   OH233560   2.070   0.052   3.875
11206TIP3    H133561   2.051   0.136   3.916
11206TIP3    H233562   1.996  -0.004   3.899
11207TIP3   OH233563   1.685   5.313   5.584
11207TIP3    H133564   1.717   5.329   5.494
11207TIP3    H233565   1.753   5.351   5.640
11208TIP3   OH233566   6.647   2.974   1.516
11208TIP3    H133567   6.648   2.897   1.459
11208TIP3    H233568   6.694   3.041   1.467
11209TIP3   OH233569   2.813   3.712   2.338
11209TIP3    H133570   2.811   3.669   2.252
11209TIP3    H233571   2.905   3.709   2.364
11210TIP3   OH233572   2.682   2.400   1.978
11210TIP3    H133573   2.724   2.366   2.057
11210TIP3    H233574   2.739   2.471   1.949
11211TIP3   OH233575   1.202   3.267   1.769
11211TIP3    H133576   1.141   3.258   1.696
11211TIP3    H233577   1.265   3.332   1.739
11212TIP3   OH233578   2.689   2.695   5.399
11212TIP3    H133579   2.775   2.715   5.362
11212TIP3    H233580   2.679   2.757   5.472
11213TIP3   OH233581   2.504   6.839   4.147
11213TIP3    H133582   2.515   6.778   4.220
11213TIP3    H233583   2.424   6.887   4.167
11214TIP3   OH233584   6.254   4.961   5.153
11214TIP3    H133585   6.195   5.011   5.210
11214TIP3    H233586   6.335   4.954   5.203
11215TIP3   OH233587   5.915   7.201   1.495
11215TIP3    H133588   5.965   7.175   1.418
11215TIP3    H233589   5.912   7.122   1.550
11216TIP3   OH233590   2.978   7.181   1.417
11216TIP3    H133591   3.035   7.113   1.454
11216TIP3    H233592   2.893   7.138   1.406
11217TIP3   OH233593   4.834   5.703   2.380
11217TIP3    H133594   4.790   5.773   2.428
11217TIP3    H233595   4.868   5.745   2.301
11218TIP3   OH233596   1.593   2.919   2.016
11218TIP3    H133597   1.644   2.954   1.943
11218TIP3    H233598   1.544   2.994   2.049
11219TIP3   OH233599   3.425   7.565   4.924
11219TIP3    H133600   3.385   7.509   4.991
11219TIP3    H233601   3.355   7.623   4.896
11220TIP3   OH233602   4.745   4.101   5.531
11220TIP3    H133603   4.718   4.189   5.504
11220TIP3    H233604   4.814   4.078   5.469
11221TIP3   OH233605   1.272   0.363   0.565
11221TIP3    H133606   1.247   0.383   0.656
11221TIP3    H233607   1.208   0.296   0.538
11222TIP3   OH233608   1.841   2.661   4.764
11222TIP3    H133609   1.925   2.691   4.730
11222TIP3    H233610   1.860   2.633   4.854
11223TIP3   OH233611   0.964   0.883   6.762
11223TIP3    H133612   1.053   0.910   6.786
11223TIP3    H233613   0.958   0.793   6.793
11224TIP3   OH233614   1.696   6.040   2.210
11224TIP3    H133615   1.701   6.032   2.114
11224TIP3    H233616   1.668   6.130   2.226
11225TIP3   OH233617   7.657   6.366   1.227
11225TIP3    H133618   7.577   6.419   1.228
11225TIP3    H233619   7.694   6.376   1.314
11226TIP3   OH233620   0.964   7.277   2.768
11226TIP3    H133621   1.002   7.196   2.799
11226TIP3    H233622   0.995   7.344   2.829
11227TIP3   OH233623   3.020   5.575   4.188
11227TIP3    H133624   3.017   5.524   4.269
11227TIP3    H233625   2.946   5.636   4.196
11228TIP3   OH233626   0.321   0.123   6.259
11228TIP3    H133627   0.359   0.086   6.179
11228TIP3    H233628   0.246   0.173   6.227
11229TIP3   OH233629   2.840   7.518   5.226
11229TIP3    H133630   2.770   7.575   5.193
11229TIP3    H233631   2.869   7.469   5.149
11230TIP3   OH233632   6.734   5.344   2.859
11230TIP3    H133633   6.703   5.290   2.786
11230TIP3    H233634   6.687   5.310   2.935
11231TIP3   OH233635   6.643   6.514   1.226
11231TIP3    H133636   6.614   6.566   1.301
11231TIP3    H233637   6.581   6.441   1.222
11232TIP3   OH233638   6.308   2.912   1.382
11232TIP3    H133639   6.305   2.853   1.306
11232TIP3    H233640   6.356   2.989   1.351
11233TIP3   OH233641   0.887   0.957   4.974
11233TIP3    H133642   0.976   0.940   4.942
11233TIP3    H233643   0.894   1.041   5.019
11234TIP3   OH233644   7.571   6.750   0.833
11234TIP3    H133645   7.577   6.656   0.818
11234TIP3    H233646   7.659   6.775   0.862
11235TIP3   OH233647   2.648   7.230   3.619
11235TIP3    H133648   2.639   7.322   3.592
11235TIP3    H233649   2.742   7.217   3.628
11236TIP3   OH233650   3.009   4.158   3.673
11236TIP3    H133651   2.934   4.109   3.640
11236TIP3    H233652   2.984   4.250   3.662
11237TIP3   OH233653   3.666   7.586   6.517
11237TIP3    H133654   3.635   7.507   6.473
11237TIP3    H233655   3.638   7.575   6.608
11238TIP3   OH233656   7.241   1.553   2.430
11238TIP3    H133657   7.180   1.593   2.492
11238TIP3    H233658   7.271   1.473   2.474
11239TIP3   OH233659   3.410   4.735   3.154
11239TIP3    H133660   3.471   4.789   3.104
11239TIP3    H233661   3.429   4.645   3.126
11240TIP3   OH233662   5.499   3.966   1.916
11240TIP3    H133663   5.498   4.016   1.835
11240TIP3    H233664   5.407   3.958   1.941
11241TIP3   OH233665   4.092   2.533   1.494
11241TIP3    H133666   4.103   2.627   1.511
11241TIP3    H233667   4.134   2.490   1.569
11242TIP3   OH233668   4.709   6.145   6.310
11242TIP3    H133669   4.759   6.158   6.391
11242TIP3    H233670   4.705   6.232   6.270
11243TIP3   OH233671   0.635   4.062   5.862
11243TIP3    H133672   0.616   3.969   5.875
11243TIP3    H233673   0.613   4.103   5.945
11244TIP3   OH233674   1.539   0.817   0.863
11244TIP3    H133675   1.597   0.768   0.804
11244TIP3    H233676   1.553   0.909   0.838
11245TIP3   OH233677   4.681   5.718   4.710
11245TIP3    H133678   4.774   5.734   4.690
11245TIP3    H233679   4.636   5.794   4.673
11246TIP3   OH233680   5.676   4.459   3.263
11246TIP3    H133681   5.753   4.405   3.276
11246TIP3    H233682   5.710   4.542   3.229
11247TIP3   OH233683   2.747   7.537   1.476
11247TIP3    H133684   2.781   7.626   1.469
11247TIP3    H233685   2.757   7.514   1.568
11248TIP3   OH233686   1.581   4.252   5.148
11248TIP3    H133687   1.588   4.175   5.091
11248TIP3    H233688   1.488   4.272   5.150
11249TIP3   OH233689   3.419   3.668   5.067
11249TIP3    H133690   3.477   3.689   5.139
11249TIP3    H233691   3.464   3.701   4.989
11250TIP3   OH233692   3.897   6.689   3.637
11250TIP3    H133693   3.862   6.637   3.710
11250TIP3    H233694   3.826   6.749   3.614
11251TIP3   OH233695   5.567   7.238   6.056
11251TIP3    H133696   5.603   7.310   6.003
11251TIP3    H233697   5.623   7.236   6.134
11252TIP3   OH233698   7.419   7.151   5.228
11252TIP3    H133699   7.382   7.066   5.251
11252TIP3    H233700   7.386   7.169   5.140
11253TIP3   OH233701   4.195   3.343   0.983
11253TIP3    H133702   4.155   3.415   0.935
11253TIP3    H233703   4.143   3.267   0.959
11254TIP3   OH233704   2.169   3.008   1.520
11254TIP3    H133705   2.084   2.971   1.497
11254TIP3    H233706   2.175   3.089   1.469
11255TIP3   OH233707   6.541   5.908   4.997
11255TIP3    H133708   6.455   5.874   4.970
11255TIP3    H233709   6.598   5.892   4.922
11256TIP3   OH233710   3.423   3.767   1.516
11256TIP3    H133711   3.394   3.734   1.430
11256TIP3    H233712   3.510   3.802   1.499
11257TIP3   OH233713   8.074   7.052   0.413
11257TIP3    H133714   8.134   6.979   0.427
11257TIP3    H233715   8.093   7.113   0.485
11258TIP3   OH233716   3.041   5.643   4.923
11258TIP3    H133717   2.949   5.667   4.914
11258TIP3    H233718   3.086   5.726   4.940
11259TIP3   OH233719   5.794   3.116   4.211
11259TIP3    H133720   5.777   3.050   4.144
11259TIP3    H233721   5.736   3.189   4.189
11260TIP3   OH233722   0.205   2.368   5.927
11260TIP3    H133723   0.149   2.443   5.910
11260TIP3    H233724   0.171   2.330   6.009
11261TIP3   OH233725   6.642   6.220   4.914
11261TIP3    H133726   6.656   6.192   5.004
11261TIP3    H233727   6.710   6.285   4.897
11262TIP3   OH233728   1.617   3.532   6.161
11262TIP3    H133729   1.620   3.462   6.096
11262TIP3    H233730   1.699   3.579   6.149
11263TIP3   OH233731   4.638   4.166   1.688
11263TIP3    H133732   4.559   4.190   1.736
11263TIP3    H233733   4.678   4.249   1.664
11264TIP3   OH233734   4.828   3.340   4.862
11264TIP3    H133735   4.906   3.395   4.857
11264TIP3    H233736   4.777   3.377   4.934
11265TIP3   OH233737   7.393   6.617   1.848
11265TIP3    H133738   7.358   6.687   1.902
11265TIP3    H233739   7.433   6.556   1.910
11266TIP3   OH233740   6.430   1.121   4.107
11266TIP3    H133741   6.379   1.200   4.123
11266TIP3    H233742   6.480   1.107   4.187
11267TIP3   OH233743  -0.012   5.496   5.056
11267TIP3    H133744   0.069   5.448   5.040
11267TIP3    H233745  -0.024   5.492   5.151
11268TIP3   OH233746   5.972   0.142   4.352
11268TIP3    H133747   6.066   0.156   4.368
11268TIP3    H233748   5.967   0.110   4.262
11269TIP3   OH233749   0.528   7.371   4.088
11269TIP3    H133750   0.447   7.401   4.046
11269TIP3    H233751   0.511   7.378   4.182
11270TIP3   OH233752   8.326   5.370   1.689
11270TIP3    H133753   8.272   5.366   1.610
11270TIP3    H233754   8.274   5.422   1.751
11271TIP3   OH233755   4.422   7.510   3.949
11271TIP3    H133756   4.411   7.422   3.983
11271TIP3    H233757   4.333   7.546   3.946
11272TIP3   OH233758   4.764   2.845   2.570
11272TIP3    H133759   4.693   2.854   2.633
11272TIP3    H233760   4.729   2.790   2.501
11273TIP3   OH233761   8.314   0.105   1.832
11273TIP3    H133762   8.363   0.110   1.914
11273TIP3    H233763   8.228   0.140   1.854
11274TIP3   OH233764   3.135   3.109   1.505
11274TIP3    H133765   3.075   3.151   1.444
11274TIP3    H233766   3.103   3.135   1.592
11275TIP3   OH233767   5.496   5.860   5.944
11275TIP3    H133768   5.531   5.948   5.957
11275TIP3    H233769   5.404   5.866   5.970
11276TIP3   OH233770   4.108   7.491   1.704
11276TIP3    H133771   4.016   7.512   1.687
11276TIP3    H233772   4.106   7.400   1.733
11277TIP3   OH233773   0.958   1.163   0.566
11277TIP3    H133774   0.972   1.216   0.645
11277TIP3    H233775   0.872   1.124   0.578
11278TIP3   OH233776   7.540   2.860   0.774
11278TIP3    H133777   7.548   2.927   0.706
11278TIP3    H233778   7.449   2.832   0.770
11279TIP3   OH233779   4.457   5.508   2.128
11279TIP3    H133780   4.373   5.533   2.166
11279TIP3    H233781   4.517   5.577   2.155
11280TIP3   OH233782   2.690   3.413   2.891
11280TIP3    H133783   2.763   3.375   2.841
11280TIP3    H233784   2.671   3.495   2.847
11281TIP3   OH233785   0.784   1.838   0.870
11281TIP3    H133786   0.855   1.783   0.904
11281TIP3    H233787   0.826   1.897   0.809
11282TIP3   OH233788   0.557   7.083   5.244
11282TIP3    H133789   0.636   7.082   5.191
11282TIP3    H233790   0.538   7.176   5.257
11283TIP3   OH233791   1.868   7.202   0.182
11283TIP3    H133792   1.849   7.113   0.214
11283TIP3    H233793   1.908   7.188   0.097
11284TIP3   OH233794   5.635   0.583   5.357
11284TIP3    H133795   5.725   0.613   5.349
11284TIP3    H233796   5.616   0.585   5.451
11285TIP3   OH233797   1.492   7.146   1.127
11285TIP3    H133798   1.474   7.160   1.034
11285TIP3    H233799   1.538   7.062   1.130
11286TIP3   OH233800   3.074   6.364   1.329
11286TIP3    H133801   3.028   6.280   1.325
11286TIP3    H233802   3.153   6.350   1.277
11287TIP3   OH233803   7.469   2.151   4.162
11287TIP3    H133804   7.475   2.084   4.094
11287TIP3    H233805   7.488   2.233   4.116
11288TIP3   OH233806   6.682   5.908   4.425
11288TIP3    H133807   6.632   5.839   4.469
11288TIP3    H233808   6.659   5.988   4.472
11289TIP3   OH233809   1.223   5.265   6.493
11289TIP3    H133810   1.151   5.288   6.552
11289TIP3    H233811   1.187   5.279   6.405
11290TIP3   OH233812   4.256   7.212   1.216
11290TIP3    H133813   4.269   7.297   1.174
11290TIP3    H233814   4.328   7.158   1.183
11291TIP3   OH233815   0.115   3.388   6.501
11291TIP3    H133816   0.210   3.399   6.495
11291TIP3    H233817   0.096   3.316   6.440
11292TIP3   OH233818   1.301   2.581   3.312
11292TIP3    H133819   1.366   2.572   3.382
11292TIP3    H233820   1.273   2.492   3.293
11293TIP3   OH233821   7.908   5.185   6.457
11293TIP3    H133822   7.961   5.193   6.536
11293TIP3    H233823   7.964   5.218   6.387
11294TIP3   OH233824   3.835   7.458   0.624
11294TIP3    H133825   3.819   7.444   0.718
11294TIP3    H233826   3.901   7.392   0.601
11295TIP3   OH233827   6.190   6.769   1.805
11295TIP3    H133828   6.274   6.738   1.771
11295TIP3    H233829   6.138   6.690   1.815
11296TIP3   OH233830   5.937   1.200   4.707
11296TIP3    H133831   5.929   1.237   4.795
11296TIP3    H233832   5.992   1.122   4.719
11297TIP3   OH233833   2.133   6.217   3.219
11297TIP3    H133834   2.095   6.242   3.135
11297TIP3    H233835   2.224   6.247   3.214
11298TIP3   OH233836   5.419   3.733   0.401
11298TIP3    H133837   5.477   3.725   0.325
11298TIP3    H233838   5.478   3.738   0.476
11299TIP3   OH233839   4.575   7.716   6.004
11299TIP3    H133840   4.606   7.684   6.089
11299TIP3    H233841   4.623   7.664   5.940
11300TIP3   OH233842   6.809   7.753   6.673
11300TIP3    H133843   6.863   7.746   6.594
11300TIP3    H233844   6.732   7.802   6.645
11301TIP3   OH233845   3.755   0.631   4.444
11301TIP3    H133846   3.828   0.625   4.383
11301TIP3    H233847   3.705   0.707   4.415
11302TIP3   OH233848   6.614   3.521   6.249
11302TIP3    H133849   6.590   3.530   6.341
11302TIP3    H233850   6.531   3.535   6.202
11303TIP3   OH233851   5.354   1.204   1.030
11303TIP3    H133852   5.341   1.261   1.106
11303TIP3    H233853   5.302   1.245   0.961
11304TIP3   OH233854   1.958   3.934   3.831
11304TIP3    H133855   1.976   3.866   3.896
11304TIP3    H233856   2.037   3.938   3.777
11305TIP3   OH233857   3.806   3.175   2.326
11305TIP3    H133858   3.771   3.262   2.307
11305TIP3    H233859   3.728   3.121   2.340
11306TIP3   OH233860   2.774   0.927   1.476
11306TIP3    H133861   2.732   0.878   1.406
11306TIP3    H233862   2.837   0.866   1.514
11307TIP3   OH233863   3.889   5.441   2.859
11307TIP3    H133864   3.907   5.420   2.767
11307TIP3    H233865   3.949   5.512   2.880
11308TIP3   OH233866   0.565   7.796   2.551
11308TIP3    H133867   0.548   7.806   2.645
11308TIP3    H233868   0.600   7.707   2.543
11309TIP3   OH233869   7.748   3.137   1.264
11309TIP3    H133870   7.781   3.119   1.353
11309TIP3    H233871   7.737   3.232   1.261
11310TIP3   OH233872   4.829   4.741   2.136
11310TIP3    H133873   4.831   4.820   2.082
11310TIP3    H233874   4.778   4.767   2.213
11311TIP3   OH233875   4.499   7.152   2.215
11311TIP3    H133876   4.504   7.171   2.309
11311TIP3    H233877   4.406   7.139   2.198
11312TIP3   OH233878   3.358   0.838   1.807
11312TIP3    H133879   3.265   0.823   1.795
11312TIP3    H233880   3.372   0.927   1.773
11313TIP3   OH233881   7.173   0.385   5.969
11313TIP3    H133882   7.106   0.349   5.912
11313TIP3    H233883   7.229   0.311   5.990
11314TIP3   OH233884   6.100   7.228   0.735
11314TIP3    H133885   6.040   7.288   0.778
11314TIP3    H233886   6.159   7.199   0.804
11315TIP3   OH233887   7.868   3.409   5.037
11315TIP3    H133888   7.802   3.426   4.970
11315TIP3    H233889   7.861   3.315   5.054
11316TIP3   OH233890   3.205   0.236   0.431
11316TIP3    H133891   3.125   0.260   0.385
11316TIP3    H233892   3.236   0.157   0.387
11317TIP3   OH233893   1.723   0.803   4.346
11317TIP3    H133894   1.780   0.747   4.294
11317TIP3    H233895   1.655   0.744   4.379
11318TIP3   OH233896   5.637   1.609   5.634
11318TIP3    H133897   5.549   1.571   5.637
11318TIP3    H233898   5.693   1.537   5.606
11319TIP3   OH233899   4.605   4.407   1.326
11319TIP3    H133900   4.548   4.442   1.258
11319TIP3    H233901   4.590   4.313   1.326
11320TIP3   OH233902   5.813   0.100   5.677
11320TIP3    H133903   5.793   0.061   5.592
11320TIP3    H233904   5.875   0.170   5.657
11321TIP3   OH233905   2.967   3.217   5.667
11321TIP3    H133906   3.018   3.224   5.748
11321TIP3    H233907   3.032   3.225   5.597
11322TIP3   OH233908   2.989   2.433   2.908
11322TIP3    H133909   2.902   2.430   2.867
11322TIP3    H233910   2.975   2.401   2.997
11323TIP3   OH233911   8.059   5.422   4.457
11323TIP3    H133912   8.152   5.432   4.477
11323TIP3    H233913   8.038   5.332   4.484
11324TIP3   OH233914   5.612   7.629   6.082
11324TIP3    H133915   5.655   7.547   6.060
11324TIP3    H233916   5.550   7.606   6.151
11325TIP3   OH233917   4.699   6.054   1.592
11325TIP3    H133918   4.621   6.024   1.545
11325TIP3    H233919   4.668   6.125   1.648
11326TIP3   OH233920   3.129   1.525   4.351
11326TIP3    H133921   3.042   1.499   4.382
11326TIP3    H233922   3.119   1.616   4.325
11327TIP3   OH233923   8.272   6.140   1.990
11327TIP3    H133924   8.299   6.094   2.069
11327TIP3    H233925   8.266   6.072   1.923
11328TIP3   OH233926   1.260   5.803   3.144
11328TIP3    H133927   1.302   5.724   3.112
11328TIP3    H233928   1.169   5.778   3.158
11329TIP3   OH233929   8.008   0.086   4.035
11329TIP3    H133930   8.046   0.174   4.033
11329TIP3    H233931   8.014   0.055   3.945
11330TIP3   OH233932   4.548   7.728   0.584
11330TIP3    H133933   4.595   7.663   0.531
11330TIP3    H233934   4.572   7.812   0.546
11331TIP3   OH233935   8.062   0.486   3.201
11331TIP3    H133936   7.978   0.522   3.228
11331TIP3    H233937   8.054   0.475   3.106
11332TIP3   OH233938   3.320   5.696   2.679
11332TIP3    H133939   3.292   5.742   2.600
11332TIP3    H233940   3.243   5.697   2.736
11333TIP3   OH233941   7.343   1.923   2.360
11333TIP3    H133942   7.393   1.847   2.331
11333TIP3    H233943   7.251   1.899   2.345
11334TIP3   OH233944   2.972   1.373   5.650
11334TIP3    H133945   2.952   1.467   5.641
11334TIP3    H233946   3.050   1.371   5.705
11335TIP3   OH233947   0.717   5.044   4.874
11335TIP3    H133948   0.694   4.955   4.899
11335TIP3    H233949   0.633   5.086   4.855
11336TIP3   OH233950   0.254   0.725   0.685
11336TIP3    H133951   0.241   0.727   0.780
11336TIP3    H233952   0.166   0.709   0.650
11337TIP3   OH233953   6.078   3.602   0.477
11337TIP3    H133954   6.126   3.621   0.558
11337TIP3    H233955   6.146   3.583   0.412
11338TIP3   OH233956   7.498   7.682   0.779
11338TIP3    H133957   7.584   7.681   0.736
11338TIP3    H233958   7.441   7.729   0.718
11339TIP3   OH233959   7.974   3.254   0.864
11339TIP3    H133960   7.901   3.274   0.806
11339TIP3    H233961   8.023   3.185   0.817
11340TIP3   OH233962   0.047   2.976   0.369
11340TIP3    H133963   0.114   2.907   0.373
11340TIP3    H233964   0.009   2.967   0.281
11341TIP3   OH233965   6.857   4.538   3.515
11341TIP3    H133966   6.842   4.598   3.588
11341TIP3    H233967   6.930   4.483   3.544
11342TIP3   OH233968   5.695   2.646   4.246
11342TIP3    H133969   5.761   2.694   4.296
11342TIP3    H233970   5.700   2.557   4.281
11343TIP3   OH233971   7.727   2.006   2.521
11343TIP3    H133972   7.738   1.912   2.533
11343TIP3    H233973   7.811   2.044   2.549
11344TIP3   OH233974   1.795   1.646   0.263
11344TIP3    H133975   1.741   1.723   0.244
11344TIP3    H233976   1.775   1.585   0.192
11345TIP3   OH233977   3.085   1.116   0.672
11345TIP3    H133978   3.149   1.148   0.736
11345TIP3    H233979   3.133   1.117   0.589
11346TIP3   OH233980   7.642   3.987   0.777
11346TIP3    H133981   7.561   3.937   0.781
11346TIP3    H233982   7.675   3.987   0.867
11347TIP3   OH233983   3.563   0.475   1.592
11347TIP3    H133984   3.613   0.556   1.586
11347TIP3    H233985   3.549   0.462   1.686
11348TIP3   OH233986   7.061   6.671   3.171
11348TIP3    H133987   6.995   6.608   3.203
11348TIP3    H233988   7.144   6.625   3.180
11349TIP3   OH233989   2.839   2.304   2.188
11349TIP3    H133990   2.839   2.311   2.284
11349TIP3    H233991   2.911   2.245   2.168
11350TIP3   OH233992   0.056   4.706   6.492
11350TIP3    H133993  -0.020   4.686   6.438
11350TIP3    H233994   0.083   4.794   6.464
11351TIP3   OH233995   6.480   6.872   5.638
11351TIP3    H133996   6.519   6.797   5.592
11351TIP3    H233997   6.498   6.855   5.730
11352TIP3   OH233998   4.866   4.901   6.578
11352TIP3    H133999   4.939   4.863   6.626
11352TIP3    H234000   4.907   4.964   6.519
11353TIP3   OH234001   2.687   2.444   5.550
11353TIP3    H134002   2.753   2.393   5.502
11353TIP3    H234003   2.676   2.523   5.497
11354TIP3   OH234004   0.020   6.666   3.040
11354TIP3    H134005  -0.050   6.670   2.975
11354TIP3    H234006   0.049   6.575   3.037
11355TIP3   OH234007   4.400   6.158   2.202
11355TIP3    H134008   4.318   6.175   2.156
11355TIP3    H234009   4.433   6.245   2.225
11356TIP3   OH234010   8.048   0.228   0.657
11356TIP3    H134011   8.037   0.134   0.645
11356TIP3    H234012   7.988   0.251   0.727
11357TIP3   OH234013   0.147   1.619   5.300
11357TIP3    H134014   0.131   1.661   5.215
11357TIP3    H234015   0.060   1.592   5.330
11358TIP3   OH234016   3.463   2.196   6.563
11358TIP3    H134017   3.434   2.287   6.550
11358TIP3    H234018   3.410   2.164   6.636
11359TIP3   OH234019   1.949   1.692   6.213
11359TIP3    H134020   1.898   1.683   6.132
11359TIP3    H234021   1.889   1.734   6.274
11360TIP3   OH234022   0.435   6.806   1.307
11360TIP3    H134023   0.463   6.802   1.398
11360TIP3    H234024   0.359   6.864   1.308
11361TIP3   OH234025   0.935   5.034   0.149
11361TIP3    H134026   0.964   5.102   0.089
11361TIP3    H234027   0.941   4.953   0.099
11362TIP3   OH234028   0.747   2.458   3.655
11362TIP3    H134029   0.671   2.402   3.669
11362TIP3    H234030   0.814   2.421   3.713
11363TIP3   OH234031   3.196   2.379   0.799
11363TIP3    H134032   3.262   2.444   0.777
11363TIP3    H234033   3.237   2.294   0.780
11364TIP3   OH234034   6.577   1.142   2.684
11364TIP3    H134035   6.660   1.103   2.712
11364TIP3    H234036   6.603   1.216   2.628
11365TIP3   OH234037   3.644   1.384   0.164
11365TIP3    H134038   3.674   1.294   0.157
11365TIP3    H234039   3.634   1.399   0.258
11366TIP3   OH234040   4.162   5.596   1.969
11366TIP3    H134041   4.125   5.575   2.055
11366TIP3    H234042   4.196   5.685   1.979
11367TIP3   OH234043   2.779   0.618   5.198
11367TIP3    H134044   2.702   0.593   5.249
11367TIP3    H234045   2.841   0.652   5.262
11368TIP3   OH234046   6.342   5.167   0.376
11368TIP3    H134047   6.280   5.096   0.358
11368TIP3    H234048   6.296   5.223   0.439
11369TIP3   OH234049   1.514   6.720   3.617
11369TIP3    H134050   1.605   6.691   3.609
11369TIP3    H234051   1.504   6.744   3.709
11370TIP3   OH234052   5.731   4.435   5.621
11370TIP3    H134053   5.682   4.384   5.556
11370TIP3    H234054   5.820   4.442   5.584
11371TIP3   OH234055   7.432   4.584   6.685
11371TIP3    H134056   7.388   4.541   6.758
11371TIP3    H234057   7.514   4.616   6.722
11372TIP3   OH234058   6.647   7.648   4.408
11372TIP3    H134059   6.656   7.599   4.327
11372TIP3    H234060   6.630   7.581   4.475
11373TIP3   OH234061   0.636   5.395   5.581
11373TIP3    H134062   0.648   5.490   5.580
11373TIP3    H234063   0.720   5.360   5.611
11374TIP3   OH234064   5.742   6.094   4.347
11374TIP3    H134065   5.764   6.022   4.407
11374TIP3    H234066   5.697   6.158   4.402
11375TIP3   OH234067   2.851   0.478   4.927
11375TIP3    H134068   2.835   0.479   5.021
11375TIP3    H234069   2.805   0.555   4.894
11376TIP3   OH234070   1.777   5.452   1.322
11376TIP3    H134071   1.817   5.540   1.324
11376TIP3    H234072   1.711   5.455   1.391
11377TIP3   OH234073   1.389   1.565   5.492
11377TIP3    H134074   1.375   1.632   5.558
11377TIP3    H234075   1.457   1.508   5.530
11378TIP3   OH234076   1.433   0.203   6.626
11378TIP3    H134077   1.500   0.270   6.640
11378TIP3    H234078   1.397   0.187   6.713
11379TIP3   OH234079   0.798   5.013   1.745
11379TIP3    H134080   0.811   5.084   1.807
11379TIP3    H234081   0.761   4.941   1.797
11380TIP3   OH234082   0.298   0.111   4.861
11380TIP3    H134083   0.385   0.099   4.898
11380TIP3    H234084   0.265   0.191   4.901
11381TIP3   OH234085   4.540   6.395   2.332
11381TIP3    H134086   4.624   6.441   2.340
11381TIP3    H234087   4.482   6.441   2.393
11382TIP3   OH234088   4.646   4.954   6.711
11382TIP3    H134089   4.733   4.935   6.676
11382TIP3    H234090   4.638   4.898   6.788
11383TIP3   OH234091   3.804   1.473   2.765
11383TIP3    H134092   3.898   1.466   2.783
11383TIP3    H234093   3.764   1.402   2.815
11384TIP3   OH234094   4.090   5.677   0.226
11384TIP3    H134095   4.008   5.628   0.236
11384TIP3    H234096   4.138   5.630   0.158
11385TIP3   OH234097   1.447   6.286   5.732
11385TIP3    H134098   1.371   6.314   5.681
11385TIP3    H234099   1.518   6.342   5.702
11386TIP3   OH234100   5.208   7.416   3.795
11386TIP3    H134101   5.193   7.341   3.852
11386TIP3    H234102   5.168   7.490   3.841
11387TIP3   OH234103   5.708   0.446   4.552
11387TIP3    H134104   5.736   0.469   4.641
11387TIP3    H234105   5.613   0.452   4.555
11388TIP3   OH234106   5.231   0.098   2.186
11388TIP3    H134107   5.230   0.189   2.156
11388TIP3    H234108   5.197   0.048   2.112
11389TIP3   OH234109   4.790   0.979   0.149
11389TIP3    H134110   4.782   0.973   0.054
11389TIP3    H234111   4.760   1.067   0.170
11390TIP3   OH234112   3.304   3.840   3.346
11390TIP3    H134113   3.234   3.857   3.409
11390TIP3    H234114   3.293   3.910   3.280
11391TIP3   OH234115   7.033   5.628   6.093
11391TIP3    H134116   6.944   5.606   6.063
11391TIP3    H234117   7.025   5.633   6.188
11392TIP3   OH234118   1.591   5.004   5.388
11392TIP3    H134119   1.608   5.037   5.299
11392TIP3    H234120   1.654   5.050   5.443
11393TIP3   OH234121   7.555   7.090   0.150
11393TIP3    H134122   7.639   7.135   0.161
11393TIP3    H234123   7.573   6.999   0.176
11394TIP3   OH234124   4.639   4.746   4.961
11394TIP3    H134125   4.573   4.750   5.031
11394TIP3    H234126   4.686   4.665   4.977
11395TIP3   OH234127   5.760   1.650   2.616
11395TIP3    H134128   5.680   1.696   2.590
11395TIP3    H234129   5.733   1.558   2.623
11396TIP3   OH234130   1.600   3.609   4.062
11396TIP3    H134131   1.635   3.524   4.088
11396TIP3    H234132   1.662   3.642   3.997
11397TIP3   OH234133   7.662   7.129   1.651
11397TIP3    H134134   7.611   7.150   1.572
11397TIP3    H234135   7.647   7.035   1.663
11398TIP3   OH234136   1.241   2.182   6.302
11398TIP3    H134137   1.204   2.094   6.303
11398TIP3    H234138   1.227   2.216   6.390
11399TIP3   OH234139   5.714   0.977   4.473
11399TIP3    H134140   5.798   1.010   4.503
11399TIP3    H234141   5.667   0.954   4.553
11400TIP3   OH234142   8.229   5.136   4.150
11400TIP3    H134143   8.155   5.187   4.183
11400TIP3    H234144   8.189   5.058   4.112
11401TIP3   OH234145   1.735   3.353   1.341
11401TIP3    H134146   1.746   3.261   1.365
11401TIP3    H234147   1.732   3.400   1.424
11402TIP3   OH234148   1.449   0.134   4.946
11402TIP3    H134149   1.480   0.185   4.871
11402TIP3    H234150   1.527   0.118   4.998
11403TIP3   OH234151   0.731   0.554   4.878
11403TIP3    H134152   0.716   0.460   4.868
11403TIP3    H234153   0.773   0.581   4.796
11404TIP3   OH234154   7.129   2.865   0.490
11404TIP3    H134155   7.220   2.835   0.486
11404TIP3    H234156   7.107   2.864   0.583
11405TIP3   OH234157   6.932   6.024   5.367
11405TIP3    H134158   6.923   5.930   5.383
11405TIP3    H234159   6.967   6.030   5.278
11406TIP3   OH234160   4.103   0.406   2.373
11406TIP3    H134161   4.033   0.462   2.406
11406TIP3    H234162   4.082   0.319   2.407
11407TIP3   OH234163   7.297   3.922   3.547
11407TIP3    H134164   7.227   3.857   3.561
11407TIP3    H234165   7.253   3.996   3.507
11408TIP3   OH234166   7.175   5.785   6.653
11408TIP3    H134167   7.108   5.770   6.719
11408TIP3    H234168   7.143   5.861   6.603
11409TIP3   OH234169   0.707   5.606   1.050
11409TIP3    H134170   0.675   5.559   0.973
11409TIP3    H234171   0.693   5.545   1.123
11410TIP3   OH234172   4.931   0.367   3.038
11410TIP3    H134173   4.849   0.393   2.996
11410TIP3    H234174   4.915   0.380   3.132
11411TIP3   OH234175   7.341   3.126   2.449
11411TIP3    H134176   7.434   3.120   2.471
11411TIP3    H234177   7.302   3.046   2.485
11412TIP3   OH234178   8.024   6.981   4.951
11412TIP3    H134179   8.118   6.999   4.942
11412TIP3    H234180   8.019   6.910   5.015
11413TIP3   OH234181   6.619   2.617   1.432
11413TIP3    H134182   6.690   2.600   1.494
11413TIP3    H234183   6.616   2.537   1.378
11414TIP3   OH234184   0.702   6.451   1.847
11414TIP3    H134185   0.661   6.514   1.907
11414TIP3    H234186   0.795   6.456   1.868
11415TIP3   OH234187   1.031   0.816   4.478
11415TIP3    H134188   0.992   0.904   4.472
11415TIP3    H234189   1.033   0.785   4.388
11416TIP3   OH234190   1.726   6.849   2.398
11416TIP3    H134191   1.655   6.884   2.344
11416TIP3    H234192   1.777   6.795   2.337
11417TIP3   OH234193   7.556   0.325   5.306
11417TIP3    H134194   7.536   0.296   5.395
11417TIP3    H234195   7.628   0.388   5.317
11418TIP3   OH234196   3.360   7.226   1.046
11418TIP3    H134197   3.377   7.284   0.971
11418TIP3    H234198   3.345   7.285   1.119
11419TIP3   OH234199   3.292   3.861   5.780
11419TIP3    H134200   3.237   3.937   5.800
11419TIP3    H234201   3.337   3.884   5.699
11420TIP3   OH234202   4.270   1.951   5.981
11420TIP3    H134203   4.287   1.859   5.961
11420TIP3    H234204   4.356   1.992   5.980
11421TIP3   OH234205   4.427   4.937   4.680
11421TIP3    H134206   4.506   4.934   4.734
11421TIP3    H234207   4.383   5.017   4.707
11422TIP3   OH234208   5.337   7.043   5.587
11422TIP3    H134209   5.422   7.000   5.579
11422TIP3    H234210   5.358   7.135   5.597
11423TIP3   OH234211   1.887   1.159   2.221
11423TIP3    H134212   1.965   1.213   2.210
11423TIP3    H234213   1.893   1.095   2.150
11424TIP3   OH234214   0.835   2.183   0.968
11424TIP3    H134215   0.861   2.260   0.918
11424TIP3    H234216   0.914   2.128   0.970
11425TIP3   OH234217   4.060   5.691   5.697
11425TIP3    H134218   4.063   5.717   5.789
11425TIP3    H234219   4.151   5.671   5.675
11426TIP3   OH234220   2.557   1.868   0.328
11426TIP3    H134221   2.551   1.963   0.320
11426TIP3    H234222   2.484   1.835   0.275
11427TIP3   OH234223   2.131   7.145   2.538
11427TIP3    H134224   2.206   7.098   2.576
11427TIP3    H234225   2.060   7.080   2.537
11428TIP3   OH234226   4.478   4.937   1.301
11428TIP3    H134227   4.558   4.948   1.249
11428TIP3    H234228   4.487   5.002   1.371
11429TIP3   OH234229   5.017   7.797   0.975
11429TIP3    H134230   5.025   7.740   1.051
11429TIP3    H234231   5.019   7.738   0.900
11430TIP3   OH234232   8.115   1.731   2.891
11430TIP3    H134233   8.128   1.807   2.834
11430TIP3    H234234   8.198   1.724   2.940
11431TIP3   OH234235   0.490   3.987   5.263
11431TIP3    H134236   0.549   4.052   5.226
11431TIP3    H234237   0.434   4.036   5.323
11432TIP3   OH234238   4.512   4.690   4.045
11432TIP3    H134239   4.419   4.695   4.022
11432TIP3    H234240   4.536   4.599   4.025
11433TIP3   OH234241   1.916   1.222   0.768
11433TIP3    H134242   2.004   1.251   0.744
11433TIP3    H234243   1.918   1.214   0.863
11434TIP3   OH234244   5.585   3.827   5.741
11434TIP3    H134245   5.553   3.917   5.745
11434TIP3    H234246   5.637   3.823   5.662
11435TIP3   OH234247   2.452   0.688   4.629
11435TIP3    H134248   2.500   0.715   4.550
11435TIP3    H234249   2.386   0.757   4.640
11436TIP3   OH234250   5.436   2.253   3.438
11436TIP3    H134251   5.411   2.171   3.481
11436TIP3    H234252   5.524   2.270   3.471
11437TIP3   OH234253   0.421   0.661   2.372
11437TIP3    H134254   0.453   0.586   2.421
11437TIP3    H234255   0.430   0.735   2.433
11438TIP3   OH234256   7.033   6.097   2.253
11438TIP3    H134257   7.128   6.082   2.256
11438TIP3    H234258   7.004   6.077   2.342
11439TIP3   OH234259   4.049   1.669   2.556
11439TIP3    H134260   3.995   1.743   2.584
11439TIP3    H234261   4.049   1.610   2.631
11440TIP3   OH234262   7.290   6.007   2.304
11440TIP3    H134263   7.330   5.957   2.375
11440TIP3    H234264   7.283   5.945   2.231
11441TIP3   OH234265   0.945   6.210   1.239
11441TIP3    H134266   0.945   6.204   1.335
11441TIP3    H234267   0.982   6.126   1.210
11442TIP3   OH234268   1.979   5.091   6.246
11442TIP3    H134269   1.974   5.006   6.289
11442TIP3    H234270   1.925   5.148   6.301
11443TIP3   OH234271   4.570   0.845   4.398
11443TIP3    H134272   4.480   0.821   4.422
11443TIP3    H234273   4.590   0.921   4.452
11444TIP3   OH234274   2.094   2.339   4.714
11444TIP3    H134275   2.113   2.365   4.804
11444TIP3    H234276   2.081   2.421   4.667
11445TIP3   OH234277   4.766   1.085   3.145
11445TIP3    H134278   4.719   1.140   3.208
11445TIP3    H234279   4.850   1.067   3.188
11446TIP3   OH234280   2.762   1.323   4.115
11446TIP3    H134281   2.844   1.308   4.067
11446TIP3    H234282   2.699   1.346   4.047
11447TIP3   OH234283   7.644   6.683   2.099
11447TIP3    H134284   7.638   6.601   2.050
11447TIP3    H234285   7.639   6.752   2.033
11448TIP3   OH234286   0.133   3.092   3.471
11448TIP3    H134287   0.159   3.159   3.536
11448TIP3    H234288   0.042   3.113   3.450
11449TIP3   OH234289   6.807   7.427   4.835
11449TIP3    H134290   6.882   7.380   4.798
11449TIP3    H234291   6.827   7.519   4.820
11450TIP3   OH234292   4.817   6.472   3.716
11450TIP3    H134293   4.773   6.447   3.634
11450TIP3    H234294   4.759   6.537   3.755
11451TIP3   OH234295   2.484   6.288   5.169
11451TIP3    H134296   2.550   6.272   5.101
11451TIP3    H234297   2.479   6.383   5.176
11452TIP3   OH234298   1.805   2.436   0.910
11452TIP3    H134299   1.893   2.471   0.924
11452TIP3    H234300   1.763   2.500   0.852
11453TIP3   OH234301   5.654   7.486   2.397
11453TIP3    H134302   5.613   7.471   2.482
11453TIP3    H234303   5.701   7.569   2.408
11454TIP3   OH234304   2.314   5.963   6.101
11454TIP3    H134305   2.342   5.889   6.047
11454TIP3    H234306   2.242   5.929   6.154
11455TIP3   OH234307   7.528   2.170   6.363
11455TIP3    H134308   7.511   2.124   6.281
11455TIP3    H234309   7.516   2.263   6.342
11456TIP3   OH234310   3.640   3.970   3.394
11456TIP3    H134311   3.616   3.965   3.302
11456TIP3    H234312   3.646   3.879   3.423
11457TIP3   OH234313   7.962   6.651   1.161
11457TIP3    H134314   7.906   6.715   1.204
11457TIP3    H234315   8.051   6.678   1.183
11458TIP3   OH234316   1.203   3.504   3.927
11458TIP3    H134317   1.267   3.537   3.990
11458TIP3    H234318   1.130   3.566   3.932
11459TIP3   OH234319   7.551   1.887   6.437
11459TIP3    H134320   7.498   1.865   6.514
11459TIP3    H234321   7.527   1.978   6.417
11460TIP3   OH234322   7.523   4.828   1.801
11460TIP3    H134323   7.557   4.744   1.772
11460TIP3    H234324   7.556   4.838   1.891
11461TIP3   OH234325   3.713   6.630   4.034
11461TIP3    H134326   3.801   6.613   3.999
11461TIP3    H234327   3.656   6.572   3.984
11462TIP3   OH234328   3.937   4.214   4.469
11462TIP3    H134329   3.963   4.132   4.512
11462TIP3    H234330   3.967   4.203   4.379
11463TIP3   OH234331   1.175   1.840   0.999
11463TIP3    H134332   1.196   1.924   1.041
11463TIP3    H234333   1.238   1.833   0.927
11464TIP3   OH234334   8.040   2.808   4.082
11464TIP3    H134335   8.012   2.900   4.089
11464TIP3    H234336   8.008   2.780   3.997
11465TIP3   OH234337   3.061   3.250   3.806
11465TIP3    H134338   3.068   3.333   3.759
11465TIP3    H234339   3.151   3.231   3.833
11466TIP3   OH234340   5.976   5.659   2.800
11466TIP3    H134341   6.033   5.704   2.737
11466TIP3    H234342   6.026   5.582   2.827
11467TIP3   OH234343   4.731   5.903   1.827
11467TIP3    H134344   4.744   5.960   1.752
11467TIP3    H234345   4.759   5.955   1.902
11468TIP3   OH234346   1.376   4.442   5.208
11468TIP3    H134347   1.418   4.495   5.276
11468TIP3    H234348   1.368   4.501   5.133
11469TIP3   OH234349   8.131   4.388   5.163
11469TIP3    H134350   8.112   4.448   5.235
11469TIP3    H234351   8.197   4.433   5.111
11470TIP3   OH234352   7.009   2.932   5.251
11470TIP3    H134353   7.039   3.019   5.227
11470TIP3    H234354   7.016   2.881   5.171
11471TIP3   OH234355   6.230   4.170   5.834
11471TIP3    H134356   6.136   4.192   5.831
11471TIP3    H234357   6.231   4.076   5.852
11472TIP3   OH234358   6.931   1.767   0.857
11472TIP3    H134359   6.971   1.799   0.776
11472TIP3    H234360   6.918   1.673   0.840
11473TIP3   OH234361   4.441   1.408   1.759
11473TIP3    H134362   4.355   1.450   1.767
11473TIP3    H234363   4.479   1.446   1.680
11474TIP3   OH234364   4.875   6.573   4.399
11474TIP3    H134365   4.937   6.567   4.471
11474TIP3    H234366   4.867   6.667   4.380
11475TIP3   OH234367   1.830   1.850   4.730
11475TIP3    H134368   1.908   1.884   4.687
11475TIP3    H234369   1.862   1.813   4.812
11476TIP3   OH234370   7.968   3.241   1.420
11476TIP3    H134371   7.953   3.164   1.475
11476TIP3    H234372   8.058   3.230   1.388
11477TIP3   OH234373   5.621   3.341   4.131
11477TIP3    H134374   5.673   3.416   4.101
11477TIP3    H234375   5.562   3.377   4.197
11478TIP3   OH234376   2.883   4.371   4.882
11478TIP3    H134377   2.951   4.399   4.944
11478TIP3    H234378   2.902   4.279   4.864
11479TIP3   OH234379   3.988   5.119   6.063
11479TIP3    H134380   4.004   5.100   5.971
11479TIP3    H234381   4.075   5.131   6.101
11480TIP3   OH234382   0.802   4.581   3.866
11480TIP3    H134383   0.739   4.512   3.846
11480TIP3    H234384   0.885   4.547   3.834
11481TIP3   OH234385   7.000   7.756   1.752
11481TIP3    H134386   7.028   7.757   1.843
11481TIP3    H234387   6.915   7.711   1.753
11482TIP3   OH234388   1.472   0.090   2.815
11482TIP3    H134389   1.540   0.094   2.748
11482TIP3    H234390   1.390   0.101   2.766
11483TIP3   OH234391   8.274   1.793   4.725
11483TIP3    H134392   8.204   1.808   4.788
11483TIP3    H234393   8.245   1.838   4.646
11484TIP3   OH234394   3.589   3.069   4.915
11484TIP3    H134395   3.555   3.000   4.857
11484TIP3    H234396   3.530   3.068   4.991
11485TIP3   OH234397   5.803   2.655   2.027
11485TIP3    H134398   5.879   2.685   1.976
11485TIP3    H234399   5.760   2.735   2.055
11486TIP3   OH234400   2.770   7.441   1.057
11486TIP3    H134401   2.759   7.536   1.057
11486TIP3    H234402   2.720   7.410   0.982
11487TIP3   OH234403   4.997   3.677   4.047
11487TIP3    H134404   4.948   3.701   4.125
11487TIP3    H234405   4.966   3.737   3.979
11488TIP3   OH234406   5.917   3.162   5.596
11488TIP3    H134407   5.866   3.230   5.640
11488TIP3    H234408   5.910   3.183   5.503
11489TIP3   OH234409   2.165   4.385   4.088
11489TIP3    H134410   2.228   4.404   4.158
11489TIP3    H234411   2.156   4.290   4.088
11490TIP3   OH234412   5.618   1.346   1.036
11490TIP3    H134413   5.569   1.264   1.048
11490TIP3    H234414   5.570   1.392   0.967
11491TIP3   OH234415   4.046   2.667   4.920
11491TIP3    H134416   4.024   2.737   4.858
11491TIP3    H234417   4.123   2.698   4.966
11492TIP3   OH234418   1.876   5.520   1.819
11492TIP3    H134419   1.962   5.479   1.827
11492TIP3    H234420   1.819   5.451   1.784
11493TIP3   OH234421   2.207   4.600   1.566
11493TIP3    H134422   2.190   4.507   1.549
11493TIP3    H234423   2.301   4.609   1.553
11494TIP3   OH234424   3.268   1.305   2.772
11494TIP3    H134425   3.245   1.390   2.809
11494TIP3    H234426   3.267   1.245   2.847
11495TIP3   OH234427   2.695   6.786   4.588
11495TIP3    H134428   2.745   6.749   4.660
11495TIP3    H234429   2.753   6.853   4.551
11496TIP3   OH234430   2.905   3.507   6.588
11496TIP3    H134431   2.983   3.499   6.532
11496TIP3    H234432   2.841   3.449   6.547
11497TIP3   OH234433   5.009   3.097   1.761
11497TIP3    H134434   5.090   3.051   1.736
11497TIP3    H234435   4.960   3.104   1.679
11498TIP3   OH234436   0.756   5.239   2.211
11498TIP3    H134437   0.752   5.212   2.303
11498TIP3    H234438   0.712   5.324   2.210
11499TIP3   OH234439   7.157   1.457   2.955
11499TIP3    H134440   7.130   1.384   2.900
11499TIP3    H234441   7.213   1.511   2.899
11500TIP3   OH234442   1.707   0.497   2.883
11500TIP3    H134443   1.743   0.586   2.876
11500TIP3    H234444   1.626   0.501   2.834
11501TIP3   OH234445   2.595   7.279   4.934
11501TIP3    H134446   2.642   7.225   4.871
11501TIP3    H234447   2.624   7.369   4.915
11502TIP3   OH234448   3.407   6.853   6.346
11502TIP3    H134449   3.439   6.792   6.280
11502TIP3    H234450   3.373   6.798   6.417
11503TIP3   OH234451   8.062   6.061   3.766
11503TIP3    H134452   8.150   6.025   3.780
11503TIP3    H234453   8.004   5.986   3.779
11504TIP3   OH234454   6.147   1.211   6.027
11504TIP3    H134455   6.154   1.296   6.071
11504TIP3    H234456   6.163   1.229   5.935
11505TIP3   OH234457   5.519   2.705   3.739
11505TIP3    H134458   5.465   2.636   3.777
11505TIP3    H234459   5.499   2.783   3.791
11506TIP3   OH234460   5.508   1.432   4.086
11506TIP3    H134461   5.503   1.358   4.147
11506TIP3    H234462   5.590   1.476   4.110
11507TIP3   OH234463   3.673   5.263   2.139
11507TIP3    H134464   3.744   5.290   2.082
11507TIP3    H234465   3.713   5.201   2.200
11508TIP3   OH234466   8.169   7.149   4.005
11508TIP3    H134467   8.172   7.239   3.974
11508TIP3    H234468   8.160   7.157   4.100
11509TIP3   OH234469   3.394   5.185   2.698
11509TIP3    H134470   3.315   5.213   2.652
11509TIP3    H234471   3.364   5.159   2.785
11510TIP3   OH234472   7.580   4.066   1.704
11510TIP3    H134473   7.539   4.093   1.621
11510TIP3    H234474   7.514   4.085   1.771
11511TIP3   OH234475   5.956   3.308   3.842
11511TIP3    H134476   5.880   3.249   3.838
11511TIP3    H234477   5.918   3.396   3.842
11512TIP3   OH234478   3.879   4.168   3.310
11512TIP3    H134479   3.962   4.124   3.288
11512TIP3    H234480   3.827   4.101   3.353
11513TIP3   OH234481   6.265   4.644   5.050
11513TIP3    H134482   6.209   4.574   5.017
11513TIP3    H234483   6.215   4.724   5.035
11514TIP3   OH234484   6.142   6.250   0.554
11514TIP3    H134485   6.117   6.240   0.646
11514TIP3    H234486   6.205   6.323   0.554
11515TIP3   OH234487   3.550   7.629   6.232
11515TIP3    H134488   3.491   7.672   6.171
11515TIP3    H234489   3.505   7.634   6.316
11516TIP3   OH234490   5.899   5.262   4.946
11516TIP3    H134491   5.848   5.244   5.024
11516TIP3    H234492   5.989   5.239   4.969
11517TIP3   OH234493   3.994   7.752   3.615
11517TIP3    H134494   4.020   7.815   3.682
11517TIP3    H234495   3.916   7.709   3.651
11518TIP3   OH234496   0.828   0.503   2.870
11518TIP3    H134497   0.822   0.413   2.902
11518TIP3    H234498   0.791   0.555   2.941
11519TIP3   OH234499   7.046   2.769   1.041
11519TIP3    H134500   7.107   2.720   1.096
11519TIP3    H234501   7.050   2.859   1.073
11520TIP3   OH234502   3.092   6.650   3.976
11520TIP3    H134503   3.156   6.578   3.979
11520TIP3    H234504   3.059   6.655   4.066
11521TIP3   OH234505   0.907   7.379   4.925
11521TIP3    H134506   0.908   7.302   4.868
11521TIP3    H234507   0.963   7.355   4.998
11522TIP3   OH234508   8.010   3.062   4.792
11522TIP3    H134509   8.037   3.133   4.850
11522TIP3    H234510   8.084   3.051   4.732
11523TIP3   OH234511   4.046   2.807   1.561
11523TIP3    H134512   3.984   2.772   1.497
11523TIP3    H234513   3.990   2.844   1.630
11524TIP3   OH234514   1.332   4.266   4.805
11524TIP3    H134515   1.391   4.320   4.751
11524TIP3    H234516   1.390   4.203   4.847
11525TIP3   OH234517   0.999   6.533   5.009
11525TIP3    H134518   1.090   6.511   4.990
11525TIP3    H234519   0.993   6.531   5.104
11526TIP3   OH234520   6.581   4.905   0.966
11526TIP3    H134521   6.503   4.938   1.010
11526TIP3    H234522   6.561   4.814   0.946
11527TIP3   OH234523   3.031   0.124   6.109
11527TIP3    H134524   2.966   0.054   6.113
11527TIP3    H234525   2.994   0.189   6.049
11528TIP3   OH234526   7.955   2.763   0.535
11528TIP3    H134527   7.891   2.699   0.567
11528TIP3    H234528   7.909   2.846   0.537
11529TIP3   OH234529   4.361   6.271   1.524
11529TIP3    H134530   4.312   6.253   1.604
11529TIP3    H234531   4.293   6.280   1.457
11530TIP3   OH234532   3.395   6.270   6.567
11530TIP3    H134533   3.451   6.293   6.493
11530TIP3    H234534   3.321   6.331   6.561
11531TIP3   OH234535   8.017   3.722   0.202
11531TIP3    H134536   8.112   3.722   0.208
11531TIP3    H234537   7.991   3.803   0.246
11532TIP3   OH234538   3.954   5.041   1.078
11532TIP3    H134539   4.028   5.058   1.020
11532TIP3    H234540   3.994   5.010   1.160
11533TIP3   OH234541   4.660   5.040   5.838
11533TIP3    H134542   4.705   5.104   5.783
11533TIP3    H234543   4.684   5.064   5.928
11534TIP3   OH234544   8.168   4.146   2.902
11534TIP3    H134545   8.164   4.051   2.914
11534TIP3    H234546   8.097   4.179   2.957
11535TIP3   OH234547   6.637   6.453   4.478
11535TIP3    H134548   6.644   6.542   4.445
11535TIP3    H234549   6.550   6.423   4.451
11536TIP3   OH234550   5.408   1.986   5.818
11536TIP3    H134551   5.399   1.903   5.771
11536TIP3    H234552   5.477   2.033   5.772
11537TIP3   OH234553   6.529   7.586   5.105
11537TIP3    H134554   6.580   7.664   5.127
11537TIP3    H234555   6.441   7.605   5.139
11538TIP3   OH234556   0.920   2.136   0.224
11538TIP3    H134557   0.936   2.176   0.139
11538TIP3    H234558   0.991   2.169   0.279
11539TIP3   OH234559   3.631   7.334   4.318
11539TIP3    H134560   3.540   7.364   4.311
11539TIP3    H234561   3.634   7.255   4.264
11540TIP3   OH234562   1.693   1.278   3.734
11540TIP3    H134563   1.673   1.253   3.825
11540TIP3    H234564   1.708   1.373   3.739
11541TIP3   OH234565   4.979   1.083   1.184
11541TIP3    H134566   5.071   1.062   1.196
11541TIP3    H234567   4.933   1.017   1.236
11542TIP3   OH234568   5.110   0.571   4.877
11542TIP3    H134569   5.030   0.570   4.825
11542TIP3    H234570   5.105   0.651   4.928
11543TIP3   OH234571   6.326   3.520   6.313
11543TIP3    H134572   6.290   3.437   6.282
11543TIP3    H234573   6.303   3.522   6.406
11544TIP3   OH234574   4.089   3.992   3.239
11544TIP3    H134575   4.175   3.951   3.234
11544TIP3    H234576   4.034   3.940   3.180
11545TIP3   OH234577   3.801   3.657   0.167
11545TIP3    H134578   3.765   3.745   0.152
11545TIP3    H234579   3.768   3.605   0.095
11546TIP3   OH234580   6.707   2.317   1.278
11546TIP3    H134581   6.625   2.332   1.230
11546TIP3    H234582   6.714   2.222   1.285
11547TIP3   OH234583   4.818   4.410   4.191
11547TIP3    H134584   4.799   4.462   4.269
11547TIP3    H234585   4.736   4.411   4.141
11548TIP3   OH234586   2.268   6.866   1.970
11548TIP3    H134587   2.195   6.806   1.957
11548TIP3    H234588   2.343   6.808   1.989
11549TIP3   OH234589   6.716   6.782   3.459
11549TIP3    H134590   6.656   6.834   3.406
11549TIP3    H234591   6.697   6.808   3.549
11550TIP3   OH234592   5.669   1.912   2.102
11550TIP3    H134593   5.656   1.828   2.056
11550TIP3    H234594   5.580   1.945   2.116
11551TIP3   OH234595   1.368   5.198   4.072
11551TIP3    H134596   1.340   5.107   4.062
11551TIP3    H234597   1.307   5.235   4.136
11552TIP3   OH234598   2.371   0.069   3.190
11552TIP3    H134599   2.457   0.109   3.199
11552TIP3    H234600   2.311   0.143   3.179
11553TIP3   OH234601   6.486   7.725   0.852
11553TIP3    H134602   6.514   7.660   0.917
11553TIP3    H234603   6.473   7.805   0.903
11554TIP3   OH234604   8.009   5.684   5.952
11554TIP3    H134605   7.939   5.730   5.906
11554TIP3    H234606   7.972   5.663   6.038
11555TIP3   OH234607   3.836   2.079   3.249
11555TIP3    H134608   3.740   2.086   3.249
11555TIP3    H234609   3.857   2.041   3.164
11556TIP3   OH234610   2.479   6.729   1.079
11556TIP3    H134611   2.564   6.743   1.038
11556TIP3    H234612   2.465   6.634   1.074
11557TIP3   OH234613   5.146   2.078   4.891
11557TIP3    H134614   5.059   2.051   4.861
11557TIP3    H234615   5.141   2.076   4.986
11558TIP3   OH234616   2.277   7.448   3.913
11558TIP3    H134617   2.235   7.533   3.925
11558TIP3    H234618   2.346   7.446   3.979
11559TIP3   OH234619   3.899   0.051   2.818
11559TIP3    H134620   3.962  -0.010   2.856
11559TIP3    H234621   3.817   0.002   2.813
11560TIP3   OH234622   3.983   2.229   1.423
11560TIP3    H134623   3.925   2.255   1.495
11560TIP3    H234624   4.071   2.237   1.459
11561TIP3   OH234625   0.462   0.736   2.765
11561TIP3    H134626   0.413   0.662   2.729
11561TIP3    H234627   0.553   0.717   2.741
11562TIP3   OH234628   0.124   2.760   2.977
11562TIP3    H134629   0.209   2.779   2.938
11562TIP3    H234630   0.062   2.817   2.930
11563TIP3   OH234631   0.564   3.954   3.929
11563TIP3    H134632   0.487   3.969   3.874
11563TIP3    H234633   0.620   3.897   3.876
11564TIP3   OH234634   4.582   3.163   6.021
11564TIP3    H134635   4.576   3.143   6.115
11564TIP3    H234636   4.576   3.078   5.978
11565TIP3   OH234637   2.747   4.205   1.584
11565TIP3    H134638   2.693   4.179   1.659
11565TIP3    H234639   2.720   4.295   1.565
11566TIP3   OH234640   2.595   4.308   1.191
11566TIP3    H134641   2.623   4.234   1.246
11566TIP3    H234642   2.605   4.385   1.247
11567TIP3   OH234643   4.543   5.913   5.572
11567TIP3    H134644   4.639   5.910   5.577
11567TIP3    H234645   4.514   5.832   5.615
11568TIP3   OH234646   2.040   2.046   0.512
11568TIP3    H134647   2.131   2.043   0.539
11568TIP3    H234648   2.005   2.126   0.552
11569TIP3   OH234649   4.489   6.316   3.880
11569TIP3    H134650   4.448   6.230   3.885
11569TIP3    H234651   4.484   6.351   3.969
11570TIP3   OH234652   3.361   6.052   3.385
11570TIP3    H134653   3.382   6.016   3.471
11570TIP3    H234654   3.422   6.010   3.325
11571TIP3   OH234655   4.704   1.346   5.971
11571TIP3    H134656   4.763   1.419   5.952
11571TIP3    H234657   4.762   1.271   5.984
11572TIP3   OH234658   0.679   2.882   2.432
11572TIP3    H134659   0.601   2.866   2.486
11572TIP3    H234660   0.686   2.804   2.376
11573TIP3   OH234661   4.024   3.744   1.264
11573TIP3    H134662   4.078   3.688   1.208
11573TIP3    H234663   3.935   3.713   1.249
11574TIP3   OH234664   2.546   1.530   0.381
11574TIP3    H134665   2.504   1.551   0.298
11574TIP3    H234666   2.639   1.521   0.359
11575TIP3   OH234667   2.187   3.963   3.692
11575TIP3    H134668   2.213   4.026   3.625
11575TIP3    H234669   2.262   3.958   3.751
11576TIP3   OH234670   0.872   7.764   5.825
11576TIP3    H134671   0.825   7.701   5.770
11576TIP3    H234672   0.964   7.740   5.816
11577TIP3   OH234673   6.093   6.533   3.944
11577TIP3    H134674   6.027   6.468   3.920
11577TIP3    H234675   6.112   6.516   4.036
11578TIP3   OH234676   0.533   6.760   4.389
11578TIP3    H134677   0.555   6.837   4.440
11578TIP3    H234678   0.611   6.743   4.337
11579TIP3   OH234679   7.896   5.363   2.567
11579TIP3    H134680   7.894   5.267   2.572
11579TIP3    H234681   7.981   5.387   2.604
11580TIP3   OH234682   3.799   5.300   5.091
11580TIP3    H134683   3.891   5.328   5.092
11580TIP3    H234684   3.757   5.358   5.028
11581TIP3   OH234685   2.886   5.883   0.785
11581TIP3    H134686   2.844   5.803   0.817
11581TIP3    H234687   2.979   5.859   0.777
11582TIP3   OH234688   2.527   2.205   2.745
11582TIP3    H134689   2.472   2.133   2.715
11582TIP3    H234690   2.558   2.247   2.665
11583TIP3   OH234691   3.450   4.660   5.288
11583TIP3    H134692   3.402   4.740   5.265
11583TIP3    H234693   3.382   4.598   5.313
11584TIP3   OH234694   5.064   2.987   3.273
11584TIP3    H134695   5.029   2.905   3.238
11584TIP3    H234696   5.134   2.960   3.332
11585TIP3   OH234697   5.049   2.604   6.512
11585TIP3    H134698   5.096   2.625   6.431
11585TIP3    H234699   5.071   2.675   6.572
11586TIP3   OH234700   6.410   3.977   4.134
11586TIP3    H134701   6.320   3.972   4.101
11586TIP3    H234702   6.427   4.070   4.142
11587TIP3   OH234703   3.052   1.495   2.633
11587TIP3    H134704   3.007   1.505   2.717
11587TIP3    H234705   3.060   1.400   2.621
11588TIP3   OH234706   7.883   0.668   5.979
11588TIP3    H134707   7.886   0.700   6.069
11588TIP3    H234708   7.956   0.606   5.973
11589TIP3   OH234709   3.715   4.622   0.934
11589TIP3    H134710   3.711   4.652   0.843
11589TIP3    H234711   3.790   4.669   0.971
11590TIP3   OH234712   0.593   6.519   4.928
11590TIP3    H134713   0.587   6.544   4.835
11590TIP3    H234714   0.655   6.445   4.928
11591TIP3   OH234715   3.341   0.117   0.012
11591TIP3    H134716   3.311   0.077   0.094
11591TIP3    H234717   3.315   0.054  -0.056
11592TIP3   OH234718   5.061   7.589   3.416
11592TIP3    H134719   5.023   7.504   3.440
11592TIP3    H234720   5.079   7.580   3.322
11593TIP3   OH234721   0.935   7.544   1.713
11593TIP3    H134722   0.897   7.472   1.764
11593TIP3    H234723   0.936   7.618   1.774
11594TIP3   OH234724   7.673   5.146   1.179
11594TIP3    H134725   7.761   5.155   1.141
11594TIP3    H234726   7.675   5.061   1.224
11595TIP3   OH234727   0.143   7.823   1.574
11595TIP3    H134728   0.076   7.866   1.520
11595TIP3    H234729   0.104   7.739   1.598
11596TIP3   OH234730   5.355   6.599   1.246
11596TIP3    H134731   5.265   6.571   1.233
11596TIP3    H234732   5.356   6.691   1.220
11597TIP3   OH234733   6.086   6.914   4.816
11597TIP3    H134734   6.086   6.857   4.893
11597TIP3    H234735   6.092   7.003   4.852
11598TIP3   OH234736   5.212   1.008   0.117
11598TIP3    H134737   5.136   1.033   0.170
11598TIP3    H234738   5.276   1.077   0.134
11599TIP3   OH234739   7.027   4.891   3.676
11599TIP3    H134740   7.013   4.983   3.652
11599TIP3    H234741   7.066   4.895   3.763
11600TIP3   OH234742   2.877   1.514   6.678
11600TIP3    H134743   2.833   1.590   6.716
11600TIP3    H234744   2.955   1.502   6.733
11601TIP3   OH234745   0.579   7.660   0.431
11601TIP3    H134746   0.603   7.595   0.365
11601TIP3    H234747   0.529   7.611   0.496
11602TIP3   OH234748   4.180   0.465   5.560
11602TIP3    H134749   4.255   0.505   5.604
11602TIP3    H234750   4.104   0.503   5.603
11603TIP3   OH234751   8.230   3.172   3.866
11603TIP3    H134752   8.297   3.116   3.905
11603TIP3    H234753   8.193   3.220   3.940
11604TIP3   OH234754   1.232   6.216   2.214
11604TIP3    H134755   1.301   6.175   2.266
11604TIP3    H234756   1.177   6.143   2.186
11605TIP3   OH234757   3.676   7.780   4.372
11605TIP3    H134758   3.672   7.715   4.302
11605TIP3    H234759   3.597   7.762   4.425
11606TIP3   OH234760   2.016   3.774   4.965
11606TIP3    H134761   1.936   3.761   4.915
11606TIP3    H234762   1.994   3.844   5.026
11607TIP3   OH234763   1.870   6.920   4.590
11607TIP3    H134764   1.845   6.992   4.532
11607TIP3    H234765   1.795   6.861   4.589
11608TIP3   OH234766   4.947   0.249   5.224
11608TIP3    H134767   4.853   0.243   5.208
11608TIP3    H234768   4.985   0.273   5.140
11609TIP3   OH234769   3.793   3.048   6.463
11609TIP3    H134770   3.754   3.030   6.549
11609TIP3    H234771   3.754   3.130   6.435
11610TIP3   OH234772   0.217   4.017   5.578
11610TIP3    H134773   0.273   4.026   5.655
11610TIP3    H234774   0.258   4.075   5.513
11611TIP3   OH234775   3.562   0.549   5.895
11611TIP3    H134776   3.575   0.455   5.907
11611TIP3    H234777   3.623   0.573   5.825
11612TIP3   OH234778   7.177   6.676   4.344
11612TIP3    H134779   7.242   6.606   4.347
11612TIP3    H234780   7.118   6.656   4.416
11613TIP3   OH234781   0.759   4.638   3.047
11613TIP3    H134782   0.790   4.547   3.044
11613TIP3    H234783   0.696   4.645   2.976
11614TIP3   OH234784   3.170   6.518   2.764
11614TIP3    H134785   3.214   6.517   2.849
11614TIP3    H234786   3.087   6.474   2.780
11615TIP3   OH234787   6.278   6.688   5.469
11615TIP3    H134788   6.306   6.680   5.560
11615TIP3    H234789   6.220   6.612   5.455
11616TIP3   OH234790   2.216   4.359   3.026
11616TIP3    H134791   2.284   4.292   3.012
11616TIP3    H234792   2.135   4.309   3.032
11617TIP3   OH234793   8.048   2.223   1.641
11617TIP3    H134794   8.011   2.233   1.729
11617TIP3    H234795   8.085   2.134   1.641
11618TIP3   OH234796   4.219   5.352   1.141
11618TIP3    H134797   4.159   5.338   1.214
11618TIP3    H234798   4.162   5.357   1.064
11619TIP3   OH234799   7.323   2.690   5.635
11619TIP3    H134800   7.292   2.779   5.655
11619TIP3    H234801   7.264   2.660   5.566
11620TIP3   OH234802   7.549   5.200   3.326
11620TIP3    H134803   7.621   5.179   3.267
11620TIP3    H234804   7.580   5.173   3.412
11621TIP3   OH234805   2.998   3.613   0.929
11621TIP3    H134806   2.921   3.617   0.874
11621TIP3    H234807   3.040   3.699   0.919
11622TIP3   OH234808   1.636   5.291   4.573
11622TIP3    H134809   1.682   5.227   4.518
11622TIP3    H234810   1.544   5.285   4.546
11623TIP3   OH234811   1.090   3.919   5.896
11623TIP3    H134812   1.038   3.882   5.967
11623TIP3    H234813   1.174   3.941   5.937
11624TIP3   OH234814   2.017   4.196   4.698
11624TIP3    H134815   1.963   4.208   4.620
11624TIP3    H234816   1.954   4.198   4.771
11625TIP3   OH234817   1.794   7.639   6.600
11625TIP3    H134818   1.780   7.733   6.589
11625TIP3    H234819   1.754   7.599   6.522
11626TIP3   OH234820   6.033   2.818   1.340
11626TIP3    H134821   6.114   2.868   1.326
11626TIP3    H234822   5.985   2.827   1.257
11627TIP3   OH234823   2.134   5.721   4.887
11627TIP3    H134824   2.107   5.789   4.826
11627TIP3    H234825   2.200   5.763   4.943
11628TIP3   OH234826   8.032   2.315   5.567
11628TIP3    H134827   7.983   2.283   5.643
11628TIP3    H234828   8.001   2.262   5.494
11629TIP3   OH234829   6.095   5.748   1.882
11629TIP3    H134830   6.148   5.691   1.827
11629TIP3    H234831   6.004   5.728   1.857
11630TIP3   OH234832   5.328   0.892   1.501
11630TIP3    H134833   5.284   0.853   1.576
11630TIP3    H234834   5.397   0.947   1.539
11631TIP3   OH234835   5.371   2.350   2.771
11631TIP3    H134836   5.434   2.281   2.748
11631TIP3    H234837   5.393   2.423   2.713
11632TIP3   OH234838   2.891   3.462   4.577
11632TIP3    H134839   2.934   3.442   4.660
11632TIP3    H234840   2.854   3.550   4.589
11633TIP3   OH234841   2.194   5.496   2.250
11633TIP3    H134842   2.132   5.567   2.233
11633TIP3    H234843   2.274   5.522   2.205
11634TIP3   OH234844   1.700   4.778   5.897
11634TIP3    H134845   1.760   4.727   5.842
11634TIP3    H234846   1.668   4.715   5.962
11635TIP3   OH234847   2.935   5.612   6.367
11635TIP3    H134848   2.942   5.581   6.277
11635TIP3    H234849   2.979   5.545   6.419
11636TIP3   OH234850   7.786   5.225   5.908
11636TIP3    H134851   7.793   5.234   6.003
11636TIP3    H234852   7.692   5.213   5.892
11637TIP3   OH234853   7.995   3.285   4.016
11637TIP3    H134854   8.056   3.334   3.961
11637TIP3    H234855   7.908   3.312   3.987
11638TIP3   OH234856   3.985   2.014   4.497
11638TIP3    H134857   3.987   2.095   4.548
11638TIP3    H234858   4.075   2.002   4.467
11639TIP3   OH234859   1.525   3.427   3.233
11639TIP3    H134860   1.472   3.495   3.192
11639TIP3    H234861   1.505   3.432   3.326
11640TIP3   OH234862   6.000   1.256   2.743
11640TIP3    H134863   6.013   1.249   2.648
11640TIP3    H234864   5.958   1.341   2.756
11641TIP3   OH234865   2.594   4.757   6.225
11641TIP3    H134866   2.678   4.752   6.272
11641TIP3    H234867   2.560   4.668   6.228
11642TIP3   OH234868   1.553   3.594   5.062
11642TIP3    H134869   1.533   3.524   5.001
11642TIP3    H234870   1.577   3.550   5.143
11643TIP3   OH234871   5.652   1.269   0.654
11643TIP3    H134872   5.613   1.348   0.690
11643TIP3    H234873   5.679   1.218   0.730
11644TIP3   OH234874   1.242   7.322   1.172
11644TIP3    H134875   1.294   7.365   1.104
11644TIP3    H234876   1.275   7.232   1.175
11645TIP3   OH234877   6.084   2.033   3.669
11645TIP3    H134878   6.063   2.105   3.609
11645TIP3    H234879   6.099   1.958   3.612
11646TIP3   OH234880   0.979   5.339   1.376
11646TIP3    H134881   1.030   5.390   1.439
11646TIP3    H234882   0.908   5.301   1.428
11647TIP3   OH234883   4.712   7.198   2.568
11647TIP3    H134884   4.781   7.166   2.626
11647TIP3    H234885   4.674   7.118   2.531
11648TIP3   OH234886   4.030   4.837   4.130
11648TIP3    H134887   4.096   4.905   4.147
11648TIP3    H234888   4.080   4.764   4.094
11649TIP3   OH234889   6.692   1.926   3.832
11649TIP3    H134890   6.670   1.886   3.747
11649TIP3    H234891   6.734   1.856   3.881
11650TIP3   OH234892   3.027   4.254   0.847
11650TIP3    H134893   2.957   4.282   0.906
11650TIP3    H234894   2.992   4.175   0.805
11651TIP3   OH234895   7.436   5.426   5.294
11651TIP3    H134896   7.528   5.446   5.313
11651TIP3    H234897   7.412   5.486   5.223
11652TIP3   OH234898   1.556   4.078   4.943
11652TIP3    H134899   1.635   4.049   4.897
11652TIP3    H234900   1.517   3.997   4.976
11653TIP3   OH234901   2.872   3.832   3.099
11653TIP3    H134902   2.793   3.855   3.050
11653TIP3    H234903   2.940   3.889   3.063
11654TIP3   OH234904   2.710   2.431   2.835
11654TIP3    H134905   2.657   2.355   2.859
11654TIP3    H234906   2.668   2.504   2.881
11655TIP3   OH234907   8.235   5.475   0.067
11655TIP3    H134908   8.291   5.482  -0.010
11655TIP3    H234909   8.270   5.400   0.116
11656TIP3   OH234910   6.434   4.249   2.635
11656TIP3    H134911   6.359   4.247   2.575
11656TIP3    H234912   6.483   4.170   2.615
11657TIP3   OH234913   1.577   7.676   4.436
11657TIP3    H134914   1.591   7.640   4.348
11657TIP3    H234915   1.605   7.767   4.429
11658TIP3   OH234916   6.608   7.231   2.580
11658TIP3    H134917   6.638   7.143   2.605
11658TIP3    H234918   6.653   7.249   2.497
11659TIP3   OH234919   0.799   1.334   2.461
11659TIP3    H134920   0.884   1.331   2.506
11659TIP3    H234921   0.802   1.416   2.411
11660TIP3   OH234922   6.284   1.372   3.314
11660TIP3    H134923   6.210   1.318   3.285
11660TIP3    H234924   6.259   1.400   3.402
11661TIP3   OH234925   0.552   0.693   1.390
11661TIP3    H134926   0.622   0.681   1.326
11661TIP3    H234927   0.596   0.681   1.475
11662TIP3   OH234928   7.892   7.455   4.872
11662TIP3    H134929   7.912   7.393   4.802
11662TIP3    H234930   7.963   7.519   4.868
11663TIP3   OH234931   0.324   1.509   6.646
11663TIP3    H134932   0.289   1.566   6.715
11663TIP3    H234933   0.316   1.421   6.683
11664TIP3   OH234934   2.620   0.568   0.853
11664TIP3    H134935   2.611   0.501   0.785
11664TIP3    H234936   2.530   0.583   0.882
11665TIP3   OH234937   2.572   1.401   4.608
11665TIP3    H134938   2.582   1.409   4.513
11665TIP3    H234939   2.477   1.405   4.622
11666TIP3   OH234940   3.333   2.902   6.510
11666TIP3    H134941   3.361   2.966   6.575
11666TIP3    H234942   3.399   2.833   6.514
11667TIP3   OH234943   5.366   1.956   3.146
11667TIP3    H134944   5.461   1.962   3.140
11667TIP3    H234945   5.350   1.890   3.214
11668TIP3   OH234946   0.521   3.012   0.353
11668TIP3    H134947   0.484   3.081   0.409
11668TIP3    H234948   0.466   3.013   0.275
11669TIP3   OH234949   6.027   2.630   6.625
11669TIP3    H134950   5.953   2.689   6.635
11669TIP3    H234951   5.999   2.549   6.667
11670TIP3   OH234952   2.972   2.832   1.060
11670TIP3    H134953   2.933   2.802   0.978
11670TIP3    H234954   3.049   2.882   1.033
11671TIP3   OH234955   5.274   7.246   6.163
11671TIP3    H134956   5.341   7.252   6.095
11671TIP3    H234957   5.195   7.217   6.116
11672TIP3   OH234958   3.997   5.580   3.674
11672TIP3    H134959   3.961   5.492   3.666
11672TIP3    H234960   4.091   5.569   3.660
11673TIP3   OH234961   0.483   3.150   2.173
11673TIP3    H134962   0.389   3.164   2.161
11673TIP3    H234963   0.496   3.057   2.152
11674TIP3   OH234964   4.446   2.551   1.794
11674TIP3    H134965   4.413   2.605   1.723
11674TIP3    H234966   4.523   2.508   1.757
11675TIP3   OH234967   2.985   0.414   4.532
11675TIP3    H134968   3.016   0.439   4.619
11675TIP3    H234969   3.062   0.377   4.489
11676TIP3   OH234970   0.423   1.164   0.993
11676TIP3    H134971   0.501   1.205   0.954
11676TIP3    H234972   0.397   1.097   0.931
11677TIP3   OH234973   7.147   3.575   4.202
11677TIP3    H134974   7.099   3.601   4.281
11677TIP3    H234975   7.101   3.497   4.171
11678TIP3   OH234976   0.058   1.323   6.345
11678TIP3    H134977   0.098   1.236   6.336
11678TIP3    H234978   0.132   1.382   6.361
11679TIP3   OH234979   0.078   1.898   3.267
11679TIP3    H134980   0.048   1.980   3.227
11679TIP3    H234981   0.096   1.922   3.358
11680TIP3   OH234982   0.672   1.208   4.549
11680TIP3    H134983   0.583   1.215   4.584
11680TIP3    H234984   0.728   1.218   4.625
11681TIP3   OH234985   5.765   3.543   2.260
11681TIP3    H134986   5.711   3.621   2.244
11681TIP3    H234987   5.735   3.509   2.344
11682TIP3   OH234988   5.808   6.763   5.905
11682TIP3    H134989   5.825   6.858   5.900
11682TIP3    H234990   5.887   6.723   5.870
11683TIP3   OH234991   7.280   4.169   5.690
11683TIP3    H134992   7.314   4.089   5.649
11683TIP3    H234993   7.221   4.206   5.625
11684TIP3   OH234994   0.345   4.471   4.854
11684TIP3    H134995   0.403   4.428   4.917
11684TIP3    H234996   0.371   4.434   4.770
11685TIP3   OH234997   7.372   2.838   6.626
11685TIP3    H134998   7.396   2.862   6.536
11685TIP3    H234999   7.318   2.911   6.656
11686TIP3   OH235000   0.710   1.935   0.243
11686TIP3    H135001   0.783   1.996   0.252
11686TIP3    H235002   0.745   1.863   0.192
11687TIP3   OH235003   2.370   1.802   1.534
11687TIP3    H135004   2.347   1.870   1.597
11687TIP3    H235005   2.367   1.846   1.449
11688TIP3   OH235006   1.548   5.620   2.644
11688TIP3    H135007   1.628   5.613   2.592
11688TIP3    H235008   1.523   5.530   2.663
11689TIP3   OH235009   1.043   3.888   4.594
11689TIP3    H135010   0.998   3.804   4.604
11689TIP3    H235011   1.136   3.866   4.605
11690TIP3   OH235012   3.043   4.161   4.659
11690TIP3    H135013   3.022   4.163   4.566
11690TIP3    H235014   3.139   4.154   4.661
11691TIP3   OH235015   2.646   6.929   1.773
11691TIP3    H135016   2.707   6.975   1.715
11691TIP3    H235017   2.562   6.932   1.728
11692TIP3   OH235018   7.217   4.792   3.388
11692TIP3    H135019   7.133   4.804   3.345
11692TIP3    H235020   7.243   4.880   3.416
11693TIP3   OH235021   5.707   4.743   1.717
11693TIP3    H135022   5.745   4.698   1.792
11693TIP3    H235023   5.676   4.673   1.660
11694TIP3   OH235024   2.148   0.206   0.915
11694TIP3    H135025   2.053   0.205   0.908
11694TIP3    H235026   2.166   0.223   1.008
11695TIP3   OH235027   1.963   0.507   5.490
11695TIP3    H135028   2.037   0.516   5.429
11695TIP3    H235029   1.987   0.562   5.564
11696TIP3   OH235030   5.211   0.074   5.206
11696TIP3    H135031   5.162   0.127   5.143
11696TIP3    H235032   5.147   0.016   5.245
11697TIP3   OH235033   1.746   3.457   0.000
11697TIP3    H135034   1.821   3.425  -0.049
11697TIP3    H235035   1.735   3.394   0.071
11698TIP3   OH235036   7.289   6.539   0.290
11698TIP3    H135037   7.194   6.540   0.296
11698TIP3    H235038   7.319   6.539   0.381
11699TIP3   OH235039   0.014   7.589   1.899
11699TIP3    H135040   0.064   7.533   1.840
11699TIP3    H235041   0.068   7.668   1.909
11700TIP3   OH235042   6.907   6.600   4.467
11700TIP3    H135043   6.919   6.557   4.382
11700TIP3    H235044   6.832   6.658   4.453
11701TIP3   OH235045   1.710   1.067   1.877
11701TIP3    H135046   1.686   0.978   1.853
11701TIP3    H235047   1.806   1.066   1.883
11702TIP3   OH235048   3.222   5.858   5.891
11702TIP3    H135049   3.150   5.859   5.955
11702TIP3    H235050   3.223   5.947   5.856
11703TIP3   OH235051   5.943   0.826   3.545
11703TIP3    H135052   5.904   0.740   3.529
11703TIP3    H235053   5.984   0.819   3.631
11704TIP3   OH235054   0.649   6.598   3.186
11704TIP3    H135055   0.688   6.512   3.199
11704TIP3    H235056   0.665   6.618   3.093
11705TIP3   OH235057   7.419   5.500   2.428
11705TIP3    H135058   7.493   5.494   2.489
11705TIP3    H235059   7.376   5.414   2.434
11706TIP3   OH235060   0.584   7.378   1.399
11706TIP3    H135061   0.526   7.439   1.444
11706TIP3    H235062   0.556   7.382   1.307
11707TIP3   OH235063   5.111   1.586   2.917
11707TIP3    H135064   5.101   1.502   2.871
11707TIP3    H235065   5.205   1.596   2.927
11708TIP3   OH235066   5.826   0.551   3.013
11708TIP3    H135067   5.777   0.606   2.952
11708TIP3    H235068   5.870   0.613   3.071
11709TIP3   OH235069   4.160   1.685   5.980
11709TIP3    H135070   4.141   1.592   5.972
11709TIP3    H235071   4.201   1.693   6.066
11710TIP3   OH235072   0.454   5.187   5.934
11710TIP3    H135073   0.374   5.150   5.897
11710TIP3    H235074   0.451   5.280   5.912
11711TIP3   OH235075   6.576   3.044   3.365
11711TIP3    H135076   6.565   3.139   3.364
11711TIP3    H235077   6.524   3.014   3.439
11712TIP3   OH235078   3.624   5.013   6.607
11712TIP3    H135079   3.700   4.955   6.607
11712TIP3    H235080   3.660   5.099   6.628
11713TIP3   OH235081   7.283   6.051   2.934
11713TIP3    H135082   7.350   5.993   2.896
11713TIP3    H235083   7.240   6.091   2.858
11714TIP3   OH235084   6.574   0.182   0.790
11714TIP3    H135085   6.578   0.259   0.733
11714TIP3    H235086   6.500   0.131   0.756
11715TIP3   OH235087   4.317   1.996   4.472
11715TIP3    H135088   4.411   2.013   4.485
11715TIP3    H235089   4.274   2.053   4.535
11716TIP3   OH235090   2.637   6.644   0.343
11716TIP3    H135091   2.688   6.658   0.423
11716TIP3    H235092   2.549   6.672   0.366
11717TIP3   OH235093   1.908   4.861   6.330
11717TIP3    H135094   1.879   4.785   6.281
11717TIP3    H235095   1.968   4.826   6.397
11718TIP3   OH235096   4.803   1.666   0.909
11718TIP3    H135097   4.764   1.687   0.993
11718TIP3    H235098   4.739   1.696   0.844
11719TIP3   OH235099   1.663   1.674   3.557
11719TIP3    H135100   1.630   1.665   3.468
11719TIP3    H235101   1.706   1.591   3.575
11720TIP3   OH235102   3.923   3.946   4.204
11720TIP3    H135103   3.883   4.022   4.162
11720TIP3    H235104   3.906   3.873   4.144
11721TIP3   OH235105   1.280   7.002   6.415
11721TIP3    H135106   1.221   7.077   6.403
11721TIP3    H235107   1.254   6.965   6.500
11722TIP3   OH235108   5.976   5.207   5.754
11722TIP3    H135109   5.978   5.246   5.841
11722TIP3    H235110   6.027   5.126   5.762
11723TIP3   OH235111   2.391   0.625   0.221
11723TIP3    H135112   2.335   0.548   0.228
11723TIP3    H235113   2.357   0.686   0.287
11724TIP3   OH235114   2.837   5.114   3.295
11724TIP3    H135115   2.764   5.072   3.341
11724TIP3    H235116   2.796   5.182   3.242
11725TIP3   OH235117   2.369   5.008   2.477
11725TIP3    H135118   2.328   5.086   2.438
11725TIP3    H235119   2.298   4.945   2.484
11726TIP3   OH235120   3.107   0.541   0.729
11726TIP3    H135121   3.145   0.511   0.646
11726TIP3    H235122   3.065   0.625   0.707
11727TIP3   OH235123   5.400   5.906   3.631
11727TIP3    H135124   5.334   5.893   3.563
11727TIP3    H235125   5.351   5.939   3.706
11728TIP3   OH235126   5.691   5.420   5.193
11728TIP3    H135127   5.659   5.498   5.148
11728TIP3    H235128   5.776   5.446   5.229
11729TIP3   OH235129   2.814   7.168   0.386
11729TIP3    H135130   2.813   7.258   0.353
11729TIP3    H235131   2.892   7.164   0.442
11730TIP3   OH235132   6.959   3.119   0.065
11730TIP3    H135133   7.023   3.085   0.128
11730TIP3    H235134   6.878   3.072   0.086
11731TIP3   OH235135   7.059   5.288   6.027
11731TIP3    H135136   6.989   5.320   6.083
11731TIP3    H235137   7.028   5.305   5.938
11732TIP3   OH235138   0.059   1.047   2.956
11732TIP3    H135139   0.096   0.982   3.016
11732TIP3    H235140   0.037   0.998   2.877
11733TIP3   OH235141   4.146   2.680   4.160
11733TIP3    H135142   4.110   2.740   4.226
11733TIP3    H235143   4.186   2.609   4.210
11734TIP3   OH235144   3.316   6.437   3.884
11734TIP3    H135145   3.404   6.419   3.850
11734TIP3    H235146   3.299   6.366   3.946
11735TIP3   OH235147   3.599   4.064   4.741
11735TIP3    H135148   3.667   4.079   4.807
11735TIP3    H235149   3.625   4.119   4.668
11736TIP3   OH235150   3.708   0.752   2.404
11736TIP3    H135151   3.638   0.738   2.340
11736TIP3    H235152   3.671   0.721   2.487
11737TIP3   OH235153   4.231   3.564   6.339
11737TIP3    H135154   4.211   3.475   6.369
11737TIP3    H235155   4.184   3.620   6.401
11738TIP3   OH235156   2.094   4.392   5.562
11738TIP3    H135157   2.127   4.480   5.582
11738TIP3    H235158   2.014   4.408   5.511
11739TIP3   OH235159   7.777   7.773   2.983
11739TIP3    H135160   7.791   7.840   2.916
11739TIP3    H235161   7.827   7.804   3.058
11740TIP3   OH235162   2.494   5.798   3.840
11740TIP3    H135163   2.482   5.715   3.795
11740TIP3    H235164   2.553   5.848   3.783
11741TIP3   OH235165   6.395   1.043   5.075
11741TIP3    H135166   6.488   1.041   5.049
11741TIP3    H235167   6.382   1.130   5.110
11742TIP3   OH235168   1.016   3.286   3.525
11742TIP3    H135169   1.002   3.199   3.488
11742TIP3    H235170   0.964   3.344   3.469
11743TIP3   OH235171   3.021   2.470   3.210
11743TIP3    H135172   2.975   2.542   3.166
11743TIP3    H235173   2.963   2.445   3.283
11744TIP3   OH235174   6.535   4.012   3.820
11744TIP3    H135175   6.626   3.990   3.801
11744TIP3    H235176   6.486   3.971   3.748
11745TIP3   OH235177   2.215   6.237   5.198
11745TIP3    H135178   2.201   6.330   5.180
11745TIP3    H235179   2.303   6.219   5.166
11746TIP3   OH235180   4.636   5.331   1.656
11746TIP3    H135181   4.547   5.313   1.686
11746TIP3    H235182   4.641   5.427   1.650
11747TIP3   OH235183   0.413   7.361   5.540
11747TIP3    H135184   0.467   7.312   5.603
11747TIP3    H235185   0.474   7.387   5.471
11748TIP3   OH235186   7.075   6.857   0.459
11748TIP3    H135187   7.166   6.856   0.428
11748TIP3    H235188   7.080   6.901   0.544
11749TIP3   OH235189   6.741   3.856   5.844
11749TIP3    H135190   6.807   3.800   5.804
11749TIP3    H235191   6.708   3.910   5.772
11750TIP3   OH235192   5.672   4.487   1.912
11750TIP3    H135193   5.683   4.397   1.880
11750TIP3    H235194   5.761   4.522   1.913
11751TIP3   OH235195   7.775   7.399   2.285
11751TIP3    H135196   7.841   7.468   2.272
11751TIP3    H235197   7.808   7.326   2.233
11752TIP3   OH235198   2.810   7.154   4.332
11752TIP3    H135199   2.806   7.075   4.277
11752TIP3    H235200   2.898   7.189   4.315
11753TIP3   OH235201   4.927   3.819   1.028
11753TIP3    H135202   4.929   3.790   1.119
11753TIP3    H235203   4.839   3.855   1.017
11754TIP3   OH235204   1.120   4.169   0.982
11754TIP3    H135205   1.112   4.117   0.902
11754TIP3    H235206   1.199   4.222   0.968
11755TIP3   OH235207   6.560   1.955   3.352
11755TIP3    H135208   6.624   2.026   3.355
11755TIP3    H235209   6.477   1.998   3.335
11756TIP3   OH235210   0.173   7.377   4.899
11756TIP3    H135211   0.133   7.428   4.829
11756TIP3    H235212   0.152   7.425   4.979
11757TIP3   OH235213   0.399   0.571   5.661
11757TIP3    H135214   0.448   0.550   5.741
11757TIP3    H235215   0.442   0.649   5.626
11758TIP3   OH235216   6.725   4.599   6.058
11758TIP3    H135217   6.816   4.580   6.079
11758TIP3    H235218   6.702   4.535   5.990
11759TIP3   OH235219   8.190   3.724   1.730
11759TIP3    H135220   8.210   3.777   1.807
11759TIP3    H235221   8.124   3.661   1.760
11760TIP3   OH235222   2.069   7.638   3.513
11760TIP3    H135223   2.066   7.636   3.417
11760TIP3    H235224   2.091   7.548   3.538
11761TIP3   OH235225   1.501   0.195   0.594
11761TIP3    H135226   1.419   0.243   0.577
11761TIP3    H235227   1.473   0.110   0.626
11762TIP3   OH235228   2.566   4.321   4.544
11762TIP3    H135229   2.613   4.379   4.604
11762TIP3    H235230   2.507   4.270   4.601
11763TIP3   OH235231   5.876   2.790   4.919
11763TIP3    H135232   5.870   2.842   4.839
11763TIP3    H235233   5.924   2.845   4.980
11764TIP3   OH235234   8.060   5.593   1.078
11764TIP3    H135235   8.030   5.576   0.989
11764TIP3    H235236   7.981   5.588   1.131
11765TIP3   OH235237   1.478   7.295   2.069
11765TIP3    H135238   1.498   7.213   2.023
11765TIP3    H235239   1.428   7.347   2.007
11766TIP3   OH235240   0.534   1.588   0.908
11766TIP3    H135241   0.593   1.584   0.983
11766TIP3    H235242   0.520   1.682   0.893
11767TIP3   OH235243   1.230   0.255   2.018
11767TIP3    H135244   1.257   0.164   2.032
11767TIP3    H235245   1.279   0.284   1.941
11768TIP3   OH235246   0.674   4.693   5.864
11768TIP3    H135247   0.601   4.689   5.926
11768TIP3    H235248   0.743   4.641   5.904
11769TIP3   OH235249   2.480   2.567   2.700
11769TIP3    H135250   2.476   2.495   2.763
11769TIP3    H235251   2.558   2.548   2.647
11770TIP3   OH235252   5.394   0.251   1.415
11770TIP3    H135253   5.481   0.255   1.376
11770TIP3    H235254   5.409   0.262   1.509
11771TIP3   OH235255   1.750   6.234   5.203
11771TIP3    H135256   1.696   6.241   5.124
11771TIP3    H235257   1.756   6.140   5.220
11772TIP3   OH235258   4.504   7.777   6.614
11772TIP3    H135259   4.464   7.697   6.580
11772TIP3    H235260   4.476   7.845   6.552
11773TIP3   OH235261   5.776   1.403   5.537
11773TIP3    H135262   5.735   1.343   5.598
11773TIP3    H235263   5.850   1.354   5.501
11774TIP3   OH235264   6.013   4.431   4.146
11774TIP3    H135265   5.990   4.479   4.066
11774TIP3    H235266   6.105   4.454   4.163
11775TIP3   OH235267   0.838   7.326   3.788
11775TIP3    H135268   0.891   7.397   3.823
11775TIP3    H235269   0.901   7.266   3.748
11776TIP3   OH235270   7.089   6.700   0.831
11776TIP3    H135271   7.126   6.710   0.743
11776TIP3    H235272   7.067   6.607   0.838
11777TIP3   OH235273   4.029   5.740   6.712
11777TIP3    H135274   4.118   5.736   6.675
11777TIP3    H235275   4.004   5.648   6.725
11778TIP3   OH235276   8.177   1.718   6.451
11778TIP3    H135277   8.143   1.779   6.515
11778TIP3    H235278   8.152   1.755   6.366
11779TIP3   OH235279   0.426   5.007   5.178
11779TIP3    H135280   0.331   5.021   5.184
11779TIP3    H235281   0.436   4.913   5.165
11780TIP3   OH235282   6.787   3.197   0.935
11780TIP3    H135283   6.768   3.235   1.020
11780TIP3    H235284   6.788   3.102   0.950
11781TIP3   OH235285   6.914   6.792   1.082
11781TIP3    H135286   6.947   6.765   1.167
11781TIP3    H235287   6.919   6.713   1.028
11782TIP3   OH235288   8.278   2.119   4.679
11782TIP3    H135289   8.196   2.170   4.686
11782TIP3    H235290   8.297   2.094   4.770
11783TIP3   OH235291   0.568   1.305   2.001
11783TIP3    H135292   0.609   1.245   2.063
11783TIP3    H235293   0.504   1.251   1.954
11784TIP3   OH235294   4.455   3.646   1.058
11784TIP3    H135295   4.515   3.580   1.093
11784TIP3    H235296   4.471   3.646   0.964
11785TIP3   OH235297   1.891   4.237   4.470
11785TIP3    H135298   1.846   4.317   4.499
11785TIP3    H235299   1.821   4.184   4.431
11786TIP3   OH235300   0.331   3.424   6.008
11786TIP3    H135301   0.258   3.472   6.048
11786TIP3    H235302   0.330   3.454   5.916
11787TIP3   OH235303   2.512   0.652   2.692
11787TIP3    H135304   2.471   0.623   2.610
11787TIP3    H235305   2.606   0.639   2.677
11788TIP3   OH235306   3.961   3.417   3.749
11788TIP3    H135307   4.032   3.419   3.685
11788TIP3    H235308   3.926   3.506   3.749
11789TIP3   OH235309   8.067   5.886   6.502
11789TIP3    H135310   8.141   5.916   6.449
11789TIP3    H235311   8.031   5.966   6.541
11790TIP3   OH235312   7.979   4.434   2.670
11790TIP3    H135313   8.066   4.435   2.710
11790TIP3    H235314   7.950   4.343   2.677
11791TIP3   OH235315   2.152   5.920   0.864
11791TIP3    H135316   2.152   5.829   0.834
11791TIP3    H235317   2.110   5.917   0.950
11792TIP3   OH235318   5.435   1.752   2.734
11792TIP3    H135319   5.462   1.769   2.644
11792TIP3    H235320   5.415   1.659   2.737
11793TIP3   OH235321   1.664   1.402   2.703
11793TIP3    H135322   1.736   1.352   2.664
11793TIP3    H235323   1.706   1.482   2.735
11794TIP3   OH235324   2.977   5.216   3.977
11794TIP3    H135325   3.004   5.307   3.967
11794TIP3    H235326   3.057   5.170   4.003
11795TIP3   OH235327   5.885   6.670   4.134
11795TIP3    H135328   5.941   6.620   4.075
11795TIP3    H235329   5.929   6.666   4.218
11796TIP3   OH235330   7.831   4.544   3.063
11796TIP3    H135331   7.767   4.609   3.031
11796TIP3    H235332   7.815   4.467   3.009
11797TIP3   OH235333   6.637   7.344   0.296
11797TIP3    H135334   6.672   7.275   0.238
11797TIP3    H235335   6.564   7.381   0.248
11798TIP3   OH235336   5.423   3.052   6.542
11798TIP3    H135337   5.462   3.135   6.568
11798TIP3    H235338   5.341   3.076   6.498
11799TIP3   OH235339   7.387   2.865   3.836
11799TIP3    H135340   7.438   2.810   3.776
11799TIP3    H235341   7.296   2.837   3.822
11800TIP3   OH235342   4.396   3.929   6.573
11800TIP3    H135343   4.312   3.916   6.529
11800TIP3    H235344   4.406   3.852   6.629
11801TIP3   OH235345   0.443   0.322   3.167
11801TIP3    H135346   0.396   0.252   3.212
11801TIP3    H235347   0.378   0.392   3.156
11802TIP3   OH235348   8.181   3.774   6.268
11802TIP3    H135349   8.094   3.735   6.275
11802TIP3    H235350   8.235   3.724   6.329
11803TIP3   OH235351   7.040   1.561   1.338
11803TIP3    H135352   6.945   1.550   1.336
11803TIP3    H235353   7.064   1.583   1.248
11804TIP3   OH235354   6.802   6.944   4.076
11804TIP3    H135355   6.834   6.854   4.068
11804TIP3    H235356   6.878   6.998   4.052
11805TIP3   OH235357   6.109   5.916   4.336
11805TIP3    H135358   6.074   5.918   4.424
11805TIP3    H235359   6.196   5.875   4.345
11806TIP3   OH235360   7.144   3.056   1.429
11806TIP3    H135361   7.126   3.125   1.494
11806TIP3    H235362   7.197   2.992   1.477
11807TIP3   OH235363   5.897   5.072   3.498
11807TIP3    H135364   5.957   4.998   3.484
11807TIP3    H235365   5.949   5.150   3.479
11808TIP3   OH235366   7.038   1.827   6.014
11808TIP3    H135367   7.098   1.801   5.943
11808TIP3    H235368   7.059   1.919   6.030
11809TIP3   OH235369   7.256   2.129   3.659
11809TIP3    H135370   7.319   2.146   3.589
11809TIP3    H235371   7.298   2.063   3.714
11810TIP3   OH235372   7.245   7.402   1.170
11810TIP3    H135373   7.164   7.352   1.161
11810TIP3    H235374   7.280   7.374   1.255
11811TIP3   OH235375   6.443   7.158   0.422
11811TIP3    H135376   6.365   7.212   0.434
11811TIP3    H235377   6.514   7.220   0.407
11812TIP3   OH235378   0.971   7.095   2.453
11812TIP3    H135379   0.924   7.177   2.452
11812TIP3    H235380   1.056   7.116   2.493
11813TIP3   OH235381   4.681   5.257   6.688
11813TIP3    H135382   4.670   5.167   6.718
11813TIP3    H235383   4.772   5.278   6.708
11814TIP3   OH235384   6.953   6.457   4.228
11814TIP3    H135385   6.998   6.422   4.151
11814TIP3    H235386   6.899   6.384   4.259
11815TIP3   OH235387   5.981   6.251   1.096
11815TIP3    H135388   5.949   6.180   1.042
11815TIP3    H235389   6.076   6.247   1.088
11816TIP3   OH235390   4.048   6.405   1.917
11816TIP3    H135391   4.067   6.490   1.879
11816TIP3    H235392   3.953   6.405   1.929
11817TIP3   OH235393   1.634   5.721   3.578
11817TIP3    H135394   1.687   5.655   3.534
11817TIP3    H235395   1.676   5.733   3.663
11818TIP3   OH235396   5.220   0.154   3.925
11818TIP3    H135397   5.280   0.216   3.966
11818TIP3    H235398   5.266   0.070   3.929
11819TIP3   OH235399   1.061   6.785   1.273
11819TIP3    H135400   1.117   6.749   1.343
11819TIP3    H235401   0.991   6.720   1.264
11820TIP3   OH235402   7.214   6.189   4.831
11820TIP3    H135403   7.241   6.138   4.907
11820TIP3    H235404   7.203   6.278   4.864
11821TIP3   OH235405   7.847   6.185   0.882
11821TIP3    H135406   7.763   6.188   0.837
11821TIP3    H235407   7.846   6.261   0.940
11822TIP3   OH235408   8.103   2.557   0.704
11822TIP3    H135409   8.064   2.643   0.717
11822TIP3    H235410   8.124   2.554   0.611
11823TIP3   OH235411   1.396   3.774   5.581
11823TIP3    H135412   1.383   3.684   5.611
11823TIP3    H235413   1.317   3.821   5.611
11824TIP3   OH235414   0.840   2.753   4.406
11824TIP3    H135415   0.839   2.741   4.311
11824TIP3    H235416   0.916   2.704   4.436
11825TIP3   OH235417   0.913   2.539   0.875
11825TIP3    H135418   0.972   2.585   0.816
11825TIP3    H235419   0.859   2.608   0.914
11826TIP3   OH235420   2.601   2.885   1.140
11826TIP3    H135421   2.623   2.799   1.103
11826TIP3    H235422   2.608   2.872   1.234
11827TIP3   OH235423   6.601   4.470   5.852
11827TIP3    H135424   6.574   4.380   5.834
11827TIP3    H235425   6.588   4.515   5.768
11828TIP3   OH235426   0.897   6.455   4.610
11828TIP3    H135427   0.974   6.401   4.594
11828TIP3    H235428   0.826   6.409   4.565
11829TIP3   OH235429   6.102   7.250   5.914
11829TIP3    H135430   6.176   7.195   5.884
11829TIP3    H235431   6.078   7.301   5.836
11830TIP3   OH235432   0.377   2.292   0.502
11830TIP3    H135433   0.423   2.255   0.426
11830TIP3    H235434   0.389   2.226   0.571
11831TIP3   OH235435   1.871   6.299   2.365
11831TIP3    H135436   1.857   6.352   2.444
11831TIP3    H235437   1.829   6.349   2.296
11832TIP3   OH235438   3.507   4.246   1.732
11832TIP3    H135439   3.478   4.333   1.760
11832TIP3    H235440   3.510   4.251   1.637
11833TIP3   OH235441   6.654   6.259   1.641
11833TIP3    H135442   6.595   6.295   1.707
11833TIP3    H235443   6.604   6.261   1.560
11834TIP3   OH235444   7.762   3.649   5.345
11834TIP3    H135445   7.731   3.597   5.420
11834TIP3    H235446   7.790   3.732   5.384
11835TIP3   OH235447   1.275   1.451   4.721
11835TIP3    H135448   1.278   1.546   4.709
11835TIP3    H235449   1.238   1.417   4.640
11836TIP3   OH235450   0.848   6.631   1.273
11836TIP3    H135451   0.767   6.672   1.243
11836TIP3    H235452   0.824   6.588   1.355
11837TIP3   OH235453   5.922   5.793   3.834
11837TIP3    H135454   5.990   5.784   3.768
11837TIP3    H235455   5.968   5.825   3.911
11838TIP3   OH235456   2.752   1.055   5.702
11838TIP3    H135457   2.783   1.081   5.789
11838TIP3    H235458   2.829   1.063   5.646
11839TIP3   OH235459   5.002   5.443   2.129
11839TIP3    H135460   4.936   5.425   2.062
11839TIP3    H235461   5.012   5.360   2.175
11840TIP3   OH235462   5.458   5.696   5.693
11840TIP3    H135463   5.439   5.739   5.777
11840TIP3    H235464   5.373   5.684   5.652
11841TIP3   OH235465   7.501   1.784   3.560
11841TIP3    H135466   7.582   1.743   3.590
11841TIP3    H235467   7.435   1.714   3.569
11842TIP3   OH235468   3.881   2.129   1.201
11842TIP3    H135469   3.960   2.075   1.195
11842TIP3    H235470   3.900   2.190   1.273
11843TIP3   OH235471   1.600   7.568   3.638
11843TIP3    H135472   1.677   7.567   3.582
11843TIP3    H235473   1.548   7.642   3.606
11844TIP3   OH235474   5.606   3.543   2.884
11844TIP3    H135475   5.677   3.481   2.906
11844TIP3    H235476   5.639   3.590   2.807
11845TIP3   OH235477   3.296   4.052   1.141
11845TIP3    H135478   3.230   4.058   1.210
11845TIP3    H235479   3.304   4.141   1.108
11846TIP3   OH235480   4.702   5.376   3.749
11846TIP3    H135481   4.697   5.333   3.834
11846TIP3    H235482   4.793   5.404   3.741
11847TIP3   OH235483   6.516   3.428   0.822
11847TIP3    H135484   6.508   3.483   0.744
11847TIP3    H235485   6.568   3.481   0.883
11848TIP3   OH235486   5.243   3.561   3.380
11848TIP3    H135487   5.229   3.475   3.421
11848TIP3    H235488   5.191   3.558   3.300
11849TIP3   OH235489   4.051   0.284   0.646
11849TIP3    H135490   3.970   0.286   0.595
11849TIP3    H235491   4.032   0.337   0.723
11850TIP3   OH235492   6.086   1.780   1.083
11850TIP3    H135493   6.017   1.718   1.058
11850TIP3    H235494   6.165   1.726   1.090
11851TIP3   OH235495   3.553   1.011   6.319
11851TIP3    H135496   3.470   0.964   6.326
11851TIP3    H235497   3.546   1.061   6.238
11852TIP3   OH235498   3.723   1.577   1.703
11852TIP3    H135499   3.729   1.632   1.625
11852TIP3    H235500   3.814   1.557   1.725
11853TIP3   OH235501   2.331   4.541   3.798
11853TIP3    H135502   2.333   4.604   3.870
11853TIP3    H235503   2.240   4.511   3.795
11854TIP3   OH235504   1.984   2.765   1.593
11854TIP3    H135505   1.992   2.763   1.688
11854TIP3    H235506   1.968   2.674   1.568
11855TIP3   OH235507   0.914   5.039   0.652
11855TIP3    H135508   0.958   5.041   0.568
11855TIP3    H235509   0.897   4.946   0.668
11856TIP3   OH235510   2.109   2.713   4.698
11856TIP3    H135511   2.140   2.742   4.784
11856TIP3    H235512   2.171   2.753   4.637
11857TIP3   OH235513   7.810   4.086  -0.009
11857TIP3    H135514   7.731   4.088   0.044
11857TIP3    H235515   7.829   3.993  -0.021
11858TIP3   OH235516   1.866   4.891   0.683
11858TIP3    H135517   1.923   4.907   0.758
11858TIP3    H235518   1.786   4.855   0.722
11859TIP3   OH235519   3.783   6.694   2.002
11859TIP3    H135520   3.787   6.714   1.908
11859TIP3    H235521   3.691   6.679   2.020
11860TIP3   OH235522   7.227   4.008   0.022
11860TIP3    H135523   7.206   4.007   0.116
11860TIP3    H235524   7.142   4.016  -0.021
11861TIP3   OH235525   5.818   4.914   2.052
11861TIP3    H135526   5.910   4.888   2.044
11861TIP3    H235527   5.820   4.988   2.113
11862TIP3   OH235528   2.443   4.228   0.741
11862TIP3    H135529   2.480   4.296   0.684
11862TIP3    H235530   2.493   4.149   0.720
11863TIP3   OH235531   1.022   7.500   1.105
11863TIP3    H135532   1.088   7.473   1.169
11863TIP3    H235533   1.004   7.421   1.055
11864TIP3   OH235534   7.974   3.458   2.138
11864TIP3    H135535   8.051   3.434   2.085
11864TIP3    H235536   8.008   3.522   2.201
11865TIP3   OH235537   4.478   1.966   4.886
11865TIP3    H135538   4.384   1.951   4.900
11865TIP3    H235539   4.521   1.909   4.950
11866TIP3   OH235540   1.160   2.951   6.372
11866TIP3    H135541   1.082   2.901   6.395
11866TIP3    H235542   1.196   2.907   6.296
11867TIP3   OH235543   4.358   7.322   5.682
11867TIP3    H135544   4.301   7.387   5.723
11867TIP3    H235545   4.303   7.245   5.670
11868TIP3   OH235546   5.696   7.193   4.789
11868TIP3    H135547   5.776   7.206   4.841
11868TIP3    H235548   5.625   7.193   4.853
11869TIP3   OH235549   2.932   2.643   4.301
11869TIP3    H135550   2.918   2.610   4.390
11869TIP3    H235551   2.867   2.597   4.248
11870TIP3   OH235552   3.185   5.651   1.261
11870TIP3    H135553   3.269   5.606   1.263
11870TIP3    H235554   3.207   5.742   1.240
11871TIP3   OH235555   2.376   7.730   4.954
11871TIP3    H135556   2.299   7.723   5.010
11871TIP3    H235557   2.376   7.649   4.903
11872TIP3   OH235558   5.812   1.437   0.252
11872TIP3    H135559   5.738   1.411   0.306
11872TIP3    H235560   5.848   1.514   0.295
11873TIP3   OH235561   1.492   6.959   3.233
11873TIP3    H135562   1.483   6.918   3.147
11873TIP3    H235563   1.499   7.053   3.214
11874TIP3   OH235564   4.809   4.776   5.974
11874TIP3    H135565   4.793   4.871   5.978
11874TIP3    H235566   4.864   4.758   6.050
11875TIP3   OH235567   1.737   2.532   4.504
11875TIP3    H135568   1.654   2.564   4.469
11875TIP3    H235569   1.737   2.560   4.596
11876TIP3   OH235570   7.758   5.854   5.210
11876TIP3    H135571   7.671   5.873   5.245
11876TIP3    H235572   7.817   5.876   5.282
11877TIP3   OH235573   2.609   2.885   5.615
11877TIP3    H135574   2.587   2.799   5.652
11877TIP3    H235575   2.699   2.901   5.645
11878TIP3   OH235576   8.105   4.445   3.612
11878TIP3    H135577   8.123   4.503   3.538
11878TIP3    H235578   8.110   4.502   3.689
11879TIP3   OH235579   3.988   1.144   5.125
11879TIP3    H135580   3.899   1.179   5.126
11879TIP3    H235581   4.037   1.200   5.186
11880TIP3   OH235582   6.773   1.043   0.596
11880TIP3    H135583   6.696   1.025   0.542
11880TIP3    H235584   6.836   1.083   0.537
11881TIP3   OH235585   4.733   2.296   3.523
11881TIP3    H135586   4.665   2.310   3.458
11881TIP3    H235587   4.722   2.205   3.551
11882TIP3   OH235588   7.417   1.040   2.455
11882TIP3    H135589   7.445   0.998   2.374
11882TIP3    H235590   7.495   1.040   2.510
11883TIP3   OH235591   7.738   5.751   2.479
11883TIP3    H135592   7.684   5.822   2.514
11883TIP3    H235593   7.710   5.674   2.529
11884TIP3   OH235594   1.959   7.523   1.096
11884TIP3    H135595   1.895   7.459   1.128
11884TIP3    H235596   2.016   7.474   1.037
11885TIP3   OH235597   5.849   5.858   2.947
11885TIP3    H135598   5.903   5.834   2.872
11885TIP3    H235599   5.854   5.783   3.006
11886TIP3   OH235600   5.577   2.904   4.768
11886TIP3    H135601   5.587   2.809   4.770
11886TIP3    H235602   5.576   2.931   4.860
11887TIP3   OH235603   4.211   4.831   3.615
11887TIP3    H135604   4.287   4.885   3.637
11887TIP3    H235605   4.199   4.774   3.691
11888TIP3   OH235606   3.542   7.576   3.959
11888TIP3    H135607   3.455   7.606   3.987
11888TIP3    H235608   3.524   7.497   3.908
11889TIP3   OH235609   8.034   4.333   5.925
11889TIP3    H135610   8.072   4.248   5.905
11889TIP3    H235611   8.094   4.373   5.988
11890TIP3   OH235612   5.207   4.632   1.564
11890TIP3    H135613   5.130   4.618   1.619
11890TIP3    H235614   5.258   4.697   1.611
11891TIP3   OH235615   5.659   3.422   0.070
11891TIP3    H135616   5.704   3.504   0.089
11891TIP3    H235617   5.652   3.378   0.155
11892TIP3   OH235618   5.943   3.616   3.729
11892TIP3    H135619   5.951   3.699   3.776
11892TIP3    H235620   5.852   3.590   3.743
11893TIP3   OH235621   3.769   7.423   3.328
11893TIP3    H135622   3.710   7.349   3.342
11893TIP3    H235623   3.714   7.500   3.340
11894TIP3   OH235624   1.025   5.090   0.401
11894TIP3    H135625   0.999   5.044   0.321
11894TIP3    H235626   1.100   5.143   0.374
11895TIP3   OH235627   8.182   2.630   3.007
11895TIP3    H135628   8.161   2.603   2.918
11895TIP3    H235629   8.275   2.652   3.004
11896TIP3   OH235630   2.406   5.507   2.066
11896TIP3    H135631   2.413   5.521   1.971
11896TIP3    H235632   2.380   5.415   2.074
11897TIP3   OH235633   6.303   3.848   1.102
11897TIP3    H135634   6.263   3.930   1.074
11897TIP3    H235635   6.288   3.844   1.196
11898TIP3   OH235636   6.070   3.354   4.436
11898TIP3    H135637   6.091   3.447   4.443
11898TIP3    H235638   5.974   3.353   4.427
11899TIP3   OH235639   7.469   0.443   3.651
11899TIP3    H135640   7.374   0.433   3.644
11899TIP3    H235641   7.484   0.465   3.743
11900TIP3   OH235642   6.550   2.379   0.611
11900TIP3    H135643   6.571   2.288   0.588
11900TIP3    H235644   6.633   2.426   0.599
11901TIP3   OH235645   7.576   5.946   2.567
11901TIP3    H135646   7.584   5.967   2.660
11901TIP3    H235647   7.552   6.028   2.526
11902TIP3   OH235648   2.044   7.495   5.316
11902TIP3    H135649   1.988   7.571   5.305
11902TIP3    H235650   2.057   7.488   5.411
11903TIP3   OH235651   7.768   1.102   3.107
11903TIP3    H135652   7.713   1.088   3.030
11903TIP3    H235653   7.842   1.042   3.096
11904TIP3   OH235654   0.736   0.624   3.079
11904TIP3    H135655   0.661   0.681   3.097
11904TIP3    H235656   0.729   0.553   3.143
11905TIP3   OH235657   0.739   6.844   0.907
11905TIP3    H135658   0.733   6.779   0.837
11905TIP3    H235659   0.704   6.799   0.984
11906TIP3   OH235660   2.431   3.775   3.256
11906TIP3    H135661   2.371   3.835   3.301
11906TIP3    H235662   2.398   3.771   3.166
11907TIP3   OH235663   8.290   1.271   0.388
11907TIP3    H135664   8.328   1.204   0.445
11907TIP3    H235665   8.252   1.335   0.448
11908TIP3   OH235666   5.143   6.131   2.247
11908TIP3    H135667   5.090   6.185   2.305
11908TIP3    H235668   5.149   6.046   2.292
11909TIP3   OH235669   2.552   7.476   6.573
11909TIP3    H135670   2.585   7.397   6.616
11909TIP3    H235671   2.608   7.546   6.606
11910TIP3   OH235672   5.310   1.619   5.028
11910TIP3    H135673   5.275   1.576   4.950
11910TIP3    H235674   5.347   1.701   4.996
11911TIP3   OH235675   4.811   1.534   2.579
11911TIP3    H135676   4.719   1.514   2.561
11911TIP3    H235677   4.839   1.468   2.641
11912TIP3   OH235678   2.148   1.511   6.307
11912TIP3    H135679   2.236   1.511   6.269
11912TIP3    H235680   2.100   1.577   6.256
11913TIP3   OH235681   1.241   6.684   3.903
11913TIP3    H135682   1.199   6.660   3.820
11913TIP3    H235683   1.322   6.633   3.904
11914TIP3   OH235684   8.075   1.838   4.898
11914TIP3    H135685   8.001   1.822   4.840
11914TIP3    H235686   8.038   1.834   4.986
11915TIP3   OH235687   4.383   6.080   3.984
11915TIP3    H135688   4.310   6.075   4.047
11915TIP3    H235689   4.350   6.035   3.906
11916TIP3   OH235690   0.042   1.338   4.624
11916TIP3    H135691  -0.026   1.403   4.640
11916TIP3    H235692   0.124   1.386   4.636
11917TIP3   OH235693   2.498   3.633   2.902
11917TIP3    H135694   2.421   3.690   2.908
11917TIP3    H235695   2.462   3.544   2.912
11918TIP3   OH235696   7.369   2.272   4.793
11918TIP3    H135697   7.352   2.347   4.736
11918TIP3    H235698   7.379   2.198   4.733
11919TIP3   OH235699   7.361   2.623   0.039
11919TIP3    H135700   7.285   2.676   0.062
11919TIP3    H235701   7.419   2.683  -0.007
11920TIP3   OH235702   4.051   3.204   1.567
11920TIP3    H135703   3.968   3.167   1.596
11920TIP3    H235704   4.069   3.161   1.484
11921TIP3   OH235705   3.837   2.629   3.754
11921TIP3    H135706   3.813   2.570   3.825
11921TIP3    H235707   3.889   2.698   3.796
11922TIP3   OH235708   2.205   1.760   6.093
11922TIP3    H135709   2.192   1.806   6.010
11922TIP3    H235710   2.116   1.742   6.125
11923TIP3   OH235711   1.127   3.759   2.230
11923TIP3    H135712   1.195   3.813   2.270
11923TIP3    H235713   1.161   3.737   2.143
11924TIP3   OH235714   0.064   1.685   3.832
11924TIP3    H135715  -0.029   1.699   3.846
11924TIP3    H235716   0.073   1.591   3.818
11925TIP3   OH235717   5.871   3.624   4.813
11925TIP3    H135718   5.837   3.543   4.777
11925TIP3    H235719   5.964   3.607   4.828
11926TIP3   OH235720   6.735   0.590   0.466
11926TIP3    H135721   6.789   0.560   0.393
11926TIP3    H235722   6.703   0.676   0.438
11927TIP3   OH235723   8.332   0.132   2.569
11927TIP3    H135724   8.282   0.086   2.635
11927TIP3    H235725   8.287   0.216   2.558
11928TIP3   OH235726   7.219   4.386   4.267
11928TIP3    H135727   7.299   4.398   4.318
11928TIP3    H235728   7.177   4.310   4.307
11929TIP3   OH235729   2.719   4.324   4.331
11929TIP3    H135730   2.688   4.344   4.419
11929TIP3    H235731   2.731   4.229   4.331
11930TIP3   OH235732   3.776   1.756   1.515
11930TIP3    H135733   3.705   1.784   1.457
11930TIP3    H235734   3.838   1.829   1.514
11931TIP3   OH235735   7.365   0.258   1.488
11931TIP3    H135736   7.288   0.275   1.435
11931TIP3    H235737   7.406   0.181   1.448
11932TIP3   OH235738   2.023   6.216   6.317
11932TIP3    H135739   2.046   6.139   6.369
11932TIP3    H235740   2.074   6.206   6.236
11933TIP3   OH235741   4.805   0.437   0.538
11933TIP3    H135742   4.755   0.376   0.593
11933TIP3    H235743   4.821   0.513   0.594
11934TIP3   OH235744   3.811   7.668   6.064
11934TIP3    H135745   3.727   7.668   6.109
11934TIP3    H235746   3.806   7.741   6.003
11935TIP3   OH235747   7.222   3.443   0.718
11935TIP3    H135748   7.236   3.505   0.790
11935TIP3    H235749   7.131   3.415   0.727
11936TIP3   OH235750   4.278   5.859   1.337
11936TIP3    H135751   4.312   5.771   1.316
11936TIP3    H235752   4.246   5.852   1.427
11937TIP3   OH235753   8.172   0.484   5.025
11937TIP3    H135754   8.211   0.410   4.978
11937TIP3    H235755   8.196   0.470   5.116
11938TIP3   OH235756   2.718   1.172   4.589
11938TIP3    H135757   2.660   1.247   4.603
11938TIP3    H235758   2.669   1.113   4.532
11939TIP3   OH235759   0.978   2.373   3.487
11939TIP3    H135760   1.040   2.416   3.546
11939TIP3    H235761   0.900   2.429   3.490
11940TIP3   OH235762   6.433   1.818   6.364
11940TIP3    H135763   6.359   1.815   6.303
11940TIP3    H235764   6.511   1.808   6.309
11941TIP3   OH235765   8.038   5.961   1.321
11941TIP3    H135766   8.075   5.884   1.363
11941TIP3    H235767   7.964   5.928   1.270
11942TIP3   OH235768   6.371   2.645   0.526
11942TIP3    H135769   6.369   2.612   0.616
11942TIP3    H235770   6.350   2.568   0.472
11943TIP3   OH235771   6.722   7.493   3.340
11943TIP3    H135772   6.634   7.476   3.306
11943TIP3    H235773   6.779   7.443   3.282
11944TIP3   OH235774   1.911   7.651   1.468
11944TIP3    H135775   1.931   7.656   1.562
11944TIP3    H235776   1.911   7.557   1.449
11945TIP3   OH235777   4.377   7.735   6.251
11945TIP3    H135778   4.396   7.670   6.318
11945TIP3    H235779   4.307   7.695   6.198
11946TIP3   OH235780   1.510   6.616   5.504
11946TIP3    H135781   1.547   6.651   5.423
11946TIP3    H235782   1.571   6.549   5.532
11947TIP3   OH235783   7.975   7.106   2.915
11947TIP3    H135784   7.946   7.019   2.889
11947TIP3    H235785   7.899   7.145   2.957
11948TIP3   OH235786   1.846   2.455   3.099
11948TIP3    H135787   1.927   2.420   3.136
11948TIP3    H235788   1.791   2.378   3.084
11949TIP3   OH235789   0.158   6.923   1.306
11949TIP3    H135790   0.150   6.879   1.221
11949TIP3    H235791   0.092   6.881   1.361
11950TIP3   OH235792   6.879   1.504   0.818
11950TIP3    H135793   6.784   1.513   0.810
11950TIP3    H235794   6.892   1.411   0.839
11951TIP3   OH235795   0.084   2.165   3.549
11951TIP3    H135796   0.035   2.091   3.586
11951TIP3    H235797   0.061   2.239   3.605
11952TIP3   OH235798   3.855   7.236   2.837
11952TIP3    H135799   3.815   7.315   2.800
11952TIP3    H235800   3.823   7.165   2.782
11953TIP3   OH235801   4.703   0.278   0.737
11953TIP3    H135802   4.691   0.184   0.738
11953TIP3    H235803   4.677   0.307   0.825
11954TIP3   OH235804   2.300   5.403   0.990
11954TIP3    H135805   2.214   5.444   0.995
11954TIP3    H235806   2.285   5.312   1.018
11955TIP3   OH235807   0.423   3.056   5.636
11955TIP3    H135808   0.395   3.124   5.575
11955TIP3    H235809   0.446   2.982   5.580
11956TIP3   OH235810   3.587   7.594   0.141
11956TIP3    H135811   3.570   7.637   0.057
11956TIP3    H235812   3.508   7.610   0.192
11957TIP3   OH235813   0.802   1.309   0.380
11957TIP3    H135814   0.862   1.241   0.411
11957TIP3    H235815   0.848   1.349   0.306
11958TIP3   OH235816   2.712   6.543   5.345
11958TIP3    H135817   2.650   6.577   5.408
11958TIP3    H235818   2.659   6.517   5.270
11959TIP3   OH235819   6.622   6.485   4.749
11959TIP3    H135820   6.532   6.517   4.757
11959TIP3    H235821   6.639   6.482   4.655
11960TIP3   OH235822   0.279   5.458   6.610
11960TIP3    H135823   0.351   5.489   6.666
11960TIP3    H235824   0.267   5.529   6.547
11961TIP3   OH235825   5.218   7.381   1.129
11961TIP3    H135826   5.161   7.396   1.204
11961TIP3    H235827   5.306   7.379   1.165
11962TIP3   OH235828   4.817   3.968   5.219
11962TIP3    H135829   4.745   4.002   5.166
11962TIP3    H235830   4.806   3.873   5.217
11963TIP3   OH235831   6.555   1.453   2.253
11963TIP3    H135832   6.562   1.380   2.191
11963TIP3    H235833   6.461   1.471   2.258
11964TIP3   OH235834   6.216   3.016   1.072
11964TIP3    H135835   6.272   3.094   1.066
11964TIP3    H235836   6.134   3.049   1.108
11965TIP3   OH235837   1.590   5.703   2.208
11965TIP3    H135838   1.579   5.739   2.296
11965TIP3    H235839   1.673   5.739   2.177
11966TIP3   OH235840   1.683   0.304   1.421
11966TIP3    H135841   1.635   0.347   1.350
11966TIP3    H235842   1.615   0.259   1.471
11967TIP3   OH235843   2.883   4.722   5.894
11967TIP3    H135844   2.967   4.764   5.907
11967TIP3    H235845   2.822   4.794   5.876
11968TIP3   OH235846   3.298   2.543   4.215
11968TIP3    H135847   3.247   2.608   4.264
11968TIP3    H235848   3.341   2.491   4.282
11969TIP3   OH235849   4.449   2.624   2.193
11969TIP3    H135850   4.531   2.656   2.230
11969TIP3    H235851   4.412   2.568   2.261
11970TIP3   OH235852   6.039   4.990   2.718
11970TIP3    H135853   6.030   4.954   2.630
11970TIP3    H235854   6.015   4.918   2.776
11971TIP3   OH235855   5.422   2.038   2.116
11971TIP3    H135856   5.379   1.953   2.120
11971TIP3    H235857   5.376   2.092   2.180
11972TIP3   OH235858   5.824   4.173   0.299
11972TIP3    H135859   5.839   4.201   0.209
11972TIP3    H235860   5.749   4.225   0.329
11973TIP3   OH235861   6.802   5.174   1.219
11973TIP3    H135862   6.838   5.263   1.218
11973TIP3    H235863   6.746   5.170   1.141
11974TIP3   OH235864   2.741   7.662   0.103
11974TIP3    H135865   2.739   7.726   0.032
11974TIP3    H235866   2.705   7.582   0.063
11975TIP3   OH235867   5.903   6.771   6.235
11975TIP3    H135868   5.866   6.855   6.212
11975TIP3    H235869   5.961   6.749   6.162
11976TIP3   OH235870   8.179   0.982   3.744
11976TIP3    H135871   8.182   1.015   3.655
11976TIP3    H235872   8.261   1.011   3.783
11977TIP3   OH235873   2.796   5.135   4.414
11977TIP3    H135874   2.883   5.098   4.397
11977TIP3    H235875   2.812   5.209   4.472
11978TIP3   OH235876   6.897   6.848   5.736
11978TIP3    H135877   6.811   6.856   5.696
11978TIP3    H235878   6.912   6.753   5.742
11979TIP3   OH235879   1.171   5.761   5.743
11979TIP3    H135880   1.110   5.785   5.813
11979TIP3    H235881   1.212   5.844   5.717
11980TIP3   OH235882   0.493   2.034   4.663
11980TIP3    H135883   0.443   2.066   4.588
11980TIP3    H235884   0.464   1.944   4.675
11981TIP3   OH235885   2.721   0.687   3.595
11981TIP3    H135886   2.630   0.698   3.565
11981TIP3    H235887   2.772   0.683   3.515
11982TIP3   OH235888   3.562   2.617   6.720
11982TIP3    H135889   3.574   2.533   6.763
11982TIP3    H235890   3.615   2.678   6.770
11983TIP3   OH235891   4.239   2.203   2.291
11983TIP3    H135892   4.256   2.222   2.199
11983TIP3    H235893   4.190   2.121   2.290
11984TIP3   OH235894   1.908   5.683   2.331
11984TIP3    H135895   1.905   5.635   2.249
11984TIP3    H235896   1.922   5.774   2.305
11985TIP3   OH235897   5.007   4.736   0.918
11985TIP3    H135898   4.936   4.798   0.933
11985TIP3    H235899   5.070   4.753   0.987
11986TIP3   OH235900   7.632   3.897   1.968
11986TIP3    H135901   7.571   3.842   1.920
11986TIP3    H235902   7.578   3.968   2.004
11987TIP3   OH235903   5.559   4.093   6.745
11987TIP3    H135904   5.621   4.166   6.749
11987TIP3    H235905   5.474   4.133   6.764
11988TIP3   OH235906   3.497   1.530   1.897
11988TIP3    H135907   3.570   1.572   1.852
11988TIP3    H235908   3.466   1.463   1.837
11989TIP3   OH235909   1.967   0.147   1.671
11989TIP3    H135910   1.898   0.081   1.665
11989TIP3    H235911   2.020   0.121   1.746
11990TIP3   OH235912   5.770   4.930   2.563
11990TIP3    H135913   5.730   4.847   2.541
11990TIP3    H235914   5.817   4.956   2.484
11991TIP3   OH235915   1.621   7.275   4.020
11991TIP3    H135916   1.638   7.303   3.930
11991TIP3    H235917   1.700   7.300   4.068
11992TIP3   OH235918   7.116   3.678   3.343
11992TIP3    H135919   7.198   3.687   3.295
11992TIP3    H235920   7.060   3.747   3.307
11993TIP3   OH235921   4.494   2.972   0.497
11993TIP3    H135922   4.461   2.891   0.534
11993TIP3    H235923   4.560   3.002   0.558
11994TIP3   OH235924   7.490   4.483   5.162
11994TIP3    H135925   7.412   4.428   5.163
11994TIP3    H235926   7.457   4.572   5.174
11995TIP3   OH235927   0.702   5.621   2.785
11995TIP3    H135928   0.788   5.580   2.790
11995TIP3    H235929   0.685   5.653   2.874
11996TIP3   OH235930   2.059   5.953   3.778
11996TIP3    H135931   2.037   5.860   3.786
11996TIP3    H235932   1.993   5.998   3.831
11997TIP3   OH235933   2.710   4.941   5.837
11997TIP3    H135934   2.763   4.991   5.774
11997TIP3    H235935   2.636   4.997   5.855
11998TIP3   OH235936   0.134   4.537   0.759
11998TIP3    H135937   0.222   4.531   0.723
11998TIP3    H235938   0.120   4.453   0.803
11999TIP3   OH235939   4.327   2.454   6.149
11999TIP3    H135940   4.347   2.483   6.060
11999TIP3    H235941   4.411   2.451   6.193
12000TIP3   OH235942   4.191   5.707   5.168
12000TIP3    H135943   4.231   5.643   5.109
12000TIP3    H235944   4.182   5.787   5.116
12001TIP3   OH235945   2.995   0.860   0.717
12001TIP3    H135946   3.019   0.951   0.698
12001TIP3    H235947   2.899   0.859   0.707
12002TIP3   OH235948   5.758   7.790   5.910
12002TIP3    H135949   5.719   7.761   5.992
12002TIP3    H235950   5.847   7.816   5.934
12003TIP3   OH235951   2.871   2.162   3.044
12003TIP3    H135952   2.906   2.104   3.112
12003TIP3    H235953   2.776   2.162   3.059
12004TIP3   OH235954   0.709   0.195   1.598
12004TIP3    H135955   0.688   0.132   1.667
12004TIP3    H235956   0.770   0.256   1.640
12005TIP3   OH235957   3.292   6.314   1.576
12005TIP3    H135958   3.214   6.258   1.573
12005TIP3    H235959   3.361   6.258   1.613
12006TIP3   OH235960   6.026   2.820   1.929
12006TIP3    H135961   5.997   2.910   1.940
12006TIP3    H235962   6.104   2.813   1.985
12007TIP3   OH235963   2.079   4.299   1.499
12007TIP3    H135964   2.017   4.247   1.449
12007TIP3    H235965   2.165   4.270   1.467
12008TIP3   OH235966   5.919   6.505   4.812
12008TIP3    H135967   5.825   6.486   4.815
12008TIP3    H235968   5.944   6.516   4.904
12009TIP3   OH235969   3.799   6.300   6.222
12009TIP3    H135970   3.766   6.277   6.135
12009TIP3    H235971   3.813   6.394   6.218
12010TIP3   OH235972   4.212   2.067   3.222
12010TIP3    H135973   4.183   2.008   3.292
12010TIP3    H235974   4.191   2.154   3.255
12011TIP3   OH235975   7.537   4.324   5.716
12011TIP3    H135976   7.516   4.407   5.759
12011TIP3    H235977   7.452   4.282   5.701
12012TIP3   OH235978   6.166   4.962   0.359
12012TIP3    H135979   6.133   4.978   0.270
12012TIP3    H235980   6.104   4.900   0.397
12013TIP3   OH235981   0.003   6.504   5.708
12013TIP3    H135982   0.034   6.427   5.756
12013TIP3    H235983   0.019   6.482   5.616
12014TIP3   OH235984   7.278   6.519   3.215
12014TIP3    H135985   7.269   6.531   3.310
12014TIP3    H235986   7.314   6.432   3.205
12015TIP3   OH235987   5.249   6.006   6.060
12015TIP3    H135988   5.155   5.988   6.065
12015TIP3    H235989   5.279   6.002   6.151
12016TIP3   OH235990   5.789   3.319   3.260
12016TIP3    H135991   5.793   3.256   3.188
12016TIP3    H235992   5.718   3.288   3.316
12017TIP3   OH235993   2.363   2.225   3.522
12017TIP3    H135994   2.308   2.161   3.476
12017TIP3    H235995   2.336   2.218   3.614
12018TIP3   OH235996   1.749   6.677   6.112
12018TIP3    H135997   1.804   6.612   6.067
12018TIP3    H235998   1.796   6.696   6.193
12019TIP3   OH235999   4.775   1.700   4.647
12019TIP3    H136000   4.823   1.670   4.569
12019TIP3    H236001   4.694   1.737   4.613
12020TIP3   OH236002   8.176   6.676   2.512
12020TIP3    H136003   8.188   6.770   2.518
12020TIP3    H236004   8.243   6.639   2.568
12021TIP3   OH236005   8.129   3.809   3.390
12021TIP3    H136006   8.145   3.717   3.409
12021TIP3    H236007   8.062   3.836   3.452
12022TIP3   OH236008   2.396   0.413   4.367
12022TIP3    H136009   2.453   0.476   4.324
12022TIP3    H236010   2.455   0.354   4.413
12023TIP3   OH236011   6.016   1.257   4.219
12023TIP3    H136012   6.010   1.178   4.273
12023TIP3    H236013   5.960   1.321   4.264
12024TIP3   OH236014   6.311   6.854   2.085
12024TIP3    H136015   6.251   6.865   2.010
12024TIP3    H236016   6.350   6.768   2.072
12025TIP3   OH236017   4.914   4.120   3.607
12025TIP3    H136018   4.855   4.125   3.532
12025TIP3    H236019   4.991   4.170   3.580
12026TIP3   OH236020   2.627   4.054   4.358
12026TIP3    H136021   2.532   4.067   4.354
12026TIP3    H236022   2.639   3.981   4.419
12027TIP3   OH236023   7.453   2.098   5.211
12027TIP3    H136024   7.544   2.083   5.184
12027TIP3    H236025   7.437   2.190   5.187
12028TIP3   OH236026   0.670   4.399   1.934
12028TIP3    H136027   0.607   4.470   1.934
12028TIP3    H236028   0.656   4.355   1.850
12029TIP3   OH236029   6.602   2.184   5.322
12029TIP3    H136030   6.537   2.226   5.379
12029TIP3    H236031   6.650   2.257   5.283
12030TIP3   OH236032   4.237   4.639   0.201
12030TIP3    H136033   4.303   4.588   0.154
12030TIP3    H236034   4.240   4.605   0.290
12031TIP3   OH236035   6.687   2.817   2.007
12031TIP3    H136036   6.771   2.857   2.030
12031TIP3    H236037   6.704   2.775   1.922
12032TIP3   OH236038   4.149   5.099   2.638
12032TIP3    H136039   4.231   5.066   2.603
12032TIP3    H236040   4.110   5.023   2.682
12033TIP3   OH236041   6.200   3.838   1.955
12033TIP3    H136042   6.122   3.868   2.000
12033TIP3    H236043   6.264   3.825   2.025
12034TIP3   OH236044   0.667   6.969   1.524
12034TIP3    H136045   0.613   7.021   1.464
12034TIP3    H236046   0.756   6.978   1.490
12035TIP3   OH236047   6.758   3.488   2.534
12035TIP3    H136048   6.785   3.551   2.601
12035TIP3    H236049   6.699   3.536   2.477
12036TIP3   OH236050   7.261   1.149   2.991
12036TIP3    H136051   7.275   1.140   3.086
12036TIP3    H236052   7.329   1.210   2.962
12037TIP3   OH236053   7.659   7.101   0.672
12037TIP3    H136054   7.653   7.068   0.582
12037TIP3    H236055   7.569   7.102   0.703
12038TIP3   OH236056   2.964   0.289   1.925
12038TIP3    H136057   3.012   0.364   1.960
12038TIP3    H236058   2.941   0.315   1.836
12039TIP3   OH236059   1.946   4.266   2.562
12039TIP3    H136060   1.858   4.236   2.540
12039TIP3    H236061   1.951   4.257   2.658
12040TIP3   OH236062   0.174   1.909   0.636
12040TIP3    H136063   0.176   1.917   0.541
12040TIP3    H236064   0.263   1.883   0.660
12041TIP3   OH236065   2.110   5.397   2.862
12041TIP3    H136066   2.134   5.439   2.780
12041TIP3    H236067   2.123   5.304   2.846
12042TIP3   OH236068   1.154   3.458   6.676
12042TIP3    H136069   1.155   3.398   6.601
12042TIP3    H236070   1.088   3.423   6.735
12043TIP3   OH236071   1.470   1.606   6.787
12043TIP3    H136072   1.465   1.610   6.692
12043TIP3    H236073   1.510   1.689   6.812
12044TIP3   OH236074   1.599   3.020   3.885
12044TIP3    H136075   1.582   3.109   3.854
12044TIP3    H236076   1.544   2.965   3.831
12045TIP3   OH236077   1.844   7.377   2.200
12045TIP3    H136078   1.767   7.348   2.248
12045TIP3    H236079   1.813   7.449   2.145
12046TIP3   OH236080   8.153   7.008   6.545
12046TIP3    H136081   8.225   6.949   6.525
12046TIP3    H236082   8.195   7.092   6.563
12047TIP3   OH236083   1.374   4.959   3.584
12047TIP3    H136084   1.376   4.924   3.673
12047TIP3    H236085   1.433   4.903   3.535
12048TIP3   OH236086   4.348   6.309   4.344
12048TIP3    H136087   4.404   6.248   4.392
12048TIP3    H236088   4.370   6.395   4.380
12049TIP3   OH236089   7.585   0.669   1.567
12049TIP3    H136090   7.615   0.750   1.525
12049TIP3    H236091   7.493   0.685   1.586
12050TIP3   OH236092   0.599   2.941   6.351
12050TIP3    H136093   0.672   2.919   6.293
12050TIP3    H236094   0.637   2.944   6.438
12051TIP3   OH236095   3.781   1.487   5.827
12051TIP3    H136096   3.826   1.403   5.827
12051TIP3    H236097   3.809   1.529   5.908
12052TIP3   OH236098   0.302   0.026   1.819
12052TIP3    H136099   0.228   0.078   1.786
12052TIP3    H236100   0.331  -0.024   1.743
12053TIP3   OH236101   4.625   7.062   1.292
12053TIP3    H136102   4.704   7.023   1.254
12053TIP3    H236103   4.633   7.155   1.275
12054TIP3   OH236104   1.536   4.139   3.837
12054TIP3    H136105   1.565   4.053   3.806
12054TIP3    H236106   1.515   4.125   3.930
12055TIP3   OH236107   1.275   3.842   3.221
12055TIP3    H136108   1.254   3.890   3.301
12055TIP3    H236109   1.193   3.802   3.194
12056TIP3   OH236110   3.584   1.935   2.209
12056TIP3    H136111   3.636   1.865   2.248
12056TIP3    H236112   3.619   1.945   2.120
12057TIP3   OH236113   2.589   5.439   2.923
12057TIP3    H136114   2.651   5.444   2.850
12057TIP3    H236115   2.638   5.397   2.994
12058TIP3   OH236116   1.707   7.257   5.165
12058TIP3    H136117   1.791   7.285   5.129
12058TIP3    H236118   1.697   7.167   5.135
12059TIP3   OH236119   1.819   5.543   0.478
12059TIP3    H136120   1.911   5.551   0.502
12059TIP3    H236121   1.774   5.607   0.534
12060TIP3   OH236122   2.687   0.407   0.299
12060TIP3    H136123   2.710   0.500   0.302
12060TIP3    H236124   2.688   0.384   0.206
12061TIP3   OH236125   4.711   0.241   4.191
12061TIP3    H136126   4.619   0.237   4.167
12061TIP3    H236127   4.750   0.301   4.127
12062TIP3   OH236128   5.633   2.491   2.895
12062TIP3    H136129   5.676   2.575   2.910
12062TIP3    H236130   5.549   2.498   2.941
12063TIP3   OH236131   7.957   4.769   6.677
12063TIP3    H136132   7.967   4.840   6.741
12063TIP3    H236133   7.873   4.729   6.697
12064TIP3   OH236134   2.610   2.409   6.319
12064TIP3    H136135   2.613   2.313   6.321
12064TIP3    H236136   2.579   2.431   6.232
12065TIP3   OH236137   1.563   6.117   3.238
12065TIP3    H136138   1.557   6.211   3.257
12065TIP3    H236139   1.560   6.075   3.324
12066TIP3   OH236140   5.351   2.532   3.506
12066TIP3    H136141   5.430   2.499   3.551
12066TIP3    H236142   5.300   2.453   3.487
12067TIP3   OH236143   3.750   6.729   1.504
12067TIP3    H136144   3.698   6.650   1.515
12067TIP3    H236145   3.838   6.698   1.482
12068TIP3   OH236146   1.701   0.982   5.327
12068TIP3    H136147   1.629   0.951   5.383
12068TIP3    H236148   1.735   1.058   5.374
12069TIP3   OH236149   1.589   4.604   6.069
12069TIP3    H136150   1.534   4.583   6.144
12069TIP3    H236151   1.548   4.556   5.996
12070TIP3   OH236152   6.558   3.818   1.013
12070TIP3    H136153   6.573   3.811   1.107
12070TIP3    H236154   6.463   3.814   1.003
12071TIP3   OH236155   2.721   6.022   4.981
12071TIP3    H136156   2.773   5.966   4.924
12071TIP3    H236157   2.652   5.965   5.014
12072TIP3   OH236158   3.857   6.116   5.405
12072TIP3    H136159   3.897   6.029   5.406
12072TIP3    H236160   3.924   6.174   5.441
12073TIP3   OH236161   1.981   3.261   4.941
12073TIP3    H136162   1.970   3.183   4.886
12073TIP3    H236163   2.015   3.228   5.024
12074TIP3   OH236164   6.612   6.362   4.144
12074TIP3    H136165   6.654   6.312   4.214
12074TIP3    H236166   6.518   6.350   4.159
12075TIP3   OH236167   6.864   0.486   0.829
12075TIP3    H136168   6.922   0.417   0.796
12075TIP3    H236169   6.816   0.516   0.751
12076TIP3   OH236170   0.093   6.973   5.617
12076TIP3    H136171   0.099   7.067   5.598
12076TIP3    H236172   0.000   6.959   5.638
12077TIP3   OH236173   6.827   0.747   5.606
12077TIP3    H136174   6.874   0.797   5.673
12077TIP3    H236175   6.874   0.766   5.525
12078TIP3   OH236176   8.111   0.892   4.533
12078TIP3    H136177   8.143   0.940   4.610
12078TIP3    H236178   8.022   0.925   4.521
12079TIP3   OH236179   3.778   4.455   4.723
12079TIP3    H136180   3.846   4.438   4.787
12079TIP3    H236181   3.814   4.525   4.668
12080TIP3   OH236182   1.718   4.511   0.953
12080TIP3    H136183   1.678   4.540   1.035
12080TIP3    H236184   1.799   4.561   0.947
12081TIP3   OH236185   1.799   0.314   5.381
12081TIP3    H136186   1.840   0.280   5.302
12081TIP3    H236187   1.857   0.386   5.409
12082TIP3   OH236188   4.130   0.978   3.641
12082TIP3    H136189   4.183   0.921   3.585
12082TIP3    H236190   4.062   0.920   3.676
12083TIP3   OH236191   0.878   4.588   3.438
12083TIP3    H136192   0.793   4.626   3.415
12083TIP3    H236193   0.939   4.662   3.434
12084TIP3   OH236194   2.796   6.831   0.046
12084TIP3    H136195   2.736   6.873   0.108
12084TIP3    H236196   2.846   6.903   0.009
12085TIP3   OH236197   1.755   4.041   4.656
12085TIP3    H136198   1.686   4.099   4.623
12085TIP3    H236199   1.794   4.090   4.728
12086TIP3   OH236200   2.000   7.385   2.564
12086TIP3    H136201   2.050   7.303   2.559
12086TIP3    H236202   1.914   7.362   2.529
12087TIP3   OH236203   1.179   4.854   0.674
12087TIP3    H136204   1.153   4.946   0.677
12087TIP3    H236205   1.127   4.817   0.603
12088TIP3   OH236206   6.885   1.968   3.469
12088TIP3    H136207   6.918   2.030   3.534
12088TIP3    H236208   6.891   1.882   3.511
12089TIP3   OH236209   2.561   5.272   4.907
12089TIP3    H136210   2.570   5.315   4.992
12089TIP3    H236211   2.651   5.264   4.875
12090TIP3   OH236212   5.278   0.955   5.239
12090TIP3    H136213   5.241   0.957   5.327
12090TIP3    H236214   5.257   1.041   5.201
12091TIP3   OH236215   6.773   4.195   4.546
12091TIP3    H136216   6.785   4.182   4.640
12091TIP3    H236217   6.680   4.184   4.531
12092TIP3   OH236218   0.122   3.284   4.959
12092TIP3    H136219   0.140   3.281   4.865
12092TIP3    H236220   0.057   3.353   4.969
12093TIP3   OH236221   2.240   5.098   4.492
12093TIP3    H136222   2.209   5.184   4.520
12093TIP3    H236223   2.303   5.072   4.560
12094TIP3   OH236224   0.474   4.866   4.537
12094TIP3    H136225   0.427   4.823   4.608
12094TIP3    H236226   0.443   4.956   4.538
12095TIP3   OH236227   1.470   3.360   4.930
12095TIP3    H136228   1.377   3.356   4.906
12095TIP3    H236229   1.515   3.375   4.847
12096TIP3   OH236230   3.734   0.895   3.273
12096TIP3    H136231   3.742   0.815   3.221
12096TIP3    H236232   3.825   0.920   3.292
12097TIP3   OH236233   3.289   7.402   4.102
12097TIP3    H136234   3.202   7.437   4.120
12097TIP3    H236235   3.275   7.308   4.087
12098TIP3   OH236236   2.083   4.897   0.915
12098TIP3    H136237   2.176   4.911   0.901
12098TIP3    H236238   2.073   4.893   1.011
12099TIP3   OH236239   5.548   0.219   3.562
12099TIP3    H136240   5.509   0.243   3.477
12099TIP3    H236241   5.638   0.252   3.557
12100TIP3   OH236242   7.480   5.814   3.537
12100TIP3    H136243   7.573   5.797   3.546
12100TIP3    H236244   7.438   5.745   3.589
12101TIP3   OH236245   3.277   1.085   6.531
12101TIP3    H136246   3.348   1.114   6.588
12101TIP3    H236247   3.201   1.077   6.588
12102TIP3   OH236248   7.324   3.190   0.649
12102TIP3    H136249   7.298   3.139   0.726
12102TIP3    H236250   7.317   3.281   0.678
12103TIP3   OH236251   3.296   5.103   0.334
12103TIP3    H136252   3.365   5.170   0.328
12103TIP3    H236253   3.238   5.135   0.403
12104TIP3   OH236254   4.138   1.403   6.033
12104TIP3    H136255   4.201   1.416   6.105
12104TIP3    H236256   4.056   1.440   6.066
12105TIP3   OH236257   7.709   2.025   1.718
12105TIP3    H136258   7.744   2.093   1.776
12105TIP3    H236259   7.738   2.051   1.631
12106TIP3   OH236260   4.490   5.628   1.411
12106TIP3    H136261   4.431   5.585   1.473
12106TIP3    H236262   4.542   5.688   1.465
12107TIP3   OH236263   6.703   6.017   1.764
12107TIP3    H136264   6.792   5.993   1.739
12107TIP3    H236265   6.686   6.099   1.718
12108TIP3   OH236266   0.366   4.053   2.931
12108TIP3    H136267   0.369   3.978   2.990
12108TIP3    H236268   0.437   4.110   2.961
12109TIP3   OH236269   7.394   4.160   6.751
12109TIP3    H136270   7.324   4.193   6.807
12109TIP3    H236271   7.386   4.212   6.670
12110TIP3   OH236272   3.012   7.641   1.075
12110TIP3    H136273   3.030   7.590   1.153
12110TIP3    H236274   2.978   7.724   1.108
12111TIP3   OH236275   0.516   4.694   5.627
12111TIP3    H136276   0.471   4.779   5.632
12111TIP3    H236277   0.589   4.703   5.688
12112TIP3   OH236278   7.921   5.616   1.391
12112TIP3    H136279   7.906   5.562   1.313
12112TIP3    H236280   7.833   5.630   1.427
12113TIP3   OH236281   6.714   0.346   5.353
12113TIP3    H136282   6.654   0.380   5.286
12113TIP3    H236283   6.773   0.418   5.373
12114TIP3   OH236284   7.073   0.992   2.850
12114TIP3    H136285   7.136   1.048   2.896
12114TIP3    H236286   7.109   0.982   2.762
12115TIP3   OH236287   3.604   4.906   1.150
12115TIP3    H136288   3.527   4.929   1.202
12115TIP3    H236289   3.593   4.954   1.067
12116TIP3   OH236290   1.567   6.504   2.960
12116TIP3    H136291   1.658   6.524   2.982
12116TIP3    H236292   1.541   6.439   3.026
12117TIP3   OH236293   2.374   7.606   3.169
12117TIP3    H136294   2.368   7.518   3.206
12117TIP3    H236295   2.437   7.598   3.098
12118TIP3   OH236296   7.541   0.868   2.256
12118TIP3    H136297   7.454   0.856   2.216
12118TIP3    H236298   7.603   0.848   2.186
12119TIP3   OH236299   3.641   4.198   5.056
12119TIP3    H136300   3.633   4.139   5.131
12119TIP3    H236301   3.703   4.154   4.997
12120TIP3   OH236302   3.293   3.063   4.100
12120TIP3    H136303   3.257   2.975   4.109
12120TIP3    H236304   3.254   3.112   4.172
12121TIP3   OH236305   5.750   3.728   6.243
12121TIP3    H136306   5.762   3.816   6.278
12121TIP3    H236307   5.808   3.673   6.295
12122TIP3   OH236308   7.854   0.874   0.704
12122TIP3    H136309   7.819   0.960   0.728
12122TIP3    H236310   7.939   0.891   0.666
12123TIP3   OH236311   6.328   3.336   1.737
12123TIP3    H136312   6.388   3.266   1.711
12123TIP3    H236313   6.384   3.398   1.784
12124TIP3   OH236314   3.005   1.190   6.758
12124TIP3    H136315   3.007   1.196   6.854
12124TIP3    H236316   3.021   1.280   6.729
12125TIP3   OH236317   4.906   2.623   0.269
12125TIP3    H136318   4.981   2.666   0.227
12125TIP3    H236319   4.830   2.652   0.218
12126TIP3   OH236320   4.280   3.653   1.687
12126TIP3    H136321   4.201   3.646   1.741
12126TIP3    H236322   4.274   3.579   1.627
12127TIP3   OH236323   1.907   3.685   0.108
12127TIP3    H136324   1.933   3.689   0.016
12127TIP3    H236325   1.842   3.755   0.117
12128TIP3   OH236326   6.111   5.321   5.538
12128TIP3    H136327   6.071   5.283   5.616
12128TIP3    H236328   6.050   5.390   5.510
12129TIP3   OH236329   7.113   1.099   0.648
12129TIP3    H136330   7.174   1.171   0.635
12129TIP3    H236331   7.108   1.088   0.743
12130TIP3   OH236332   5.689   4.009   2.106
12130TIP3    H136333   5.610   4.019   2.053
12130TIP3    H236334   5.675   4.066   2.181
12131TIP3   OH236335   7.244   3.343   0.068
12131TIP3    H136336   7.159   3.305   0.047
12131TIP3    H236337   7.289   3.275   0.119
12132TIP3   OH236338   7.130   6.802   0.087
12132TIP3    H136339   7.204   6.790   0.147
12132TIP3    H236340   7.122   6.718   0.042
12133TIP3   OH236341   6.944   5.543   3.428
12133TIP3    H136342   7.032   5.510   3.447
12133TIP3    H236343   6.942   5.552   3.333
12134TIP3   OH236344   6.166   4.379   0.278
12134TIP3    H136345   6.136   4.301   0.325
12134TIP3    H236346   6.257   4.389   0.303
12135TIP3   OH236347   4.915   2.076   0.335
12135TIP3    H136348   4.844   2.061   0.398
12135TIP3    H236349   4.871   2.090   0.252
12136TIP3   OH236350   3.084   5.016   3.369
12136TIP3    H136351   3.086   4.933   3.417
12136TIP3    H236352   2.992   5.043   3.371
12137TIP3   OH236353   7.096   4.471   5.315
12137TIP3    H136354   7.004   4.470   5.285
12137TIP3    H236355   7.108   4.387   5.359
12138TIP3   OH236356   0.861   5.099   6.589
12138TIP3    H136357   0.868   5.090   6.494
12138TIP3    H236358   0.939   5.054   6.623
12139TIP3   OH236359   1.965   0.438   2.931
12139TIP3    H136360   1.974   0.524   2.974
12139TIP3    H236361   1.871   0.428   2.918
12140TIP3   OH236362   3.832   6.075   4.272
12140TIP3    H136363   3.887   6.011   4.226
12140TIP3    H236364   3.847   6.057   4.365
12141TIP3   OH236365   1.564   4.689   6.375
12141TIP3    H136366   1.608   4.758   6.424
12141TIP3    H236367   1.571   4.611   6.431
12142TIP3   OH236368   8.246   5.222   3.063
12142TIP3    H136369   8.222   5.133   3.037
12142TIP3    H236370   8.175   5.277   3.029
12143TIP3   OH236371   1.227   3.004   1.183
12143TIP3    H136372   1.256   3.031   1.270
12143TIP3    H236373   1.298   3.032   1.125
12144TIP3   OH236374   3.916   7.373   4.378
12144TIP3    H136375   3.830   7.334   4.366
12144TIP3    H236376   3.906   7.430   4.454
12145TIP3   OH236377   6.912   3.570   3.055
12145TIP3    H136378   6.985   3.619   3.092
12145TIP3    H236379   6.851   3.561   3.129
12146TIP3   OH236380   0.878   6.851   3.909
12146TIP3    H136381   0.910   6.875   3.995
12146TIP3    H236382   0.956   6.835   3.857
12147TIP3   OH236383   0.710   7.749   3.527
12147TIP3    H136384   0.616   7.735   3.520
12147TIP3    H236385   0.732   7.804   3.451
12148TIP3   OH236386   2.515   0.848   2.166
12148TIP3    H136387   2.527   0.943   2.165
12148TIP3    H236388   2.480   0.829   2.252
12149TIP3   OH236389   1.436   4.547   0.418
12149TIP3    H136390   1.518   4.498   0.427
12149TIP3    H236391   1.441   4.614   0.487
12150TIP3   OH236392   4.296   3.561   5.893
12150TIP3    H136393   4.366   3.526   5.947
12150TIP3    H236394   4.254   3.628   5.948
12151TIP3   OH236395   5.690   3.418   2.510
12151TIP3    H136396   5.657   3.350   2.569
12151TIP3    H236397   5.613   3.470   2.487
12152TIP3   OH236398   1.658   1.819   3.236
12152TIP3    H136399   1.752   1.809   3.226
12152TIP3    H236400   1.620   1.781   3.157
12153TIP3   OH236401   0.333   3.340   5.676
12153TIP3    H136402   0.427   3.349   5.657
12153TIP3    H236403   0.293   3.417   5.637
12154TIP3   OH236404   6.855   3.279   5.940
12154TIP3    H136405   6.809   3.244   6.016
12154TIP3    H236406   6.898   3.358   5.973
12155TIP3   OH236407   0.221   1.000   0.874
12155TIP3    H136408   0.271   0.971   0.797
12155TIP3    H236409   0.207   0.920   0.925
12156TIP3   OH236410   3.432   1.707   4.027
12156TIP3    H136411   3.360   1.760   3.993
12156TIP3    H236412   3.403   1.680   4.114
12157TIP3   OH236413   1.976   7.819   3.712
12157TIP3    H136414   1.991   7.762   3.637
12157TIP3    H236415   2.005   7.905   3.682
12158TIP3   OH236416   1.906   6.072   0.330
12158TIP3    H136417   1.811   6.079   0.338
12158TIP3    H236418   1.939   6.095   0.417
12159TIP3   OH236419   0.150   3.670   5.007
12159TIP3    H136420   0.104   3.709   4.932
12159TIP3    H236421   0.228   3.630   4.968
12160TIP3   OH236422   0.041   0.221   5.585
12160TIP3    H136423   0.071   0.312   5.593
12160TIP3    H236424   0.111   0.177   5.536
12161TIP3   OH236425   1.552   7.319   5.771
12161TIP3    H136426   1.638   7.359   5.785
12161TIP3    H236427   1.491   7.378   5.815
12162TIP3   OH236428   5.109   0.051   3.020
12162TIP3    H136429   5.022   0.064   2.981
12162TIP3    H236430   5.102  -0.033   3.064
12163TIP3   OH236431   0.340   2.125   1.075
12163TIP3    H136432   0.430   2.145   1.100
12163TIP3    H236433   0.306   2.208   1.040
12164TIP3   OH236434   0.594   6.441   4.293
12164TIP3    H136435   0.641   6.445   4.210
12164TIP3    H236436   0.521   6.502   4.282
12165TIP3   OH236437   4.211   3.464   4.325
12165TIP3    H136438   4.227   3.461   4.231
12165TIP3    H236439   4.295   3.439   4.364
12166TIP3   OH236440   2.489   5.458   4.617
12166TIP3    H136441   2.493   5.367   4.644
12166TIP3    H236442   2.457   5.505   4.694
12167TIP3   OH236443   3.234   3.827   2.126
12167TIP3    H136444   3.326   3.837   2.148
12167TIP3    H236445   3.200   3.917   2.124
12168TIP3   OH236446   5.506   6.545   2.093
12168TIP3    H136447   5.465   6.561   2.008
12168TIP3    H236448   5.542   6.456   2.087
12169TIP3   OH236449   5.250   4.717   4.080
12169TIP3    H136450   5.236   4.794   4.136
12169TIP3    H236451   5.223   4.643   4.134
12170TIP3   OH236452   1.723   5.748   4.757
12170TIP3    H136453   1.675   5.827   4.784
12170TIP3    H236454   1.654   5.685   4.734
12171TIP3   OH236455   5.077   5.284   1.029
12171TIP3    H136456   5.029   5.358   0.990
12171TIP3    H236457   5.041   5.277   1.118
12172TIP3   OH236458   1.800   1.938   2.738
12172TIP3    H136459   1.833   2.028   2.731
12172TIP3    H236460   1.870   1.889   2.780
12173TIP3   OH236461   8.211   3.495   4.964
12173TIP3    H136462   8.133   3.550   4.966
12173TIP3    H236463   8.280   3.551   4.927
12174TIP3   OH236464   2.950   4.510   6.222
12174TIP3    H136465   2.952   4.585   6.281
12174TIP3    H236466   2.975   4.436   6.276
12175TIP3   OH236467   4.164   6.627   6.555
12175TIP3    H136468   4.177   6.685   6.631
12175TIP3    H236469   4.223   6.553   6.571
12176TIP3   OH236470   4.792   1.202   4.115
12176TIP3    H136471   4.837   1.157   4.043
12176TIP3    H236472   4.824   1.293   4.110
12177TIP3   OH236473   2.618   6.695   5.763
12177TIP3    H136474   2.658   6.679   5.849
12177TIP3    H236475   2.612   6.791   5.757
12178TIP3   OH236476   7.487   3.026   0.500
12178TIP3    H136477   7.526   3.078   0.430
12178TIP3    H236478   7.440   3.089   0.554
12179TIP3   OH236479   3.541   6.577   2.747
12179TIP3    H136480   3.472   6.512   2.730
12179TIP3    H236481   3.536   6.592   2.841
12180TIP3   OH236482   3.706   4.020   3.703
12180TIP3    H136483   3.632   3.979   3.659
12180TIP3    H236484   3.778   4.015   3.639
12181TIP3   OH236485   6.985   5.808   0.481
12181TIP3    H136486   7.052   5.872   0.455
12181TIP3    H236487   6.944   5.846   0.558
12182TIP3   OH236488   5.329   2.659   1.912
12182TIP3    H136489   5.315   2.575   1.868
12182TIP3    H236490   5.418   2.684   1.889
12183TIP3   OH236491   6.491   4.241   6.533
12183TIP3    H136492   6.419   4.283   6.580
12183TIP3    H236493   6.493   4.285   6.448
12184TIP3   OH236494   6.921   3.828   5.378
12184TIP3    H136495   6.901   3.921   5.365
12184TIP3    H236496   6.862   3.782   5.317
12185TIP3   OH236497   7.723   2.679   5.046
12185TIP3    H136498   7.764   2.703   4.963
12185TIP3    H236499   7.641   2.729   5.048
12186TIP3   OH236500   0.083   4.135   5.810
12186TIP3    H136501   0.049   4.203   5.752
12186TIP3    H236502   0.171   4.117   5.778
12187TIP3   OH236503   1.849   1.574   2.005
12187TIP3    H136504   1.769   1.529   2.031
12187TIP3    H236505   1.850   1.655   2.056
12188TIP3   OH236506   3.968   5.099   3.735
12188TIP3    H136507   4.028   5.089   3.809
12188TIP3    H236508   3.882   5.082   3.772
12189TIP3   OH236509   1.115   0.972   2.370
12189TIP3    H136510   1.111   1.048   2.428
12189TIP3    H236511   1.054   0.993   2.299
12190TIP3   OH236512   1.311   0.153   1.353
12190TIP3    H136513   1.356   0.176   1.435
12190TIP3    H236514   1.219   0.167   1.371
12191TIP3   OH236515   3.407   5.632   6.678
12191TIP3    H136516   3.487   5.591   6.710
12191TIP3    H236517   3.345   5.625   6.750
12192TIP3   OH236518   0.659   6.044   0.936
12192TIP3    H136519   0.722   6.021   0.867
12192TIP3    H236520   0.703   6.113   0.986
12193TIP3   OH236521   4.878   3.156   3.043
12193TIP3    H136522   4.935   3.088   3.007
12193TIP3    H236523   4.797   3.110   3.066
12194TIP3   OH236524   0.807   5.812   5.377
12194TIP3    H136525   0.782   5.723   5.401
12194TIP3    H236526   0.829   5.806   5.284
12195TIP3   OH236527   7.284   6.056   1.704
12195TIP3    H136528   7.349   6.032   1.770
12195TIP3    H236529   7.250   6.141   1.735
12196TIP3   OH236530   8.060   7.235   4.787
12196TIP3    H136531   8.103   7.215   4.704
12196TIP3    H236532   8.061   7.152   4.835
12197TIP3   OH236533   2.037   0.036   5.650
12197TIP3    H136534   2.069   0.034   5.740
12197TIP3    H236535   2.034   0.129   5.627
12198TIP3   OH236536   7.187   2.750   4.752
12198TIP3    H136537   7.254   2.698   4.708
12198TIP3    H236538   7.171   2.823   4.692
12199TIP3   OH236539   3.338   2.119   4.679
12199TIP3    H136540   3.408   2.093   4.620
12199TIP3    H236541   3.281   2.042   4.686
12200TIP3   OH236542   6.573   6.221   3.197
12200TIP3    H136543   6.582   6.316   3.202
12200TIP3    H236544   6.615   6.198   3.114
12201TIP3   OH236545   1.308   0.772   3.074
12201TIP3    H136546   1.317   0.801   2.984
12201TIP3    H236547   1.276   0.682   3.068
12202TIP3   OH236548   2.216   1.816   3.283
12202TIP3    H136549   2.166   1.897   3.277
12202TIP3    H236550   2.303   1.839   3.251
12203TIP3   OH236551   7.185   4.324   3.015
12203TIP3    H136552   7.094   4.306   2.991
12203TIP3    H236553   7.180   4.352   3.107
12204TIP3   OH236554   5.175   2.798   4.234
12204TIP3    H136555   5.186   2.729   4.299
12204TIP3    H236556   5.121   2.864   4.278
12205TIP3   OH236557   0.905   3.612   2.536
12205TIP3    H136558   0.835   3.653   2.586
12205TIP3    H236559   0.918   3.526   2.577
12206TIP3   OH236560   1.399   3.040   4.184
12206TIP3    H136561   1.461   2.988   4.236
12206TIP3    H236562   1.442   3.125   4.174
12207TIP3   OH236563   7.226   1.892   0.729
12207TIP3    H136564   7.285   1.867   0.659
12207TIP3    H236565   7.190   1.976   0.701
12208TIP3   OH236566   1.558   2.760   6.376
12208TIP3    H136567   1.521   2.840   6.412
12208TIP3    H236568   1.591   2.712   6.453
12209TIP3   OH236569   3.681   7.330   0.014
12209TIP3    H136570   3.652   7.407   0.063
12209TIP3    H236571   3.619   7.322  -0.058
12210TIP3   OH236572   4.055   5.821   6.220
12210TIP3    H136573   4.149   5.838   6.221
12210TIP3    H236574   4.015   5.902   6.250
12211TIP3   OH236575   3.488   4.977   0.525
12211TIP3    H136576   3.517   4.894   0.486
12211TIP3    H236577   3.467   5.033   0.451
12212TIP3   OH236578   0.066   1.084   3.923
12212TIP3    H136579   0.102   1.129   3.999
12212TIP3    H236580   0.132   1.019   3.899
12213TIP3   OH236581   0.962   5.431   1.946
12213TIP3    H136582   0.979   5.483   2.025
12213TIP3    H236583   0.869   5.443   1.930
12214TIP3   OH236584   3.225   5.193   4.710
12214TIP3    H136585   3.305   5.146   4.732
12214TIP3    H236586   3.251   5.285   4.709
12215TIP3   OH236587   4.239   6.184   3.713
12215TIP3    H136588   4.324   6.156   3.678
12215TIP3    H236589   4.191   6.103   3.725
12216TIP3   OH236590   2.752   3.917   3.811
12216TIP3    H136591   2.821   3.850   3.821
12216TIP3    H236592   2.675   3.868   3.782
12217TIP3   OH236593   4.703   0.205   5.090
12217TIP3    H136594   4.637   0.267   5.121
12217TIP3    H236595   4.660   0.160   5.017
12218TIP3   OH236596   7.201   3.415   5.694
12218TIP3    H136597   7.131   3.430   5.757
12218TIP3    H236598   7.182   3.474   5.622
12219TIP3   OH236599   0.626   3.219   6.122
12219TIP3    H136600   0.560   3.170   6.169
12219TIP3    H236601   0.634   3.174   6.037
12220TIP3   OH236602   6.611   7.594   0.471
12220TIP3    H136603   6.613   7.654   0.545
12220TIP3    H236604   6.685   7.620   0.416
12221TIP3   OH236605   3.809   3.549   1.768
12221TIP3    H136606   3.729   3.502   1.791
12221TIP3    H236607   3.857   3.555   1.850
12222TIP3   OH236608   4.625   2.565   3.652
12222TIP3    H136609   4.682   2.612   3.592
12222TIP3    H236610   4.632   2.474   3.625
12223TIP3   OH236611   4.130   6.685   6.304
12223TIP3    H136612   4.145   6.653   6.393
12223TIP3    H236613   4.215   6.675   6.261
12224TIP3   OH236614   5.850   5.695   1.776
12224TIP3    H136615   5.781   5.632   1.796
12224TIP3    H236616   5.849   5.704   1.681
12225TIP3   OH236617   6.420   2.727   5.954
12225TIP3    H136618   6.380   2.674   5.885
12225TIP3    H236619   6.391   2.688   6.036
12226TIP3   OH236620   1.230   5.867   0.988
12226TIP3    H136621   1.192   5.791   0.945
12226TIP3    H236622   1.256   5.925   0.916
12227TIP3   OH236623   7.192   1.165   5.459
12227TIP3    H136624   7.115   1.218   5.439
12227TIP3    H236625   7.194   1.099   5.390
12228TIP3   OH236626   2.523   0.871   1.583
12228TIP3    H136627   2.518   0.811   1.656
12228TIP3    H236628   2.602   0.923   1.600
12229TIP3   OH236629   0.214   1.097   3.483
12229TIP3    H136630   0.124   1.090   3.451
12229TIP3    H236631   0.268   1.090   3.404
12230TIP3   OH236632   6.673   1.603   5.957
12230TIP3    H136633   6.616   1.562   5.893
12230TIP3    H236634   6.726   1.531   5.991
12231TIP3   OH236635   7.767   4.425   1.210
12231TIP3    H136636   7.799   4.511   1.184
12231TIP3    H236637   7.842   4.383   1.253
12232TIP3   OH236638   2.849   3.541   5.763
12232TIP3    H136639   2.830   3.632   5.790
12232TIP3    H236640   2.943   3.531   5.776
12233TIP3   OH236641   7.233   2.734   3.425
12233TIP3    H136642   7.198   2.727   3.336
12233TIP3    H236643   7.327   2.725   3.414
12234TIP3   OH236644   1.183   0.980   6.056
12234TIP3    H136645   1.127   1.042   6.102
12234TIP3    H236646   1.194   1.017   5.969
12235TIP3   OH236647   2.276   1.394   0.451
12235TIP3    H136648   2.369   1.416   0.440
12235TIP3    H236649   2.229   1.472   0.421
12236TIP3   OH236650   7.483   4.801   0.336
12236TIP3    H136651   7.575   4.826   0.342
12236TIP3    H236652   7.465   4.755   0.417
12237TIP3   OH236653   7.499   3.789   1.104
12237TIP3    H136654   7.518   3.703   1.143
12237TIP3    H236655   7.585   3.826   1.085
12238TIP3   OH236656   1.420   0.353   3.022
12238TIP3    H136657   1.420   0.297   3.100
12238TIP3    H236658   1.491   0.415   3.037
12239TIP3   OH236659   2.786   6.320   0.985
12239TIP3    H136660   2.878   6.343   0.969
12239TIP3    H236661   2.766   6.253   0.919
12240TIP3   OH236662   0.933   0.880   0.048
12240TIP3    H136663   1.028   0.870   0.052
12240TIP3    H236664   0.908   0.838  -0.034
12241TIP3   OH236665   7.702   3.944   2.873
12241TIP3    H136666   7.645   3.981   2.806
12241TIP3    H236667   7.683   3.995   2.951
12242TIP3   OH236668   0.572   0.000   3.653
12242TIP3    H136669   0.653   0.042   3.682
12242TIP3    H236670   0.537  -0.041   3.733
12243TIP3   OH236671   3.697   7.571   4.188
12243TIP3    H136672   3.660   7.570   4.100
12243TIP3    H236673   3.668   7.489   4.228
12244TIP3   OH236674   8.283   2.998   4.914
12244TIP3    H136675   8.302   3.082   4.955
12244TIP3    H236676   8.310   3.009   4.823
12245TIP3   OH236677   1.259   7.685   5.380
12245TIP3    H136678   1.168   7.693   5.410
12245TIP3    H236679   1.311   7.717   5.454
12246TIP3   OH236680   6.295   1.759   3.484
12246TIP3    H136681   6.382   1.729   3.458
12246TIP3    H236682   6.310   1.814   3.561
12247TIP3   OH236683   7.236   0.573   0.155
12247TIP3    H136684   7.217   0.547   0.245
12247TIP3    H236685   7.150   0.577   0.112
12248TIP3   OH236686   6.501   4.948   6.105
12248TIP3    H136687   6.428   4.914   6.053
12248TIP3    H236688   6.516   4.883   6.173
12249TIP3   OH236689   5.894   3.568   1.930
12249TIP3    H136690   5.919   3.584   1.839
12249TIP3    H236691   5.818   3.511   1.923
12250TIP3   OH236692   4.542   7.030   4.110
12250TIP3    H136693   4.545   6.961   4.176
12250TIP3    H236694   4.623   7.080   4.123
12251TIP3   OH236695   2.339   2.857   6.076
12251TIP3    H136696   2.392   2.929   6.111
12251TIP3    H236697   2.378   2.778   6.113
12252TIP3   OH236698   0.930   4.283   1.856
12252TIP3    H136699   0.937   4.261   1.949
12252TIP3    H236700   0.885   4.367   1.854
12253TIP3   OH236701   3.018   2.328   0.302
12253TIP3    H136702   2.965   2.326   0.382
12253TIP3    H236703   2.961   2.369   0.237
12254TIP3   OH236704   6.311   0.376   6.087
12254TIP3    H136705   6.258   0.443   6.130
12254TIP3    H236706   6.247   0.325   6.037
12255TIP3   OH236707   3.941   1.093   6.411
12255TIP3    H136708   3.892   1.035   6.352
12255TIP3    H236709   3.875   1.127   6.471
12256TIP3   OH236710   7.385   2.974   0.147
12256TIP3    H136711   7.414   3.065   0.137
12256TIP3    H236712   7.392   2.937   0.059
12257TIP3   OH236713   4.666   3.309   6.600
12257TIP3    H136714   4.615   3.266   6.669
12257TIP3    H236715   4.612   3.382   6.572
12258TIP3   OH236716   6.786   4.497   1.530
12258TIP3    H136717   6.858   4.483   1.591
12258TIP3    H236718   6.736   4.570   1.568
12259TIP3   OH236719   2.032   7.244   1.169
12259TIP3    H136720   2.021   7.154   1.140
12259TIP3    H236721   1.944   7.274   1.191
12260TIP3   OH236722   4.115   4.203   0.491
12260TIP3    H136723   4.051   4.211   0.563
12260TIP3    H236724   4.084   4.129   0.440
12261TIP3   OH236725   7.158   1.097   4.730
12261TIP3    H136726   7.081   1.112   4.674
12261TIP3    H236727   7.121   1.065   4.812
12262TIP3   OH236728   2.142   7.692   3.890
12262TIP3    H136729   2.124   7.744   3.968
12262TIP3    H236730   2.104   7.744   3.818
12263TIP3   OH236731   4.013   7.000   1.900
12263TIP3    H136732   4.083   6.953   1.946
12263TIP3    H236733   3.942   6.937   1.892
12264TIP3   OH236734   0.800   3.555   0.022
12264TIP3    H136735   0.778   3.598   0.105
12264TIP3    H236736   0.720   3.509  -0.002
12265TIP3   OH236737   2.883   0.878   1.068
12265TIP3    H136738   2.789   0.860   1.073
12265TIP3    H236739   2.898   0.901   0.976
12266TIP3   OH236740   1.555   7.346   0.549
12266TIP3    H136741   1.571   7.338   0.454
12266TIP3    H236742   1.493   7.276   0.569
12267TIP3   OH236743   0.078   6.372   0.111
12267TIP3    H136744   0.086   6.347   0.203
12267TIP3    H236745  -0.001   6.427   0.108
12268TIP3   OH236746   7.472   2.201   0.852
12268TIP3    H136747   7.563   2.173   0.856
12268TIP3    H236748   7.477   2.293   0.823
12269TIP3   OH236749   0.559   6.687   6.527
12269TIP3    H136750   0.636   6.648   6.487
12269TIP3    H236751   0.506   6.717   6.452
12270TIP3   OH236752   0.030   7.692   4.171
12270TIP3    H136753   0.046   7.609   4.215
12270TIP3    H236754  -0.061   7.687   4.143
12271TIP3   OH236755   8.095   7.378   3.871
12271TIP3    H136756   8.023   7.438   3.850
12271TIP3    H236757   8.159   7.391   3.801
12272TIP3   OH236758   6.670   6.875   6.277
12272TIP3    H136759   6.604   6.806   6.269
12272TIP3    H236760   6.751   6.835   6.247
12273TIP3   OH236761   6.895   4.071   4.344
12273TIP3    H136762   6.873   4.102   4.256
12273TIP3    H236763   6.863   4.140   4.402
12274TIP3   OH236764   2.201   2.093   2.622
12274TIP3    H136765   2.115   2.125   2.597
12274TIP3    H236766   2.210   2.116   2.714
12275TIP3   OH236767   7.736   1.574   6.219
12275TIP3    H136768   7.782   1.490   6.223
12275TIP3    H236769   7.730   1.603   6.310
12276TIP3   OH236770   3.676   1.976   1.356
12276TIP3    H136771   3.742   2.027   1.309
12276TIP3    H236772   3.602   2.036   1.368
12277TIP3   OH236773   3.414   5.945   4.460
12277TIP3    H136774   3.450   5.857   4.447
12277TIP3    H236775   3.324   5.940   4.428
12278TIP3   OH236776   5.916   7.332   6.668
12278TIP3    H136777   6.000   7.358   6.705
12278TIP3    H236778   5.884   7.410   6.621
12279TIP3   OH236779   5.887   1.542   2.862
12279TIP3    H136780   5.826   1.600   2.817
12279TIP3    H236781   5.890   1.576   2.952
12280TIP3   OH236782   4.273   1.139   3.849
12280TIP3    H136783   4.187   1.172   3.824
12280TIP3    H236784   4.289   1.067   3.789
12281TIP3   OH236785   7.683   4.003   1.056
12281TIP3    H136786   7.661   4.095   1.068
12281TIP3    H236787   7.753   3.986   1.120
12282TIP3   OH236788   7.151   1.682   3.699
12282TIP3    H136789   7.187   1.616   3.758
12282TIP3    H236790   7.190   1.764   3.727
12283TIP3   OH236791   2.669   1.612   5.838
12283TIP3    H136792   2.649   1.698   5.801
12283TIP3    H236793   2.670   1.626   5.933
12284TIP3   OH236794   3.237   0.394   6.512
12284TIP3    H136795   3.198   0.381   6.426
12284TIP3    H236796   3.298   0.321   6.523
12285TIP3   OH236797   7.339   0.221   5.159
12285TIP3    H136798   7.428   0.255   5.163
12285TIP3    H236799   7.288   0.282   5.212
12286TIP3   OH236800   4.391   5.988   4.771
12286TIP3    H136801   4.332   5.915   4.791
12286TIP3    H236802   4.341   6.066   4.792
12287TIP3   OH236803   2.874   3.658   3.833
12287TIP3    H136804   2.870   3.606   3.753
12287TIP3    H236805   2.795   3.633   3.882
12288TIP3   OH236806   6.284   2.761   1.169
12288TIP3    H136807   6.260   2.835   1.113
12288TIP3    H236808   6.323   2.698   1.109
12289TIP3   OH236809   4.006   1.675   0.270
12289TIP3    H136810   4.028   1.596   0.221
12289TIP3    H236811   3.915   1.662   0.297
12290TIP3   OH236812   4.594   4.545   6.060
12290TIP3    H136813   4.643   4.607   6.007
12290TIP3    H236814   4.660   4.503   6.115
12291TIP3   OH236815   7.729   5.793   0.640
12291TIP3    H136816   7.746   5.861   0.575
12291TIP3    H236817   7.664   5.736   0.599
12292TIP3   OH236818   6.668   6.399   5.269
12292TIP3    H136819   6.611   6.469   5.238
12292TIP3    H236820   6.673   6.337   5.196
12293TIP3   OH236821   3.031   1.513   6.036
12293TIP3    H136822   3.105   1.454   6.050
12293TIP3    H236823   2.959   1.474   6.085
12294TIP3   OH236824   4.681   2.137   4.775
12294TIP3    H136825   4.681   2.223   4.818
12294TIP3    H236826   4.633   2.081   4.835
12295TIP3   OH236827   4.147   0.200   4.954
12295TIP3    H136828   4.180   0.173   4.868
12295TIP3    H236829   4.152   0.296   4.952
12296TIP3   OH236830   3.106   1.875   1.631
12296TIP3    H136831   3.070   1.843   1.549
12296TIP3    H236832   3.050   1.837   1.698
12297TIP3   OH236833   7.898   3.696   2.922
12297TIP3    H136834   7.956   3.724   2.993
12297TIP3    H236835   7.953   3.698   2.844
12298TIP3   OH236836   1.209   7.747   6.232
12298TIP3    H136837   1.278   7.711   6.287
12298TIP3    H236838   1.134   7.756   6.291
12299TIP3   OH236839   4.539   0.345   4.389
12299TIP3    H136840   4.578   0.392   4.462
12299TIP3    H236841   4.613   0.317   4.336
12300TIP3   OH236842   0.161   3.073   4.065
12300TIP3    H136843   0.228   3.139   4.048
12300TIP3    H236844   0.174   3.007   3.997
12301TIP3   OH236845   1.787   5.222   2.307
12301TIP3    H136846   1.795   5.147   2.248
12301TIP3    H236847   1.737   5.286   2.257
12302TIP3   OH236848   7.948   5.270   4.185
12302TIP3    H136849   7.934   5.363   4.167
12302TIP3    H236850   7.952   5.230   4.098
12303TIP3   OH236851   2.814   4.076   4.028
12303TIP3    H136852   2.810   4.009   3.959
12303TIP3    H236853   2.854   4.030   4.103
12304TIP3   OH236854   2.955   3.399   5.203
12304TIP3    H136855   3.029   3.460   5.200
12304TIP3    H236856   2.901   3.429   5.275
12305TIP3   OH236857   7.503   2.441   4.399
12305TIP3    H136858   7.536   2.530   4.412
12305TIP3    H236859   7.479   2.438   4.307
12306TIP3   OH236860   4.931   0.727   3.835
12306TIP3    H136861   4.853   0.685   3.801
12306TIP3    H236862   4.955   0.792   3.769
12307TIP3   OH236863   3.357   0.431   3.201
12307TIP3    H136864   3.283   0.482   3.169
12307TIP3    H236865   3.401   0.401   3.121
12308TIP3   OH236866   1.553   4.058   5.468
12308TIP3    H136867   1.479   4.109   5.434
12308TIP3    H236868   1.512   3.991   5.523
12309TIP3   OH236869   0.315   7.430   2.075
12309TIP3    H136870   0.273   7.500   2.124
12309TIP3    H236871   0.409   7.444   2.089
12310TIP3   OH236872   7.507   3.723   4.094
12310TIP3    H136873   7.557   3.689   4.020
12310TIP3    H236874   7.539   3.812   4.106
12311TIP3   OH236875   3.662   4.424   3.905
12311TIP3    H136876   3.580   4.375   3.907
12311TIP3    H236877   3.659   4.478   3.984
12312TIP3   OH236878   5.822   3.373   4.687
12312TIP3    H136879   5.782   3.288   4.698
12312TIP3    H236880   5.819   3.390   4.592
12313TIP3   OH236881   2.755   0.799   1.768
12313TIP3    H136882   2.824   0.735   1.786
12313TIP3    H236883   2.676   0.760   1.805
12314TIP3   OH236884   0.285   1.190   0.179
12314TIP3    H136885   0.226   1.166   0.107
12314TIP3    H236886   0.372   1.163   0.149
12315TIP3   OH236887   0.598   3.235   6.689
12315TIP3    H136888   0.517   3.242   6.637
12315TIP3    H236889   0.649   3.312   6.666
12316TIP3   OH236890   7.974   0.418   4.766
12316TIP3    H136891   8.048   0.410   4.827
12316TIP3    H236892   7.971   0.511   4.745
12317TIP3   OH236893   0.990   0.917   2.819
12317TIP3    H136894   0.936   0.884   2.747
12317TIP3    H236895   0.989   0.847   2.884
12318TIP3   OH236896   6.515   4.534   1.568
12318TIP3    H136897   6.483   4.611   1.521
12318TIP3    H236898   6.441   4.473   1.567
12319TIP3   OH236899   1.944   7.533   0.177
12319TIP3    H136900   1.876   7.495   0.121
12319TIP3    H236901   1.901   7.546   0.261
12320TIP3   OH236902   0.537   1.607   4.084
12320TIP3    H136903   0.518   1.536   4.145
12320TIP3    H236904   0.496   1.580   4.002
12321TIP3   OH236905   8.159   4.980   3.021
12321TIP3    H136906   8.083   4.948   2.973
12321TIP3    H236907   8.123   5.008   3.106
12322TIP3   OH236908   1.489   5.120   0.983
12322TIP3    H136909   1.466   5.136   1.074
12322TIP3    H236910   1.584   5.126   0.980
12323TIP3   OH236911   6.671   5.765   6.783
12323TIP3    H136912   6.628   5.844   6.816
12323TIP3    H236913   6.690   5.785   6.691
12324TIP3   OH236914   2.433   5.013   5.650
12324TIP3    H136915   2.438   5.108   5.637
12324TIP3    H236916   2.340   4.995   5.658
12325TIP3   OH236917   6.243   0.822   6.008
12325TIP3    H136918   6.216   0.844   5.919
12325TIP3    H236919   6.299   0.745   5.999
12326TIP3   OH236920   6.389   3.242   6.053
12326TIP3    H136921   6.308   3.264   6.099
12326TIP3    H236922   6.380   3.150   6.029
12327TIP3   OH236923   1.226   3.958   0.165
12327TIP3    H136924   1.186   3.973   0.080
12327TIP3    H236925   1.294   3.892   0.148
12328TIP3   OH236926   6.019   4.312   1.931
12328TIP3    H136927   6.018   4.312   2.027
12328TIP3    H236928   6.005   4.403   1.906
12329TIP3   OH236929   8.134   0.230   2.333
12329TIP3    H136930   8.210   0.258   2.384
12329TIP3    H236931   8.086   0.311   2.315
12330TIP3   OH236932   6.343   0.079   4.026
12330TIP3    H136933   6.308  -0.007   4.049
12330TIP3    H236934   6.383   0.068   3.940
12331TIP3   OH236935   1.872   4.263   4.012
12331TIP3    H136936   1.875   4.281   3.918
12331TIP3    H236937   1.779   4.252   4.031
12332TIP3   OH236938   3.383   0.559   5.043
12332TIP3    H136939   3.451   0.606   5.091
12332TIP3    H236940   3.301   0.598   5.075
12333TIP3   OH236941   2.650   0.785   6.657
12333TIP3    H136942   2.647   0.705   6.605
12333TIP3    H236943   2.593   0.846   6.610
12334TIP3   OH236944   7.571   4.255   1.087
12334TIP3    H136945   7.569   4.309   1.008
12334TIP3    H236946   7.639   4.295   1.141
12335TIP3   OH236947   3.406   6.952   5.691
12335TIP3    H136948   3.325   6.913   5.658
12335TIP3    H236949   3.379   7.005   5.765
12336TIP3   OH236950   7.375   6.429   5.267
12336TIP3    H136951   7.303   6.365   5.272
12336TIP3    H236952   7.348   6.499   5.326
12337TIP3   OH236953   8.276   4.840   2.388
12337TIP3    H136954   8.232   4.924   2.379
12337TIP3    H236955   8.238   4.801   2.467
12338TIP3   OH236956   3.878   1.490   3.053
12338TIP3    H136957   3.934   1.429   3.004
12338TIP3    H236958   3.840   1.436   3.122
12339TIP3   OH236959   4.510   7.253   1.950
12339TIP3    H136960   4.437   7.239   2.010
12339TIP3    H236961   4.532   7.165   1.918
12340TIP3   OH236962   7.741   2.903   0.117
12340TIP3    H136963   7.671   2.937   0.173
12340TIP3    H236964   7.741   2.960   0.040
12341TIP3   OH236965   5.042   0.634   3.563
12341TIP3    H136966   5.102   0.661   3.633
12341TIP3    H236967   4.967   0.694   3.571
12342TIP3   OH236968   2.751   5.994   3.001
12342TIP3    H136969   2.704   5.981   3.083
12342TIP3    H236970   2.731   6.084   2.975
12343TIP3   OH236971   1.601   3.302   2.300
12343TIP3    H136972   1.653   3.382   2.297
12343TIP3    H236973   1.531   3.321   2.363
12344TIP3   OH236974   8.076   6.452   6.683
12344TIP3    H136975   8.000   6.410   6.722
12344TIP3    H236976   8.039   6.514   6.620
12345TIP3   OH236977   0.875   2.773   3.705
12345TIP3    H136978   0.794   2.765   3.756
12345TIP3    H236979   0.923   2.844   3.747
12346TIP3   OH236980   6.856   4.230   2.173
12346TIP3    H136981   6.810   4.297   2.225
12346TIP3    H236982   6.850   4.261   2.083
12347TIP3   OH236983   2.365   5.269   1.813
12347TIP3    H136984   2.343   5.186   1.857
12347TIP3    H236985   2.460   5.275   1.820
12348TIP3   OH236986   6.749   7.752   1.055
12348TIP3    H136987   6.795   7.823   1.010
12348TIP3    H236988   6.811   7.679   1.054
12349TIP3   OH236989   4.397   0.708   2.467
12349TIP3    H136990   4.458   0.727   2.538
12349TIP3    H236991   4.332   0.778   2.471
12350TIP3   OH236992   0.693   5.752   0.201
12350TIP3    H136993   0.704   5.819   0.133
12350TIP3    H236994   0.746   5.783   0.274
12351TIP3   OH236995   2.783   0.233   2.766
12351TIP3    H136996   2.747   0.264   2.683
12351TIP3    H236997   2.843   0.302   2.794
12352TIP3   OH236998   6.994   4.890   5.197
12352TIP3    H136999   6.999   4.818   5.260
12352TIP3    H237000   7.025   4.851   5.115
12353TIP3   OH237001   6.978   5.269   2.545
12353TIP3    H137002   6.936   5.342   2.500
12353TIP3    H237003   6.974   5.293   2.638
12354TIP3   OH237004   4.719   4.720   2.416
12354TIP3    H137005   4.704   4.805   2.456
12354TIP3    H237006   4.637   4.699   2.372
12355TIP3   OH237007   3.987   0.424   3.522
12355TIP3    H137008   4.019   0.385   3.603
12355TIP3    H237009   4.036   0.380   3.453
12356TIP3   OH237010   7.930   0.155   5.000
12356TIP3    H137011   8.008   0.176   5.051
12356TIP3    H237012   7.962   0.150   4.910
12357TIP3   OH237013   4.722   7.245   4.102
12357TIP3    H137014   4.762   7.251   4.015
12357TIP3    H237015   4.670   7.324   4.110
12358TIP3   OH237016   6.147   2.959   5.294
12358TIP3    H137017   6.137   2.984   5.386
12358TIP3    H237018   6.200   3.029   5.256
12359TIP3   OH237019   1.019   5.903   2.742
12359TIP3    H137020   0.934   5.871   2.770
12359TIP3    H237021   1.047   5.963   2.811
12360TIP3   OH237022   4.911   6.264   5.302
12360TIP3    H137023   4.840   6.319   5.335
12360TIP3    H237024   4.955   6.319   5.237
12361TIP3   OH237025   3.667   2.939   6.145
12361TIP3    H137026   3.668   2.852   6.184
12361TIP3    H237027   3.759   2.958   6.125
12362TIP3   OH237028   6.090   4.828   3.100
12362TIP3    H137029   6.034   4.795   3.029
12362TIP3    H237030   6.137   4.750   3.132
12363TIP3   OH237031   4.771   4.423   3.541
12363TIP3    H137032   4.682   4.457   3.546
12363TIP3    H237033   4.769   4.365   3.465
12364TIP3   OH237034   0.392   1.036   6.408
12364TIP3    H137035   0.413   1.095   6.479
12364TIP3    H237036   0.450   0.961   6.421
12365TIP3   OH237037   0.601   5.217   6.514
12365TIP3    H137038   0.684   5.198   6.557
12365TIP3    H237039   0.546   5.141   6.534
12366TIP3   OH237040   6.409   5.541   1.027
12366TIP3    H137041   6.324   5.566   0.991
12366TIP3    H237042   6.398   5.449   1.053
12367TIP3   OH237043   8.240   2.976   4.633
12367TIP3    H137044   8.197   3.016   4.557
12367TIP3    H237045   8.238   2.882   4.615
12368TIP3   OH237046   4.895   4.640   1.696
12368TIP3    H137047   4.862   4.566   1.645
12368TIP3    H237048   4.864   4.623   1.785
12369TIP3   OH237049   8.035   5.955   5.132
12369TIP3    H137050   7.944   5.983   5.121
12369TIP3    H237051   8.087   6.024   5.092
12370TIP3   OH237052   3.612   1.543   4.744
12370TIP3    H137053   3.662   1.465   4.722
12370TIP3    H237054   3.677   1.605   4.776
12371TIP3   OH237055   7.770   7.621   4.593
12371TIP3    H137056   7.823   7.545   4.570
12371TIP3    H237057   7.748   7.609   4.685
12372TIP3   OH237058   3.118   5.419   6.456
12372TIP3    H137059   3.119   5.365   6.376
12372TIP3    H237060   3.157   5.362   6.523
12373TIP3   OH237061   6.762   7.172   6.251
12373TIP3    H137062   6.806   7.118   6.185
12373TIP3    H237063   6.679   7.128   6.268
12374TIP3   OH237064   4.929   6.766   4.832
12374TIP3    H137065   4.905   6.680   4.797
12374TIP3    H237066   5.024   6.772   4.816
12375TIP3   OH237067   4.856   3.285   5.252
12375TIP3    H137068   4.908   3.365   5.246
12375TIP3    H237069   4.765   3.314   5.246
12376TIP3   OH237070   1.597   2.720   0.665
12376TIP3    H137071   1.556   2.634   0.662
12376TIP3    H237072   1.535   2.775   0.712
12377TIP3   OH237073   7.195   7.494   3.281
12377TIP3    H137074   7.184   7.459   3.193
12377TIP3    H237075   7.185   7.418   3.338
12378TIP3   OH237076   7.393   2.215   3.142
12378TIP3    H137077   7.345   2.199   3.222
12378TIP3    H237078   7.374   2.140   3.086
12379TIP3   OH237079   1.412   7.491   4.838
12379TIP3    H137080   1.455   7.465   4.920
12379TIP3    H237081   1.330   7.532   4.866
12380TIP3   OH237082   3.161   5.215   2.935
12380TIP3    H137083   3.198   5.301   2.918
12380TIP3    H237084   3.163   5.205   3.030
12381TIP3   OH237085   0.231   6.149   6.131
12381TIP3    H137086   0.317   6.192   6.139
12381TIP3    H237087   0.175   6.196   6.193
12382TIP3   OH237088   4.304   4.871   1.824
12382TIP3    H137089   4.275   4.925   1.898
12382TIP3    H237090   4.301   4.930   1.749
12383TIP3   OH237091   5.405   1.444   1.942
12383TIP3    H137092   5.356   1.428   1.861
12383TIP3    H237093   5.341   1.434   2.012
12384TIP3   OH237094   8.261   5.115   5.419
12384TIP3    H137095   8.342   5.078   5.384
12384TIP3    H237096   8.224   5.164   5.345
12385TIP3   OH237097   2.466   5.925   4.077
12385TIP3    H137098   2.378   5.961   4.076
12385TIP3    H237099   2.481   5.897   3.986
12386TIP3   OH237100   2.885   1.766   0.618
12386TIP3    H137101   2.839   1.726   0.692
12386TIP3    H237102   2.856   1.857   0.617
12387TIP3   OH237103   5.403   0.585   6.528
12387TIP3    H137104   5.339   0.523   6.493
12387TIP3    H237105   5.416   0.648   6.457
12388TIP3   OH237106   4.882   2.298   5.687
12388TIP3    H137107   4.966   2.338   5.667
12388TIP3    H237108   4.820   2.342   5.629
12389TIP3   OH237109   4.036   0.168   5.291
12389TIP3    H137110   4.016   0.099   5.227
12389TIP3    H237111   3.954   0.179   5.340
12390TIP3   OH237112   0.978   0.471   4.272
12390TIP3    H137113   0.951   0.394   4.221
12390TIP3    H237114   0.897   0.507   4.306
12391TIP3   OH237115   4.361   2.661   2.557
12391TIP3    H137116   4.307   2.594   2.514
12391TIP3    H237117   4.327   2.665   2.646
12392TIP3   OH237118   1.223   6.239   0.500
12392TIP3    H137119   1.153   6.243   0.564
12392TIP3    H237120   1.301   6.215   0.550
12393TIP3   OH237121   0.595   3.548   6.366
12393TIP3    H137122   0.581   3.567   6.274
12393TIP3    H237123   0.569   3.629   6.411
12394TIP3   OH237124   1.507   1.052   2.435
12394TIP3    H137125   1.602   1.041   2.444
12394TIP3    H237126   1.496   1.145   2.415
12395TIP3   OH237127   0.679   0.887   4.478
12395TIP3    H137128   0.616   0.955   4.499
12395TIP3    H237129   0.736   0.881   4.555
12396TIP3   OH237130   5.405   7.301   5.636
12396TIP3    H137131   5.385   7.330   5.547
12396TIP3    H237132   5.479   7.356   5.663
12397TIP3   OH237133   5.748   0.093   3.271
12397TIP3    H137134   5.722   0.169   3.218
12397TIP3    H237135   5.838   0.075   3.244
12398TIP3   OH237136   3.460   1.100   0.750
12398TIP3    H137137   3.437   1.182   0.793
12398TIP3    H237138   3.555   1.093   0.761
12399TIP3   OH237139   1.348   5.040   2.888
12399TIP3    H137140   1.432   5.019   2.847
12399TIP3    H237141   1.361   5.020   2.981
12400TIP3   OH237142   4.844   4.359   3.790
12400TIP3    H137143   4.837   4.275   3.835
12400TIP3    H237144   4.869   4.336   3.701
12401TIP3   OH237145   7.035   4.342   1.100
12401TIP3    H137146   7.018   4.406   1.168
12401TIP3    H237147   7.130   4.343   1.090
12402TIP3   OH237148   2.255   7.355   2.742
12402TIP3    H137149   2.270   7.261   2.734
12402TIP3    H237150   2.192   7.363   2.814
12403TIP3   OH237151   4.273   7.429   5.122
12403TIP3    H137152   4.225   7.465   5.197
12403TIP3    H237153   4.208   7.381   5.072
12404TIP3   OH237154   3.087   4.879   5.933
12404TIP3    H137155   3.143   4.949   5.901
12404TIP3    H237156   3.094   4.884   6.028
12405TIP3   OH237157   4.752   5.183   0.747
12405TIP3    H137158   4.813   5.208   0.677
12405TIP3    H237159   4.726   5.266   0.786
12406TIP3   OH237160   2.576   2.610   3.337
12406TIP3    H137161   2.669   2.589   3.329
12406TIP3    H237162   2.573   2.687   3.393
12407TIP3   OH237163   1.874   7.192   5.638
12407TIP3    H137164   1.856   7.273   5.591
12407TIP3    H237165   1.963   7.204   5.672
12408TIP3   OH237166   1.445   6.098   1.213
12408TIP3    H137167   1.358   6.137   1.218
12408TIP3    H237168   1.430   6.004   1.228
12409TIP3   OH237169   6.832   4.690   3.752
12409TIP3    H137170   6.762   4.754   3.762
12409TIP3    H237171   6.913   4.741   3.758
12410TIP3   OH237172   8.300   0.414   0.113
12410TIP3    H137173   8.213   0.431   0.149
12410TIP3    H237174   8.345   0.498   0.118
12411TIP3   OH237175   0.455   1.862   1.004
12411TIP3    H137176   0.396   1.868   1.078
12411TIP3    H237177   0.539   1.895   1.037
12412TIP3   OH237178   2.326   5.515   4.222
12412TIP3    H137179   2.378   5.572   4.166
12412TIP3    H237180   2.376   5.434   4.227
12413TIP3   OH237181   0.377   1.950   5.020
12413TIP3    H137182   0.323   1.926   4.945
12413TIP3    H237183   0.418   2.032   4.993
12414TIP3   OH237184   1.397   5.256   3.090
12414TIP3    H137185   1.382   5.263   2.996
12414TIP3    H237186   1.369   5.341   3.125
12415TIP3   OH237187   0.073   0.247   1.021
12415TIP3    H137188   0.050   0.335   1.049
12415TIP3    H237189   0.059   0.248   0.926
12416TIP3   OH237190   2.119   6.600   1.359
12416TIP3    H137191   2.161   6.610   1.445
12416TIP3    H237192   2.166   6.527   1.318
12417TIP3   OH237193   4.292   1.025   0.248
12417TIP3    H137194   4.212   0.977   0.266
12417TIP3    H237195   4.349   0.962   0.203
12418TIP3   OH237196   6.077   6.904   5.809
12418TIP3    H137197   6.089   6.851   5.888
12418TIP3    H237198   6.164   6.940   5.791
12419TIP3   OH237199   1.528   5.155   5.976
12419TIP3    H137200   1.510   5.246   6.002
12419TIP3    H237201   1.556   5.112   6.057
12420TIP3   OH237202   0.675   7.037   3.835
12420TIP3    H137203   0.685   7.132   3.835
12420TIP3    H237204   0.760   7.003   3.864
12421TIP3   OH237205   7.240   5.808   5.051
12421TIP3    H137206   7.173   5.797   4.983
12421TIP3    H237207   7.291   5.884   5.023
12422TIP3   OH237208   5.340   6.272   4.703
12422TIP3    H137209   5.246   6.258   4.716
12422TIP3    H237210   5.367   6.201   4.644
12423TIP3   OH237211   7.980   4.476   5.460
12423TIP3    H137212   7.991   4.478   5.555
12423TIP3    H237213   8.065   4.503   5.426
12424TIP3   OH237214   3.787   6.961   3.342
12424TIP3    H137215   3.829   7.030   3.292
12424TIP3    H237216   3.745   6.905   3.277
12425TIP3   OH237217   6.601   7.797   5.366
12425TIP3    H137218   6.602   7.888   5.336
12425TIP3    H237219   6.546   7.799   5.445
12426TIP3   OH237220   2.401   1.318   4.140
12426TIP3    H137221   2.404   1.285   4.230
12426TIP3    H237222   2.323   1.278   4.103
12427TIP3   OH237223   4.684   1.029   4.997
12427TIP3    H137224   4.634   1.060   5.072
12427TIP3    H237225   4.737   0.957   5.031
12428TIP3   OH237226   2.648   4.064   3.426
12428TIP3    H137227   2.658   4.084   3.518
12428TIP3    H237228   2.594   4.135   3.391
12429TIP3   OH237229   2.157   1.152   0.397
12429TIP3    H137230   2.164   1.247   0.390
12429TIP3    H237231   2.063   1.135   0.400
12430TIP3   OH237232   1.873   5.909   6.397
12430TIP3    H137233   1.967   5.920   6.378
12430TIP3    H237234   1.867   5.823   6.438
12431TIP3   OH237235   6.521   2.104   5.805
12431TIP3    H137236   6.557   2.190   5.786
12431TIP3    H237237   6.428   2.120   5.820
12432TIP3   OH237238   3.736   5.948   2.536
12432TIP3    H137239   3.672   5.892   2.492
12432TIP3    H237240   3.685   6.020   2.571
12433TIP3   OH237241   4.326   3.391   3.296
12433TIP3    H137242   4.415   3.425   3.284
12433TIP3    H237243   4.281   3.457   3.347
12434TIP3   OH237244   3.371   0.596   0.267
12434TIP3    H137245   3.412   0.511   0.247
12434TIP3    H237246   3.294   0.600   0.211
12435TIP3   OH237247   4.462   1.024   3.601
12435TIP3    H137248   4.464   0.930   3.581
12435TIP3    H237249   4.546   1.042   3.641
12436TIP3   OH237250   4.780   1.099   2.126
12436TIP3    H137251   4.722   1.046   2.181
12436TIP3    H237252   4.735   1.183   2.119
12437TIP3   OH237253   4.456   3.705   4.450
12437TIP3    H137254   4.433   3.612   4.459
12437TIP3    H237255   4.371   3.750   4.448
12438TIP3   OH237256   5.312   1.277   3.187
12438TIP3    H137257   5.337   1.369   3.178
12438TIP3    H237258   5.223   1.273   3.154
12439TIP3   OH237259   8.068   3.720   2.689
12439TIP3    H137260   8.017   3.706   2.609
12439TIP3    H237261   8.155   3.743   2.657
12440TIP3   OH237262   5.712   7.603   3.484
12440TIP3    H137263   5.770   7.676   3.462
12440TIP3    H237264   5.625   7.633   3.460
12441TIP3   OH237265   2.742   3.009   3.040
12441TIP3    H137266   2.756   2.970   2.953
12441TIP3    H237267   2.687   3.085   3.023
12442TIP3   OH237268   4.380   5.059   3.249
12442TIP3    H137269   4.441   5.129   3.223
12442TIP3    H237270   4.329   5.041   3.169
12443TIP3   OH237271   1.242   2.228   1.857
12443TIP3    H137272   1.177   2.158   1.860
12443TIP3    H237273   1.286   2.223   1.942
12444TIP3   OH237274   0.919   2.342   6.536
12444TIP3    H137275   0.832   2.323   6.572
12444TIP3    H237276   0.905   2.347   6.441
12445TIP3   OH237277   3.846   3.963   1.604
12445TIP3    H137278   3.890   4.047   1.585
12445TIP3    H237279   3.842   3.919   1.519
12446TIP3   OH237280   5.416   2.266   5.962
12446TIP3    H137281   5.511   2.257   5.954
12446TIP3    H237282   5.385   2.275   5.872
12447TIP3   OH237283   5.217   0.058   2.562
12447TIP3    H137284   5.279   0.128   2.582
12447TIP3    H237285   5.268  -0.023   2.573
12448TIP3   OH237286   5.624   2.155   6.540
12448TIP3    H137287   5.545   2.110   6.570
12448TIP3    H237288   5.641   2.117   6.454
12449TIP3   OH237289   3.040   0.392   2.911
12449TIP3    H137290   3.085   0.448   2.848
12449TIP3    H237291   2.988   0.452   2.965
12450TIP3   OH237292   5.453   3.190   4.529
12450TIP3    H137293   5.467   3.115   4.470
12450TIP3    H237294   5.393   3.247   4.481
12451TIP3   OH237295   1.884   1.864   5.252
12451TIP3    H137296   1.835   1.805   5.308
12451TIP3    H237297   1.938   1.915   5.312
12452TIP3   OH237298   4.391   6.579   3.154
12452TIP3    H137299   4.462   6.560   3.215
12452TIP3    H237300   4.434   6.620   3.079
12453TIP3   OH237301   6.896   5.763   5.479
12453TIP3    H137302   6.970   5.745   5.421
12453TIP3    H237303   6.903   5.699   5.549
12454TIP3   OH237304   8.209   2.459   3.356
12454TIP3    H137305   8.296   2.497   3.368
12454TIP3    H237306   8.225   2.367   3.335
12455TIP3   OH237307   6.901   7.412   6.410
12455TIP3    H137308   6.959   7.480   6.443
12455TIP3    H237309   6.911   7.340   6.473
12456TIP3   OH237310   2.240   3.845   6.359
12456TIP3    H137311   2.230   3.928   6.312
12456TIP3    H237312   2.222   3.866   6.450
12457TIP3   OH237313   6.536   4.958   5.312
12457TIP3    H137314   6.575   4.871   5.317
12457TIP3    H237315   6.597   5.009   5.259
12458TIP3   OH237316   4.054   4.874   5.530
12458TIP3    H137317   4.070   4.780   5.539
12458TIP3    H237318   4.120   4.904   5.468
12459TIP3   OH237319   4.528   0.233   1.019
12459TIP3    H137320   4.470   0.187   0.958
12459TIP3    H237321   4.475   0.305   1.052
12460TIP3   OH237322   3.699   2.885   1.738
12460TIP3    H137323   3.608   2.914   1.742
12460TIP3    H237324   3.749   2.965   1.723
12461TIP3   OH237325   7.517   0.492   3.929
12461TIP3    H137326   7.515   0.587   3.920
12461TIP3    H237327   7.557   0.476   4.015
12462TIP3   OH237328   2.139   6.387  -0.013
12462TIP3    H137329   2.137   6.322   0.058
12462TIP3    H237330   2.067   6.447   0.007
12463TIP3   OH237331   6.411   0.084   6.096
12463TIP3    H137332   6.441   0.165   6.137
12463TIP3    H237333   6.357   0.113   6.022
12464TIP3   OH237334   6.541   3.551   2.355
12464TIP3    H137335   6.582   3.586   2.276
12464TIP3    H237336   6.489   3.477   2.324
12465TIP3   OH237337   4.310   0.070   3.541
12465TIP3    H137338   4.307   0.032   3.629
12465TIP3    H237339   4.276   0.000   3.484
12466TIP3   OH237340   2.398   7.747   1.978
12466TIP3    H137341   2.490   7.747   1.952
12466TIP3    H237342   2.350   7.763   1.896
12467TIP3   OH237343   0.287   4.505   5.202
12467TIP3    H137344   0.344   4.443   5.157
12467TIP3    H237345   0.333   4.526   5.283
12468TIP3   OH237346   5.401   6.605   2.378
12468TIP3    H137347   5.431   6.569   2.295
12468TIP3    H237348   5.310   6.575   2.386
12469TIP3   OH237349   0.441   6.482   3.482
12469TIP3    H137350   0.494   6.417   3.435
12469TIP3    H237351   0.449   6.561   3.429
12470TIP3   OH237352   4.323   6.177   2.626
12470TIP3    H137353   4.356   6.133   2.548
12470TIP3    H237354   4.401   6.197   2.677
12471TIP3   OH237355   7.447   7.335   1.671
12471TIP3    H137356   7.453   7.420   1.714
12471TIP3    H237357   7.537   7.302   1.671
12472TIP3   OH237358   4.399   4.788   6.393
12472TIP3    H137359   4.414   4.809   6.485
12472TIP3    H237360   4.476   4.822   6.348
12473TIP3   OH237361   2.593   3.531   4.218
12473TIP3    H137362   2.647   3.455   4.240
12473TIP3    H237363   2.554   3.558   4.301
12474TIP3   OH237364   3.019   2.828   1.706
12474TIP3    H137365   3.064   2.836   1.791
12474TIP3    H237366   3.076   2.770   1.655
12475TIP3   OH237367   4.293   6.952   1.983
12475TIP3    H137368   4.331   6.868   1.959
12475TIP3    H237369   4.298   6.955   2.078
12476TIP3   OH237370   2.308   1.250   6.436
12476TIP3    H137371   2.362   1.190   6.385
12476TIP3    H237372   2.237   1.275   6.377
12477TIP3   OH237373   4.713   6.975   2.821
12477TIP3    H137374   4.734   6.968   2.914
12477TIP3    H237375   4.643   6.911   2.807
12478TIP3   OH237376   1.540   1.762   2.940
12478TIP3    H137377   1.612   1.752   2.878
12478TIP3    H237378   1.531   1.676   2.981
12479TIP3   OH237379   4.171   6.542   0.307
12479TIP3    H137380   4.226   6.552   0.385
12479TIP3    H237381   4.143   6.632   0.287
12480TIP3   OH237382   7.569   1.562   6.647
12480TIP3    H137383   7.542   1.533   6.734
12480TIP3    H237384   7.588   1.481   6.600
12481TIP3   OH237385   6.838   3.166   3.605
12481TIP3    H137386   6.808   3.077   3.623
12481TIP3    H237387   6.844   3.170   3.509
12482TIP3   OH237388   0.808   2.200   3.323
12482TIP3    H137389   0.886   2.229   3.370
12482TIP3    H237390   0.739   2.258   3.353
12483TIP3   OH237391   1.707   0.822   5.666
12483TIP3    H137392   1.665   0.859   5.743
12483TIP3    H237393   1.705   0.727   5.679
12484TIP3   OH237394   4.108   2.997   2.359
12484TIP3    H137395   4.110   3.028   2.449
12484TIP3    H237396   4.194   2.957   2.346
12485TIP3   OH237397   2.605   5.089   2.112
12485TIP3    H137398   2.614   5.036   2.191
12485TIP3    H237399   2.512   5.112   2.108
12486TIP3   OH237400   4.755   1.785   2.510
12486TIP3    H137401   4.748   1.725   2.436
12486TIP3    H237402   4.792   1.731   2.580
12487TIP3   OH237403   3.400   0.184   1.046
12487TIP3    H137404   3.462   0.187   1.119
12487TIP3    H237405   3.328   0.128   1.078
12488TIP3   OH237406   4.229   4.405   6.694
12488TIP3    H137407   4.318   4.399   6.658
12488TIP3    H237408   4.219   4.325   6.746
12489TIP3   OH237409   5.931   3.237   5.262
12489TIP3    H137410   5.864   3.299   5.232
12489TIP3    H237411   6.013   3.272   5.228
12490TIP3   OH237412   8.201   6.455   3.604
12490TIP3    H137413   8.291   6.424   3.606
12490TIP3    H237414   8.148   6.376   3.621
12491TIP3   OH237415   0.633   4.805   1.535
12491TIP3    H137416   0.583   4.806   1.617
12491TIP3    H237417   0.712   4.756   1.556
12492TIP3   OH237418   2.654   2.752   0.597
12492TIP3    H137419   2.625   2.718   0.682
12492TIP3    H237420   2.732   2.701   0.576
12493TIP3   OH237421   4.503   3.497   6.329
12493TIP3    H137422   4.427   3.550   6.355
12493TIP3    H237423   4.576   3.558   6.327
12494TIP3   OH237424   6.144   3.043   1.557
12494TIP3    H137425   6.232   3.014   1.532
12494TIP3    H237426   6.151   3.065   1.650
12495TIP3   OH237427   2.721   3.554   3.126
12495TIP3    H137428   2.676   3.514   3.052
12495TIP3    H237429   2.708   3.648   3.115
12496TIP3   OH237430   0.423   3.763   6.488
12496TIP3    H137431   0.328   3.766   6.496
12496TIP3    H237432   0.452   3.710   6.562
12497TIP3   OH237433   3.252   6.745   3.300
12497TIP3    H137434   3.329   6.688   3.306
12497TIP3    H237435   3.190   6.708   3.362
12498TIP3   OH237436   3.100   3.731   1.917
12498TIP3    H137437   3.150   3.784   1.979
12498TIP3    H237438   3.151   3.732   1.837
12499TIP3   OH237439   1.803   6.601   2.780
12499TIP3    H137440   1.811   6.530   2.843
12499TIP3    H237441   1.827   6.562   2.696
12500TIP3   OH237442   3.384   3.379   1.635
12500TIP3    H137443   3.449   3.367   1.705
12500TIP3    H237444   3.311   3.322   1.660
12501TIP3   OH237445   5.440   0.021   5.436
12501TIP3    H137446   5.370   0.012   5.372
12501TIP3    H237447   5.508   0.071   5.390
12502TIP3   OH237448   7.370   6.976   4.067
12502TIP3    H137449   7.321   7.045   4.111
12502TIP3    H237450   7.394   7.014   3.982
12503TIP3   OH237451   5.218   0.342   1.792
12503TIP3    H137452   5.170   0.409   1.743
12503TIP3    H237453   5.299   0.329   1.743
12504TIP3   OH237454   7.010   4.069   0.970
12504TIP3    H137455   7.041   4.150   0.928
12504TIP3    H237456   6.924   4.092   1.005
12505TIP3   OH237457   2.062   6.806   5.719
12505TIP3    H137458   2.082   6.785   5.810
12505TIP3    H237459   1.967   6.793   5.712
12506TIP3   OH237460   3.100   7.762   0.600
12506TIP3    H137461   3.028   7.824   0.600
12506TIP3    H237462   3.074   7.695   0.663
12507TIP3   OH237463   3.411   3.567   0.353
12507TIP3    H137464   3.461   3.490   0.326
12507TIP3    H237465   3.386   3.549   0.443
12508TIP3   OH237466   3.066   7.276   6.538
12508TIP3    H137467   3.144   7.270   6.592
12508TIP3    H237468   3.048   7.185   6.511
12509TIP3   OH237469   6.622   1.474   4.676
12509TIP3    H137470   6.590   1.441   4.591
12509TIP3    H237471   6.629   1.395   4.730
12510TIP3   OH237472   0.553   1.418   0.379
12510TIP3    H137473   0.643   1.399   0.404
12510TIP3    H237474   0.542   1.512   0.397
12511TIP3   OH237475   4.901   5.739   2.804
12511TIP3    H137476   4.969   5.700   2.858
12511TIP3    H237477   4.948   5.795   2.742
12512TIP3   OH237478   6.818   6.492   1.012
12512TIP3    H137479   6.764   6.510   0.935
12512TIP3    H237480   6.757   6.501   1.086
12513TIP3   OH237481   1.062   3.835   2.507
12513TIP3    H137482   1.022   3.748   2.514
12513TIP3    H237483   1.036   3.867   2.420
12514TIP3   OH237484   2.912   4.313   2.041
12514TIP3    H137485   2.828   4.281   2.008
12514TIP3    H237486   2.889   4.375   2.110
12515TIP3   OH237487   0.468   7.211   5.792
12515TIP3    H137488   0.547   7.225   5.844
12515TIP3    H237489   0.457   7.116   5.791
12516TIP3   OH237490   1.245   4.190   5.977
12516TIP3    H137491   1.157   4.190   5.940
12516TIP3    H237492   1.275   4.281   5.969
12517TIP3   OH237493   7.053   4.936   1.690
12517TIP3    H137494   6.972   4.926   1.741
12517TIP3    H237495   7.081   5.026   1.707
12518TIP3   OH237496   2.629   2.399   3.584
12518TIP3    H137497   2.614   2.487   3.619
12518TIP3    H237498   2.547   2.352   3.601
12519TIP3   OH237499   7.270   0.829   2.194
12519TIP3    H137500   7.249   0.793   2.107
12519TIP3    H237501   7.231   0.768   2.256
12520TIP3   OH237502   5.278   3.886   4.298
12520TIP3    H137503   5.212   3.944   4.260
12520TIP3    H237504   5.240   3.799   4.290
12521TIP3   OH237505   6.144   1.516   0.298
12521TIP3    H137506   6.184   1.603   0.306
12521TIP3    H237507   6.087   1.523   0.221
12522TIP3   OH237508   1.912   2.657   3.947
12522TIP3    H137509   1.995   2.650   3.994
12522TIP3    H237510   1.893   2.751   3.946
12523TIP3   OH237511   7.702   5.037   6.354
12523TIP3    H137512   7.738   4.956   6.390
12523TIP3    H237513   7.743   5.107   6.405
12524TIP3   OH237514   0.985   5.465   3.701
12524TIP3    H137515   1.011   5.460   3.609
12524TIP3    H237516   0.959   5.376   3.724
12525TIP3   OH237517   0.974   3.041   3.389
12525TIP3    H137518   0.984   2.993   3.307
12525TIP3    H237519   1.028   2.993   3.452
12526TIP3   OH237520   2.966   2.044   3.295
12526TIP3    H137521   2.963   2.010   3.385
12526TIP3    H237522   3.038   2.107   3.296
12527TIP3   OH237523   5.521   1.473   0.801
12527TIP3    H137524   5.443   1.495   0.852
12527TIP3    H237525   5.520   1.534   0.728
12528TIP3   OH237526   1.657   7.589   6.363
12528TIP3    H137527   1.569   7.605   6.397
12528TIP3    H237528   1.643   7.530   6.289
12529TIP3   OH237529   0.212   6.223   4.629
12529TIP3    H137530   0.281   6.279   4.594
12529TIP3    H237531   0.166   6.278   4.692
12530TIP3   OH237532   0.467   7.371   4.871
12530TIP3    H137533   0.380   7.362   4.910
12530TIP3    H237534   0.520   7.307   4.918
12531TIP3   OH237535   2.036   5.026   4.257
12531TIP3    H137536   2.092   5.090   4.302
12531TIP3    H237537   2.056   4.943   4.300
12532TIP3   OH237538   6.570   2.490   0.287
12532TIP3    H137539   6.626   2.453   0.355
12532TIP3    H237540   6.482   2.459   0.308
12533TIP3   OH237541   7.916   6.591   2.447
12533TIP3    H137542   8.004   6.596   2.483
12533TIP3    H237543   7.881   6.509   2.481
12534TIP3   OH237544   7.985   4.080   5.362
12534TIP3    H137545   7.939   4.163   5.376
12534TIP3    H237546   8.075   4.098   5.388
12535TIP3   OH237547   6.018   4.881   1.741
12535TIP3    H137548   5.988   4.791   1.753
12535TIP3    H237549   5.939   4.934   1.748
12536TIP3   OH237550   2.356   2.193   1.833
12536TIP3    H137551   2.387   2.121   1.888
12536TIP3    H237552   2.425   2.205   1.768
12537TIP3   OH237553   2.289   4.532   3.219
12537TIP3    H137554   2.277   4.497   3.307
12537TIP3    H237555   2.257   4.463   3.161
12538TIP3   OH237556   1.362   4.364   2.171
12538TIP3    H137557   1.392   4.299   2.234
12538TIP3    H237558   1.409   4.444   2.195
12539TIP3   OH237559   7.356   7.796   0.186
12539TIP3    H137560   7.278   7.741   0.183
12539TIP3    H237561   7.421   7.743   0.232
12540TIP3   OH237562   0.290   2.321   5.326
12540TIP3    H137563   0.241   2.318   5.408
12540TIP3    H237564   0.335   2.406   5.328
12541TIP3   OH237565   0.077   0.821   1.773
12541TIP3    H137566   0.087   0.886   1.704
12541TIP3    H237567   0.108   0.739   1.734
12542TIP3   OH237568   3.662   6.694   5.265
12542TIP3    H137569   3.626   6.731   5.346
12542TIP3    H237570   3.663   6.768   5.204
12543TIP3   OH237571   2.808   5.122   0.553
12543TIP3    H137572   2.855   5.200   0.523
12543TIP3    H237573   2.744   5.105   0.484
12544TIP3   OH237574   5.988   7.619   5.798
12544TIP3    H137575   5.922   7.593   5.862
12544TIP3    H237576   6.035   7.691   5.840
12545TIP3   OH237577   1.279   1.254   2.726
12545TIP3    H137578   1.321   1.238   2.642
12545TIP3    H237579   1.352   1.269   2.786
12546TIP3   OH237580   6.434   3.776   4.625
12546TIP3    H137581   6.406   3.686   4.606
12546TIP3    H237582   6.453   3.813   4.539
12547TIP3   OH237583   1.776   3.675   4.913
12547TIP3    H137584   1.733   3.660   4.997
12547TIP3    H237585   1.793   3.587   4.879
12548TIP3   OH237586   6.343   5.431   5.853
12548TIP3    H137587   6.427   5.418   5.896
12548TIP3    H237588   6.356   5.396   5.764
12549TIP3   OH237589   7.974   1.604   3.356
12549TIP3    H137590   8.046   1.661   3.383
12549TIP3    H237591   8.004   1.567   3.273
12550TIP3   OH237592   2.385   7.805   1.387
12550TIP3    H137593   2.471   7.844   1.405
12550TIP3    H237594   2.383   7.795   1.292
12551TIP3   OH237595   1.298   2.384   1.501
12551TIP3    H137596   1.369   2.384   1.565
12551TIP3    H237597   1.332   2.434   1.427
12552TIP3   OH237598   0.121   1.844   6.553
12552TIP3    H137599   0.055   1.801   6.499
12552TIP3    H237600   0.120   1.935   6.524
12553TIP3   OH237601   4.762   4.839   2.754
12553TIP3    H137602   4.792   4.751   2.776
12553TIP3    H237603   4.695   4.858   2.820
12554TIP3   OH237604   4.004   4.537   5.246
12554TIP3    H137605   3.946   4.462   5.257
12554TIP3    H237606   4.083   4.501   5.206
12555TIP3   OH237607   7.321   7.613   2.985
12555TIP3    H137608   7.320   7.524   2.949
12555TIP3    H237609   7.324   7.670   2.908
12556TIP3   OH237610   5.883   4.058   6.562
12556TIP3    H137611   5.796   4.023   6.543
12556TIP3    H237612   5.943   3.990   6.529
12557TIP3   OH237613   3.347   2.769   5.621
12557TIP3    H137614   3.389   2.835   5.676
12557TIP3    H237615   3.400   2.766   5.542
12558TIP3   OH237616   7.605   6.535   4.796
12558TIP3    H137617   7.616   6.628   4.778
12558TIP3    H237618   7.563   6.532   4.882
12559TIP3   OH237619   4.608   4.388   6.460
12559TIP3    H137620   4.524   4.396   6.415
12559TIP3    H237621   4.585   4.359   6.549
12560TIP3   OH237622   6.060   0.763   2.176
12560TIP3    H137623   6.129   0.749   2.110
12560TIP3    H237624   6.107   0.768   2.259
12561TIP3   OH237625   4.406   2.552   5.902
12561TIP3    H137626   4.479   2.535   5.843
12561TIP3    H237627   4.329   2.552   5.845
12562TIP3   OH237628   0.953   4.909   1.173
12562TIP3    H137629   1.023   4.844   1.171
12562TIP3    H237630   0.876   4.863   1.140
12563TIP3   OH237631   8.115   3.428   5.460
12563TIP3    H137632   8.047   3.443   5.395
12563TIP3    H237633   8.154   3.514   5.475
12564TIP3   OH237634   7.324   5.062   3.465
12564TIP3    H137635   7.346   5.101   3.381
12564TIP3    H237636   7.393   5.092   3.524
12565TIP3   OH237637   2.410   6.214   1.098
12565TIP3    H137638   2.351   6.166   1.156
12565TIP3    H237639   2.497   6.190   1.128
12566TIP3   OH237640   7.361   4.069   1.049
12566TIP3    H137641   7.303   4.124   0.997
12566TIP3    H237642   7.449   4.098   1.025
12567TIP3   OH237643   7.497   0.242   5.573
12567TIP3    H137644   7.419   0.206   5.616
12567TIP3    H237645   7.570   0.195   5.613
12568TIP3   OH237646   7.802   0.344   5.453
12568TIP3    H137647   7.870   0.373   5.392
12568TIP3    H237648   7.849   0.293   5.519
12569TIP3   OH237649   2.998   0.918   5.758
12569TIP3    H137650   2.978   0.825   5.769
12569TIP3    H237651   2.959   0.960   5.835
12570TIP3   OH237652   5.625   6.223   5.141
12570TIP3    H137653   5.696   6.212   5.205
12570TIP3    H237654   5.661   6.185   5.060
12571TIP3   OH237655   0.513   4.011   1.980
12571TIP3    H137656   0.438   4.055   2.019
12571TIP3    H237657   0.589   4.051   2.023
12572TIP3   OH237658   6.387   7.226   5.791
12572TIP3    H137659   6.363   7.317   5.775
12572TIP3    H237660   6.435   7.199   5.712
12573TIP3   OH237661   6.194   6.934   4.373
12573TIP3    H137662   6.211   6.980   4.291
12573TIP3    H237663   6.205   7.000   4.441
12574TIP3   OH237664   2.703   3.466   1.114
12574TIP3    H137665   2.791   3.500   1.131
12574TIP3    H237666   2.656   3.539   1.074
12575TIP3   OH237667   0.709   0.358   3.210
12575TIP3    H137668   0.742   0.269   3.197
12575TIP3    H237669   0.614   0.351   3.197
12576TIP3   OH237670   7.256   6.771   3.875
12576TIP3    H137671   7.160   6.767   3.871
12576TIP3    H237672   7.275   6.830   3.948
12577TIP3   OH237673   7.283   2.748   0.742
12577TIP3    H137674   7.286   2.677   0.678
12577TIP3    H237675   7.269   2.705   0.826
12578TIP3   OH237676   4.150   7.648   2.945
12578TIP3    H137677   4.087   7.664   3.015
12578TIP3    H237678   4.131   7.715   2.879
12579TIP3   OH237679   2.853   6.067   6.499
12579TIP3    H137680   2.758   6.060   6.495
12579TIP3    H237681   2.885   5.989   6.454
12580TIP3   OH237682   1.488   3.920   6.715
12580TIP3    H137683   1.419   3.860   6.744
12580TIP3    H237684   1.568   3.868   6.718
12581TIP3   OH237685   0.676   4.167   0.506
12581TIP3    H137686   0.772   4.177   0.501
12581TIP3    H237687   0.648   4.155   0.416
12582TIP3   OH237688   3.693   6.122   1.537
12582TIP3    H137689   3.732   6.051   1.588
12582TIP3    H237690   3.756   6.138   1.467
12583TIP3   OH237691   2.568   3.022   0.632
12583TIP3    H137692   2.598   2.932   0.638
12583TIP3    H237693   2.504   3.031   0.702
12584TIP3   OH237694   5.402   0.644   0.689
12584TIP3    H137695   5.469   0.615   0.751
12584TIP3    H237696   5.322   0.652   0.741
12585TIP3   OH237697   0.060   2.418   6.563
12585TIP3    H137698   0.032   2.422   6.654
12585TIP3    H237699   0.137   2.361   6.564
12586TIP3   OH237700   2.384   3.025   3.971
12586TIP3    H137701   2.292   3.035   3.992
12586TIP3    H237702   2.430   3.074   4.039
12587TIP3   OH237703   5.264   5.999   5.005
12587TIP3    H137704   5.188   6.056   4.988
12587TIP3    H237705   5.307   6.038   5.081
12588TIP3   OH237706   7.781   1.166   0.484
12588TIP3    H137707   7.851   1.210   0.533
12588TIP3    H237708   7.815   1.159   0.395
12589TIP3   OH237709   5.826   3.780   5.557
12589TIP3    H137710   5.888   3.713   5.585
12589TIP3    H237711   5.822   3.771   5.462
12590TIP3   OH237712   0.417   5.405   1.621
12590TIP3    H137713   0.477   5.334   1.645
12590TIP3    H237714   0.356   5.365   1.560
12591TIP3   OH237715   5.586   2.136   3.820
12591TIP3    H137716   5.564   2.050   3.781
12591TIP3    H237717   5.539   2.136   3.903
12592TIP3   OH237718   5.198   4.712   3.174
12592TIP3    H137719   5.254   4.653   3.124
12592TIP3    H237720   5.192   4.791   3.121
12593TIP3   OH237721   7.420   7.815   1.987
12593TIP3    H137722   7.399   7.813   2.080
12593TIP3    H237723   7.334   7.814   1.943
12594TIP3   OH237724   6.883   5.702   1.690
12594TIP3    H137725   6.965   5.665   1.722
12594TIP3    H237726   6.905   5.793   1.667
12595TIP3   OH237727   5.590   1.284   0.371
12595TIP3    H137728   5.617   1.314   0.459
12595TIP3    H237729   5.554   1.197   0.386
12596TIP3   OH237730   4.140   0.398   4.661
12596TIP3    H137731   4.149   0.444   4.744
12596TIP3    H237732   4.147   0.306   4.683
12597TIP3   OH237733   5.573   1.932   2.399
12597TIP3    H137734   5.638   1.953   2.332
12597TIP3    H237735   5.542   1.844   2.375
12598TIP3   OH237736   1.153   0.092   1.712
12598TIP3    H137737   1.227   0.149   1.733
12598TIP3    H237738   1.127   0.118   1.624
12599TIP3   OH237739   4.913   5.283   5.305
12599TIP3    H137740   4.895   5.262   5.397
12599TIP3    H237741   4.990   5.231   5.283
12600TIP3   OH237742   3.392   5.741   5.636
12600TIP3    H137743   3.377   5.656   5.593
12600TIP3    H237744   3.341   5.736   5.717
12601TIP3   OH237745   6.884   2.296   4.768
12601TIP3    H137746   6.954   2.231   4.762
12601TIP3    H237747   6.912   2.367   4.710
12602TIP3   OH237748   6.359   1.427   3.034
12602TIP3    H137749   6.325   1.378   3.109
12602TIP3    H237750   6.454   1.420   3.042
12603TIP3   OH237751   4.184   4.648   6.583
12603TIP3    H137752   4.275   4.668   6.605
12603TIP3    H237753   4.170   4.560   6.619
12604TIP3   OH237754   6.077   2.220   0.898
12604TIP3    H137755   6.004   2.164   0.873
12604TIP3    H237756   6.147   2.160   0.922
12605TIP3   OH237757   6.404   7.281   4.690
12605TIP3    H137758   6.379   7.211   4.629
12605TIP3    H237759   6.390   7.244   4.777
12606TIP3   OH237760   7.608   1.283   0.904
12606TIP3    H137761   7.635   1.221   0.836
12606TIP3    H237762   7.577   1.360   0.855
12607TIP3   OH237763   0.253   7.342   5.935
12607TIP3    H137764   0.221   7.279   6.000
12607TIP3    H237765   0.306   7.289   5.875
12608TIP3   OH237766   5.154   6.421   1.484
12608TIP3    H137767   5.198   6.386   1.562
12608TIP3    H237768   5.090   6.483   1.519
12609TIP3   OH237769   0.542   4.284   3.488
12609TIP3    H137770   0.629   4.267   3.451
12609TIP3    H237771   0.505   4.352   3.431
12610TIP3   OH237772   4.044   5.475   5.284
12610TIP3    H137773   4.076   5.562   5.259
12610TIP3    H237774   3.988   5.491   5.359
12611TIP3   OH237775   3.705   6.475   3.247
12611TIP3    H137776   3.740   6.408   3.305
12611TIP3    H237777   3.759   6.552   3.264
12612TIP3   OH237778   4.079   6.636   1.773
12612TIP3    H137779   4.002   6.693   1.778
12612TIP3    H237780   4.074   6.596   1.686
12613TIP3   OH237781   5.368   4.848   6.595
12613TIP3    H137782   5.443   4.802   6.631
12613TIP3    H237783   5.392   4.868   6.505
12614TIP3   OH237784   3.284   0.621   5.884
12614TIP3    H137785   3.369   0.579   5.900
12614TIP3    H237786   3.278   0.628   5.789
12615TIP3   OH237787   6.549   0.517   6.548
12615TIP3    H137788   6.530   0.485   6.636
12615TIP3    H237789   6.487   0.589   6.534
12616TIP3   OH237790   6.221   0.352   0.396
12616TIP3    H137791   6.158   0.371   0.466
12616TIP3    H237792   6.306   0.372   0.435
12617TIP3   OH237793   4.082   1.304   2.971
12617TIP3    H137794   4.142   1.229   2.970
12617TIP3    H237795   4.089   1.339   3.060
12618TIP3   OH237796   1.007   1.285   3.821
12618TIP3    H137797   1.008   1.356   3.885
12618TIP3    H237798   1.036   1.208   3.870
12619TIP3   OH237799   8.229   0.958   4.292
12619TIP3    H137800   8.183   0.934   4.373
12619TIP3    H237801   8.271   1.042   4.313
12620TIP3   OH237802   5.834   1.551   1.398
12620TIP3    H137803   5.860   1.558   1.490
12620TIP3    H237804   5.903   1.499   1.358
12621TIP3   OH237805   2.129   5.356   0.658
12621TIP3    H137806   2.151   5.286   0.596
12621TIP3    H237807   2.146   5.437   0.610
12622TIP3   OH237808   2.849   5.252   6.504
12622TIP3    H137809   2.799   5.288   6.431
12622TIP3    H237810   2.851   5.322   6.569
12623TIP3   OH237811   3.204   5.859   5.132
12623TIP3    H137812   3.143   5.902   5.073
12623TIP3    H237813   3.155   5.844   5.213
12624TIP3   OH237814   6.518   4.093   0.364
12624TIP3    H137815   6.499   4.157   0.432
12624TIP3    H237816   6.492   4.136   0.282
12625TIP3   OH237817   5.220   2.392   0.549
12625TIP3    H137818   5.137   2.440   0.556
12625TIP3    H237819   5.209   2.317   0.607
12626TIP3   OH237820   0.860   1.077   5.488
12626TIP3    H137821   0.847   1.164   5.526
12626TIP3    H237822   0.880   1.021   5.563
12627TIP3   OH237823   0.486   0.317   1.318
12627TIP3    H137824   0.547   0.281   1.383
12627TIP3    H237825   0.438   0.384   1.365
12628TIP3   OH237826   4.281   1.376   1.104
12628TIP3    H137827   4.267   1.461   1.061
12628TIP3    H237828   4.323   1.322   1.038
12629TIP3   OH237829   6.262   7.574   5.120
12629TIP3    H137830   6.287   7.483   5.107
12629TIP3    H237831   6.172   7.579   5.087
12630TIP3   OH237832   6.840   2.286   3.022
12630TIP3    H137833   6.836   2.229   3.099
12630TIP3    H237834   6.889   2.363   3.051
12631TIP3   OH237835   7.081   2.940   3.961
12631TIP3    H137836   7.114   2.883   3.891
12631TIP3    H237837   6.993   2.966   3.931
12632TIP3   OH237838   1.518   0.758   3.237
12632TIP3    H137839   1.458   0.750   3.162
12632TIP3    H237840   1.465   0.734   3.312
12633TIP3   OH237841   2.481   5.120   5.893
12633TIP3    H137842   2.451   5.068   5.818
12633TIP3    H237843   2.459   5.068   5.970
12634TIP3   OH237844   1.851   6.168   1.263
12634TIP3    H137845   1.816   6.081   1.281
12634TIP3    H237846   1.912   6.185   1.335
12635TIP3   OH237847   4.177   6.143   4.201
12635TIP3    H137848   4.134   6.087   4.266
12635TIP3    H237849   4.253   6.179   4.246
12636TIP3   OH237850   0.798   2.823   0.120
12636TIP3    H137851   0.864   2.838   0.053
12636TIP3    H237852   0.843   2.774   0.188
12637TIP3   OH237853   7.224   6.521   6.193
12637TIP3    H137854   7.306   6.525   6.243
12637TIP3    H237855   7.173   6.595   6.225
12638TIP3   OH237856   6.167   0.914   5.001
12638TIP3    H137857   6.127   0.989   5.044
12638TIP3    H237858   6.261   0.924   5.017
12639TIP3   OH237859   3.117   6.336   3.044
12639TIP3    H137860   3.085   6.426   3.042
12639TIP3    H237861   3.097   6.305   3.133
12640TIP3   OH237862   2.520   0.614   0.528
12640TIP3    H137863   2.577   0.545   0.563
12640TIP3    H237864   2.432   0.591   0.559
12641TIP3   OH237865   6.203   7.050   6.147
12641TIP3    H137866   6.217   6.968   6.194
12641TIP3    H237867   6.251   7.039   6.064
12642TIP3   OH237868   2.690   3.395   5.942
12642TIP3    H137869   2.756   3.424   6.005
12642TIP3    H237870   2.704   3.451   5.866
12643TIP3   OH237871   1.116   2.998   4.186
12643TIP3    H137872   1.203   3.036   4.175
12643TIP3    H237873   1.127   2.906   4.164
12644TIP3   OH237874   7.088   1.136   6.153
12644TIP3    H137875   7.056   1.142   6.063
12644TIP3    H237876   7.041   1.062   6.191
12645TIP3   OH237877   7.344   2.747   6.027
12645TIP3    H137878   7.287   2.813   6.067
12645TIP3    H237879   7.383   2.791   5.951
12646TIP3   OH237880   6.160   7.184   3.407
12646TIP3    H137881   6.081   7.184   3.460
12646TIP3    H237882   6.136   7.137   3.327
12647TIP3   OH237883   5.598   6.315   5.806
12647TIP3    H137884   5.552   6.398   5.792
12647TIP3    H237885   5.688   6.333   5.777
12648TIP3   OH237886   7.831   5.038   4.352
12648TIP3    H137887   7.839   5.100   4.279
12648TIP3    H237888   7.742   5.006   4.346
12649TIP3   OH237889   1.564   7.806   5.022
12649TIP3    H137890   1.532   7.756   5.096
12649TIP3    H237891   1.498   7.875   5.009
12650TIP3   OH237892   3.635   6.836   3.148
12650TIP3    H137893   3.641   6.859   3.055
12650TIP3    H237894   3.596   6.749   3.149
12651TIP3   OH237895   6.538   1.178   5.426
12651TIP3    H137896   6.533   1.263   5.382
12651TIP3    H237897   6.484   1.187   5.504
12652TIP3   OH237898   0.415   1.973   2.022
12652TIP3    H137899   0.336   1.940   1.979
12652TIP3    H237900   0.457   2.029   1.956
12653TIP3   OH237901   3.035   2.411   5.986
12653TIP3    H137902   2.986   2.460   5.921
12653TIP3    H237903   3.047   2.324   5.948
12654TIP3   OH237904   2.469   1.870   6.722
12654TIP3    H137905   2.484   1.956   6.762
12654TIP3    H237906   2.441   1.814   6.794
12655TIP3   OH237907   7.362   5.153   5.455
12655TIP3    H137908   7.317   5.167   5.538
12655TIP3    H237909   7.448   5.119   5.480
12656TIP3   OH237910   5.605   2.278   3.086
12656TIP3    H137911   5.616   2.334   3.163
12656TIP3    H237912   5.637   2.331   3.013
12657TIP3   OH237913   1.748   4.096   0.547
12657TIP3    H137914   1.710   4.129   0.465
12657TIP3    H237915   1.810   4.029   0.519
12658TIP3   OH237916   6.453   5.469   1.408
12658TIP3    H137917   6.447   5.561   1.434
12658TIP3    H237918   6.363   5.445   1.385
12659TIP3   OH237919   4.362   7.090   6.025
12659TIP3    H137920   4.364   7.185   6.019
12659TIP3    H237921   4.287   7.064   5.971
12660TIP3   OH237922   3.213   7.458   5.130
12660TIP3    H137923   3.166   7.436   5.211
12660TIP3    H237924   3.150   7.442   5.061
12661TIP3   OH237925   7.347   6.806   3.588
12661TIP3    H137926   7.326   6.804   3.681
12661TIP3    H237927   7.270   6.767   3.545
12662TIP3   OH237928   2.515   4.645   6.688
12662TIP3    H137929   2.538   4.553   6.701
12662TIP3    H237930   2.519   4.683   6.776
12663TIP3   OH237931   8.044   4.516   4.652
12663TIP3    H137932   7.960   4.484   4.683
12663TIP3    H237933   8.044   4.497   4.558
12664TIP3   OH237934   7.108   4.532   0.877
12664TIP3    H137935   7.184   4.501   0.925
12664TIP3    H237936   7.035   4.520   0.937
12665TIP3   OH237937   0.138   5.990   2.705
12665TIP3    H137938   0.065   6.048   2.724
12665TIP3    H237939   0.185   5.983   2.788
12666TIP3   OH237940   4.983   5.609   0.120
12666TIP3    H137941   5.046   5.662   0.170
12666TIP3    H237942   4.899   5.652   0.135
12667TIP3   OH237943   8.064   1.400   1.880
12667TIP3    H137944   8.158   1.385   1.895
12667TIP3    H237945   8.033   1.320   1.837
12668TIP3   OH237946   4.572   6.538   2.097
12668TIP3    H137947   4.579   6.460   2.042
12668TIP3    H237948   4.555   6.504   2.185
12669TIP3   OH237949   3.712   1.956   5.632
12669TIP3    H137950   3.667   1.875   5.606
12669TIP3    H237951   3.642   2.017   5.652
12670TIP3   OH237952   5.565   4.054   5.199
12670TIP3    H137953   5.651   4.066   5.158
12670TIP3    H237954   5.538   3.966   5.175
12671TIP3   OH237955   1.222   2.308   5.859
12671TIP3    H137956   1.310   2.314   5.895
12671TIP3    H237957   1.164   2.331   5.932
12672TIP3   OH237958   7.323   5.172   2.858
12672TIP3    H137959   7.417   5.162   2.847
12672TIP3    H237960   7.299   5.242   2.797
12673TIP3   OH237961   1.033   6.343   0.338
12673TIP3    H137962   1.098   6.293   0.388
12673TIP3    H237963   1.039   6.432   0.372
12674TIP3   OH237964   1.572   6.670   6.780
12674TIP3    H137965   1.588   6.663   6.686
12674TIP3    H237966   1.477   6.673   6.788
12675TIP3   OH237967   7.766   4.452   5.889
12675TIP3    H137968   7.727   4.456   5.802
12675TIP3    H237969   7.855   4.421   5.875
12676TIP3   OH237970   6.114   5.508   1.228
12676TIP3    H137971   6.139   5.461   1.148
12676TIP3    H237972   6.110   5.600   1.201
12677TIP3   OH237973   7.374   7.012   2.467
12677TIP3    H137974   7.358   7.097   2.426
12677TIP3    H237975   7.444   6.972   2.415
12678TIP3   OH237976   0.360   6.655   0.565
12678TIP3    H137977   0.379   6.562   0.551
12678TIP3    H237978   0.444   6.699   0.553
12679TIP3   OH237979   2.571   7.229   4.445
12679TIP3    H137980   2.622   7.298   4.489
12679TIP3    H237981   2.636   7.178   4.397
12680TIP3   OH237982   7.607   6.225   0.692
12680TIP3    H137983   7.683   6.237   0.636
12680TIP3    H237984   7.540   6.187   0.634
12681TIP3   OH237985   8.091   6.609   1.583
12681TIP3    H137986   8.020   6.552   1.612
12681TIP3    H237987   8.053   6.697   1.585
12682TIP3   OH237988   4.156   7.002   0.459
12682TIP3    H137989   4.126   7.017   0.370
12682TIP3    H237990   4.157   6.907   0.469
12683TIP3   OH237991   3.275   6.092   3.681
12683TIP3    H137992   3.325   6.156   3.630
12683TIP3    H237993   3.260   6.135   3.765
12684TIP3   OH237994   6.519   1.413   3.448
12684TIP3    H137995   6.541   1.483   3.387
12684TIP3    H237996   6.449   1.364   3.405
12685TIP3   OH237997   2.650   4.159   3.687
12685TIP3    H137998   2.695   4.100   3.749
12685TIP3    H237999   2.638   4.240   3.735
12686TIP3   OH238000   3.757   0.206   5.357
12686TIP3    H138001   3.687   0.142   5.344
12686TIP3    H238002   3.756   0.226   5.450
12687TIP3   OH238003   1.146   4.709   1.180
12687TIP3    H138004   1.193   4.792   1.171
12687TIP3    H238005   1.203   4.645   1.138
12688TIP3   OH238006   4.310   6.736   5.596
12688TIP3    H138007   4.352   6.821   5.586
12688TIP3    H238008   4.229   6.743   5.545
12689TIP3   OH238009   5.883   2.322   1.122
12689TIP3    H138010   5.913   2.392   1.180
12689TIP3    H238011   5.903   2.241   1.169
12690TIP3   OH238012   4.603   0.797   1.023
12690TIP3    H138013   4.594   0.734   0.952
12690TIP3    H238014   4.551   0.872   0.996
12691TIP3   OH238015   0.870   0.330   6.671
12691TIP3    H138016   0.833   0.256   6.622
12691TIP3    H238017   0.827   0.407   6.635
12692TIP3   OH238018   0.513   5.533   3.299
12692TIP3    H138019   0.441   5.554   3.239
12692TIP3    H238020   0.483   5.453   3.344
12693TIP3   OH238021   4.570   5.259   3.540
12693TIP3    H138022   4.630   5.295   3.605
12693TIP3    H238023   4.584   5.313   3.462
12694TIP3   OH238024   1.530   5.034   6.296
12694TIP3    H138025   1.600   4.994   6.244
12694TIP3    H238026   1.468   4.963   6.312
12695TIP3   OH238027   7.767   5.457   3.418
12695TIP3    H138028   7.751   5.363   3.418
12695TIP3    H238029   7.775   5.480   3.325
12696TIP3   OH238030   5.708   1.881   3.442
12696TIP3    H138031   5.751   1.961   3.413
12696TIP3    H238032   5.687   1.834   3.361
12697TIP3   OH238033   5.433   7.803   0.849
12697TIP3    H138034   5.392   7.811   0.763
12697TIP3    H238035   5.387   7.868   0.903
12698TIP3   OH238036   0.440   2.225   5.965
12698TIP3    H138037   0.382   2.297   5.942
12698TIP3    H238038   0.391   2.146   5.943
12699TIP3   OH238039   2.437   3.322   6.054
12699TIP3    H138040   2.384   3.289   5.982
12699TIP3    H238041   2.527   3.305   6.027
12700TIP3   OH238042   5.583   4.422   0.362
12700TIP3    H138043   5.547   4.509   0.380
12700TIP3    H238044   5.639   4.404   0.438
12701TIP3   OH238045   4.333   1.155   5.295
12701TIP3    H138046   4.267   1.145   5.364
12701TIP3    H238047   4.314   1.240   5.256
12702TIP3   OH238048   2.072   0.973   5.038
12702TIP3    H138049   2.130   1.018   4.976
12702TIP3    H238050   1.984   0.996   5.009
12703TIP3   OH238051   0.576   0.718   2.148
12703TIP3    H138052   0.526   0.798   2.161
12703TIP3    H238053   0.533   0.653   2.204
12704TIP3   OH238054   4.328   2.457   2.789
12704TIP3    H138055   4.346   2.384   2.730
12704TIP3    H238056   4.236   2.480   2.772
12705TIP3   OH238057   6.317   2.314   3.647
12705TIP3    H138058   6.307   2.409   3.645
12705TIP3    H238059   6.380   2.295   3.578
12706TIP3   OH238060   5.253   1.536   0.589
12706TIP3    H138061   5.344   1.550   0.563
12706TIP3    H238062   5.234   1.446   0.563
12707TIP3   OH238063   6.562   2.432   3.782
12707TIP3    H138064   6.642   2.463   3.825
12707TIP3    H238065   6.594   2.370   3.716
12708TIP3   OH238066   6.222   0.443   6.763
12708TIP3    H138067   6.187   0.531   6.745
12708TIP3    H238068   6.259   0.415   6.679
12709TIP3   OH238069   1.995   1.215   3.779
12709TIP3    H138070   1.970   1.273   3.707
12709TIP3    H238071   1.929   1.146   3.779
12710TIP3   OH238072   0.977   3.233   3.078
12710TIP3    H138073   0.989   3.183   2.998
12710TIP3    H238074   1.046   3.201   3.137
12711TIP3   OH238075   6.906   4.898   5.663
12711TIP3    H138076   6.942   4.986   5.668
12711TIP3    H238077   6.813   4.908   5.680
12712TIP3   OH238078   1.796   7.453   3.462
12712TIP3    H138079   1.876   7.407   3.489
12712TIP3    H238080   1.803   7.457   3.366
12713TIP3   OH238081   2.668   4.444   1.434
12713TIP3    H138082   2.600   4.492   1.481
12713TIP3    H238083   2.729   4.512   1.404
12714TIP3   OH238084   3.571   0.468   1.875
12714TIP3    H138085   3.655   0.435   1.842
12714TIP3    H238086   3.579   0.563   1.870
12715TIP3   OH238087   5.741   0.684   2.750
12715TIP3    H138088   5.783   0.683   2.664
12715TIP3    H238089   5.688   0.764   2.749
12716TIP3   OH238090   0.533   1.456   5.519
12716TIP3    H138091   0.521   1.538   5.568
12716TIP3    H238092   0.613   1.418   5.555
12717TIP3   OH238093   4.878   0.236   6.564
12717TIP3    H138094   4.788   0.215   6.586
12717TIP3    H238095   4.926   0.225   6.646
12718TIP3   OH238096   0.035   5.909   1.753
12718TIP3    H138097  -0.027   5.837   1.749
12718TIP3    H238098   0.109   5.874   1.803
12719TIP3   OH238099   5.831   5.818   6.228
12719TIP3    H138100   5.776   5.889   6.263
12719TIP3    H238101   5.807   5.741   6.281
12720TIP3   OH238102   1.868   4.966   5.450
12720TIP3    H138103   1.897   5.053   5.480
12720TIP3    H238104   1.808   4.936   5.518
12721TIP3   OH238105   3.737   2.089   3.932
12721TIP3    H138106   3.802   2.081   4.002
12721TIP3    H238107   3.751   2.012   3.877
12722TIP3   OH238108   1.970   3.607   1.766
12722TIP3    H138109   2.065   3.598   1.759
12722TIP3    H238110   1.950   3.589   1.858
12723TIP3   OH238111   5.981   2.031   5.907
12723TIP3    H138112   5.973   2.118   5.944
12723TIP3    H238113   5.908   1.982   5.944
12724TIP3   OH238114   5.553   6.352   6.524
12724TIP3    H138115   5.626   6.294   6.543
12724TIP3    H238116   5.589   6.440   6.533
12725TIP3   OH238117   3.617   3.858   5.815
12725TIP3    H138118   3.585   3.869   5.725
12725TIP3    H238119   3.590   3.939   5.859
12726TIP3   OH238120   8.278   3.413   5.871
12726TIP3    H138121   8.319   3.466   5.803
12726TIP3    H238122   8.185   3.410   5.848
12727TIP3   OH238123   8.086   6.112   1.660
12727TIP3    H138124   8.111   6.162   1.582
12727TIP3    H238125   8.167   6.069   1.687
12728TIP3   OH238126   0.673   1.351   6.752
12728TIP3    H138127   0.676   1.399   6.669
12728TIP3    H238128   0.644   1.263   6.728
12729TIP3   OH238129   3.571   3.946   3.122
12729TIP3    H138130   3.563   4.015   3.056
12729TIP3    H238131   3.566   3.864   3.071
12730TIP3   OH238132   1.820   3.632   3.867
12730TIP3    H138133   1.901   3.643   3.915
12730TIP3    H238134   1.828   3.547   3.824
12731TIP3   OH238135   4.979   1.803   2.807
12731TIP3    H138136   4.893   1.815   2.846
12731TIP3    H238137   5.016   1.727   2.853
12732TIP3   OH238138   5.813   0.595   3.617
12732TIP3    H138139   5.886   0.540   3.644
12732TIP3    H238140   5.798   0.654   3.691
12733TIP3   OH238141   3.609   0.409   4.143
12733TIP3    H138142   3.561   0.326   4.148
12733TIP3    H238143   3.701   0.383   4.136
12734TIP3   OH238144   1.572   4.749   1.557
12734TIP3    H138145   1.604   4.699   1.632
12734TIP3    H238146   1.514   4.689   1.510
12735TIP3   OH238147   5.312   3.332   2.214
12735TIP3    H138148   5.222   3.367   2.217
12735TIP3    H238149   5.318   3.274   2.290
12736TIP3   OH238150   6.684   6.186   1.230
12736TIP3    H138151   6.771   6.225   1.225
12736TIP3    H238152   6.672   6.142   1.146
12737TIP3   OH238153   4.632   1.981   0.930
12737TIP3    H138154   4.648   1.936   1.013
12737TIP3    H238155   4.581   1.918   0.878
12738TIP3   OH238156   0.614   5.080   6.177
12738TIP3    H138157   0.541   5.066   6.116
12738TIP3    H238158   0.603   5.170   6.208
12739TIP3   OH238159   0.743   5.363   3.314
12739TIP3    H138160   0.821   5.414   3.292
12739TIP3    H238161   0.670   5.423   3.301
12740TIP3   OH238162   0.727   0.116   5.821
12740TIP3    H138163   0.660   0.076   5.878
12740TIP3    H238164   0.685   0.121   5.735
12741TIP3   OH238165   2.471   2.727   0.832
12741TIP3    H138166   2.398   2.682   0.788
12741TIP3    H238167   2.491   2.672   0.908
12742TIP3   OH238168   1.650   7.427   0.908
12742TIP3    H138169   1.686   7.449   0.994
12742TIP3    H238170   1.690   7.343   0.886
12743TIP3   OH238171   0.298   5.795   1.855
12743TIP3    H138172   0.316   5.832   1.768
12743TIP3    H238173   0.353   5.846   1.914
12744TIP3   OH238174   1.723   7.864   0.792
12744TIP3    H138175   1.766   7.840   0.873
12744TIP3    H238176   1.686   7.783   0.759
12745TIP3   OH238177   0.007   3.864   1.942
12745TIP3    H138178   0.042   3.953   1.938
12745TIP3    H238179   0.000   3.845   2.036
12746TIP3   OH238180   0.560   6.215   4.950
12746TIP3    H138181   0.609   6.219   4.867
12746TIP3    H238182   0.625   6.187   5.014
12747TIP3   OH238183   8.188   7.523   4.797
12747TIP3    H138184   8.232   7.509   4.713
12747TIP3    H238185   8.132   7.446   4.809
12748TIP3   OH238186   7.447   1.217   2.008
12748TIP3    H138187   7.450   1.265   1.925
12748TIP3    H238188   7.484   1.131   1.987
12749TIP3   OH238189   4.597   1.315   5.496
12749TIP3    H138190   4.684   1.278   5.505
12749TIP3    H238191   4.608   1.387   5.434
12750TIP3   OH238192   2.580   1.042   5.485
12750TIP3    H138193   2.605   1.078   5.400
12750TIP3    H238194   2.657   1.054   5.540
12751TIP3   OH238195   2.044   1.991   1.931
12751TIP3    H138196   2.081   2.061   1.984
12751TIP3    H238197   2.050   2.023   1.841
12752TIP3   OH238198   6.155   1.916   5.732
12752TIP3    H138199   6.091   1.961   5.787
12752TIP3    H238200   6.205   1.862   5.793
12753TIP3   OH238201   7.130   6.533   1.773
12753TIP3    H138202   7.070   6.594   1.730
12753TIP3    H238203   7.206   6.587   1.795
12754TIP3   OH238204   1.326   6.280   1.501
12754TIP3    H138205   1.399   6.218   1.510
12754TIP3    H238206   1.288   6.259   1.415
12755TIP3   OH238207   2.079   2.537   6.283
12755TIP3    H138208   2.160   2.512   6.239
12755TIP3    H238209   2.051   2.459   6.330
12756TIP3   OH238210   4.218   5.258   1.510
12756TIP3    H138211   4.148   5.229   1.451
12756TIP3    H238212   4.269   5.179   1.527
12757TIP3   OH238213   0.443   7.031   3.643
12757TIP3    H138214   0.380   6.982   3.695
12757TIP3    H238215   0.525   7.025   3.692
12758TIP3   OH238216   4.990   0.600   5.280
12758TIP3    H138217   4.965   0.638   5.196
12758TIP3    H238218   4.915   0.546   5.305
12759TIP3   OH238219   5.767   6.704   5.590
12759TIP3    H138220   5.831   6.703   5.662
12759TIP3    H238221   5.685   6.676   5.631
12760TIP3   OH238222   3.920   7.405   2.070
12760TIP3    H138223   4.011   7.432   2.084
12760TIP3    H238224   3.872   7.488   2.064
12761TIP3   OH238225   4.343   5.689   5.595
12761TIP3    H138226   4.356   5.594   5.586
12761TIP3    H238227   4.359   5.724   5.508
12762TIP3   OH238228   3.293   4.060   1.566
12762TIP3    H138229   3.382   4.069   1.533
12762TIP3    H238230   3.276   4.142   1.613
12763TIP3   OH238231   8.305   4.808   2.844
12763TIP3    H138232   8.243   4.817   2.917
12763TIP3    H238233   8.349   4.893   2.839
12764TIP3   OH238234   0.497   4.475   2.509
12764TIP3    H138235   0.552   4.443   2.438
12764TIP3    H238236   0.537   4.558   2.534
12765TIP3   OH238237   3.542   3.070   2.445
12765TIP3    H138238   3.486   3.003   2.486
12765TIP3    H238239   3.525   3.062   2.351
12766TIP3   OH238240   0.974   1.327   5.838
12766TIP3    H138241   1.020   1.376   5.770
12766TIP3    H238242   0.950   1.393   5.902
12767TIP3   OH238243   3.264   7.287   1.569
12767TIP3    H138244   3.330   7.321   1.629
12767TIP3    H238245   3.182   7.293   1.617
12768TIP3   OH238246   3.039   6.567   3.134
12768TIP3    H138247   3.046   6.588   3.227
12768TIP3    H238248   3.114   6.609   3.093
12769TIP3   OH238249   2.272   3.229   3.379
12769TIP3    H138250   2.218   3.150   3.367
12769TIP3    H238251   2.231   3.295   3.323
12770TIP3   OH238252   5.444   5.428   4.061
12770TIP3    H138253   5.436   5.333   4.062
12770TIP3    H238254   5.470   5.449   3.972
12771TIP3   OH238255   4.461   6.956   0.106
12771TIP3    H138256   4.422   6.875   0.073
12771TIP3    H238257   4.454   7.018   0.033
12772TIP3   OH238258   4.534   1.289   6.384
12772TIP3    H138259   4.541   1.198   6.412
12772TIP3    H238260   4.612   1.331   6.420
12773TIP3   OH238261   0.250   7.784   5.424
12773TIP3    H138262   0.174   7.750   5.376
12773TIP3    H238263   0.234   7.878   5.429
12774TIP3   OH238264   4.539   4.232   4.256
12774TIP3    H138265   4.456   4.197   4.224
12774TIP3    H238266   4.520   4.322   4.281
12775TIP3   OH238267   3.114   5.242   6.236
12775TIP3    H138268   3.114   5.244   6.140
12775TIP3    H238269   3.061   5.165   6.257
12776TIP3   OH238270   5.974   3.785   4.133
12776TIP3    H138271   5.957   3.865   4.184
12776TIP3    H238272   6.066   3.791   4.109
12777TIP3   OH238273   6.411   4.415   3.855
12777TIP3    H138274   6.382   4.507   3.855
12777TIP3    H238275   6.502   4.418   3.884
12778TIP3   OH238276   2.792   4.050   6.657
12778TIP3    H138277   2.836   3.969   6.635
12778TIP3    H238278   2.861   4.117   6.657
12779TIP3   OH238279   0.660   7.793   4.769
12779TIP3    H138280   0.619   7.864   4.818
12779TIP3    H238281   0.640   7.715   4.820
12780TIP3   OH238282   5.929   5.001   4.232
12780TIP3    H138283   5.961   5.017   4.143
12780TIP3    H238284   5.839   4.971   4.219
12781TIP3   OH238285   3.486   2.229   4.891
12781TIP3    H138286   3.428   2.171   4.842
12781TIP3    H238287   3.530   2.171   4.953
12782TIP3   OH238288   3.561   0.060   2.220
12782TIP3    H138289   3.628   0.108   2.171
12782TIP3    H238290   3.535  -0.011   2.162
12783TIP3   OH238291   6.869   1.142   1.227
12783TIP3    H138292   6.818   1.180   1.156
12783TIP3    H238293   6.869   1.048   1.210
12784TIP3   OH238294   5.220   3.422   5.679
12784TIP3    H138295   5.187   3.333   5.691
12784TIP3    H238296   5.248   3.449   5.767
12785TIP3   OH238297   6.116   0.375   6.461
12785TIP3    H138298   6.166   0.296   6.439
12785TIP3    H238299   6.165   0.447   6.422
12786TIP3   OH238300   1.050   7.583   0.468
12786TIP3    H138301   1.145   7.581   0.481
12786TIP3    H238302   1.014   7.555   0.552
12787TIP3   OH238303   7.542   0.276   1.793
12787TIP3    H138304   7.604   0.252   1.861
12787TIP3    H238305   7.590   0.335   1.736
12788TIP3   OH238306   5.072   2.098   3.570
12788TIP3    H138307   5.127   2.025   3.541
12788TIP3    H238308   4.982   2.070   3.551
12789TIP3   OH238309   0.907   7.775   3.739
12789TIP3    H138310   0.963   7.837   3.693
12789TIP3    H238311   0.831   7.765   3.681
12790TIP3   OH238312   5.985   6.515   5.083
12790TIP3    H138313   5.933   6.436   5.092
12790TIP3    H238314   6.071   6.484   5.054
12791TIP3   OH238315   6.947   2.658   2.845
12791TIP3    H138316   7.002   2.579   2.848
12791TIP3    H238317   6.919   2.671   2.935
12792TIP3   OH238318   1.545   2.336   2.032
12792TIP3    H138319   1.540   2.354   2.126
12792TIP3    H238320   1.510   2.415   1.991
12793TIP3   OH238321   6.851   4.994   0.920
12793TIP3    H138322   6.758   4.982   0.939
12793TIP3    H238323   6.871   4.925   0.857
12794TIP3   OH238324   1.200   6.619   0.326
12794TIP3    H138325   1.230   6.613   0.235
12794TIP3    H238326   1.257   6.685   0.365
12795TIP3   OH238327   1.949   0.502   1.021
12795TIP3    H138328   1.889   0.576   1.011
12795TIP3    H238329   1.971   0.501   1.114
12796TIP3   OH238330   1.668   3.597   6.738
12796TIP3    H138331   1.648   3.652   6.662
12796TIP3    H238332   1.649   3.508   6.709
12797TIP3   OH238333   8.105   1.755   3.792
12797TIP3    H138334   8.053   1.835   3.792
12797TIP3    H238335   8.069   1.701   3.721
12798TIP3   OH238336   5.514   3.765   5.176
12798TIP3    H138337   5.428   3.748   5.137
12798TIP3    H238338   5.574   3.711   5.125
12799TIP3   OH238339   4.219   5.048   0.471
12799TIP3    H138340   4.160   5.004   0.532
12799TIP3    H238341   4.221   4.990   0.395
12800TIP3   OH238342   6.328   7.036   4.124
12800TIP3    H138343   6.284   7.033   4.039
12800TIP3    H238344   6.406   6.981   4.113
12801TIP3   OH238345   3.517   1.039   1.656
12801TIP3    H138346   3.450   1.065   1.592
12801TIP3    H238347   3.592   1.013   1.602
12802TIP3   OH238348   2.152   0.400   5.285
12802TIP3    H138349   2.185   0.425   5.198
12802TIP3    H238350   2.186   0.312   5.299
12803TIP3   OH238351   1.787   3.883   6.642
12803TIP3    H138352   1.765   3.849   6.556
12803TIP3    H238353   1.873   3.922   6.632
12804TIP3   OH238354   3.406   5.069   6.378
12804TIP3    H138355   3.465   5.024   6.438
12804TIP3    H238356   3.445   5.155   6.364
12805TIP3   OH238357   1.220   6.782   6.626
12805TIP3    H138358   1.269   6.772   6.708
12805TIP3    H238359   1.261   6.721   6.565
12806TIP3   OH238360   7.886   1.106   0.106
12806TIP3    H138361   7.958   1.130   0.165
12806TIP3    H238362   7.919   1.126   0.019
12807TIP3   OH238363   5.133   6.548   4.678
12807TIP3    H138364   5.184   6.534   4.757
12807TIP3    H238365   5.175   6.622   4.634
12808TIP3   OH238366   2.757   6.995   6.476
12808TIP3    H138367   2.722   6.906   6.474
12808TIP3    H238368   2.737   7.030   6.390
12809TIP3   OH238369   5.817   3.397   4.373
12809TIP3    H138370   5.737   3.389   4.321
12809TIP3    H238371   5.838   3.490   4.371
12810TIP3   OH238372   2.491   3.097   4.631
12810TIP3    H138373   2.503   3.044   4.710
12810TIP3    H238374   2.569   3.077   4.578
12811TIP3   OH238375   8.022   3.557   3.824
12811TIP3    H138376   8.094   3.553   3.887
12811TIP3    H238377   7.987   3.645   3.833
12812TIP3   OH238378   0.729   6.425   1.471
12812TIP3    H138379   0.636   6.427   1.448
12812TIP3    H238380   0.737   6.487   1.544
12813TIP3   OH238381   2.206   1.857   6.565
12813TIP3    H138382   2.134   1.881   6.624
12813TIP3    H238383   2.285   1.872   6.618
12814TIP3   OH238384   2.796   2.984   1.672
12814TIP3    H138385   2.850   3.059   1.694
12814TIP3    H238386   2.858   2.916   1.644
12815TIP3   OH238387   0.046   1.180   1.023
12815TIP3    H138388   0.063   1.271   0.999
12815TIP3    H238389   0.102   1.129   0.964
12816TIP3   OH238390   6.811   0.838   1.565
12816TIP3    H138391   6.835   0.847   1.473
12816TIP3    H238392   6.833   0.747   1.587
12817TIP3   OH238393   6.000   0.673   3.225
12817TIP3    H138394   5.923   0.701   3.274
12817TIP3    H238395   6.063   0.646   3.291
12818TIP3   OH238396   3.566   5.938   2.066
12818TIP3    H138397   3.625   5.982   2.128
12818TIP3    H238398   3.479   5.949   2.105
12819TIP3   OH238399   0.279   5.864   2.902
12819TIP3    H138400   0.290   5.777   2.864
12819TIP3    H238401   0.340   5.866   2.976
12820TIP3   OH238402   7.501   6.541   2.602
12820TIP3    H138403   7.568   6.567   2.538
12820TIP3    H238404   7.545   6.550   2.687
12821TIP3   OH238405   4.648   7.559   3.789
12821TIP3    H138406   4.592   7.557   3.867
12821TIP3    H238407   4.599   7.509   3.724
12822TIP3   OH238408   2.542   4.339   6.692
12822TIP3    H138409   2.601   4.337   6.767
12822TIP3    H238410   2.591   4.297   6.621
12823TIP3   OH238411   7.320   3.563   0.437
12823TIP3    H138412   7.248   3.592   0.492
12823TIP3    H238413   7.309   3.611   0.355
12824TIP3   OH238414   6.216   5.728   5.151
12824TIP3    H138415   6.162   5.654   5.124
12824TIP3    H238416   6.305   5.692   5.153
12825TIP3   OH238417   1.905   1.022   3.270
12825TIP3    H138418   1.891   0.931   3.296
12825TIP3    H238419   1.876   1.025   3.179
12826TIP3   OH238420   3.268   0.533   1.521
12826TIP3    H138421   3.349   0.577   1.546
12826TIP3    H238422   3.275   0.523   1.426
12827TIP3   OH238423   8.236   1.573   2.527
12827TIP3    H138424   8.153   1.572   2.574
12827TIP3    H238425   8.302   1.587   2.595
12828TIP3   OH238426   4.604   1.754   5.986
12828TIP3    H138427   4.596   1.680   6.047
12828TIP3    H238428   4.551   1.823   6.025
12829TIP3   OH238429   2.048   2.998   5.528
12829TIP3    H138430   1.954   2.984   5.538
12829TIP3    H238431   2.060   3.020   5.436
12830TIP3   OH238432   7.137   1.851   0.362
12830TIP3    H138433   7.149   1.766   0.319
12830TIP3    H238434   7.185   1.845   0.444
12831TIP3   OH238435   4.949   4.771   0.632
12831TIP3    H138436   5.021   4.794   0.692
12831TIP3    H238437   4.874   4.760   0.690
12832TIP3   OH238438   7.479   5.695   0.074
12832TIP3    H138439   7.511   5.606   0.092
12832TIP3    H238440   7.548   5.735   0.021
12833TIP3   OH238441   5.071   7.375   5.387
12833TIP3    H138442   5.020   7.389   5.467
12833TIP3    H238443   5.049   7.286   5.360
12834TIP3   OH238444   2.929   6.641   4.211
12834TIP3    H138445   2.929   6.613   4.302
12834TIP3    H238446   2.885   6.570   4.164
12835TIP3   OH238447   7.376   0.216   3.915
12835TIP3    H138448   7.444   0.235   3.851
12835TIP3    H238449   7.416   0.151   3.974
12836TIP3   OH238450   2.052   3.940   1.686
12836TIP3    H138451   1.958   3.927   1.696
12836TIP3    H238452   2.088   3.851   1.687
12837TIP3   OH238453   1.470   5.074   2.204
12837TIP3    H138454   1.398   5.029   2.161
12837TIP3    H238455   1.540   5.009   2.210
12838TIP3   OH238456   7.191   0.944   5.269
12838TIP3    H138457   7.236   0.879   5.322
12838TIP3    H238458   7.101   0.944   5.301
12839TIP3   OH238459   5.930   6.869   1.468
12839TIP3    H138460   5.957   6.847   1.557
12839TIP3    H238461   5.837   6.844   1.465
12840TIP3   OH238462   7.505   4.197   6.259
12840TIP3    H138463   7.540   4.246   6.185
12840TIP3    H238464   7.546   4.238   6.336
12841TIP3   OH238465   7.438   6.516   5.014
12841TIP3    H138466   7.431   6.495   5.107
12841TIP3    H238467   7.360   6.476   4.975
12842TIP3   OH238468   0.995   4.499   3.664
12842TIP3    H138469   0.957   4.540   3.586
12842TIP3    H238470   1.042   4.423   3.630
12843TIP3   OH238471   2.018   5.159   3.198
12843TIP3    H138472   2.077   5.107   3.252
12843TIP3    H238473   2.074   5.225   3.157
12844TIP3   OH238474   7.476   2.145   2.426
12844TIP3    H138475   7.438   2.063   2.394
12844TIP3    H238476   7.565   2.121   2.453
12845TIP3   OH238477   1.347   5.983   5.364
12845TIP3    H138478   1.269   5.943   5.324
12845TIP3    H238479   1.390   5.910   5.408
12846TIP3   OH238480  -0.038   2.536   0.448
12846TIP3    H138481   0.022   2.462   0.443
12846TIP3    H238482   0.018   2.613   0.445
12847TIP3   OH238483   0.073   4.221   1.200
12847TIP3    H138484   0.029   4.306   1.202
12847TIP3    H238485   0.140   4.227   1.269
12848TIP3   OH238486   2.397   1.231   6.698
12848TIP3    H138487   2.489   1.258   6.696
12848TIP3    H238488   2.365   1.247   6.609
12849TIP3   OH238489   5.499   0.722   6.290
12849TIP3    H138490   5.574   0.764   6.249
12849TIP3    H238491   5.479   0.647   6.234
12850TIP3   OH238492   4.903   5.158   1.225
12850TIP3    H138493   4.850   5.225   1.181
12850TIP3    H238494   4.844   5.084   1.236
12851TIP3   OH238495   7.496   6.157   5.441
12851TIP3    H138496   7.563   6.219   5.469
12851TIP3    H238497   7.474   6.108   5.521
12852TIP3   OH238498   0.990   5.893   6.160
12852TIP3    H138499   0.914   5.858   6.207
12852TIP3    H238500   1.064   5.874   6.217
12853TIP3   OH238501   5.931   6.001   1.022
12853TIP3    H138502   5.993   5.957   0.965
12853TIP3    H238503   5.847   5.958   1.005
12854TIP3   OH238504   3.829   6.585   2.258
12854TIP3    H138505   3.738   6.575   2.289
12854TIP3    H238506   3.820   6.600   2.164
12855TIP3   OH238507   7.764   1.398   3.397
12855TIP3    H138508   7.791   1.363   3.312
12855TIP3    H238509   7.842   1.444   3.430
12856TIP3   OH238510   7.014   0.493   2.596
12856TIP3    H138511   6.978   0.434   2.530
12856TIP3    H238512   7.038   0.435   2.669
12857TIP3   OH238513   6.443   6.831   5.296
12857TIP3    H138514   6.375   6.896   5.277
12857TIP3    H238515   6.404   6.775   5.363
12858TIP3   OH238516   6.662   3.514   3.220
12858TIP3    H138517   6.606   3.465   3.280
12858TIP3    H238518   6.604   3.539   3.148
12859TIP3   OH238519   3.910   2.788   0.589
12859TIP3    H138520   3.936   2.713   0.643
12859TIP3    H238521   3.993   2.825   0.559
12860TIP3   OH238522   1.527   4.376   2.652
12860TIP3    H138523   1.586   4.334   2.714
12860TIP3    H238524   1.553   4.468   2.652
12861TIP3   OH238525   7.985   7.575   2.188
12861TIP3    H138526   7.970   7.626   2.109
12861TIP3    H238527   8.080   7.568   2.195
12862TIP3   OH238528   2.366   5.687   4.455
12862TIP3    H138529   2.271   5.677   4.457
12862TIP3    H238530   2.400   5.603   4.487
12863TIP3   OH238531   1.089   5.787   6.575
12863TIP3    H138532   1.125   5.842   6.506
12863TIP3    H238533   1.013   5.837   6.608
12864TIP3   OH238534   0.303   3.407   2.654
12864TIP3    H138535   0.210   3.401   2.674
12864TIP3    H238536   0.315   3.346   2.581
12865TIP3   OH238537   2.580   5.085   2.969
12865TIP3    H138538   2.562   4.991   2.971
12865TIP3    H238539   2.654   5.093   2.908
12866TIP3   OH238540   4.485   4.181   2.746
12866TIP3    H138541   4.465   4.251   2.809
12866TIP3    H238542   4.576   4.198   2.720
12867TIP3   OH238543   0.902   2.608   3.297
12867TIP3    H138544   0.996   2.612   3.276
12867TIP3    H238545   0.896   2.648   3.384
12868TIP3   OH238546   2.342   2.067   5.007
12868TIP3    H138547   2.384   2.002   4.952
12868TIP3    H238548   2.306   2.018   5.081
12869TIP3   OH238549   6.805   4.467   5.566
12869TIP3    H138550   6.777   4.512   5.486
12869TIP3    H238551   6.811   4.375   5.542
12870TIP3   OH238552   4.110   1.184   4.697
12870TIP3    H138553   4.112   1.270   4.739
12870TIP3    H238554   4.060   1.198   4.617
12871TIP3   OH238555   6.526   2.149   1.603
12871TIP3    H138556   6.610   2.132   1.560
12871TIP3    H238557   6.541   2.126   1.694
12872TIP3   OH238558   3.740   5.709   2.108
12872TIP3    H138559   3.696   5.634   2.068
12872TIP3    H238560   3.692   5.785   2.075
12873TIP3   OH238561   5.069   4.123   1.814
12873TIP3    H138562   5.030   4.187   1.756
12873TIP3    H238563   5.080   4.169   1.897
12874TIP3   OH238564   2.111   2.962   6.714
12874TIP3    H138565   2.017   2.946   6.716
12874TIP3    H238566   2.139   2.928   6.629
12875TIP3   OH238567   0.341   6.575   2.727
12875TIP3    H138568   0.290   6.647   2.764
12875TIP3    H238569   0.330   6.583   2.633
12876TIP3   OH238570   0.667   7.417   3.366
12876TIP3    H138571   0.682   7.495   3.312
12876TIP3    H238572   0.726   7.351   3.329
12877TIP3   OH238573   2.299   1.132   2.550
12877TIP3    H138574   2.312   1.102   2.640
12877TIP3    H238575   2.340   1.218   2.546
12878TIP3   OH238576   5.334   3.123   5.090
12878TIP3    H138577   5.345   3.209   5.131
12878TIP3    H238578   5.285   3.072   5.155
12879TIP3   OH238579   4.277   3.086   3.577
12879TIP3    H138580   4.197   3.139   3.572
12879TIP3    H238581   4.348   3.150   3.574
12880TIP3   OH238582   6.552   0.798   3.789
12880TIP3    H138583   6.593   0.842   3.714
12880TIP3    H238584   6.567   0.857   3.863
12881TIP3   OH238585   5.991   4.248   1.277
12881TIP3    H138586   5.990   4.341   1.301
12881TIP3    H238587   5.898   4.226   1.267
12882TIP3   OH238588   6.211   7.508   0.733
12882TIP3    H138589   6.237   7.520   0.642
12882TIP3    H238590   6.118   7.486   0.729
12883TIP3   OH238591   0.563   0.580   5.162
12883TIP3    H138592   0.496   0.513   5.179
12883TIP3    H238593   0.559   0.594   5.067
12884TIP3   OH238594   4.829   1.216   5.413
12884TIP3    H138595   4.922   1.236   5.423
12884TIP3    H238596   4.822   1.122   5.430
12885TIP3   OH238597   6.559   3.418   3.693
12885TIP3    H138598   6.532   3.510   3.695
12885TIP3    H238599   6.655   3.422   3.689
12886TIP3   OH238600   4.709   1.977   5.573
12886TIP3    H138601   4.760   1.919   5.630
12886TIP3    H238602   4.618   1.954   5.591
12887TIP3   OH238603   0.195   3.826   5.899
12887TIP3    H138604   0.108   3.792   5.920
12887TIP3    H238605   0.222   3.872   5.979
12888TIP3   OH238606   2.205   3.016   4.770
12888TIP3    H138607   2.270   3.068   4.817
12888TIP3    H238608   2.148   2.981   4.839
12889TIP3   OH238609   7.638   7.507   1.028
12889TIP3    H138610   7.680   7.558   1.098
12889TIP3    H238611   7.709   7.490   0.966
12890TIP3   OH238612   1.397   3.906   0.621
12890TIP3    H138613   1.440   3.897   0.536
12890TIP3    H238614   1.320   3.849   0.614
12891TIP3   OH238615   6.408   2.481   5.516
12891TIP3    H138616   6.502   2.467   5.508
12891TIP3    H238617   6.370   2.394   5.505
12892TIP3   OH238618   6.943   3.740   0.000
12892TIP3    H138619   6.972   3.681  -0.070
12892TIP3    H238620   6.982   3.702   0.079
12893TIP3   OH238621   7.107   2.411   2.886
12893TIP3    H138622   7.121   2.370   2.801
12893TIP3    H238623   7.127   2.343   2.950
12894TIP3   OH238624   3.742   7.088   0.195
12894TIP3    H138625   3.764   7.131   0.278
12894TIP3    H238626   3.699   7.157   0.144
12895TIP3   OH238627   4.671   7.360   1.597
12895TIP3    H138628   4.736   7.383   1.663
12895TIP3    H238629   4.587   7.369   1.643
12896TIP3   OH238630   2.497   2.258   4.387
12896TIP3    H138631   2.438   2.309   4.442
12896TIP3    H238632   2.441   2.219   4.320
12897TIP3   OH238633   6.996   0.743   5.076
12897TIP3    H138634   6.945   0.682   5.023
12897TIP3    H238635   7.083   0.702   5.083
12898TIP3   OH238636   6.743   3.690   5.218
12898TIP3    H138637   6.681   3.686   5.145
12898TIP3    H238638   6.776   3.600   5.226
12899TIP3   OH238639   7.245   4.585   5.539
12899TIP3    H138640   7.208   4.567   5.453
12899TIP3    H238641   7.174   4.567   5.600
12900TIP3   OH238642   4.001   5.862   5.338
12900TIP3    H138643   3.969   5.795   5.398
12900TIP3    H238644   4.040   5.813   5.266
12901TIP3   OH238645   3.181   6.335   1.002
12901TIP3    H138646   3.215   6.256   0.960
12901TIP3    H238647   3.245   6.354   1.071
12902TIP3   OH238648   7.676   5.468   0.060
12902TIP3    H138649   7.735   5.519   0.004
12902TIP3    H238650   7.696   5.377   0.038
12903TIP3   OH238651   5.289   6.999   2.229
12903TIP3    H138652   5.248   7.056   2.165
12903TIP3    H238653   5.340   7.057   2.285
12904TIP3   OH238654   4.911   2.952   1.058
12904TIP3    H138655   4.994   2.904   1.057
12904TIP3    H238656   4.937   3.044   1.065
12905TIP3   OH238657   7.128   0.268   2.732
12905TIP3    H138658   7.060   0.269   2.799
12905TIP3    H238659   7.206   0.301   2.777
12906TIP3   OH238660   7.108   7.585   0.787
12906TIP3    H138661   7.055   7.563   0.864
12906TIP3    H238662   7.072   7.531   0.717
12907TIP3   OH238663   5.911   4.241   5.457
12907TIP3    H138664   6.004   4.220   5.454
12907TIP3    H238665   5.871   4.168   5.504
12908TIP3   OH238666   7.777   4.315   4.769
12908TIP3    H138667   7.769   4.221   4.788
12908TIP3    H238668   7.767   4.358   4.854
12909TIP3   OH238669   1.906   1.934   1.056
12909TIP3    H138670   1.934   1.897   0.972
12909TIP3    H238671   1.825   1.886   1.077
12910TIP3   OH238672   2.282   3.504   4.787
12910TIP3    H138673   2.263   3.447   4.713
12910TIP3    H238674   2.253   3.591   4.759
12911TIP3   OH238675   4.561   0.346   0.357
12911TIP3    H138676   4.649   0.316   0.334
12911TIP3    H238677   4.515   0.353   0.273
12912TIP3   OH238678   6.181   7.043   1.239
12912TIP3    H138679   6.165   6.975   1.174
12912TIP3    H238680   6.101   7.096   1.240
12913TIP3   OH238681   1.105   5.996   0.404
12913TIP3    H138682   1.177   6.058   0.393
12913TIP3    H238683   1.026   6.047   0.387
12914TIP3   OH238684   8.212   6.749   1.184
12914TIP3    H138685   8.226   6.724   1.093
12914TIP3    H238686   8.277   6.700   1.233
12915TIP3   OH238687   1.310   3.145   5.135
12915TIP3    H138688   1.306   3.132   5.040
12915TIP3    H238689   1.324   3.239   5.146
12916TIP3   OH238690   7.851   5.481   6.776
12916TIP3    H138691   7.901   5.401   6.760
12916TIP3    H238692   7.909   5.552   6.747
12917TIP3   OH238693   1.496   4.236   2.399
12917TIP3    H138694   1.440   4.170   2.440
12917TIP3    H238695   1.516   4.298   2.469
12918TIP3   OH238696   2.124   3.186   0.978
12918TIP3    H138697   2.059   3.221   1.039
12918TIP3    H238698   2.078   3.117   0.931
12919TIP3   OH238699   7.277   1.378   0.076
12919TIP3    H138700   7.347   1.331   0.032
12919TIP3    H238701   7.270   1.461   0.028
12920TIP3   OH238702   5.322   3.964   3.006
12920TIP3    H138703   5.259   4.036   3.012
12920TIP3    H238704   5.310   3.914   3.087
12921TIP3   OH238705   6.783   6.591   1.531
12921TIP3    H138706   6.776   6.560   1.621
12921TIP3    H238707   6.704   6.644   1.517
12922TIP3   OH238708   0.913   5.453   2.815
12922TIP3    H138709   0.858   5.382   2.848
12922TIP3    H238710   0.920   5.437   2.721
12923TIP3   OH238711   3.867   3.781   5.003
12923TIP3    H138712   3.884   3.809   5.093
12923TIP3    H238713   3.774   3.797   4.989
12924TIP3   OH238714   8.253   4.792   6.757
12924TIP3    H138715   8.248   4.780   6.662
12924TIP3    H238716   8.167   4.765   6.789
12925TIP3   OH238717  -0.015   0.053   3.056
12925TIP3    H138718   0.048  -0.016   3.038
12925TIP3    H238719  -0.023   0.053   3.151
12926TIP3   OH238720   5.818   4.132   0.675
12926TIP3    H138721   5.837   4.211   0.625
12926TIP3    H238722   5.753   4.085   0.622
12927TIP3   OH238723   4.080   1.098   1.669
12927TIP3    H138724   4.167   1.116   1.633
12927TIP3    H238725   4.088   1.122   1.762
12928TIP3   OH238726   6.191   2.205   3.857
12928TIP3    H138727   6.154   2.123   3.824
12928TIP3    H238728   6.229   2.247   3.780
12929TIP3   OH238729   8.049   3.809   3.127
12929TIP3    H138730   8.122   3.783   3.071
12929TIP3    H238731   8.087   3.819   3.214
12930TIP3   OH238732   3.564   4.641   1.421
12930TIP3    H138733   3.643   4.653   1.369
12930TIP3    H238734   3.596   4.627   1.510
12931TIP3   OH238735   6.878   1.061   3.231
12931TIP3    H138736   6.899   1.117   3.306
12931TIP3    H238737   6.921   0.978   3.250
12932TIP3   OH238738   6.506   5.733   1.983
12932TIP3    H138739   6.554   5.734   2.066
12932TIP3    H238740   6.415   5.750   2.007
12933TIP3   OH238741   1.957   2.884   4.473
12933TIP3    H138742   1.905   2.950   4.519
12933TIP3    H238743   2.046   2.918   4.476
12934TIP3   OH238744   7.779   0.271   4.625
12934TIP3    H138745   7.837   0.335   4.667
12934TIP3    H238746   7.737   0.225   4.698
12935TIP3   OH238747   0.442   3.303   0.000
12935TIP3    H138748   0.427   3.219   0.042
12935TIP3    H238749   0.496   3.352   0.061
12936TIP3   OH238750   7.450   5.889   1.893
12936TIP3    H138751   7.459   5.856   1.803
12936TIP3    H238752   7.537   5.876   1.932
12937TIP3   OH238753   7.329   1.601   4.708
12937TIP3    H138754   7.281   1.679   4.681
12937TIP3    H238755   7.299   1.533   4.648
12938TIP3   OH238756   7.470   0.386   2.352
12938TIP3    H138757   7.420   0.381   2.434
12938TIP3    H238758   7.416   0.341   2.288
12939TIP3   OH238759   3.242   2.379   2.831
12939TIP3    H138760   3.170   2.431   2.867
12939TIP3    H238761   3.204   2.293   2.817
12940TIP3   OH238762   2.497   4.732   2.325
12940TIP3    H138763   2.581   4.708   2.365
12940TIP3    H238764   2.434   4.726   2.397
12941TIP3   OH238765   5.952   0.570   3.917
12941TIP3    H138766   6.009   0.507   3.962
12941TIP3    H238767   5.906   0.615   3.988
12942TIP3   OH238768   1.177   3.324   5.853
12942TIP3    H138769   1.193   3.238   5.891
12942TIP3    H238770   1.110   3.364   5.909
12943TIP3   OH238771   5.937   5.434   6.701
12943TIP3    H138772   5.981   5.481   6.772
12943TIP3    H238773   5.882   5.500   6.659
12944TIP3   OH238774   5.221   6.699   6.266
12944TIP3    H138775   5.249   6.763   6.201
12944TIP3    H238776   5.277   6.623   6.251
12945TIP3   OH238777   1.760   0.727   0.406
12945TIP3    H138778   1.673   0.746   0.372
12945TIP3    H238779   1.769   0.632   0.400
12946TIP3   OH238780   4.362   4.706   1.459
12946TIP3    H138781   4.431   4.741   1.403
12946TIP3    H238782   4.408   4.657   1.527
12947TIP3   OH238783   0.321   3.293   4.072
12947TIP3    H138784   0.286   3.379   4.046
12947TIP3    H238785   0.406   3.287   4.029
12948TIP3   OH238786   0.630   1.685   2.852
12948TIP3    H138787   0.630   1.642   2.767
12948TIP3    H238788   0.721   1.715   2.863
12949TIP3   OH238789   5.536   3.526   5.319
12949TIP3    H138790   5.529   3.618   5.297
12949TIP3    H238791   5.626   3.502   5.299
12950TIP3   OH238792   5.982   0.344   5.607
12950TIP3    H138793   5.927   0.365   5.531
12950TIP3    H238794   5.968   0.418   5.667
12951TIP3   OH238795   7.192   7.697   4.493
12951TIP3    H138796   7.210   7.775   4.546
12951TIP3    H238797   7.117   7.721   4.439
12952TIP3   OH238798   3.720   5.133   3.245
12952TIP3    H138799   3.631   5.099   3.242
12952TIP3    H238800   3.724   5.197   3.174
12953TIP3   OH238801   1.101   0.794   1.787
12953TIP3    H138802   1.029   0.854   1.806
12953TIP3    H238803   1.134   0.821   1.702
12954TIP3   OH238804   4.999   2.512   0.500
12954TIP3    H138805   4.979   2.540   0.411
12954TIP3    H238806   4.976   2.586   0.555
12955TIP3   OH238807   4.021   3.231   5.029
12955TIP3    H138808   3.945   3.277   4.993
12955TIP3    H238809   3.983   3.160   5.080
12956TIP3   OH238810   3.484   6.733   6.116
12956TIP3    H138811   3.510   6.794   6.047
12956TIP3    H238812   3.508   6.647   6.083
12957TIP3   OH238813   6.170   0.043   6.636
12957TIP3    H138814   6.169  -0.052   6.632
12957TIP3    H238815   6.181   0.071   6.545
12958TIP3   OH238816   5.778   7.730   4.042
12958TIP3    H138817   5.718   7.739   4.116
12958TIP3    H238818   5.721   7.725   3.966
12959TIP3   OH238819   2.508   2.686   0.367
12959TIP3    H138820   2.469   2.768   0.338
12959TIP3    H238821   2.562   2.710   0.443
12960TIP3   OH238822   0.006   7.480   2.162
12960TIP3    H138823  -0.014   7.511   2.073
12960TIP3    H238824   0.080   7.534   2.190
12961TIP3   OH238825   8.148   4.782   2.613
12961TIP3    H138826   8.070   4.740   2.649
12961TIP3    H238827   8.205   4.794   2.689
12962TIP3   OH238828   6.191   1.351   6.386
12962TIP3    H138829   6.133   1.376   6.315
12962TIP3    H238830   6.279   1.352   6.347
12963TIP3   OH238831   0.753   1.310   5.611
12963TIP3    H138832   0.804   1.387   5.587
12963TIP3    H238833   0.742   1.317   5.705
12964TIP3   OH238834   7.109   7.723   2.005
12964TIP3    H138835   7.079   7.777   2.078
12964TIP3    H238836   7.142   7.643   2.046
12965TIP3   OH238837   2.764   4.407   0.160
12965TIP3    H138838   2.712   4.327   0.152
12965TIP3    H238839   2.793   4.409   0.251
12966TIP3   OH238840   1.357   6.489   3.538
12966TIP3    H138841   1.296   6.512   3.469
12966TIP3    H238842   1.395   6.572   3.566
12967TIP3   OH238843   7.117   1.231   1.123
12967TIP3    H138844   7.040   1.215   1.178
12967TIP3    H238845   7.099   1.315   1.081
12968TIP3   OH238846   6.591   0.097   2.068
12968TIP3    H138847   6.498   0.094   2.091
12968TIP3    H238848   6.596   0.165   2.000
12969TIP3   OH238849   7.305   1.397   6.689
12969TIP3    H138850   7.299   1.373   6.597
12969TIP3    H238851   7.264   1.483   6.695
12970TIP3   OH238852   0.212   1.873   1.873
12970TIP3    H138853   0.162   1.795   1.850
12970TIP3    H238854   0.234   1.912   1.788
12971TIP3   OH238855   2.501   2.976   0.046
12971TIP3    H138856   2.463   2.975   0.134
12971TIP3    H238857   2.442   2.920  -0.005
12972TIP3   OH238858   7.808   6.497   5.684
12972TIP3    H138859   7.891   6.541   5.668
12972TIP3    H238860   7.750   6.530   5.616
12973TIP3   OH238861   8.120   6.575   4.953
12973TIP3    H138862   8.070   6.640   4.905
12973TIP3    H238863   8.196   6.622   4.987
12974TIP3   OH238864   5.016   5.772   6.665
12974TIP3    H138865   5.096   5.722   6.646
12974TIP3    H238866   5.046   5.861   6.680
12975TIP3   OH238867   2.755   5.843   4.449
12975TIP3    H138868   2.691   5.913   4.443
12975TIP3    H238869   2.813   5.869   4.521
12976TIP3   OH238870   2.308   2.812   4.257
12976TIP3    H138871   2.355   2.737   4.293
12976TIP3    H238872   2.295   2.870   4.332
12977TIP3   OH238873   0.698   4.330   4.253
12977TIP3    H138874   0.791   4.334   4.273
12977TIP3    H238875   0.670   4.422   4.248
12978TIP3   OH238876   7.583   5.116   6.088
12978TIP3    H138877   7.600   5.133   6.181
12978TIP3    H238878   7.553   5.025   6.086
12979TIP3   OH238879   5.046   2.374   1.608
12979TIP3    H138880   5.080   2.365   1.519
12979TIP3    H238881   5.124   2.376   1.664
12980TIP3   OH238882   3.593   1.543   6.193
12980TIP3    H138883   3.573   1.636   6.178
12980TIP3    H238884   3.586   1.532   6.288
12981TIP3   OH238885   6.790   7.437   5.515
12981TIP3    H138886   6.835   7.353   5.516
12981TIP3    H238887   6.855   7.499   5.483
12982TIP3   OH238888   2.380   0.477   4.792
12982TIP3    H138889   2.356   0.414   4.724
12982TIP3    H238890   2.430   0.544   4.745
12983TIP3   OH238891   5.534   3.910   2.801
12983TIP3    H138892   5.491   3.889   2.885
12983TIP3    H238893   5.488   3.987   2.769
12984TIP3   OH238894   6.190   5.373   2.375
12984TIP3    H138895   6.104   5.382   2.415
12984TIP3    H238896   6.198   5.279   2.355
12985TIP3   OH238897   5.073   2.445   0.036
12985TIP3    H138898   5.082   2.385   0.110
12985TIP3    H238899   5.091   2.531   0.072
12986TIP3   OH238900   2.421   2.682   6.278
12986TIP3    H138901   2.375   2.608   6.316
12986TIP3    H238902   2.452   2.732   6.354
12987TIP3   OH238903   5.559   5.087   3.896
12987TIP3    H138904   5.502   5.037   3.838
12987TIP3    H238905   5.506   5.102   3.975
12988TIP3   OH238906   0.401   5.967   2.096
12988TIP3    H138907   0.464   6.024   2.139
12988TIP3    H238908   0.414   5.881   2.138
12989TIP3   OH238909   1.464   2.882   0.819
12989TIP3    H138910   1.476   2.975   0.799
12989TIP3    H238911   1.376   2.876   0.856
12990TIP3   OH238912   3.495   2.835   1.024
12990TIP3    H138913   3.578   2.797   1.052
12990TIP3    H238914   3.430   2.793   1.081
12991TIP3   OH238915   2.034   4.477   0.398
12991TIP3    H138916   2.037   4.543   0.467
12991TIP3    H238917   2.090   4.406   0.431
12992TIP3   OH238918   3.510   3.494   6.113
12992TIP3    H138919   3.599   3.460   6.115
12992TIP3    H238920   3.498   3.524   6.023
12993TIP3   OH238921   7.513   2.120   0.540
12993TIP3    H138922   7.580   2.187   0.529
12993TIP3    H238923   7.501   2.112   0.635
12994TIP3   OH238924   1.948   5.105   6.762
12994TIP3    H138925   1.992   5.100   6.846
12994TIP3    H238926   2.014   5.080   6.698
12995TIP3   OH238927   7.478   5.915   4.711
12995TIP3    H138928   7.448   5.842   4.657
12995TIP3    H238929   7.416   5.985   4.692
12996TIP3   OH238930   2.525   6.219   6.636
12996TIP3    H138931   2.549   6.146   6.578
12996TIP3    H238932   2.429   6.221   6.632
12997TIP3   OH238933   4.212   3.425   2.829
12997TIP3    H138934   4.130   3.414   2.781
12997TIP3    H238935   4.251   3.338   2.829
12998TIP3   OH238936   1.634   1.874   0.769
12998TIP3    H138937   1.704   1.828   0.815
12998TIP3    H238938   1.673   1.898   0.684
12999TIP3   OH238939   7.653   2.095   2.775
12999TIP3    H138940   7.695   2.085   2.690
12999TIP3    H238941   7.641   2.190   2.785
13000TIP3   OH238942   6.774   3.320   2.891
13000TIP3    H138943   6.763   3.411   2.863
13000TIP3    H238944   6.848   3.288   2.839
13001TIP3   OH238945   6.033   0.303   1.908
13001TIP3    H138946   6.021   0.387   1.950
13001TIP3    H238947   6.083   0.323   1.829
13002TIP3   OH238948   4.296   7.017   2.939
13002TIP3    H138949   4.290   7.077   2.865
13002TIP3    H238950   4.307   7.073   3.016
13003TIP3   OH238951   6.860   4.469   2.700
13003TIP3    H138952   6.884   4.560   2.714
13003TIP3    H238953   6.803   4.448   2.775
13004TIP3   OH238954   1.064   1.586   1.918
13004TIP3    H138955   1.008   1.651   1.959
13004TIP3    H238956   1.137   1.636   1.880
13005TIP3   OH238957   2.075   0.958   5.792
13005TIP3    H138958   2.015   0.883   5.793
13005TIP3    H238959   2.147   0.930   5.736
13006TIP3   OH238960   2.261   0.772   0.399
13006TIP3    H138961   2.237   0.823   0.322
13006TIP3    H238962   2.178   0.745   0.437
13007TIP3   OH238963   5.447   6.997   3.555
13007TIP3    H138964   5.392   7.054   3.503
13007TIP3    H238965   5.517   6.970   3.496
13008TIP3   OH238966   3.744   2.385   0.444
13008TIP3    H138967   3.710   2.370   0.356
13008TIP3    H238968   3.828   2.430   0.431
13009TIP3   OH238969   2.571   1.961   0.757
13009TIP3    H138970   2.505   2.021   0.721
13009TIP3    H238971   2.536   1.874   0.741
13010TIP3   OH238972   2.921   4.190   1.175
13010TIP3    H138973   2.898   4.103   1.142
13010TIP3    H238974   2.927   4.244   1.097
13011TIP3   OH238975   4.897   7.797   4.654
13011TIP3    H138976   4.959   7.780   4.583
13011TIP3    H238977   4.876   7.710   4.689
13012TIP3   OH238978   2.548   0.727   1.913
13012TIP3    H138979   2.555   0.766   2.000
13012TIP3    H238980   2.454   0.722   1.896
13013TIP3   OH238981   6.137   0.571   1.834
13013TIP3    H138982   6.136   0.660   1.799
13013TIP3    H238983   6.208   0.571   1.898
13014TIP3   OH238984   5.118   6.766   4.102
13014TIP3    H138985   5.210   6.793   4.108
13014TIP3    H238986   5.072   6.847   4.079
13015TIP3   OH238987   5.371   5.423   4.958
13015TIP3    H138988   5.388   5.511   4.923
13015TIP3    H238989   5.302   5.436   5.024
13016TIP3   OH238990   4.214   6.495   2.943
13016TIP3    H138991   4.238   6.582   2.913
13016TIP3    H238992   4.221   6.499   3.038
13017TIP3   OH238993   6.554   0.961   2.420
13017TIP3    H138994   6.634   0.997   2.382
13017TIP3    H238995   6.570   0.963   2.515
13018TIP3   OH238996   7.949   4.203   5.068
13018TIP3    H138997   7.932   4.182   5.160
13018TIP3    H238998   7.988   4.291   5.071
13019TIP3   OH238999   4.019   7.662   2.656
13019TIP3    H139000   4.086   7.724   2.626
13019TIP3    H239001   3.953   7.717   2.698
13020TIP3   OH239002   5.346   1.906   4.912
13020TIP3    H139003   5.276   1.971   4.902
13020TIP3    H239004   5.331   1.844   4.840
13021TIP3   OH239005   7.321   3.301   4.448
13021TIP3    H139006   7.246   3.355   4.472
13021TIP3    H239007   7.359   3.344   4.371
13022TIP3   OH239008   6.729   5.723   1.461
13022TIP3    H139009   6.644   5.679   1.459
13022TIP3    H239010   6.755   5.721   1.553
13023TIP3   OH239011   0.442   0.981   6.108
13023TIP3    H139012   0.481   1.060   6.071
13023TIP3    H239013   0.387   1.013   6.180
13024TIP3   OH239014   8.211   0.252   3.667
13024TIP3    H139015   8.159   0.274   3.590
13024TIP3    H239016   8.221   0.336   3.713
13025TIP3   OH239017   0.513   6.209   3.815
13025TIP3    H139018   0.494   6.302   3.803
13025TIP3    H239019   0.582   6.207   3.881
13026TIP3   OH239020   1.819   6.586   3.268
13026TIP3    H139021   1.901   6.618   3.231
13026TIP3    H239022   1.830   6.491   3.270
13027TIP3   OH239023   5.904   7.514   6.454
13027TIP3    H139024   5.980   7.572   6.459
13027TIP3    H239025   5.836   7.568   6.413
13028TIP3   OH239026   6.823   7.703   3.647
13028TIP3    H139027   6.731   7.694   3.620
13028TIP3    H239028   6.867   7.627   3.609
13029TIP3   OH239029   3.760   1.045   3.938
13029TIP3    H139030   3.816   1.117   3.966
13029TIP3    H239031   3.671   1.075   3.956
13030TIP3   OH239032   5.924   7.443   0.631
13030TIP3    H139033   5.875   7.525   0.623
13030TIP3    H239034   5.904   7.395   0.551
13031TIP3   OH239035   1.800   3.247   1.900
13031TIP3    H139036   1.830   3.178   1.959
13031TIP3    H239037   1.841   3.226   1.816
13032TIP3   OH239038   2.649   5.504   2.504
13032TIP3    H139039   2.642   5.572   2.437
13032TIP3    H239040   2.587   5.530   2.572
13033TIP3   OH239041   0.288   6.882   4.654
13033TIP3    H139042   0.376   6.906   4.626
13033TIP3    H239043   0.254   6.961   4.696
13034TIP3   OH239044   7.262   2.883   1.614
13034TIP3    H139045   7.313   2.956   1.650
13034TIP3    H239046   7.259   2.819   1.685
13035TIP3   OH239047   2.688   3.875   2.094
13035TIP3    H139048   2.718   3.920   2.016
13035TIP3    H239049   2.728   3.924   2.167
13036TIP3   OH239050   2.874   4.640   1.394
13036TIP3    H139051   2.835   4.723   1.368
13036TIP3    H239052   2.942   4.624   1.329
13037TIP3   OH239053   5.481   4.197   5.411
13037TIP3    H139054   5.514   4.286   5.394
13037TIP3    H239055   5.526   4.142   5.348
13038TIP3   OH239056   6.965   3.141   5.542
13038TIP3    H139057   6.962   3.090   5.623
13038TIP3    H239058   6.904   3.213   5.557
13039TIP3   OH239059   8.214   6.641   6.113
13039TIP3    H139060   8.238   6.669   6.024
13039TIP3    H239061   8.274   6.689   6.170
13040TIP3   OH239062   2.730   3.323   6.437
13040TIP3    H139063   2.781   3.248   6.468
13040TIP3    H239064   2.658   3.285   6.388
13041TIP3   OH239065   6.265   0.172   4.451
13041TIP3    H139066   6.335   0.151   4.389
13041TIP3    H239067   6.250   0.266   4.439
13042TIP3   OH239068   3.798   2.271   0.714
13042TIP3    H139069   3.778   2.300   0.625
13042TIP3    H239070   3.721   2.220   0.741
13043TIP3   OH239071   4.223   3.836   4.380
13043TIP3    H139072   4.171   3.838   4.299
13043TIP3    H239073   4.162   3.865   4.448
13044TIP3   OH239074   7.114   4.099   5.240
13044TIP3    H139075   7.057   4.067   5.170
13044TIP3    H239076   7.171   4.025   5.260
13045TIP3   OH239077   6.430   7.340   3.254
13045TIP3    H139078   6.380   7.270   3.212
13045TIP3    H239079   6.514   7.340   3.209
13046TIP3   OH239080   1.791   5.751   5.435
13046TIP3    H139081   1.820   5.725   5.523
13046TIP3    H239082   1.701   5.779   5.446
13047TIP3   OH239083   6.662   1.242   2.032
13047TIP3    H139084   6.656   1.222   1.938
13047TIP3    H239085   6.754   1.265   2.046
13048TIP3   OH239086   7.948   0.886   6.146
13048TIP3    H139087   7.898   0.966   6.162
13048TIP3    H239088   8.004   0.877   6.223
13049TIP3   OH239089   1.610   4.207   1.266
13049TIP3    H139090   1.604   4.163   1.181
13049TIP3    H239091   1.526   4.251   1.276
13050TIP3   OH239092   6.527   5.442   3.660
13050TIP3    H139093   6.435   5.456   3.638
13050TIP3    H239094   6.535   5.474   3.750
13051TIP3   OH239095   4.174   4.340   2.673
13051TIP3    H139096   4.248   4.308   2.622
13051TIP3    H239097   4.165   4.431   2.646
13052TIP3   OH239098   3.793   3.255   5.352
13052TIP3    H139099   3.783   3.168   5.390
13052TIP3    H239100   3.713   3.302   5.378
13053TIP3   OH239101   4.128   0.247   3.693
13053TIP3    H139102   4.217   0.233   3.661
13053TIP3    H239103   4.135   0.245   3.788
13054TIP3   OH239104   3.492   4.775   0.848
13054TIP3    H139105   3.485   4.869   0.833
13054TIP3    H239106   3.546   4.767   0.926
13055TIP3   OH239107   7.384   6.129   0.573
13055TIP3    H139108   7.349   6.084   0.496
13055TIP3    H239109   7.355   6.075   0.647
13056TIP3   OH239110   8.131   0.302   5.754
13056TIP3    H139111   8.158   0.380   5.803
13056TIP3    H239112   8.197   0.294   5.685
13057TIP3   OH239113   0.189   6.363   0.553
13057TIP3    H139114   0.256   6.325   0.610
13057TIP3    H239115   0.221   6.347   0.464
13058TIP3   OH239116   5.409   2.808   2.174
13058TIP3    H139117   5.362   2.754   2.111
13058TIP3    H239118   5.424   2.891   2.129
13059TIP3   OH239119   8.099   4.422   0.303
13059TIP3    H139120   8.108   4.328   0.321
13059TIP3    H239121   8.082   4.461   0.389
13060TIP3   OH239122   3.863   2.985   5.409
13060TIP3    H139123   3.929   2.957   5.472
13060TIP3    H239124   3.788   2.928   5.425
13061TIP3   OH239125   8.014   4.591   6.470
13061TIP3    H139126   8.009   4.673   6.518
13061TIP3    H239127   8.016   4.523   6.538
13062TIP3   OH239128   2.728   1.465   1.620
13062TIP3    H139129   2.709   1.374   1.642
13062TIP3    H239130   2.652   1.495   1.570
13063TIP3   OH239131   3.532   4.195   0.316
13063TIP3    H139132   3.596   4.266   0.308
13063TIP3    H239133   3.581   4.116   0.295
13064TIP3   OH239134   6.552   5.060   2.216
13064TIP3    H139135   6.493   5.000   2.262
13064TIP3    H239136   6.541   5.143   2.262
13065TIP3   OH239137   6.586   6.835   0.763
13065TIP3    H139138   6.678   6.812   0.772
13065TIP3    H239139   6.578   6.920   0.806
13066TIP3   OH239140   0.629   1.516   2.616
13066TIP3    H139141   0.723   1.510   2.597
13066TIP3    H239142   0.595   1.428   2.600
13067TIP3   OH239143   2.987   0.360   0.977
13067TIP3    H139144   2.908   0.407   1.006
13067TIP3    H239145   2.981   0.276   1.022
13068TIP3   OH239146   3.849   0.196   0.967
13068TIP3    H139147   3.798   0.253   1.025
13068TIP3    H239148   3.902   0.256   0.915
13069TIP3   OH239149   0.115   5.610   3.190
13069TIP3    H139150   0.177   5.604   3.117
13069TIP3    H239151   0.155   5.673   3.250
13070TIP3   OH239152   7.614   0.149   4.959
13070TIP3    H139153   7.589   0.230   4.916
13070TIP3    H239154   7.549   0.085   4.930
13071TIP3   OH239155   6.095   6.866   3.541
13071TIP3    H139156   6.095   6.819   3.624
13071TIP3    H239157   6.056   6.951   3.561
13072TIP3   OH239158   1.968   4.496   3.127
13072TIP3    H139159   2.028   4.571   3.125
13072TIP3    H239160   1.890   4.527   3.081
13073TIP3   OH239161   4.001   3.438   0.239
13073TIP3    H139162   3.942   3.513   0.239
13073TIP3    H239163   3.946   3.363   0.263
13074TIP3   OH239164   0.647   4.314   0.907
13074TIP3    H139165   0.563   4.313   0.952
13074TIP3    H239166   0.676   4.223   0.907
13075TIP3   OH239167   7.267   3.592   2.013
13075TIP3    H139168   7.268   3.644   1.933
13075TIP3    H239169   7.324   3.518   1.995
13076TIP3   OH239170   1.730   0.355   4.542
13076TIP3    H139171   1.802   0.416   4.522
13076TIP3    H239172   1.669   0.366   4.469
13077TIP3   OH239173   6.430   3.316   5.657
13077TIP3    H139174   6.519   3.347   5.637
13077TIP3    H239175   6.390   3.303   5.571
13078TIP3   OH239176   2.084   4.087   3.118
13078TIP3    H139177   2.043   4.126   3.040
13078TIP3    H239178   2.014   4.085   3.183
13079TIP3   OH239179   2.852   4.390   3.369
13079TIP3    H139180   2.876   4.389   3.461
13079TIP3    H239181   2.936   4.384   3.323
13080TIP3   OH239182   0.899   7.624   4.709
13080TIP3    H139183   0.827   7.630   4.773
13080TIP3    H239184   0.856   7.626   4.624
13081TIP3   OH239185   7.953   1.914   6.209
13081TIP3    H139186   7.888   1.940   6.144
13081TIP3    H239187   7.969   1.821   6.192
13082TIP3   OH239188   4.408   5.415   0.614
13082TIP3    H139189   4.418   5.320   0.616
13082TIP3    H239190   4.349   5.435   0.687
13083TIP3   OH239191   5.521   2.984   0.776
13083TIP3    H139192   5.450   2.920   0.787
13083TIP3    H239193   5.564   2.987   0.861
13084TIP3   OH239194   7.742   1.398   1.111
13084TIP3    H139195   7.740   1.343   1.033
13084TIP3    H239196   7.651   1.405   1.138
13085TIP3   OH239197   3.776   4.160   3.016
13085TIP3    H139198   3.800   4.143   3.107
13085TIP3    H239199   3.810   4.085   2.968
13086TIP3   OH239200   0.849   0.745   0.252
13086TIP3    H139201   0.932   0.747   0.300
13086TIP3    H239202   0.859   0.810   0.183
13087TIP3   OH239203   7.155   2.288   6.358
13087TIP3    H139204   7.141   2.203   6.318
13087TIP3    H239205   7.067   2.326   6.367
13088TIP3   OH239206   2.584   2.317   4.019
13088TIP3    H139207   2.654   2.370   3.981
13088TIP3    H239208   2.630   2.245   4.063
13089TIP3   OH239209   0.848   7.012   4.345
13089TIP3    H139210   0.825   6.970   4.428
13089TIP3    H239211   0.771   7.064   4.323
13090TIP3   OH239212   7.213   4.754   2.816
13090TIP3    H139213   7.188   4.712   2.898
13090TIP3    H239214   7.289   4.808   2.839
13091TIP3   OH239215   3.219   3.395   1.284
13091TIP3    H139216   3.151   3.405   1.218
13091TIP3    H239217   3.198   3.462   1.350
13092TIP3   OH239218   6.613   6.892   2.520
13092TIP3    H139219   6.702   6.928   2.522
13092TIP3    H239220   6.625   6.797   2.524
13093TIP3   OH239221   2.682   0.948   4.426
13093TIP3    H139222   2.712   0.890   4.496
13093TIP3    H239223   2.761   0.994   4.398
13094TIP3   OH239224   4.337   7.519   1.270
13094TIP3    H139225   4.384   7.513   1.187
13094TIP3    H239226   4.245   7.510   1.246
13095TIP3   OH239227   3.755   0.251   4.712
13095TIP3    H139228   3.792   0.325   4.760
13095TIP3    H239229   3.711   0.290   4.637
13096TIP3   OH239230   2.987   5.760   1.440
13096TIP3    H139231   3.057   5.716   1.392
13096TIP3    H239232   3.029   5.838   1.477
13097TIP3   OH239233   1.431   2.463   0.680
13097TIP3    H139234   1.383   2.457   0.598
13097TIP3    H239235   1.364   2.475   0.747
13098TIP3   OH239236   3.644   4.889   4.793
13098TIP3    H139237   3.608   4.801   4.803
13098TIP3    H239238   3.674   4.912   4.880
13099TIP3   OH239239   4.734   4.060   2.352
13099TIP3    H139240   4.686   4.141   2.371
13099TIP3    H239241   4.764   4.070   2.262
13100TIP3   OH239242   8.123   5.222   4.794
13100TIP3    H139243   8.192   5.255   4.736
13100TIP3    H239244   8.109   5.294   4.856
13101TIP3   OH239245   1.652   3.934   5.247
13101TIP3    H139246   1.630   3.993   5.319
13101TIP3    H239247   1.592   3.860   5.258
13102TIP3   OH239248   1.986   1.906   3.462
13102TIP3    H139249   1.941   1.869   3.386
13102TIP3    H239250   1.919   1.958   3.506
13103TIP3   OH239251   6.604   2.027   1.883
13103TIP3    H139252   6.511   2.004   1.883
13103TIP3    H239253   6.626   2.043   1.975
13104TIP3   OH239254   0.655   2.206   4.286
13104TIP3    H139255   0.682   2.126   4.241
13104TIP3    H239256   0.640   2.178   4.377
13105TIP3   OH239257   1.518   7.760   5.900
13105TIP3    H139258   1.595   7.774   5.844
13105TIP3    H239259   1.486   7.848   5.919
13106TIP3   OH239260   7.890   3.421   2.804
13106TIP3    H139261   7.857   3.504   2.839
13106TIP3    H239262   7.833   3.402   2.730
13107TIP3   OH239263   2.613   3.409   1.679
13107TIP3    H139264   2.701   3.402   1.716
13107TIP3    H239265   2.559   3.351   1.734
13108TIP3   OH239266   5.116   2.740   2.185
13108TIP3    H139267   5.066   2.766   2.107
13108TIP3    H239268   5.163   2.819   2.210
13109TIP3   OH239269   7.219   1.235   3.959
13109TIP3    H139270   7.242   1.209   3.870
13109TIP3    H239271   7.281   1.189   4.015
13110TIP3   OH239272   6.086   7.062   2.735
13110TIP3    H139273   6.163   7.113   2.709
13110TIP3    H239274   6.120   6.974   2.752
13111TIP3   OH239275   6.833   5.194   2.205
13111TIP3    H139276   6.745   5.160   2.190
13111TIP3    H239277   6.825   5.288   2.193
13112TIP3   OH239278   2.758   7.211   5.604
13112TIP3    H139279   2.840   7.260   5.603
13112TIP3    H239280   2.705   7.254   5.671
13113TIP3   OH239281   2.216   5.229   6.141
13113TIP3    H139282   2.139   5.174   6.158
13113TIP3    H239283   2.192   5.283   6.066
13114TIP3   OH239284   7.458   0.881   2.879
13114TIP3    H139285   7.386   0.869   2.817
13114TIP3    H239286   7.522   0.814   2.854
13115TIP3   OH239287   3.102   4.167   5.295
13115TIP3    H139288   3.093   4.085   5.247
13115TIP3    H239289   3.154   4.223   5.238
13116TIP3   OH239290   8.166   1.828   5.162
13116TIP3    H139291   8.225   1.876   5.220
13116TIP3    H239292   8.224   1.784   5.100
13117TIP3   OH239293   3.054   1.894   0.092
13117TIP3    H139294   2.970   1.933   0.115
13117TIP3    H239295   3.116   1.968   0.093
13118TIP3   OH239296   5.044   4.553   3.297
13118TIP3    H139297   4.974   4.551   3.233
13118TIP3    H239298   5.106   4.618   3.264
13119TIP3   OH239299   6.154   0.531   0.098
13119TIP3    H139300   6.187   0.471   0.164
13119TIP3    H239301   6.107   0.598   0.147
13120TIP3   OH239302   7.767   2.981   0.608
13120TIP3    H139303   7.681   2.959   0.572
13120TIP3    H239304   7.747   3.038   0.682
13121TIP3   OH239305   0.307   0.031   0.015
13121TIP3    H139306   0.235   0.093   0.008
13121TIP3    H239307   0.365   0.068   0.081
13122TIP3   OH239308   5.769   6.507   3.864
13122TIP3    H139309   5.684   6.550   3.853
13122TIP3    H239310   5.747   6.421   3.901
13123TIP3   OH239311   4.658   1.453   1.916
13123TIP3    H139312   4.573   1.420   1.888
13123TIP3    H239313   4.670   1.534   1.866
13124TIP3   OH239314   6.859   2.689   0.074
13124TIP3    H139315   6.843   2.716   0.164
13124TIP3    H239316   6.777   2.648   0.046
13125TIP3   OH239317   6.027   2.295   6.045
13125TIP3    H139318   5.980   2.378   6.056
13125TIP3    H239319   6.058   2.273   6.133
13126TIP3   OH239320   2.846   2.125   3.957
13126TIP3    H139321   2.786   2.091   4.024
13126TIP3    H239322   2.915   2.169   4.007
13127TIP3   OH239323   0.135   7.384   3.485
13127TIP3    H139324   0.180   7.412   3.405
13127TIP3    H239325   0.205   7.354   3.543
13128TIP3   OH239326   6.993   4.620   5.686
13128TIP3    H139327   6.935   4.564   5.635
13128TIP3    H239328   6.987   4.706   5.644
13129TIP3   OH239329   8.228   6.356   3.157
13129TIP3    H139330   8.172   6.279   3.152
13129TIP3    H239331   8.294   6.333   3.223
13130TIP3   OH239332   6.806   3.993   0.068
13130TIP3    H139333   6.890   3.955   0.046
13130TIP3    H239334   6.796   4.067   0.008
13131TIP3   OH239335   4.702   3.931   0.951
13131TIP3    H139336   4.679   4.010   0.902
13131TIP3    H239337   4.617   3.890   0.971
13132TIP3   OH239338   5.588   5.764   3.905
13132TIP3    H139339   5.548   5.760   3.819
13132TIP3    H239340   5.644   5.842   3.902
13133TIP3   OH239341   4.110   1.945   5.186
13133TIP3    H139342   4.041   1.963   5.249
13133TIP3    H239343   4.189   1.933   5.239
13134TIP3   OH239344   7.726   1.569   1.501
13134TIP3    H139345   7.726   1.475   1.482
13134TIP3    H239346   7.655   1.604   1.448
13135TIP3   OH239347   7.871   6.872   2.394
13135TIP3    H139348   7.934   6.943   2.406
13135TIP3    H239349   7.923   6.792   2.402
13136TIP3   OH239350   2.795   4.581   1.879
13136TIP3    H139351   2.724   4.642   1.863
13136TIP3    H239352   2.792   4.564   1.973
13137TIP3   OH239353   7.254   5.008   4.783
13137TIP3    H139354   7.285   4.943   4.846
13137TIP3    H239355   7.159   5.009   4.793
13138TIP3   OH239356   6.342   6.701   4.320
13138TIP3    H139357   6.297   6.766   4.374
13138TIP3    H239358   6.393   6.753   4.258
13139TIP3   OH239359   3.744   5.138   1.274
13139TIP3    H139360   3.736   5.072   1.205
13139TIP3    H239361   3.800   5.098   1.340
13140TIP3   OH239362   4.748   4.254   2.604
13140TIP3    H139363   4.781   4.246   2.515
13140TIP3    H239364   4.753   4.165   2.640
13141TIP3   OH239365   0.626   4.617   4.150
13141TIP3    H139366   0.552   4.572   4.110
13141TIP3    H239367   0.590   4.699   4.183
13142TIP3   OH239368   1.310   5.369   2.836
13142TIP3    H139369   1.368   5.399   2.766
13142TIP3    H239370   1.228   5.347   2.791
13143TIP3   OH239371   0.141   1.453   2.364
13143TIP3    H139372   0.229   1.486   2.377
13143TIP3    H239373   0.087   1.506   2.423
13144TIP3   OH239374   0.835   4.120   4.486
13144TIP3    H139375   0.906   4.081   4.435
13144TIP3    H239376   0.849   4.214   4.479
13145TIP3   OH239377   6.139   0.500   3.032
13145TIP3    H139378   6.178   0.500   3.120
13145TIP3    H239379   6.122   0.592   3.014
13146TIP3   OH239380   1.117   7.584   5.669
13146TIP3    H139381   1.177   7.649   5.706
13146TIP3    H239382   1.069   7.632   5.601
13147TIP3   OH239383   3.094   6.459   1.704
13147TIP3    H139384   3.148   6.393   1.661
13147TIP3    H239385   3.150   6.496   1.772
13148TIP3   OH239386   5.971   6.561   0.190
13148TIP3    H139387   6.033   6.622   0.231
13148TIP3    H239388   5.977   6.482   0.244
13149TIP3   OH239389   7.513   3.204   0.119
13149TIP3    H139390   7.582   3.201   0.185
13149TIP3    H239391   7.559   3.220   0.036
13150TIP3   OH239392   5.945   0.521   2.155
13150TIP3    H139393   5.857   0.544   2.125
13150TIP3    H239394   5.986   0.605   2.174
13151TIP3   OH239395   3.141   3.590   5.047
13151TIP3    H139396   3.235   3.597   5.029
13151TIP3    H239397   3.116   3.678   5.074
13152TIP3   OH239398   1.007   6.035   5.621
13152TIP3    H139399   0.940   6.028   5.689
13152TIP3    H239400   1.016   6.129   5.605
13153TIP3   OH239401   3.501   3.861   4.379
13153TIP3    H139402   3.503   3.842   4.286
13153TIP3    H239403   3.591   3.847   4.409
13154TIP3   OH239404   7.955   3.953   2.781
13154TIP3    H139405   7.887   3.933   2.846
13154TIP3    H239406   7.972   3.869   2.737
13155TIP3   OH239407   1.204   7.401   3.260
13155TIP3    H139408   1.184   7.402   3.354
13155TIP3    H239409   1.262   7.476   3.247
13156TIP3   OH239410   0.671   4.482   1.148
13156TIP3    H139411   0.736   4.458   1.214
13156TIP3    H239412   0.692   4.425   1.073
13157TIP3   OH239413   6.712   1.668   2.118
13157TIP3    H139414   6.652   1.715   2.060
13157TIP3    H239415   6.696   1.576   2.099
13158TIP3   OH239416   1.698   4.903   1.168
13158TIP3    H139417   1.643   4.851   1.110
13158TIP3    H239418   1.771   4.932   1.113
13159TIP3   OH239419   1.637   4.683   6.648
13159TIP3    H139420   1.667   4.762   6.604
13159TIP3    H239421   1.698   4.615   6.620
13160TIP3   OH239422   4.236   3.445   1.878
13160TIP3    H139423   4.149   3.468   1.912
13160TIP3    H239424   4.295   3.461   1.952
13161TIP3   OH239425   6.379   7.133   2.116
13161TIP3    H139426   6.466   7.156   2.085
13161TIP3    H239427   6.378   7.037   2.115
13162TIP3   OH239428   6.334   1.999   0.291
13162TIP3    H139429   6.354   2.085   0.254
13162TIP3    H239430   6.417   1.953   0.293
13163TIP3   OH239431   1.206   3.167   2.161
13163TIP3    H139432   1.134   3.161   2.098
13163TIP3    H239433   1.163   3.185   2.244
13164TIP3   OH239434   3.506   5.409   0.458
13164TIP3    H139435   3.500   5.349   0.384
13164TIP3    H239436   3.593   5.448   0.451
13165TIP3   OH239437   3.295   7.293   3.423
13165TIP3    H139438   3.299   7.379   3.465
13165TIP3    H239439   3.382   7.282   3.383
13166TIP3   OH239440   0.078   2.967   1.023
13166TIP3    H139441   0.058   2.993   0.933
13166TIP3    H239442   0.011   2.901   1.044
13167TIP3   OH239443   4.503   5.949   3.199
13167TIP3    H139444   4.454   6.000   3.134
13167TIP3    H239445   4.530   6.014   3.264
13168TIP3   OH239446   1.791   3.106   4.255
13168TIP3    H139447   1.820   3.137   4.169
13168TIP3    H239448   1.872   3.081   4.300
13169TIP3   OH239449   7.211   4.217   0.827
13169TIP3    H139450   7.157   4.266   0.766
13169TIP3    H239451   7.299   4.220   0.790
13170TIP3   OH239452   3.755   4.570   4.144
13170TIP3    H139453   3.846   4.544   4.134
13170TIP3    H239454   3.724   4.521   4.220
13171TIP3   OH239455   3.785   3.718   4.062
13171TIP3    H139456   3.746   3.685   3.981
13171TIP3    H239457   3.711   3.759   4.108
13172TIP3   OH239458   8.169   7.076   3.116
13172TIP3    H139459   8.123   7.110   3.039
13172TIP3    H239460   8.105   7.019   3.159
13173TIP3   OH239461   6.130   4.910   0.069
13173TIP3    H139462   6.196   4.844   0.050
13173TIP3    H239463   6.165   4.990   0.030
13174TIP3   OH239464   5.115   6.941   0.076
13174TIP3    H139465   5.031   6.908   0.046
13174TIP3    H239466   5.115   6.927   0.170
13175TIP3   OH239467   1.407   2.804   5.079
13175TIP3    H139468   1.405   2.708   5.070
13175TIP3    H239469   1.316   2.828   5.092
13176TIP3   OH239470   1.566   0.875   5.940
13176TIP3    H139471   1.505   0.854   5.869
13176TIP3    H239472   1.543   0.964   5.965
13177TIP3   OH239473   0.894   5.065   6.308
13177TIP3    H139474   0.814   5.049   6.259
13177TIP3    H239475   0.928   5.147   6.273
13178TIP3   OH239476   3.583   3.272   2.642
13178TIP3    H139477   3.616   3.203   2.584
13178TIP3    H239478   3.520   3.319   2.588
13179TIP3   OH239479   1.901   0.618   3.536
13179TIP3    H139480   1.887   0.556   3.607
13179TIP3    H239481   1.918   0.563   3.459
13180TIP3   OH239482   1.368   5.159   4.579
13180TIP3    H139483   1.349   5.072   4.543
13180TIP3    H239484   1.289   5.210   4.562
13181TIP3   OH239485   0.981   0.026   5.809
13181TIP3    H139486   0.886   0.033   5.806
13181TIP3    H239487   1.006   0.058   5.895
13182TIP3   OH239488   4.969   5.241   2.322
13182TIP3    H139489   4.999   5.229   2.412
13182TIP3    H239490   4.959   5.152   2.288
13183TIP3   OH239491   4.929   1.443   4.125
13183TIP3    H139492   4.873   1.472   4.053
13183TIP3    H239493   4.895   1.490   4.202
13184TIP3   OH239494   6.822   4.185   5.522
13184TIP3    H139495   6.795   4.146   5.439
13184TIP3    H239496   6.768   4.142   5.588
13185TIP3   OH239497   3.560   7.316   0.850
13185TIP3    H139498   3.595   7.400   0.880
13185TIP3    H239499   3.633   7.255   0.859
13186TIP3   OH239500   7.322   0.008   4.799
13186TIP3    H139501   7.265   0.084   4.790
13186TIP3    H239502   7.277  -0.047   4.864
13187TIP3   OH239503   2.389   0.071   3.471
13187TIP3    H139504   2.477   0.045   3.441
13187TIP3    H239505   2.334   0.061   3.393
13188TIP3   OH239506   4.732   2.731   4.755
13188TIP3    H139507   4.787   2.665   4.797
13188TIP3    H239508   4.783   2.759   4.679
13189TIP3   OH239509   1.226   7.496   4.200
13189TIP3    H139510   1.133   7.473   4.198
13189TIP3    H239511   1.261   7.460   4.119
13190TIP3   OH239512   5.490   5.025   2.498
13190TIP3    H139513   5.468   5.003   2.408
13190TIP3    H239514   5.574   4.981   2.514
13191TIP3   OH239515   1.093   2.485   4.238
13191TIP3    H139516   1.110   2.578   4.221
13191TIP3    H239517   1.050   2.484   4.323
13192TIP3   OH239518   1.585   5.983   3.545
13192TIP3    H139519   1.619   5.895   3.534
13192TIP3    H239520   1.497   5.971   3.580
13193TIP3   OH239521   3.351   1.260   5.152
13193TIP3    H139522   3.378   1.322   5.084
13193TIP3    H239523   3.399   1.287   5.230
13194TIP3   OH239524   8.057   5.043   2.472
13194TIP3    H139525   7.964   5.067   2.476
13194TIP3    H239526   8.065   4.968   2.530
13195TIP3   OH239527   2.927   4.818   6.711
13195TIP3    H139528   2.941   4.912   6.722
13195TIP3    H239529   3.015   4.782   6.700
13196TIP3   OH239530   0.637   5.392   4.847
13196TIP3    H139531   0.716   5.377   4.898
13196TIP3    H239532   0.662   5.461   4.785
13197TIP3   OH239533   2.378   5.804   1.053
13197TIP3    H139534   2.290   5.828   1.083
13197TIP3    H239535   2.435   5.870   1.092
13198TIP3   OH239536   7.998   0.709   4.359
13198TIP3    H139537   8.027   0.766   4.431
13198TIP3    H239538   8.035   0.750   4.280
13199TIP3   OH239539   2.890   5.861   0.193
13199TIP3    H139540   2.875   5.770   0.166
13199TIP3    H239541   2.855   5.865   0.282
13200TIP3   OH239542   3.164   4.525   4.541
13200TIP3    H139543   3.237   4.465   4.523
13200TIP3    H239544   3.087   4.468   4.545
13201TIP3   OH239545   1.887   7.433   4.434
13201TIP3    H139546   1.946   7.505   4.455
13201TIP3    H239547   1.870   7.443   4.340
13202TIP3   OH239548   1.859   0.193   6.663
13202TIP3    H139549   1.919   0.122   6.640
13202TIP3    H239550   1.824   0.170   6.749
13203TIP3   OH239551   7.007   7.342   5.699
13203TIP3    H139552   6.975   7.423   5.739
13203TIP3    H239553   7.088   7.322   5.746
13204TIP3   OH239554   4.266   2.754   5.069
13204TIP3    H139555   4.294   2.844   5.085
13204TIP3    H239556   4.330   2.719   5.008
13205TIP3   OH239557   2.980   4.843   5.361
13205TIP3    H139558   2.926   4.921   5.372
13205TIP3    H239559   2.961   4.813   5.272
13206TIP3   OH239560   0.950   6.924   6.673
13206TIP3    H139561   1.045   6.910   6.661
13206TIP3    H239562   0.944   6.985   6.746
13207TIP3   OH239563   5.252   3.180   5.416
13207TIP3    H139564   5.194   3.181   5.492
13207TIP3    H239565   5.337   3.207   5.451
13208TIP3   OH239566   1.890   0.890   1.045
13208TIP3    H139567   1.955   0.908   1.112
13208TIP3    H239568   1.863   0.799   1.062
13209TIP3   OH239569   2.925   7.376   6.100
13209TIP3    H139570   2.970   7.295   6.077
13209TIP3    H239571   2.902   7.366   6.192
13210TIP3   OH239572   0.570   1.791   3.766
13210TIP3    H139573   0.522   1.807   3.847
13210TIP3    H239574   0.512   1.735   3.714
13211TIP3   OH239575   3.777   1.844   4.547
13211TIP3    H139576   3.846   1.894   4.504
13211TIP3    H239577   3.749   1.780   4.482
13212TIP3   OH239578   0.831   2.213   4.789
13212TIP3    H139579   0.747   2.247   4.819
13212TIP3    H239580   0.867   2.167   4.865
13213TIP3   OH239581   3.307   0.510   1.236
13213TIP3    H139582   3.293   0.548   1.149
13213TIP3    H239583   3.272   0.421   1.228
13214TIP3   OH239584   5.566   0.109   0.314
13214TIP3    H139585   5.488   0.114   0.369
13214TIP3    H239586   5.532   0.098   0.225
13215TIP3   OH239587   4.257   4.863   1.149
13215TIP3    H139588   4.213   4.947   1.141
13215TIP3    H239589   4.325   4.878   1.215
13216TIP3   OH239590   7.260   5.510   1.569
13216TIP3    H139591   7.207   5.528   1.491
13216TIP3    H239592   7.202   5.530   1.642
13217TIP3   OH239593   6.904   5.045   2.417
13217TIP3    H139594   6.883   5.115   2.355
13217TIP3    H239595   6.915   5.089   2.501
13218TIP3   OH239596   5.836   2.991   3.302
13218TIP3    H139597   5.854   3.063   3.362
13218TIP3    H239598   5.772   2.936   3.348
13219TIP3   OH239599   3.560   4.330   3.093
13219TIP3    H139600   3.620   4.266   3.053
13219TIP3    H239601   3.591   4.338   3.183
13220TIP3   OH239602   5.760   5.627   5.005
13220TIP3    H139603   5.721   5.651   4.921
13220TIP3    H239604   5.754   5.707   5.058
13221TIP3   OH239605   0.370   3.016   0.142
13221TIP3    H139606   0.341   2.973   0.061
13221TIP3    H239607   0.290   3.030   0.192
13222TIP3   OH239608   4.424   5.148   2.574
13222TIP3    H139609   4.416   5.226   2.629
13222TIP3    H239610   4.424   5.180   2.484
13223TIP3   OH239611   6.967   7.629   5.081
13223TIP3    H139612   7.015   7.550   5.107
13223TIP3    H239613   7.025   7.672   5.018
13224TIP3   OH239614   4.191   0.777   4.953
13224TIP3    H139615   4.271   0.775   4.900
13224TIP3    H239616   4.132   0.835   4.904
13225TIP3   OH239617   1.505   4.459   5.847
13225TIP3    H139618   1.594   4.427   5.837
13225TIP3    H239619   1.455   4.416   5.778
13226TIP3   OH239620   5.347   6.023   6.368
13226TIP3    H139621   5.257   6.054   6.358
13226TIP3    H239622   5.360   6.018   6.463
13227TIP3   OH239623   7.492   3.198   6.276
13227TIP3    H139624   7.552   3.206   6.202
13227TIP3    H239625   7.537   3.139   6.337
13228TIP3   OH239626   0.963   2.937   6.735
13228TIP3    H139627   0.997   2.859   6.691
13228TIP3    H239628   0.979   2.922   6.828
13229TIP3   OH239629   1.848   6.872   1.948
13229TIP3    H139630   1.786   6.875   1.875
13229TIP3    H239631   1.879   6.962   1.957
13230TIP3   OH239632   4.187   5.974   3.246
13230TIP3    H139633   4.132   5.940   3.316
13230TIP3    H239634   4.233   6.049   3.286
13231TIP3   OH239635   7.232   5.457   0.715
13231TIP3    H139636   7.170   5.423   0.780
13231TIP3    H239637   7.312   5.476   0.766
13232TIP3   OH239638   5.697   2.938   4.041
13232TIP3    H139639   5.747   2.882   3.982
13232TIP3    H239640   5.606   2.912   4.027
13233TIP3   OH239641   6.698   7.062   2.816
13233TIP3    H139642   6.785   7.094   2.790
13233TIP3    H239643   6.715   6.974   2.850
13234TIP3   OH239644   6.960   0.443   2.174
13234TIP3    H139645   6.917   0.398   2.247
13234TIP3    H239646   6.996   0.372   2.121
13235TIP3   OH239647   1.471   3.173   0.795
13235TIP3    H139648   1.385   3.198   0.828
13235TIP3    H239649   1.462   3.176   0.699
13236TIP3   OH239650   5.067   2.005   2.957
13236TIP3    H139651   4.989   2.040   2.999
13236TIP3    H239652   5.036   1.931   2.905
13237TIP3   OH239653   0.740   3.932   6.247
13237TIP3    H139654   0.759   4.014   6.202
13237TIP3    H239655   0.800   3.868   6.207
13238TIP3   OH239656   6.479   0.996   0.778
13238TIP3    H139657   6.542   0.929   0.804
13238TIP3    H239658   6.533   1.074   0.762
13239TIP3   OH239659   4.005   7.720   5.490
13239TIP3    H139660   3.920   7.677   5.478
13239TIP3    H239661   4.006   7.791   5.426
13240TIP3   OH239662   2.851   5.382   2.857
13240TIP3    H139663   2.872   5.289   2.863
13240TIP3    H239664   2.927   5.427   2.894
13241TIP3   OH239665   5.776   1.364   4.333
13241TIP3    H139666   5.748   1.455   4.340
13241TIP3    H239667   5.727   1.318   4.401
13242TIP3   OH239668   4.777   0.835   6.463
13242TIP3    H139669   4.828   0.791   6.531
13242TIP3    H239670   4.700   0.779   6.451
13243TIP3   OH239671   0.208   0.769   4.669
13243TIP3    H139672   0.158   0.711   4.727
13243TIP3    H239673   0.289   0.787   4.718
13244TIP3   OH239674   3.954   1.370   2.105
13244TIP3    H139675   3.875   1.335   2.146
13244TIP3    H239676   3.969   1.453   2.150
13245TIP3   OH239677   2.115   6.815   3.528
13245TIP3    H139678   2.126   6.806   3.622
13245TIP3    H239679   2.120   6.726   3.494
13246TIP3   OH239680   0.615   0.098   5.565
13246TIP3    H139681   0.557   0.023   5.552
13246TIP3    H239682   0.671   0.099   5.488
13247TIP3   OH239683   5.084   1.129   3.633
13247TIP3    H139684   5.158   1.138   3.574
13247TIP3    H239685   5.098   1.045   3.677
13248TIP3   OH239686   6.029   5.306   0.335
13248TIP3    H139687   6.084   5.374   0.296
13248TIP3    H239688   6.029   5.325   0.428
13249TIP3   OH239689   5.816   4.316   4.594
13249TIP3    H139690   5.740   4.288   4.646
13249TIP3    H239691   5.884   4.332   4.659
13250TIP3   OH239692   2.289   0.768   6.083
13250TIP3    H139693   2.324   0.700   6.140
13250TIP3    H239694   2.194   0.765   6.098
13251TIP3   OH239695   7.614   6.444   1.978
13251TIP3    H139696   7.696   6.434   2.026
13251TIP3    H239697   7.600   6.358   1.937
13252TIP3   OH239698   7.666   1.566   3.981
13252TIP3    H139699   7.655   1.480   4.022
13252TIP3    H239700   7.750   1.560   3.935
13253TIP3   OH239701   2.749   2.589   4.519
13253TIP3    H139702   2.783   2.507   4.556
13253TIP3    H239703   2.785   2.657   4.575
13254TIP3   OH239704   6.918   4.444   6.377
13254TIP3    H139705   6.855   4.394   6.325
13254TIP3    H239706   6.996   4.450   6.321
13255TIP3   OH239707   3.823   0.129   0.464
13255TIP3    H139708   3.770   0.175   0.529
13255TIP3    H239709   3.826   0.039   0.495
13256TIP3   OH239710   3.745   1.420   1.247
13256TIP3    H139711   3.731   1.398   1.339
13256TIP3    H239712   3.837   1.400   1.231
13257TIP3   OH239713   4.429   7.825   1.635
13257TIP3    H139714   4.523   7.829   1.618
13257TIP3    H239715   4.411   7.733   1.651
13258TIP3   OH239716   1.937   2.201   2.871
13258TIP3    H139717   2.026   2.224   2.843
13258TIP3    H239718   1.946   2.178   2.963
13259TIP3   OH239719   3.147   5.600   5.538
13259TIP3    H139720   3.178   5.531   5.596
13259TIP3    H239721   3.052   5.599   5.548
13260TIP3   OH239722   2.603   2.583   4.902
13260TIP3    H139723   2.638   2.547   4.983
13260TIP3    H239724   2.632   2.522   4.834
13261TIP3   OH239725   0.907   3.430   1.226
13261TIP3    H139726   0.994   3.463   1.203
13261TIP3    H239727   0.859   3.508   1.254
13262TIP3   OH239728   2.753   7.237   2.360
13262TIP3    H139729   2.815   7.175   2.321
13262TIP3    H239730   2.808   7.308   2.391
13263TIP3   OH239731   5.147   5.615   6.372
13263TIP3    H139732   5.095   5.691   6.344
13263TIP3    H239733   5.123   5.546   6.311
13264TIP3   OH239734   7.336   1.628   1.057
13264TIP3    H139735   7.275   1.684   1.105
13264TIP3    H239736   7.281   1.581   0.995
13265TIP3   OH239737   2.730   3.611   5.117
13265TIP3    H139738   2.698   3.600   5.206
13265TIP3    H239739   2.814   3.565   5.116
13266TIP3   OH239740   1.574   4.795   3.008
13266TIP3    H139741   1.535   4.803   3.095
13266TIP3    H239742   1.663   4.763   3.025
13267TIP3   OH239743   1.759   0.056   1.240
13267TIP3    H139744   1.770   0.048   1.335
13267TIP3    H239745   1.700   0.130   1.229
13268TIP3   OH239746   3.464   0.715   2.618
13268TIP3    H139747   3.424   0.793   2.658
13268TIP3    H239748   3.390   0.657   2.601
13269TIP3   OH239749   1.194   6.678   4.165
13269TIP3    H139750   1.112   6.721   4.188
13269TIP3    H239751   1.197   6.678   4.070
13270TIP3   OH239752   0.840   0.352   3.836
13270TIP3    H139753   0.804   0.263   3.836
13270TIP3    H239754   0.798   0.395   3.910
13271TIP3   OH239755   2.324   0.906   4.717
13271TIP3    H139756   2.250   0.926   4.660
13271TIP3    H239757   2.358   0.992   4.741
13272TIP3   OH239758   5.263   0.655   6.033
13272TIP3    H139759   5.170   0.650   6.008
13272TIP3    H239760   5.279   0.575   6.083
13273TIP3   OH239761   2.451   1.418   1.037
13273TIP3    H139762   2.455   1.513   1.029
13273TIP3    H239763   2.406   1.388   0.958
13274TIP3   OH239764   4.084   1.461   0.667
13274TIP3    H139765   4.173   1.492   0.649
13274TIP3    H239766   4.041   1.460   0.582
13275TIP3   OH239767   5.408   7.467   0.442
13275TIP3    H139768   5.460   7.444   0.365
13275TIP3    H239769   5.330   7.508   0.406
13276TIP3   OH239770   2.659   2.317   2.525
13276TIP3    H139771   2.730   2.255   2.540
13276TIP3    H239772   2.697   2.403   2.543
13277TIP3   OH239773   3.875   0.795   2.867
13277TIP3    H139774   3.921   0.808   2.784
13277TIP3    H239775   3.927   0.729   2.913
13278TIP3   OH239776   1.331   3.337   0.317
13278TIP3    H139777   1.346   3.367   0.227
13278TIP3    H239778   1.271   3.402   0.355
13279TIP3   OH239779   6.116   5.461   2.966
13279TIP3    H139780   6.199   5.459   3.013
13279TIP3    H239781   6.119   5.384   2.909
13280TIP3   OH239782   6.757   7.740   2.730
13280TIP3    H139783   6.703   7.728   2.808
13280TIP3    H239784   6.705   7.705   2.658
13281TIP3   OH239785   4.752   3.036   4.273
13281TIP3    H139786   4.705   3.100   4.327
13281TIP3    H239787   4.703   2.954   4.286
13282TIP3   OH239788   7.998   7.513   6.542
13282TIP3    H139789   7.912   7.549   6.517
13282TIP3    H239790   7.978   7.454   6.615
13283TIP3   OH239791   3.218   4.434   2.188
13283TIP3    H139792   3.308   4.431   2.221
13283TIP3    H239793   3.205   4.525   2.161
13284TIP3   OH239794   0.760   3.065   1.996
13284TIP3    H139795   0.763   3.152   2.034
13284TIP3    H239796   0.801   3.009   2.062
13285TIP3   OH239797   7.859   4.693   1.797
13285TIP3    H139798   7.945   4.708   1.835
13285TIP3    H239799   7.806   4.658   1.868
13286TIP3   OH239800   3.286   6.643   6.541
13286TIP3    H139801   3.277   6.709   6.609
13286TIP3    H239802   3.231   6.570   6.570
13287TIP3   OH239803   6.692   2.363   0.915
13287TIP3    H139804   6.670   2.315   0.835
13287TIP3    H239805   6.626   2.337   0.978
13288TIP3   OH239806   0.532   3.846   1.107
13288TIP3    H139807   0.484   3.793   1.171
13288TIP3    H239808   0.623   3.844   1.137
13289TIP3   OH239809   0.105   6.044   2.421
13289TIP3    H139810   0.034   6.106   2.439
13289TIP3    H239811   0.112   5.993   2.501
13290TIP3   OH239812   1.381   5.742   3.398
13290TIP3    H139813   1.356   5.761   3.307
13290TIP3    H239814   1.455   5.683   3.391
13291TIP3   OH239815   4.698   0.704   0.232
13291TIP3    H139816   4.613   0.694   0.275
13291TIP3    H239817   4.713   0.799   0.231
13292TIP3   OH239818   2.328   7.352   3.284
13292TIP3    H139819   2.329   7.304   3.367
13292TIP3    H239820   2.297   7.288   3.220
13293TIP3   OH239821   3.888   2.765   3.456
13293TIP3    H139822   3.813   2.815   3.488
13293TIP3    H239823   3.962   2.796   3.508
13294TIP3   OH239824   7.607   7.620   2.847
13294TIP3    H139825   7.678   7.666   2.891
13294TIP3    H239826   7.551   7.690   2.812
13295TIP3   OH239827   7.548   1.267   6.724
13295TIP3    H139828   7.466   1.290   6.767
13295TIP3    H239829   7.528   1.274   6.630
13296TIP3   OH239830   1.202   5.403   2.490
13296TIP3    H139831   1.198   5.312   2.516
13296TIP3    H239832   1.126   5.444   2.530
13297TIP3   OH239833   3.332   7.311   2.090
13297TIP3    H139834   3.343   7.236   2.148
13297TIP3    H239835   3.238   7.326   2.088
13298TIP3   OH239836   3.073   6.337   6.388
13298TIP3    H139837   2.983   6.370   6.378
13298TIP3    H239838   3.100   6.370   6.474
13299TIP3   OH239839   1.087   0.126   6.575
13299TIP3    H139840   1.166   0.147   6.526
13299TIP3    H239841   1.027   0.198   6.557
13300TIP3   OH239842   2.054   3.642   5.650
13300TIP3    H139843   1.980   3.674   5.599
13300TIP3    H239844   2.123   3.626   5.585
13301TIP3   OH239845   1.598   5.690   1.060
13301TIP3    H139846   1.539   5.736   1.119
13301TIP3    H239847   1.547   5.677   0.980
13302TIP3   OH239848   6.755   2.904   0.987
13302TIP3    H139849   6.708   2.916   0.905
13302TIP3    H239850   6.711   2.829   1.029
13303TIP3   OH239851   6.063   0.611   2.609
13303TIP3    H139852   6.017   0.534   2.575
13303TIP3    H239853   6.141   0.576   2.651
13304TIP3   OH239854   1.667   5.009   0.247
13304TIP3    H139855   1.609   4.938   0.274
13304TIP3    H239856   1.672   5.000   0.151
13305TIP3   OH239857   8.027   5.984   0.931
13305TIP3    H139858   7.950   6.030   0.897
13305TIP3    H239859   8.013   5.980   1.025
13306TIP3   OH239860   0.228   3.597   4.055
13306TIP3    H139861   0.134   3.583   4.061
13306TIP3    H239862   0.239   3.664   3.987
13307TIP3   OH239863   2.126   2.667   1.028
13307TIP3    H139864   2.179   2.610   0.973
13307TIP3    H239865   2.100   2.611   1.102
13308TIP3   OH239866   4.591   4.208   3.962
13308TIP3    H139867   4.581   4.118   3.930
13308TIP3    H239868   4.591   4.200   4.057
13309TIP3   OH239869   0.658   0.802   4.975
13309TIP3    H139870   0.739   0.815   5.023
13309TIP3    H239871   0.664   0.712   4.942
13310TIP3   OH239872   2.687   5.121   4.145
13310TIP3    H139873   2.706   5.121   4.239
13310TIP3    H239874   2.608   5.068   4.137
13311TIP3   OH239875   7.787   5.846   5.848
13311TIP3    H139876   7.833   5.930   5.846
13311TIP3    H239877   7.696   5.869   5.867
13312TIP3   OH239878   6.235   2.865   5.777
13312TIP3    H139879   6.323   2.900   5.767
13312TIP3    H239880   6.243   2.773   5.753
13313TIP3   OH239881   0.263   6.855   2.466
13313TIP3    H139882   0.193   6.857   2.531
13313TIP3    H239883   0.328   6.918   2.500
13314TIP3   OH239884   2.552   1.547   2.242
13314TIP3    H139885   2.560   1.626   2.188
13314TIP3    H239886   2.614   1.561   2.314
13315TIP3   OH239887   7.474   7.529   3.242
13315TIP3    H139888   7.378   7.525   3.241
13315TIP3    H239889   7.493   7.617   3.209
13316TIP3   OH239890   3.341   3.943   0.192
13316TIP3    H139891   3.306   3.970   0.277
13316TIP3    H239892   3.436   3.944   0.204
13317TIP3   OH239893   5.568   1.469   3.820
13317TIP3    H139894   5.620   1.548   3.808
13317TIP3    H239895   5.555   1.463   3.914
13318TIP3   OH239896   7.076   2.055   1.819
13318TIP3    H139897   7.127   2.115   1.872
13318TIP3    H239898   6.986   2.066   1.850
13319TIP3   OH239899   2.195   7.411   1.299
13319TIP3    H139900   2.134   7.392   1.228
13319TIP3    H239901   2.152   7.375   1.377
13320TIP3   OH239902   6.356   5.559   4.891
13320TIP3    H139903   6.409   5.481   4.906
13320TIP3    H239904   6.274   5.526   4.852
13321TIP3   OH239905   5.193   4.131   3.546
13321TIP3    H139906   5.184   4.108   3.638
13321TIP3    H239907   5.282   4.103   3.523
13322TIP3   OH239908   0.255   7.625   3.309
13322TIP3    H139909   0.198   7.700   3.293
13322TIP3    H239910   0.257   7.616   3.405
13323TIP3   OH239911   5.822   6.047   2.180
13323TIP3    H139912   5.797   6.128   2.135
13323TIP3    H239913   5.804   6.065   2.273
13324TIP3   OH239914   5.214   7.311   5.838
13324TIP3    H139915   5.187   7.226   5.872
13324TIP3    H239916   5.285   7.291   5.777
13325TIP3   OH239917   3.404   2.045   2.578
13325TIP3    H139918   3.389   2.089   2.662
13325TIP3    H239919   3.486   2.082   2.546
13326TIP3   OH239920   8.083   5.130   3.671
13326TIP3    H139921   8.135   5.136   3.591
13326TIP3    H239922   8.021   5.202   3.665
13327TIP3   OH239923   4.919   0.890   2.910
13327TIP3    H139924   5.004   0.902   2.866
13327TIP3    H239925   4.929   0.935   2.993
13328TIP3   OH239926   0.396   1.774   4.600
13328TIP3    H139927   0.387   1.780   4.504
13328TIP3    H239928   0.443   1.692   4.614
13329TIP3   OH239929   1.560   1.081   5.571
13329TIP3    H139930   1.554   1.015   5.640
13329TIP3    H239931   1.654   1.096   5.560
13330TIP3   OH239932   3.766   0.948   5.538
13330TIP3    H139933   3.823   1.002   5.594
13330TIP3    H239934   3.721   0.890   5.599
13331TIP3   OH239935   7.821   1.180   6.575
13331TIP3    H139936   7.864   1.097   6.598
13331TIP3    H239937   7.728   1.163   6.592
13332TIP3   OH239938   2.332   0.034   3.914
13332TIP3    H139939   2.358   0.122   3.944
13332TIP3    H239940   2.244   0.047   3.878
13333TIP3   OH239941   3.135   3.230   3.169
13333TIP3    H139942   3.080   3.308   3.177
13333TIP3    H239943   3.223   3.264   3.153
13334TIP3   OH239944   1.041   0.759   5.258
13334TIP3    H139945   1.069   0.798   5.175
13334TIP3    H239946   0.946   0.765   5.257
13335TIP3   OH239947   0.260   4.279   1.434
13335TIP3    H139948   0.329   4.291   1.369
13335TIP3    H239949   0.276   4.349   1.499
13336TIP3   OH239950   4.935   5.338   6.725
13336TIP3    H139951   4.921   5.417   6.776
13336TIP3    H239952   5.020   5.305   6.754
13337TIP3   OH239953   8.072   3.957   4.587
13337TIP3    H139954   8.091   3.939   4.679
13337TIP3    H239955   7.980   3.984   4.586
13338TIP3   OH239956   2.452   2.419   0.476
13338TIP3    H139957   2.483   2.492   0.423
13338TIP3    H239958   2.463   2.342   0.420
13339TIP3   OH239959  -0.005   0.267   4.927
13339TIP3    H139960  -0.024   0.177   4.902
13339TIP3    H239961   0.079   0.262   4.972
13340TIP3   OH239962   7.619   5.309   4.610
13340TIP3    H139963   7.622   5.215   4.590
13340TIP3    H239964   7.529   5.324   4.641
13341TIP3   OH239965   6.169   6.742   0.267
13341TIP3    H139966   6.227   6.728   0.192
13341TIP3    H239967   6.145   6.835   0.261
13342TIP3   OH239968   3.342   6.671   5.805
13342TIP3    H139969   3.313   6.633   5.722
13342TIP3    H239970   3.268   6.725   5.834
13343TIP3   OH239971   1.834   3.801   5.591
13343TIP3    H139972   1.761   3.801   5.652
13343TIP3    H239973   1.796   3.780   5.506
13344TIP3   OH239974   5.887   2.839   0.452
13344TIP3    H139975   5.947   2.776   0.493
13344TIP3    H239976   5.855   2.794   0.373
13345TIP3   OH239977   1.213   5.859   6.325
13345TIP3    H139978   1.237   5.951   6.337
13345TIP3    H239979   1.284   5.811   6.368
13346TIP3   OH239980   0.535   5.942   0.669
13346TIP3    H139981   0.501   5.874   0.727
13346TIP3    H239982   0.629   5.941   0.682
13347TIP3   OH239983   1.485   3.274   3.853
13347TIP3    H139984   1.489   3.340   3.923
13347TIP3    H239985   1.438   3.318   3.782
13348TIP3   OH239986   6.791   1.032   0.183
13348TIP3    H139987   6.795   0.943   0.217
13348TIP3    H239988   6.840   1.084   0.246
13349TIP3   OH239989   4.925   2.810   6.781
13349TIP3    H139990   5.006   2.838   6.738
13349TIP3    H239991   4.869   2.781   6.709
13350TIP3   OH239992   4.625   2.203   5.751
13350TIP3    H139993   4.585   2.289   5.739
13350TIP3    H239994   4.719   2.218   5.741
13351TIP3   OH239995   3.484   2.498   1.839
13351TIP3    H139996   3.405   2.458   1.802
13351TIP3    H239997   3.453   2.547   1.915
13352TIP3   OH239998   5.364   1.302   6.585
13352TIP3    H139999   5.376   1.246   6.509
13352TIP3    H240000   5.319   1.380   6.551
13353TIP3   OH240001   6.169   0.298   1.643
13353TIP3    H140002   6.155   0.368   1.579
13353TIP3    H240003   6.252   0.320   1.686
13354TIP3   OH240004   0.672   0.734   0.461
13354TIP3    H140005   0.749   0.738   0.404
13354TIP3    H240006   0.600   0.713   0.402
13355TIP3   OH240007   6.379   2.841   1.873
13355TIP3    H140008   6.315   2.909   1.851
13355TIP3    H240009   6.351   2.765   1.821
13356TIP3   OH240010   1.541   7.621   2.760
13356TIP3    H140011   1.608   7.686   2.783
13356TIP3    H240012   1.557   7.602   2.668
13357TIP3   OH240013   1.192   1.408   0.381
13357TIP3    H140014   1.211   1.317   0.362
13357TIP3    H240015   1.251   1.429   0.454
13358TIP3   OH240016   7.140   6.694   6.413
13358TIP3    H140017   7.209   6.681   6.479
13358TIP3    H240018   7.160   6.779   6.374
13359TIP3   OH240019   2.535   3.327   4.907
13359TIP3    H140020   2.630   3.318   4.905
13359TIP3    H240021   2.503   3.241   4.934
13360TIP3   OH240022   0.055   5.890   6.690
13360TIP3    H140023   0.053   5.925   6.601
13360TIP3    H240024   0.097   5.958   6.742
13361TIP3   OH240025   1.324   7.623   0.509
13361TIP3    H140026   1.375   7.700   0.530
13361TIP3    H240027   1.359   7.593   0.425
13362TIP3   OH240028   6.187   7.681   1.416
13362TIP3    H140029   6.183   7.693   1.321
13362TIP3    H240030   6.108   7.724   1.449
13363TIP3   OH240031   6.778   6.786   0.097
13363TIP3    H140032   6.795   6.834   0.177
13363TIP3    H240033   6.806   6.845   0.027
13364TIP3   OH240034   0.727   5.064   4.164
13364TIP3    H140035   0.774   5.134   4.210
13364TIP3    H240036   0.637   5.096   4.158
13365TIP3   OH240037   8.038   3.503   6.096
13365TIP3    H140038   7.996   3.569   6.151
13365TIP3    H240039   8.124   3.539   6.076
13366TIP3   OH240040   7.600   0.408   2.994
13366TIP3    H140041   7.564   0.346   3.057
13366TIP3    H240042   7.654   0.468   3.047
13367TIP3   OH240043   0.346   6.371   1.668
13367TIP3    H140044   0.318   6.462   1.674
13367TIP3    H240045   0.400   6.367   1.589
13368TIP3   OH240046   5.608   0.322   5.731
13368TIP3    H140047   5.533   0.291   5.681
13368TIP3    H240048   5.660   0.243   5.748
13369TIP3   OH240049   1.398   1.349   5.091
13369TIP3    H140050   1.433   1.421   5.038
13369TIP3    H240051   1.467   1.282   5.090
13370TIP3   OH240052   1.864   2.920   6.362
13370TIP3    H140053   1.855   2.840   6.309
13370TIP3    H240054   1.869   2.888   6.452
13371TIP3   OH240055   7.862   6.735   0.846
13371TIP3    H140056   7.893   6.670   0.909
13371TIP3    H240057   7.908   6.714   0.765
13372TIP3   OH240058   3.028   5.861   4.643
13372TIP3    H140059   3.055   5.800   4.574
13372TIP3    H240060   3.023   5.946   4.600
13373TIP3   OH240061   2.390   4.759   0.117
13373TIP3    H140062   2.325   4.767   0.186
13373TIP3    H240063   2.412   4.666   0.114
13374TIP3   OH240064   0.786   7.796   0.545
13374TIP3    H140065   0.815   7.765   0.631
13374TIP3    H240066   0.730   7.725   0.512
13375TIP3   OH240067   3.598   6.757   0.850
13375TIP3    H140068   3.527   6.814   0.880
13375TIP3    H240069   3.561   6.669   0.852
13376TIP3   OH240070   6.597   2.832   0.477
13376TIP3    H140071   6.636   2.808   0.393
13376TIP3    H240072   6.534   2.763   0.495
13377TIP3   OH240073   6.094   5.456   6.407
13377TIP3    H140074   6.179   5.414   6.422
13377TIP3    H240075   6.033   5.383   6.395
13378TIP3   OH240076   0.176   6.693   5.811
13378TIP3    H140077   0.116   6.627   5.777
13378TIP3    H240078   0.254   6.687   5.756
13379TIP3   OH240079   2.690   2.945   2.096
13379TIP3    H140080   2.659   2.964   2.007
13379TIP3    H240081   2.709   2.851   2.095
13380TIP3   OH240082   0.732   6.289   4.473
13380TIP3    H140083   0.785   6.231   4.417
13380TIP3    H240084   0.668   6.328   4.413
13381TIP3   OH240085   4.062   6.754   0.556
13381TIP3    H140086   4.087   6.663   0.541
13381TIP3    H240087   3.993   6.749   0.622
13382TIP3   OH240088   7.177   5.968   0.172
13382TIP3    H140089   7.218   5.882   0.186
13382TIP3    H240090   7.233   6.029   0.221
13383TIP3   OH240091   6.853   0.089   3.390
13383TIP3    H140092   6.935   0.092   3.439
13383TIP3    H240093   6.800   0.023   3.436
13384TIP3   OH240094   1.651   2.639   2.477
13384TIP3    H140095   1.642   2.656   2.383
13384TIP3    H240096   1.694   2.717   2.512
13385TIP3   OH240097   0.372   3.285   5.404
13385TIP3    H140098   0.332   3.247   5.326
13385TIP3    H240099   0.299   3.301   5.463
13386TIP3   OH240100   2.416   3.092   2.588
13386TIP3    H140101   2.472   3.099   2.666
13386TIP3    H240102   2.396   2.999   2.581
13387TIP3   OH240103   1.305   5.501   6.320
13387TIP3    H140104   1.247   5.550   6.377
13387TIP3    H240105   1.388   5.548   6.324
13388TIP3   OH240106   4.607   2.731   0.709
13388TIP3    H140107   4.643   2.656   0.757
13388TIP3    H240108   4.678   2.795   0.710
13389TIP3   OH240109   2.562   7.489   1.997
13389TIP3    H140110   2.634   7.530   1.948
13389TIP3    H240111   2.595   7.402   2.019
13390TIP3   OH240112   4.956   5.448   4.328
13390TIP3    H140113   4.894   5.516   4.303
13390TIP3    H240114   4.918   5.367   4.293
13391TIP3   OH240115   4.506   7.269   5.140
13391TIP3    H140116   4.538   7.251   5.052
13391TIP3    H240117   4.446   7.343   5.129
13392TIP3   OH240118   1.152   5.272   5.236
13392TIP3    H140119   1.138   5.210   5.165
13392TIP3    H240120   1.246   5.290   5.235
13393TIP3   OH240121   7.569   0.878   5.739
13393TIP3    H140122   7.498   0.861   5.801
13393TIP3    H240123   7.528   0.931   5.670
13394TIP3   OH240124   6.917   3.875   4.800
13394TIP3    H140125   6.853   3.860   4.731
13394TIP3    H240126   6.935   3.788   4.835
13395TIP3   OH240127   2.765   3.228   0.664
13395TIP3    H140128   2.700   3.162   0.640
13395TIP3    H240129   2.839   3.210   0.605
13396TIP3   OH240130   1.201   4.484   0.777
13396TIP3    H140131   1.198   4.510   0.685
13396TIP3    H240132   1.263   4.411   0.780
13397TIP3   OH240133   3.864   1.743   5.126
13397TIP3    H140134   3.817   1.696   5.195
13397TIP3    H240135   3.903   1.819   5.171
13398TIP3   OH240136   5.456   7.653   4.783
13398TIP3    H140137   5.541   7.670   4.743
13398TIP3    H240138   5.458   7.700   4.866
13399TIP3   OH240139   2.948   0.961   6.613
13399TIP3    H140140   2.972   1.034   6.671
13399TIP3    H240141   2.866   0.989   6.573
13400TIP3   OH240142   0.444   2.416   2.905
13400TIP3    H140143   0.497   2.343   2.939
13400TIP3    H240144   0.428   2.393   2.814
13401TIP3   OH240145   6.313   1.315   1.371
13401TIP3    H140146   6.404   1.285   1.376
13401TIP3    H240147   6.289   1.334   1.461
13402TIP3   OH240148   4.174   0.342   3.328
13402TIP3    H140149   4.255   0.380   3.363
13402TIP3    H240150   4.199   0.303   3.245
13403TIP3   OH240151   3.711   2.325   4.488
13403TIP3    H140152   3.742   2.234   4.497
13403TIP3    H240153   3.722   2.362   4.575
13404TIP3   OH240154   3.323   1.916   2.334
13404TIP3    H140155   3.321   1.957   2.421
13404TIP3    H240156   3.414   1.925   2.306
13405TIP3   OH240157   3.973   2.529   0.325
13405TIP3    H140158   3.913   2.550   0.254
13405TIP3    H240159   4.025   2.608   0.336
13406TIP3   OH240160   7.508   4.116   2.465
13406TIP3    H140161   7.600   4.130   2.441
13406TIP3    H240162   7.476   4.053   2.400
13407TIP3   OH240163   4.034   5.349   0.429
13407TIP3    H140164   3.986   5.268   0.447
13407TIP3    H240165   3.987   5.389   0.356
13408TIP3   OH240166   4.752   6.578   2.421
13408TIP3    H140167   4.753   6.669   2.452
13408TIP3    H240168   4.799   6.580   2.338
13409TIP3   OH240169   7.053   5.028   1.289
13409TIP3    H140170   6.973   5.077   1.269
13409TIP3    H240171   7.114   5.094   1.324
13410TIP3   OH240172   0.930   7.589   2.602
13410TIP3    H140173   1.021   7.586   2.634
13410TIP3    H240174   0.926   7.668   2.549
13411TIP3   OH240175   7.276   6.083   1.275
13411TIP3    H140176   7.370   6.070   1.260
13411TIP3    H240177   7.267   6.177   1.288
13412TIP3   OH240178   3.739   1.776   1.190
13412TIP3    H140179   3.708   1.850   1.242
13412TIP3    H240180   3.834   1.779   1.198
13413TIP3   OH240181   2.018   1.642   3.938
13413TIP3    H140182   2.022   1.602   4.025
13413TIP3    H240183   1.986   1.731   3.954
13414TIP3   OH240184   6.283   4.024   5.080
13414TIP3    H140185   6.309   3.982   4.998
13414TIP3    H240186   6.283   4.118   5.061
13415TIP3   OH240187   5.285   6.927   0.650
13415TIP3    H140188   5.195   6.958   0.642
13415TIP3    H240189   5.332   7.001   0.690
13416TIP3   OH240190   5.677   4.014   1.659
13416TIP3    H140191   5.683   3.928   1.700
13416TIP3    H240192   5.755   4.019   1.603
13417TIP3   OH240193   6.852   3.770   2.529
13417TIP3    H140194   6.828   3.773   2.437
13417TIP3    H240195   6.834   3.858   2.562
13418TIP3   OH240196   1.366   0.642   3.676
13418TIP3    H140197   1.336   0.730   3.699
13418TIP3    H240198   1.366   0.641   3.580
13419TIP3   OH240199   1.490   0.522   4.002
13419TIP3    H140200   1.395   0.523   4.018
13419TIP3    H240201   1.507   0.436   3.964
13420TIP3   OH240202   0.321   4.254   2.521
13420TIP3    H140203   0.298   4.246   2.613
13420TIP3    H240204   0.381   4.329   2.518
13421TIP3   OH240205   7.936   2.560   6.259
13421TIP3    H140206   7.980   2.639   6.292
13421TIP3    H240207   8.002   2.492   6.264
13422TIP3   OH240208   8.186   2.393   1.872
13422TIP3    H140209   8.099   2.402   1.911
13422TIP3    H240210   8.214   2.483   1.856
13423TIP3   OH240211   6.125   0.829   6.415
13423TIP3    H140212   6.162   0.898   6.360
13423TIP3    H240213   6.031   0.842   6.411
13424TIP3   OH240214   1.467   4.559   3.533
13424TIP3    H140215   1.541   4.500   3.550
13424TIP3    H240216   1.437   4.533   3.446
13425TIP3   OH240217   2.906   6.610   0.171
13425TIP3    H140218   2.843   6.672   0.134
13425TIP3    H240219   2.889   6.528   0.125
13426TIP3   OH240220   0.134   7.453   4.234
13426TIP3    H140221   0.173   7.449   4.147
13426TIP3    H240222   0.208   7.450   4.294
13427TIP3   OH240223   5.111   0.833   0.994
13427TIP3    H140224   5.094   0.926   0.984
13427TIP3    H240225   5.031   0.799   1.035
13428TIP3   OH240226   1.789   2.464   5.617
13428TIP3    H140227   1.777   2.559   5.620
13428TIP3    H240228   1.815   2.446   5.527
13429TIP3   OH240229   0.128   7.318   0.497
13429TIP3    H140230   0.157   7.261   0.568
13429TIP3    H240231   0.113   7.259   0.423
13430TIP3   OH240232   1.850   3.379   5.212
13430TIP3    H140233   1.927   3.435   5.204
13430TIP3    H240234   1.886   3.291   5.228
13431TIP3   OH240235   0.664   4.176   5.152
13431TIP3    H140236   0.704   4.102   5.104
13431TIP3    H240237   0.739   4.230   5.178
13432TIP3   OH240238   7.765   0.791   1.207
13432TIP3    H140239   7.796   0.767   1.119
13432TIP3    H240240   7.719   0.713   1.238
13433TIP3   OH240241   6.243   4.573   3.223
13433TIP3    H140242   6.326   4.615   3.204
13433TIP3    H240243   6.266   4.495   3.274
13434TIP3   OH240244   2.820   7.574   2.840
13434TIP3    H140245   2.789   7.484   2.848
13434TIP3    H240246   2.882   7.572   2.767
13435TIP3   OH240247   0.765   7.402   6.240
13435TIP3    H140248   0.712   7.480   6.251
13435TIP3    H240249   0.808   7.413   6.156
13436TIP3   OH240250   3.831   7.507   1.651
13436TIP3    H140251   3.825   7.426   1.601
13436TIP3    H240252   3.795   7.574   1.593
13437TIP3   OH240253   4.217   5.993   5.815
13437TIP3    H140254   4.201   5.901   5.836
13437TIP3    H240255   4.254   6.030   5.896
13438TIP3   OH240256   3.746   3.594   1.361
13438TIP3    H140257   3.821   3.535   1.366
13438TIP3    H240258   3.677   3.549   1.411
13439TIP3   OH240259   3.515   4.903   4.375
13439TIP3    H140260   3.556   4.832   4.425
13439TIP3    H240261   3.446   4.936   4.432
13440TIP3   OH240262   5.818   6.230   1.540
13440TIP3    H140263   5.803   6.205   1.631
13440TIP3    H240264   5.758   6.303   1.524
13441TIP3   OH240265   2.031   4.747   4.433
13441TIP3    H140266   2.018   4.800   4.512
13441TIP3    H240267   1.948   4.701   4.421
13442TIP3   OH240268   3.939   3.063   1.938
13442TIP3    H140269   4.034   3.056   1.949
13442TIP3    H240270   3.903   3.048   2.025
13443TIP3   OH240271   1.595   2.944   2.295
13443TIP3    H140272   1.670   3.000   2.276
13443TIP3    H240273   1.556   2.924   2.210
13444TIP3   OH240274   5.613   0.056   1.705
13444TIP3    H140275   5.597  -0.034   1.679
13444TIP3    H240276   5.709   0.064   1.707
13445TIP3   OH240277   3.640   0.862   4.329
13445TIP3    H140278   3.701   0.935   4.332
13445TIP3    H240279   3.650   0.826   4.240
13446TIP3   OH240280   6.014   7.671   2.110
13446TIP3    H140281   5.937   7.709   2.151
13446TIP3    H240282   5.985   7.648   2.021
13447TIP3   OH240283   5.536   5.100   1.234
13447TIP3    H140284   5.501   5.011   1.233
13447TIP3    H240285   5.534   5.128   1.143
13448TIP3   OH240286   5.272   4.342   6.452
13448TIP3    H140287   5.289   4.338   6.546
13448TIP3    H240288   5.351   4.305   6.411
13449TIP3   OH240289   6.041   4.059   3.224
13449TIP3    H140290   6.000   4.010   3.153
13449TIP3    H240291   6.133   4.033   3.221
13450TIP3   OH240292   0.773   4.910   2.151
13450TIP3    H140293   0.774   4.955   2.235
13450TIP3    H240294   0.860   4.925   2.115
13451TIP3   OH240295   6.477   1.803   1.687
13451TIP3    H140296   6.430   1.886   1.681
13451TIP3    H240297   6.555   1.816   1.634
13452TIP3   OH240298   2.044   3.344   1.550
13452TIP3    H140299   2.037   3.434   1.519
13452TIP3    H240300   2.098   3.300   1.485
13453TIP3   OH240301   5.971   1.365   1.280
13453TIP3    H140302   5.937   1.370   1.191
13453TIP3    H240303   6.031   1.291   1.279
13454TIP3   OH240304   2.660   0.705   6.189
13454TIP3    H140305   2.738   0.676   6.237
13454TIP3    H240306   2.688   0.784   6.143
13455TIP3   OH240307   1.087   2.357   5.015
13455TIP3    H140308   1.010   2.301   5.016
13455TIP3    H240309   1.082   2.406   5.098
13456TIP3   OH240310   1.171   6.020   0.047
13456TIP3    H140311   1.211   6.059  -0.031
13456TIP3    H240312   1.241   5.966   0.084
13457TIP3   OH240313   3.005   6.269   1.926
13457TIP3    H140314   2.994   6.301   1.837
13457TIP3    H240315   3.072   6.200   1.918
13458TIP3   OH240316   4.348   2.473   3.668
13458TIP3    H140317   4.330   2.518   3.750
13458TIP3    H240318   4.430   2.512   3.637
13459TIP3   OH240319   7.181   3.190   3.913
13459TIP3    H140320   7.165   3.098   3.933
13459TIP3    H240321   7.223   3.188   3.826
13460TIP3   OH240322   3.122   0.254   0.697
13460TIP3    H140323   3.177   0.247   0.618
13460TIP3    H240324   3.035   0.230   0.667
13461TIP3   OH240325   7.538   3.812   3.614
13461TIP3    H140326   7.470   3.827   3.550
13461TIP3    H240327   7.618   3.846   3.573
13462TIP3   OH240328   7.305   4.014   2.205
13462TIP3    H140329   7.322   4.108   2.205
13462TIP3    H240330   7.211   4.006   2.223
13463TIP3   OH240331   3.098   5.262   5.969
13463TIP3    H140332   3.065   5.347   5.941
13463TIP3    H240333   3.115   5.215   5.887
13464TIP3   OH240334   6.868   1.666   2.369
13464TIP3    H140335   6.789   1.653   2.318
13464TIP3    H240336   6.844   1.730   2.436
13465TIP3   OH240337   8.086   1.295   6.298
13465TIP3    H140338   8.072   1.335   6.384
13465TIP3    H240339   8.178   1.313   6.278
13466TIP3   OH240340   8.135   7.316   2.861
13466TIP3    H140341   8.087   7.375   2.803
13466TIP3    H240342   8.072   7.248   2.883
13467TIP3   OH240343   1.026   0.923   2.080
13467TIP3    H140344   0.960   0.988   2.053
13467TIP3    H240345   0.975   0.848   2.109
13468TIP3   OH240346   0.925   6.843   1.902
13468TIP3    H140347   0.909   6.912   1.967
13468TIP3    H240348   0.862   6.861   1.832
13469TIP3   OH240349   8.127   1.986   2.153
13469TIP3    H140350   8.037   2.012   2.174
13469TIP3    H240351   8.158   1.942   2.232
13470TIP3   OH240352   1.552   3.143   6.547
13470TIP3    H140353   1.570   3.162   6.455
13470TIP3    H240354   1.482   3.077   6.544
13471TIP3   OH240355   6.025   1.253   4.978
13471TIP3    H140356   6.115   1.275   4.952
13471TIP3    H240357   6.036   1.197   5.055
13472TIP3   OH240358   7.493   6.276   5.959
13472TIP3    H140359   7.471   6.194   6.003
13472TIP3    H240360   7.412   6.305   5.919
13473TIP3   OH240361   2.409   2.817   2.296
13473TIP3    H140362   2.459   2.741   2.265
13473TIP3    H240363   2.401   2.874   2.219
13474TIP3   OH240364   4.480   0.022   6.153
13474TIP3    H140365   4.443  -0.065   6.170
13474TIP3    H240366   4.505   0.055   6.239
13475TIP3   OH240367   6.467   4.576   1.181
13475TIP3    H140368   6.557   4.605   1.169
13475TIP3    H240369   6.461   4.496   1.128
13476TIP3   OH240370   0.813   1.540   3.941
13476TIP3    H140371   0.809   1.460   3.994
13476TIP3    H240372   0.755   1.601   3.985
13477TIP3   OH240373   5.851   4.725   5.341
13477TIP3    H140374   5.760   4.699   5.356
13477TIP3    H240375   5.896   4.643   5.321
13478TIP3   OH240376   1.189   0.574   0.068
13478TIP3    H140377   1.280   0.558   0.092
13478TIP3    H240378   1.161   0.494   0.024
13479TIP3   OH240379   2.771   7.591   5.512
13479TIP3    H140380   2.771   7.553   5.424
13479TIP3    H240381   2.744   7.682   5.499
13480TIP3   OH240382   7.416   2.542   5.260
13480TIP3    H140383   7.396   2.451   5.283
13480TIP3    H240384   7.506   2.555   5.289
13481TIP3   OH240385   6.359   6.393   1.233
13481TIP3    H140386   6.268   6.382   1.258
13481TIP3    H240387   6.409   6.356   1.306
13482TIP3   OH240388   4.902   5.911   0.049
13482TIP3    H140389   4.839   5.845   0.078
13482TIP3    H240390   4.966   5.915   0.121
13483TIP3   OH240391   0.424   4.109   1.058
13483TIP3    H140392   0.399   4.066   1.140
13483TIP3    H240393   0.497   4.058   1.024
13484TIP3   OH240394   5.262   6.409   0.607
13484TIP3    H140395   5.283   6.480   0.669
13484TIP3    H240396   5.328   6.418   0.538
13485TIP3   OH240397   8.180   2.652   1.519
13485TIP3    H140398   8.098   2.677   1.561
13485TIP3    H240399   8.205   2.729   1.468
13486TIP3   OH240400   3.230   6.428   0.145
13486TIP3    H140401   3.210   6.508   0.193
13486TIP3    H240402   3.269   6.370   0.211
13487TIP3   OH240403   6.604   4.876   3.801
13487TIP3    H140404   6.610   4.965   3.837
13487TIP3    H240405   6.551   4.885   3.722
13488TIP3   OH240406   7.790   5.934   0.416
13488TIP3    H140407   7.798   5.862   0.354
13488TIP3    H240408   7.878   5.972   0.420
13489TIP3   OH240409   3.680   7.388   4.843
13489TIP3    H140410   3.666   7.382   4.748
13489TIP3    H240411   3.608   7.443   4.874
13490TIP3   OH240412   2.626   0.241   1.650
13490TIP3    H140413   2.557   0.179   1.671
13490TIP3    H240414   2.615   0.312   1.713
13491TIP3   OH240415   3.054   4.048   3.085
13491TIP3    H140416   3.120   4.078   3.148
13491TIP3    H240417   3.047   4.120   3.022
13492TIP3   OH240418   0.826   6.611   0.021
13492TIP3    H140419   0.737   6.639  -0.005
13492TIP3    H240420   0.812   6.557   0.099
13493TIP3   OH240421   1.836   1.065   4.198
13493TIP3    H140422   1.926   1.034   4.207
13493TIP3    H240423   1.793   1.040   4.280
13494TIP3   OH240424   4.529   4.861   5.702
13494TIP3    H140425   4.593   4.915   5.750
13494TIP3    H240426   4.465   4.835   5.768
13495TIP3   OH240427   6.474   7.125   5.536
13495TIP3    H140428   6.472   7.029   5.536
13495TIP3    H240429   6.551   7.148   5.484
13496TIP3   OH240430   5.048   3.221   0.492
13496TIP3    H140431   4.969   3.181   0.457
13496TIP3    H240432   5.065   3.296   0.433
13497TIP3   OH240433   4.632   3.763   1.670
13497TIP3    H140434   4.647   3.823   1.743
13497TIP3    H240435   4.567   3.807   1.615
13498TIP3   OH240436   1.234   0.988   3.243
13498TIP3    H140437   1.252   0.920   3.178
13498TIP3    H240438   1.309   0.986   3.301
13499TIP3   OH240439   6.990   4.056   2.791
13499TIP3    H140440   6.972   4.141   2.830
13499TIP3    H240441   6.909   4.033   2.745
13500TIP3   OH240442   1.576   7.150   1.392
13500TIP3    H140443   1.533   7.155   1.306
13500TIP3    H240444   1.559   7.236   1.431
13501TIP3   OH240445   3.647   2.874   3.581
13501TIP3    H140446   3.598   2.941   3.628
13501TIP3    H240447   3.582   2.808   3.558
13502TIP3   OH240448   6.370   0.711   2.543
13502TIP3    H140449   6.461   0.682   2.532
13502TIP3    H240450   6.360   0.721   2.638
13503TIP3   OH240451   1.321   1.952   1.227
13503TIP3    H140452   1.360   1.997   1.301
13503TIP3    H240453   1.376   1.975   1.152
13504TIP3   OH240454   2.113   5.057   2.041
13504TIP3    H140455   2.143   5.033   1.954
13504TIP3    H240456   2.157   4.996   2.100
13505TIP3   OH240457   6.571   5.475   3.072
13505TIP3    H140458   6.624   5.551   3.096
13505TIP3    H240459   6.623   5.400   3.101
13506TIP3   OH240460   3.266   5.659   4.542
13506TIP3    H140461   3.340   5.622   4.495
13506TIP3    H240462   3.189   5.624   4.499
13507TIP3   OH240463   0.416   0.211   0.242
13507TIP3    H140464   0.438   0.304   0.236
13507TIP3    H240465   0.440   0.186   0.331
13508TIP3   OH240466   1.512   1.902   3.642
13508TIP3    H140467   1.537   1.810   3.643
13508TIP3    H240468   1.436   1.906   3.584
13509TIP3   OH240469   8.256   7.157   4.602
13509TIP3    H140470   8.348   7.183   4.609
13509TIP3    H240471   8.257   7.062   4.617
13510TIP3   OH240472   6.348   6.233   4.826
13510TIP3    H140473   6.345   6.328   4.836
13510TIP3    H240474   6.433   6.208   4.860
13511TIP3   OH240475   4.098   6.654   2.618
13511TIP3    H140476   4.066   6.566   2.637
13511TIP3    H240477   4.027   6.696   2.570
13512TIP3   OH240478   3.579   1.076   5.809
13512TIP3    H140479   3.637   1.009   5.772
13512TIP3    H240480   3.508   1.084   5.746
13513TIP3   OH240481   4.454   3.070   2.612
13513TIP3    H140482   4.425   3.069   2.703
13513TIP3    H240483   4.549   3.081   2.617
13514TIP3   OH240484   6.740   0.100   2.301
13514TIP3    H140485   6.694   0.091   2.217
13514TIP3    H240486   6.750   0.011   2.333
13515TIP3   OH240487   8.130   6.202   4.815
13515TIP3    H140488   8.041   6.170   4.824
13515TIP3    H240489   8.171   6.143   4.752
13516TIP3   OH240490   8.089   6.393   4.399
13516TIP3    H140491   8.040   6.404   4.480
13516TIP3    H240492   8.177   6.425   4.419
13517TIP3   OH240493   3.421   1.040   5.001
13517TIP3    H140494   3.414   1.125   5.044
13517TIP3    H240495   3.391   0.978   5.067
13518TIP3   OH240496   2.069   6.621   3.147
13518TIP3    H140497   2.137   6.584   3.204
13518TIP3    H240498   2.115   6.645   3.067
13519TIP3   OH240499   5.230   5.234   2.499
13519TIP3    H140500   5.301   5.188   2.544
13519TIP3    H240501   5.150   5.194   2.536
13520TIP3   OH240502   3.780   0.646   1.575
13520TIP3    H140503   3.840   0.671   1.505
13520TIP3    H240504   3.834   0.596   1.637
13521TIP3   OH240505   2.108   6.961   5.439
13521TIP3    H140506   2.110   7.046   5.393
13521TIP3    H240507   2.026   6.963   5.488
13522TIP3   OH240508   1.527   3.594   2.037
13522TIP3    H140509   1.535   3.499   2.026
13522TIP3    H240510   1.459   3.620   1.975
13523TIP3   OH240511   6.742   2.793   1.731
13523TIP3    H140512   6.694   2.860   1.682
13523TIP3    H240513   6.827   2.833   1.750
13524TIP3   OH240514   6.261   2.227   5.902
13524TIP3    H140515   6.263   2.160   5.970
13524TIP3    H240516   6.172   2.264   5.907
13525TIP3   OH240517   2.239   3.963   3.334
13525TIP3    H140518   2.169   3.990   3.274
13525TIP3    H240519   2.307   4.029   3.325
13526TIP3   OH240520   5.625   4.719   2.474
13526TIP3    H140521   5.589   4.754   2.394
13526TIP3    H240522   5.557   4.662   2.509
13527TIP3   OH240523   4.367   5.648   4.129
13527TIP3    H140524   4.416   5.566   4.116
13527TIP3    H240525   4.332   5.641   4.218
13528TIP3   OH240526   0.435   4.816   6.397
13528TIP3    H140527   0.410   4.898   6.439
13528TIP3    H240528   0.497   4.775   6.458
13529TIP3   OH240529   3.718   2.347   6.071
13529TIP3    H140530   3.801   2.355   6.117
13529TIP3    H240531   3.652   2.373   6.136
13530TIP3   OH240532   1.794   3.223   3.683
13530TIP3    H140533   1.867   3.257   3.631
13530TIP3    H240534   1.794   3.129   3.668
13531TIP3   OH240535   6.792   3.307   1.671
13531TIP3    H140536   6.853   3.381   1.675
13531TIP3    H240537   6.785   3.287   1.578
13532TIP3   OH240538   7.751   7.074   5.251
13532TIP3    H140539   7.805   7.108   5.179
13532TIP3    H240540   7.749   7.145   5.315
13533TIP3   OH240541   0.642   1.451   4.905
13533TIP3    H140542   0.663   1.502   4.983
13533TIP3    H240543   0.567   1.398   4.930
13534TIP3   OH240544   2.639   3.181   3.367
13534TIP3    H140545   2.592   3.165   3.286
13534TIP3    H240546   2.694   3.104   3.379
13535TIP3   OH240547   7.825   3.336   5.948
13535TIP3    H140548   7.895   3.390   5.913
13535TIP3    H240549   7.846   3.247   5.918
13536TIP3   OH240550   3.816   3.444   2.742
13536TIP3    H140551   3.748   3.510   2.727
13536TIP3    H240552   3.884   3.464   2.678
13537TIP3   OH240553   6.058   7.437   2.740
13537TIP3    H140554   6.132   7.408   2.794
13537TIP3    H240555   5.981   7.401   2.785
13538TIP3   OH240556   0.622   3.892   0.598
13538TIP3    H140557   0.571   3.934   0.668
13538TIP3    H240558   0.688   3.958   0.574
13539TIP3   OH240559   7.730   7.126   0.951
13539TIP3    H140560   7.639   7.155   0.965
13539TIP3    H240561   7.745   7.138   0.858
13540TIP3   OH240562   5.080   7.647   0.743
13540TIP3    H140563   5.033   7.572   0.707
13540TIP3    H240564   5.160   7.609   0.779
13541TIP3   OH240565   4.892   5.328   0.543
13541TIP3    H140566   4.946   5.349   0.467
13541TIP3    H240567   4.802   5.341   0.514
13542TIP3   OH240568   2.713   1.118   3.456
13542TIP3    H140569   2.802   1.142   3.482
13542TIP3    H240570   2.723   1.036   3.408
13543TIP3   OH240571   1.354   2.653   6.602
13543TIP3    H140572   1.319   2.601   6.529
13543TIP3    H240573   1.308   2.620   6.679
13544TIP3   OH240574   7.907   4.288   1.428
13544TIP3    H140575   7.844   4.256   1.493
13544TIP3    H240576   7.991   4.287   1.472
13545TIP3   OH240577   5.091   1.994   4.513
13545TIP3    H140578   5.139   1.964   4.590
13545TIP3    H240579   5.156   1.995   4.443
13546TIP3   OH240580   0.331   6.167   3.534
13546TIP3    H140581   0.344   6.216   3.453
13546TIP3    H240582   0.419   6.141   3.561
13547TIP3   OH240583   2.459   7.654   4.452
13547TIP3    H140584   2.457   7.697   4.366
13547TIP3    H240585   2.452   7.561   4.432
13548TIP3   OH240586   2.580   6.337   2.280
13548TIP3    H140587   2.661   6.361   2.233
13548TIP3    H240588   2.591   6.377   2.367
13549TIP3   OH240589   7.855   2.167   5.390
13549TIP3    H140590   7.821   2.079   5.407
13549TIP3    H240591   7.931   2.153   5.334
13550TIP3   OH240592   3.446   0.527   3.639
13550TIP3    H140593   3.450   0.476   3.720
13550TIP3    H240594   3.492   0.474   3.574
13551TIP3   OH240595   6.243   5.795   0.361
13551TIP3    H140596   6.255   5.831   0.273
13551TIP3    H240597   6.327   5.756   0.383
13552TIP3   OH240598   7.262   6.106   6.094
13552TIP3    H140599   7.351   6.125   6.124
13552TIP3    H240600   7.265   6.015   6.066
13553TIP3   OH240601   6.244   6.323   1.901
13553TIP3    H140602   6.206   6.343   1.987
13553TIP3    H240603   6.175   6.276   1.855
13554TIP3   OH240604   4.566   1.319   2.128
13554TIP3    H140605   4.584   1.370   2.049
13554TIP3    H240606   4.485   1.273   2.108
13555TIP3   OH240607   5.805   6.604   0.825
13555TIP3    H140608   5.758   6.660   0.764
13555TIP3    H240609   5.834   6.664   0.894
13556TIP3   OH240610   4.999   6.573   1.636
13556TIP3    H140611   4.915   6.526   1.635
13556TIP3    H240612   5.017   6.585   1.730
13557TIP3   OH240613   1.176   1.526   6.730
13557TIP3    H140614   1.219   1.440   6.736
13557TIP3    H240615   1.125   1.522   6.649
13558TIP3   OH240616   7.630   7.390   3.770
13558TIP3    H140617   7.590   7.456   3.713
13558TIP3    H240618   7.561   7.367   3.832
13559TIP3   OH240619   6.642   4.653   2.007
13559TIP3    H140620   6.727   4.617   1.979
13559TIP3    H240621   6.656   4.679   2.097
13560TIP3   OH240622   1.864   1.007   2.999
13560TIP3    H140623   1.816   0.944   2.944
13560TIP3    H240624   1.948   1.018   2.954
13561TIP3   OH240625   2.174   1.991   1.000
13561TIP3    H140626   2.194   1.900   0.979
13561TIP3    H240627   2.078   1.994   1.005
13562TIP3   OH240628   1.707   5.845   2.868
13562TIP3    H140629   1.766   5.774   2.842
13562TIP3    H240630   1.706   5.842   2.964
13563TIP3   OH240631   5.686   6.986   4.633
13563TIP3    H140632   5.661   7.061   4.687
13563TIP3    H240633   5.775   7.005   4.603
13564TIP3   OH240634   4.737   7.406   2.990
13564TIP3    H140635   4.743   7.488   2.940
13564TIP3    H240636   4.654   7.367   2.962
13565TIP3   OH240637   4.153   5.558   2.917
13565TIP3    H140638   4.189   5.635   2.962
13565TIP3    H240639   4.218   5.490   2.929
13566TIP3   OH240640   7.413   5.913   6.764
13566TIP3    H140641   7.338   5.876   6.718
13566TIP3    H240642   7.373   5.969   6.832
13567TIP3   OH240643   6.587   1.770   2.870
13567TIP3    H140644   6.499   1.750   2.903
13567TIP3    H240645   6.609   1.694   2.815
13568TIP3   OH240646   4.778   4.045   2.777
13568TIP3    H140647   4.860   4.005   2.749
13568TIP3    H240648   4.783   4.046   2.873
13569TIP3   OH240649   5.465   5.911   4.839
13569TIP3    H140650   5.390   5.953   4.880
13569TIP3    H240651   5.470   5.951   4.752
13570TIP3   OH240652   1.377   1.049   1.144
13570TIP3    H140653   1.441   0.979   1.157
13570TIP3    H240654   1.293   1.009   1.170
13571TIP3   OH240655   0.514   6.195   6.136
13571TIP3    H140656   0.556   6.238   6.211
13571TIP3    H240657   0.519   6.101   6.157
13572TIP3   OH240658   4.183   6.119   1.994
13572TIP3    H140659   4.178   6.026   1.972
13572TIP3    H240660   4.145   6.164   1.919
13573TIP3   OH240661   1.681   4.609   1.229
13573TIP3    H140662   1.740   4.592   1.302
13573TIP3    H240663   1.652   4.699   1.243
13574TIP3   OH240664   2.876   2.346   4.602
13574TIP3    H140665   2.836   2.307   4.525
13574TIP3    H240666   2.851   2.288   4.674
13575TIP3   OH240667   2.122   3.378   3.194
13575TIP3    H140668   2.145   3.466   3.164
13575TIP3    H240669   2.089   3.333   3.116
13576TIP3   OH240670   7.196   0.255   2.204
13576TIP3    H140671   7.176   0.163   2.183
13576TIP3    H240672   7.164   0.304   2.129
13577TIP3   OH240673   0.658   2.033   3.621
13577TIP3    H140674   0.593   2.012   3.555
13577TIP3    H240675   0.634   1.978   3.696
13578TIP3   OH240676   2.802   6.904   2.008
13578TIP3    H140677   2.752   6.885   1.929
13578TIP3    H240678   2.886   6.859   1.995
13579TIP3   OH240679   3.944   1.139   1.421
13579TIP3    H140680   3.959   1.143   1.516
13579TIP3    H240681   3.916   1.227   1.398
13580TIP3   OH240682   3.955   6.092   1.423
13580TIP3    H140683   4.001   6.169   1.388
13580TIP3    H240684   3.945   6.034   1.348
13581TIP3   OH240685   0.096   2.972   0.748
13581TIP3    H140686   0.093   3.049   0.690
13581TIP3    H240687   0.042   2.907   0.703
13582TIP3   OH240688   4.713   4.756   0.820
13582TIP3    H140689   4.763   4.814   0.877
13582TIP3    H240690   4.632   4.739   0.868
13583TIP3   OH240691   6.790   6.101   2.674
13583TIP3    H140692   6.860   6.065   2.619
13583TIP3    H240693   6.828   6.181   2.711
13584TIP3   OH240694   3.767   3.401   0.039
13584TIP3    H140695   3.718   3.348  -0.024
13584TIP3    H240696   3.726   3.380   0.123
13585TIP3   OH240697   3.045   7.537   3.514
13585TIP3    H140698   3.020   7.630   3.521
13585TIP3    H240699   3.082   7.529   3.426
13586TIP3   OH240700   7.574   6.244   6.535
13586TIP3    H140701   7.587   6.322   6.589
13586TIP3    H240702   7.663   6.217   6.512
13587TIP3   OH240703   0.938   0.146   1.013
13587TIP3    H140704   0.905   0.118   1.098
13587TIP3    H240705   0.882   0.220   0.988
13588TIP3   OH240706   4.052   1.326   6.650
13588TIP3    H140707   4.048   1.366   6.563
13588TIP3    H240708   4.132   1.273   6.648
13589TIP3   OH240709   5.481   5.651   0.955
13589TIP3    H140710   5.449   5.647   1.045
13589TIP3    H240711   5.408   5.617   0.903
13590TIP3   OH240712   3.482   0.146   4.193
13590TIP3    H140713   3.469   0.107   4.107
13590TIP3    H240714   3.398   0.136   4.237
13591TIP3   OH240715   2.187   6.233   5.645
13591TIP3    H140716   2.099   6.243   5.608
13591TIP3    H240717   2.246   6.268   5.578
13592TIP3   OH240718   6.969   7.039   0.087
13592TIP3    H140719   7.030   6.969   0.113
13592TIP3    H240720   6.931   7.009   0.005
13593TIP3   OH240721   3.407   2.533   1.024
13593TIP3    H140722   3.400   2.552   0.930
13593TIP3    H240723   3.332   2.578   1.063
13594TIP3   OH240724   2.694   3.708   6.161
13594TIP3    H140725   2.605   3.681   6.185
13594TIP3    H240726   2.724   3.759   6.236
13595TIP3   OH240727   5.763   3.128   0.617
13595TIP3    H140728   5.846   3.120   0.570
13595TIP3    H240729   5.774   3.205   0.672
13596TIP3   OH240730   8.183   1.189   6.600
13596TIP3    H140731   8.252   1.210   6.538
13596TIP3    H240732   8.131   1.268   6.606
13597TIP3   OH240733   3.397   7.120   6.618
13597TIP3    H140734   3.477   7.134   6.669
13597TIP3    H240735   3.326   7.140   6.679
13598TIP3   OH240736   4.713   6.816   3.790
13598TIP3    H140737   4.654   6.833   3.717
13598TIP3    H240738   4.684   6.731   3.824
13599TIP3   OH240739   3.992   1.790   3.188
13599TIP3    H140740   4.027   1.847   3.120
13599TIP3    H240741   3.972   1.708   3.143
13600TIP3   OH240742   7.392   6.822   5.992
13600TIP3    H140743   7.427   6.911   5.996
13600TIP3    H240744   7.409   6.786   6.079
13601TIP3   OH240745   4.859   5.504   1.698
13601TIP3    H140746   4.864   5.436   1.631
13601TIP3    H240747   4.946   5.543   1.700
13602TIP3   OH240748   8.305   7.472   5.512
13602TIP3    H140749   8.225   7.426   5.487
13602TIP3    H240750   8.274   7.552   5.554
13603TIP3   OH240751   0.884   5.828   1.059
13603TIP3    H140752   0.867   5.736   1.038
13603TIP3    H240753   0.884   5.831   1.154
13604TIP3   OH240754   2.317   3.090   5.200
13604TIP3    H140755   2.223   3.077   5.207
13604TIP3    H240756   2.352   3.053   5.281
13605TIP3   OH240757   0.068   1.583   2.757
13605TIP3    H140758   0.081   1.554   2.848
13605TIP3    H240759   0.143   1.640   2.740
13606TIP3   OH240760   4.249   7.172   3.160
13606TIP3    H140761   4.239   7.146   3.251
13606TIP3    H240762   4.178   7.233   3.143
13607TIP3   OH240763   4.115   1.127   6.041
13607TIP3    H140764   4.028   1.102   6.071
13607TIP3    H240765   4.111   1.222   6.029
13608TIP3   OH240766   3.002   2.993   6.263
13608TIP3    H140767   2.949   2.942   6.325
13608TIP3    H240768   2.940   3.021   6.196
13609TIP3   OH240769   4.925   0.820   5.906
13609TIP3    H140770   4.864   0.761   5.949
13609TIP3    H240771   4.883   0.841   5.823
13610TIP3   OH240772   7.397   4.144   1.903
13610TIP3    H140773   7.313   4.098   1.908
13610TIP3    H240774   7.401   4.196   1.984
13611TIP3   OH240775   6.651   2.722   1.181
13611TIP3    H140776   6.640   2.702   1.273
13611TIP3    H240777   6.571   2.690   1.139
13612TIP3   OH240778   5.072   5.851   4.049
13612TIP3    H140779   5.087   5.760   4.076
13612TIP3    H240780   5.128   5.902   4.108
13613TIP3   OH240781   5.864   5.676   3.259
13613TIP3    H140782   5.881   5.589   3.223
13613TIP3    H240783   5.772   5.675   3.284
13614TIP3   OH240784   1.530   1.132   5.998
13614TIP3    H140785   1.507   1.201   6.060
13614TIP3    H240786   1.459   1.133   5.934
13615TIP3   OH240787   5.717   3.719   1.160
13615TIP3    H140788   5.731   3.664   1.083
13615TIP3    H240789   5.700   3.806   1.125
13616TIP3   OH240790   5.451   4.835   2.310
13616TIP3    H140791   5.450   4.766   2.244
13616TIP3    H240792   5.361   4.868   2.311
13617TIP3   OH240793   7.819   2.413   2.580
13617TIP3    H140794   7.749   2.397   2.644
13617TIP3    H240795   7.854   2.499   2.604
13618TIP3   OH240796   2.224   1.881   5.849
13618TIP3    H140797   2.155   1.832   5.805
13618TIP3    H240798   2.207   1.973   5.827
13619TIP3   OH240799   1.095   5.511   2.188
13619TIP3    H140800   1.143   5.589   2.216
13619TIP3    H240801   1.161   5.441   2.190
13620TIP3   OH240802   5.087   0.489   6.590
13620TIP3    H140803   5.144   0.461   6.518
13620TIP3    H240804   5.135   0.464   6.669
13621TIP3   OH240805   2.517   4.161   0.408
13621TIP3    H140806   2.596   4.112   0.432
13621TIP3    H240807   2.482   4.115   0.332
13622TIP3   OH240808   1.258   4.475   4.515
13622TIP3    H140809   1.168   4.505   4.508
13622TIP3    H240810   1.291   4.478   4.425
13623TIP3   OH240811   5.878   7.765   3.201
13623TIP3    H140812   5.825   7.837   3.234
13623TIP3    H240813   5.941   7.747   3.270
13624TIP3   OH240814   7.494   2.605   1.280
13624TIP3    H140815   7.467   2.626   1.191
13624TIP3    H240816   7.585   2.633   1.285
13625TIP3   OH240817   4.619   1.589   4.855
13625TIP3    H140818   4.676   1.650   4.808
13625TIP3    H240819   4.630   1.506   4.809
13626TIP3   OH240820   2.337   5.624   6.371
13626TIP3    H140821   2.377   5.659   6.450
13626TIP3    H240822   2.287   5.548   6.401
13627TIP3   OH240823   6.538   0.917   5.654
13627TIP3    H140824   6.563   0.825   5.644
13627TIP3    H240825   6.561   0.957   5.571
13628TIP3   OH240826   0.065   5.462   0.911
13628TIP3    H140827   0.116   5.450   0.831
13628TIP3    H240828   0.107   5.535   0.956
13629TIP3   OH240829   6.769   0.066   0.983
13629TIP3    H140830   6.711   0.005   1.028
13629TIP3    H240831   6.721   0.091   0.904
13630TIP3   OH240832   6.630   4.108   0.977
13630TIP3    H140833   6.665   4.130   1.063
13630TIP3    H240834   6.613   4.014   0.981
13631TIP3   OH240835   2.403   6.994   0.436
13631TIP3    H140836   2.448   6.917   0.472
13631TIP3    H240837   2.421   7.064   0.499
13632TIP3   OH240838   7.024   2.936   4.597
13632TIP3    H140839   6.949   2.877   4.601
13632TIP3    H240840   6.999   3.004   4.536
13633TIP3   OH240841   5.435   5.248   3.167
13633TIP3    H140842   5.442   5.164   3.122
13633TIP3    H240843   5.472   5.232   3.253
13634TIP3   OH240844   7.409   3.865   0.817
13634TIP3    H140845   7.382   3.826   0.901
13634TIP3    H240846   7.326   3.883   0.771
13635TIP3   OH240847   1.010   0.570   3.276
13635TIP3    H140848   1.071   0.556   3.204
13635TIP3    H240849   1.005   0.485   3.320
13636TIP3   OH240850   6.566   4.674   6.272
13636TIP3    H140851   6.622   4.675   6.195
13636TIP3    H240852   6.625   4.685   6.346
13637TIP3   OH240853   0.834   2.595   0.467
13637TIP3    H140854   0.792   2.529   0.413
13637TIP3    H240855   0.774   2.670   0.466
13638TIP3   OH240856   7.495   3.176   0.958
13638TIP3    H140857   7.548   3.220   0.892
13638TIP3    H240858   7.473   3.244   1.021
13639TIP3   OH240859   2.679   7.252   1.779
13639TIP3    H140860   2.755   7.220   1.731
13639TIP3    H240861   2.700   7.342   1.801
13640TIP3   OH240862   0.236   3.757   1.803
13640TIP3    H140863   0.156   3.806   1.826
13640TIP3    H240864   0.220   3.669   1.835
13641TIP3   OH240865   1.085   1.927   2.383
13641TIP3    H140866   1.074   1.949   2.476
13641TIP3    H240867   1.177   1.945   2.365
13642TIP3   OH240868   2.172   0.685   3.109
13642TIP3    H140869   2.146   0.756   3.168
13642TIP3    H240870   2.164   0.606   3.162
13643TIP3   OH240871   0.039   4.355   0.944
13643TIP3    H140872  -0.006   4.409   1.008
13643TIP3    H240873   0.074   4.282   0.995
13644TIP3   OH240874   6.188   1.441   4.517
13644TIP3    H140875   6.214   1.352   4.494
13644TIP3    H240876   6.159   1.479   4.434
13645TIP3   OH240877   0.270   1.421   0.897
13645TIP3    H140878   0.343   1.480   0.880
13645TIP3    H240879   0.204   1.444   0.831
13646TIP3   OH240880   5.286   5.155   6.605
13646TIP3    H140881   5.233   5.194   6.676
13646TIP3    H240882   5.366   5.127   6.648
13647TIP3   OH240883   5.262   2.687   2.847
13647TIP3    H140884   5.169   2.705   2.859
13647TIP3    H240885   5.301   2.773   2.832
13648TIP3   OH240886   6.500   3.978   5.238
13648TIP3    H140887   6.416   3.993   5.195
13648TIP3    H240888   6.483   3.992   5.331
13649TIP3   OH240889   1.197   5.565   1.844
13649TIP3    H140890   1.137   5.528   1.908
13649TIP3    H240891   1.205   5.657   1.869
13650TIP3   OH240892   1.690   1.488   1.506
13650TIP3    H140893   1.720   1.535   1.584
13650TIP3    H240894   1.718   1.398   1.520
13651TIP3   OH240895   0.370   6.988   4.968
13651TIP3    H140896   0.300   6.986   5.034
13651TIP3    H240897   0.410   6.901   4.973
13652TIP3   OH240898   0.193   0.970   5.772
13652TIP3    H140899   0.118   0.914   5.794
13652TIP3    H240900   0.268   0.927   5.815
13653TIP3   OH240901   7.855   6.748   4.322
13653TIP3    H140902   7.835   6.797   4.242
13653TIP3    H240903   7.802   6.669   4.316
13654TIP3   OH240904   2.727   1.165   2.764
13654TIP3    H140905   2.723   1.174   2.669
13654TIP3    H240906   2.807   1.211   2.789
13655TIP3   OH240907   2.961   0.386   5.276
13655TIP3    H140908   2.991   0.376   5.366
13655TIP3    H240909   2.918   0.471   5.274
13656TIP3   OH240910   7.493   4.310   2.846
13656TIP3    H140911   7.436   4.371   2.800
13656TIP3    H240912   7.458   4.223   2.826
13657TIP3   OH240913   5.104   0.047   0.060
13657TIP3    H140914   5.047  -0.017   0.102
13657TIP3    H240915   5.141   0.001  -0.016
13658TIP3   OH240916   6.452   2.245   4.152
13658TIP3    H140917   6.417   2.223   4.238
13658TIP3    H240918   6.390   2.308   4.116
13659TIP3   OH240919   2.259   3.548   6.738
13659TIP3    H140920   2.223   3.506   6.660
13659TIP3    H240921   2.352   3.526   6.737
13660TIP3   OH240922   2.592   1.509   6.359
13660TIP3    H140923   2.603   1.590   6.408
13660TIP3    H240924   2.515   1.524   6.304
13661TIP3   OH240925   7.890   6.138   4.897
13661TIP3    H140926   7.847   6.165   4.978
13661TIP3    H240927   7.846   6.056   4.873
13662TIP3   OH240928   3.583   5.053   5.300
13662TIP3    H140929   3.543   4.996   5.366
13662TIP3    H240930   3.661   5.087   5.342
13663TIP3   OH240931   5.219   7.350   4.958
13663TIP3    H140932   5.251   7.299   5.032
13663TIP3    H240933   5.126   7.329   4.953
13664TIP3   OH240934   7.197   1.558   1.834
13664TIP3    H140935   7.227   1.514   1.755
13664TIP3    H240936   7.108   1.587   1.813
13665TIP3   OH240937   0.602   2.717   1.393
13665TIP3    H140938   0.525   2.772   1.412
13665TIP3    H240939   0.591   2.692   1.302
13666TIP3   OH240940   1.121   2.339   6.784
13666TIP3    H140941   1.168   2.270   6.737
13666TIP3    H240942   1.032   2.337   6.748
13667TIP3   OH240943   6.674   6.088   5.143
13667TIP3    H140944   6.662   6.086   5.238
13667TIP3    H240945   6.616   6.019   5.110
13668TIP3   OH240946   5.872   5.119   5.219
13668TIP3    H140947   5.796   5.065   5.196
13668TIP3    H240948   5.882   5.107   5.314
13669TIP3   OH240949   0.535   2.401   4.156
13669TIP3    H140950   0.609   2.433   4.104
13669TIP3    H240951   0.573   2.334   4.213
13670TIP3   OH240952   1.403   0.926   3.864
13670TIP3    H140953   1.429   0.916   3.955
13670TIP3    H240954   1.481   0.904   3.814
13671TIP3   OH240955   5.866   0.282   6.440
13671TIP3    H140956   5.955   0.315   6.427
13671TIP3    H240957   5.876   0.211   6.503
13672TIP3   OH240958   1.960   4.260   0.810
13672TIP3    H140959   1.963   4.356   0.806
13672TIP3    H240960   2.020   4.232   0.741
13673TIP3   OH240961   6.841   1.836   2.585
13673TIP3    H140962   6.801   1.920   2.605
13673TIP3    H240963   6.855   1.794   2.670
13674TIP3   OH240964   2.569   5.041   6.358
13674TIP3    H140965   2.631   4.998   6.417
13674TIP3    H240966   2.561   4.982   6.284
13675TIP3   OH240967   3.733   3.535   6.407
13675TIP3    H140968   3.708   3.578   6.325
13675TIP3    H240969   3.749   3.608   6.467
13676TIP3   OH240970   8.086   3.048   3.609
13676TIP3    H140971   8.116   3.112   3.673
13676TIP3    H240972   8.009   3.008   3.650
13677TIP3   OH240973   5.814   2.694   4.008
13677TIP3    H140974   5.903   2.662   4.025
13677TIP3    H240975   5.778   2.713   4.094
13678TIP3   OH240976   1.743   1.478   5.518
13678TIP3    H140977   1.721   1.567   5.492
13678TIP3    H240978   1.831   1.463   5.482
13679TIP3   OH240979   5.032   2.309   2.827
13679TIP3    H140980   4.982   2.381   2.865
13679TIP3    H240981   4.992   2.230   2.862
13680TIP3   OH240982   4.210   1.094   6.376
13680TIP3    H140983   4.248   1.007   6.360
13680TIP3    H240984   4.115   1.079   6.373
13681TIP3   OH240985   6.958   5.356   5.700
13681TIP3    H140986   6.869   5.385   5.719
13681TIP3    H240987   7.008   5.436   5.691
13682TIP3   OH240988   5.312   3.980   6.549
13682TIP3    H140989   5.370   4.051   6.522
13682TIP3    H240990   5.360   3.935   6.620
13683TIP3   OH240991   7.936   0.635   4.625
13683TIP3    H140992   8.017   0.654   4.578
13683TIP3    H240993   7.873   0.611   4.557
13684TIP3   OH240994   0.079   6.827   6.236
13684TIP3    H140995   0.152   6.793   6.287
13684TIP3    H240996   0.118   6.852   6.152
13685TIP3   OH240997   7.815   6.448   1.035
13685TIP3    H140998   7.747   6.416   1.094
13685TIP3    H240999   7.857   6.519   1.084
13686TIP3   OH241000   3.774   5.912   5.844
13686TIP3    H141001   3.719   5.913   5.766
13686TIP3    H241002   3.759   5.826   5.883
13687TIP3   OH241003   2.656   3.556   3.927
13687TIP3    H141004   2.635   3.518   4.012
13687TIP3    H241005   2.580   3.535   3.872
13688TIP3   OH241006   3.072   3.877   4.993
13688TIP3    H141007   3.028   3.926   5.062
13688TIP3    H241008   3.000   3.845   4.938
13689TIP3   OH241009   0.547   6.020   3.594
13689TIP3    H141010   0.570   6.055   3.680
13689TIP3    H241011   0.567   5.926   3.600
13690TIP3   OH241012   0.692   4.076   2.712
13690TIP3    H141013   0.626   4.017   2.676
13690TIP3    H241014   0.757   4.085   2.641
13691TIP3   OH241015   7.040   0.269   1.949
13691TIP3    H141016   7.028   0.182   1.987
13691TIP3    H241017   7.122   0.262   1.900
13692TIP3   OH241018   6.180   2.381   1.986
13692TIP3    H141019   6.247   2.422   1.931
13692TIP3    H241020   6.116   2.345   1.925
13693TIP3   OH241021   6.960   4.944   4.004
13693TIP3    H141022   6.973   4.961   4.097
13693TIP3    H241023   7.048   4.934   3.969
13694TIP3   OH241024   1.370   0.561   5.368
13694TIP3    H141025   1.381   0.488   5.307
13694TIP3    H241026   1.284   0.597   5.347
13695TIP3   OH241027   6.454   1.923   2.361
13695TIP3    H141028   6.378   1.902   2.416
13695TIP3    H241029   6.520   1.859   2.385
13696TIP3   OH241030   7.988   5.414   4.955
13696TIP3    H141031   7.929   5.409   4.879
13696TIP3    H241032   7.931   5.398   5.030
13697TIP3   OH241033   4.089   4.129   1.471
13697TIP3    H141034   4.041   4.204   1.435
13697TIP3    H241035   4.140   4.165   1.544
13698TIP3   OH241036   5.572   2.941   3.453
13698TIP3    H141037   5.531   2.940   3.366
13698TIP3    H241038   5.499   2.953   3.514
13699TIP3   OH241039   5.404   5.523   4.325
13699TIP3    H141040   5.443   5.436   4.334
13699TIP3    H241041   5.399   5.538   4.230
13700TIP3   OH241042   4.445   2.726   2.953
13700TIP3    H141043   4.463   2.820   2.947
13700TIP3    H241044   4.365   2.714   2.901
13701TIP3   OH241045   0.215   0.357   1.442
13701TIP3    H141046   0.151   0.291   1.417
13701TIP3    H241047   0.285   0.308   1.485
13702TIP3   OH241048   3.441   4.197   3.473
13702TIP3    H141049   3.483   4.279   3.500
13702TIP3    H241050   3.512   4.133   3.471
13703TIP3   OH241051   4.792   0.832   5.427
13703TIP3    H141052   4.831   0.852   5.342
13703TIP3    H241053   4.868   0.827   5.486
13704TIP3   OH241054   0.342   4.845   2.852
13704TIP3    H141055   0.256   4.886   2.862
13704TIP3    H241056   0.323   4.761   2.811
13705TIP3   OH241057   0.150   3.728   6.448
13705TIP3    H141058   0.081   3.662   6.450
13705TIP3    H241059   0.113   3.804   6.493
13706TIP3   OH241060   6.626   6.106   4.658
13706TIP3    H141061   6.642   6.163   4.733
13706TIP3    H241062   6.539   6.131   4.628
13707TIP3   OH241063   6.339   6.603   5.741
13707TIP3    H141064   6.338   6.510   5.760
13707TIP3    H241065   6.416   6.636   5.787
13708TIP3   OH241066   0.578   5.639   5.962
13708TIP3    H141067   0.495   5.591   5.963
13708TIP3    H241068   0.642   5.575   5.991
13709TIP3   OH241069   4.211   7.261   1.494
13709TIP3    H141070   4.216   7.212   1.412
13709TIP3    H241071   4.153   7.334   1.475
13710TIP3   OH241072   0.743   0.585   4.039
13710TIP3    H141073   0.834   0.575   4.067
13710TIP3    H241074   0.748   0.607   3.946
13711TIP3   OH241075   5.121   1.660   6.208
13711TIP3    H141076   5.154   1.624   6.126
13711TIP3    H241077   5.143   1.753   6.205
13712TIP3   OH241078   5.441   3.996   3.535
13712TIP3    H141079   5.518   3.973   3.484
13712TIP3    H241080   5.403   3.912   3.561
13713TIP3   OH241081   7.043   4.227   0.259
13713TIP3    H141082   7.123   4.275   0.278
13713TIP3    H241083   7.066   4.135   0.276
13714TIP3   OH241084   0.459   7.152   1.448
13714TIP3    H141085   0.395   7.157   1.520
13714TIP3    H241086   0.496   7.240   1.444
13715TIP3   OH241087   4.087   3.702   2.441
13715TIP3    H141088   4.058   3.741   2.359
13715TIP3    H241089   4.086   3.774   2.504
13716TIP3   OH241090   4.876   2.782   3.166
13716TIP3    H141091   4.922   2.734   3.097
13716TIP3    H241092   4.808   2.831   3.120
13717TIP3   OH241093   2.665   3.139   5.833
13717TIP3    H141094   2.700   3.216   5.877
13717TIP3    H241095   2.589   3.172   5.784
13718TIP3   OH241096   2.303   1.792   3.916
13718TIP3    H141097   2.222   1.779   3.867
13718TIP3    H241098   2.347   1.864   3.871
13719TIP3   OH241099   1.581   1.716   4.679
13719TIP3    H141100   1.616   1.665   4.606
13719TIP3    H241101   1.657   1.762   4.715
13720TIP3   OH241102   8.260   2.266   2.536
13720TIP3    H141103   8.348   2.230   2.543
13720TIP3    H241104   8.203   2.199   2.573
13721TIP3   OH241105   0.183   7.396   1.810
13721TIP3    H141106   0.189   7.308   1.774
13721TIP3    H241107   0.207   7.386   1.902
13722TIP3   OH241108   3.697   7.088   2.667
13722TIP3    H141109   3.710   7.154   2.599
13722TIP3    H241110   3.634   7.026   2.629
13723TIP3   OH241111   6.951   3.150   6.736
13723TIP3    H141112   6.873   3.116   6.780
13723TIP3    H241113   7.014   3.164   6.807
13724TIP3   OH241114   4.258   7.277   0.539
13724TIP3    H141115   4.239   7.184   0.550
13724TIP3    H241116   4.350   7.286   0.566
13725TIP3   OH241117   5.003   1.222   5.141
13725TIP3    H141118   4.932   1.255   5.087
13725TIP3    H241119   5.019   1.291   5.206
13726TIP3   OH241120   1.225   7.212   2.499
13726TIP3    H141121   1.206   7.303   2.521
13726TIP3    H241122   1.318   7.202   2.518
13727TIP3   OH241123   2.818   7.489   4.450
13727TIP3    H141124   2.774   7.517   4.370
13727TIP3    H241125   2.867   7.566   4.479
13728TIP3   OH241126   6.443   3.258   3.892
13728TIP3    H141127   6.443   3.185   3.831
13728TIP3    H241128   6.496   3.325   3.849
13729TIP3   OH241129   3.946   6.929   5.318
13729TIP3    H141130   3.943   6.918   5.223
13729TIP3    H241131   3.915   7.018   5.332
13730TIP3   OH241132   4.756   3.287   4.099
13730TIP3    H141133   4.667   3.300   4.066
13730TIP3    H241134   4.750   3.206   4.150
13731TIP3   OH241135   0.173   7.721   0.606
13731TIP3    H141136   0.086   7.742   0.573
13731TIP3    H241137   0.218   7.680   0.532
13732TIP3   OH241138   2.920   4.954   4.077
13732TIP3    H141139   2.989   4.927   4.017
13732TIP3    H241140   2.890   4.872   4.117
13733TIP3   OH241141   2.435   6.408   0.318
13733TIP3    H141142   2.475   6.490   0.287
13733TIP3    H241143   2.500   6.371   0.378
13734TIP3   OH241144   5.117   3.950   5.531
13734TIP3    H141145   5.096   3.863   5.564
13734TIP3    H241146   5.142   3.935   5.440
13735TIP3   OH241147   1.216   2.981   0.274
13735TIP3    H141148   1.215   3.052   0.210
13735TIP3    H241149   1.150   3.005   0.338
13736TIP3   OH241150   7.929   4.168   2.135
13736TIP3    H141151   7.992   4.126   2.077
13736TIP3    H241152   7.863   4.101   2.151
13737TIP3   OH241153   4.770   3.479   4.546
13737TIP3    H141154   4.857   3.495   4.583
13737TIP3    H241155   4.711   3.530   4.601
13738TIP3   OH241156   0.845   0.919   4.705
13738TIP3    H141157   0.844   0.922   4.801
13738TIP3    H241158   0.913   0.856   4.683
13739TIP3   OH241159   0.131   4.977   6.469
13739TIP3    H141160   0.221   4.999   6.495
13739TIP3    H241161   0.118   5.022   6.386
13740TIP3   OH241162   3.782   1.622   0.419
13740TIP3    H141163   3.829   1.541   0.442
13740TIP3    H241164   3.691   1.595   0.413
13741TIP3   OH241165   5.222   3.929   5.275
13741TIP3    H141166   5.220   3.840   5.239
13741TIP3    H241167   5.201   3.986   5.201
13742TIP3   OH241168   0.530   2.195   5.193
13742TIP3    H141169   0.449   2.224   5.235
13742TIP3    H241170   0.507   2.185   5.100
13743TIP3   OH241171   1.935   2.517   0.470
13743TIP3    H141172   1.905   2.578   0.538
13743TIP3    H241173   1.863   2.454   0.461
13744TIP3   OH241174   1.683   7.050   0.455
13744TIP3    H141175   1.606   6.995   0.469
13744TIP3    H241176   1.755   6.989   0.444
13745TIP3   OH241177   8.184   6.365   6.028
13745TIP3    H141178   8.189   6.458   6.053
13745TIP3    H241179   8.091   6.351   6.010
13746TIP3   OH241180   3.800   3.899   0.977
13746TIP3    H141181   3.785   3.900   0.882
13746TIP3    H241182   3.787   3.807   1.002
13747TIP3   OH241183   3.410   7.337   6.452
13747TIP3    H141184   3.401   7.257   6.503
13747TIP3    H241185   3.382   7.313   6.364
13748TIP3   OH241186   3.572   5.454   4.643
13748TIP3    H141187   3.563   5.528   4.584
13748TIP3    H241188   3.484   5.437   4.676
13749TIP3   OH241189   2.100   2.882   0.800
13749TIP3    H141190   2.184   2.920   0.774
13749TIP3    H241191   2.111   2.860   0.892
13750TIP3   OH241192   1.680   6.402   5.585
13750TIP3    H141193   1.724   6.483   5.612
13750TIP3    H241194   1.733   6.332   5.623
13751TIP3   OH241195   1.748   3.210   0.168
13751TIP3    H141196   1.839   3.227   0.145
13751TIP3    H241197   1.747   3.211   0.264
13752TIP3   OH241198   3.399   6.864   4.574
13752TIP3    H141199   3.337   6.849   4.502
13752TIP3    H241200   3.447   6.943   4.548
13753TIP3   OH241201   8.023   1.188   4.293
13753TIP3    H141202   8.110   1.207   4.327
13753TIP3    H241203   8.033   1.104   4.247
13754TIP3   OH241204   0.209   2.176   4.898
13754TIP3    H141205   0.254   2.093   4.880
13754TIP3    H241206   0.129   2.151   4.943
13755TIP3   OH241207   1.415   5.277   5.550
13755TIP3    H141208   1.397   5.234   5.634
13755TIP3    H241209   1.509   5.291   5.550
13756TIP3   OH241210   4.769   4.420   6.222
13756TIP3    H141211   4.748   4.452   6.309
13756TIP3    H241212   4.732   4.331   6.219
13757TIP3   OH241213   2.191   5.674   1.515
13757TIP3    H141214   2.263   5.620   1.547
13757TIP3    H241215   2.126   5.671   1.585
13758TIP3   OH241216   3.897   0.383   4.163
13758TIP3    H141217   3.979   0.333   4.153
13758TIP3    H241218   3.881   0.383   4.257
13759TIP3   OH241219   4.207   5.552   6.107
13759TIP3    H141220   4.275   5.616   6.089
13759TIP3    H241221   4.192   5.557   6.201
13760TIP3   OH241222   5.148   2.143   5.946
13760TIP3    H141223   5.239   2.132   5.974
13760TIP3    H241224   5.148   2.115   5.854
13761TIP3   OH241225   6.839   7.643   5.323
13761TIP3    H141226   6.758   7.693   5.316
13761TIP3    H241227   6.867   7.631   5.232
13762TIP3   OH241228   5.185   1.786   0.679
13762TIP3    H141229   5.193   1.701   0.637
13762TIP3    H241230   5.180   1.848   0.606
13763TIP3   OH241231   2.612   0.947   4.150
13763TIP3    H141232   2.674   1.021   4.150
13763TIP3    H241233   2.613   0.916   4.240
13764TIP3   OH241234   8.109   1.642   6.131
13764TIP3    H141235   8.199   1.674   6.123
13764TIP3    H241236   8.118   1.557   6.175
13765TIP3   OH241237   7.675   3.344   1.510
13765TIP3    H141238   7.646   3.253   1.511
13765TIP3    H241239   7.613   3.389   1.568
13766TIP3   OH241240   0.678   6.090   1.353
13766TIP3    H141241   0.740   6.146   1.307
13766TIP3    H241242   0.622   6.151   1.401
13767TIP3   OH241243   3.669   2.622   4.843
13767TIP3    H141244   3.762   2.641   4.859
13767TIP3    H241245   3.670   2.557   4.773
13768TIP3   OH241246   5.678   5.257   2.424
13768TIP3    H141247   5.602   5.309   2.395
13768TIP3    H241248   5.645   5.208   2.499
13769TIP3   OH241249   1.200   3.294   4.901
13769TIP3    H141250   1.133   3.313   4.835
13769TIP3    H241251   1.235   3.209   4.875
13770TIP3   OH241252   2.151   4.429   6.384
13770TIP3    H141253   2.212   4.489   6.341
13770TIP3    H241254   2.184   4.422   6.474
13771TIP3   OH241255   8.225   3.674   2.982
13771TIP3    H141256   8.249   3.655   2.891
13771TIP3    H241257   8.300   3.644   3.033
13772TIP3   OH241258   0.540   3.585   6.696
13772TIP3    H141259   0.515   3.574   6.788
13772TIP3    H241260   0.617   3.642   6.699
13773TIP3   OH241261   7.089   3.824   4.370
13773TIP3    H141262   7.078   3.904   4.421
13773TIP3    H241263   7.152   3.847   4.303
13774TIP3   OH241264   1.719   4.522   0.268
13774TIP3    H141265   1.766   4.469   0.332
13774TIP3    H241266   1.681   4.593   0.319
13775TIP3   OH241267   4.467   0.465   1.533
13775TIP3    H141268   4.395   0.409   1.560
13775TIP3    H241269   4.532   0.405   1.496
13776TIP3   OH241270   7.241   3.051   0.876
13776TIP3    H141271   7.190   3.119   0.920
13776TIP3    H241272   7.325   3.051   0.922
13777TIP3   OH241273   3.068   7.601   0.820
13777TIP3    H141274   3.046   7.619   0.911
13777TIP3    H241275   3.163   7.591   0.819
13778TIP3   OH241276   1.804   1.410   4.974
13778TIP3    H141277   1.888   1.450   4.952
13778TIP3    H241278   1.746   1.484   4.992
13779TIP3   OH241279   6.639   0.898   3.557
13779TIP3    H141280   6.731   0.919   3.568
13779TIP3    H241281   6.597   0.981   3.537
13780TIP3   OH241282   0.426   7.574   5.097
13780TIP3    H141283   0.499   7.550   5.040
13780TIP3    H241284   0.424   7.505   5.163
13781TIP3   OH241285   7.676   7.863   1.873
13781TIP3    H141286   7.719   7.779   1.860
13781TIP3    H241287   7.608   7.845   1.938
13782TIP3   OH241288   6.029   5.506   5.087
13782TIP3    H141289   6.058   5.420   5.056
13782TIP3    H241290   5.948   5.523   5.038
13783TIP3   OH241291   0.059   6.441   2.649
13783TIP3    H141292   0.065   6.468   2.740
13783TIP3    H241293   0.142   6.466   2.610
13784TIP3   OH241294   5.566   3.595   1.957
13784TIP3    H141295   5.547   3.512   2.001
13784TIP3    H241296   5.480   3.632   1.937
13785TIP3   OH241297   7.206   7.510   2.154
13785TIP3    H141298   7.277   7.525   2.092
13785TIP3    H241299   7.230   7.429   2.199
13786TIP3   OH241300   6.438   2.115   6.210
13786TIP3    H141301   6.392   2.075   6.284
13786TIP3    H241302   6.399   2.074   6.133
13787TIP3   OH241303   7.174   0.108   3.729
13787TIP3    H141304   7.220   0.118   3.812
13787TIP3    H241305   7.141   0.196   3.709
13788TIP3   OH241306   1.319   2.202   0.831
13788TIP3    H141307   1.281   2.289   0.840
13788TIP3    H241308   1.406   2.218   0.794
13789TIP3   OH241309   5.442   3.448   1.698
13789TIP3    H141310   5.395   3.511   1.644
13789TIP3    H241311   5.413   3.467   1.788
13790TIP3   OH241312   5.180   5.413   0.512
13790TIP3    H141313   5.137   5.372   0.587
13790TIP3    H241314   5.113   5.473   0.476
13791TIP3   OH241315   3.778   1.127   0.202
13791TIP3    H141316   3.778   1.031   0.201
13791TIP3    H241317   3.853   1.152   0.147
13792TIP3   OH241318   4.807   7.696   1.820
13792TIP3    H141319   4.820   7.602   1.812
13792TIP3    H241320   4.739   7.705   1.888
13793TIP3   OH241321   3.150   1.491   2.989
13793TIP3    H141322   3.149   1.584   3.013
13793TIP3    H241323   3.077   1.453   3.037
13794TIP3   OH241324   5.799   2.511   0.342
13794TIP3    H141325   5.824   2.428   0.300
13794TIP3    H241326   5.863   2.523   0.412
13795TIP3   OH241327   1.928   6.488   6.027
13795TIP3    H141328   2.018   6.466   6.001
13795TIP3    H241329   1.876   6.415   5.992
13796TIP3   OH241330   3.346   4.021   0.709
13796TIP3    H141331   3.351   4.102   0.761
13796TIP3    H241332   3.437   3.992   0.703
13797TIP3   OH241333   7.017   0.140   5.890
13797TIP3    H141334   6.996   0.130   5.798
13797TIP3    H241335   6.971   0.068   5.933
13798TIP3   OH241336   2.643   6.472   4.143
13798TIP3    H141337   2.625   6.383   4.115
13798TIP3    H241338   2.682   6.463   4.230
13799TIP3   OH241339   4.768   5.102   6.074
13799TIP3    H141340   4.761   5.126   6.166
13799TIP3    H241341   4.838   5.158   6.040
13800TIP3   OH241342   3.336   1.131   1.449
13800TIP3    H141343   3.344   1.191   1.374
13800TIP3    H241344   3.299   1.051   1.412
13801TIP3   OH241345   6.734   6.803   1.926
13801TIP3    H141346   6.829   6.795   1.921
13801TIP3    H241347   6.717   6.832   2.016
13802TIP3   OH241348   6.738   3.069   5.247
13802TIP3    H141349   6.666   3.006   5.245
13802TIP3    H241350   6.816   3.016   5.264
13803TIP3   OH241351   0.985   1.232   2.238
13803TIP3    H141352   0.914   1.294   2.221
13803TIP3    H241353   1.051   1.284   2.283
13804TIP3   OH241354   2.657   4.882   5.229
13804TIP3    H141355   2.699   4.967   5.240
13804TIP3    H241356   2.578   4.887   5.284
13805TIP3   OH241357   7.884   2.154   3.543
13805TIP3    H141358   7.850   2.133   3.630
13805TIP3    H241359   7.967   2.198   3.560
13806TIP3   OH241360   0.758   5.648   0.655
13806TIP3    H141361   0.711   5.584   0.709
13806TIP3    H241362   0.827   5.597   0.613
13807TIP3   OH241363   2.532   0.054   5.203
13807TIP3    H141364   2.522   0.004   5.123
13807TIP3    H241365   2.610   0.107   5.189
13808TIP3   OH241366   7.906   4.193   6.178
13808TIP3    H141367   7.998   4.169   6.167
13808TIP3    H241368   7.892   4.190   6.273
13809TIP3   OH241369   3.491   7.004   0.667
13809TIP3    H141370   3.477   7.039   0.579
13809TIP3    H241371   3.580   7.030   0.690
13810TIP3   OH241372   3.756   7.379   3.827
13810TIP3    H141373   3.683   7.319   3.838
13810TIP3    H241374   3.797   7.383   3.914
13811TIP3   OH241375   7.168   3.181   1.686
13811TIP3    H141376   7.196   3.133   1.764
13811TIP3    H241377   7.175   3.273   1.710
13812TIP3   OH241378   2.287   7.570   2.547
13812TIP3    H141379   2.268   7.487   2.589
13812TIP3    H241380   2.378   7.588   2.570
13813TIP3   OH241381   2.519   6.743   1.352
13813TIP3    H141382   2.607   6.709   1.368
13813TIP3    H241383   2.504   6.728   1.259
13814TIP3   OH241384   5.309   0.519   3.736
13814TIP3    H141385   5.301   0.442   3.679
13814TIP3    H241386   5.269   0.491   3.818
13815TIP3   OH241387   3.227   4.779   4.433
13815TIP3    H141388   3.279   4.765   4.354
13815TIP3    H241389   3.184   4.696   4.450
13816TIP3   OH241390   7.366   2.777   4.349
13816TIP3    H141391   7.383   2.784   4.255
13816TIP3    H241392   7.334   2.863   4.374
13817TIP3   OH241393   1.813   4.180   4.899
13817TIP3    H141394   1.838   4.201   4.989
13817TIP3    H241395   1.770   4.260   4.867
13818TIP3   OH241396   1.815   3.153   6.632
13818TIP3    H141397   1.723   3.151   6.605
13818TIP3    H241398   1.839   3.061   6.642
13819TIP3   OH241399   4.631   1.815   4.426
13819TIP3    H141400   4.718   1.826   4.387
13819TIP3    H241401   4.592   1.902   4.423
13820TIP3   OH241402   2.174   5.936   4.186
13820TIP3    H141403   2.206   6.020   4.221
13820TIP3    H241404   2.079   5.942   4.194
13821TIP3   OH241405   3.080   7.673   1.875
13821TIP3    H141406   2.995   7.630   1.861
13821TIP3    H241407   3.091   7.674   1.970
13822TIP3   OH241408   0.968   5.815   3.729
13822TIP3    H141409   0.980   5.740   3.788
13822TIP3    H241410   1.007   5.787   3.646
13823TIP3   OH241411   5.234   7.491   2.488
13823TIP3    H141412   5.268   7.407   2.521
13823TIP3    H241413   5.297   7.517   2.420
13824TIP3   OH241414   2.991   3.213   0.495
13824TIP3    H141415   3.087   3.218   0.494
13824TIP3    H241416   2.967   3.188   0.406
13825TIP3   OH241417   2.483   0.480   3.343
13825TIP3    H141418   2.526   0.565   3.331
13825TIP3    H241419   2.431   0.491   3.424
13826TIP3   OH241420   6.337   6.334   5.340
13826TIP3    H141421   6.249   6.321   5.376
13826TIP3    H241422   6.395   6.334   5.417
13827TIP3   OH241423   6.540   0.450   5.124
13827TIP3    H141424   6.553   0.412   5.037
13827TIP3    H241425   6.450   0.430   5.147
13828TIP3   OH241426   3.332   2.757   4.476
13828TIP3    H141427   3.380   2.833   4.442
13828TIP3    H241428   3.390   2.683   4.458
13829TIP3   OH241429   1.433   0.888   6.282
13829TIP3    H141430   1.424   0.871   6.188
13829TIP3    H241431   1.347   0.918   6.310
13830TIP3   OH241432   0.728   5.673   1.340
13830TIP3    H141433   0.800   5.735   1.330
13830TIP3    H241434   0.686   5.699   1.422
13831TIP3   OH241435   0.974   6.664   6.525
13831TIP3    H141436   1.029   6.710   6.588
13831TIP3    H241437   1.002   6.697   6.440
13832TIP3   OH241438   1.515   2.579   3.818
13832TIP3    H141439   1.523   2.651   3.880
13832TIP3    H241440   1.558   2.610   3.739
13833TIP3   OH241441   1.107   6.972   4.484
13833TIP3    H141442   1.176   7.003   4.426
13833TIP3    H241443   1.026   6.991   4.436
13834TIP3   OH241444   6.275   5.821   3.416
13834TIP3    H141445   6.349   5.882   3.414
13834TIP3    H241446   6.293   5.759   3.345
13835TIP3   OH241447   5.952   2.140   1.295
13835TIP3    H141448   5.957   2.194   1.374
13835TIP3    H241449   5.941   2.051   1.328
13836TIP3   OH241450   5.650   3.720   0.521
13836TIP3    H141451   5.653   3.812   0.545
13836TIP3    H241452   5.725   3.708   0.462
13837TIP3   OH241453   7.272   1.646   5.872
13837TIP3    H141454   7.343   1.619   5.931
13837TIP3    H241455   7.219   1.567   5.861
13838TIP3   OH241456   5.985   3.127   0.822
13838TIP3    H141457   5.984   3.150   0.916
13838TIP3    H241458   5.984   3.032   0.820
13839TIP3   OH241459   4.920   0.377   6.109
13839TIP3    H141460   4.945   0.375   6.017
13839TIP3    H241461   5.001   0.358   6.156
13840TIP3   OH241462   7.282   7.743   4.220
13840TIP3    H141463   7.323   7.666   4.182
13840TIP3    H241464   7.241   7.711   4.301
13841TIP3   OH241465   4.302   0.845   6.348
13841TIP3    H141466   4.317   0.786   6.273
13841TIP3    H241467   4.387   0.886   6.363
13842TIP3   OH241468   6.444   4.168   2.986
13842TIP3    H141469   6.456   4.075   2.964
13842TIP3    H241470   6.433   4.169   3.081
13843TIP3   OH241471   5.953   3.584   5.691
13843TIP3    H141472   6.016   3.524   5.652
13843TIP3    H241473   5.974   3.582   5.785
13844TIP3   OH241474   4.701   3.677   4.705
13844TIP3    H141475   4.776   3.733   4.726
13844TIP3    H241476   4.645   3.683   4.782
13845TIP3   OH241477   2.434   2.236   3.791
13845TIP3    H141478   2.351   2.282   3.800
13845TIP3    H241479   2.486   2.265   3.866
13846TIP3   OH241480   5.055   3.126   4.851
13846TIP3    H141481   5.026   3.090   4.934
13846TIP3    H241482   4.985   3.186   4.824
13847TIP3   OH241483   7.375   2.884   2.187
13847TIP3    H141484   7.336   2.897   2.274
13847TIP3    H241485   7.376   2.972   2.148
13848TIP3   OH241486   6.236   1.079   2.611
13848TIP3    H141487   6.226   1.144   2.540
13848TIP3    H241488   6.331   1.063   2.615
13849TIP3   OH241489   7.662   6.417   5.326
13849TIP3    H141490   7.676   6.502   5.366
13849TIP3    H241491   7.571   6.418   5.297
13850TIP3   OH241492   0.987   6.182   6.143
13850TIP3    H141493   0.981   6.089   6.164
13850TIP3    H241494   0.921   6.196   6.076
13851TIP3   OH241495   8.015   6.794   5.150
13851TIP3    H141496   8.062   6.748   5.219
13851TIP3    H241497   7.923   6.774   5.167
13852TIP3   OH241498   2.261   1.542   6.628
13852TIP3    H141499   2.339   1.491   6.652
13852TIP3    H241500   2.230   1.579   6.711
13853TIP3   OH241501   2.596   7.750   3.649
13853TIP3    H141502   2.658   7.680   3.626
13853TIP3    H241503   2.539   7.757   3.572
13854TIP3   OH241504   6.059   7.592   5.489
13854TIP3    H141505   6.034   7.565   5.578
13854TIP3    H241506   6.041   7.515   5.435
13855TIP3   OH241507   4.397   1.161   2.824
13855TIP3    H141508   4.492   1.175   2.828
13855TIP3    H241509   4.365   1.194   2.908
13856TIP3   OH241510   6.420   5.343   4.547
13856TIP3    H141511   6.362   5.361   4.473
13856TIP3    H241512   6.459   5.427   4.569
13857TIP3   OH241513   0.851   6.369   6.636
13857TIP3    H141514   0.757   6.359   6.650
13857TIP3    H241515   0.863   6.358   6.542
13858TIP3   OH241516   1.945   2.100   1.427
13858TIP3    H141517   2.039   2.113   1.438
13858TIP3    H241518   1.910   2.097   1.516
13859TIP3   OH241519   3.962   5.151   2.876
13859TIP3    H141520   3.988   5.157   2.784
13859TIP3    H241521   3.918   5.233   2.894
13860TIP3   OH241522   7.239   4.969   5.661
13860TIP3    H141523   7.159   5.013   5.631
13860TIP3    H241524   7.226   4.961   5.756
13861TIP3   OH241525   7.286   4.762   2.539
13861TIP3    H141526   7.233   4.728   2.612
13861TIP3    H241527   7.336   4.687   2.508
13862TIP3   OH241528   0.711   0.998   3.108
13862TIP3    H141529   0.744   0.938   3.175
13862TIP3    H241530   0.790   1.042   3.075
13863TIP3   OH241531   3.672   1.280   4.690
13863TIP3    H141532   3.582   1.247   4.692
13863TIP3    H241533   3.709   1.253   4.774
13864TIP3   OH241534   7.891   2.475   2.910
13864TIP3    H141535   7.820   2.529   2.945
13864TIP3    H241536   7.884   2.393   2.959
13865TIP3   OH241537   2.994   3.289   0.799
13865TIP3    H141538   2.984   3.206   0.846
13865TIP3    H241539   2.910   3.303   0.757
13866TIP3   OH241540   6.216   0.227   5.671
13866TIP3    H141541   6.204   0.203   5.763
13866TIP3    H241542   6.131   0.264   5.645
13867TIP3   OH241543   5.618   6.832   6.377
13867TIP3    H141544   5.601   6.886   6.454
13867TIP3    H241545   5.664   6.890   6.316
13868TIP3   OH241546   2.376   2.234   2.423
13868TIP3    H141547   2.320   2.231   2.501
13868TIP3    H241548   2.451   2.287   2.449
13869TIP3   OH241549   6.251   1.341   4.852
13869TIP3    H141550   6.303   1.421   4.844
13869TIP3    H241551   6.262   1.297   4.768
13870TIP3   OH241552   4.257   2.674   0.964
13870TIP3    H141553   4.174   2.676   1.012
13870TIP3    H241554   4.303   2.599   1.001
13871TIP3   OH241555   2.531   0.447   5.323
13871TIP3    H141556   2.534   0.375   5.385
13871TIP3    H241557   2.532   0.405   5.237
13872TIP3   OH241558   3.921   4.775   1.011
13872TIP3    H141559   3.930   4.864   1.046
13872TIP3    H241560   3.983   4.723   1.062
13873TIP3   OH241561   1.789   4.728   5.331
13873TIP3    H141562   1.753   4.743   5.244
13873TIP3    H241563   1.811   4.816   5.363
13874TIP3   OH241564   0.800   7.762   0.058
13874TIP3    H141565   0.872   7.728   0.111
13874TIP3    H241566   0.741   7.803   0.122
13875TIP3   OH241567   2.314   1.030   2.813
13875TIP3    H141568   2.333   1.075   2.895
13875TIP3    H241569   2.367   0.950   2.818
13876TIP3   OH241570   7.391   5.676   4.578
13876TIP3    H141571   7.345   5.667   4.495
13876TIP3    H241572   7.335   5.632   4.642
13877TIP3   OH241573   7.849   2.293   6.302
13877TIP3    H141574   7.795   2.266   6.228
13877TIP3    H241575   7.871   2.384   6.284
13878TIP3   OH241576   7.839   3.133   5.100
13878TIP3    H141577   7.910   3.070   5.090
13878TIP3    H241578   7.787   3.099   5.174
13879TIP3   OH241579   4.231   4.438   5.145
13879TIP3    H141580   4.286   4.454   5.068
13879TIP3    H241581   4.292   4.428   5.217
13880TIP3   OH241582   6.807   2.937   3.248
13880TIP3    H141583   6.723   2.962   3.286
13880TIP3    H241584   6.826   3.007   3.186
13881TIP3   OH241585   7.006   4.067   1.966
13881TIP3    H141586   6.947   4.141   1.951
13881TIP3    H241587   7.032   4.075   2.058
13882TIP3   OH241588   1.556   7.129   0.168
13882TIP3    H141589   1.645   7.108   0.196
13882TIP3    H241590   1.527   7.197   0.228
13883TIP3   OH241591   5.424   1.711   4.063
13883TIP3    H141592   5.387   1.741   3.980
13883TIP3    H241593   5.461   1.625   4.043
13884TIP3   OH241594   2.923   3.625   2.744
13884TIP3    H141595   2.962   3.704   2.782
13884TIP3    H241596   2.829   3.645   2.738
13885TIP3   OH241597   2.600   2.076   1.643
13885TIP3    H141598   2.655   2.153   1.661
13885TIP3    H241599   2.612   2.060   1.549
13886TIP3   OH241600   7.042   2.365   3.565
13886TIP3    H141601   6.994   2.307   3.623
13886TIP3    H241602   7.130   2.370   3.603
13887TIP3   OH241603   6.866   5.924   0.718
13887TIP3    H141604   6.874   5.883   0.804
13887TIP3    H241605   6.895   6.015   0.732
13888TIP3   OH241606   0.881   2.564   5.998
13888TIP3    H141607   0.855   2.652   6.025
13888TIP3    H241608   0.859   2.508   6.072
13889TIP3   OH241609   1.739   5.108   0.866
13889TIP3    H141610   1.816   5.120   0.920
13889TIP3    H241611   1.768   5.128   0.777
13890TIP3   OH241612   2.174   7.279   0.666
13890TIP3    H141613   2.230   7.275   0.588
13890TIP3    H241614   2.085   7.280   0.631
13891TIP3   OH241615   2.312   1.538   2.634
13891TIP3    H141616   2.310   1.517   2.540
13891TIP3    H241617   2.334   1.456   2.677
13892TIP3   OH241618   0.411   7.271   6.751
13892TIP3    H141619   0.348   7.237   6.815
13892TIP3    H241620   0.397   7.366   6.751
13893TIP3   OH241621   1.530   6.482   1.094
13893TIP3    H141622   1.565   6.422   1.160
13893TIP3    H241623   1.551   6.441   1.010
13894TIP3   OH241624   7.211   1.699   4.980
13894TIP3    H141625   7.262   1.780   4.976
13894TIP3    H241626   7.197   1.675   4.888
13895TIP3   OH241627   7.841   3.434   0.659
13895TIP3    H141628   7.934   3.450   0.640
13895TIP3    H241629   7.812   3.511   0.708
13896TIP3   OH241630   1.581   1.285   4.676
13896TIP3    H141631   1.642   1.352   4.646
13896TIP3    H241632   1.584   1.291   4.771
13897TIP3   OH241633   8.152   3.470   2.790
13897TIP3    H141634   8.123   3.543   2.735
13897TIP3    H241635   8.071   3.436   2.829
13898TIP3   OH241636   0.037   5.004   4.619
13898TIP3    H141637   0.025   5.062   4.543
13898TIP3    H241638  -0.003   5.052   4.692
13899TIP3   OH241639   3.807   3.128   3.511
13899TIP3    H141640   3.742   3.182   3.466
13899TIP3    H241641   3.769   3.040   3.510
13900TIP3   OH241642   5.606   4.182   3.659
13900TIP3    H141643   5.517   4.157   3.636
13900TIP3    H241644   5.660   4.108   3.632
13901TIP3   OH241645   2.050   1.229   6.072
13901TIP3    H141646   1.961   1.262   6.063
13901TIP3    H241647   2.040   1.134   6.079
13902TIP3   OH241648   3.818   2.768   1.981
13902TIP3    H141649   3.830   2.830   2.052
13902TIP3    H241650   3.746   2.804   1.929
13903TIP3   OH241651   6.017   3.799   2.373
13903TIP3    H141652   6.111   3.812   2.357
13903TIP3    H241653   5.978   3.799   2.285
13904TIP3   OH241654   1.234   6.782   0.550
13904TIP3    H141655   1.261   6.755   0.638
13904TIP3    H241656   1.143   6.753   0.543
13905TIP3   OH241657   5.677   4.847   4.625
13905TIP3    H141658   5.695   4.823   4.716
13905TIP3    H241659   5.639   4.934   4.630
13906TIP3   OH241660   3.798   4.682   1.293
13906TIP3    H141661   3.870   4.739   1.320
13906TIP3    H241662   3.744   4.736   1.235
13907TIP3   OH241663   0.135   7.246   2.429
13907TIP3    H141664   0.071   7.194   2.381
13907TIP3    H241665   0.085   7.319   2.466
13908TIP3   OH241666   7.425   0.338   0.971
13908TIP3    H141667   7.499   0.287   1.003
13908TIP3    H241668   7.464   0.418   0.937
13909TIP3   OH241669   0.824   7.073   5.132
13909TIP3    H141670   0.868   7.125   5.065
13909TIP3    H241671   0.879   6.995   5.142
13910TIP3   OH241672   0.915   2.956   4.647
13910TIP3    H141673   0.915   2.971   4.552
13910TIP3    H241674   0.823   2.957   4.672
13911TIP3   OH241675   5.783   6.029   3.862
13911TIP3    H141676   5.795   6.088   3.787
13911TIP3    H241677   5.826   5.948   3.836
13912TIP3   OH241678   2.272   4.455   1.868
13912TIP3    H141679   2.245   4.394   1.936
13912TIP3    H241680   2.205   4.445   1.800
13913TIP3   OH241681   5.543   5.159   6.246
13913TIP3    H141682   5.614   5.201   6.294
13913TIP3    H241683   5.587   5.098   6.187
13914TIP3   OH241684   5.719   4.230   1.870
13914TIP3    H141685   5.789   4.184   1.916
13914TIP3    H241686   5.677   4.162   1.817
13915TIP3   OH241687   1.059   0.157   1.466
13915TIP3    H141688   0.988   0.221   1.454
13915TIP3    H241689   1.050   0.097   1.392
13916TIP3   OH241690   4.878   5.647   5.365
13916TIP3    H141691   4.798   5.605   5.398
13916TIP3    H241692   4.870   5.642   5.270
13917TIP3   OH241693   5.950   3.375   6.284
13917TIP3    H141694   5.870   3.349   6.330
13917TIP3    H241695   5.973   3.459   6.323
13918TIP3   OH241696   3.349   5.989   2.524
13918TIP3    H141697   3.316   6.039   2.598
13918TIP3    H241698   3.289   6.009   2.452
13919TIP3   OH241699   5.173   3.050   2.155
13919TIP3    H141700   5.144   3.032   2.244
13919TIP3    H241701   5.125   3.129   2.130
13920TIP3   OH241702   3.600   6.030   3.865
13920TIP3    H141703   3.638   6.112   3.897
13920TIP3    H241704   3.506   6.040   3.880
13921TIP3   OH241705   5.581   3.740   2.198
13921TIP3    H141706   5.512   3.806   2.202
13921TIP3    H241707   5.632   3.764   2.121
13922TIP3   OH241708   3.911   6.767   6.470
13922TIP3    H141709   3.974   6.752   6.400
13922TIP3    H241710   3.841   6.817   6.429
13923TIP3   OH241711   6.338   1.548   1.607
13923TIP3    H141712   6.380   1.620   1.654
13923TIP3    H241713   6.259   1.586   1.570
13924TIP3   OH241714   6.733   7.644   5.932
13924TIP3    H141715   6.690   7.638   5.847
13924TIP3    H241716   6.688   7.716   5.976
13925TIP3   OH241717   0.743   6.017   1.970
13925TIP3    H141718   0.831   6.008   1.934
13925TIP3    H241719   0.741   5.956   2.044
13926TIP3   OH241720   3.744   0.853   0.197
13926TIP3    H141721   3.665   0.844   0.251
13926TIP3    H241722   3.770   0.763   0.178
13927TIP3   OH241723   5.484   4.383   3.459
13927TIP3    H141724   5.551   4.398   3.392
13927TIP3    H241725   5.401   4.398   3.413
13928TIP3   OH241726   7.561   3.526   6.692
13928TIP3    H141727   7.558   3.575   6.774
13928TIP3    H241728   7.505   3.575   6.632
13929TIP3   OH241729   5.592   3.231   3.424
13929TIP3    H141730   5.503   3.246   3.454
13929TIP3    H241731   5.590   3.145   3.382
13930TIP3   OH241732   7.019   5.131   5.595
13930TIP3    H141733   6.987   5.152   5.507
13930TIP3    H241734   6.988   5.204   5.649
13931TIP3   OH241735   2.941   0.184   3.143
13931TIP3    H141736   2.893   0.105   3.166
13931TIP3    H241737   2.913   0.249   3.208
13932TIP3   OH241738   4.534   0.602   1.962
13932TIP3    H141739   4.482   0.636   2.035
13932TIP3    H241740   4.563   0.516   1.991
13933TIP3   OH241741   3.741   2.701   1.068
13933TIP3    H141742   3.724   2.610   1.092
13933TIP3    H241743   3.778   2.697   0.980
13934TIP3   OH241744   7.814   4.511   3.337
13934TIP3    H141745   7.854   4.546   3.258
13934TIP3    H241746   7.851   4.423   3.345
13935TIP3   OH241747   8.230   5.592   4.088
13935TIP3    H141748   8.242   5.668   4.031
13935TIP3    H241749   8.201   5.523   4.029
13936TIP3   OH241750   3.161   5.970   4.329
13936TIP3    H141751   3.156   6.062   4.353
13936TIP3    H241752   3.070   5.944   4.313
13937TIP3   OH241753   4.950   5.277   5.983
13937TIP3    H141754   4.884   5.327   5.936
13937TIP3    H241755   4.982   5.213   5.919
13938TIP3   OH241756   2.435   2.151   1.009
13938TIP3    H141757   2.363   2.088   1.011
13938TIP3    H241758   2.451   2.166   0.915
13939TIP3   OH241759   8.136   3.798   0.465
13939TIP3    H141760   8.168   3.845   0.542
13939TIP3    H241761   8.160   3.707   0.481
13940TIP3   OH241762   1.993   5.961   3.260
13940TIP3    H141763   2.053   5.964   3.185
13940TIP3    H241764   2.004   6.046   3.303
13941TIP3   OH241765   3.028   0.737   2.547
13941TIP3    H141766   3.081   0.683   2.606
13941TIP3    H241767   3.009   0.680   2.472
13942TIP3   OH241768   5.266   4.230   4.326
13942TIP3    H141769   5.208   4.299   4.357
13942TIP3    H241770   5.293   4.258   4.239
13943TIP3   OH241771   4.832   5.098   2.087
13943TIP3    H141772   4.867   5.184   2.062
13943TIP3    H241773   4.769   5.117   2.156
13944TIP3   OH241774   1.247   4.984   1.206
13944TIP3    H141775   1.226   5.056   1.146
13944TIP3    H241776   1.325   5.014   1.252
13945TIP3   OH241777   3.154   2.887   0.273
13945TIP3    H141778   3.161   2.879   0.368
13945TIP3    H241779   3.092   2.820   0.247
13946TIP3   OH241780   0.296   6.191   4.356
13946TIP3    H141781   0.384   6.177   4.322
13946TIP3    H241782   0.288   6.131   4.430
13947TIP3   OH241783   2.377   6.260   1.473
13947TIP3    H141784   2.306   6.241   1.411
13947TIP3    H241785   2.332   6.296   1.549
13948TIP3   OH241786   6.812   7.178   0.884
13948TIP3    H141787   6.806   7.148   0.975
13948TIP3    H241788   6.733   7.143   0.842
13949TIP3   OH241789   5.931   3.984   6.272
13949TIP3    H141790   6.006   4.004   6.328
13949TIP3    H241791   5.883   4.067   6.265
13950TIP3   OH241792   1.811   4.536   2.787
13950TIP3    H141793   1.770   4.620   2.810
13950TIP3    H241794   1.902   4.546   2.813
13951TIP3   OH241795   8.092   4.573   3.871
13951TIP3    H141796   8.070   4.492   3.918
13951TIP3    H241797   8.008   4.620   3.866
13952TIP3   OH241798   1.653   2.798   0.400
13952TIP3    H141799   1.636   2.738   0.472
13952TIP3    H241800   1.593   2.872   0.416
13953TIP3   OH241801   3.940   3.165   5.718
13953TIP3    H141802   3.855   3.175   5.762
13953TIP3    H241803   3.933   3.080   5.673
13954TIP3   OH241804   5.002   6.418   5.870
13954TIP3    H141805   4.971   6.506   5.852
13954TIP3    H241806   5.045   6.391   5.788
13955TIP3   OH241807   3.529   2.866   4.758
13955TIP3    H141808   3.439   2.834   4.773
13955TIP3    H241809   3.584   2.790   4.778
13956TIP3   OH241810   6.927   6.274   1.265
13956TIP3    H141811   6.945   6.367   1.267
13956TIP3    H241812   6.926   6.247   1.357
13957TIP3   OH241813   6.867   5.850   5.935
13957TIP3    H141814   6.848   5.799   6.014
13957TIP3    H241815   6.785   5.851   5.887
13958TIP3   OH241816   8.015   2.708   3.815
13958TIP3    H141817   8.099   2.699   3.771
13958TIP3    H241818   7.976   2.786   3.776
13959TIP3   OH241819   5.410   4.818   1.629
13959TIP3    H141820   5.392   4.845   1.539
13959TIP3    H241821   5.455   4.734   1.620
13960TIP3   OH241822   1.521   5.555   5.239
13960TIP3    H141823   1.446   5.614   5.230
13960TIP3    H241824   1.582   5.584   5.172
13961TIP3   OH241825   0.104   6.935   0.229
13961TIP3    H141826   0.013   6.917   0.208
13961TIP3    H241827   0.105   7.028   0.255
13962TIP3   OH241828   2.258   6.905   1.099
13962TIP3    H141829   2.333   6.846   1.095
13962TIP3    H241830   2.289   6.987   1.062
13963TIP3   OH241831   7.489   5.485   5.954
13963TIP3    H141832   7.510   5.441   5.872
13963TIP3    H241833   7.573   5.494   5.998
13964TIP3   OH241834   6.405   1.032   4.704
13964TIP3    H141835   6.476   1.080   4.746
13964TIP3    H241836   6.432   0.941   4.709
13965TIP3   OH241837   8.175   4.875   5.061
13965TIP3    H141838   8.110   4.854   4.993
13965TIP3    H241839   8.241   4.927   5.015
13966TIP3   OH241840   4.228   4.118   6.702
13966TIP3    H141841   4.298   4.078   6.649
13966TIP3    H241842   4.178   4.044   6.735
13967TIP3   OH241843   2.608   0.258   3.851
13967TIP3    H141844   2.646   0.178   3.814
13967TIP3    H241845   2.566   0.230   3.932
13968TIP3   OH241846   2.751   5.016   3.839
13968TIP3    H141847   2.789   4.940   3.796
13968TIP3    H241848   2.672   5.035   3.790
13969TIP3   OH241849   1.433   6.715   2.847
13969TIP3    H141850   1.486   6.752   2.776
13969TIP3    H241851   1.491   6.653   2.891
13970TIP3   OH241852   5.435   7.645   3.427
13970TIP3    H141853   5.390   7.659   3.343
13970TIP3    H241854   5.364   7.643   3.492
13971TIP3   OH241855   8.223   0.758   3.446
13971TIP3    H141856   8.156   0.758   3.377
13971TIP3    H241857   8.178   0.723   3.523
13972TIP3   OH241858   2.114   4.436   2.422
13972TIP3    H141859   2.041   4.387   2.460
13972TIP3    H241860   2.177   4.443   2.494
13973TIP3   OH241861   1.805   4.667  -0.018
13973TIP3    H141862   1.875   4.608   0.013
13973TIP3    H241863   1.738   4.662   0.051
13974TIP3   OH241864   7.913   4.926   2.003
13974TIP3    H141865   8.000   4.950   2.036
13974TIP3    H241866   7.892   4.844   2.048
13975TIP3   OH241867   4.210   3.125   5.740
13975TIP3    H141868   4.118   3.102   5.725
13975TIP3    H241869   4.235   3.074   5.816
13976TIP3   OH241870   4.960   7.124   4.338
13976TIP3    H141871   4.991   7.208   4.306
13976TIP3    H241872   4.881   7.145   4.388
13977TIP3   OH241873   6.559   1.559   0.139
13977TIP3    H141874   6.629   1.566   0.074
13977TIP3    H241875   6.481   1.537   0.087
13978TIP3   OH241876   6.663   2.972   0.712
13978TIP3    H141877   6.651   2.906   0.644
13978TIP3    H241878   6.753   3.002   0.701
13979TIP3   OH241879   6.203   2.530   2.447
13979TIP3    H141880   6.138   2.589   2.486
13979TIP3    H241881   6.172   2.442   2.469
13980TIP3   OH241882   3.423   5.690   3.371
13980TIP3    H141883   3.382   5.727   3.449
13980TIP3    H241884   3.479   5.620   3.403
13981TIP3   OH241885   2.888   5.688   5.245
13981TIP3    H141886   2.977   5.705   5.276
13981TIP3    H241887   2.833   5.697   5.323
13982TIP3   OH241888   7.931   2.851   2.796
13982TIP3    H141889   7.994   2.822   2.862
13982TIP3    H241890   7.960   2.811   2.715
13983TIP3   OH241891   4.990   5.163   0.148
13983TIP3    H141892   5.029   5.132   0.067
13983TIP3    H241893   5.033   5.247   0.165
13984TIP3   OH241894   0.876   6.190   1.509
13984TIP3    H141895   0.811   6.259   1.523
13984TIP3    H241896   0.834   6.111   1.544
13985TIP3   OH241897   0.165   3.231   4.693
13985TIP3    H141898   0.183   3.165   4.626
13985TIP3    H241899   0.074   3.256   4.677
13986TIP3   OH241900   0.030   1.983   4.389
13986TIP3    H141901  -0.030   2.048   4.352
13986TIP3    H241902   0.022   1.996   4.483
13987TIP3   OH241903   2.330   4.498   5.983
13987TIP3    H141904   2.337   4.404   5.973
13987TIP3    H241905   2.371   4.534   5.904
13988TIP3   OH241906   0.529   4.421   5.751
13988TIP3    H141907   0.525   4.509   5.714
13988TIP3    H241908   0.622   4.405   5.764
13989TIP3   OH241909   5.420   0.308   5.544
13989TIP3    H141910   5.332   0.312   5.583
13989TIP3    H241911   5.426   0.219   5.509
13990TIP3   OH241912   8.180   5.046   1.542
13990TIP3    H141913   8.089   5.050   1.513
13990TIP3    H241914   8.228   5.097   1.476
13991TIP3   OH241915   3.753   7.294   6.001
13991TIP3    H141916   3.725   7.334   6.083
13991TIP3    H241917   3.701   7.213   5.996
13992TIP3   OH241918   5.424   3.189   1.046
13992TIP3    H141919   5.333   3.166   1.061
13992TIP3    H241920   5.421   3.274   1.001
13993TIP3   OH241921   1.028   7.690   6.404
13993TIP3    H141922   1.039   7.602   6.370
13993TIP3    H241923   1.059   7.684   6.495
13994TIP3   OH241924   0.152   2.899   5.334
13994TIP3    H141925   0.238   2.936   5.352
13994TIP3    H241926   0.123   2.944   5.254
13995TIP3   OH241927   7.987   4.934   6.117
13995TIP3    H141928   8.008   4.841   6.111
13995TIP3    H241929   7.981   4.964   6.026
13996TIP3   OH241930   6.228   1.527   1.149
13996TIP3    H141931   6.211   1.526   1.243
13996TIP3    H241932   6.192   1.445   1.116
13997TIP3   OH241933   4.003   2.123   2.562
13997TIP3    H141934   4.007   2.214   2.533
13997TIP3    H241935   4.094   2.095   2.568
13998TIP3   OH241936   6.795   6.298   6.783
13998TIP3    H141937   6.803   6.355   6.706
13998TIP3    H241938   6.737   6.345   6.842
13999TIP3   OH241939   6.393   7.133   4.961
13999TIP3    H141940   6.480   7.157   4.994
13999TIP3    H241941   6.347   7.099   5.038
14000TIP3   OH241942   2.522   1.696   0.945
14000TIP3    H141943   2.433   1.726   0.959
14000TIP3    H241944   2.573   1.738   1.013
14001TIP3   OH241945   1.393   6.790   4.308
14001TIP3    H141946   1.324   6.750   4.256
14001TIP3    H241947   1.471   6.738   4.288
14002TIP3   OH241948   1.256   2.676   1.018
14002TIP3    H141949   1.253   2.766   0.984
14002TIP3    H241950   1.264   2.622   0.940
14003TIP3   OH241951   3.962   5.495   1.473
14003TIP3    H141952   4.016   5.523   1.546
14003TIP3    H241953   3.938   5.576   1.428
14004TIP3   OH241954   5.437   6.892   3.809
14004TIP3    H141955   5.486   6.954   3.862
14004TIP3    H241956   5.436   6.931   3.721
14005TIP3   OH241957   5.054   0.495   4.495
14005TIP3    H141958   5.095   0.581   4.505
14005TIP3    H241959   5.110   0.449   4.433
14006TIP3   OH241960   1.721   2.893   2.585
14006TIP3    H141961   1.723   2.950   2.508
14006TIP3    H241962   1.655   2.932   2.642
14007TIP3   OH241963   4.135   5.687   3.365
14007TIP3    H141964   4.126   5.691   3.270
14007TIP3    H241965   4.160   5.597   3.384
14008TIP3   OH241966   1.064   5.798   4.254
14008TIP3    H141967   1.085   5.727   4.315
14008TIP3    H241968   1.139   5.856   4.258
14009TIP3   OH241969   6.504   3.815   4.354
14009TIP3    H141970   6.425   3.856   4.318
14009TIP3    H241971   6.577   3.863   4.313
14010TIP3   OH241972   4.795   6.680   2.823
14010TIP3    H141973   4.838   6.766   2.824
14010TIP3    H241974   4.832   6.634   2.898
14011TIP3   OH241975   8.301   7.396   0.097
14011TIP3    H141976   8.325   7.432   0.182
14011TIP3    H241977   8.206   7.402   0.094
14012TIP3   OH241978   0.873   1.852   1.989
14012TIP3    H141979   0.825   1.870   2.070
14012TIP3    H241980   0.811   1.873   1.919
14013TIP3   OH241981   2.143   2.230   0.872
14013TIP3    H141982   2.062   2.234   0.820
14013TIP3    H241983   2.154   2.137   0.890
14014TIP3   OH241984   5.816   0.484   4.811
14014TIP3    H141985   5.773   0.426   4.873
14014TIP3    H241986   5.909   0.470   4.826
14015TIP3   OH241987   1.797   1.331   3.440
14015TIP3    H141988   1.818   1.372   3.523
14015TIP3    H241989   1.852   1.253   3.437
14016TIP3   OH241990   6.816   6.864   3.746
14016TIP3    H141991   6.799   6.947   3.702
14016TIP3    H241992   6.872   6.886   3.820
14017TIP3   OH241993   4.345   3.677   6.688
14017TIP3    H141994   4.296   3.600   6.657
14017TIP3    H241995   4.364   3.658   6.780
14018TIP3   OH241996   0.208   6.767   2.872
14018TIP3    H141997   0.156   6.725   2.941
14018TIP3    H241998   0.287   6.796   2.916
14019TIP3   OH241999   8.008   0.138   0.999
14019TIP3    H142000   7.977   0.198   0.931
14019TIP3    H242001   7.945   0.066   0.997
14020TIP3   OH242002   5.536   6.630   5.728
14020TIP3    H142003   5.451   6.617   5.684
14020TIP3    H242004   5.513   6.650   5.818
14021TIP3   OH242005   2.375   5.125   0.715
14021TIP3    H142006   2.406   5.213   0.739
14021TIP3    H242007   2.303   5.141   0.654
14022TIP3   OH242008   4.542   4.982   0.139
14022TIP3    H142009   4.578   4.903   0.179
14022TIP3    H242010   4.573   5.053   0.195
14023TIP3   OH242011   4.638   5.907   4.325
14023TIP3    H142012   4.641   5.913   4.229
14023TIP3    H242013   4.729   5.893   4.350
14024TIP3   OH242014   4.499   3.266   1.383
14024TIP3    H142015   4.544   3.204   1.325
14024TIP3    H242016   4.407   3.260   1.357
14025TIP3   OH242017   8.150   6.793   5.892
14025TIP3    H142018   8.159   6.849   5.815
14025TIP3    H242019   8.124   6.852   5.962
14026TIP3   OH242020   7.694   2.386   5.483
14026TIP3    H142021   7.764   2.324   5.466
14026TIP3    H242022   7.622   2.360   5.425
14027TIP3   OH242023   2.250   7.557   0.523
14027TIP3    H142024   2.272   7.516   0.607
14027TIP3    H242025   2.301   7.639   0.523
14028TIP3   OH242026   5.636   4.712   6.696
14028TIP3    H142027   5.688   4.640   6.660
14028TIP3    H242028   5.588   4.673   6.769
14029TIP3   OH242029   0.947   4.835   2.604
14029TIP3    H142030   0.903   4.891   2.668
14029TIP3    H242031   1.035   4.822   2.640
14030TIP3   OH242032   7.429   2.082   1.560
14030TIP3    H142033   7.507   2.036   1.593
14030TIP3    H242034   7.397   2.131   1.635
14031TIP3   OH242035   1.385   0.169   4.548
14031TIP3    H142036   1.428   0.230   4.488
14031TIP3    H242037   1.302   0.147   4.506
14032TIP3   OH242038   6.890   5.122   5.348
14032TIP3    H142039   6.887   5.203   5.296
14032TIP3    H242040   6.931   5.058   5.289
14033TIP3   OH242041   6.462   0.973   1.252
14033TIP3    H142042   6.533   0.909   1.262
14033TIP3    H242043   6.413   0.942   1.176
14034TIP3   OH242044   8.093   4.867   5.324
14034TIP3    H142045   8.142   4.945   5.350
14034TIP3    H242046   8.112   4.856   5.231
14035TIP3   OH242047   5.495   6.445   5.263
14035TIP3    H142048   5.547   6.376   5.221
14035TIP3    H242049   5.560   6.501   5.306
14036TIP3   OH242050   0.763   0.139   1.319
14036TIP3    H142051   0.771   0.044   1.327
14036TIP3    H242052   0.747   0.169   1.408
14037TIP3   OH242053   4.893   4.475   2.099
14037TIP3    H142054   4.817   4.447   2.048
14037TIP3    H242055   4.885   4.571   2.103
14038TIP3   OH242056   1.399   4.837   5.980
14038TIP3    H142057   1.348   4.849   5.900
14038TIP3    H242058   1.489   4.829   5.950
14039TIP3   OH242059   2.853   6.111   0.063
14039TIP3    H142060   2.866   6.057   0.141
14039TIP3    H242061   2.902   6.067  -0.006
14040TIP3   OH242062   4.980   7.247   5.682
14040TIP3    H142063   4.923   7.317   5.650
14040TIP3    H242064   5.065   7.288   5.696
14041TIP3   OH242065   7.445   1.468   5.979
14041TIP3    H142066   7.484   1.391   5.939
14041TIP3    H242067   7.477   1.468   6.069
14042TIP3   OH242068   2.806   1.984   0.191
14042TIP3    H142069   2.740   1.943   0.135
14042TIP3    H242070   2.772   2.072   0.207
14043TIP3   OH242071   4.955   3.777   2.198
14043TIP3    H142072   4.964   3.769   2.104
14043TIP3    H242073   4.957   3.871   2.215
14044TIP3   OH242074   0.934   3.685   1.359
14044TIP3    H142075   1.007   3.741   1.385
14044TIP3    H242076   0.870   3.693   1.429
14045TIP3   OH242077   1.649   3.466   5.610
14045TIP3    H142078   1.565   3.467   5.655
14045TIP3    H242079   1.713   3.484   5.678
14046TIP3   OH242080   7.028   3.431   4.834
14046TIP3    H142081   6.984   3.514   4.853
14046TIP3    H242082   6.957   3.367   4.830
14047TIP3   OH242083   1.911   7.136   2.006
14047TIP3    H142084   1.856   7.186   2.067
14047TIP3    H242085   2.000   7.148   2.038
14048TIP3   OH242086   6.231   5.884   1.610
14048TIP3    H142087   6.220   5.977   1.588
14048TIP3    H242088   6.318   5.878   1.649
14049TIP3   OH242089   8.213   5.569   5.301
14049TIP3    H142090   8.177   5.604   5.382
14049TIP3    H242091   8.269   5.639   5.267
14050TIP3   OH242092   6.709   0.042   6.660
14050TIP3    H142093   6.708  -0.051   6.636
14050TIP3    H242094   6.675   0.087   6.583
14051TIP3   OH242095   4.440   1.361   6.063
14051TIP3    H142096   4.527   1.366   6.023
14051TIP3    H242097   4.453   1.390   6.153
14052TIP3   OH242098   5.803   5.205   3.818
14052TIP3    H142099   5.839   5.176   3.734
14052TIP3    H242100   5.726   5.150   3.832
14053TIP3   OH242101   5.089   6.674   6.719
14053TIP3    H142102   5.002   6.634   6.731
14053TIP3    H242103   5.090   6.701   6.627
14054TIP3   OH242104   0.707   2.509   2.630
14054TIP3    H142105   0.738   2.496   2.541
14054TIP3    H242106   0.628   2.564   2.620
14055TIP3   OH242107   6.130   3.869   3.477
14055TIP3    H142108   6.063   3.811   3.514
14055TIP3    H242109   6.127   3.947   3.533
14056TIP3   OH242110   4.679   3.682   6.372
14056TIP3    H142111   4.675   3.760   6.316
14056TIP3    H242112   4.761   3.639   6.347
14057TIP3   OH242113   4.410   5.095   2.874
14057TIP3    H142114   4.416   5.147   2.793
14057TIP3    H242115   4.379   5.009   2.845
14058TIP3   OH242116   2.334   3.149   4.393
14058TIP3    H142117   2.402   3.126   4.456
14058TIP3    H242118   2.376   3.144   4.308
14059TIP3   OH242119   3.547   0.009   5.341
14059TIP3    H142120   3.471  -0.019   5.392
14059TIP3    H242121   3.514   0.021   5.252
14060TIP3   OH242122   3.747   1.705   6.012
14060TIP3    H142123   3.806   1.775   6.039
14060TIP3    H242124   3.684   1.748   5.954
14061TIP3   OH242125   6.536   0.250   1.443
14061TIP3    H142126   6.495   0.292   1.518
14061TIP3    H242127   6.627   0.235   1.471
14062TIP3   OH242128   4.898   4.576   0.105
14062TIP3    H142129   4.950   4.497   0.121
14062TIP3    H242130   4.961   4.648   0.111
14063TIP3   OH242131   5.129   2.760   5.458
14063TIP3    H142132   5.189   2.751   5.532
14063TIP3    H242133   5.043   2.737   5.494
14064TIP3   OH242134   5.270   3.947   0.885
14064TIP3    H142135   5.313   3.874   0.841
14064TIP3    H242136   5.177   3.928   0.877
14065TIP3   OH242137   4.649   2.375   3.867
14065TIP3    H142138   4.673   2.467   3.878
14065TIP3    H242139   4.554   2.373   3.882
14066TIP3   OH242140   3.185   0.634   5.223
14066TIP3    H142141   3.187   0.538   5.232
14066TIP3    H242142   3.102   0.660   5.262
14067TIP3   OH242143   0.112   0.343   4.503
14067TIP3    H142144   0.127   0.329   4.409
14067TIP3    H242145   0.159   0.424   4.523
14068TIP3   OH242146   2.235   7.859   3.468
14068TIP3    H142147   2.163   7.800   3.492
14068TIP3    H242148   2.311   7.801   3.461
14069TIP3   OH242149   1.994   3.270   2.949
14069TIP3    H142150   1.931   3.211   2.989
14069TIP3    H242151   2.016   3.229   2.866
14070TIP3   OH242152   2.611   2.435   5.973
14070TIP3    H142153   2.531   2.384   5.979
14070TIP3    H242154   2.673   2.378   5.927
14071TIP3   OH242155   6.118   1.760   5.331
14071TIP3    H142156   6.187   1.784   5.269
14071TIP3    H242157   6.037   1.786   5.288
14072TIP3   OH242158   5.122   5.509   3.553
14072TIP3    H142159   5.124   5.461   3.636
14072TIP3    H242160   5.136   5.600   3.578
14073TIP3   OH242161   1.751   3.020   1.141
14073TIP3    H142162   1.788   2.980   1.221
14073TIP3    H242163   1.660   2.993   1.141
14074TIP3   OH242164   4.376   6.457   2.587
14074TIP3    H142165   4.430   6.402   2.644
14074TIP3    H242166   4.289   6.454   2.626
14075TIP3   OH242167   4.794   7.206   5.913
14075TIP3    H142168   4.724   7.142   5.897
14075TIP3    H242169   4.851   7.200   5.837
14076TIP3   OH242170   4.429   4.725   0.958
14076TIP3    H142171   4.396   4.808   0.992
14076TIP3    H242172   4.373   4.707   0.882
14077TIP3   OH242173   7.821   0.909   4.429
14077TIP3    H142174   7.815   0.921   4.334
14077TIP3    H242175   7.751   0.847   4.449
14078TIP3   OH242176   3.427   2.060   1.149
14078TIP3    H142177   3.507   2.103   1.121
14078TIP3    H242178   3.357   2.121   1.126
14079TIP3   OH242179   6.101   0.001   5.229
14079TIP3    H142180   6.111   0.012   5.134
14079TIP3    H242181   6.108   0.089   5.265
14080TIP3   OH242182   3.409   3.617   1.274
14080TIP3    H142183   3.376   3.527   1.276
14080TIP3    H242184   3.419   3.637   1.181
14081TIP3   OH242185   5.163   1.330   6.165
14081TIP3    H142186   5.183   1.389   6.092
14081TIP3    H242187   5.196   1.245   6.136
14082TIP3   OH242188   4.652   2.074   4.234
14082TIP3    H142189   4.719   2.139   4.213
14082TIP3    H242190   4.597   2.116   4.300
14083TIP3   OH242191   3.983   2.889   6.331
14083TIP3    H142192   3.962   2.805   6.370
14083TIP3    H242193   3.915   2.948   6.362
14084TIP3   OH242194   3.168   5.755   6.182
14084TIP3    H142195   3.224   5.704   6.239
14084TIP3    H242196   3.144   5.832   6.234
14085TIP3   OH242197   8.225   2.839   0.580
14085TIP3    H142198   8.281   2.846   0.503
14085TIP3    H242199   8.143   2.802   0.548
14086TIP3   OH242200   4.372   0.460   2.375
14086TIP3    H142201   4.283   0.435   2.397
14086TIP3    H242202   4.379   0.552   2.403
14087TIP3   OH242203   4.273   1.129   4.447
14087TIP3    H142204   4.252   1.176   4.528
14087TIP3    H242205   4.338   1.183   4.403
14088TIP3   OH242206   0.480   6.758   5.051
14088TIP3    H142207   0.477   6.701   4.974
14088TIP3    H242208   0.499   6.699   5.124
14089TIP3   OH242209   7.254   6.407   5.804
14089TIP3    H142210   7.165   6.384   5.776
14089TIP3    H242211   7.254   6.503   5.807
14090TIP3   OH242212   2.077   3.540   4.278
14090TIP3    H142213   2.023   3.618   4.268
14090TIP3    H242214   2.048   3.482   4.208
14091TIP3   OH242215   1.448   0.450   0.955
14091TIP3    H142216   1.365   0.439   0.910
14091TIP3    H242217   1.514   0.439   0.887
14092TIP3   OH242218   6.352   2.490   0.779
14092TIP3    H142219   6.427   2.451   0.733
14092TIP3    H242220   6.278   2.436   0.753
14093TIP3   OH242221   3.457   4.469   6.165
14093TIP3    H142222   3.489   4.407   6.231
14093TIP3    H242223   3.429   4.545   6.215
14094TIP3   OH242224   2.756   7.190   0.044
14094TIP3    H142225   2.702   7.123   0.085
14094TIP3    H242226   2.835   7.144   0.017
14095TIP3   OH242227   0.638   2.194   2.688
14095TIP3    H142228   0.686   2.277   2.689
14095TIP3    H242229   0.706   2.127   2.690
14096TIP3   OH242230   4.482   1.211   0.658
14096TIP3    H142231   4.472   1.306   0.647
14096TIP3    H242232   4.559   1.189   0.606
14097TIP3   OH242233   5.265   6.853   1.978
14097TIP3    H142234   5.240   6.943   1.957
14097TIP3    H242235   5.307   6.859   2.064
14098TIP3   OH242236   1.408   2.054   2.792
14098TIP3    H142237   1.376   1.964   2.783
14098TIP3    H242238   1.380   2.080   2.879
14099TIP3   OH242239   2.024   1.856   0.291
14099TIP3    H142240   1.945   1.806   0.311
14099TIP3    H242241   2.029   1.922   0.359
14100TIP3   OH242242   7.843   1.807   3.576
14100TIP3    H142243   7.846   1.875   3.644
14100TIP3    H242244   7.912   1.833   3.514
14101TIP3   OH242245   7.680   1.977   0.767
14101TIP3    H142246   7.673   1.935   0.853
14101TIP3    H242247   7.732   1.915   0.716
14102TIP3   OH242248   0.338   7.476   0.524
14102TIP3    H142249   0.354   7.439   0.611
14102TIP3    H242250   0.254   7.437   0.497
14103TIP3   OH242251   4.807   5.243   4.714
14103TIP3    H142252   4.827   5.240   4.807
14103TIP3    H242253   4.712   5.251   4.710
14104TIP3   OH242254   2.345   4.363   5.054
14104TIP3    H142255   2.338   4.355   5.149
14104TIP3    H242256   2.270   4.315   5.020
14105TIP3   OH242257   0.909   5.549   0.251
14105TIP3    H142258   0.989   5.551   0.303
14105TIP3    H242259   0.871   5.636   0.264
14106TIP3   OH242260   4.298   3.767   2.946
14106TIP3    H142261   4.310   3.858   2.918
14106TIP3    H242262   4.232   3.772   3.015
14107TIP3   OH242263   2.873   1.096   3.692
14107TIP3    H142264   2.946   1.155   3.675
14107TIP3    H242265   2.899   1.013   3.651
14108TIP3   OH242266   7.414   7.715   1.504
14108TIP3    H142267   7.475   7.666   1.559
14108TIP3    H242268   7.352   7.753   1.566
14109TIP3   OH242269   1.135   7.588   4.852
14109TIP3    H142270   1.052   7.548   4.829
14109TIP3    H242271   1.134   7.673   4.807
14110TIP3   OH242272   6.002   2.704   5.273
14110TIP3    H142273   6.000   2.623   5.324
14110TIP3    H242274   6.095   2.723   5.260
14111TIP3   OH242275   1.117   6.374   6.778
14111TIP3    H142276   1.070   6.397   6.699
14111TIP3    H242277   1.062   6.308   6.821
14112TIP3   OH242278   4.260   1.379   6.354
14112TIP3    H142279   4.222   1.291   6.353
14112TIP3    H242280   4.352   1.365   6.377
14113TIP3   OH242281   5.385   5.414   0.086
14113TIP3    H142282   5.405   5.364   0.006
14113TIP3    H242283   5.460   5.473   0.096
14114TIP3   OH242284   1.780   5.572   0.906
14114TIP3    H142285   1.729   5.630   0.962
14114TIP3    H242286   1.748   5.484   0.928
14115TIP3   OH242287   6.244   2.503   1.318
14115TIP3    H142288   6.276   2.590   1.294
14115TIP3    H242289   6.297   2.478   1.394
14116TIP3   OH242290   3.731   5.753   1.040
14116TIP3    H142291   3.796   5.720   1.102
14116TIP3    H242292   3.739   5.694   0.964
14117TIP3   OH242293   6.882   0.999   3.593
14117TIP3    H142294   6.929   1.044   3.523
14117TIP3    H242295   6.828   1.066   3.634
14118TIP3   OH242296   4.924   6.611   6.345
14118TIP3    H142297   4.914   6.525   6.305
14118TIP3    H242298   5.018   6.628   6.342
14119TIP3   OH242299   6.217   7.608   0.124
14119TIP3    H142300   6.139   7.569   0.164
14119TIP3    H242301   6.236   7.685   0.177
14120TIP3   OH242302   1.472   4.632   2.204
14120TIP3    H142303   1.383   4.665   2.199
14120TIP3    H242304   1.521   4.684   2.141
14121TIP3   OH242305   2.482   0.041   0.946
14121TIP3    H142306   2.446   0.086   1.023
14121TIP3    H242307   2.503  -0.047   0.977
14122TIP3   OH242308   7.746   5.756   3.347
14122TIP3    H142309   7.779   5.693   3.282
14122TIP3    H242310   7.651   5.755   3.335
14123TIP3   OH242311   0.434   3.600   4.246
14123TIP3    H142312   0.378   3.578   4.172
14123TIP3    H242313   0.457   3.692   4.233
14124TIP3   OH242314   1.201   3.718   1.964
14124TIP3    H142315   1.181   3.760   1.880
14124TIP3    H242316   1.172   3.628   1.954
14125TIP3   OH242317   3.729   1.609   4.341
14125TIP3    H142318   3.638   1.582   4.355
14125TIP3    H242319   3.779   1.553   4.401
14126TIP3   OH242320   3.826   2.093   6.723
14126TIP3    H142321   3.917   2.108   6.696
14126TIP3    H242322   3.807   2.003   6.696
14127TIP3   OH242323   5.821   7.078   0.250
14127TIP3    H142324   5.857   7.039   0.330
14127TIP3    H242325   5.727   7.070   0.260
14128TIP3   OH242326   4.129   7.561   6.442
14128TIP3    H142327   4.116   7.536   6.351
14128TIP3    H242328   4.204   7.509   6.471
14129TIP3   OH242329   1.919   2.850   1.294
14129TIP3    H142330   1.987   2.879   1.232
14129TIP3    H242331   1.966   2.798   1.359
14130TIP3   OH242332   0.896   6.207   3.608
14130TIP3    H142333   0.881   6.202   3.702
14130TIP3    H242334   0.887   6.300   3.587
14131TIP3   OH242335   0.904   0.770   5.978
14131TIP3    H142336   0.865   0.847   5.935
14131TIP3    H242337   0.914   0.797   6.069
14132TIP3   OH242338   3.398   7.004   0.400
14132TIP3    H142339   3.428   6.967   0.317
14132TIP3    H242340   3.427   7.095   0.398
14133TIP3   OH242341   8.122   3.388   3.634
14133TIP3    H142342   8.216   3.404   3.643
14133TIP3    H242343   8.082   3.445   3.699
14134TIP3   OH242344   5.322   6.011   2.628
14134TIP3    H142345   5.356   6.097   2.652
14134TIP3    H242346   5.345   5.954   2.701
14135TIP3   OH242347   5.761   2.849   3.644
14135TIP3    H142348   5.698   2.776   3.641
14135TIP3    H242349   5.738   2.904   3.569
14136TIP3   OH242350   5.170   7.267   4.539
14136TIP3    H142351   5.130   7.342   4.494
14136TIP3    H242352   5.239   7.306   4.593
14137TIP3   OH242353   8.214   1.918   1.890
14137TIP3    H142354   8.195   1.920   1.796
14137TIP3    H242355   8.164   1.843   1.923
14138TIP3   OH242356   5.381   5.269   1.019
14138TIP3    H142357   5.415   5.329   1.085
14138TIP3    H242358   5.290   5.294   1.008
14139TIP3   OH242359   2.951   1.588   1.636
14139TIP3    H142360   2.876   1.530   1.629
14139TIP3    H242361   2.952   1.614   1.728
14140TIP3   OH242362   8.310   7.468   6.126
14140TIP3    H142363   8.304   7.538   6.061
14140TIP3    H242364   8.288   7.388   6.077
14141TIP3   OH242365   7.218   5.148   5.196
14141TIP3    H142366   7.171   5.067   5.217
14141TIP3    H242367   7.258   5.132   5.110
14142TIP3   OH242368   0.558   5.189   1.710
14142TIP3    H142369   0.522   5.109   1.671
14142TIP3    H242370   0.596   5.161   1.793
14143TIP3   OH242371   3.176   5.767   0.482
14143TIP3    H142372   3.208   5.677   0.477
14143TIP3    H242373   3.254   5.821   0.472
14144TIP3   OH242374   0.544   6.456   0.139
14144TIP3    H142375   0.465   6.418   0.102
14144TIP3    H242376   0.611   6.388   0.128
14145TIP3   OH242377   4.458   2.928   5.851
14145TIP3    H142378   4.491   2.969   5.771
14145TIP3    H242379   4.498   2.841   5.852
14146TIP3   OH242380   7.358   7.328   5.428
14146TIP3    H142381   7.305   7.395   5.385
14146TIP3    H242382   7.392   7.275   5.356
14147TIP3   OH242383   6.585   7.496   3.677
14147TIP3    H142384   6.497   7.508   3.641
14147TIP3    H242385   6.611   7.408   3.648
14148TIP3   OH242386   2.230   0.373   5.042
14148TIP3    H142387   2.223   0.397   4.949
14148TIP3    H242388   2.229   0.277   5.042
14149TIP3   OH242389   4.526   5.698   6.402
14149TIP3    H142390   4.592   5.761   6.372
14149TIP3    H242391   4.575   5.634   6.452
14150TIP3   OH242392   7.345   4.526   4.904
14150TIP3    H142393   7.395   4.533   4.985
14150TIP3    H242394   7.260   4.492   4.932
14151TIP3   OH242395   5.471   7.164   0.068
14151TIP3    H142396   5.527   7.105   0.017
14151TIP3    H242397   5.449   7.115   0.147
14152TIP3   OH242398   5.062   4.464   6.187
14152TIP3    H142399   5.137   4.405   6.191
14152TIP3    H242400   4.988   4.406   6.168
14153TIP3   OH242401   3.869   5.516   4.597
14153TIP3    H142402   3.776   5.491   4.601
14153TIP3    H242403   3.879   5.583   4.664
14154TIP3   OH242404   7.759   1.811   2.829
14154TIP3    H142405   7.771   1.779   2.918
14154TIP3    H242406   7.741   1.904   2.839
14155TIP3   OH242407   3.544   4.136   4.255
14155TIP3    H142408   3.532   4.057   4.308
14155TIP3    H242409   3.456   4.169   4.240
14156TIP3   OH242410   7.845   0.657   0.973
14156TIP3    H142411   7.832   0.660   0.878
14156TIP3    H242412   7.939   0.671   0.984
14157TIP3   OH242413   4.065   3.622   6.558
14157TIP3    H142414   4.033   3.534   6.581
14157TIP3    H242415   4.014   3.681   6.615
14158TIP3   OH242416   1.203   3.162   2.855
14158TIP3    H142417   1.188   3.133   2.765
14158TIP3    H242418   1.234   3.083   2.900
14159TIP3   OH242419   7.392   6.363   1.662
14159TIP3    H142420   7.339   6.328   1.590
14159TIP3    H242421   7.369   6.456   1.665
14160TIP3   OH242422   0.552   2.668   2.988
14160TIP3    H142423   0.509   2.588   2.958
14160TIP3    H242424   0.628   2.678   2.931
14161TIP3   OH242425   3.559   5.703   4.476
14161TIP3    H142426   3.607   5.676   4.397
14161TIP3    H242427   3.628   5.725   4.539
14162TIP3   OH242428   6.717   0.416   3.060
14162TIP3    H142429   6.739   0.402   3.152
14162TIP3    H242430   6.622   0.402   3.056
14163TIP3   OH242431   2.408   5.341   2.700
14163TIP3    H142432   2.399   5.371   2.791
14163TIP3    H242433   2.486   5.286   2.701
14164TIP3   OH242434   8.023   4.937   3.261
14164TIP3    H142435   7.930   4.930   3.239
14164TIP3    H242436   8.043   4.855   3.307
14165TIP3   OH242437   2.549   4.150   5.247
14165TIP3    H142438   2.569   4.244   5.248
14165TIP3    H242439   2.551   4.126   5.155
14166TIP3   OH242440   1.067   1.114   0.903
14166TIP3    H142441   1.037   1.204   0.892
14166TIP3    H242442   1.052   1.095   0.996
14167TIP3   OH242443   0.189   5.347   2.631
14167TIP3    H142444   0.136   5.344   2.710
14167TIP3    H242445   0.149   5.282   2.573
14168TIP3   OH242446   4.355   1.295   1.362
14168TIP3    H142447   4.289   1.236   1.401
14168TIP3    H242448   4.323   1.311   1.274
14169TIP3   OH242449   1.032   6.723   0.839
14169TIP3    H142450   0.974   6.649   0.859
14169TIP3    H242451   1.119   6.684   0.832
14170TIP3   OH242452   4.441   1.708   5.031
14170TIP3    H142453   4.514   1.666   4.986
14170TIP3    H242454   4.480   1.744   5.111
14171TIP3   OH242455   1.851   3.041   2.366
14171TIP3    H142456   1.874   3.112   2.427
14171TIP3    H242457   1.886   3.070   2.282
14172TIP3   OH242458   1.516   3.598   2.320
14172TIP3    H142459   1.451   3.532   2.346
14172TIP3    H242460   1.499   3.613   2.227
14173TIP3   OH242461   3.103   7.250   4.322
14173TIP3    H142462   3.141   7.310   4.387
14173TIP3    H242463   3.177   7.195   4.294
14174TIP3   OH242464   2.423   4.598   5.480
14174TIP3    H142465   2.503   4.584   5.531
14174TIP3    H242466   2.352   4.580   5.541
14175TIP3   OH242467   2.933   0.942   3.224
14175TIP3    H142468   3.009   0.922   3.169
14175TIP3    H242469   2.897   1.023   3.186
14176TIP3   OH242470   8.249   7.800   0.507
14176TIP3    H142471   8.279   7.884   0.471
14176TIP3    H242472   8.154   7.803   0.497
14177TIP3   OH242473   3.261   4.051   5.007
14177TIP3    H142474   3.212   3.975   4.976
14177TIP3    H242475   3.300   4.023   5.089
14178TIP3   OH242476   1.386   4.479   3.810
14178TIP3    H142477   1.402   4.529   3.730
14178TIP3    H242478   1.454   4.508   3.870
14179TIP3   OH242479   4.579   6.018   2.064
14179TIP3    H142480   4.570   5.925   2.081
14179TIP3    H242481   4.505   6.058   2.111
14180TIP3   OH242482   2.669   0.829   0.447
14180TIP3    H142483   2.597   0.766   0.455
14180TIP3    H242484   2.731   0.786   0.388
14181TIP3   OH242485   5.774   0.446   1.176
14181TIP3    H142486   5.821   0.522   1.209
14181TIP3    H242487   5.837   0.403   1.116
14182TIP3   OH242488   7.707   3.797   1.367
14182TIP3    H142489   7.624   3.844   1.373
14182TIP3    H242490   7.732   3.780   1.458
14183TIP3   OH242491   3.980   4.890   1.942
14183TIP3    H142492   4.067   4.923   1.962
14183TIP3    H242493   3.948   4.854   2.025
14184TIP3   OH242494   3.730   1.251   1.910
14184TIP3    H142495   3.693   1.293   1.987
14184TIP3    H242496   3.735   1.158   1.934
14185TIP3   OH242497   4.586   6.793   2.241
14185TIP3    H142498   4.502   6.764   2.205
14185TIP3    H242499   4.651   6.738   2.197
14186TIP3   OH242500   6.664   3.212   6.113
14186TIP3    H142501   6.640   3.251   6.197
14186TIP3    H242502   6.580   3.191   6.071
14187TIP3   OH242503   3.676   3.268   6.324
14187TIP3    H142504   3.678   3.360   6.353
14187TIP3    H242505   3.750   3.260   6.264
14188TIP3   OH242506   2.071   6.496   6.277
14188TIP3    H142507   2.032   6.502   6.190
14188TIP3    H242508   2.063   6.404   6.301
14189TIP3   OH242509   5.392   5.686   1.987
14189TIP3    H142510   5.357   5.773   1.970
14189TIP3    H242511   5.405   5.683   2.082
14190TIP3   OH242512   4.977   4.271   3.330
14190TIP3    H142513   4.937   4.336   3.271
14190TIP3    H242514   4.990   4.319   3.412
14191TIP3   OH242515   7.532   1.311   0.453
14191TIP3    H142516   7.603   1.258   0.488
14191TIP3    H242517   7.548   1.315   0.359
14192TIP3   OH242518   8.157   6.820   6.801
14192TIP3    H142519   8.121   6.909   6.790
14192TIP3    H242520   8.195   6.799   6.716
14193TIP3   OH242521   4.690   0.225   2.780
14193TIP3    H142522   4.707   0.234   2.686
14193TIP3    H242523   4.682   0.316   2.812
14194TIP3   OH242524   4.583   3.473   0.266
14194TIP3    H142525   4.654   3.517   0.314
14194TIP3    H242526   4.581   3.385   0.303
14195TIP3   OH242527   7.158   3.055   4.848
14195TIP3    H142528   7.112   2.981   4.887
14195TIP3    H242529   7.245   3.021   4.828
14196TIP3   OH242530   2.269   3.336   2.478
14196TIP3    H142531   2.338   3.345   2.412
14196TIP3    H242532   2.256   3.242   2.486
14197TIP3   OH242533   0.088   0.258   6.090
14197TIP3    H142534   0.009   0.219   6.053
14197TIP3    H242535   0.080   0.242   6.184
14198TIP3   OH242536   4.655   4.681   3.759
14198TIP3    H142537   4.671   4.627   3.836
14198TIP3    H242538   4.601   4.626   3.701
14199TIP3   OH242539   8.311   2.367   5.490
14199TIP3    H142540   8.324   2.462   5.485
14199TIP3    H242541   8.227   2.357   5.535
14200TIP3   OH242542   4.920   3.736   1.944
14200TIP3    H142543   4.889   3.805   1.884
14200TIP3    H242544   4.986   3.688   1.893
14201TIP3   OH242545   0.749   7.349   4.375
14201TIP3    H142546   0.769   7.308   4.290
14201TIP3    H242547   0.835   7.363   4.415
14202TIP3   OH242548   3.117   5.095   5.690
14202TIP3    H142549   3.023   5.078   5.696
14202TIP3    H242550   3.151   5.024   5.636
14203TIP3   OH242551   6.268   5.518   3.667
14203TIP3    H142552   6.232   5.604   3.643
14203TIP3    H242553   6.194   5.471   3.706
14204TIP3   OH242554   6.436   5.330   2.768
14204TIP3    H142555   6.360   5.284   2.803
14204TIP3    H242556   6.398   5.401   2.715
14205TIP3   OH242557   3.501   5.594   5.173
14205TIP3    H142558   3.502   5.504   5.207
14205TIP3    H242559   3.485   5.648   5.250
14206TIP3   OH242560   2.690   7.317   4.126
14206TIP3    H142561   2.720   7.272   4.205
14206TIP3    H242562   2.734   7.271   4.054
14207TIP3   OH242563   2.701   4.625  -0.007
14207TIP3    H142564   2.733   4.685   0.060
14207TIP3    H242565   2.727   4.538   0.024
14208TIP3   OH242566   2.945   4.030   2.509
14208TIP3    H142567   2.860   3.995   2.538
14208TIP3    H242568   2.949   4.009   2.416
14209TIP3   OH242569   7.035   0.283   0.718
14209TIP3    H142570   7.029   0.189   0.731
14209TIP3    H242571   7.129   0.302   0.715
14210TIP3   OH242572   0.422   1.229   4.674
14210TIP3    H142573   0.402   1.259   4.762
14210TIP3    H242574   0.340   1.192   4.642
14211TIP3   OH242575   1.804   2.328   4.778
14211TIP3    H142576   1.900   2.328   4.778
14211TIP3    H242577   1.780   2.390   4.709
14212TIP3   OH242578   2.769   1.873   4.426
14212TIP3    H142579   2.793   1.826   4.346
14212TIP3    H242580   2.702   1.818   4.467
14213TIP3   OH242581   1.093   2.388   1.086
14213TIP3    H142582   1.139   2.407   1.168
14213TIP3    H242583   1.029   2.458   1.078
14214TIP3   OH242584   0.851   0.381   1.193
14214TIP3    H142585   0.871   0.399   1.285
14214TIP3    H242586   0.801   0.300   1.194
14215TIP3   OH242587   7.394   6.640   4.133
14215TIP3    H142588   7.348   6.704   4.187
14215TIP3    H242589   7.454   6.692   4.079
14216TIP3   OH242590   3.708   5.456   4.276
14216TIP3    H142591   3.802   5.464   4.293
14216TIP3    H242592   3.684   5.370   4.310
14217TIP3   OH242593   5.527   7.476   6.291
14217TIP3    H142594   5.517   7.380   6.290
14217TIP3    H242595   5.486   7.503   6.373
14218TIP3   OH242596   1.573   7.573   1.319
14218TIP3    H142597   1.490   7.588   1.273
14218TIP3    H242598   1.606   7.660   1.339
14219TIP3   OH242599   4.477   4.323   5.529
14219TIP3    H142600   4.418   4.320   5.454
14219TIP3    H242601   4.445   4.396   5.582
14220TIP3   OH242602   2.550   5.580   4.043
14220TIP3    H142603   2.607   5.612   3.972
14220TIP3    H242604   2.595   5.606   4.123
14221TIP3   OH242605   7.846   2.241   3.823
14221TIP3    H142606   7.888   2.316   3.864
14221TIP3    H242607   7.756   2.270   3.807
14222TIP3   OH242608   7.302   0.550   4.625
14222TIP3    H142609   7.384   0.566   4.578
14222TIP3    H242610   7.234   0.558   4.558
14223TIP3   OH242611   5.755   2.821   0.716
14223TIP3    H142612   5.839   2.832   0.761
14223TIP3    H242613   5.767   2.742   0.663
14224TIP3   OH242614   3.091   1.360   3.713
14224TIP3    H142615   3.006   1.404   3.707
14224TIP3    H242616   3.127   1.390   3.797
14225TIP3   OH242617   2.231   4.734   6.682
14225TIP3    H142618   2.239   4.827   6.660
14225TIP3    H242619   2.321   4.706   6.698
14226TIP3   OH242620   7.007   2.207   5.942
14226TIP3    H142621   6.930   2.246   5.984
14226TIP3    H242622   7.061   2.282   5.918
14227TIP3   OH242623   0.651   2.911   4.754
14227TIP3    H142624   0.564   2.907   4.713
14227TIP3    H242625   0.655   2.832   4.808
14228TIP3   OH242626   6.901   4.852   5.953
14228TIP3    H142627   6.909   4.807   5.869
14228TIP3    H242628   6.879   4.783   6.015
14229TIP3   OH242629   2.652   4.953   2.428
14229TIP3    H142630   2.667   4.917   2.515
14229TIP3    H242631   2.558   4.969   2.424
14230TIP3   OH242632   1.877   1.851   2.095
14230TIP3    H142633   1.903   1.888   2.179
14230TIP3    H242634   1.949   1.872   2.036
14231TIP3   OH242635   1.556   7.038   5.829
14231TIP3    H142636   1.536   7.131   5.839
14231TIP3    H242637   1.511   7.012   5.749
14232TIP3   OH242638   5.040   0.986   3.239
14232TIP3    H142639   5.110   0.984   3.304
14232TIP3    H242640   5.062   1.060   3.183
14233TIP3   OH242641   4.969   0.215   4.049
14233TIP3    H142642   4.985   0.305   4.080
14233TIP3    H242643   5.053   0.186   4.014
14234TIP3   OH242644   6.416   2.757   1.596
14234TIP3    H142645   6.360   2.811   1.540
14234TIP3    H242646   6.495   2.743   1.544
14235TIP3   OH242647   5.047   4.535   4.872
14235TIP3    H142648   5.002   4.611   4.910
14235TIP3    H242649   5.061   4.476   4.945
14236TIP3   OH242650   6.696   2.058   6.115
14236TIP3    H142651   6.694   2.066   6.020
14236TIP3    H242652   6.610   2.091   6.144
14237TIP3   OH242653   4.835   2.491   5.927
14237TIP3    H142654   4.877   2.565   5.883
14237TIP3    H242655   4.799   2.438   5.855
14238TIP3   OH242656   3.472   0.454   6.680
14238TIP3    H142657   3.429   0.455   6.594
14238TIP3    H242658   3.401   0.470   6.742
14239TIP3   OH242659   7.328   4.002   4.556
14239TIP3    H142660   7.370   4.030   4.638
14239TIP3    H242661   7.366   3.915   4.539
14240TIP3   OH242662   1.764   2.632   0.179
14240TIP3    H142663   1.713   2.689   0.236
14240TIP3    H242664   1.838   2.686   0.151
14241TIP3   OH242665   0.912   0.440   3.584
14241TIP3    H142666   0.846   0.386   3.541
14241TIP3    H242667   0.924   0.399   3.670
14242TIP3   OH242668   0.100   1.682   6.139
14242TIP3    H142669   0.109   1.770   6.176
14242TIP3    H242670   0.178   1.670   6.085
14243TIP3   OH242671   2.770   4.882   3.579
14243TIP3    H142672   2.862   4.857   3.570
14243TIP3    H242673   2.728   4.847   3.501
14244TIP3   OH242674   6.270   1.367   4.148
14244TIP3    H142675   6.234   1.398   4.065
14244TIP3    H242676   6.199   1.316   4.188
14245TIP3   OH242677   7.062   0.838   6.329
14245TIP3    H142678   7.115   0.805   6.402
14245TIP3    H242679   7.092   0.788   6.253
14246TIP3   OH242680   2.114   6.207   0.193
14246TIP3    H142681   2.183   6.156   0.236
14246TIP3    H242682   2.033   6.177   0.235
14247TIP3   OH242683   4.167   3.160   3.282
14247TIP3    H142684   4.094   3.207   3.241
14247TIP3    H242685   4.237   3.226   3.288
14248TIP3   OH242686   5.611   6.269   3.854
14248TIP3    H142687   5.542   6.263   3.788
14248TIP3    H242688   5.634   6.178   3.873
14249TIP3   OH242689   3.077   2.761   5.609
14249TIP3    H142690   3.068   2.675   5.567
14249TIP3    H242691   3.170   2.781   5.603
14250TIP3   OH242692   3.155   3.549   5.753
14250TIP3    H142693   3.154   3.539   5.848
14250TIP3    H242694   3.162   3.644   5.739
14251TIP3   OH242695   7.822   2.935   3.236
14251TIP3    H142696   7.855   2.853   3.273
14251TIP3    H242697   7.765   2.907   3.164
14252TIP3   OH242698   6.450   0.367   3.138
14252TIP3    H142699   6.433   0.320   3.220
14252TIP3    H242700   6.416   0.455   3.154
14253TIP3   OH242701   4.784   0.418   4.529
14253TIP3    H142702   4.804   0.336   4.574
14253TIP3    H242703   4.870   0.459   4.516
14254TIP3   OH242704   6.872   1.487   3.049
14254TIP3    H142705   6.853   1.399   3.015
14254TIP3    H242706   6.966   1.497   3.037
14255TIP3   OH242707   2.544   0.645   4.311
14255TIP3    H142708   2.622   0.677   4.356
14255TIP3    H242709   2.576   0.614   4.226
14256TIP3   OH242710   8.161   2.836   1.320
14256TIP3    H142711   8.107   2.848   1.241
14256TIP3    H242712   8.227   2.772   1.295
14257TIP3   OH242713   2.464   6.694   2.370
14257TIP3    H142714   2.481   6.652   2.286
14257TIP3    H242715   2.377   6.663   2.396
14258TIP3   OH242716   5.417   1.721   2.239
14258TIP3    H142717   5.361   1.789   2.277
14258TIP3    H242718   5.365   1.683   2.168
14259TIP3   OH242719   2.928   2.463   1.152
14259TIP3    H142720   2.889   2.378   1.129
14259TIP3    H242721   3.008   2.440   1.200
14260TIP3   OH242722   8.081   1.459   6.520
14260TIP3    H142723   7.993   1.496   6.527
14260TIP3    H242724   8.140   1.534   6.517
14261TIP3   OH242725   2.899   5.845   3.505
14261TIP3    H142726   2.950   5.774   3.465
14261TIP3    H242727   2.933   5.850   3.594
14262TIP3   OH242728   3.496   6.095   2.878
14262TIP3    H142729   3.553   6.107   2.802
14262TIP3    H242730   3.547   6.128   2.952
14263TIP3   OH242731   4.325   1.576   4.816
14263TIP3    H142732   4.348   1.607   4.729
14263TIP3    H242733   4.336   1.652   4.873
14264TIP3   OH242734   7.722   4.355   1.859
14264TIP3    H142735   7.713   4.406   1.778
14264TIP3    H242736   7.637   4.314   1.871
14265TIP3   OH242737   8.131   4.606   3.037
14265TIP3    H142738   8.043   4.576   3.059
14265TIP3    H242739   8.157   4.660   3.112
14266TIP3   OH242740   4.527   1.008   6.333
14266TIP3    H142741   4.605   0.959   6.308
14266TIP3    H242742   4.495   1.045   6.250
14267TIP3   OH242743   5.667   2.725   0.270
14267TIP3    H142744   5.713   2.642   0.277
14267TIP3    H242745   5.723   2.779   0.213
14268TIP3   OH242746   4.969   7.444   5.954
14268TIP3    H142747   4.920   7.366   5.927
14268TIP3    H242748   5.059   7.426   5.929
14269TIP3   OH242749   2.288   7.492   2.144
14269TIP3    H142750   2.256   7.570   2.189
14269TIP3    H242751   2.259   7.419   2.200
14270TIP3   OH242752   5.440   4.181   0.147
14270TIP3    H142753   5.416   4.271   0.124
14270TIP3    H242754   5.507   4.157   0.084
14271TIP3   OH242755   3.754   1.909   0.341
14271TIP3    H142756   3.842   1.938   0.320
14271TIP3    H242757   3.761   1.814   0.351
14272TIP3   OH242758   1.744   4.866   4.874
14272TIP3    H142759   1.717   4.788   4.923
14272TIP3    H242760   1.663   4.897   4.832
14273TIP3   OH242761   6.973   3.333   0.734
14273TIP3    H142762   6.989   3.270   0.663
14273TIP3    H242763   6.897   3.297   0.780
14274TIP3   OH242764   0.958   1.783   6.519
14274TIP3    H142765   0.943   1.870   6.482
14274TIP3    H242766   1.046   1.788   6.557
14275TIP3   OH242767   3.299   3.363   2.237
14275TIP3    H142768   3.204   3.372   2.235
14275TIP3    H242769   3.330   3.426   2.172
14276TIP3   OH242770   2.950   7.010   5.724
14276TIP3    H142771   2.868   7.052   5.699
14276TIP3    H242772   2.925   6.950   5.795
14277TIP3   OH242773   5.957   6.602   1.774
14277TIP3    H142774   5.992   6.607   1.685
14277TIP3    H242775   5.876   6.651   1.771
14278TIP3   OH242776   7.563   3.132   2.914
14278TIP3    H142777   7.645   3.083   2.916
14278TIP3    H242778   7.525   3.121   3.001
14279TIP3   OH242779   4.160   3.805   0.437
14279TIP3    H142780   4.120   3.762   0.362
14279TIP3    H242781   4.097   3.873   0.462
14280TIP3   OH242782   5.805   4.550   4.761
14280TIP3    H142783   5.756   4.593   4.831
14280TIP3    H242784   5.749   4.478   4.733
14281TIP3   OH242785   2.817   6.557   2.698
14281TIP3    H142786   2.736   6.555   2.748
14281TIP3    H242787   2.869   6.485   2.732
14282TIP3   OH242788   5.164   6.409   6.765
14282TIP3    H142789   5.098   6.385   6.830
14282TIP3    H242790   5.143   6.500   6.742
14283TIP3   OH242791   4.442   1.935   2.326
14283TIP3    H142792   4.511   1.937   2.259
14283TIP3    H242793   4.485   1.896   2.403
14284TIP3   OH242794   3.182   4.709   2.160
14284TIP3    H142795   3.113   4.730   2.097
14284TIP3    H242796   3.208   4.793   2.197
14285TIP3   OH242797   7.670   5.483   3.837
14285TIP3    H142798   7.730   5.550   3.870
14285TIP3    H242799   7.631   5.444   3.915
14286TIP3   OH242800   7.249   5.837   6.010
14286TIP3    H142801   7.163   5.797   6.001
14286TIP3    H242802   7.292   5.784   6.078
14287TIP3   OH242803   1.743   6.251   0.690
14287TIP3    H142804   1.804   6.307   0.737
14287TIP3    H242805   1.787   6.166   0.686
14288TIP3   OH242806   6.256   0.923   4.062
14288TIP3    H142807   6.337   0.974   4.066
14288TIP3    H242808   6.201   0.972   4.001
14289TIP3   OH242809   0.032   0.714   4.469
14289TIP3    H142810   0.117   0.705   4.512
14289TIP3    H242811  -0.013   0.784   4.517
14290TIP3   OH242812   7.166   0.253   4.474
14290TIP3    H142813   7.182   0.192   4.403
14290TIP3    H242814   7.217   0.331   4.452
14291TIP3   OH242815   8.061   7.535   0.744
14291TIP3    H142816   8.134   7.551   0.684
14291TIP3    H242817   8.094   7.470   0.805
14292TIP3   OH242818   6.083   5.629   4.302
14292TIP3    H142819   6.010   5.663   4.355
14292TIP3    H242820   6.157   5.686   4.325
14293TIP3   OH242821   5.692   1.953   5.203
14293TIP3    H142822   5.608   1.932   5.162
14293TIP3    H242823   5.755   1.949   5.132
14294TIP3   OH242824   5.106   3.369   4.978
14294TIP3    H142825   5.185   3.368   5.033
14294TIP3    H242826   5.115   3.292   4.922
14295TIP3   OH242827   3.389   3.980   5.270
14295TIP3    H142828   3.481   3.966   5.247
14295TIP3    H242829   3.380   3.940   5.357
14296TIP3   OH242830   5.775   5.120   1.407
14296TIP3    H142831   5.706   5.158   1.353
14296TIP3    H242832   5.748   5.139   1.497
14297TIP3   OH242833   7.476   3.974   3.837
14297TIP3    H142834   7.498   4.055   3.791
14297TIP3    H242835   7.510   3.905   3.781
14298TIP3   OH242836   6.927   5.907   3.767
14298TIP3    H142837   7.020   5.891   3.750
14298TIP3    H242838   6.882   5.833   3.727
14299TIP3   OH242839   6.576   6.935   4.613
14299TIP3    H142840   6.607   7.009   4.664
14299TIP3    H242841   6.481   6.936   4.625
14300TIP3   OH242842   1.723  -0.006   1.717
14300TIP3    H142843   1.720   0.088   1.736
14300TIP3    H242844   1.634  -0.037   1.735
14301TIP3   OH242845   1.048   2.065   1.306
14301TIP3    H142846   1.117   2.117   1.347
14301TIP3    H242847   1.091   2.020   1.234
14302TIP3   OH242848   5.622   2.518   5.752
14302TIP3    H142849   5.709   2.504   5.789
14302TIP3    H242850   5.568   2.542   5.827
14303TIP3   OH242851   3.434   0.269   1.976
14303TIP3    H142852   3.368   0.228   1.919
14303TIP3    H242853   3.486   0.323   1.918
14304TIP3   OH242854   0.198   1.153   2.036
14304TIP3    H142855   0.196   1.058   2.025
14304TIP3    H242856   0.199   1.165   2.131
14305TIP3   OH242857   3.496   3.610   5.849
14305TIP3    H142858   3.559   3.679   5.830
14305TIP3    H242859   3.410   3.651   5.835
14306TIP3   OH242860   0.617   6.291   3.385
14306TIP3    H142861   0.639   6.203   3.418
14306TIP3    H242862   0.696   6.320   3.340
14307TIP3   OH242863   5.375   6.138   5.216
14307TIP3    H142864   5.460   6.142   5.173
14307TIP3    H242865   5.390   6.175   5.303
14308TIP3   OH242866   3.353   6.164   3.965
14308TIP3    H142867   3.409   6.135   4.037
14308TIP3    H242868   3.268   6.122   3.981
14309TIP3   OH242869   5.505   6.110   0.927
14309TIP3    H142870   5.509   6.188   0.981
14309TIP3    H242871   5.413   6.085   0.925
14310TIP3   OH242872   4.963   7.200   5.033
14310TIP3    H142873   4.961   7.111   4.997
14310TIP3    H242874   4.931   7.191   5.122
14311TIP3   OH242875   0.605   7.187   4.531
14311TIP3    H142876   0.665   7.242   4.481
14311TIP3    H242877   0.591   7.236   4.612
14312TIP3   OH242878   4.873   0.771   3.242
14312TIP3    H142879   4.919   0.702   3.289
14312TIP3    H242880   4.936   0.842   3.233
14313TIP3   OH242881   3.544   5.905   3.236
14313TIP3    H142882   3.511   5.827   3.280
14313TIP3    H242883   3.597   5.872   3.164
14314TIP3   OH242884   6.338   2.137   2.523
14314TIP3    H142885   6.425   2.121   2.485
14314TIP3    H242886   6.355   2.196   2.597
14315TIP3   OH242887   4.776   6.293   4.961
14315TIP3    H142888   4.808   6.216   5.008
14315TIP3    H242889   4.849   6.355   4.963
14316TIP3   OH242890   1.219   2.599   3.862
14316TIP3    H142891   1.180   2.590   3.775
14316TIP3    H242892   1.313   2.606   3.846
14317TIP3   OH242893   0.222   2.230   1.787
14317TIP3    H142894   0.164   2.291   1.741
14317TIP3    H242895   0.237   2.159   1.724
14318TIP3   OH242896   6.981   6.457   0.753
14318TIP3    H142897   6.901   6.452   0.701
14318TIP3    H242898   7.039   6.390   0.716
14319TIP3   OH242899   6.360   4.677   1.397
14319TIP3    H142900   6.392   4.638   1.316
14319TIP3    H242901   6.375   4.771   1.386
14320TIP3   OH242902   7.577   5.156   3.636
14320TIP3    H142903   7.526   5.171   3.716
14320TIP3    H242904   7.660   5.120   3.667
14321TIP3   OH242905   3.075   7.663   4.154
14321TIP3    H142906   3.093   7.678   4.062
14321TIP3    H242907   2.986   7.626   4.156
14322TIP3   OH242908   2.118   0.289   2.723
14322TIP3    H142909   2.206   0.291   2.761
14322TIP3    H242910   2.062   0.328   2.790
14323TIP3   OH242911   4.672   0.122   6.383
14323TIP3    H142912   4.704   0.104   6.294
14323TIP3    H242913   4.716   0.056   6.437
14324TIP3   OH242914   1.090   0.821   0.372
14324TIP3    H142915   1.172   0.777   0.352
14324TIP3    H242916   1.101   0.909   0.336
14325TIP3   OH242917   5.871   2.548   3.571
14325TIP3    H142918   5.944   2.548   3.633
14325TIP3    H242919   5.793   2.541   3.626
14326TIP3   OH242920   7.649   4.941   5.170
14326TIP3    H142921   7.666   5.035   5.180
14326TIP3    H242922   7.695   4.901   5.243
14327TIP3   OH242923   7.746   2.195   6.576
14327TIP3    H142924   7.700   2.210   6.494
14327TIP3    H242925   7.693   2.241   6.642
14328TIP3   OH242926   2.673   3.468   0.107
14328TIP3    H142927   2.741   3.536   0.113
14328TIP3    H242928   2.722   3.386   0.100
14329TIP3   OH242929   0.738   6.204   5.707
14329TIP3    H142930   0.742   6.147   5.630
14329TIP3    H242931   0.649   6.240   5.705
14330TIP3   OH242932   4.190   1.669   4.389
14330TIP3    H142933   4.183   1.576   4.369
14330TIP3    H242934   4.278   1.679   4.425
14331TIP3   OH242935   8.159   0.990   0.341
14331TIP3    H142936   8.228   0.929   0.367
14331TIP3    H242937   8.146   1.045   0.418
14332TIP3   OH242938   2.047   1.578   4.966
14332TIP3    H142939   2.115   1.559   4.902
14332TIP3    H242940   2.094   1.586   5.049
14333TIP3   OH242941   1.808   2.537   1.916
14333TIP3    H142942   1.814   2.617   1.969
14333TIP3    H242943   1.777   2.470   1.976
14334TIP3   OH242944   4.169   6.253   2.387
14334TIP3    H142945   4.212   6.272   2.470
14334TIP3    H242946   4.156   6.158   2.388
14335TIP3   OH242947   5.440   6.671   1.520
14335TIP3    H142948   5.407   6.646   1.607
14335TIP3    H242949   5.379   6.627   1.460
14336TIP3   OH242950   2.468   1.949   2.641
14336TIP3    H142951   2.468   1.925   2.549
14336TIP3    H242952   2.376   1.940   2.668
14337TIP3   OH242953   0.108   6.716   4.764
14337TIP3    H142954   0.136   6.670   4.843
14337TIP3    H242955   0.189   6.755   4.730
14338TIP3   OH242956   4.314   1.551   2.669
14338TIP3    H142957   4.267   1.619   2.621
14338TIP3    H242958   4.246   1.491   2.699
14339TIP3   OH242959   7.349   7.139   3.342
14339TIP3    H142960   7.294   7.176   3.272
14339TIP3    H242961   7.401   7.072   3.298
14340TIP3   OH242962   0.748   5.230   0.061
14340TIP3    H142963   0.765   5.148   0.106
14340TIP3    H242964   0.833   5.255   0.023
14341TIP3   OH242965   3.799   5.082   2.329
14341TIP3    H142966   3.739   5.104   2.400
14341TIP3    H242967   3.875   5.138   2.344
14342TIP3   OH242968   6.093   1.203   3.615
14342TIP3    H142969   6.129   1.142   3.679
14342TIP3    H242970   6.167   1.224   3.558
14343TIP3   OH242971   1.592   3.507   0.545
14343TIP3    H142972   1.632   3.421   0.533
14343TIP3    H242973   1.596   3.549   0.459
14344TIP3   OH242974   0.738   1.198   5.118
14344TIP3    H142975   0.645   1.178   5.124
14344TIP3    H242976   0.752   1.270   5.180
14345TIP3   OH242977   7.077   2.117   0.256
14345TIP3    H142978   7.060   2.025   0.279
14345TIP3    H242979   7.038   2.127   0.169
14346TIP3   OH242980   6.260   5.017   1.683
14346TIP3    H142981   6.192   4.960   1.717
14346TIP3    H242982   6.338   4.996   1.735
14347TIP3   OH242983   7.668   5.102   3.947
14347TIP3    H142984   7.649   5.045   4.021
14347TIP3    H242985   7.639   5.188   3.974
14348TIP3   OH242986   2.651   3.897   1.616
14348TIP3    H142987   2.567   3.941   1.628
14348TIP3    H242988   2.641   3.814   1.664
14349TIP3   OH242989   8.258   0.444   1.831
14349TIP3    H142990   8.264   0.517   1.770
14349TIP3    H242991   8.216   0.374   1.781
14350TIP3   OH242992   3.980   2.901   5.662
14350TIP3    H142993   4.062   2.859   5.687
14350TIP3    H242994   3.912   2.850   5.707
14351TIP3   OH242995   7.751   1.910   5.424
14351TIP3    H142996   7.723   1.906   5.515
14351TIP3    H242997   7.694   1.848   5.378
14352TIP3   OH242998   2.547   0.700   5.406
14352TIP3    H142999   2.519   0.757   5.334
14352TIP3    H243000   2.536   0.611   5.371
14353TIP3   OH243001   2.670   0.267   4.883
14353TIP3    H143002   2.732   0.339   4.880
14353TIP3    H243003   2.616   0.284   4.960
14354TIP3   OH243004   3.547   4.014   3.958
14354TIP3    H143005   3.606   4.075   4.004
14354TIP3    H243006   3.585   4.005   3.871
14355TIP3   OH243007   6.114   5.815   2.618
14355TIP3    H143008   6.186   5.878   2.618
14355TIP3    H243009   6.061   5.839   2.542
14356TIP3   OH243010   2.542   0.284   0.033
14356TIP3    H143011   2.477   0.238   0.086
14356TIP3    H243012   2.496   0.362   0.002
14357TIP3   OH243013   0.275   0.888   1.950
14357TIP3    H143014   0.263   0.829   2.025
14357TIP3    H243015   0.207   0.861   1.888
14358TIP3   OH243016   0.499   1.476   1.769
14358TIP3    H143017   0.440   1.478   1.845
14358TIP3    H243018   0.554   1.399   1.784
14359TIP3   OH243019   2.003   2.944   4.958
14359TIP3    H143020   1.976   2.854   4.939
14359TIP3    H243021   1.941   2.974   5.024
14360TIP3   OH243022   5.009   1.048   6.370
14360TIP3    H143023   5.045   0.990   6.302
14360TIP3    H243024   4.954   0.992   6.424
14361TIP3   OH243025   1.981   3.847   2.233
14361TIP3    H143026   1.985   3.941   2.251
14361TIP3    H243027   1.887   3.827   2.231
14362TIP3   OH243028   7.070   1.591   3.370
14362TIP3    H143029   7.070   1.511   3.317
14362TIP3    H243030   7.065   1.662   3.306
14363TIP3   OH243031   6.867   4.432   4.477
14363TIP3    H143032   6.945   4.431   4.533
14363TIP3    H243033   6.825   4.347   4.492
14364TIP3   OH243034   5.742   3.681   1.536
14364TIP3    H143035   5.775   3.706   1.622
14364TIP3    H243036   5.646   3.688   1.544
14365TIP3   OH243037   0.538   2.033   1.343
14365TIP3    H143038   0.594   2.085   1.400
14365TIP3    H243039   0.552   2.069   1.256
14366TIP3   OH243040   1.266   2.604   2.985
14366TIP3    H143041   1.328   2.530   2.986
14366TIP3    H243042   1.181   2.564   3.003
14367TIP3   OH243043   7.910   7.438   2.756
14367TIP3    H143044   7.853   7.513   2.741
14367TIP3    H243045   7.851   7.364   2.766
14368TIP3   OH243046   6.505   3.923   1.566
14368TIP3    H143047   6.440   3.855   1.585
14368TIP3    H243048   6.476   3.999   1.616
14369TIP3   OH243049   1.845   7.439   4.138
14369TIP3    H143050   1.923   7.452   4.084
14369TIP3    H243051   1.797   7.522   4.131
14370TIP3   OH243052   5.180   6.696   4.435
14370TIP3    H143053   5.213   6.784   4.415
14370TIP3    H243054   5.088   6.698   4.407
14371TIP3   OH243055   4.539   1.877   3.608
14371TIP3    H143056   4.470   1.932   3.569
14371TIP3    H243057   4.620   1.924   3.590
14372TIP3   OH243058   1.316   0.977   1.941
14372TIP3    H143059   1.321   0.892   1.897
14372TIP3    H243060   1.230   0.977   1.983
14373TIP3   OH243061   5.358   3.220   2.477
14373TIP3    H143062   5.441   3.206   2.522
14373TIP3    H243063   5.314   3.135   2.483
14374TIP3   OH243064   2.937   0.597   3.078
14374TIP3    H143065   2.933   0.678   3.028
14374TIP3    H243066   3.018   0.604   3.129
14375TIP3   OH243067   4.145   5.304   0.136
14375TIP3    H143068   4.165   5.368   0.068
14375TIP3    H243069   4.204   5.326   0.208
14376TIP3   OH243070   1.355   7.833   1.671
14376TIP3    H143071   1.440   7.789   1.676
14376TIP3    H243072   1.309   7.790   1.599
14377TIP3   OH243073   6.530   7.823   4.080
14377TIP3    H143074   6.459   7.772   4.119
14377TIP3    H243075   6.527   7.801   3.987
14378TIP3   OH243076   6.645   2.229   2.427
14378TIP3    H143077   6.639   2.324   2.440
14378TIP3    H243078   6.673   2.219   2.336
14379TIP3   OH243079   2.299   0.904   5.544
14379TIP3    H143080   2.376   0.957   5.525
14379TIP3    H243081   2.311   0.875   5.634
14380TIP3   OH243082   5.440   6.702   0.959
14380TIP3    H143083   5.445   6.688   1.054
14380TIP3    H243084   5.492   6.781   0.943
14381TIP3   OH243085   2.470   4.200   2.996
14381TIP3    H143086   2.562   4.221   3.006
14381TIP3    H243087   2.457   4.189   2.902
14382TIP3   OH243088   1.259   0.036   4.116
14382TIP3    H143089   1.166   0.020   4.128
14382TIP3    H243090   1.269   0.051   4.022
14383TIP3   OH243091   1.537   7.185   6.457
14383TIP3    H143092   1.476   7.133   6.511
14383TIP3    H243093   1.498   7.184   6.370
14384TIP3   OH243094   0.130   2.214   3.923
14384TIP3    H143095   0.095   2.290   3.876
14384TIP3    H243096   0.053   2.171   3.959
14385TIP3   OH243097   0.265   0.911   4.374
14385TIP3    H143098   0.190   0.856   4.351
14385TIP3    H243099   0.234   0.964   4.447
14386TIP3   OH243100   3.201   4.645   6.752
14386TIP3    H143101   3.197   4.590   6.673
14386TIP3    H243102   3.252   4.721   6.726
14387TIP3   OH243103   4.603   0.037   5.381
14387TIP3    H143104   4.673   0.016   5.443
14387TIP3    H243105   4.623  -0.017   5.304
14388TIP3   OH243106   2.252   5.881   6.733
14388TIP3    H143107   2.340   5.883   6.769
14388TIP3    H243108   2.196   5.912   6.804
14389TIP3   OH243109   6.507   0.914   4.353
14389TIP3    H143110   6.414   0.932   4.365
14389TIP3    H243111   6.552   0.979   4.407
14390TIP3   OH243112   6.745   0.080   5.298
14390TIP3    H143113   6.734   0.173   5.321
14390TIP3    H243114   6.826   0.077   5.248
14391TIP3   OH243115   2.535   7.498   6.024
14391TIP3    H143116   2.527   7.501   6.119
14391TIP3    H243117   2.600   7.566   6.004
14392TIP3   OH243118   4.576   4.062   6.728
14392TIP3    H143119   4.504   4.032   6.673
14392TIP3    H243120   4.606   3.983   6.773
14393TIP3   OH243121   7.048   3.683   3.707
14393TIP3    H143122   7.102   3.670   3.785
14393TIP3    H243123   7.082   3.620   3.643
14394TIP3   OH243124   5.936   3.764   1.336
14394TIP3    H143125   5.881   3.722   1.403
14394TIP3    H243126   5.891   3.746   1.253
14395TIP3   OH243127   5.960   4.446   6.391
14395TIP3    H143128   5.995   4.515   6.335
14395TIP3    H243129   6.036   4.416   6.442
14396TIP3   OH243130   1.763   5.238   0.536
14396TIP3    H143131   1.736   5.261   0.447
14396TIP3    H243132   1.840   5.182   0.525
14397TIP3   OH243133   3.578   6.143   0.502
14397TIP3    H143134   3.509   6.163   0.439
14397TIP3    H243135   3.642   6.092   0.452
14398TIP3   OH243136   7.032   4.033   6.463
14398TIP3    H143137   7.124   4.037   6.437
14398TIP3    H243138   7.031   3.981   6.543
14399TIP3   OH243139   0.739   7.568   0.999
14399TIP3    H143140   0.743   7.475   1.023
14399TIP3    H243141   0.775   7.613   1.075
14400TIP3   OH243142   6.164   6.010   0.034
14400TIP3    H143143   6.198   5.921   0.025
14400TIP3    H243144   6.082   6.001   0.082
14401TIP3   OH243145   3.808   7.128   6.343
14401TIP3    H143146   3.853   7.145   6.426
14401TIP3    H243147   3.761   7.209   6.324
14402TIP3   OH243148   5.412   4.637   0.933
14402TIP3    H143149   5.322   4.606   0.918
14402TIP3    H243150   5.463   4.557   0.945
14403TIP3   OH243151   5.251   1.409   1.187
14403TIP3    H143152   5.315   1.443   1.249
14403TIP3    H243153   5.167   1.442   1.218
14404TIP3   OH243154   0.860   5.694   3.370
14404TIP3    H143155   0.945   5.721   3.404
14404TIP3    H243156   0.825   5.635   3.438
14405TIP3   OH243157   4.782   0.219   3.519
14405TIP3    H143158   4.759   0.272   3.444
14405TIP3    H243159   4.865   0.177   3.495
14406TIP3   OH243160   7.580   7.167   4.611
14406TIP3    H143161   7.616   7.216   4.684
14406TIP3    H243162   7.517   7.106   4.651
14407TIP3   OH243163   3.045   6.706   4.883
14407TIP3    H143164   3.070   6.696   4.975
14407TIP3    H243165   3.112   6.764   4.846
14408TIP3   OH243166   6.870   7.706   3.241
14408TIP3    H143167   6.954   7.665   3.261
14408TIP3    H243168   6.808   7.633   3.238
14409TIP3   OH243169   6.106   5.786   1.132
14409TIP3    H143170   6.181   5.839   1.104
14409TIP3    H243171   6.033   5.847   1.134
14410TIP3   OH243172   3.995   4.358   0.087
14410TIP3    H143173   4.047   4.278   0.092
14410TIP3    H243174   3.991   4.379  -0.007
14411TIP3   OH243175   6.759   6.734   2.868
14411TIP3    H143176   6.783   6.643   2.885
14411TIP3    H243177   6.840   6.774   2.836
14412TIP3   OH243178   6.952   4.809   3.321
14412TIP3    H143179   6.877   4.755   3.298
14412TIP3    H243180   6.916   4.879   3.375
14413TIP3   OH243181   3.418   5.795   0.602
14413TIP3    H143182   3.472   5.794   0.522
14413TIP3    H243183   3.430   5.708   0.640
14414TIP3   OH243184   7.193   0.992   3.438
14414TIP3    H143185   7.260   0.936   3.478
14414TIP3    H243186   7.126   0.931   3.407
14415TIP3   OH243187   0.636   3.082   4.315
14415TIP3    H143188   0.642   3.003   4.369
14415TIP3    H243189   0.557   3.126   4.346
14416TIP3   OH243190   0.706   5.808   3.739
14416TIP3    H143191   0.795   5.842   3.752
14416TIP3    H243192   0.713   5.748   3.665
14417TIP3   OH243193   2.527   3.606   4.466
14417TIP3    H143194   2.553   3.519   4.496
14417TIP3    H243195   2.431   3.603   4.463
14418TIP3   OH243196   4.781   2.975   4.007
14418TIP3    H143197   4.690   2.993   3.982
14418TIP3    H243198   4.782   2.988   4.102
14419TIP3   OH243199   4.398   1.925   4.073
14419TIP3    H143200   4.406   1.834   4.101
14419TIP3    H243201   4.315   1.954   4.109
14420TIP3   OH243202   0.903   4.155   3.607
14420TIP3    H143203   0.907   4.137   3.701
14420TIP3    H243204   0.830   4.102   3.575
14421TIP3   OH243205   2.301   4.280   1.345
14421TIP3    H143206   2.395   4.281   1.326
14421TIP3    H243207   2.261   4.319   1.267
14422TIP3   OH243208   6.903   6.329   0.455
14422TIP3    H143209   6.850   6.369   0.524
14422TIP3    H243210   6.873   6.238   0.451
14423TIP3   OH243211   0.295   6.622   1.175
14423TIP3    H143212   0.349   6.674   1.235
14423TIP3    H243213   0.258   6.687   1.115
14424TIP3   OH243214   6.252   3.827   3.185
14424TIP3    H143215   6.196   3.778   3.124
14424TIP3    H243216   6.222   3.800   3.272
14425TIP3   OH243217   7.129   3.863   2.576
14425TIP3    H143218   7.180   3.799   2.626
14425TIP3    H243219   7.041   3.857   2.611
14426TIP3   OH243220   5.370   2.194   4.788
14426TIP3    H143221   5.416   2.172   4.869
14426TIP3    H243222   5.280   2.168   4.804
14427TIP3   OH243223   7.604   5.093   5.560
14427TIP3    H143224   7.548   5.049   5.624
14427TIP3    H243225   7.679   5.034   5.549
14428TIP3   OH243226   6.413   1.571   4.889
14428TIP3    H143227   6.425   1.651   4.940
14428TIP3    H243228   6.481   1.574   4.822
14429TIP3   OH243229   4.740   6.024   5.143
14429TIP3    H143230   4.805   5.971   5.190
14429TIP3    H243231   4.660   6.013   5.194
14430TIP3   OH243232   8.193   6.407   5.188
14430TIP3    H143233   8.207   6.458   5.108
14430TIP3    H243234   8.271   6.425   5.241
14431TIP3   OH243235   8.038   0.161   5.283
14431TIP3    H143236   8.133   0.172   5.275
14431TIP3    H243237   8.025   0.067   5.290
14432TIP3   OH243238   0.520   1.977   2.910
14432TIP3    H143239   0.557   1.969   2.998
14432TIP3    H243240   0.552   1.901   2.863
14433TIP3   OH243241   2.318   7.789   6.163
14433TIP3    H143242   2.283   7.842   6.234
14433TIP3    H243243   2.261   7.712   6.158
14434TIP3   OH243244   4.310   1.712   1.209
14434TIP3    H143245   4.275   1.673   1.289
14434TIP3    H243246   4.252   1.680   1.140
14435TIP3   OH243247   6.003   2.916   2.528
14435TIP3    H143248   5.937   2.849   2.508
14435TIP3    H243249   5.989   2.984   2.463
14436TIP3   OH243250   0.679   1.140   1.709
14436TIP3    H143251   0.674   1.120   1.616
14436TIP3    H243252   0.588   1.140   1.739
14437TIP3   OH243253   6.576   1.529   2.671
14437TIP3    H143254   6.635   1.461   2.636
14437TIP3    H243255   6.508   1.480   2.717
14438TIP3   OH243256   5.714   1.596   4.848
14438TIP3    H143257   5.685   1.520   4.899
14438TIP3    H243258   5.806   1.578   4.829
14439TIP3   OH243259   7.641   6.851   4.496
14439TIP3    H143260   7.705   6.796   4.451
14439TIP3    H243261   7.611   6.913   4.430
14440TIP3   OH243262   6.120   1.048   5.498
14440TIP3    H143263   6.156   0.984   5.436
14440TIP3    H243264   6.196   1.080   5.547
14441TIP3   OH243265   5.156   5.472   5.122
14441TIP3    H143266   5.068   5.504   5.142
14441TIP3    H243267   5.165   5.394   5.176
14442TIP3   OH243268   6.271   4.308   5.088
14442TIP3    H143269   6.267   4.351   5.003
14442TIP3    H243270   6.356   4.333   5.124
14443TIP3   OH243271   5.422   4.833   6.296
14443TIP3    H143272   5.492   4.873   6.246
14443TIP3    H243273   5.354   4.813   6.232
14444TIP3   OH243274   2.240   0.362   5.965
14444TIP3    H143275   2.287   0.344   5.883
14444TIP3    H243276   2.281   0.304   6.029
14445TIP3   OH243277   2.237   2.476   0.866
14445TIP3    H143278   2.238   2.510   0.777
14445TIP3    H243279   2.209   2.385   0.857
14446TIP3   OH243280   2.371   1.870   4.598
14446TIP3    H143281   2.348   1.856   4.690
14446TIP3    H243282   2.415   1.955   4.597
14447TIP3   OH243283   7.825   3.803  -0.036
14447TIP3    H143284   7.896   3.792   0.026
14447TIP3    H243285   7.746   3.784   0.014
14448TIP3   OH243286   4.065   1.670   5.424
14448TIP3    H143287   4.059   1.640   5.515
14448TIP3    H243288   4.156   1.653   5.399
14449TIP3   OH243289   4.940   7.280   1.161
14449TIP3    H143290   4.972   7.219   1.095
14449TIP3    H243291   4.917   7.225   1.236
14450TIP3   OH243292   0.902   2.910   0.607
14450TIP3    H143293   0.914   2.860   0.688
14450TIP3    H243294   0.900   2.843   0.539
14451TIP3   OH243295   0.763   4.097   2.985
14451TIP3    H143296   0.679   4.115   3.028
14451TIP3    H243297   0.739   4.065   2.898
14452TIP3   OH243298   6.337   1.050   3.348
14452TIP3    H143299   6.416   1.062   3.296
14452TIP3    H243300   6.267   1.089   3.294
14453TIP3   OH243301   6.546   1.834   0.625
14453TIP3    H143302   6.570   1.806   0.537
14453TIP3    H243303   6.540   1.929   0.620
14454TIP3   OH243304   3.249   2.749   4.742
14454TIP3    H143305   3.170   2.694   4.737
14454TIP3    H243306   3.280   2.754   4.652
14455TIP3   OH243307   5.555   7.631   5.763
14455TIP3    H143308   5.521   7.705   5.712
14455TIP3    H243309   5.631   7.666   5.808
14456TIP3   OH243310   0.354   0.459   1.815
14456TIP3    H143311   0.385   0.420   1.733
14456TIP3    H243312   0.434   0.480   1.863
14457TIP3   OH243313   6.595   3.550   6.570
14457TIP3    H143314   6.573   3.568   6.661
14457TIP3    H243315   6.664   3.484   6.574
14458TIP3   OH243316   6.048   3.395   6.732
14458TIP3    H143317   6.093   3.474   6.763
14458TIP3    H243318   5.956   3.422   6.724
14459TIP3   OH243319   4.977   7.334   3.591
14459TIP3    H143320   5.011   7.399   3.652
14459TIP3    H243321   5.017   7.252   3.619
14460TIP3   OH243322   5.791   2.059   0.487
14460TIP3    H143323   5.815   2.084   0.397
14460TIP3    H243324   5.807   2.138   0.539
14461TIP3   OH243325   2.349   5.443   1.565
14461TIP3    H143326   2.397   5.390   1.501
14461TIP3    H243327   2.323   5.381   1.633
14462TIP3   OH243328   7.659   4.345   1.586
14462TIP3    H143329   7.676   4.371   1.495
14462TIP3    H243330   7.575   4.299   1.582
14463TIP3   OH243331   2.243   5.119   1.526
14463TIP3    H143332   2.301   5.181   1.482
14463TIP3    H243333   2.159   5.131   1.483
14464TIP3   OH243334   2.018   5.331   2.405
14464TIP3    H143335   1.930   5.299   2.387
14464TIP3    H243336   2.051   5.362   2.321
14465TIP3   OH243337   5.770   3.892   2.506
14465TIP3    H143338   5.782   3.985   2.523
14465TIP3    H243339   5.846   3.866   2.455
14466TIP3   OH243340   5.054   4.999   5.121
14466TIP3    H143341   5.075   5.033   5.034
14466TIP3    H243342   5.109   4.921   5.129
14467TIP3   OH243343   3.623   4.038   6.332
14467TIP3    H143344   3.621   4.131   6.354
14467TIP3    H243345   3.559   3.998   6.390
14468TIP3   OH243346   2.157   3.082   2.742
14468TIP3    H143347   2.169   2.987   2.734
14468TIP3    H243348   2.213   3.119   2.674
14469TIP3   OH243349   7.153   6.166   2.715
14469TIP3    H143350   7.188   6.255   2.706
14469TIP3    H243351   7.104   6.151   2.635
14470TIP3   OH243352   5.339   5.661   1.289
14470TIP3    H143353   5.267   5.719   1.265
14470TIP3    H243354   5.296   5.585   1.328
14471TIP3   OH243355   4.190   0.246   3.066
14471TIP3    H143356   4.239   0.168   3.041
14471TIP3    H243357   4.177   0.294   2.984
14472TIP3   OH243358   5.501   6.168   2.954
14472TIP3    H143359   5.422   6.204   2.913
14472TIP3    H243360   5.521   6.090   2.903
14473TIP3   OH243361   2.462   1.860   2.383
14473TIP3    H143362   2.537   1.805   2.405
14473TIP3    H243363   2.469   1.872   2.288
14474TIP3   OH243364   6.851   1.944   1.041
14474TIP3    H143365   6.881   1.890   0.968
14474TIP3    H243366   6.854   2.034   1.006
14475TIP3   OH243367   5.245   0.982   4.321
14475TIP3    H143368   5.216   1.031   4.398
14475TIP3    H243369   5.168   0.979   4.264
14476TIP3   OH243370  -0.013   0.706   0.052
14476TIP3    H143371   0.050   0.776   0.033
14476TIP3    H243372  -0.018   0.704   0.148
14477TIP3   OH243373   7.054   4.605   6.043
14477TIP3    H143374   7.071   4.511   6.031
14477TIP3    H243375   7.132   4.648   6.008
14478TIP3   OH243376   1.105   4.308   0.290
14478TIP3    H143377   1.038   4.302   0.221
14478TIP3    H243378   1.183   4.340   0.245
14479TIP3   OH243379   3.925   0.402   3.233
14479TIP3    H143380   3.874   0.377   3.310
14479TIP3    H243381   4.010   0.359   3.245
14480TIP3   OH243382   1.694   4.968   1.442
14480TIP3    H143383   1.642   4.894   1.471
14480TIP3    H243384   1.713   4.949   1.350
14481TIP3   OH243385   7.966   4.323   0.052
14481TIP3    H143386   7.922   4.239   0.061
14481TIP3    H243387   8.007   4.339   0.137
14482TIP3   OH243388   4.265   6.059   6.502
14482TIP3    H143389   4.312   6.076   6.583
14482TIP3    H243390   4.330   6.073   6.433
14483TIP3   OH243391   1.672   2.286   1.747
14483TIP3    H143392   1.625   2.356   1.702
14483TIP3    H243393   1.642   2.293   1.838
14484TIP3   OH243394   0.977   6.496   1.822
14484TIP3    H143395   1.032   6.546   1.882
14484TIP3    H243396   1.038   6.459   1.758
14485TIP3   OH243397   0.756   1.297   3.346
14485TIP3    H143398   0.721   1.297   3.257
14485TIP3    H243399   0.823   1.229   3.345
14486TIP3   OH243400   4.003   2.812   0.218
14486TIP3    H143401   4.060   2.872   0.171
14486TIP3    H243402   3.933   2.867   0.253
14487TIP3   OH243403   0.273   7.261   6.337
14487TIP3    H143404   0.297   7.352   6.323
14487TIP3    H243405   0.234   7.233   6.254
14488TIP3   OH243406   3.170   6.936   0.497
14488TIP3    H143407   3.139   6.891   0.419
14488TIP3    H243408   3.261   6.957   0.478
14489TIP3   OH243409   7.784   5.946   5.461
14489TIP3    H143410   7.782   5.917   5.552
14489TIP3    H243411   7.791   6.041   5.467
14490TIP3   OH243412   7.713   6.980   3.723
14490TIP3    H143413   7.790   7.034   3.738
14490TIP3    H243414   7.702   6.978   3.628
14491TIP3   OH243415   4.608   1.043   4.568
14491TIP3    H143416   4.602   1.132   4.534
14491TIP3    H243417   4.582   1.051   4.660
14492TIP3   OH243418   2.782   0.497   1.078
14492TIP3    H143419   2.709   0.452   1.120
14492TIP3    H243420   2.747   0.526   0.994
14493TIP3   OH243421   7.763   1.389   2.776
14493TIP3    H143422   7.714   1.358   2.699
14493TIP3    H243423   7.700   1.383   2.848
14494TIP3   OH243424   5.411   2.257   4.329
14494TIP3    H143425   5.448   2.275   4.415
14494TIP3    H243426   5.363   2.337   4.307
14495TIP3   OH243427   1.918   1.736   3.205
14495TIP3    H143428   1.950   1.717   3.117
14495TIP3    H243429   1.965   1.675   3.262
14496TIP3   OH243430   4.761   1.313   3.566
14496TIP3    H143431   4.759   1.257   3.644
14496TIP3    H243432   4.850   1.349   3.564
14497TIP3   OH243433   0.387   5.379   5.677
14497TIP3    H143434   0.378   5.474   5.668
14497TIP3    H243435   0.467   5.358   5.629
14498TIP3   OH243436   0.332   2.488   0.276
14498TIP3    H143437   0.300   2.470   0.364
14498TIP3    H243438   0.393   2.561   0.287
14499TIP3   OH243439   0.370   0.472   4.769
14499TIP3    H143440   0.357   0.447   4.677
14499TIP3    H243441   0.404   0.562   4.764
14500TIP3   OH243442   4.045   0.687   5.675
14500TIP3    H143443   4.076   0.747   5.607
14500TIP3    H243444   4.105   0.701   5.748
14501TIP3   OH243445   4.405   3.003   4.827
14501TIP3    H143446   4.409   3.023   4.920
14501TIP3    H243447   4.376   3.085   4.786
14502TIP3   OH243448   3.770   5.799   4.622
14502TIP3    H143449   3.800   5.784   4.712
14502TIP3    H243450   3.795   5.890   4.604
14503TIP3   OH243451   6.607   7.446   2.186
14503TIP3    H143452   6.513   7.459   2.190
14503TIP3    H243453   6.624   7.372   2.246
14504TIP3   OH243454   6.075   2.591   4.104
14504TIP3    H143455   6.073   2.500   4.075
14504TIP3    H243456   6.063   2.587   4.199
14505TIP3   OH243457   6.079   1.465   6.150
14505TIP3    H143458   6.019   1.400   6.186
14505TIP3    H243459   6.023   1.538   6.123
14506TIP3   OH243460   4.083   6.243   5.554
14506TIP3    H143461   4.151   6.302   5.587
14506TIP3    H243462   4.043   6.207   5.632
14507TIP3   OH243463   5.068   0.311   0.558
14507TIP3    H143464   5.087   0.275   0.472
14507TIP3    H243465   4.979   0.345   0.551
14508TIP3   OH243466   4.477   2.107   3.126
14508TIP3    H143467   4.386   2.083   3.146
14508TIP3    H243468   4.472   2.198   3.095
14509TIP3   OH243469   6.466   4.489   0.917
14509TIP3    H143470   6.442   4.397   0.909
14509TIP3    H243471   6.403   4.535   0.861
14510TIP3   OH243472   5.940   1.010   3.343
14510TIP3    H143473   5.889   1.052   3.412
14510TIP3    H243474   5.989   0.942   3.388
14511TIP3   OH243475   6.120   1.160   3.187
14511TIP3    H143476   6.102   1.147   3.094
14511TIP3    H243477   6.051   1.111   3.232
14512TIP3   OH243478   1.982   5.634   5.171
14512TIP3    H143479   1.904   5.658   5.221
14512TIP3    H243480   1.996   5.541   5.191
14513TIP3   OH243481   2.732   0.329   4.282
14513TIP3    H143482   2.684   0.388   4.223
14513TIP3    H243483   2.824   0.351   4.268
14514TIP3   OH243484   0.799   0.640   1.260
14514TIP3    H143485   0.883   0.633   1.307
14514TIP3    H243486   0.793   0.559   1.210
14515TIP3   OH243487   3.599   4.120   6.655
14515TIP3    H143488   3.544   4.198   6.663
14515TIP3    H243489   3.661   4.125   6.727
14516TIP3   OH243490   4.044   6.263   4.939
14516TIP3    H143491   3.985   6.260   5.014
14516TIP3    H243492   4.016   6.341   4.890
14517TIP3   OH243493   2.800   3.975   1.876
14517TIP3    H143494   2.765   3.898   1.833
14517TIP3    H243495   2.868   4.007   1.817
14518TIP3   OH243496   1.718   5.789   3.852
14518TIP3    H143497   1.794   5.731   3.858
14518TIP3    H243498   1.755   5.877   3.859
14519TIP3   OH243499   3.745   0.364   1.157
14519TIP3    H143500   3.788   0.345   1.240
14519TIP3    H243501   3.688   0.438   1.176
14520TIP3   OH243502   4.605   2.067   3.398
14520TIP3    H143503   4.614   2.133   3.329
14520TIP3    H243504   4.514   2.075   3.427
14521TIP3   OH243505   5.582   3.189   2.614
14521TIP3    H143506   5.657   3.153   2.567
14521TIP3    H243507   5.593   3.159   2.704
14522TIP3   OH243508   6.443   2.603   1.012
14522TIP3    H143509   6.378   2.562   0.955
14522TIP3    H243510   6.523   2.608   0.959
14523TIP3   OH243511   2.884   0.621   6.345
14523TIP3    H143512   2.800   0.601   6.387
14523TIP3    H243513   2.950   0.588   6.407
14524TIP3   OH243514   1.775   6.917   6.514
14524TIP3    H143515   1.756   6.940   6.423
14524TIP3    H243516   1.703   6.861   6.540
14525TIP3   OH243517   4.207   3.571   1.153
14525TIP3    H143518   4.186   3.491   1.105
14525TIP3    H243519   4.287   3.603   1.112
14526TIP3   OH243520   0.920   7.404   2.351
14526TIP3    H143521   0.827   7.383   2.357
14526TIP3    H243522   0.936   7.462   2.426
14527TIP3   OH243523   5.810   7.846   2.945
14527TIP3    H143524   5.882   7.822   2.887
14527TIP3    H243525   5.834   7.808   3.030
14528TIP3   OH243526   0.953   3.680   6.542
14528TIP3    H143527   0.956   3.590   6.574
14528TIP3    H243528   0.953   3.733   6.622
14529TIP3   OH243529   7.269   5.971   0.753
14529TIP3    H143530   7.267   5.901   0.688
14529TIP3    H243531   7.273   5.925   0.837
14530TIP3   OH243532   2.120   0.932   4.227
14530TIP3    H143533   2.101   0.904   4.137
14530TIP3    H243534   2.167   0.859   4.266
14531TIP3   OH243535   0.915   0.281   1.797
14531TIP3    H143536   0.910   0.372   1.827
14531TIP3    H243537   1.009   0.262   1.791
14532TIP3   OH243538   4.561   6.478   4.489
14532TIP3    H143539   4.539   6.442   4.575
14532TIP3    H243540   4.636   6.427   4.460
14533TIP3   OH243541   6.690   5.566   5.055
14533TIP3    H143542   6.605   5.599   5.082
14533TIP3    H243543   6.673   5.517   4.975
14534TIP3   OH243544   1.896   1.253   5.181
14534TIP3    H143545   1.879   1.309   5.105
14534TIP3    H243546   1.922   1.169   5.143
14535TIP3   OH243547   5.649   6.285   4.545
14535TIP3    H143548   5.581   6.333   4.497
14535TIP3    H243549   5.717   6.350   4.560
14536TIP3   OH243550   3.899   7.088   3.102
14536TIP3    H143551   3.903   7.122   3.012
14536TIP3    H243552   3.967   7.022   3.106
14537TIP3   OH243553   2.824   0.044   1.905
14537TIP3    H143554   2.805   0.041   1.811
14537TIP3    H243555   2.874   0.125   1.917
14538TIP3   OH243556   0.963   3.862   6.748
14538TIP3    H143557   1.029   3.890   6.812
14538TIP3    H243558   0.889   3.920   6.763
14539TIP3   OH243559   2.114   4.625   2.218
14539TIP3    H143560   2.071   4.566   2.279
14539TIP3    H243561   2.067   4.708   2.229
14540TIP3   OH243562   1.717   3.211   0.487
14540TIP3    H143563   1.776   3.262   0.543
14540TIP3    H243564   1.735   3.120   0.510
14541TIP3   OH243565   0.310   1.130   2.913
14541TIP3    H143566   0.222   1.098   2.933
14541TIP3    H243567   0.314   1.217   2.953
14542TIP3   OH243568   0.013   0.288   0.755
14542TIP3    H143569  -0.074   0.298   0.717
14542TIP3    H243570   0.072   0.325   0.689
14543TIP3   OH243571   0.064   0.636   4.882
14543TIP3    H143572   0.030   0.551   4.910
14543TIP3    H243573   0.132   0.657   4.946
14544TIP3   OH243574   0.247   2.856   5.936
14544TIP3    H143575   0.304   2.857   6.013
14544TIP3    H243576   0.289   2.917   5.875
14545TIP3   OH243577   1.542   0.413   1.201
14545TIP3    H143578   1.456   0.373   1.193
14545TIP3    H243579   1.563   0.442   1.112
14546TIP3   OH243580   6.961   1.105   2.462
14546TIP3    H143581   7.018   1.093   2.386
14546TIP3    H243582   6.881   1.144   2.426
14547TIP3   OH243583   7.400   0.790   4.792
14547TIP3    H143584   7.328   0.739   4.755
14547TIP3    H243585   7.412   0.862   4.731
14548TIP3   OH243586   7.710   6.115   3.313
14548TIP3    H143587   7.748   6.108   3.401
14548TIP3    H243588   7.744   6.197   3.279
14549TIP3   OH243589   7.340   4.320   2.426
14549TIP3    H143590   7.256   4.275   2.428
14549TIP3    H243591   7.397   4.266   2.482
14550TIP3   OH243592   8.106   2.365   4.141
14550TIP3    H143593   8.163   2.441   4.145
14550TIP3    H243594   8.060   2.365   4.225
14551TIP3   OH243595   0.663   7.201   5.962
14551TIP3    H143596   0.749   7.230   5.991
14551TIP3    H243597   0.665   7.106   5.972
14552TIP3   OH243598   4.716   5.742   0.180
14552TIP3    H143599   4.697   5.711   0.269
14552TIP3    H243600   4.633   5.737   0.134
14553TIP3   OH243601   3.917   1.248   5.792
14553TIP3    H143602   3.940   1.194   5.717
14553TIP3    H243603   3.894   1.185   5.861
14554TIP3   OH243604   4.464   4.048   6.308
14554TIP3    H143605   4.553   4.022   6.284
14554TIP3    H243606   4.451   4.010   6.395
14555TIP3   OH243607   6.901   0.207   4.561
14555TIP3    H143608   6.994   0.223   4.544
14555TIP3    H243609   6.899   0.158   4.643
14556TIP3   OH243610   2.009   1.225   1.030
14556TIP3    H143611   2.004   1.134   1.059
14556TIP3    H243612   2.077   1.263   1.086
14557TIP3   OH243613   6.182   4.759   3.975
14557TIP3    H143614   6.277   4.769   3.986
14557TIP3    H243615   6.169   4.665   3.965
14558TIP3   OH243616   0.778   3.387   2.922
14558TIP3    H143617   0.755   3.379   3.015
14558TIP3    H243618   0.706   3.345   2.876
14559TIP3   OH243619   4.530   6.668   1.758
14559TIP3    H143620   4.483   6.625   1.686
14559TIP3    H243621   4.461   6.702   1.815
14560TIP3   OH243622   3.316   3.553   3.048
14560TIP3    H143623   3.245   3.506   3.004
14560TIP3    H243624   3.300   3.645   3.026
14561TIP3   OH243625   7.215   1.403   4.556
14561TIP3    H143626   7.257   1.321   4.529
14561TIP3    H243627   7.130   1.402   4.511
14562TIP3   OH243628   0.325   4.004   1.304
14562TIP3    H143629   0.334   3.909   1.305
14562TIP3    H243630   0.299   4.027   1.393
14563TIP3   OH243631   3.267   2.886   1.828
14563TIP3    H143632   3.332   2.918   1.766
14563TIP3    H243633   3.217   2.964   1.853
14564TIP3   OH243634   7.401   3.567   5.532
14564TIP3    H143635   7.359   3.577   5.446
14564TIP3    H243636   7.419   3.473   5.538
14565TIP3   OH243637   5.164   0.390   2.905
14565TIP3    H143638   5.084   0.366   2.953
14565TIP3    H243639   5.132   0.441   2.831
14566TIP3   OH243640   7.048   6.577   5.647
14566TIP3    H143641   7.042   6.500   5.703
14566TIP3    H243642   6.981   6.564   5.580
14567TIP3   OH243643   0.951   3.738   6.058
14567TIP3    H143644   0.884   3.711   5.996
14567TIP3    H243645   0.943   3.677   6.131
14568TIP3   OH243646   4.273   5.681   2.242
14568TIP3    H143647   4.325   5.761   2.249
14568TIP3    H243648   4.188   5.710   2.211
14569TIP3   OH243649   0.554   3.415   2.731
14569TIP3    H143650   0.459   3.424   2.722
14569TIP3    H243651   0.577   3.344   2.671
14570TIP3   OH243652   3.953   7.621   4.131
14570TIP3    H143653   3.858   7.619   4.136
14570TIP3    H243654   3.981   7.664   4.212
14571TIP3   OH243655   4.757   1.660   3.505
14571TIP3    H143656   4.687   1.647   3.441
14571TIP3    H243657   4.776   1.754   3.502
14572TIP3   OH243658   5.632   6.022   4.105
14572TIP3    H143659   5.691   6.013   4.030
14572TIP3    H243660   5.690   6.036   4.180
14573TIP3   OH243661   5.217   4.467   2.912
14573TIP3    H143662   5.298   4.488   2.960
14573TIP3    H243663   5.192   4.380   2.943
14574TIP3   OH243664   3.610   0.223   2.862
14574TIP3    H143665   3.529   0.260   2.898
14574TIP3    H243666   3.601   0.235   2.768
14575TIP3   OH243667   2.177   0.938   6.318
14575TIP3    H143668   2.134   0.928   6.233
14575TIP3    H243669   2.255   0.990   6.299
14576TIP3   OH243670   2.137   5.990   5.307
14576TIP3    H143671   2.156   6.082   5.285
14576TIP3    H243672   2.044   5.990   5.329
14577TIP3   OH243673   6.874   2.848   3.722
14577TIP3    H143674   6.797   2.883   3.767
14577TIP3    H243675   6.838   2.799   3.648
14578TIP3   OH243676   2.836   1.681   4.198
14578TIP3    H143677   2.921   1.712   4.229
14578TIP3    H243678   2.842   1.684   4.103
14579TIP3   OH243679   6.825   4.424   0.928
14579TIP3    H143680   6.881   4.370   0.982
14579TIP3    H243681   6.824   4.509   0.971
14580TIP3   OH243682   4.293   7.663   1.927
14580TIP3    H143683   4.373   7.610   1.926
14580TIP3    H243684   4.224   7.602   1.902
14581TIP3   OH243685   6.562   4.563   3.441
14581TIP3    H143686   6.651   4.587   3.468
14581TIP3    H243687   6.544   4.482   3.488
14582TIP3   OH243688   1.408   7.581   3.889
14582TIP3    H143689   1.455   7.577   3.805
14582TIP3    H243690   1.365   7.667   3.887
14583TIP3   OH243691   2.888   3.141   1.050
14583TIP3    H143692   2.884   3.130   1.145
14583TIP3    H243693   2.797   3.142   1.022
14584TIP3   OH243694   3.583   2.093   6.336
14584TIP3    H143695   3.557   2.132   6.419
14584TIP3    H243696   3.638   2.160   6.295
14585TIP3   OH243697   3.916   5.011   6.691
14585TIP3    H143698   3.940   4.921   6.710
14585TIP3    H243699   3.999   5.059   6.696
14586TIP3   OH243700   4.878   4.908   1.900
14586TIP3    H143701   4.794   4.909   1.854
14586TIP3    H243702   4.876   4.988   1.953
14587TIP3   OH243703   7.280   1.819   4.128
14587TIP3    H143704   7.364   1.781   4.102
14587TIP3    H243705   7.229   1.821   4.047
14588TIP3   OH243706   7.052   3.744   5.094
14588TIP3    H143707   7.045   3.694   5.013
14588TIP3    H243708   7.022   3.683   5.162
14589TIP3   OH243709   6.200   2.859   4.231
14589TIP3    H143710   6.157   2.945   4.236
14589TIP3    H243711   6.152   2.804   4.293
14590TIP3   OH243712   7.452   6.708   6.567
14590TIP3    H143713   7.512   6.756   6.510
14590TIP3    H243714   7.383   6.771   6.589
14591TIP3   OH243715   7.416   2.048   2.881
14591TIP3    H143716   7.508   2.054   2.856
14591TIP3    H243717   7.369   2.038   2.799
14592TIP3   OH243718   6.842   0.378   1.803
14592TIP3    H143719   6.791   0.297   1.795
14592TIP3    H243720   6.915   0.355   1.859
14593TIP3   OH243721   1.243   3.432   1.506
14593TIP3    H143722   1.335   3.459   1.514
14593TIP3    H243723   1.208   3.489   1.438
14594TIP3   OH243724   6.389   6.426   0.964
14594TIP3    H143725   6.373   6.334   0.941
14594TIP3    H243726   6.393   6.425   1.060
14595TIP3   OH243727   2.559   1.766   2.841
14595TIP3    H143728   2.515   1.820   2.775
14595TIP3    H243729   2.652   1.784   2.828
14596TIP3   OH243730   6.758   3.854   4.249
14596TIP3    H143731   6.850   3.832   4.261
14596TIP3    H243732   6.758   3.948   4.231
14597TIP3   OH243733   7.099   6.055   3.452
14597TIP3    H143734   7.021   6.103   3.423
14597TIP3    H243735   7.172   6.105   3.417
14598TIP3   OH243736   5.811   0.272   3.517
14598TIP3    H143737   5.886   0.326   3.492
14598TIP3    H243738   5.809   0.201   3.453
14599TIP3   OH243739   2.900   3.957   0.092
14599TIP3    H143740   2.885   4.020   0.022
14599TIP3    H243741   2.967   3.898   0.057
14600TIP3   OH243742   0.817   0.884   6.514
14600TIP3    H143743   0.730   0.856   6.544
14600TIP3    H243744   0.867   0.897   6.594
14601TIP3   OH243745   0.405   4.204   5.481
14601TIP3    H143746   0.496   4.185   5.505
14601TIP3    H243747   0.387   4.289   5.520
14602TIP3   OH243748   5.573   2.951   5.387
14602TIP3    H143749   5.508   2.896   5.343
14602TIP3    H243750   5.654   2.937   5.337
14603TIP3   OH243751   3.085   3.253   2.636
14603TIP3    H143752   3.110   3.343   2.616
14603TIP3    H243753   3.168   3.211   2.661
14604TIP3   OH243754   2.927   3.162   3.522
14604TIP3    H143755   2.892   3.139   3.608
14604TIP3    H243756   2.902   3.089   3.465
14605TIP3   OH243757   6.439   1.343   6.263
14605TIP3    H143758   6.482   1.260   6.243
14605TIP3    H243759   6.485   1.375   6.341
14606TIP3   OH243760   6.090   6.399   1.311
14606TIP3    H143761   6.038   6.452   1.371
14606TIP3    H243762   6.029   6.374   1.241
14607TIP3   OH243763   7.785   7.544   0.798
14607TIP3    H143764   7.774   7.615   0.735
14607TIP3    H243765   7.880   7.540   0.813
14608TIP3   OH243766   6.378   3.054   5.451
14608TIP3    H143767   6.291   3.061   5.490
14608TIP3    H243768   6.436   3.036   5.524
14609TIP3   OH243769   6.916   6.226   1.565
14609TIP3    H143770   6.970   6.260   1.636
14609TIP3    H243771   6.826   6.248   1.591
14610TIP3   OH243772   7.914   3.551   1.502
14610TIP3    H143773   7.915   3.462   1.536
14610TIP3    H243774   7.985   3.553   1.437
14611TIP3   OH243775   1.258   3.620   5.080
14611TIP3    H143776   1.342   3.663   5.063
14611TIP3    H243777   1.270   3.580   5.167
14612TIP3   OH243778   1.086   4.910   2.392
14612TIP3    H143779   1.077   5.005   2.388
14612TIP3    H243780   1.024   4.882   2.459
14613TIP3   OH243781   1.043   7.754   1.265
14613TIP3    H143782   0.958   7.799   1.265
14613TIP3    H243783   1.021   7.662   1.251
14614TIP3   OH243784   7.540   3.734   0.030
14614TIP3    H143785   7.542   3.829   0.023
14614TIP3    H243786   7.487   3.706  -0.045
14615TIP3   OH243787   8.226   3.072   2.992
14615TIP3    H143788   8.314   3.107   2.976
14615TIP3    H243789   8.169   3.149   2.991
14616TIP3   OH243790   0.086   2.552   2.158
14616TIP3    H143791   0.116   2.546   2.068
14616TIP3    H243792   0.161   2.526   2.211
14617TIP3   OH243793   1.399   1.367   2.075
14617TIP3    H143794   1.381   1.333   1.987
14617TIP3    H243795   1.479   1.322   2.103
14618TIP3   OH243796   5.272   6.860   5.178
14618TIP3    H143797   5.253   6.867   5.272
14618TIP3    H243798   5.335   6.789   5.171
14619TIP3   OH243799   0.625   2.243   3.061
14619TIP3    H143800   0.650   2.290   3.141
14619TIP3    H243801   0.619   2.152   3.087
14620TIP3   OH243802   1.743   4.934   2.514
14620TIP3    H143803   1.759   4.850   2.470
14620TIP3    H243804   1.683   4.912   2.585
14621TIP3   OH243805   5.080   5.051   6.441
14621TIP3    H143806   5.076   5.128   6.384
14621TIP3    H243807   5.142   5.076   6.510
14622TIP3   OH243808   0.879   0.481   0.600
14622TIP3    H143809   0.881   0.441   0.687
14622TIP3    H243810   0.902   0.572   0.615
14623TIP3   OH243811   6.530   3.212   1.985
14623TIP3    H143812   6.586   3.205   1.907
14623TIP3    H243813   6.523   3.306   2.001
14624TIP3   OH243814   0.168   2.646   5.786
14624TIP3    H143815   0.215   2.706   5.844
14624TIP3    H243816   0.086   2.628   5.832
14625TIP3   OH243817   5.885   2.064   4.638
14625TIP3    H143818   5.838   2.052   4.721
14625TIP3    H243819   5.829   2.123   4.587
14626TIP3   OH243820   4.712   7.463   2.502
14626TIP3    H143821   4.725   7.374   2.534
14626TIP3    H243822   4.799   7.491   2.474
14627TIP3   OH243823   0.616   3.123   5.867
14627TIP3    H143824   0.524   3.149   5.856
14627TIP3    H243825   0.634   3.066   5.793
14628TIP3   OH243826   3.625   7.812   3.592
14628TIP3    H143827   3.671   7.738   3.633
14628TIP3    H243828   3.689   7.883   3.593
14629TIP3   OH243829   2.765   2.743   0.019
14629TIP3    H143830   2.691   2.688   0.046
14629TIP3    H243831   2.834   2.722   0.081
14630TIP3   OH243832   2.593   6.130   5.879
14630TIP3    H143833   2.569   6.211   5.834
14630TIP3    H243834   2.528   6.067   5.849
14631TIP3   OH243835   5.605   5.946   2.821
14631TIP3    H143836   5.622   5.918   2.731
14631TIP3    H243837   5.675   5.905   2.872
14632TIP3   OH243838   2.606   7.454   5.675
14632TIP3    H143839   2.695   7.479   5.649
14632TIP3    H243840   2.584   7.516   5.745
14633TIP3   OH243841   6.506   7.093   6.356
14633TIP3    H143842   6.537   7.003   6.348
14633TIP3    H243843   6.414   7.084   6.380
14634TIP3   OH243844   0.223   5.359   5.154
14634TIP3    H143845   0.238   5.430   5.216
14634TIP3    H243846   0.184   5.289   5.206
14635TIP3   OH243847   3.370   2.361   4.404
14635TIP3    H143848   3.345   2.336   4.493
14635TIP3    H243849   3.342   2.288   4.350
14636TIP3   OH243850   7.530   0.864   4.204
14636TIP3    H143851   7.621   0.895   4.198
14636TIP3    H243852   7.513   0.824   4.119
14637TIP3   OH243853   0.468   6.581   5.530
14637TIP3    H143854   0.442   6.606   5.618
14637TIP3    H243855   0.534   6.646   5.505
14638TIP3   OH243856   3.421   6.117   4.835
14638TIP3    H143857   3.433   6.104   4.930
14638TIP3    H243858   3.400   6.030   4.802
14639TIP3   OH243859   6.597   6.686   0.318
14639TIP3    H143860   6.591   6.770   0.363
14639TIP3    H243861   6.666   6.699   0.252
14640TIP3   OH243862   3.972   0.895   2.289
14640TIP3    H143863   4.016   0.881   2.205
14640TIP3    H243864   3.895   0.838   2.285
14641TIP3   OH243865   0.483   0.899   2.463
14641TIP3    H143866   0.553   0.955   2.429
14641TIP3    H243867   0.412   0.960   2.484
14642TIP3   OH243868   4.637   2.044   6.425
14642TIP3    H143869   4.710   1.999   6.383
14642TIP3    H243870   4.617   1.993   6.503
14643TIP3   OH243871   6.975   4.307   6.120
14643TIP3    H143872   6.946   4.328   6.031
14643TIP3    H243873   6.895   4.302   6.171
14644TIP3   OH243874   7.894   6.116   1.978
14644TIP3    H143875   7.863   6.143   1.891
14644TIP3    H243876   7.972   6.169   1.994
14645TIP3   OH243877   2.577   6.621   2.138
14645TIP3    H143878   2.586   6.639   2.044
14645TIP3    H243879   2.667   6.606   2.167
14646TIP3   OH243880   2.711   5.712   0.372
14646TIP3    H143881   2.728   5.631   0.325
14646TIP3    H243882   2.704   5.685   0.464
14647TIP3   OH243883   3.635   5.066   2.792
14647TIP3    H143884   3.546   5.100   2.782
14647TIP3    H243885   3.680   5.094   2.713
14648TIP3   OH243886   4.135   5.532   6.390
14648TIP3    H143887   4.208   5.471   6.401
14648TIP3    H243888   4.168   5.615   6.426
14649TIP3   OH243889   0.028   0.806   5.424
14649TIP3    H143890   0.123   0.797   5.432
14649TIP3    H243891  -0.006   0.771   5.506
14650TIP3   OH243892   4.152   0.609   2.143
14650TIP3    H143893   4.058   0.620   2.155
14650TIP3    H243894   4.172   0.524   2.183
14651TIP3   OH243895   5.745   6.277   1.924
14651TIP3    H143896   5.690   6.352   1.905
14651TIP3    H243897   5.683   6.204   1.936
14652TIP3   OH243898   4.696   4.879   4.739
14652TIP3    H143899   4.668   4.824   4.811
14652TIP3    H243900   4.791   4.887   4.750
14653TIP3   OH243901   3.740   4.071   1.192
14653TIP3    H143902   3.726   4.016   1.269
14653TIP3    H243903   3.740   4.010   1.118
14654TIP3   OH243904   0.404   7.090   3.379
14654TIP3    H143905   0.388   7.183   3.363
14654TIP3    H243906   0.420   7.084   3.473
14655TIP3   OH243907   3.209   1.859   2.776
14655TIP3    H143908   3.226   1.784   2.718
14655TIP3    H243909   3.250   1.835   2.859
14656TIP3   OH243910   1.802   7.565   4.912
14656TIP3    H143911   1.780   7.568   4.819
14656TIP3    H243912   1.869   7.497   4.919
14657TIP3   OH243913   0.840   4.345   5.912
14657TIP3    H143914   0.815   4.373   5.823
14657TIP3    H243915   0.844   4.427   5.962
14658TIP3   OH243916   2.869   3.487   6.132
14658TIP3    H143917   2.895   3.474   6.224
14658TIP3    H243918   2.802   3.555   6.135
14659TIP3   OH243919   1.891   0.662   6.693
14659TIP3    H143920   1.921   0.702   6.612
14659TIP3    H243921   1.964   0.606   6.720
14660TIP3   OH243922   7.862   2.055   2.167
14660TIP3    H143923   7.861   2.140   2.211
14660TIP3    H243924   7.773   2.044   2.133
14661TIP3   OH243925   3.181   1.343   0.791
14661TIP3    H143926   3.232   1.326   0.870
14661TIP3    H243927   3.208   1.431   0.764
14662TIP3   OH243928   1.243   6.644   3.350
14662TIP3    H143929   1.275   6.725   3.390
14662TIP3    H243930   1.285   6.641   3.264
14663TIP3   OH243931   7.444   4.887   2.919
14663TIP3    H143932   7.431   4.942   2.996
14663TIP3    H243933   7.472   4.948   2.850
14664TIP3   OH243934   7.050   4.104   1.323
14664TIP3    H143935   7.034   4.170   1.255
14664TIP3    H243936   7.081   4.154   1.398
14665TIP3   OH243937   4.016   5.383   0.963
14665TIP3    H143938   4.041   5.430   0.883
14665TIP3    H243939   3.938   5.334   0.939
14666TIP3   OH243940   0.687   4.735   6.486
14666TIP3    H143941   0.707   4.684   6.407
14666TIP3    H243942   0.719   4.680   6.558
14667TIP3   OH243943   1.375   5.783   1.206
14667TIP3    H143944   1.330   5.731   1.272
14667TIP3    H243945   1.316   5.783   1.130
14668TIP3   OH243946   5.206   6.805   4.717
14668TIP3    H143947   5.186   6.825   4.808
14668TIP3    H243948   5.169   6.878   4.668
14669TIP3   OH243949   0.318   0.507   4.468
14669TIP3    H143950   0.316   0.565   4.392
14669TIP3    H243951   0.385   0.442   4.447
14670TIP3   OH243952   7.156   2.149   0.637
14670TIP3    H143953   7.078   2.204   0.626
14670TIP3    H243954   7.227   2.211   0.652
14671TIP3   OH243955   5.318   0.645   2.434
14671TIP3    H143956   5.250   0.578   2.444
14671TIP3    H243957   5.332   0.678   2.522
14672TIP3   OH243958   0.244   3.068   4.502
14672TIP3    H143959   0.277   3.148   4.462
14672TIP3    H243960   0.160   3.052   4.459
14673TIP3   OH243961   0.015   7.506   2.867
14673TIP3    H143962   0.093   7.480   2.915
14673TIP3    H243963  -0.045   7.432   2.874
14674TIP3   OH243964   8.073   5.472   3.070
14674TIP3    H143965   8.080   5.529   2.993
14674TIP3    H243966   8.135   5.508   3.133
14675TIP3   OH243967   3.102   3.454   6.354
14675TIP3    H143968   3.169   3.505   6.309
14675TIP3    H243969   3.109   3.366   6.316
14676TIP3   OH243970   1.914   7.815   0.095
14676TIP3    H143971   1.823   7.810   0.124
14676TIP3    H243972   1.939   7.725   0.076
14677TIP3   OH243973   5.565   7.274   4.294
14677TIP3    H143974   5.540   7.189   4.258
14677TIP3    H243975   5.486   7.328   4.286
14678TIP3   OH243976   6.517   3.034   4.545
14678TIP3    H143977   6.562   3.057   4.463
14678TIP3    H243978   6.444   3.095   4.550
14679TIP3   OH243979   2.493   1.191   2.025
14679TIP3    H143980   2.539   1.125   1.972
14679TIP3    H243981   2.546   1.271   2.013
14680TIP3   OH243982   6.837   4.174   1.646
14680TIP3    H143983   6.776   4.162   1.573
14680TIP3    H243984   6.913   4.217   1.607
14681TIP3   OH243985   4.478   1.710   2.830
14681TIP3    H143986   4.423   1.639   2.795
14681TIP3    H243987   4.477   1.697   2.924
14682TIP3   OH243988   2.226   2.972   3.660
14682TIP3    H143989   2.306   3.023   3.658
14682TIP3    H243990   2.249   2.893   3.709
14683TIP3   OH243991   1.855   2.103   3.170
14683TIP3    H143992   1.791   2.049   3.125
14683TIP3    H243993   1.830   2.098   3.263
14684TIP3   OH243994   5.663   4.987   6.637
14684TIP3    H143995   5.752   5.018   6.651
14684TIP3    H243996   5.668   4.892   6.648
14685TIP3   OH243997   7.885   6.872   1.600
14685TIP3    H143998   7.839   6.864   1.516
14685TIP3    H243999   7.956   6.934   1.583
14686TIP3   OH244000   3.752   2.714   5.152
14686TIP3    H144001   3.687   2.768   5.196
14686TIP3    H244002   3.744   2.628   5.194
14687TIP3   OH244003   0.676   5.685   6.750
14687TIP3    H144004   0.719   5.759   6.705
14687TIP3    H244005   0.604   5.725   6.798
14688TIP3   OH244006   3.215   4.918   0.632
14688TIP3    H144007   3.310   4.920   0.645
14688TIP3    H244008   3.192   5.009   0.611
14689TIP3   OH244009   8.005   2.392   0.297
14689TIP3    H144010   7.972   2.425   0.214
14689TIP3    H244011   8.075   2.452   0.321
14690TIP3   OH244012   5.694   4.902   5.643
14690TIP3    H144013   5.746   4.952   5.580
14690TIP3    H244014   5.618   4.957   5.660
14691TIP3   OH244015   3.007   4.998   4.676
14691TIP3    H144016   3.061   5.073   4.704
14691TIP3    H244017   3.003   5.005   4.581
14692TIP3   OH244018   5.700   2.355   1.402
14692TIP3    H144019   5.748   2.416   1.458
14692TIP3    H244020   5.714   2.269   1.442
14693TIP3   OH244021   0.158   7.519   4.626
14693TIP3    H144022   0.107   7.586   4.580
14693TIP3    H244023   0.226   7.568   4.672
14694TIP3   OH244024   4.404   0.733   4.775
14694TIP3    H144025   4.451   0.649   4.775
14694TIP3    H244026   4.442   0.782   4.702
14695TIP3   OH244027   3.766   4.341   1.663
14695TIP3    H144028   3.746   4.379   1.578
14695TIP3    H244029   3.681   4.308   1.695
14696TIP3   OH244030   6.392   6.970   0.170
14696TIP3    H144031   6.408   6.985   0.076
14696TIP3    H244032   6.404   7.057   0.209
14697TIP3   OH244033   5.223   3.977   6.142
14697TIP3    H144034   5.180   3.966   6.057
14697TIP3    H244035   5.260   3.891   6.161
14698TIP3   OH244036   7.340   6.071   6.476
14698TIP3    H144037   7.396   6.107   6.544
14698TIP3    H244038   7.300   6.147   6.435
14699TIP3   OH244039   4.804   3.413   0.567
14699TIP3    H144040   4.788   3.376   0.654
14699TIP3    H244041   4.822   3.337   0.512
14700TIP3   OH244042   5.316   4.123   5.092
14700TIP3    H144043   5.390   4.133   5.153
14700TIP3    H244044   5.340   4.047   5.040
14701TIP3   OH244045   2.208   5.723   3.322
14701TIP3    H144046   2.222   5.817   3.326
14701TIP3    H244047   2.160   5.701   3.402
14702TIP3   OH244048   8.206   3.479   4.055
14702TIP3    H144049   8.214   3.419   4.130
14702TIP3    H244050   8.225   3.565   4.091
14703TIP3   OH244051   6.220   2.198   1.218
14703TIP3    H144052   6.220   2.288   1.249
14703TIP3    H244053   6.133   2.164   1.242
14704TIP3   OH244054   5.462   6.185   4.292
14704TIP3    H144055   5.519   6.154   4.221
14704TIP3    H244056   5.481   6.278   4.299
14705TIP3   OH244057   7.930   5.674   0.786
14705TIP3    H144058   7.866   5.725   0.737
14705TIP3    H244059   7.939   5.593   0.736
14706TIP3   OH244060   7.333   0.728   3.606
14706TIP3    H144061   7.297   0.725   3.517
14706TIP3    H244062   7.388   0.650   3.612
14707TIP3   OH244063   3.115   4.347   3.289
14707TIP3    H144064   3.178   4.368   3.219
14707TIP3    H244065   3.133   4.256   3.311
14708TIP3   OH244066   0.498   6.149   0.097
14708TIP3    H144067   0.442   6.072   0.090
14708TIP3    H244068   0.535   6.161   0.010
14709TIP3   OH244069   2.382   5.575   0.515
14709TIP3    H144070   2.456   5.616   0.559
14709TIP3    H244071   2.408   5.570   0.423
14710TIP3   OH244072   3.138   6.497   5.329
14710TIP3    H144073   3.212   6.485   5.390
14710TIP3    H244074   3.060   6.484   5.383
14711TIP3   OH244075   4.107   0.431   0.257
14711TIP3    H144076   4.114   0.340   0.287
14711TIP3    H244077   4.067   0.425   0.170
14712TIP3   OH244078   0.519   3.918   2.564
14712TIP3    H144079   0.516   3.968   2.482
14712TIP3    H244080   0.466   3.840   2.545
14713TIP3   OH244081   6.713   0.540   2.067
14713TIP3    H144082   6.678   0.516   2.153
14713TIP3    H244083   6.806   0.519   2.073
14714TIP3   OH244084   6.179  -0.010   1.705
14714TIP3    H144085   6.157   0.083   1.703
14714TIP3    H244086   6.264  -0.016   1.661
14715TIP3   OH244087   3.397   6.410   5.038
14715TIP3    H144088   3.467   6.352   5.007
14715TIP3    H244089   3.430   6.443   5.122
14716TIP3   OH244090   4.282   5.188   5.485
14716TIP3    H144091   4.202   5.200   5.536
14716TIP3    H244092   4.311   5.100   5.506
14717TIP3   OH244093   0.025   6.847   2.110
14717TIP3    H144094   0.076   6.796   2.173
14717TIP3    H244095  -0.024   6.781   2.060
14718TIP3   OH244096   5.028   6.035   2.614
14718TIP3    H144097   5.094   6.042   2.683
14718TIP3    H244098   5.071   5.989   2.543
14719TIP3   OH244099   1.972   7.131   4.339
14719TIP3    H144100   1.976   7.045   4.297
14719TIP3    H244101   1.879   7.149   4.349
14720TIP3   OH244102   8.141   5.416   3.892
14720TIP3    H144103   8.079   5.344   3.880
14720TIP3    H244104   8.227   5.375   3.886
14721TIP3   OH244105   7.896   0.339   6.214
14721TIP3    H144106   7.932   0.251   6.208
14721TIP3    H244107   7.844   0.349   6.134
14722TIP3   OH244108   0.094   5.658   5.550
14722TIP3    H144109   0.041   5.653   5.630
14722TIP3    H244110   0.087   5.749   5.522
14723TIP3   OH244111   7.354   0.540   2.003
14723TIP3    H144112   7.443   0.575   2.012
14723TIP3    H244113   7.337   0.541   1.909
14724TIP3   OH244114   6.643   4.260   1.440
14724TIP3    H144115   6.551   4.263   1.468
14724TIP3    H244116   6.678   4.346   1.464
14725TIP3   OH244117   1.450   2.762   4.091
14725TIP3    H144118   1.424   2.854   4.082
14725TIP3    H244119   1.544   2.762   4.072
14726TIP3   OH244120   5.021   0.195   2.428
14726TIP3    H144121   5.108   0.160   2.446
14726TIP3    H244122   4.978   0.128   2.376
14727TIP3   OH244123   7.458   6.307   3.296
14727TIP3    H144124   7.465   6.292   3.202
14727TIP3    H244125   7.457   6.220   3.335
14728TIP3   OH244126   4.722   4.095   3.345
14728TIP3    H144127   4.751   4.024   3.288
14728TIP3    H244128   4.661   4.146   3.292
14729TIP3   OH244129   4.473   7.032   5.266
14729TIP3    H144130   4.461   7.094   5.193
14729TIP3    H244131   4.387   6.994   5.280
14730TIP3   OH244132   6.290   2.594   3.617
14730TIP3    H144133   6.284   2.616   3.524
14730TIP3    H244134   6.348   2.660   3.653
14731TIP3   OH244135   5.425   5.218   1.481
14731TIP3    H144136   5.341   5.218   1.434
14731TIP3    H244137   5.491   5.221   1.412
14732TIP3   OH244138   2.689   0.172   0.821
14732TIP3    H144139   2.764   0.163   0.881
14732TIP3    H244140   2.622   0.114   0.857
14733TIP3   OH244141   4.955   2.022   1.207
14733TIP3    H144142   4.968   2.076   1.285
14733TIP3    H244143   4.938   1.934   1.241
14734TIP3   OH244144   3.586   5.690   4.162
14734TIP3    H144145   3.491   5.686   4.165
14734TIP3    H244146   3.614   5.601   4.187
14735TIP3   OH244147   3.792   4.931   5.839
14735TIP3    H144148   3.769   5.013   5.796
14735TIP3    H244149   3.715   4.910   5.893
14736TIP3   OH244150   1.771   7.674   0.359
14736TIP3    H144151   1.804   7.656   0.447
14736TIP3    H244152   1.749   7.767   0.360
14737TIP3   OH244153   1.764   4.158   3.058
14737TIP3    H144154   1.733   4.075   3.022
14737TIP3    H244155   1.712   4.170   3.138
14738TIP3   OH244156   5.901   6.268   5.719
14738TIP3    H144157   5.925   6.282   5.811
14738TIP3    H244158   5.881   6.174   5.714
14739TIP3   OH244159   0.460   0.747   6.218
14739TIP3    H144160   0.482   0.833   6.180
14739TIP3    H244161   0.476   0.685   6.147
14740TIP3   OH244162   4.781   0.859   2.663
14740TIP3    H144163   4.722   0.927   2.631
14740TIP3    H244164   4.817   0.895   2.744
14741TIP3   OH244165   0.361   0.320   0.609
14741TIP3    H144166   0.450   0.287   0.596
14741TIP3    H244167   0.370   0.386   0.678
14742TIP3   OH244168   6.493   2.389   5.966
14742TIP3    H144169   6.413   2.354   5.928
14742TIP3    H244170   6.471   2.404   6.058
14743TIP3   OH244171   8.148   7.237   2.110
14743TIP3    H144172   8.233   7.215   2.072
14743TIP3    H244173   8.163   7.322   2.152
14744TIP3   OH244174   3.958   1.407   0.431
14744TIP3    H144175   4.015   1.425   0.356
14744TIP3    H244176   3.925   1.319   0.416
14745TIP3   OH244177   1.464   0.110   3.569
14745TIP3    H144178   1.541   0.062   3.538
14745TIP3    H244179   1.430   0.057   3.641
14746TIP3   OH244180   4.530   4.523   3.462
14746TIP3    H144181   4.457   4.462   3.472
14746TIP3    H244182   4.491   4.609   3.471
14747TIP3   OH244183   6.000   5.090   6.551
14747TIP3    H144184   6.009   5.130   6.465
14747TIP3    H244185   6.051   5.146   6.610
14748TIP3   OH244186   1.970   7.314   5.089
14748TIP3    H144187   1.994   7.364   5.167
14748TIP3    H244188   2.050   7.311   5.037
14749TIP3   OH244189   1.033   0.240   3.091
14749TIP3    H144190   1.091   0.166   3.107
14749TIP3    H244191   1.002   0.265   3.179
14750TIP3   OH244192   6.259   1.834   0.735
14750TIP3    H144193   6.336   1.867   0.690
14750TIP3    H244194   6.236   1.754   0.688
14751TIP3   OH244195   0.769   3.410   6.566
14751TIP3    H144196   0.815   3.362   6.497
14751TIP3    H244197   0.706   3.465   6.519
14752TIP3   OH244198   1.081   4.378   2.721
14752TIP3    H144199   1.081   4.284   2.739
14752TIP3    H244200   1.108   4.385   2.629
14753TIP3   OH244201   3.930   2.096   5.051
14753TIP3    H144202   3.957   2.183   5.081
14753TIP3    H244203   3.958   2.037   5.120
14754TIP3   OH244204   3.842   1.993   3.495
14754TIP3    H144205   3.809   1.906   3.475
14754TIP3    H244206   3.831   2.042   3.414
14755TIP3   OH244207   2.133   6.312   2.754
14755TIP3    H144208   2.180   6.246   2.703
14755TIP3    H244209   2.115   6.269   2.837
14756TIP3   OH244210   7.670   4.105   6.698
14756TIP3    H144211   7.722   4.150   6.632
14756TIP3    H244212   7.733   4.080   6.766
14757TIP3   OH244213   4.530   0.704   5.773
14757TIP3    H144214   4.617   0.742   5.767
14757TIP3    H244215   4.511   0.672   5.685
14758TIP3   OH244216   6.386   4.819   5.701
14758TIP3    H144217   6.385   4.882   5.629
14758TIP3    H244218   6.308   4.840   5.753
14759TIP3   OH244219   7.560   1.905   5.988
14759TIP3    H144220   7.528   1.866   6.069
14759TIP3    H244221   7.621   1.841   5.953
14760TIP3   OH244222   6.661   5.576   1.813
14760TIP3    H144223   6.621   5.624   1.886
14760TIP3    H244224   6.745   5.619   1.800
14761TIP3   OH244225   8.029   1.405   0.053
14761TIP3    H144226   8.061   1.390   0.142
14761TIP3    H244227   7.985   1.490   0.057
14762TIP3   OH244228   7.023   1.992   2.459
14762TIP3    H144229   7.055   1.961   2.374
14762TIP3    H244230   6.982   1.916   2.499
14763TIP3   OH244231   3.183   1.901   5.568
14763TIP3    H144232   3.109   1.840   5.576
14763TIP3    H244233   3.203   1.925   5.659
14764TIP3   OH244234   5.397   3.921   2.239
14764TIP3    H144235   5.319   3.872   2.266
14764TIP3    H244236   5.362   3.998   2.194
14765TIP3   OH244237   7.560   4.900   1.011
14765TIP3    H144238   7.610   4.936   1.084
14765TIP3    H244239   7.498   4.840   1.052
14766TIP3   OH244240   7.970   3.163   2.541
14766TIP3    H144241   7.945   3.232   2.480
14766TIP3    H244242   7.895   3.154   2.600
14767TIP3   OH244243   1.633   5.426   3.833
14767TIP3    H144244   1.561   5.469   3.788
14767TIP3    H244245   1.600   5.339   3.856
14768TIP3   OH244246   0.463   0.099   6.724
14768TIP3    H144247   0.521   0.161   6.679
14768TIP3    H244248   0.507   0.080   6.806
14769TIP3   OH244249   0.884   6.092   4.353
14769TIP3    H144250   0.941   6.084   4.430
14769TIP3    H244251   0.944   6.106   4.280
14770TIP3   OH244252   6.609   2.587   6.695
14770TIP3    H144253   6.527   2.627   6.721
14770TIP3    H244254   6.663   2.590   6.774
14771TIP3   OH244255   5.909   3.073   1.976
14771TIP3    H144256   5.897   3.147   2.035
14771TIP3    H244257   5.899   3.110   1.889
14772TIP3   OH244258   6.396   4.868   4.694
14772TIP3    H144259   6.316   4.913   4.665
14772TIP3    H244260   6.429   4.922   4.766
14773TIP3   OH244261   0.967   1.073   3.344
14773TIP3    H144262   1.060   1.061   3.322
14773TIP3    H244263   0.938   0.986   3.372
14774TIP3   OH244264   0.884   0.826   6.256
14774TIP3    H144265   0.865   0.915   6.226
14774TIP3    H244266   0.852   0.823   6.346
14775TIP3   OH244267   1.730   4.917   6.522
14775TIP3    H144268   1.747   4.903   6.429
14775TIP3    H244269   1.814   4.949   6.557
14776TIP3   OH244270   6.348   2.233   0.105
14776TIP3    H144271   6.288   2.308   0.107
14776TIP3    H244272   6.304   2.170   0.047
14777TIP3   OH244273   5.343   6.201   0.355
14777TIP3    H144274   5.319   6.155   0.435
14777TIP3    H244275   5.396   6.275   0.385
14778TIP3   OH244276   2.224   1.348   1.152
14778TIP3    H144277   2.240   1.318   1.242
14778TIP3    H244278   2.311   1.374   1.120
14779TIP3   OH244279   4.849   5.941   6.522
14779TIP3    H144280   4.875   5.877   6.589
14779TIP3    H244281   4.854   5.892   6.440
14780TIP3   OH244282   0.420   6.402   2.977
14780TIP3    H144283   0.363   6.357   2.915
14780TIP3    H244284   0.383   6.490   2.984
14781TIP3   OH244285   8.194   1.721   0.480
14781TIP3    H144286   8.284   1.701   0.503
14781TIP3    H244287   8.184   1.814   0.497
14782TIP3   OH244288   4.408   2.519   4.073
14782TIP3    H144289   4.367   2.553   3.993
14782TIP3    H244290   4.452   2.595   4.111
14783TIP3   OH244291   5.376   7.575   6.482
14783TIP3    H144292   5.282   7.586   6.494
14783TIP3    H244293   5.416   7.624   6.554
14784TIP3   OH244294   5.633   3.833   0.160
14784TIP3    H144295   5.716   3.795   0.187
14784TIP3    H244296   5.656   3.896   0.091
14785TIP3   OH244297   3.985   3.526   4.133
14785TIP3    H144298   3.928   3.598   4.105
14785TIP3    H244299   4.073   3.554   4.105
14786TIP3   OH244300   7.361   1.962   1.304
14786TIP3    H144301   7.432   1.897   1.305
14786TIP3    H244302   7.377   2.015   1.382
14787TIP3   OH244303   1.110   3.060   2.614
14787TIP3    H144304   1.202   3.070   2.592
14787TIP3    H244305   1.076   2.999   2.549
14788TIP3   OH244306   4.474   2.488   4.635
14788TIP3    H144307   4.541   2.432   4.673
14788TIP3    H244308   4.482   2.571   4.681
14789TIP3   OH244309   1.730   0.805   2.825
14789TIP3    H144310   1.657   0.868   2.829
14789TIP3    H244311   1.767   0.818   2.738
14790TIP3   OH244312   7.937   1.443   4.160
14790TIP3    H144313   7.932   1.381   4.234
14790TIP3    H244314   7.893   1.397   4.088
14791TIP3   OH244315   8.190   1.595   5.381
14791TIP3    H144316   8.132   1.524   5.408
14791TIP3    H244317   8.132   1.669   5.366
14792TIP3   OH244318   4.377   6.461   6.635
14792TIP3    H144319   4.407   6.547   6.665
14792TIP3    H244320   4.444   6.400   6.664
14793TIP3   OH244321   2.080   2.267   4.029
14793TIP3    H144322   2.020   2.309   4.090
14793TIP3    H244323   2.101   2.183   4.069
14794TIP3   OH244324   2.425   5.760   0.786
14794TIP3    H144325   2.339   5.720   0.771
14794TIP3    H244326   2.423   5.786   0.878
14795TIP3   OH244327   0.063   4.579   3.771
14795TIP3    H144328  -0.021   4.569   3.816
14795TIP3    H244329   0.122   4.613   3.838
14796TIP3   OH244330   2.619   0.078   2.483
14796TIP3    H144331   2.586   0.126   2.559
14796TIP3    H244332   2.556   0.008   2.469
14797TIP3   OH244333   0.043   7.496   0.686
14797TIP3    H144334   0.086   7.453   0.612
14797TIP3    H244335   0.071   7.587   0.680
14798TIP3   OH244336   3.104   7.175   1.851
14798TIP3    H144337   3.081   7.234   1.779
14798TIP3    H244338   3.086   7.226   1.930
14799TIP3   OH244339   5.543   4.463   3.716
14799TIP3    H144340   5.462   4.501   3.750
14799TIP3    H244341   5.528   4.455   3.622
14800TIP3   OH244342   4.558   5.602   3.727
14800TIP3    H144343   4.591   5.515   3.747
14800TIP3    H244344   4.615   5.633   3.657
14801TIP3   OH244345   3.933   1.117   2.476
14801TIP3    H144346   3.926   1.048   2.410
14801TIP3    H244347   3.852   1.166   2.467
14802TIP3   OH244348   5.019   0.715   1.862
14802TIP3    H144349   4.970   0.632   1.869
14802TIP3    H244350   4.951   0.781   1.851
14803TIP3   OH244351   8.233   5.461   2.336
14803TIP3    H144352   8.162   5.482   2.275
14803TIP3    H244353   8.306   5.436   2.279
14804TIP3   OH244354   4.398   3.934   0.594
14804TIP3    H144355   4.306   3.905   0.592
14804TIP3    H244356   4.423   3.928   0.686
14805TIP3   OH244357   1.028   3.407   0.103
14805TIP3    H144358   1.086   3.471   0.145
14805TIP3    H244359   0.944   3.453   0.094
14806TIP3   OH244360   6.262   1.945   6.067
14806TIP3    H144361   6.174   1.944   6.031
14806TIP3    H244362   6.253   1.911   6.156
14807TIP3   OH244363   5.497   6.362   1.366
14807TIP3    H144364   5.489   6.294   1.299
14807TIP3    H244365   5.460   6.440   1.325
14808TIP3   OH244366   5.897   5.808   5.366
14808TIP3    H144367   5.944   5.880   5.324
14808TIP3    H244368   5.948   5.787   5.444
14809TIP3   OH244369   6.545   5.078   4.572
14809TIP3    H144370   6.504   4.992   4.562
14809TIP3    H244371   6.473   5.140   4.563
14810TIP3   OH244372   0.848   7.712   0.791
14810TIP3    H144373   0.793   7.705   0.869
14810TIP3    H244374   0.933   7.740   0.825
14811TIP3   OH244375   3.642   1.002   4.616
14811TIP3    H144376   3.705   1.066   4.584
14811TIP3    H244377   3.642   0.933   4.550
14812TIP3   OH244378   3.999   2.471   4.679
14812TIP3    H144379   4.089   2.444   4.699
14812TIP3    H244380   3.948   2.439   4.753
14813TIP3   OH244381   6.137   2.168   0.441
14813TIP3    H144382   6.174   2.094   0.393
14813TIP3    H244383   6.071   2.204   0.382
14814TIP3   OH244384   3.913   0.511   2.014
14814TIP3    H144385   4.007   0.495   2.019
14814TIP3    H244386   3.873   0.424   2.020
14815TIP3   OH244387   7.903   5.016   1.454
14815TIP3    H144388   7.815   5.022   1.490
14815TIP3    H244389   7.908   5.087   1.391
14816TIP3   OH244390   5.017   3.002   4.329
14816TIP3    H144391   4.993   3.040   4.413
14816TIP3    H244392   4.938   3.008   4.276
14817TIP3   OH244393   4.013   1.075   5.621
14817TIP3    H144394   4.027   0.992   5.577
14817TIP3    H244395   4.094   1.090   5.670
14818TIP3   OH244396   5.216   4.337   3.838
14818TIP3    H144397   5.155   4.342   3.912
14818TIP3    H244398   5.172   4.381   3.766
14819TIP3   OH244399   2.359   4.770   3.545
14819TIP3    H144400   2.361   4.744   3.637
14819TIP3    H244401   2.438   4.731   3.508
14820TIP3   OH244402   6.402   0.751   6.583
14820TIP3    H144403   6.433   0.823   6.529
14820TIP3    H244404   6.326   0.788   6.630
14821TIP3   OH244405   7.153   7.711   3.453
14821TIP3    H144406   7.216   7.780   3.431
14821TIP3    H244407   7.171   7.641   3.390
14822TIP3   OH244408   2.669   4.785   4.317
14822TIP3    H144409   2.735   4.717   4.326
14822TIP3    H244410   2.668   4.830   4.401
14823TIP3   OH244411   6.411   6.333   3.840
14823TIP3    H144412   6.375   6.327   3.751
14823TIP3    H244413   6.480   6.267   3.842
14824TIP3   OH244414   0.194   0.422   3.491
14824TIP3    H144415   0.110   0.430   3.445
14824TIP3    H244416   0.223   0.512   3.503
14825TIP3   OH244417   0.226   7.822   5.830
14825TIP3    H144418   0.250   7.733   5.805
14825TIP3    H244419   0.308   7.871   5.828
14826TIP3   OH244420   3.591   2.014   2.841
14826TIP3    H144421   3.681   2.045   2.852
14826TIP3    H244422   3.588   1.932   2.890
14827TIP3   OH244423   3.703   0.328   6.561
14827TIP3    H144424   3.621   0.372   6.585
14827TIP3    H244425   3.694   0.312   6.467
14828TIP3   OH244426   0.228   7.244   2.704
14828TIP3    H144427   0.212   7.215   2.614
14828TIP3    H244428   0.275   7.326   2.695
14829TIP3   OH244429   3.463   3.305   0.186
14829TIP3    H144430   3.417   3.236   0.233
14829TIP3    H244431   3.411   3.318   0.106
14830TIP3   OH244432   8.164   6.884   3.966
14830TIP3    H144433   8.165   6.974   3.998
14830TIP3    H244434   8.176   6.830   4.045
   8.30481   7.82985   6.78085   0.00000   0.00000  -2.76827   0.00000  -2.76827  -3.91492
