* GENERATED BY CHARMM-GUI (HTTP://WWW.CHARMM-GUI.ORG) V3.7 ON JUN, 13. 2026. JOB
* GENERATES IONS
*  DATE:     6/13/26     12:57:48      CREATED BY USER: charmm-gui
*
       133  EXT
         1         1  GLY       N              18.5185047354       -0.2590109939       -0.4183249150  PROA      1              96.2000000000
         2         1  GLY       HT1            19.3031456926       -0.0891414878        0.2427975541  PROA      1               0.0000000000
         3         1  GLY       HT2            18.2059259210        0.6456477688       -0.8251254115  PROA      1               0.0000000000
         4         1  GLY       HT3            18.8382268197       -0.8895097390       -1.1811150285  PROA      1               0.0000000000
         5         1  GLY       CA             17.4112059587       -0.8797116904        0.2916040002  PROA      1              96.7700000000
         6         1  GLY       HA1            17.2210873437       -0.2906992466        1.1766019470  PROA      1               0.0000000000
         7         1  GLY       HA2            17.7180206460       -1.8789526314        0.5630527099  PROA      1               0.0000000000
         8         1  GLY       C              16.1414483577       -0.9580788321       -0.5339498901  PROA      1              97.1100000000
         9         1  GLY       O              16.0345860699       -0.3156893241       -1.5809136772  PROA      1              96.2900000000
        10         2  SER       N              15.3051363949       -1.6542282699       -0.2575963826  PROA      2              97.9900000000
        11         2  SER       HN             15.3905278479       -2.2886978135        0.5061418028  PROA      2               0.0000000000
        12         2  SER       CA             14.0329802862       -1.7037581165       -0.9702580341  PROA      2              98.0300000000
        13         2  SER       HA             14.2382988396       -1.6296868135       -2.0278610690  PROA      2               0.0000000000
        14         2  SER       CB             13.2958979465       -3.0074538919       -0.6618120101  PROA      2              97.6300000000
        15         2  SER       HB1            12.3192727274       -3.0178849469       -1.1912681279  PROA      2               0.0000000000
        16         2  SER       HB2            13.1240610766       -3.0886587668        0.4327688525  PROA      2               0.0000000000
        17         2  SER       OG             14.0553554123       -4.1270641394       -1.0869511065  PROA      2              91.8800000000
        18         2  SER       HG1            13.4729378083       -4.8863598125       -1.0104016747  PROA      2               0.0000000000
        19         2  SER       C              13.1497475491       -0.5140873983       -0.6080571032  PROA      2              98.2600000000
        20         2  SER       O              13.2821806649        0.0569750978        0.4765147457  PROA      2              98.0700000000
        21         3  GLY       N              12.4639060700       -0.0673116761       -1.5737107261  PROA      3              98.0300000000
        22         3  GLY       HN             12.5595940890       -0.3995734960       -2.5088325152  PROA      3               0.0000000000
        23         3  GLY       CA             11.4823040786        0.9797130476       -1.3403531499  PROA      3              97.9100000000
        24         3  GLY       HA1            10.9563541876        1.1519029159       -2.2677259583  PROA      3               0.0000000000
        25         3  GLY       HA2            12.0146101755        1.8710660060       -1.0429761386  PROA      3               0.0000000000
        26         3  GLY       C              10.4760234389        0.6231179915       -0.2614776983  PROA      3              98.1100000000
        27         3  GLY       O              10.4025940523       -0.5290905216        0.1693176912  PROA      3              97.8600000000
        28         4  ASP       N               9.8265244234        1.6763905738        0.0931670481  PROA      4              98.0100000000
        29         4  ASP       HN             10.0066154020        2.6052082865       -0.2172576956  PROA      4               0.0000000000
        30         4  ASP       CA              8.7408517509        1.4221088527        1.0360024814  PROA      4              98.0100000000
        31         4  ASP       HA              9.1393649123        0.8475188323        1.8589245417  PROA      4               0.0000000000
        32         4  ASP       CB              8.1514670035        2.7396349970        1.5432425414  PROA      4              97.7200000000
        33         4  ASP       HB1             7.2169901583        2.5234415288        2.1033210181  PROA      4               0.0000000000
        34         4  ASP       HB2             7.9134423951        3.3860632310        0.6719507913  PROA      4               0.0000000000
        35         4  ASP       CG              9.0957488972        3.4979135784        2.4596754622  PROA      4              95.4700000000
        36         4  ASP       OD1            10.0227717233        2.8802404169        3.0255646256  PROA      4              94.4400000000
        37         4  ASP       OD2             8.9089592999        4.7241400676        2.6184811409  PROA      4              93.9500000000
        38         4  ASP       C               7.6476469308        0.5692504717        0.3964551390  PROA      4              98.2700000000
        39         4  ASP       O               7.3774869699        0.6914603273       -0.8002717917  PROA      4              98.1300000000
        40         5  PRO       N               7.0223578341       -0.1660583266        1.0323053704  PROA      5              98.2800000000
        41         5  PRO       CD              7.2749954330       -0.3229419504        2.3293303401  PROA      5              96.7500000000
        42         5  PRO       HD1             7.0510924531        0.6208254505        2.8700943713  PROA      5               0.0000000000
        43         5  PRO       HD2             8.3418157035       -0.5967345398        2.4714124195  PROA      5               0.0000000000
        44         5  PRO       CA              5.8494353765       -0.8655936328        0.5046290833  PROA      5              98.2400000000
        45         5  PRO       HA              6.1191589504       -1.4543911019       -0.3573990804  PROA      5               0.0000000000
        46         5  PRO       CB              5.3540434323       -1.6773987597        1.7042958109  PROA      5              98.1400000000
        47         5  PRO       HB1             5.2993002212       -2.7581964020        1.4533870473  PROA      5               0.0000000000
        48         5  PRO       HB2             4.3482694872       -1.3321307858        2.0256746656  PROA      5               0.0000000000
        49         5  PRO       CG              6.3664924109       -1.4323408853        2.7761370790  PROA      5              97.3000000000
        50         5  PRO       HG1             5.8553931359       -1.1449733943        3.7197958675  PROA      5               0.0000000000
        51         5  PRO       HG2             6.9578149450       -2.3556743736        2.9552665939  PROA      5               0.0000000000
        52         5  PRO       C               4.7660735682        0.0892202092        0.0084771715  PROA      5              98.4300000000
        53         5  PRO       O               4.7134757026        1.2446015161        0.4367685443  PROA      5              98.3600000000
        54         6  GLY       N               4.0717323578       -0.5049710500       -0.9595212950  PROA      6              98.2000000000
        55         6  GLY       HN              4.2403607678       -1.4061657561       -1.3457691897  PROA      6               0.0000000000
        56         6  GLY       CA              2.9741657875        0.3173366617       -1.4427755251  PROA      6              98.1300000000
        57         6  GLY       HA1             2.4834468148       -0.2222480091       -2.2392247602  PROA      6               0.0000000000
        58         6  GLY       HA2             3.3932022435        1.2384526401       -1.8199252486  PROA      6               0.0000000000
        59         6  GLY       C               1.9552957371        0.6435024739       -0.3683837514  PROA      6              98.3900000000
        60         6  GLY       O               1.9498457845        0.0243753254        0.6978886678  PROA      6              98.3000000000
        61         7  ASN       N               1.0513309974        1.5642771659       -0.8902072043  PROA      7              98.1100000000
        62         7  ASN       HN              1.1346987585        2.0492596498       -1.7552458380  PROA      7               0.0000000000
        63         7  ASN       CA             -0.1042075135        1.7861219413       -0.0267463509  PROA      7              98.0400000000
        64         7  ASN       HA              0.2512868437        1.8948231880        0.9871432951  PROA      7               0.0000000000
        65         7  ASN       CB             -0.8661537228        3.0398091484       -0.4603145243  PROA      7              97.5000000000
        66         7  ASN       HB1            -1.8760980224        3.0264111646        0.0018500837  PROA      7               0.0000000000
        67         7  ASN       HB2            -0.9708670568        3.0343260134       -1.5661030085  PROA      7               0.0000000000
        68         7  ASN       CG             -0.1659565650        4.3201806543       -0.0496044721  PROA      7              92.7200000000
        69         7  ASN       OD1             0.8354400345        4.2912644312        0.6703717098  PROA      7              91.1900000000
        70         7  ASN       ND2            -0.6874034797        5.4532954131       -0.5054520986  PROA      7              91.4700000000
        71         7  ASN       HD21           -0.2671929073        6.3287408528       -0.2666669298  PROA      7               0.0000000000
        72         7  ASN       HD22           -1.5002621804        5.4310823475       -1.0874893074  PROA      7               0.0000000000
        73         7  ASN       C              -1.0355104943        0.5771563123       -0.0164572352  PROA      7              98.3500000000
        74         7  ASN       O              -1.0410575229       -0.2153840499       -0.9595919046  PROA      7              98.2200000000
        75         8  GLY       N              -1.7769127074        0.4261396728        1.0638088122  PROA      8              97.6100000000
        76         8  GLY       HN             -1.7076916260        1.0097116788        1.8690980402  PROA      8               0.0000000000
        77         8  GLY       CA             -2.7541284830       -0.6512742942        1.0900094178  PROA      8              97.5300000000
        78         8  GLY       HA1            -3.1782829440       -0.6883117016        2.0824882146  PROA      8               0.0000000000
        79         8  GLY       HA2            -2.2353185294       -1.5730177298        0.8720226994  PROA      8               0.0000000000
        80         8  GLY       C              -3.8723780414       -0.4651372858        0.0828381616  PROA      8              98.0400000000
        81         8  GLY       O              -4.0047339017        0.6034671713       -0.5167612383  PROA      8              97.9400000000
        82         9  ASP       N              -4.6734213201       -1.4077925180       -0.0691446628  PROA      9              97.5600000000
        83         9  ASP       HN             -4.5327244379       -2.2702562761        0.4086479654  PROA      9               0.0000000000
        84         9  ASP       CA             -5.8591170812       -1.3768635165       -0.9199366226  PROA      9              97.6800000000
        85         9  ASP       HA             -5.5614022598       -1.0261839867       -1.8969505925  PROA      9               0.0000000000
        86         9  ASP       CB             -6.4824223854       -2.7696306714       -1.0220549365  PROA      9              97.2700000000
        87         9  ASP       HB1            -7.4913825060       -2.6792449411       -1.4775690749  PROA      9               0.0000000000
        88         9  ASP       HB2            -6.5798793814       -3.1954434026       -0.0008552070  PROA      9               0.0000000000
        89         9  ASP       CG             -5.6598170475       -3.7281621788       -1.8648721215  PROA      9              95.0300000000
        90         9  ASP       OD1            -4.8270852963       -3.2672221305       -2.6753171242  PROA      9              94.6300000000
        91         9  ASP       OD2            -5.8474157011       -4.9553691496       -1.7188180354  PROA      9              93.7800000000
        92         9  ASP       C              -6.8869420849       -0.3783314966       -0.3935160997  PROA      9              98.1800000000
        93         9  ASP       O              -6.9657074102       -0.1380385761        0.8140220305  PROA      9              98.1400000000
        94        10  PRO       N              -7.6562065836        0.0992126578       -1.1961945607  PROA      10             98.1300000000
        95        10  PRO       CD             -7.5579269849       -0.0117774173       -2.5589066813  PROA      10             95.9300000000
        96        10  PRO       HD1            -7.9298016240       -1.0054233572       -2.8861896532  PROA      10              0.0000000000
        97        10  PRO       HD2            -6.5018410431        0.1207062222       -2.8749252151  PROA      10              0.0000000000
        98        10  PRO       CA             -8.7244066887        0.9694466155       -0.6986783357  PROA      10             98.1600000000
        99        10  PRO       HA             -8.3213707761        1.7168121786       -0.0342141438  PROA      10              0.0000000000
       100        10  PRO       CB             -9.3527478141        1.5241934512       -1.9786819991  PROA      10             97.9400000000
       101        10  PRO       HB1            -9.4263299256        2.6317341815       -1.9338050924  PROA      10              0.0000000000
       102        10  PRO       HB2           -10.3689147267        1.1029364011       -2.1336724395  PROA      10              0.0000000000
       103        10  PRO       CG             -8.4288985608        1.0977888577       -3.0740078318  PROA      10             96.2100000000
       104        10  PRO       HG1            -9.0170092507        0.7419120392       -3.9468026554  PROA      10              0.0000000000
       105        10  PRO       HG2            -7.7987720514        1.9558156260       -3.3918504730  PROA      10              0.0000000000
       106        10  PRO       C              -9.7585843907        0.2164865219        0.1345662731  PROA      10             98.4700000000
       107        10  PRO       O              -9.9096863632       -0.9994072726       -0.0127275644  PROA      10             98.4500000000
       108        11  GLY       N             -10.4787951542        0.8609143712        1.1433691295  PROA      11             97.6800000000
       109        11  GLY       HN            -10.2686694213        1.8061255177        1.3742256634  PROA      11              0.0000000000
       110        11  GLY       CA            -11.5534316575        0.2884730950        1.9377030461  PROA      11             97.6900000000
       111        11  GLY       HA1           -11.9175370865        1.0572058906        2.6031100958  PROA      11              0.0000000000
       112        11  GLY       HA2           -11.1422572353       -0.5323568496        2.5064413101  PROA      11              0.0000000000
       113        11  GLY       C             -12.7084201613       -0.2237662217        1.0976926660  PROA      11             98.1800000000
       114        11  GLY       O             -12.8526742747        0.1560260611       -0.0653295060  PROA      11             98.1700000000
       115        12  SER       N             -13.4546391300       -1.0219780122        1.4805662590  PROA      12             98.1300000000
       116        12  SER       HN            -13.2815923211       -1.4544727873        2.3588389044  PROA      12              0.0000000000
       117        12  SER       CA            -14.6691852201       -1.5146041707        0.8408137575  PROA      12             98.0400000000
       118        12  SER       HA            -14.4271804065       -1.7810525851       -0.1773245628  PROA      12              0.0000000000
       119        12  SER       CB            -15.2168541389       -2.7293721215        1.5928320958  PROA      12             97.4600000000
       120        12  SER       HB1           -16.0854040613       -3.1488287284        1.0415534433  PROA      12              0.0000000000
       121        12  SER       HB2           -15.5379775779       -2.4237321760        2.6115052162  PROA      12              0.0000000000
       122        12  SER       OG            -14.2254041078       -3.7351145235        1.7116346906  PROA      12             87.9800000000
       123        12  SER       HG1           -13.9826223122       -3.9746646396        0.8142647883  PROA      12              0.0000000000
       124        12  SER       C             -15.7370043347       -0.4282669177        0.7687255402  PROA      12             98.3200000000
       125        12  SER       O             -15.8261175440        0.4215939215        1.6576402661  PROA      12             98.1700000000
       126        13  GLY       N             -16.4012420204       -0.0041591594       -0.3244523530  PROA      13             97.0000000000
       127        13  GLY       HN            -16.1788747892       -0.4546595621       -1.1780603025  PROA      13              0.0000000000
       128        13  GLY       CA            -17.4181761169        1.0146732113       -0.5373411590  PROA      13             96.4500000000
       129        13  GLY       HA1           -17.7102925912        0.9773199342       -1.5763607401  PROA      13              0.0000000000
       130        13  GLY       HA2           -16.9774638224        1.9736945147       -0.3085622159  PROA      13              0.0000000000
       131        13  GLY       C             -18.6489225081        0.8190304332        0.3278277401  PROA      13             96.6500000000
       132        13  GLY       OT1           -18.6692090573       -0.1657848877        1.1135294900  PROA      13              0.0000000000
       133        13  GLY       OT2           -19.5884123937        1.6512770936        0.2168130968  PROA      13              0.0000000000
