* SET NIONTYPES = 1
* SET NPOSTOT = 36
* SET NNEGTOT = 34
* SET NIONTOT = 70
*  DATE:     6/13/26     12:58:23      CREATED BY USER: charmm-gui
*
        70  EXT
         1         1  SOD       SOD            -3.5731934320       14.8297733702       21.6347994857  IONS      1               1.0000000000
         2         2  SOD       SOD            11.0819187852       22.4657083683       13.1276197564  IONS      2               1.0000000000
         3         3  SOD       SOD           -26.6146535545      -22.7217901241      -10.8901074832  IONS      3               1.0000000000
         4         4  SOD       SOD            31.1368951598       -1.9973362865       32.1886846951  IONS      4               1.0000000000
         5         5  SOD       SOD             6.8645236764        7.7157996527       35.1109540847  IONS      5               1.0000000000
         6         6  SOD       SOD            21.3967477752       -9.9668948137       11.0288085365  IONS      6               1.0000000000
         7         7  SOD       SOD             1.9412322205        6.9091053478       25.1667845524  IONS      7               1.0000000000
         8         8  SOD       SOD             2.2765453816      -14.5325869869       10.3891704820  IONS      8               1.0000000000
         9         9  SOD       SOD            -6.7366731555       -9.0592591458      -29.9018251028  IONS      9               1.0000000000
        10        10  SOD       SOD            17.4886811226       -9.5260653280      -18.4995643882  IONS      10              1.0000000000
        11        11  SOD       SOD            18.9904117881      -28.8114160949      -17.9784041085  IONS      11              1.0000000000
        12        12  SOD       SOD            34.3452358997       13.8528380253       15.8134737720  IONS      12              1.0000000000
        13        13  SOD       SOD            37.7596923623       -3.5441180797       -9.8609512357  IONS      13              1.0000000000
        14        14  SOD       SOD            24.4673936870        0.7564909397      -31.3256432475  IONS      14              1.0000000000
        15        15  SOD       SOD           -27.8528388124       19.9469536127       10.2104509226  IONS      15              1.0000000000
        16        16  SOD       SOD           -17.0367268027        7.4455327353       28.2221905370  IONS      16              1.0000000000
        17        17  SOD       SOD           -30.1399977670       33.6120410983       12.1146347398  IONS      17              1.0000000000
        18        18  SOD       SOD             3.2350394897      -39.1997080029       -3.7613499280  IONS      18              1.0000000000
        19        19  SOD       SOD            21.9299813825       -9.3958558169       -4.3767792807  IONS      19              1.0000000000
        20        20  SOD       SOD            34.7419502450       16.5394112883      -20.9267093133  IONS      20              1.0000000000
        21        21  SOD       SOD             7.4315380074        8.5197073038      -14.6233132895  IONS      21              1.0000000000
        22        22  SOD       SOD             8.6785048486      -25.0018750361      -32.3374964044  IONS      22              1.0000000000
        23        23  SOD       SOD             6.9732876671       18.3969793018       38.5505005269  IONS      23              1.0000000000
        24        24  SOD       SOD             5.1202736916       10.5303825769       -1.1994862418  IONS      24              1.0000000000
        25        25  SOD       SOD           -31.9848863591        2.7152195528       -4.3664479099  IONS      25              1.0000000000
        26        26  SOD       SOD           -14.2295503352       27.0602492689       21.3695955561  IONS      26              1.0000000000
        27        27  SOD       SOD            -9.2636209277        8.1709443458        5.5953320937  IONS      27              1.0000000000
        28        28  SOD       SOD           -24.6738636110       12.2102188882       -1.3213562782  IONS      28              1.0000000000
        29        29  SOD       SOD           -10.6563034924       20.0265210216        1.3537646726  IONS      29              1.0000000000
        30        30  SOD       SOD             4.8368961692       28.3107210182       -2.7034658287  IONS      30              1.0000000000
        31        31  SOD       SOD            17.6792699426       16.0005157224        6.6013877638  IONS      31              1.0000000000
        32        32  SOD       SOD             0.8556810103       -8.2517788292       -7.8548532735  IONS      32              1.0000000000
        33        33  SOD       SOD           -18.8401503098      -40.8055262867       -8.1048042953  IONS      33              1.0000000000
        34        34  SOD       SOD           -32.8238445519       28.8791088359       -3.6915773155  IONS      34              1.0000000000
        35        35  SOD       SOD            -4.0602231686       37.4638690123       16.7531403038  IONS      35              1.0000000000
        36        36  SOD       SOD             6.0684980823      -11.2285941672      -28.0910146178  IONS      36              1.0000000000
        37        37  CLA       CLA            -0.3560105415       -3.9116093384      -25.1145517841  IONS      37             -1.0000000000
        38        38  CLA       CLA            30.0630876017       -6.6282940807       27.8167497376  IONS      38             -1.0000000000
        39        39  CLA       CLA            20.3602821365       -1.4267137928       -3.1819479683  IONS      39             -1.0000000000
        40        40  CLA       CLA            -8.9527413484        3.8021478887      -40.4331982865  IONS      40             -1.0000000000
        41        41  CLA       CLA           -31.3818186930        4.8296774341        0.2043428381  IONS      41             -1.0000000000
        42        42  CLA       CLA           -16.9566512746       22.8008200615      -22.6222121844  IONS      42             -1.0000000000
        43        43  CLA       CLA           -10.1921712662      -26.9281766857      -29.7122971888  IONS      43             -1.0000000000
        44        44  CLA       CLA           -16.7424282376      -33.5973924804       20.6295735110  IONS      44             -1.0000000000
        45        45  CLA       CLA           -25.7151638093       14.6302233258       19.1697906889  IONS      45             -1.0000000000
        46        46  CLA       CLA           -27.8501437728       15.0754755078        8.8480868611  IONS      46             -1.0000000000
        47        47  CLA       CLA           -25.5446839958      -32.7322104397       -9.3813834528  IONS      47             -1.0000000000
        48        48  CLA       CLA            16.6349737895       22.9177452060       -4.6435664475  IONS      48             -1.0000000000
        49        49  CLA       CLA            -5.2739431231       32.6325779640       10.7580642893  IONS      49             -1.0000000000
        50        50  CLA       CLA             4.3249297237      -30.7083490222        5.6029397252  IONS      50             -1.0000000000
        51        51  CLA       CLA            18.9370611959      -33.3844127309      -16.6112548496  IONS      51             -1.0000000000
        52        52  CLA       CLA            -8.0251558915       28.8915253368      -30.3358870126  IONS      52             -1.0000000000
        53        53  CLA       CLA            14.3227820792       -6.9869028912      -11.2303489952  IONS      53             -1.0000000000
        54        54  CLA       CLA            -6.2017984027       15.6487900923       12.9657003881  IONS      54             -1.0000000000
        55        55  CLA       CLA            22.4737374945        3.0305001271       -6.5332380557  IONS      55             -1.0000000000
        56        56  CLA       CLA            26.7996367134       -1.7011687722      -26.3426464757  IONS      56             -1.0000000000
        57        57  CLA       CLA            26.3598562570        6.3657582289       32.2341643512  IONS      57             -1.0000000000
        58        58  CLA       CLA             8.2289303233        3.6267554562       39.4270788775  IONS      58             -1.0000000000
        59        59  CLA       CLA            -2.5549740084      -14.5595791174       28.5875942743  IONS      59             -1.0000000000
        60        60  CLA       CLA            26.4609976952      -30.0278436185      -19.6396145882  IONS      60             -1.0000000000
        61        61  CLA       CLA           -33.3295289814        5.5994727224       23.3824275096  IONS      61             -1.0000000000
        62        62  CLA       CLA             0.7292834682       20.3198422820       30.1387777846  IONS      62             -1.0000000000
        63        63  CLA       CLA            35.5564033900        0.8445814610       29.6844428757  IONS      63             -1.0000000000
        64        64  CLA       CLA           -26.0103109915       23.4205524816       18.6117209419  IONS      64             -1.0000000000
        65        65  CLA       CLA           -13.1329791646      -32.8969121267      -15.9754810638  IONS      65             -1.0000000000
        66        66  CLA       CLA           -10.6226104650      -20.5765958509      -13.4003667106  IONS      66             -1.0000000000
        67        67  CLA       CLA             8.4845629449      -23.9292018203      -29.5721996355  IONS      67             -1.0000000000
        68        68  CLA       CLA            36.7506107398       22.6731662772       -9.4640645187  IONS      68             -1.0000000000
        69        69  CLA       CLA           -34.3853005076      -22.8334840962        5.6491096530  IONS      69             -1.0000000000
        70        70  CLA       CLA             1.6546317033       11.1019864667      -32.0345193549  IONS      70             -1.0000000000
