Title
34462
    1SER      N    1   5.664   4.374   3.417 -0.2619  0.0344  0.1411
    1SER    HT1    2   5.701   4.471   3.429 -1.0875  0.1858  1.5286
    1SER    HT2    3   5.640   4.354   3.318  2.9176 -0.2169 -0.6360
    1SER    HT3    4   5.735   4.304   3.445  0.1025  0.1568 -0.4805
    1SER     CA    5   5.537   4.362   3.509 -0.2833  0.6449  0.3908
    1SER     HA    6   5.562   4.384   3.612 -1.4369 -1.5959  1.1881
    1SER     CB    7   5.439   4.461   3.469  0.4147 -1.0238  0.7984
    1SER    HB1    8   5.341   4.470   3.520 -0.9534 -1.6249 -1.7058
    1SER    HB2    9   5.414   4.449   3.362  1.5373 -2.1541  0.6456
    1SER     OG   10   5.505   4.590   3.474 -0.2684  0.4203 -0.6164
    1SER    HG1   11   5.438   4.650   3.442 -1.1249 -0.5199 -0.6270
    1SER      C   12   5.465   4.233   3.501  0.6908 -0.1049  0.4866
    1SER      O   13   5.445   4.181   3.392 -0.3417  0.0300  0.6061
    2GLY      N   14   5.416   4.172   3.614  0.0675  0.3045  0.0740
    2GLY     HN   15   5.440   4.197   3.707  2.7040 -0.1349 -0.4414
    2GLY     CA   16   5.334   4.050   3.611  0.6035 -0.2757  0.2622
    2GLY    HA1   17   5.311   4.031   3.715 -2.5697 -0.2954 -0.4032
    2GLY    HA2   18   5.384   3.966   3.567  3.3879  0.8144  1.2373
    2GLY      C   19   5.204   4.068   3.535 -0.6930 -0.3623 -0.1624
    2GLY      O   20   5.153   4.179   3.512 -0.1512 -0.0361 -0.5194
    3ASP      N   21   5.147   3.954   3.495  0.1727  0.7221  0.3492
    3ASP     HN   22   5.182   3.861   3.496  0.0856  0.6594 -1.0637
    3ASP     CA   23   5.020   3.959   3.426  0.4585  0.4633 -0.1042
    3ASP     HA   24   5.018   4.041   3.355 -2.2338 -1.3991 -2.2625
    3ASP     CB   25   4.998   3.830   3.338 -0.2623 -0.4092  0.4158
    3ASP    HB1   26   4.902   3.825   3.282  0.5524  0.3313 -1.0831
    3ASP    HB2   27   4.991   3.743   3.406 -1.7228  0.3001  1.1827
    3ASP     CG   28   5.100   3.794   3.236 -0.1664  0.2736 -0.3320
    3ASP    OD1   29   5.166   3.884   3.185 -0.1095 -0.1631  0.0042
    3ASP    OD2   30   5.116   3.674   3.195  0.3130 -0.6203 -0.5041
    3ASP      C   31   4.913   3.973   3.523  0.0889 -0.3797 -0.9065
    3ASP      O   32   4.928   3.967   3.644 -0.0192  0.4662  0.3911
    4SER      N   33   4.790   4.010   3.482 -0.1828  0.5026 -1.0035
    4SER     HN   34   4.780   4.039   3.387 -2.4410  1.4941 -0.4849
    4SER     CA   35   4.667   4.019   3.563  0.3988 -0.2659 -0.4063
    4SER     HA   36   4.674   4.103   3.630  3.0108  0.7238 -1.8724
    4SER     CB   37   4.543   4.063   3.474 -0.0130  0.2423 -0.6290
    4SER    HB1   38   4.451   4.062   3.537  0.6725 -0.0038  0.3883
    4SER    HB2   39   4.534   3.991   3.390  2.1857 -0.9034  0.0622
    4SER     OG   40   4.569   4.197   3.427 -0.8440 -0.1618 -1.0115
    4SER    HG1   41   4.549   4.264   3.493 -1.6905 -2.4607  1.1360
    4SER      C   42   4.631   3.893   3.638 -0.2279 -0.2213  0.2269
    4SER      O   43   4.660   3.786   3.592 -0.3817 -0.4134 -0.0707
    5GLY      N   44   4.568   3.907   3.748 -0.2870 -0.2620  0.5604
    5GLY     HN   45   4.555   4.000   3.782  0.8387  0.4517 -0.9125
    5GLY     CA   46   4.500   3.809   3.832 -0.2588  0.3382  0.5135
    5GLY    HA1   47   4.479   3.859   3.925 -1.1194  1.0084 -0.0369
    5GLY    HA2   48   4.562   3.721   3.840  1.5916  1.3663 -2.0085
    5GLY      C   49   4.363   3.772   3.774 -0.4228 -0.5010  0.2637
    5GLY      O   50   4.329   3.819   3.665 -0.5397 -0.5185  0.0605
    6PRO      N   51   4.284   3.694   3.840  0.0082  0.8432  0.1798
    6PRO     CD   52   4.317   3.630   3.972 -0.4161 -0.1600  0.0750
    6PRO    HD1   53   4.347   3.709   4.044  2.1059 -1.3663  0.4218
    6PRO    HD2   54   4.388   3.545   3.962  0.2497  0.2061  1.6094
    6PRO     CA   55   4.149   3.670   3.793  0.6938 -0.4791 -0.3134
    6PRO     HA   56   4.156   3.645   3.688  1.4463  0.1839 -0.4267
    6PRO     CB   57   4.108   3.552   3.883 -0.2174  0.3207  0.6558
    6PRO    HB1   58   4.127   3.455   3.831 -0.5417  0.4762  0.2477
    6PRO    HB2   59   4.000   3.549   3.909 -0.1233 -0.9686  0.9442
    6PRO     CG   60   4.186   3.568   4.015 -0.8134 -0.5499 -0.0962
    6PRO    HG1   61   4.134   3.632   4.089  1.9178  1.3318  0.2907
    6PRO    HG2   62   4.193   3.475   4.077 -1.3280 -0.6489 -0.1872
    6PRO      C   63   4.056   3.791   3.805  0.1365  0.8079 -0.3134
    6PRO      O   64   4.080   3.888   3.871  0.6787 -0.5207 -0.3893
    7GLY      N   65   3.940   3.786   3.738  0.4637 -0.6412  0.4279
    7GLY     HN   66   3.927   3.709   3.675  0.9690  0.2846 -0.8348
    7GLY     CA   67   3.817   3.863   3.776 -0.2025  0.0130 -0.6004
    7GLY    HA1   68   3.734   3.826   3.719  0.1950 -2.7679  0.5431
    7GLY    HA2   69   3.833   3.966   3.746  0.2251 -0.7194 -2.9963
    7GLY      C   70   3.779   3.868   3.919 -1.2531 -0.0348 -0.3978
    7GLY      O   71   3.789   3.770   3.996  0.0890  0.4418 -0.3653
    8ASP      N   72   3.711   3.980   3.957  0.0340 -0.0117 -0.1688
    8ASP     HN   73   3.728   4.061   3.902 -0.6709  0.6499  0.5718
    8ASP     CA   74   3.617   3.988   4.064  0.0832  0.8098  0.2808
    8ASP     HA   75   3.673   3.954   4.150 -0.5284  0.6200  0.6046
    8ASP     CB   76   3.564   4.130   4.096 -0.0695 -0.7570  0.0713
    8ASP    HB1   77   3.507   4.114   4.191  0.0003  1.3909  0.4916
    8ASP    HB2   78   3.485   4.172   4.030 -1.8076 -1.0333  1.9186
    8ASP     CG   79   3.665   4.243   4.123  0.1270 -0.2403 -0.3251
    8ASP    OD1   80   3.791   4.224   4.097  0.2174 -0.1248  0.7260
    8ASP    OD2   81   3.629   4.355   4.170 -0.0339 -0.2780  0.0961
    8ASP      C   82   3.504   3.893   4.039  0.7293 -0.0191  0.5951
    8ASP      O   83   3.447   3.890   3.933 -0.0677  0.3459  0.2169
    9PRO      N   84   3.471   3.805   4.140  0.3783  0.3628  1.0941
    9PRO     CD   85   3.560   3.764   4.248 -0.1432 -0.2880 -0.6809
    9PRO    HD1   86   3.565   3.846   4.323 -0.2951 -0.6475 -0.2742
    9PRO    HD2   87   3.663   3.747   4.210 -0.0917 -0.8386 -0.2934
    9PRO     CA   88   3.352   3.727   4.139  0.1732 -0.9091 -0.0412
    9PRO     HA   89   3.367   3.644   4.072 -0.4968 -0.3533 -0.8787
    9PRO     CB   90   3.348   3.682   4.286  0.4792 -0.4172 -0.0831
    9PRO    HB1   91   3.280   3.597   4.306 -0.3736 -0.0932 -1.5170
    9PRO    HB2   92   3.319   3.761   4.357  0.7238 -0.0430 -0.3999
    9PRO     CG   93   3.495   3.650   4.316  0.0210  0.2007  0.5548
    9PRO    HG1   94   3.527   3.632   4.421 -1.0475  1.4123  1.1002
    9PRO    HG2   95   3.518   3.559   4.257 -0.4626  0.6262 -0.3057
    9PRO      C   96   3.223   3.796   4.098 -0.2835  0.1560  1.0468
    9PRO      O   97   3.196   3.914   4.137 -0.1817 -0.5555  0.2933
   10GLY      N   98   3.147   3.718   4.012  0.3831 -0.2429  0.1835
   10GLY     HN   99   3.189   3.634   3.979 -1.6230 -0.8834 -0.7984
   10GLY     CA  100   3.008   3.742   3.964  0.2217 -0.9149 -0.1912
   10GLY    HA1  101   2.980   3.644   3.929  1.5511 -0.7078 -1.9428
   10GLY    HA2  102   3.014   3.817   3.885  2.3151  0.9915  1.6931
   10GLY      C  103   2.909   3.792   4.068 -0.2024 -0.5636  0.1358
   10GLY      O  104   2.919   3.763   4.187  0.4842 -0.0859  0.0320
   11ASP      N  105   2.808   3.866   4.025  1.2685 -0.1054  0.1233
   11ASP     HN  106   2.819   3.904   3.933  0.7195  0.2328  0.1965
   11ASP     CA  107   2.702   3.916   4.105  0.9085  0.0405 -0.0104
   11ASP     HA  108   2.754   3.958   4.191  2.2199 -1.3591 -0.0981
   11ASP     CB  109   2.630   4.030   4.029 -0.0618 -0.3447  0.4745
   11ASP    HB1  110   2.540   4.044   4.092 -0.8089  1.3432 -0.9351
   11ASP    HB2  111   2.597   3.992   3.930 -2.0376  0.2601  0.8945
   11ASP     CG  112   2.702   4.158   4.019 -0.6088 -0.6226  0.5460
   11ASP    OD1  113   2.813   4.171   4.071 -0.0563 -1.0805  0.3066
   11ASP    OD2  114   2.650   4.257   3.959  0.9329 -0.6251 -0.1833
   11ASP      C  115   2.613   3.803   4.155  0.3215 -0.8220  0.1775
   11ASP      O  116   2.582   3.701   4.090 -0.3323 -1.0409 -0.2746
   12SER      N  117   2.562   3.814   4.277  0.2356  0.0861 -0.8688
   12SER     HN  118   2.588   3.898   4.323 -1.3373  0.0765  0.0791
   12SER     CA  119   2.468   3.729   4.347  0.3050  0.2686 -0.3860
   12SER     HA  120   2.509   3.630   4.354 -0.8343 -0.1717  0.1468
   12SER     CB  121   2.426   3.781   4.484 -0.1331 -0.4800 -0.3166
   12SER    HB1  122   2.349   3.723   4.539 -1.0984  2.2572  1.2894
   12SER    HB2  123   2.378   3.879   4.463 -0.4093 -0.4364  0.4890
   12SER     OG  124   2.537   3.810   4.574  0.1299  0.3005 -0.4406
   12SER    HG1  125   2.612   3.839   4.521  0.2852  0.6887 -0.0090
   12SER      C  126   2.335   3.706   4.276 -0.4147 -0.2794 -0.3094
   12SER      O  127   2.285   3.806   4.220 -0.3281  0.6213 -0.7788
   13GLY      N  128   2.281   3.582   4.276 -0.1307  0.0465 -0.3063
   13GLY     HN  129   2.327   3.503   4.316 -1.6696 -0.9720 -0.5045
   13GLY     CA  130   2.156   3.551   4.206  0.2858 -0.3880 -0.9549
   13GLY    HA1  131   2.180   3.471   4.138 -0.8638 -2.2393  0.7842
   13GLY    HA2  132   2.117   3.637   4.153 -0.3889  0.6340  1.1485
   13GLY      C  133   2.044   3.499   4.301 -0.1749  0.6234  0.7660
   13GLY    OT1  134   2.046   3.376   4.330  0.8117  0.1475 -0.0972
   13GLY    OT2  135   1.951   3.575   4.340 -0.7026 -0.3493  0.7691
   14SOD    SOD  136   2.992   6.960   2.309 -0.1947 -0.8284 -0.0033
   15SOD    SOD  137   1.213   4.059   1.348  0.3330 -0.5169  0.1816
   16SOD    SOD  138   6.392   4.546   4.361 -0.1840  0.0507 -0.3359
   17SOD    SOD  139   2.958   1.328   4.819 -0.1314 -0.0146  0.7317
   18SOD    SOD  140   0.938   5.282   1.523 -0.3138 -0.9774  0.0019
   19SOD    SOD  141   3.396   4.053   3.096  0.3002  0.2687  0.4795
   20SOD    SOD  142   6.951   6.890   0.859  0.0173  0.3206 -0.3696
   21SOD    SOD  143   3.292   2.752   0.291  0.1281  0.4544  0.2077
   22SOD    SOD  144   3.972   1.363   0.840 -0.3211  0.9645  0.1815
   23SOD    SOD  145   7.456   2.056   0.550 -0.4724  0.2384 -0.1237
   24SOD    SOD  146   6.746   4.495   0.227 -0.2878 -0.0450 -0.2732
   25SOD    SOD  147   2.353   4.730   1.984 -0.1813 -0.2500 -0.3880
   26SOD    SOD  148   7.732   4.943   6.026 -0.4337  0.0453 -0.0259
   27SOD    SOD  149   3.641   5.908   4.493 -0.3185 -0.9355  0.0486
   28SOD    SOD  150   5.066   2.716   6.139 -0.0903 -0.2459 -0.3071
   29SOD    SOD  151   0.362   4.893   2.508 -0.0690 -0.0444 -0.2022
   30SOD    SOD  152   1.913   3.051   4.084  0.2869  0.2960 -0.7744
   31SOD    SOD  153   1.311   2.877   3.679  0.0472  0.1956 -0.3024
   32SOD    SOD  154   4.165   2.238   2.199  0.0041  0.2171 -0.0620
   33SOD    SOD  155   5.611   5.564   4.343  0.0783 -0.1384 -0.0813
   34SOD    SOD  156   2.017   4.780   5.384 -0.1051 -0.4107 -0.2552
   35SOD    SOD  157   0.151   5.632   3.625  0.0481 -0.3093  0.3527
   36SOD    SOD  158   4.484   5.601   1.530  0.5364  0.1894  0.2383
   37SOD    SOD  159   1.271   2.950   1.640 -0.1161 -0.1960  0.0043
   38SOD    SOD  160   2.376   2.234   5.635  0.0199 -0.0881 -0.2353
   39SOD    SOD  161   3.126   2.134   3.299 -0.2509  0.2426 -0.1286
   40SOD    SOD  162   1.818   3.351   4.417  0.3079  0.0576 -0.3671
   41SOD    SOD  163   3.422   6.490   0.149  0.3975  0.1860 -0.5762
   42SOD    SOD  164   6.597   5.521   5.406 -0.4778 -0.4432  0.0329
   43SOD    SOD  165   4.974   5.956   5.905  0.0055  0.1266  0.0315
   44SOD    SOD  166   3.351   3.551   3.615 -0.5780 -0.2161 -0.1719
   45SOD    SOD  167   3.017   4.262   4.362 -0.1198  0.4476  0.0190
   46SOD    SOD  168   1.717   4.979   6.249  0.0262 -0.1336  0.8682
   47SOD    SOD  169   1.353   6.395   4.659  0.3302  0.1432 -0.0751
   48SOD    SOD  170   7.289   4.569   4.971 -0.4113  0.3031 -0.3275
   49CLA    CLA  171   7.347   7.189   0.916 -0.2917  0.3236  0.1517
   50CLA    CLA  172   5.520   5.004   3.126  0.3583 -0.2699  0.0020
   51CLA    CLA  173   4.611   6.132   6.244  0.1759  0.2402  0.4471
   52CLA    CLA  174   1.526   6.032   3.688  0.4528 -0.0187 -0.4891
   53CLA    CLA  175   1.849   3.453   2.994 -0.2332 -0.1737 -0.1574
   54CLA    CLA  176   2.994   1.783   5.571  0.0228  0.0918 -0.1871
   55CLA    CLA  177   6.181   5.017   5.922 -0.2504  0.2378 -0.0470
   56CLA    CLA  178   7.749   5.685   5.978 -0.5989 -0.2984  0.2040
   57CLA    CLA  179   4.852   6.994   1.251  0.3080  0.1505  0.1712
   58CLA    CLA  180   3.881   1.901   2.473  0.2846 -0.3928 -0.5027
   59CLA    CLA  181   7.436   3.402   2.572 -0.2718  0.4038 -0.1156
   60CLA    CLA  182   5.498   4.312   3.909 -0.2595  0.4556 -0.0029
   61CLA    CLA  183   0.361   7.157   4.591 -0.1099 -0.3853  0.4609
   62CLA    CLA  184   7.152   6.529   0.496 -0.3258  0.1940 -0.0032
   63CLA    CLA  185   7.291   4.912   5.924  0.1182 -0.1125 -0.1329
   64CLA    CLA  186   6.850   6.169   5.854 -0.2570 -0.0954  0.1385
   65CLA    CLA  187   2.728   7.321   1.587  0.3857  0.2638  0.1322
   66CLA    CLA  188   4.269   2.922   4.165  0.1295 -0.2246  0.3296
   67CLA    CLA  189   6.402   5.681   0.624 -0.4174 -0.1118 -0.9155
   68CLA    CLA  190   4.728   6.951   3.217 -0.5010 -0.1273  0.1282
   69CLA    CLA  191   6.766   0.490   0.677 -0.0305 -0.1450  0.4448
   70CLA    CLA  192   2.273   1.044   3.807 -0.3244 -0.0240 -0.1414
   71CLA    CLA  193   5.291   1.514   1.095 -0.1240 -0.1053  0.1661
   72CLA    CLA  194   0.106   6.241   5.277 -0.4964 -0.1425 -0.3294
   73CLA    CLA  195   1.787   1.708   2.449 -0.0151  0.3113  0.1583
   74CLA    CLA  196   1.002   6.597   4.589  0.2584  0.2587  0.1327
   75CLA    CLA  197   5.080   1.477   0.679  0.0499  0.2543  0.2334
   76CLA    CLA  198   6.022   4.177   5.419  0.2186 -0.4599 -1.1153
   77CLA    CLA  199   2.543   1.288   1.156  0.3134 -0.0152 -0.4277
   78CLA    CLA  200   4.753   1.662   4.857  0.2093 -0.1275 -0.1742
   79CLA    CLA  201   0.732   1.924   4.430 -0.1111  0.1854  0.0511
   80CLA    CLA  202   0.204   5.930   0.948 -0.0157 -0.2930  0.3750
   81TIP3   OH2  203   3.242   0.202   4.015 -0.7546 -0.0083 -0.3052
   81TIP3    H1  204   3.262   0.117   3.974  1.5130 -0.1995  1.1012
   81TIP3    H2  205   3.202   0.180   4.098 -1.9338  0.3323 -0.7810
   82TIP3   OH2  206   3.020   0.761   0.743 -0.2703  0.4841 -0.3933
   82TIP3    H1  207   3.044   0.793   0.657 -1.4376 -0.8916 -1.2653
   82TIP3    H2  208   2.996   0.669   0.729  0.0824  0.0707  1.4879
   83TIP3   OH2  209   1.702   5.914   2.310  0.0119  0.2868 -0.3212
   83TIP3    H1  210   1.740   5.852   2.247 -2.7408 -1.3985 -0.4311
   83TIP3    H2  211   1.775   5.967   2.339  2.8119 -3.8475  0.6965
   84TIP3   OH2  212   7.574   5.662   1.799 -0.3852 -0.2582  0.2719
   84TIP3    H1  213   7.626   5.582   1.802 -0.9119 -0.7400 -2.1734
   84TIP3    H2  214   7.486   5.633   1.775 -0.8689  0.9170  0.5678
   85TIP3   OH2  215   3.589   2.065   0.209  0.4322 -0.2327  0.1137
   85TIP3    H1  216   3.665   2.008   0.224  0.4138 -0.3477 -0.2275
   85TIP3    H2  217   3.627   2.148   0.181  0.4038 -0.6238 -1.1437
   86TIP3   OH2  218   5.931   7.102   2.527 -0.1956  0.1872  0.7905
   86TIP3    H1  219   5.848   7.058   2.511 -0.2302  0.1192  1.1531
   86TIP3    H2  220   5.908   7.178   2.580 -0.3328  1.4825 -1.0676
   87TIP3   OH2  221   1.291   6.152   3.502  0.4786  0.0915 -0.0546
   87TIP3    H1  222   1.314   6.245   3.499  0.3737  0.1669  1.2162
   87TIP3    H2  223   1.364   6.111   3.549  0.7205 -0.5269 -0.9790
   88TIP3   OH2  224   2.802   0.103   3.649 -0.3685  0.3164  0.4494
   88TIP3    H1  225   2.790   0.131   3.739  0.4516 -1.9922  1.3221
   88TIP3    H2  226   2.750   0.023   3.642  1.5862 -0.9210 -0.3618
   89TIP3   OH2  227   0.452   6.715   0.973 -0.2685 -0.4182  0.6796
   89TIP3    H1  228   0.382   6.720   0.909 -1.1010  0.3605  1.6412
   89TIP3    H2  229   0.441   6.793   1.028 -0.1422 -1.5364  2.3442
   90TIP3   OH2  230   0.247   7.043   2.019  0.1648  0.1397  0.4614
   90TIP3    H1  231   0.180   7.070   2.082 -0.7384  1.2070 -0.9229
   90TIP3    H2  232   0.319   7.010   2.073 -1.3726 -0.8363  1.9840
   91TIP3   OH2  233   0.399   6.901   0.297 -0.6364  0.3314  0.3882
   91TIP3    H1  234   0.343   6.962   0.250  0.0568  1.2821  0.7726
   91TIP3    H2  235   0.486   6.914   0.260 -0.1160  0.9698  1.7812
   92TIP3   OH2  236   3.373   1.039   1.892 -0.3468  0.1436  0.1002
   92TIP3    H1  237   3.326   1.089   1.826  1.7945 -0.5658 -2.0064
   92TIP3    H2  238   3.365   0.948   1.863 -0.9069 -0.3625  1.7906
   93TIP3   OH2  239   1.190   0.524   3.351  0.7477  0.1984 -0.5257
   93TIP3    H1  240   1.268   0.471   3.371  0.5956  0.5908  1.1586
   93TIP3    H2  241   1.199   0.545   3.258  1.6841 -1.3495 -0.8102
   94TIP3   OH2  242   5.665   7.052   2.518 -0.4562 -0.1146 -0.0079
   94TIP3    H1  243   5.673   7.048   2.613 -1.6580 -0.1435  0.1003
   94TIP3    H2  244   5.577   7.087   2.502 -1.1152 -2.1309 -1.0860
   95TIP3   OH2  245   2.650   6.889   3.689 -0.2017  0.0089  0.0410
   95TIP3    H1  246   2.681   6.920   3.774  1.3530 -2.7084  0.5204
   95TIP3    H2  247   2.719   6.915   3.627 -1.1534  1.6461 -0.3755
   96TIP3   OH2  248   0.405   5.731   2.679 -0.3351  0.8354 -0.1821
   96TIP3    H1  249   0.421   5.637   2.676 -0.7825  0.6353  2.6618
   96TIP3    H2  250   0.310   5.739   2.671 -0.1785  1.1570 -1.9062
   97TIP3   OH2  251   2.485   0.292   2.938  0.1252  0.7307  0.1172
   97TIP3    H1  252   2.521   0.377   2.963  0.9808 -0.0606  1.6636
   97TIP3    H2  253   2.444   0.258   3.018 -1.4537  0.2994 -0.8525
   98TIP3   OH2  254   6.957   5.320   6.228 -0.1466 -0.0416  0.3387
   98TIP3    H1  255   6.994   5.334   6.141 -1.9782  0.7904 -0.3386
   98TIP3    H2  256   6.996   5.388   6.283  0.6329 -0.2548  0.0442
   99TIP3   OH2  257   4.086  -0.023   3.317 -0.0035 -0.1455 -0.0461
   99TIP3    H1  258   4.088  -0.033   3.222  0.1072  1.1956 -0.1957
   99TIP3    H2  259   4.060   0.068   3.332  0.2584 -0.2556  1.2029
  100TIP3   OH2  260   2.362   0.685   2.301  0.3223 -0.6202  0.0989
  100TIP3    H1  261   2.420   0.609   2.297  1.6272  0.3098  1.2472
  100TIP3    H2  262   2.420   0.760   2.295 -0.7987  0.3265  0.9886
  101TIP3   OH2  263   2.779   1.055   2.734 -0.4260  0.6124  0.0937
  101TIP3    H1  264   2.726   1.113   2.680 -1.2103 -0.9855 -0.9024
  101TIP3    H2  265   2.834   1.008   2.672  2.1005  2.1517  1.1034
  102TIP3   OH2  266   6.458   6.970   0.996  0.0931  0.7548  0.3572
  102TIP3    H1  267   6.414   6.930   1.072 -0.3160  1.7459  0.6638
  102TIP3    H2  268   6.492   7.053   1.030 -1.4479  1.9360 -0.9161
  103TIP3   OH2  269   7.688   6.321   2.106 -0.4368 -0.1223 -0.7351
  103TIP3    H1  270   7.741   6.304   2.184 -2.6628  0.1363  0.8818
  103TIP3    H2  271   7.737   6.389   2.060  1.0149 -0.3941  0.3261
  104TIP3   OH2  272   0.744   6.991   4.010  0.2463  0.0353 -0.4805
  104TIP3    H1  273   0.822   6.989   4.065  0.6739 -2.8942 -1.1197
  104TIP3    H2  274   0.777   6.981   3.921 -0.8029 -0.1108 -0.8615
  105TIP3   OH2  275   0.716   0.595   1.405  0.5252 -0.2466 -0.1700
  105TIP3    H1  276   0.647   0.659   1.421  1.7531  1.2449 -0.7089
  105TIP3    H2  277   0.699   0.526   1.468 -0.5384  0.8566  0.7824
  106TIP3   OH2  278   2.767   0.189   1.106 -0.6938 -0.2060  0.0490
  106TIP3    H1  279   2.726   0.274   1.091  0.2752 -0.0195 -1.6303
  106TIP3    H2  280   2.702   0.140   1.157 -2.3340  0.6504 -1.1503
  107TIP3   OH2  281   2.457   0.251   0.856  0.3459  0.2389  0.7650
  107TIP3    H1  282   2.502   0.192   0.796 -2.8854 -1.5032 -0.0808
  107TIP3    H2  283   2.521   0.271   0.924  3.7733  1.3859 -2.6257
  108TIP3   OH2  284   0.752   4.554   3.433  0.1199 -0.4397  0.0811
  108TIP3    H1  285   0.681   4.517   3.485  0.4536 -0.3700  0.5895
  108TIP3    H2  286   0.741   4.649   3.441 -0.4533 -0.4327 -0.8318
  109TIP3   OH2  287   6.617   6.974   2.480 -0.1681 -0.4616  0.2501
  109TIP3    H1  288   6.636   6.986   2.387 -1.3049 -1.9716 -0.2000
  109TIP3    H2  289   6.528   7.006   2.491 -0.0626 -0.3527  0.7955
  110TIP3   OH2  290   3.498   5.101   2.441 -0.3592  0.5821  0.6866
  110TIP3    H1  291   3.516   5.170   2.377 -1.5748  1.5068  1.3089
  110TIP3    H2  292   3.413   5.126   2.478 -0.1462 -0.5078  1.9081
  111TIP3   OH2  293   4.661   4.272   6.076  0.1805  0.0739  0.3070
  111TIP3    H1  294   4.591   4.244   6.136 -0.0315 -1.7457 -0.7675
  111TIP3    H2  295   4.723   4.198   6.075  0.6426  0.4717 -1.0095
  112TIP3   OH2  296   1.558   5.466   3.829  0.4411  0.2447 -0.0366
  112TIP3    H1  297   1.555   5.547   3.777  2.8902 -0.9211 -2.1137
  112TIP3    H2  298   1.613   5.488   3.904 -0.5727  1.0797  0.4665
  113TIP3   OH2  299   2.463   7.362   0.518 -0.7441  0.0002  0.0235
  113TIP3    H1  300   2.442   7.294   0.582  0.6855 -2.1169 -1.6875
  113TIP3    H2  301   2.402   7.347   0.446 -1.0614  1.1608  0.0335
  114TIP3   OH2  302   3.994   1.151   1.688 -0.3731 -0.8298 -0.1286
  114TIP3    H1  303   3.930   1.123   1.753 -0.7136 -1.4921 -0.7428
  114TIP3    H2  304   3.976   1.244   1.675 -1.7978 -1.2060 -0.9435
  115TIP3   OH2  305   2.145   7.126   2.583 -0.1556  0.3478 -0.2957
  115TIP3    H1  306   2.170   7.128   2.491  2.0639 -2.3193  0.1804
  115TIP3    H2  307   2.072   7.065   2.588  0.2099 -0.0884 -0.2099
  116TIP3   OH2  308   4.741   0.457   0.603 -0.3093 -0.1232  0.1094
  116TIP3    H1  309   4.710   0.462   0.694  0.1675 -1.2124  0.3370
  116TIP3    H2  310   4.765   0.365   0.591  1.8486  0.4772 -0.3836
  117TIP3   OH2  311   4.634   2.486   0.658  0.3548  0.2881 -0.6212
  117TIP3    H1  312   4.671   2.444   0.736  0.5418 -0.5338 -1.1475
  117TIP3    H2  313   4.622   2.577   0.684  0.5993  0.0665  0.3079
  118TIP3   OH2  314   3.498   1.677   1.294 -0.5588  0.3430 -0.1989
  118TIP3    H1  315   3.482   1.583   1.290 -0.7723  0.3396  0.6685
  118TIP3    H2  316   3.474   1.710   1.208  2.0733 -0.7987 -1.4331
  119TIP3   OH2  317   4.769   2.145   1.522 -0.1249 -0.3759  0.3632
  119TIP3    H1  318   4.816   2.217   1.564  1.0538 -0.8894 -0.0761
  119TIP3    H2  319   4.836   2.095   1.476 -1.1994 -0.6685 -0.9349
  120TIP3   OH2  320   5.952   0.283   0.858 -0.2306 -0.1630  0.0297
  120TIP3    H1  321   5.930   0.351   0.795  0.6262  0.1277  0.0460
  120TIP3    H2  322   5.926   0.319   0.943 -0.6299 -0.2321 -0.0598
  121TIP3   OH2  323   1.596   6.648   3.580  0.2048  0.6783 -0.9142
  121TIP3    H1  324   1.589   6.733   3.625 -0.1108  0.3889 -0.4116
  121TIP3    H2  325   1.507   6.628   3.553  0.3496  0.7112 -1.4196
  122TIP3   OH2  326   2.854   0.693   1.556  0.2167  0.1430  0.3560
  122TIP3    H1  327   2.801   0.616   1.578  3.1189 -2.1259 -0.2311
  122TIP3    H2  328   2.791   0.757   1.522 -2.0748 -2.6735 -0.9280
  123TIP3   OH2  329   4.296   0.717   2.216  0.3631 -0.0942  0.6357
  123TIP3    H1  330   4.346   0.667   2.281  1.7162 -0.2517 -0.5129
  123TIP3    H2  331   4.230   0.656   2.185  0.7573 -0.5506  0.6814
  124TIP3   OH2  332   0.304   5.981   4.499  0.3129  0.2082  0.5606
  124TIP3    H1  333   0.288   6.021   4.584  1.0599  0.3842  0.6227
  124TIP3    H2  334   0.249   6.029   4.438 -2.4696 -1.7886  1.3872
  125TIP3   OH2  335   1.649   5.436   1.335 -0.2088  0.1791  0.1925
  125TIP3    H1  336   1.663   5.415   1.242  2.7277  1.1093  0.3774
  125TIP3    H2  337   1.737   5.450   1.370 -1.3630  1.2043  2.8157
  126TIP3   OH2  338   1.531   5.098   1.305  0.2461 -0.5691 -0.3947
  126TIP3    H1  339   1.504   5.183   1.270  1.4626 -0.1664 -0.3780
  126TIP3    H2  340   1.522   5.107   1.400 -0.3827 -0.7288 -0.4371
  127TIP3   OH2  341   3.772   1.235   2.191  0.0905 -0.2840  0.6027
  127TIP3    H1  342   3.721   1.177   2.135  0.0450 -0.2992  0.6599
  127TIP3    H2  343   3.796   1.308   2.134 -0.7309  0.1529  0.7951
  128TIP3   OH2  344   7.592   6.737   1.312  0.0856 -0.4787  0.1080
  128TIP3    H1  345   7.643   6.664   1.347  0.1255 -1.2084 -1.4490
  128TIP3    H2  346   7.565   6.709   1.225 -1.6087  0.5644  0.2723
  129TIP3   OH2  347   2.378   0.345   1.952 -0.3976 -0.1106  0.0017
  129TIP3    H1  348   2.469   0.330   1.979  0.2068  0.6387 -1.5421
  129TIP3    H2  349   2.329   0.272   1.990  0.7252 -0.1296  1.4643
  130TIP3   OH2  350   5.252   5.274   5.985 -0.3518  0.0467 -0.5565
  130TIP3    H1  351   5.180   5.217   5.957 -1.9473  2.3410 -1.2719
  130TIP3    H2  352   5.210   5.339   6.042  1.3811  0.6351  0.0608
  131TIP3   OH2  353   4.558   2.872   1.053 -0.4414  0.1997 -0.2317
  131TIP3    H1  354   4.499   2.905   1.121  1.2504 -0.0161  1.3658
  131TIP3    H2  355   4.593   2.950   1.011  0.6738  0.3996  1.0448
  132TIP3   OH2  356   3.752   1.428   1.347  0.5951  0.8816 -0.6335
  132TIP3    H1  357   3.750   1.512   1.393  0.9744  0.8989 -0.6539
  132TIP3    H2  358   3.838   1.391   1.367 -0.4614 -0.6354  1.4514
  133TIP3   OH2  359   0.622   7.067   0.654  1.0159 -0.1028  0.6207
  133TIP3    H1  360   0.622   6.978   0.618  1.7762 -0.6723  1.9805
  133TIP3    H2  361   0.640   7.123   0.579  1.7721 -1.2050 -0.0376
  134TIP3   OH2  362   5.388   0.359   2.109  0.3698  0.0741  0.5042
  134TIP3    H1  363   5.439   0.329   2.184  0.2604 -1.9312 -0.2092
  134TIP3    H2  364   5.453   0.396   2.049  0.6692  0.0236  0.7968
  135TIP3   OH2  365   1.496   6.249   4.497  0.1713 -0.1071 -0.0629
  135TIP3    H1  366   1.507   6.155   4.509 -0.1650 -0.1578 -0.1448
  135TIP3    H2  367   1.584   6.281   4.476 -0.2470 -0.8723 -3.2359
  136TIP3   OH2  368   2.058   5.797   2.371 -0.2871  0.2838 -0.0525
  136TIP3    H1  369   2.043   5.738   2.445  0.5570 -0.1345 -0.2045
  136TIP3    H2  370   1.982   5.784   2.314 -1.0796  0.8206  0.8796
  137TIP3   OH2  371   6.097   0.304   1.788  0.2579  0.4143  0.7789
  137TIP3    H1  372   6.119   0.349   1.707 -0.8837  0.5539  0.5315
  137TIP3    H2  373   6.118   0.212   1.771  0.8552  0.5743  0.6395
  138TIP3   OH2  374   2.074   6.863   0.597 -0.3927  0.4490 -0.0351
  138TIP3    H1  375   2.112   6.950   0.586 -1.8168  1.1312  0.3622
  138TIP3    H2  376   2.117   6.828   0.674 -0.5752  1.2246  0.4234
  139TIP3   OH2  377   3.564   5.031   6.358  0.2464 -0.1881 -0.4037
  139TIP3    H1  378   3.570   5.115   6.403 -0.1866 -1.0184  1.2329
  139TIP3    H2  379   3.634   5.034   6.291  2.0584  0.3702  1.4674
  140TIP3   OH2  380   5.081   1.670   2.260 -0.4154 -0.1929  0.2976
  140TIP3    H1  381   5.105   1.728   2.332 -0.9693  0.1755  0.1846
  140TIP3    H2  382   5.129   1.589   2.277 -0.1369  0.0789  0.7945
  141TIP3   OH2  383   5.624   2.520   1.107 -0.3666  0.3168  0.0561
  141TIP3    H1  384   5.643   2.491   1.017 -1.8422  0.0667 -0.1904
  141TIP3    H2  385   5.547   2.469   1.132  0.0453  0.3899  1.4721
  142TIP3   OH2  386   0.535   6.617   2.438  0.1014 -0.2341  0.0818
  142TIP3    H1  387   0.464   6.682   2.432 -0.7675 -1.2798 -1.1829
  142TIP3    H2  388   0.577   6.621   2.352  0.1679 -1.1946  0.0673
  143TIP3   OH2  389   2.350   5.323   1.558 -0.5598 -0.7296  0.0497
  143TIP3    H1  390   2.401   5.332   1.477  0.6276  0.4234  0.8975
  143TIP3    H2  391   2.260   5.316   1.528 -0.5909  3.6277 -1.3069
  144TIP3   OH2  392   1.679   6.336   3.295 -0.4915  0.1886  0.1110
  144TIP3    H1  393   1.592   6.329   3.334 -1.0770  0.5458 -1.0932
  144TIP3    H2  394   1.677   6.275   3.220 -0.1982  1.2367 -0.7673
  145TIP3   OH2  395   2.653   6.519   2.217 -0.1330 -0.2908 -0.2006
  145TIP3    H1  396   2.603   6.568   2.282 -0.2652  0.3488 -0.7709
  145TIP3    H2  397   2.614   6.432   2.215 -0.4401 -0.1591  0.2243
  146TIP3   OH2  398   0.179   6.332   2.028  0.5590 -0.2890  0.0868
  146TIP3    H1  399   0.113   6.401   2.020  0.0218 -0.7462  0.5225
  146TIP3    H2  400   0.250   6.359   1.969 -0.4442 -0.2965 -1.1455
  147TIP3   OH2  401   2.151   1.494   0.636  0.0834  0.1477  0.2311
  147TIP3    H1  402   2.068   1.481   0.589  1.7276 -2.3524 -2.1098
  147TIP3    H2  403   2.147   1.432   0.709 -0.1546  0.1007  0.1802
  148TIP3   OH2  404   3.822   0.726   3.368  0.1871 -0.0602  0.1390
  148TIP3    H1  405   3.871   0.683   3.437 -1.8921 -1.7490  0.6322
  148TIP3    H2  406   3.822   0.819   3.392  1.4092 -0.3147  1.1672
  149TIP3   OH2  407   2.177   7.215   1.585  0.0966 -0.4167  0.4098
  149TIP3    H1  408   2.121   7.207   1.507  0.7439 -1.6119  0.0493
  149TIP3    H2  409   2.216   7.302   1.578  1.0198 -0.9392 -1.2218
  150TIP3   OH2  410   7.316   0.625   2.399 -0.0984  0.3225  0.3895
  150TIP3    H1  411   7.356   0.669   2.324 -1.4295 -0.2270 -0.6588
  150TIP3    H2  412   7.323   0.532   2.378 -1.4300  0.1992  0.4417
  151TIP3   OH2  413   6.252   3.523   5.614 -0.1044 -0.4810  0.0212
  151TIP3    H1  414   6.171   3.477   5.596 -0.6050  0.6069 -0.5316
  151TIP3    H2  415   6.225   3.605   5.655  0.6780  0.0993 -0.5999
  152TIP3   OH2  416   6.430   0.654   0.269 -0.1132 -0.3156 -0.1391
  152TIP3    H1  417   6.488   0.600   0.324  1.2767  1.3798  0.1021
  152TIP3    H2  418   6.489   0.713   0.223 -1.5813  0.6741 -0.7790
  153TIP3   OH2  419   3.898   0.620   0.733  0.3561 -0.1357  0.1202
  153TIP3    H1  420   3.813   0.648   0.698  0.3110  2.9479  2.5315
  153TIP3    H2  421   3.963   0.664   0.678  0.4289 -1.7582 -1.1347
  154TIP3   OH2  422   6.142   0.053   1.713  0.7470 -0.3145  0.0208
  154TIP3    H1  423   6.211   0.011   1.662 -0.0074 -0.4273 -0.9321
  154TIP3    H2  424   6.064   0.001   1.695 -0.5026  2.1985 -2.2422
  155TIP3   OH2  425   1.428   7.315   5.998  0.0180 -0.6736  0.1831
  155TIP3    H1  426   1.420   7.355   5.912  1.0881  0.3947  0.5661
  155TIP3    H2  427   1.433   7.388   6.059  0.4169 -1.3957  1.0419
  156TIP3   OH2  428   4.841   0.733   1.139 -0.2840 -0.3719 -0.0895
  156TIP3    H1  429   4.934   0.751   1.129 -0.1584 -0.9891 -0.0371
  156TIP3    H2  430   4.799   0.819   1.133  0.3885  0.0503  1.1072
  157TIP3   OH2  431   7.707   7.134   0.676  0.9175 -0.3796  0.0560
  157TIP3    H1  432   7.794   7.120   0.712  0.9961 -0.9499 -0.3442
  157TIP3    H2  433   7.654   7.065   0.714  0.2831  0.8619  1.4658
  158TIP3   OH2  434   5.158   0.323   0.387  0.2822 -0.0153  0.4796
  158TIP3    H1  435   5.166   0.263   0.461 -1.8445 -0.7135  0.1728
  158TIP3    H2  436   5.105   0.395   0.421  1.0381  0.6665  0.2224
  159TIP3   OH2  437   5.742   1.038   0.722  0.1871  0.0247 -0.9862
  159TIP3    H1  438   5.834   1.061   0.732  0.3877 -1.7695  1.7385
  159TIP3    H2  439   5.740   0.977   0.649  1.1098  0.3796 -1.3104
  160TIP3   OH2  440   1.786   0.777   0.569 -0.2198  0.5841 -0.1066
  160TIP3    H1  441   1.824   0.705   0.520  1.3954  0.4651  1.2781
  160TIP3    H2  442   1.723   0.736   0.628 -0.6969  0.5232 -0.6512
  161TIP3   OH2  443   5.278   2.633   0.633  0.1995  0.5007 -0.3104
  161TIP3    H1  444   5.214   2.665   0.696  0.1157 -0.1256 -0.0739
  161TIP3    H2  445   5.361   2.637   0.679  0.4356  1.9266 -0.8342
  162TIP3   OH2  446   4.088   4.850   3.258  0.0720 -0.2332 -0.0654
  162TIP3    H1  447   4.099   4.821   3.348  1.0274 -1.2877 -0.5151
  162TIP3    H2  448   4.131   4.935   3.255  1.6751 -1.0252  0.0241
  163TIP3   OH2  449   1.221   5.878   3.763 -0.5439 -0.1103 -0.9753
  163TIP3    H1  450   1.301   5.925   3.740 -0.2502 -0.2701 -0.3115
  163TIP3    H2  451   1.152   5.945   3.763  0.0945  0.6026  1.2374
  164TIP3   OH2  452   4.701  -0.001   1.142 -0.1168 -0.1409  0.5406
  164TIP3    H1  453   4.758   0.075   1.153 -0.3404 -0.1025  1.4295
  164TIP3    H2  454   4.623   0.018   1.194 -0.2504 -0.8978  0.6343
  165TIP3   OH2  455   2.125   6.577   1.347 -0.1686 -0.1386  0.3399
  165TIP3    H1  456   2.117   6.519   1.271 -2.5159  0.1347  0.3353
  165TIP3    H2  457   2.215   6.610   1.344  0.4870 -2.0130 -0.9374
  166TIP3   OH2  458   0.878   1.355   6.067 -0.0886  0.4309 -0.3328
  166TIP3    H1  459   0.950   1.408   6.100 -0.2908  0.9739 -0.7625
  166TIP3    H2  460   0.865   1.288   6.134 -1.0878  2.0380  1.1321
  167TIP3   OH2  461   2.880   5.673   2.497  0.0257 -0.5491  0.0259
  167TIP3    H1  462   2.924   5.757   2.481  1.2760 -0.7564  2.2466
  167TIP3    H2  463   2.951   5.608   2.497 -0.5061 -1.1518  1.6743
  168TIP3   OH2  464   3.942   0.803   1.782 -0.2624 -0.2198 -0.0209
  168TIP3    H1  465   4.022   0.750   1.778 -0.2484 -0.2603  0.8903
  168TIP3    H2  466   3.956   0.863   1.855 -0.0485  1.4318 -1.3801
  169TIP3   OH2  467   2.043   5.625   1.704 -0.0976  0.4518  0.0370
  169TIP3    H1  468   2.004   5.584   1.781 -0.9519  1.5839  0.2185
  169TIP3    H2  469   2.135   5.599   1.707 -0.3842 -0.4937  0.7714
  170TIP3   OH2  470   0.216   4.512   4.290 -0.4235 -0.2398 -0.6561
  170TIP3    H1  471   0.293   4.526   4.345 -0.0720  0.5672 -1.3294
  170TIP3    H2  472   0.199   4.418   4.296  1.0626 -0.5530 -1.0695
  171TIP3   OH2  473   3.678   6.334   3.052  0.1728  0.1908  0.3253
  171TIP3    H1  474   3.629   6.322   2.970 -1.0722 -0.1845  1.1047
  171TIP3    H2  475   3.626   6.287   3.117  1.6769 -0.3454  1.1523
  172TIP3   OH2  476   4.808   1.823   0.823  0.1321  0.3357  0.0423
  172TIP3    H1  477   4.758   1.876   0.761  2.4371  1.2425 -1.0860
  172TIP3    H2  478   4.844   1.886   0.886  0.3640 -0.2339  0.4920
  173TIP3   OH2  479   1.449   7.173   0.548  0.4429 -0.0722  0.0685
  173TIP3    H1  480   1.432   7.152   0.456 -2.0408  2.5770 -0.1279
  173TIP3    H2  481   1.517   7.240   0.545  0.0974  0.2812  0.1496
  174TIP3   OH2  482   5.121   0.073   0.181 -0.1054  0.3184 -0.0223
  174TIP3    H1  483   5.084   0.139   0.121 -1.7033  0.5934  1.2517
  174TIP3    H2  484   5.121   0.116   0.266  1.0413 -0.5200  0.4052
  175TIP3   OH2  485   2.064   0.753   1.317 -0.0454  0.8780 -1.1316
  175TIP3    H1  486   2.063   0.787   1.406  0.0559  1.6133 -1.4102
  175TIP3    H2  487   2.014   0.671   1.322  0.1323  0.8197 -0.3634
  176TIP3   OH2  488   6.764   5.119   6.151  0.0451  0.1131  0.0419
  176TIP3    H1  489   6.700   5.088   6.215 -1.1597  0.5123 -0.9464
  176TIP3    H2  490   6.817   5.183   6.199 -1.1824  0.8026  0.4904
  177TIP3   OH2  491   0.773   5.525   5.804 -0.0391  0.2118 -0.4287
  177TIP3    H1  492   0.820   5.442   5.810 -1.0758 -0.3260  0.4487
  177TIP3    H2  493   0.700   5.506   5.746 -0.4536  0.4240  0.0229
  178TIP3   OH2  494   6.334   0.714   3.710  0.1124 -0.5337 -0.5191
  178TIP3    H1  495   6.268   0.647   3.690 -1.0475  0.2840  0.5055
  178TIP3    H2  496   6.314   0.741   3.800 -1.1501  3.1349 -1.8415
  179TIP3   OH2  497   3.056   6.657   0.627 -0.3218  0.0685 -0.1974
  179TIP3    H1  498   3.032   6.580   0.575  2.2374 -0.2525 -0.9476
  179TIP3    H2  499   3.096   6.622   0.706 -0.4285  0.6068  0.0992
  180TIP3   OH2  500   5.807   2.768   6.302  0.4744  0.6610 -0.5042
  180TIP3    H1  501   5.864   2.732   6.235  1.0987 -0.2816  0.5198
  180TIP3    H2  502   5.720   2.733   6.281  0.8956 -0.6673 -0.0977
  181TIP3   OH2  503   2.301   6.405   3.557  0.3866 -0.4763 -0.4015
  181TIP3    H1  504   2.351   6.368   3.484 -0.8695  0.0884 -1.5918
  181TIP3    H2  505   2.322   6.499   3.555  1.4685 -0.6868  0.8886
  182TIP3   OH2  506   7.586   6.989   2.307  0.0602  0.3625  0.0478
  182TIP3    H1  507   7.634   7.071   2.296 -1.7217  1.3401 -0.6274
  182TIP3    H2  508   7.510   7.013   2.360 -0.2485 -0.9527  0.2077
  183TIP3   OH2  509   6.889   4.486   5.503 -0.1519 -0.1384  0.4272
  183TIP3    H1  510   6.970   4.449   5.539  0.6779  0.7270 -0.5210
  183TIP3    H2  511   6.885   4.575   5.538 -1.8272 -0.8631  2.2058
  184TIP3   OH2  512   6.969   6.781   1.347 -0.3661  0.2028 -0.3767
  184TIP3    H1  513   6.906   6.809   1.413  0.5727  0.9279  0.2302
  184TIP3    H2  514   6.976   6.686   1.358  0.3908  0.4186  1.1305
  185TIP3   OH2  515   5.217   3.296   6.186 -0.0222  0.0769  0.5954
  185TIP3    H1  516   5.276   3.241   6.134 -1.1127 -0.2038 -0.3623
  185TIP3    H2  517   5.245   3.385   6.167  1.4271 -0.1086  1.7608
  186TIP3   OH2  518   5.141   0.430   1.841  0.1395 -0.2490 -0.3803
  186TIP3    H1  519   5.090   0.430   1.760 -0.4556 -2.1532 -0.0340
  186TIP3    H2  520   5.181   0.343   1.843  0.7318  0.0540  1.0208
  187TIP3   OH2  521   4.171   2.960   1.368  0.1701 -0.1799 -0.1083
  187TIP3    H1  522   4.151   2.960   1.461 -1.5485  0.5313 -0.4615
  187TIP3    H2  523   4.126   2.883   1.333 -0.6946  0.5525 -0.6417
  188TIP3   OH2  524   2.001   0.359   2.102  0.3609 -0.0902 -0.1375
  188TIP3    H1  525   1.920   0.346   2.053  0.0233  0.3112  0.3137
  188TIP3    H2  526   2.018   0.453   2.099 -0.3458  0.1143  1.5794
  189TIP3   OH2  527   4.048   1.057   0.528 -0.3912  0.4478  0.2737
  189TIP3    H1  528   4.095   1.085   0.449  1.1646  0.9216  1.3549
  189TIP3    H2  529   3.957   1.045   0.498  0.7259 -2.2567 -2.2492
  190TIP3   OH2  530   3.746   0.112   0.187  0.0328 -0.0384 -0.1011
  190TIP3    H1  531   3.806   0.044   0.217  0.2760 -0.6576 -1.9456
  190TIP3    H2  532   3.803   0.181   0.153 -0.2704 -0.6523 -1.9171
  191TIP3   OH2  533   5.075   0.833   2.732  0.4568 -0.2360 -0.3773
  191TIP3    H1  534   5.082   0.838   2.827  0.3130 -0.2965 -0.3633
  191TIP3    H2  535   5.091   0.740   2.711 -3.8444 -1.1899 -0.0338
  192TIP3   OH2  536   6.666   3.106   5.942 -0.2371 -0.1845  0.4844
  192TIP3    H1  537   6.605   3.123   6.013 -1.7344 -1.4607 -0.4546
  192TIP3    H2  538   6.743   3.068   5.984 -0.0211  1.5593  1.6917
  193TIP3   OH2  539   2.265   6.819   1.099 -0.9383 -0.3199 -0.4851
  193TIP3    H1  540   2.277   6.787   1.189  0.4719 -0.3288 -0.6607
  193TIP3    H2  541   2.171   6.836   1.092 -0.9403  0.5567  1.2936
  194TIP3   OH2  542   3.980   3.615   1.977  1.0976  0.3140 -0.2366
  194TIP3    H1  543   4.040   3.583   1.909 -0.8574  0.0028 -1.8836
  194TIP3    H2  544   3.984   3.710   1.969  0.5565  0.2794 -1.1501
  195TIP3   OH2  545   1.360   5.537   3.352 -0.2219  0.4683  0.3493
  195TIP3    H1  546   1.322   5.549   3.439 -1.3646 -0.3401 -0.0148
  195TIP3    H2  547   1.302   5.586   3.294 -0.6134 -0.6026 -0.1868
  196TIP3   OH2  548   4.766   0.959   2.846  0.2216  0.0383  0.6902
  196TIP3    H1  549   4.768   1.053   2.831  0.2431  0.0499  0.7668
  196TIP3    H2  550   4.842   0.941   2.901  1.9030 -0.4474 -1.6933
  197TIP3   OH2  551   5.391   1.244   1.714  0.1944 -0.4179  0.1905
  197TIP3    H1  552   5.467   1.190   1.693 -0.3772 -2.0096  1.9863
  197TIP3    H2  553   5.422   1.303   1.783  0.3882  0.4220 -0.6206
  198TIP3   OH2  554   7.680   0.568   2.447  0.0363 -0.1135  0.1074
  198TIP3    H1  555   7.702   0.661   2.437 -0.4901  0.0832  0.6982
  198TIP3    H2  556   7.760   0.521   2.425  0.2710  0.4808 -0.3023
  199TIP3   OH2  557   3.790   2.562   2.667  0.3655  0.2508 -0.0491
  199TIP3    H1  558   3.741   2.511   2.602 -0.5407  1.4831 -0.3507
  199TIP3    H2  559   3.816   2.497   2.733 -3.6934 -0.1544  1.3283
  200TIP3   OH2  560   5.816   2.046   2.242 -0.2948  0.5816 -0.9014
  200TIP3    H1  561   5.773   2.127   2.216  1.3249  0.8037 -3.0003
  200TIP3    H2  562   5.871   2.070   2.317 -0.5937  1.1834 -0.8757
  201TIP3   OH2  563   0.069   0.764   2.518 -0.5858  0.1517 -0.1447
  201TIP3    H1  564   0.162   0.747   2.500  0.0060  1.3227  1.6922
  201TIP3    H2  565   0.054   0.724   2.604 -1.5513  0.7314 -0.0442
  202TIP3   OH2  566   6.004   0.266   3.369  0.2813 -0.2080  0.0788
  202TIP3    H1  567   5.989   0.360   3.361  0.6615 -0.1588 -0.0473
  202TIP3    H2  568   6.055   0.257   3.450 -0.9821 -0.4353  0.8787
  203TIP3   OH2  569   6.518   1.164   3.346  0.4940 -0.2242  0.7165
  203TIP3    H1  570   6.607   1.131   3.343  0.7322  0.3750  0.9892
  203TIP3    H2  571   6.483   1.149   3.258  2.0386  2.7060 -0.4730
  204TIP3   OH2  572   4.888   0.986   4.013 -0.6993 -0.1492  0.0577
  204TIP3    H1  573   4.855   0.897   3.999  1.0113 -0.7372 -0.4863
  204TIP3    H2  574   4.957   0.975   4.079  0.2377  0.5988 -0.7737
  205TIP3   OH2  575   6.626   2.060   0.637  0.5273  0.1228  0.5253
  205TIP3    H1  576   6.667   2.080   0.552  0.0159 -0.3131  0.1737
  205TIP3    H2  577   6.561   2.130   0.649 -0.6680 -0.8205 -0.3049
  206TIP3   OH2  578   5.667   2.849   1.988 -0.0565 -0.4872  0.3150
  206TIP3    H1  579   5.710   2.911   1.930  0.5535 -1.7623 -0.6107
  206TIP3    H2  580   5.702   2.764   1.963 -2.9519 -1.5476 -0.3615
  207TIP3   OH2  581   4.923   1.024   1.193  0.0562 -0.7207 -0.5441
  207TIP3    H1  582   4.922   1.112   1.232  4.2453 -0.1379 -1.4932
  207TIP3    H2  583   4.899   0.966   1.265  0.8579  0.9404  1.1107
  208TIP3   OH2  584   4.851   1.272   0.055  0.6404 -0.6702 -1.1634
  208TIP3    H1  585   4.775   1.323   0.084  0.2890 -1.1241 -1.2703
  208TIP3    H2  586   4.818   1.182   0.049  1.0880 -0.8102 -1.5738
  209TIP3   OH2  587   5.558   0.831   3.213  0.1251  0.3959 -0.2006
  209TIP3    H1  588   5.469   0.864   3.200 -0.5511 -1.0710  0.5673
  209TIP3    H2  589   5.547   0.750   3.263  1.8580 -0.0986 -0.5640
  210TIP3   OH2  590   2.928   6.601   1.266 -0.7436  0.4002  0.3353
  210TIP3    H1  591   2.969   6.661   1.205 -0.1282  0.2130  0.5660
  210TIP3    H2  592   2.835   6.626   1.266 -0.6874  0.6039 -0.4297
  211TIP3   OH2  593   5.623   2.078   0.518 -0.4671 -1.0384  0.5993
  211TIP3    H1  594   5.621   2.045   0.608  1.4948 -0.5717  0.8456
  211TIP3    H2  595   5.674   2.013   0.470  0.3165 -0.2162  0.3082
  212TIP3   OH2  596   4.456   0.904   3.152 -0.1696 -0.0449  0.1930
  212TIP3    H1  597   4.475   0.849   3.228 -1.4541 -1.5653 -0.5697
  212TIP3    H2  598   4.361   0.911   3.150 -0.1331  0.2919 -1.0700
  213TIP3   OH2  599   4.961   3.407   0.638  0.4470  0.1430  0.6230
  213TIP3    H1  600   4.931   3.371   0.722  0.2829 -0.4063  0.3277
  213TIP3    H2  601   4.885   3.454   0.603  0.1240 -0.7219  0.1690
  214TIP3   OH2  602   1.809   7.308   1.212  0.4265 -0.0229  0.1160
  214TIP3    H1  603   1.788   7.401   1.222 -0.5165 -0.1167 -0.9100
  214TIP3    H2  604   1.806   7.292   1.117 -0.4997 -1.3470  0.3493
  215TIP3   OH2  605   5.059   0.114   0.953  0.1794 -0.3720  0.0777
  215TIP3    H1  606   5.126   0.174   0.986 -0.8985 -0.1001  1.8579
  215TIP3    H2  607   5.098   0.027   0.962  0.2020 -0.2450  1.4051
  216TIP3   OH2  608   0.003   1.283   2.146  0.1602 -0.3990 -0.2377
  216TIP3    H1  609   0.032   1.340   2.218  3.5825 -1.1614 -0.9173
  216TIP3    H2  610   0.084   1.249   2.109 -1.6676 -2.1684 -2.7472
  217TIP3   OH2  611   2.927   1.276   2.620 -0.1391 -0.6622 -0.0708
  217TIP3    H1  612   2.842   1.275   2.664  0.2124  1.1076  0.7027
  217TIP3    H2  613   2.930   1.362   2.578  1.4334 -0.5444  0.2690
  218TIP3   OH2  614   0.792   1.852   1.643  0.1163  0.8023  0.8867
  218TIP3    H1  615   0.720   1.847   1.706  0.5409 -1.4470  1.2388
  218TIP3    H2  616   0.868   1.874   1.696 -0.1924  2.6475  0.5910
  219TIP3   OH2  617   0.998   3.161   2.504 -0.0511 -0.1083 -0.0301
  219TIP3    H1  618   0.926   3.103   2.529 -0.5249  1.2344  1.7898
  219TIP3    H2  619   1.075   3.105   2.503 -0.4533 -0.7268  1.9826
  220TIP3   OH2  620   1.749   0.421   2.044 -0.1885 -0.1840  0.4575
  220TIP3    H1  621   1.703   0.460   1.969 -1.2997 -0.7009  0.8573
  220TIP3    H2  622   1.765   0.495   2.103 -0.4449  0.0100  0.2882
  221TIP3   OH2  623   1.932   0.758   2.534 -0.1109 -0.4762 -0.0013
  221TIP3    H1  624   1.995   0.815   2.490  1.3179 -0.4839  1.9803
  221TIP3    H2  625   1.986   0.693   2.579 -1.6476 -2.1064 -0.4584
  222TIP3   OH2  626   1.798   3.348   1.597  0.8030 -0.2747  0.0493
  222TIP3    H1  627   1.831   3.414   1.658 -1.2825  2.0284 -1.2432
  222TIP3    H2  628   1.741   3.293   1.650  0.6880  0.4174  0.6536
  223TIP3   OH2  629   0.981   2.705   3.306  0.0635  0.4957 -0.0123
  223TIP3    H1  630   0.983   2.781   3.248 -1.7098  1.1268  0.7217
  223TIP3    H2  631   1.065   2.707   3.352  1.6296 -0.1566 -2.6841
  224TIP3   OH2  632   1.542   0.600   1.426 -0.1819 -0.3380  0.0188
  224TIP3    H1  633   1.601   0.669   1.397  0.8922 -1.5032 -0.6146
  224TIP3    H2  634   1.471   0.600   1.362  0.4344 -0.6174 -0.6703
  225TIP3   OH2  635   0.743   1.297   2.997 -0.1963 -0.0966  0.3343
  225TIP3    H1  636   0.809   1.322   2.931  0.6978 -2.7451  0.1810
  225TIP3    H2  637   0.660   1.323   2.957  0.5594  1.3476 -0.3915
  226TIP3   OH2  638   2.303   3.920   3.871  0.3086  0.3568 -0.2585
  226TIP3    H1  639   2.252   3.957   3.799 -0.3708  0.2662  0.1700
  226TIP3    H2  640   2.375   3.873   3.828 -0.7916 -0.7515 -0.9260
  227TIP3   OH2  641   7.266   6.673   3.034 -0.0786  0.1216 -0.1809
  227TIP3    H1  642   7.279   6.605   3.100 -1.4750  0.6618  0.6768
  227TIP3    H2  643   7.206   6.735   3.075  2.4537  2.7593 -0.3067
  228TIP3   OH2  644   0.394   2.849   2.294  0.4198  0.4585  0.1468
  228TIP3    H1  645   0.315   2.879   2.337 -0.2092  0.3941 -0.9372
  228TIP3    H2  646   0.372   2.849   2.201  2.1022  1.7118 -0.2843
  229TIP3   OH2  647   2.629   0.253   2.002  0.3545  0.0172  0.0168
  229TIP3    H1  648   2.656   0.230   2.090 -1.4984  0.1740  0.6493
  229TIP3    H2  649   2.691   0.208   1.945  2.6320  1.2907  1.3992
  230TIP3   OH2  650   4.536   5.204   5.822 -0.2340 -0.2320  0.2063
  230TIP3    H1  651   4.475   5.159   5.764  1.1453 -1.6323 -0.1954
  230TIP3    H2  652   4.541   5.149   5.900  0.5717 -0.1867  0.1969
  231TIP3   OH2  653   0.216   2.255   2.418  0.3152 -0.2793  0.4707
  231TIP3    H1  654   0.160   2.216   2.486  0.6214 -0.2401  0.7434
  231TIP3    H2  655   0.300   2.212   2.428 -0.0387 -1.3249 -0.8297
  232TIP3   OH2  656   6.313   6.843   0.442  0.5713  0.5491  0.8495
  232TIP3    H1  657   6.382   6.816   0.381 -0.5166 -0.6734  0.1382
  232TIP3    H2  658   6.349   6.822   0.529  0.6717 -1.0852  0.4321
  233TIP3   OH2  659   6.740   7.094   1.934 -0.0618  0.2796 -0.2193
  233TIP3    H1  660   6.666   7.072   1.878  0.3806  1.5238 -1.3177
  233TIP3    H2  661   6.702   7.149   2.003 -0.6514 -1.4721  0.8666
  234TIP3   OH2  662   2.130   6.792   1.871  0.6573 -0.6446 -0.4501
  234TIP3    H1  663   2.188   6.771   1.799 -1.3996 -0.3279 -2.2623
  234TIP3    H2  664   2.063   6.724   1.869 -0.9569  0.9063 -0.6094
  235TIP3   OH2  665   1.583   3.039   0.622  0.1080 -0.3541 -0.6905
  235TIP3    H1  666   1.648   2.991   0.674 -0.2014 -1.4186 -1.2717
  235TIP3    H2  667   1.635   3.097   0.566  0.4491  0.6963  0.6926
  236TIP3   OH2  668   7.101   2.688   1.696  0.6525  0.0478  0.4554
  236TIP3    H1  669   7.069   2.768   1.738  1.2653  0.3935  0.2733
  236TIP3    H2  670   7.033   2.665   1.632  1.1697  1.2743 -0.5561
  237TIP3   OH2  671   2.912   2.280   0.886  0.2688 -0.5382  0.3542
  237TIP3    H1  672   2.837   2.224   0.865 -0.3374  1.0906 -1.9198
  237TIP3    H2  673   2.880   2.336   0.957 -0.0571 -1.0739  0.6398
  238TIP3   OH2  674   0.597   1.196   2.046 -0.0228 -0.0117  0.1120
  238TIP3    H1  675   0.531   1.150   2.097  0.2539 -0.7174 -0.1628
  238TIP3    H2  676   0.636   1.258   2.107  0.3476 -0.8950  0.7776
  239TIP3   OH2  677   2.006   1.152   2.204  0.0603 -0.4916  0.4746
  239TIP3    H1  678   1.952   1.201   2.143 -1.3267 -1.5542  0.8384
  239TIP3    H2  679   2.076   1.214   2.228 -0.3070  0.4821 -0.8972
  240TIP3   OH2  680   2.966   3.887   5.467  0.3607  0.0922  0.4426
  240TIP3    H1  681   2.905   3.868   5.395 -3.2543  1.7472  2.9219
  240TIP3    H2  682   2.940   3.826   5.536  1.5921  0.7867  1.5241
  241TIP3   OH2  683   1.986   6.919   1.116  0.1782 -0.6373 -0.1361
  241TIP3    H1  684   1.972   6.949   1.205  2.2455  1.8507 -0.6130
  241TIP3    H2  685   1.898   6.895   1.085 -0.6560 -0.8468  2.2758
  242TIP3   OH2  686   5.115   5.611   5.939  0.1526  0.1527 -0.6425
  242TIP3    H1  687   5.092   5.545   6.004 -1.0272  0.6519 -0.5499
  242TIP3    H2  688   5.099   5.567   5.855 -0.2393  0.1818 -0.5843
  243TIP3   OH2  689   1.340   1.255   0.172  0.3093 -0.4734  0.6032
  243TIP3    H1  690   1.321   1.349   0.164 -1.1912 -0.8079  0.0961
  243TIP3    H2  691   1.277   1.213   0.113  1.5674 -1.7465  0.1607
  244TIP3   OH2  692   2.136   3.280   1.069 -0.6581 -0.4666  0.0650
  244TIP3    H1  693   2.226   3.288   1.099 -1.5970  1.7606  2.4406
  244TIP3    H2  694   2.090   3.352   1.112 -3.3661 -0.9587 -1.9046
  245TIP3   OH2  695   0.130   0.112   2.131 -0.3179  0.2767  0.0749
  245TIP3    H1  696   0.091   0.155   2.208 -0.3097  0.4958 -0.0458
  245TIP3    H2  697   0.084   0.150   2.057 -0.2950  0.0935 -0.0335
  246TIP3   OH2  698   1.685   1.554   2.680  0.1685 -0.4314  0.2709
  246TIP3    H1  699   1.772   1.529   2.711 -0.2345 -0.3189  1.5278
  246TIP3    H2  700   1.701   1.607   2.602  1.2849  0.7054  1.2487
  247TIP3   OH2  701   0.137   0.016   3.558 -0.2005 -0.6618 -0.4414
  247TIP3    H1  702   0.203   0.044   3.494  1.5772 -0.8062  1.2803
  247TIP3    H2  703   0.077   0.090   3.565  0.2592 -0.1884 -1.3810
  248TIP3   OH2  704   3.908   0.901   2.185 -0.2589  0.5005  0.3932
  248TIP3    H1  705   3.833   0.849   2.214  1.2183 -0.8715  1.8871
  248TIP3    H2  706   3.968   0.900   2.260  1.5572  0.9718 -1.0082
  249TIP3   OH2  707   2.836   1.908   2.072  0.5814 -0.0195  0.8812
  249TIP3    H1  708   2.825   1.977   2.138 -0.7611  2.4344 -1.7648
  249TIP3    H2  709   2.885   1.951   2.002  0.1289 -1.8987 -0.6152
  250TIP3   OH2  710   1.183   2.486   1.706  0.2408  0.1194  0.1958
  250TIP3    H1  711   1.220   2.418   1.763 -0.7993  0.1782  0.9550
  250TIP3    H2  712   1.106   2.444   1.666  0.2590  0.4797 -0.2210
  251TIP3   OH2  713   0.864   3.197   3.032  0.2083  0.1095  0.1808
  251TIP3    H1  714   0.893   3.285   3.008  1.5656 -0.2542  0.4661
  251TIP3    H2  715   0.769   3.200   3.023  0.3178  1.3480 -0.6565
  252TIP3   OH2  716   1.403   3.117   1.536 -0.1301 -0.4404 -0.4749
  252TIP3    H1  717   1.369   3.181   1.474  1.4409  1.6842  0.8166
  252TIP3    H2  718   1.492   3.099   1.505 -0.2680 -1.3828 -0.3452
  253TIP3   OH2  719   1.232   2.098   1.561  0.0672 -0.1290 -0.3480
  253TIP3    H1  720   1.242   2.160   1.489  0.2209 -0.5680 -0.7108
  253TIP3    H2  721   1.144   2.115   1.596  0.0871  0.2496 -0.4873
  254TIP3   OH2  722   2.688   1.416   0.231 -0.9940 -0.3125  0.1067
  254TIP3    H1  723   2.744   1.489   0.260 -1.1332 -0.5128  0.8895
  254TIP3    H2  724   2.700   1.414   0.136  1.2786 -1.1154  0.3693
  255TIP3   OH2  725   4.647   0.946   0.350  0.3571  0.0518  0.0259
  255TIP3    H1  726   4.673   0.944   0.442  1.3097  1.7934 -0.1818
  255TIP3    H2  727   4.689   0.868   0.312  2.9279  1.2414  0.3213
  256TIP3   OH2  728   0.563   7.265   1.398  0.4674 -0.5455  0.2629
  256TIP3    H1  729   0.604   7.205   1.335  1.6227  1.8718 -1.3834
  256TIP3    H2  730   0.636   7.294   1.453 -0.0940 -0.6919  1.0806
  257TIP3   OH2  731   3.075   2.635   2.372  0.4308  0.0513  0.0730
  257TIP3    H1  732   3.029   2.574   2.314 -0.8824  0.2660  0.8507
  257TIP3    H2  733   3.123   2.692   2.313 -0.4933 -0.0392 -0.7900
  258TIP3   OH2  734   7.141   3.495   2.056  0.2330  0.3553 -0.0259
  258TIP3    H1  735   7.208   3.488   1.989  1.6200 -0.6904  1.4216
  258TIP3    H2  736   7.121   3.405   2.080 -3.4395  0.5313 -2.0654
  259TIP3   OH2  737   0.688   7.275   0.439  0.2293 -0.1970 -0.1158
  259TIP3    H1  738   0.630   7.351   0.434  0.4712 -0.0373 -0.5062
  259TIP3    H2  739   0.772   7.306   0.404  0.4816 -0.4972  0.2129
  260TIP3   OH2  740   3.646   0.362   2.715  0.4048 -0.7699  0.4348
  260TIP3    H1  741   3.598   0.403   2.643  2.5273 -1.2327 -1.2758
  260TIP3    H2  742   3.616   0.409   2.793 -0.9522  0.6285 -0.8975
  261TIP3   OH2  743   2.244   0.533   2.693 -0.2788 -0.4137  0.0808
  261TIP3    H1  744   2.328   0.488   2.682 -0.2652  0.1077 -1.9790
  261TIP3    H2  745   2.255   0.617   2.648 -1.9567 -0.3859 -0.3087
  262TIP3   OH2  746   0.831  -0.008   0.368  0.0557 -0.2531  0.1536
  262TIP3    H1  747   0.855   0.082   0.343  0.3448 -0.0040  1.2797
  262TIP3    H2  748   0.899  -0.062   0.328  0.2366  0.0902 -0.0143
  263TIP3   OH2  749   2.489   0.497   0.587 -0.1893 -0.4115 -0.4391
  263TIP3    H1  750   2.503   0.529   0.677  1.3564  0.0509 -0.8167
  263TIP3    H2  751   2.458   0.574   0.539 -0.2148 -0.4447 -0.4750
  264TIP3   OH2  752   3.342   1.044   0.968 -0.4086  0.0449  0.0501
  264TIP3    H1  753   3.273   1.074   1.027 -0.4852 -0.1722  0.0703
  264TIP3    H2  754   3.399   0.989   1.023 -0.4582 -0.1255 -0.0670
  265TIP3   OH2  755   2.204   2.987   1.059 -0.2647 -0.0699 -0.1103
  265TIP3    H1  756   2.149   2.949   1.128 -0.8397  0.4509 -0.2697
  265TIP3    H2  757   2.191   3.082   1.069  1.5699  0.1197  0.6383
  266TIP3   OH2  758   2.905   1.244   5.793  0.7632 -0.1558 -0.3738
  266TIP3    H1  759   2.905   1.329   5.836 -0.7441 -0.6140  0.5859
  266TIP3    H2  760   2.985   1.243   5.741  1.5148  1.2758  0.7237
  267TIP3   OH2  761   1.220   1.582   1.722  0.0826  0.1687 -0.2699
  267TIP3    H1  762   1.221   1.677   1.713  0.4886  0.1601 -0.3318
  267TIP3    H2  763   1.265   1.550   1.645  2.7357  0.0669  1.2528
  268TIP3   OH2  764   1.345   0.794   0.663  0.0975 -0.1596 -0.5832
  268TIP3    H1  765   1.354   0.880   0.703  0.1397 -0.5142  0.1698
  268TIP3    H2  766   1.294   0.743   0.726  2.4441 -1.5219  0.2510
  269TIP3   OH2  767   2.359   0.780   0.467 -0.8867 -0.0723 -0.4549
  269TIP3    H1  768   2.440   0.785   0.417 -0.9549 -1.7895 -0.7804
  269TIP3    H2  769   2.330   0.871   0.475  1.3466  0.6158  0.1512
  270TIP3   OH2  770   6.133   5.437   6.139  0.7096 -0.1567 -0.3275
  270TIP3    H1  771   6.061   5.392   6.094  0.8635 -2.2554  1.4669
  270TIP3    H2  772   6.212   5.404   6.097  0.8290 -1.7300  1.0825
  271TIP3   OH2  773   3.339   2.714   0.515  0.1099 -0.1946 -0.0792
  271TIP3    H1  774   3.398   2.655   0.562  1.1821  0.6298 -0.3778
  271TIP3    H2  775   3.271   2.735   0.579  0.5317 -0.5789  0.5055
  272TIP3   OH2  776   4.171   0.093   1.393  0.2058 -0.0882 -0.0350
  272TIP3    H1  777   4.170   0.168   1.334  2.6716 -0.6090 -0.7748
  272TIP3    H2  778   4.199   0.129   1.477  0.8907 -0.0950 -0.2610
  273TIP3   OH2  779   1.840   2.976   0.817  0.2202  0.1202  0.0863
  273TIP3    H1  780   1.927   2.956   0.782  0.0290  1.2513 -1.0449
  273TIP3    H2  781   1.857   3.029   0.894  0.5583 -0.5206  0.4633
  274TIP3   OH2  782   3.886   5.696   6.337 -0.4436  0.2505  0.6352
  274TIP3    H1  783   3.845   5.774   6.373 -0.7563  0.0532  0.7082
  274TIP3    H2  784   3.967   5.685   6.387 -0.6736  0.2106  1.0005
  275TIP3   OH2  785   2.489   1.771   2.312  0.6118  0.1019  0.2412
  275TIP3    H1  786   2.550   1.822   2.366 -0.0530 -0.0135  1.1108
  275TIP3    H2  787   2.468   1.695   2.365  0.7699 -0.5494 -0.6232
  276TIP3   OH2  788   6.634   7.356   3.368 -0.2117  0.2009  0.0123
  276TIP3    H1  789   6.610   7.264   3.373 -2.1832  0.7362  1.1776
  276TIP3    H2  790   6.695   7.362   3.295 -1.8448 -1.6605 -1.5467
  277TIP3   OH2  791   5.442   3.583   6.142  0.0415 -0.9867  0.3056
  277TIP3    H1  792   5.530   3.617   6.125 -0.4298 -0.8274 -1.8830
  277TIP3    H2  793   5.421   3.531   6.065 -2.4578  0.3238  0.0638
  278TIP3   OH2  794   2.181   1.671   1.023 -0.2250 -0.3974  0.2777
  278TIP3    H1  795   2.246   1.721   0.975  0.9276 -0.7192  1.4784
  278TIP3    H2  796   2.100   1.723   1.014  0.2624  0.1626 -0.9438
  279TIP3   OH2  797   1.341   1.557   0.165 -0.9367  0.0372  0.4188
  279TIP3    H1  798   1.394   1.594   0.236 -0.9400  1.7311 -0.4282
  279TIP3    H2  799   1.298   1.633   0.126  0.2981 -0.6652 -2.4406
  280TIP3   OH2  800   2.389   1.140   1.689 -0.7120  0.4984 -0.3744
  280TIP3    H1  801   2.451   1.138   1.616  0.5780 -2.8955  0.6891
  280TIP3    H2  802   2.316   1.193   1.658  1.3394  1.9836 -2.8256
  281TIP3   OH2  803   6.316   6.994   2.285  0.1246 -0.6791  0.1957
  281TIP3    H1  804   6.290   6.932   2.217  0.7617 -0.2230 -0.4694
  281TIP3    H2  805   6.268   7.074   2.263  0.3072 -0.5414  0.3035
  282TIP3   OH2  806   1.660   2.961   0.292  0.2663 -0.0629  0.1101
  282TIP3    H1  807   1.609   2.907   0.352 -0.4303 -0.4499 -0.8169
  282TIP3    H2  808   1.666   3.046   0.335 -3.1167  0.6923 -0.7713
  283TIP3   OH2  809   0.606   2.084   1.605 -0.1268  0.0900  0.2506
  283TIP3    H1  810   0.659   2.006   1.618 -1.0617 -0.3157  1.7398
  283TIP3    H2  811   0.642   2.149   1.665 -0.3778  0.2826  0.1988
  284TIP3   OH2  812   0.965   2.564   3.070 -0.2184 -0.2596  0.3881
  284TIP3    H1  813   1.028   2.492   3.058  1.3922  1.2431 -0.4664
  284TIP3    H2  814   0.983   2.597   3.158 -1.4218 -1.3174  1.0437
  285TIP3   OH2  815   6.464   6.082   5.914  0.2732 -0.3898 -0.4639
  285TIP3    H1  816   6.446   6.021   5.986  0.6808  0.3885  0.3186
  285TIP3    H2  817   6.378   6.096   5.873 -0.1065 -0.2671  0.3495
  286TIP3   OH2  818   4.105   4.523   6.329  0.4524  0.0333 -0.4280
  286TIP3    H1  819   4.120   4.533   6.423  1.3112  0.7311 -0.6332
  286TIP3    H2  820   4.021   4.565   6.313  0.1624 -0.3566  0.0800
  287TIP3   OH2  821   2.062   2.161   1.356 -0.2315 -0.1224  0.0932
  287TIP3    H1  822   2.117   2.139   1.431  0.4618  0.8956 -0.0990
  287TIP3    H2  823   1.985   2.105   1.365 -0.3751  0.3192  1.8267
  288TIP3   OH2  824   6.762   5.529   5.765  0.2588 -0.2082 -0.7999
  288TIP3    H1  825   6.729   5.439   5.772 -0.9726  0.3571  0.9589
  288TIP3    H2  826   6.839   5.531   5.822 -1.3305  0.5540  1.3923
  289TIP3   OH2  827   2.359   0.248   2.276  0.0231  0.4166 -0.0369
  289TIP3    H1  828   2.324   0.171   2.321  1.2325 -0.2752 -0.2484
  289TIP3    H2  829   2.360   0.317   2.343 -2.1542  0.5913 -0.1578
  290TIP3   OH2  830   7.535   7.213   1.262  0.3687  0.0994  0.6570
  290TIP3    H1  831   7.442   7.213   1.283  0.3463 -0.6709  0.5711
  290TIP3    H2  832   7.539   7.237   1.169  0.2254 -0.2802  0.5499
  291TIP3   OH2  833   2.944   0.390   2.127  0.3154  0.0540  0.0572
  291TIP3    H1  834   3.023   0.355   2.168  0.0325 -0.2120  0.3771
  291TIP3    H2  835   2.971   0.476   2.093  0.5694  0.2523  0.7475
  292TIP3   OH2  836   2.242   1.845   0.022  0.0761  0.1265 -0.0678
  292TIP3    H1  837   2.291   1.763   0.015 -0.3445 -0.3073  1.8616
  292TIP3    H2  838   2.272   1.885   0.103 -1.4333  0.7358  0.2076
  293TIP3   OH2  839   3.276   1.935   2.143  0.1493 -0.4912  0.4370
  293TIP3    H1  840   3.350   1.943   2.083  0.2028  1.7611  0.7573
  293TIP3    H2  841   3.313   1.896   2.221  0.7357 -0.5952  0.1111
  294TIP3   OH2  842   0.172   1.532   1.358  0.1154  0.0786  0.3189
  294TIP3    H1  843   0.136   1.585   1.429 -1.8861  0.2497 -0.7869
  294TIP3    H2  844   0.191   1.595   1.289 -0.2030 -0.3792 -0.1857
  295TIP3   OH2  845   3.385   1.282   1.585 -0.8149  0.2641 -0.1662
  295TIP3    H1  846   3.337   1.301   1.504 -1.9704  0.0325  0.4525
  295TIP3    H2  847   3.327   1.222   1.633 -0.0779  0.3030  0.7714
  296TIP3   OH2  848   1.806   7.123   2.526 -0.1651  0.1347  0.1009
  296TIP3    H1  849   1.779   7.050   2.581  1.3106  0.1291  0.8298
  296TIP3    H2  850   1.820   7.084   2.440  1.6243 -0.6564  0.7308
  297TIP3   OH2  851   7.759   5.628   3.749  0.0918 -0.0534  0.6662
  297TIP3    H1  852   7.723   5.674   3.825 -1.5490  1.1436 -0.7982
  297TIP3    H2  853   7.683   5.589   3.707  0.9891 -0.6589 -0.4146
  298TIP3   OH2  854   0.679   7.167   2.065  0.2122 -0.3876 -0.0546
  298TIP3    H1  855   0.649   7.231   2.129  1.3486 -0.0219  0.1120
  298TIP3    H2  856   0.649   7.083   2.100  1.4150 -0.2663  1.3077
  299TIP3   OH2  857   2.576   1.221   1.876  0.8163 -0.2137  0.5666
  299TIP3    H1  858   2.636   1.257   1.811 -0.7353  2.2728  0.4383
  299TIP3    H2  859   2.518   1.163   1.826  2.0915 -1.4328  0.4477
  300TIP3   OH2  860   1.619   4.065   2.304 -0.2222 -0.1029 -0.3282
  300TIP3    H1  861   1.607   4.159   2.289 -0.8692 -0.4621 -2.1651
  300TIP3    H2  862   1.682   4.060   2.377 -0.5926  1.7403  0.1308
  301TIP3   OH2  863   6.674   5.323   4.761  0.7006 -0.3906 -0.0118
  301TIP3    H1  864   6.729   5.389   4.719  1.2573  0.5409  2.1038
  301TIP3    H2  865   6.734   5.255   4.789  0.5227 -0.3768  0.4198
  302TIP3   OH2  866   1.199   2.456   1.046 -0.2550  0.8344  0.0314
  302TIP3    H1  867   1.183   2.431   0.956 -1.0738 -0.1989  0.4593
  302TIP3    H2  868   1.180   2.550   1.049  2.1999  1.4251 -1.4254
  303TIP3   OH2  869   1.220   0.998   2.102 -0.1095  0.0058 -0.2169
  303TIP3    H1  870   1.166   1.067   2.140  0.8453  0.1307  0.9120
  303TIP3    H2  871   1.163   0.957   2.036 -0.9240  1.3704 -0.3698
  304TIP3   OH2  872   4.779   1.329   0.339 -0.5868  0.0931  0.3783
  304TIP3    H1  873   4.739   1.397   0.285 -0.2454 -0.1867 -0.2207
  304TIP3    H2  874   4.833   1.278   0.279  2.0101  1.4829  1.4505
  305TIP3   OH2  875   4.348   0.282   1.973 -0.1376 -0.0969  0.7257
  305TIP3    H1  876   4.389   0.311   1.892  0.9460 -1.6657  0.7143
  305TIP3    H2  877   4.368   0.189   1.980 -0.4008 -0.0440  2.6816
  306TIP3   OH2  878   5.260   7.063   5.970 -0.1739  0.4782  0.5916
  306TIP3    H1  879   5.240   7.007   6.046 -1.1327 -1.3336 -0.9459
  306TIP3    H2  880   5.175   7.079   5.929  0.6029 -1.0955 -1.7776
  307TIP3   OH2  881   2.854   1.254   0.647 -0.3494  0.7656  0.9755
  307TIP3    H1  882   2.935   1.213   0.677 -0.9009 -0.2669  1.0951
  307TIP3    H2  883   2.792   1.237   0.719 -0.2459  2.9283  1.5977
  308TIP3   OH2  884   2.256   1.300   2.251  0.2423  0.5155  0.5196
  308TIP3    H1  885   2.286   1.330   2.337  0.4185  1.1195  0.2505
  308TIP3    H2  886   2.332   1.310   2.194  0.0723  0.2856  0.2523
  309TIP3   OH2  887   6.015   5.184   4.928  0.0843 -0.4618 -1.1225
  309TIP3    H1  888   6.095   5.213   4.885 -0.4791  1.5127 -0.8564
  309TIP3    H2  889   5.947   5.241   4.893 -0.8113 -0.5799  0.4052
  310TIP3   OH2  890   1.811   3.103   1.944 -0.0879 -0.0783  0.5575
  310TIP3    H1  891   1.814   3.023   1.996  0.1005  0.1632  0.9161
  310TIP3    H2  892   1.886   3.095   1.884 -0.0270 -0.1369  0.6415
  311TIP3   OH2  893   7.512   5.516   3.712  1.1151  0.0620  0.1040
  311TIP3    H1  894   7.505   5.480   3.800  0.4775 -1.6581 -0.6358
  311TIP3    H2  895   7.423   5.517   3.679  1.3574  0.6401 -0.5493
  312TIP3   OH2  896   2.635   1.220   0.840  0.7780 -0.7668  0.6517
  312TIP3    H1  897   2.722   1.201   0.876  0.4995 -1.3123  1.0424
  312TIP3    H2  898   2.590   1.267   0.910  1.2126  0.7383 -0.0450
  313TIP3   OH2  899   3.666   2.993   0.960 -0.2936 -0.4746 -0.4281
  313TIP3    H1  900   3.606   2.919   0.949 -0.4203 -0.6194  1.1011
  313TIP3    H2  901   3.610   3.068   0.979 -0.2729  0.3916 -3.6018
  314TIP3   OH2  902   3.061   1.442   1.252 -0.5283 -0.0851 -0.5097
  314TIP3    H1  903   3.095   1.527   1.225 -1.0918 -0.0447 -1.0778
  314TIP3    H2  904   2.966   1.453   1.254 -0.4919  0.3136  2.7379
  315TIP3   OH2  905   1.818   2.382   0.978  0.2143  0.9763  0.1083
  315TIP3    H1  906   1.794   2.470   1.004  0.4996  1.5458 -1.5286
  315TIP3    H2  907   1.780   2.370   0.892 -0.6747 -0.8745  0.7197
  316TIP3   OH2  908   1.137   0.751   1.680  0.0878 -0.1604 -0.5747
  316TIP3    H1  909   1.092   0.705   1.609 -0.1903 -0.3607 -0.2665
  316TIP3    H2  910   1.219   0.703   1.691  0.3069  0.1058 -1.0245
  317TIP3   OH2  911   4.039   4.404   6.029 -0.7624  0.0443 -0.0526
  317TIP3    H1  912   4.066   4.473   6.090  0.3113 -0.9477  0.6185
  317TIP3    H2  913   4.106   4.336   6.038 -2.8273 -1.9656  0.7512
  318TIP3   OH2  914   1.577   1.148   2.375  0.2283 -0.1399 -0.1982
  318TIP3    H1  915   1.592   1.085   2.304  0.0712  0.3683 -0.6799
  318TIP3    H2  916   1.481   1.156   2.379  0.2586  0.2161 -0.2571
  319TIP3   OH2  917   3.841   1.184   2.851  0.4163 -0.3366  0.1013
  319TIP3    H1  918   3.807   1.226   2.772  1.8242  2.4941  0.9733
  319TIP3    H2  919   3.763   1.166   2.904 -0.3001  0.0746 -0.7959
  320TIP3   OH2  920   0.696   2.936   1.439  0.5250 -0.4350 -0.6112
  320TIP3    H1  921   0.676   3.013   1.492  1.3334 -0.2127 -0.6214
  320TIP3    H2  922   0.611   2.898   1.419  0.1528  0.1110 -0.0916
  321TIP3   OH2  923   1.759   1.677   1.509 -0.4475  0.1461 -0.5133
  321TIP3    H1  924   1.724   1.714   1.428  0.5883  0.8461 -0.6528
  321TIP3    H2  925   1.685   1.630   1.548 -1.0365  0.0725 -1.7033
  322TIP3   OH2  926   1.233   4.003   0.088  0.5962  0.5125  0.0822
  322TIP3    H1  927   1.318   4.013   0.132  1.8075 -1.0346 -1.8316
  322TIP3    H2  928   1.178   3.957   0.151  1.5442  0.5010  0.9113
  323TIP3   OH2  929   0.852   1.847   2.032  0.1216  0.1351 -0.2671
  323TIP3    H1  930   0.797   1.782   1.987  1.0763 -0.8872  0.0218
  323TIP3    H2  931   0.942   1.819   2.014  0.5264  0.0239  1.7854
  324TIP3   OH2  932   1.698   3.991   0.373  0.3391 -0.3342  0.6008
  324TIP3    H1  933   1.779   3.949   0.403 -0.2938 -1.5197  0.7013
  324TIP3    H2  934   1.695   3.973   0.279 -0.3626 -1.2777  0.7950
  325TIP3   OH2  935   0.470   2.348   1.564  0.2959  0.2451 -0.6337
  325TIP3    H1  936   0.496   2.256   1.569  1.4214  0.6477  1.6717
  325TIP3    H2  937   0.384   2.351   1.604  1.0870  0.4800  1.0746
  326TIP3   OH2  938   1.326   1.856   2.319 -0.2157  0.4868 -0.0619
  326TIP3    H1  939   1.376   1.876   2.398 -3.0098  1.5607  1.4898
  326TIP3    H2  940   1.336   1.761   2.308  2.0597  0.6692  0.2482
  327TIP3   OH2  941   0.093   0.230   6.094 -0.1393  0.0358 -0.1552
  327TIP3    H1  942   0.076   0.180   6.174 -3.4235  0.5581 -0.4286
  327TIP3    H2  943   0.141   0.170   6.038  1.8772 -0.4801  2.0411
  328TIP3   OH2  944   6.379   6.418   3.515  0.1931 -0.3550 -0.1486
  328TIP3    H1  945   6.448   6.373   3.563 -0.0883 -1.4989 -0.8116
  328TIP3    H2  946   6.342   6.352   3.458 -2.6171 -0.1996  1.4143
  329TIP3   OH2  947   1.442   6.469   3.155 -0.1784  0.2749  0.2012
  329TIP3    H1  948   1.471   6.421   3.078 -0.1205 -0.0926  0.4476
  329TIP3    H2  949   1.356   6.503   3.131 -0.9410 -1.3193  0.5832
  330TIP3   OH2  950   2.399   0.550   3.030  1.0004  0.3505 -0.1177
  330TIP3    H1  951   2.389   0.481   3.095  2.4792 -1.2124 -1.4798
  330TIP3    H2  952   2.446   0.619   3.075 -0.6231  0.5525  1.3118
  331TIP3   OH2  953   3.178   2.188   2.126  0.2668  0.6388 -0.0526
  331TIP3    H1  954   3.223   2.104   2.132  0.1588  0.5367 -0.6095
  331TIP3    H2  955   3.175   2.207   2.032 -1.9229  0.0521 -0.1449
  332TIP3   OH2  956   5.966   4.618   6.089 -0.4520 -0.2549  0.8978
  332TIP3    H1  957   5.944   4.709   6.068 -0.7478 -0.4297  0.4497
  332TIP3    H2  958   5.926   4.567   6.019  0.8049 -0.6379  0.4498
  333TIP3   OH2  959   5.441   1.642   2.125 -0.4043  0.0880 -0.5022
  333TIP3    H1  960   5.374   1.703   2.093 -0.2432  0.3543 -0.3357
  333TIP3    H2  961   5.502   1.697   2.174 -0.5782 -0.2954  0.1602
  334TIP3   OH2  962   6.561   4.563   6.234  0.4962  0.2380 -0.1785
  334TIP3    H1  963   6.545   4.527   6.147  0.9741 -0.6298  0.0862
  334TIP3    H2  964   6.582   4.656   6.219 -0.9230  0.4578 -0.8454
  335TIP3   OH2  965   0.326   7.279   3.070  0.0494 -0.4531 -0.3945
  335TIP3    H1  966   0.289   7.356   3.028 -1.7491 -1.8337 -1.4360
  335TIP3    H2  967   0.364   7.311   3.151 -1.3061  1.4001 -0.4743
  336TIP3   OH2  968   3.250   4.253   0.972 -0.4631 -0.3919 -0.1992
  336TIP3    H1  969   3.169   4.265   1.021 -0.1509 -0.8732  0.4368
  336TIP3    H2  970   3.294   4.180   1.016  0.4149  0.0055 -0.4195
  337TIP3   OH2  971   7.598   6.764   1.858 -0.2136 -0.1426  0.0538
  337TIP3    H1  972   7.592   6.677   1.819 -0.5521  0.1128 -0.4774
  337TIP3    H2  973   7.679   6.801   1.822 -0.1192 -0.2043  0.2038
  338TIP3   OH2  974   3.587   1.172   0.241 -0.1812 -0.1239  0.3209
  338TIP3    H1  975   3.568   1.101   0.302  0.3597 -0.5803 -0.0395
  338TIP3    H2  976   3.550   1.144   0.158  0.7667 -0.3685 -0.0290
  339TIP3   OH2  977   2.203   1.318   1.539 -0.4300  0.4706  0.0863
  339TIP3    H1  978   2.138   1.386   1.525  0.1128  1.0883  0.5382
  339TIP3    H2  979   2.288   1.362   1.529 -0.0508 -0.8171 -2.8507
  340TIP3   OH2  980   4.833   0.231   1.095 -0.4352  0.0230 -0.2071
  340TIP3    H1  981   4.911   0.253   1.044  1.1700 -1.5936  1.4589
  340TIP3    H2  982   4.834   0.292   1.168 -1.3336  0.6941 -0.7500
  341TIP3   OH2  983   6.139   1.877   0.448  0.1840  0.3683 -0.8020
  341TIP3    H1  984   6.094   1.857   0.530 -1.5133 -0.1920 -1.8501
  341TIP3    H2  985   6.221   1.918   0.475 -0.7407  0.9699  1.1484
  342TIP3   OH2  986   4.463   0.245   0.308 -0.0881 -0.4979 -0.2320
  342TIP3    H1  987   4.536   0.187   0.330  1.5210  1.2789 -0.8207
  342TIP3    H2  988   4.452   0.236   0.214  0.6779  0.7209 -0.4472
  343TIP3   OH2  989   5.217   3.684   6.263  0.1272  0.3933  0.1652
  343TIP3    H1  990   5.301   3.649   6.234 -0.1365  0.9082 -1.2324
  343TIP3    H2  991   5.234   3.717   6.352  1.0244 -0.8378  0.4616
  344TIP3   OH2  992   5.804   0.547   2.152  0.1976 -0.2767 -0.3614
  344TIP3    H1  993   5.812   0.508   2.065  0.3633  2.2245 -1.5163
  344TIP3    H2  994   5.881   0.604   2.160 -1.0285  1.2898  0.4802
  345TIP3   OH2  995   3.356   0.157   1.329  0.7185 -0.0898  0.2164
  345TIP3    H1  996   3.442   0.138   1.292  0.5841 -0.9586  0.3397
  345TIP3    H2  997   3.295   0.145   1.256  0.7390  0.8860  0.0364
  346TIP3   OH2  998   2.295   1.591   0.396  0.1024 -0.1869 -0.0899
  346TIP3    H1  999   2.323   1.679   0.373  1.4197 -0.6715 -0.3607
  346TIP3    H2 1000   2.224   1.604   0.460  0.1175  1.0571 -0.3220
  347TIP3   OH2 1001   4.428   0.141   1.618 -0.2031  0.1391 -0.8431
  347TIP3    H1 1002   4.492   0.196   1.662 -0.0510  0.5572 -1.5790
  347TIP3    H2 1003   4.366   0.202   1.579 -1.8633 -0.2867  1.0494
  348TIP3   OH2 1004   4.293   0.390   3.029 -0.0032 -0.0970 -0.4567
  348TIP3    H1 1005   4.330   0.343   2.955 -0.1569  0.4236 -0.8635
  348TIP3    H2 1006   4.238   0.457   2.990  1.3735  1.3822  0.1086
  349TIP3   OH2 1007   2.918   0.206   0.170  0.2538  0.0871  0.3634
  349TIP3    H1 1008   3.014   0.200   0.169  0.1279 -2.4080 -1.0920
  349TIP3    H2 1009   2.894   0.218   0.078 -0.9029 -0.7153  0.5487
  350TIP3   OH2 1010   4.590   0.488   0.149 -0.4104 -0.1602  0.6329
  350TIP3    H1 1011   4.502   0.506   0.182 -0.3849 -1.9663  1.7630
  350TIP3    H2 1012   4.584   0.504   0.055 -1.9346 -0.2363  0.7021
  351TIP3   OH2 1013   5.537   0.521   0.650  0.9007 -0.0702 -0.0177
  351TIP3    H1 1014   5.453   0.477   0.664  1.0984 -0.3550  0.2812
  351TIP3    H2 1015   5.529   0.604   0.696  0.2387  0.5582 -1.2323
  352TIP3   OH2 1016   3.334   3.087   2.259 -0.1198  0.0897  0.3155
  352TIP3    H1 1017   3.399   3.074   2.327 -0.4227  1.7120  0.9558
  352TIP3    H2 1018   3.312   3.180   2.264  0.1054  0.3275 -2.2334
  353TIP3   OH2 1019   2.909   4.388   1.768 -0.3103 -0.0711  0.2714
  353TIP3    H1 1020   2.959   4.446   1.710 -2.2792  2.1537  0.7583
  353TIP3    H2 1021   2.863   4.447   1.828 -2.7033 -2.1085  0.5117
  354TIP3   OH2 1022   4.961   4.953   5.156 -0.2542  0.4990  0.1595
  354TIP3    H1 1023   5.016   4.940   5.078  0.5410 -1.3026  0.9848
  354TIP3    H2 1024   4.982   5.041   5.186  2.1830 -0.1404  0.4282
  355TIP3   OH2 1025   5.593   1.297   1.296  0.1489 -0.2549 -0.3918
  355TIP3    H1 1026   5.574   1.385   1.264  1.6046  0.9471  1.9012
  355TIP3    H2 1027   5.614   1.246   1.217 -0.0089  1.6252 -1.6685
  356TIP3   OH2 1028   2.322   7.113   2.374 -0.1097  0.2236 -0.1051
  356TIP3    H1 1029   2.396   7.084   2.322 -0.1136 -1.0132  0.5504
  356TIP3    H2 1030   2.361   7.162   2.447 -0.1062  1.9467 -1.2555
  357TIP3   OH2 1031   3.689   1.071   0.788  0.2979  0.7733 -0.3335
  357TIP3    H1 1032   3.729   1.055   0.702  2.1353 -0.1553  0.6592
  357TIP3    H2 1033   3.680   0.984   0.827 -0.7850  1.1668  0.3152
  358TIP3   OH2 1034   6.147   5.762   5.636  0.1251  0.0100 -0.1521
  358TIP3    H1 1035   6.228   5.787   5.680  0.1080  0.6474 -0.4758
  358TIP3    H2 1036   6.088   5.736   5.706  0.4028  0.1373  0.1276
  359TIP3   OH2 1037   5.072   1.829   1.358  0.5536  0.1374  0.0192
  359TIP3    H1 1038   5.027   1.911   1.337  0.0461  0.1279  1.0551
  359TIP3    H2 1039   5.102   1.796   1.273 -0.4693  0.6809 -0.5680
  360TIP3   OH2 1040   4.076   0.345   1.338 -0.0734 -0.2416 -0.3299
  360TIP3    H1 1041   3.983   0.331   1.352 -0.3137  1.2373 -0.3639
  360TIP3    H2 1042   4.086   0.440   1.332  1.6877 -0.2761  1.4480
  361TIP3   OH2 1043   0.268   4.740   5.654  0.0923  0.1794 -0.6168
  361TIP3    H1 1044   0.354   4.704   5.633  0.0513 -0.2749 -0.0255
  361TIP3    H2 1045   0.287   4.821   5.702  0.1918  0.1922 -0.6785
  362TIP3   OH2 1046   6.033   2.091   5.298 -0.6250  0.1592  0.2887
  362TIP3    H1 1047   6.070   2.136   5.222  0.3956 -0.2833  0.5113
  362TIP3    H2 1048   6.107   2.084   5.359 -1.2034 -0.3268  0.9302
  363TIP3   OH2 1049   2.179   1.601   2.248 -0.5641 -0.2145  0.5678
  363TIP3    H1 1050   2.114   1.531   2.239 -0.3758 -0.5452  1.6938
  363TIP3    H2 1051   2.176   1.625   2.341  0.8977 -0.2230  0.6348
  364TIP3   OH2 1052   2.304   2.648   0.869 -0.2863  0.1087 -0.4375
  364TIP3    H1 1053   2.372   2.580   0.869  0.2399  0.6240  0.1180
  364TIP3    H2 1054   2.223   2.601   0.887  0.1974 -0.2773  0.8278
  365TIP3   OH2 1055   5.746   0.391   3.933  0.0798 -0.3069  0.5356
  365TIP3    H1 1056   5.676   0.448   3.964  0.7191  1.1283 -0.6075
  365TIP3    H2 1057   5.729   0.306   3.975 -0.7593  0.7683  2.3966
  366TIP3   OH2 1058   2.965   1.206   1.378  0.5487 -0.0098  0.7216
  366TIP3    H1 1059   2.943   1.285   1.330 -0.2599  0.1552  1.3519
  366TIP3    H2 1060   3.054   1.184   1.350  0.4062  0.5722 -0.1762
  367TIP3   OH2 1061   3.088   1.137   0.694  0.1477  0.3863  0.4749
  367TIP3    H1 1062   3.146   1.061   0.700 -1.2583 -0.6821  0.7905
  367TIP3    H2 1063   3.145   1.212   0.708  1.2679 -0.6990  1.8685
  368TIP3   OH2 1064   6.624   4.721   5.622 -0.0888  0.0307  0.5098
  368TIP3    H1 1065   6.546   4.669   5.600 -0.1329  0.1280  0.4368
  368TIP3    H2 1066   6.629   4.717   5.718 -0.9380  1.1145  0.6110
  369TIP3   OH2 1067   6.010   2.108   1.522 -0.5035 -0.3585 -0.5126
  369TIP3    H1 1068   5.968   2.023   1.534  0.1085 -0.8623 -1.9580
  369TIP3    H2 1069   5.938   2.171   1.534 -0.8475 -1.0138  1.1382
  370TIP3   OH2 1070   2.191   2.381   1.463  0.4305 -0.1401 -0.4599
  370TIP3    H1 1071   2.123   2.326   1.424 -0.1377  0.5491 -0.4547
  370TIP3    H2 1072   2.273   2.342   1.434  0.0243 -0.5329 -1.0931
  371TIP3   OH2 1073   4.919   2.096   1.966  0.3437  0.0362  0.1088
  371TIP3    H1 1074   4.965   2.071   1.886 -0.4951  0.5540 -0.5469
  371TIP3    H2 1075   4.859   2.024   1.983  0.8130 -0.2639  0.5073
  372TIP3   OH2 1076   5.875   2.776   0.318  0.0148  0.0338  0.1468
  372TIP3    H1 1077   5.814   2.719   0.271 -0.3652  0.1406  0.5110
  372TIP3    H2 1078   5.950   2.719   0.337 -0.8579 -0.6815  1.5359
  373TIP3   OH2 1079   7.324   6.296   5.461  0.4622  0.3678  0.2545
  373TIP3    H1 1080   7.344   6.375   5.511  0.4944 -0.2115  1.1802
  373TIP3    H2 1081   7.402   6.241   5.472 -0.3165 -0.5789  1.2200
  374TIP3   OH2 1082   2.658   1.519   1.752  0.0209 -0.5180 -0.1747
  374TIP3    H1 1083   2.646   1.580   1.826 -1.2945 -1.3828  0.3432
  374TIP3    H2 1084   2.749   1.490   1.760  0.3709  0.6280  0.1484
  375TIP3   OH2 1085   5.042   3.100   6.271  0.2041 -0.0005  0.2175
  375TIP3    H1 1086   5.109   3.161   6.300 -0.7435  0.8344  0.6879
  375TIP3    H2 1087   4.983   3.152   6.218 -2.1137  0.1766  2.8092
  376TIP3   OH2 1088   4.286   0.313   0.489 -0.1606 -0.3668  0.5137
  376TIP3    H1 1089   4.361   0.295   0.431 -0.0808 -1.0374  0.8222
  376TIP3    H2 1090   4.277   0.408   0.487 -0.1449 -0.3820 -0.5884
  377TIP3   OH2 1091   1.357   2.085   0.541 -0.2478  0.0478  0.7870
  377TIP3    H1 1092   1.303   2.038   0.605 -1.1539 -0.2968 -0.2233
  377TIP3    H2 1093   1.318   2.173   0.537 -1.0593 -0.3617 -0.3304
  378TIP3   OH2 1094   1.947   1.490   0.426 -0.1769  0.3653  0.1155
  378TIP3    H1 1095   1.988   1.456   0.347 -0.3755 -0.2489  0.2777
  378TIP3    H2 1096   1.894   1.418   0.459  0.3278  0.4317  1.1086
  379TIP3   OH2 1097   7.387   6.236   6.294 -0.0305  0.7751 -0.6203
  379TIP3    H1 1098   7.450   6.215   6.226  1.4069  0.2204  0.8493
  379TIP3    H2 1099   7.385   6.157   6.349 -2.6605  0.4408 -1.1207
  380TIP3   OH2 1100   6.845   5.765   5.655 -0.1928  0.1120 -0.4954
  380TIP3    H1 1101   6.783   5.838   5.652 -0.9599 -0.4459  1.4141
  380TIP3    H2 1102   6.802   5.698   5.708  1.7631 -0.5275  0.3355
  381TIP3   OH2 1103   3.592   2.587   0.552 -0.2434 -0.2290  0.1427
  381TIP3    H1 1104   3.657   2.560   0.616  0.1624 -1.8313 -0.9068
  381TIP3    H2 1105   3.644   2.629   0.482 -0.4490 -0.5192 -0.1842
  382TIP3   OH2 1106   5.798   4.835   5.734  0.1429  0.2721 -0.7125
  382TIP3    H1 1107   5.743   4.765   5.767  1.5072 -1.0407 -1.1890
  382TIP3    H2 1108   5.736   4.900   5.700 -1.1246 -0.5964 -0.0939
  383TIP3   OH2 1109   2.426   2.561   0.237  0.4101 -0.2612 -0.5193
  383TIP3    H1 1110   2.416   2.475   0.196 -0.7472 -0.7680  0.8090
  383TIP3    H2 1111   2.349   2.610   0.208  1.3921  0.5710 -1.8014
  384TIP3   OH2 1112   2.720   1.497   0.660  0.2338 -0.2482 -0.4899
  384TIP3    H1 1113   2.779   1.423   0.656  0.6795 -0.0048  1.4103
  384TIP3    H2 1114   2.652   1.477   0.594  0.0988 -2.5287  0.3061
  385TIP3   OH2 1115   5.026   3.884   0.783 -0.0103  0.1754 -0.4789
  385TIP3    H1 1116   4.982   3.900   0.867  0.2730  1.3505 -0.5386
  385TIP3    H2 1117   5.106   3.837   0.806 -0.0897  0.2182 -0.1191
  386TIP3   OH2 1118   6.551   7.238   1.263 -0.3134  0.7740 -0.1357
  386TIP3    H1 1119   6.606   7.217   1.187  1.4055  0.8650  1.0394
  386TIP3    H2 1120   6.583   7.324   1.292 -2.0234  1.4528 -0.2509
  387TIP3   OH2 1121   4.372   1.042   1.101 -0.2381 -0.1136 -0.3897
  387TIP3    H1 1122   4.386   0.975   1.034 -2.1366  0.0729 -0.9987
  387TIP3    H2 1123   4.456   1.050   1.145 -0.3365 -4.0360  0.7110
  388TIP3   OH2 1124   4.970   3.488   5.199 -0.2557 -0.2738  0.0565
  388TIP3    H1 1125   4.976   3.573   5.243  0.6824  0.5274 -1.5794
  388TIP3    H2 1126   4.994   3.506   5.108  0.8764 -2.4485 -0.1067
  389TIP3   OH2 1127   3.684   0.782   1.477 -0.4448  0.6022 -0.2589
  389TIP3    H1 1128   3.607   0.750   1.430 -1.1885  1.7044  0.1908
  389TIP3    H2 1129   3.668   0.876   1.489  0.9095  0.8197 -0.0437
  390TIP3   OH2 1130   7.166   5.202   3.540 -0.3095  0.4475 -0.2155
  390TIP3    H1 1131   7.132   5.126   3.587  0.9448 -0.0344 -0.0404
  390TIP3    H2 1132   7.103   5.272   3.558 -0.0528  0.1760  1.9168
  391TIP3   OH2 1133   3.737   1.034   2.508  0.5525  0.5901  0.3409
  391TIP3    H1 1134   3.827   1.041   2.475  0.8514 -1.8885  0.5407
  391TIP3    H2 1135   3.742   1.066   2.598  1.0570  1.3055  0.0626
  392TIP3   OH2 1136   2.863   1.231   2.291  0.0503  0.0320 -0.1346
  392TIP3    H1 1137   2.905   1.269   2.214  0.4371 -0.7343 -0.3110
  392TIP3    H2 1138   2.881   1.293   2.361  1.3101 -0.1681 -0.2520
  393TIP3   OH2 1139   4.452   1.178   0.081  0.1849  0.2595 -0.1006
  393TIP3    H1 1140   4.485   1.220   0.001 -2.0079 -0.0403 -1.2200
  393TIP3    H2 1141   4.492   1.092   0.081  0.5552  0.4298 -0.6596
  394TIP3   OH2 1142   4.197   1.376   0.845 -0.0503  0.3878  0.0644
  394TIP3    H1 1143   4.237   1.452   0.887 -1.9803  1.6040 -0.2602
  394TIP3    H2 1144   4.263   1.346   0.782  0.6465  1.8875  0.0660
  395TIP3   OH2 1145   4.994   2.336   2.616 -0.1408  0.0809  0.4939
  395TIP3    H1 1146   5.004   2.425   2.652 -0.4020  0.5444 -0.5456
  395TIP3    H2 1147   5.007   2.347   2.521 -2.1021 -0.6613  0.1179
  396TIP3   OH2 1148   0.969   6.780   0.343 -0.6086 -0.1877 -0.7307
  396TIP3    H1 1149   0.970   6.723   0.420 -1.8289  2.2083  1.1308
  396TIP3    H2 1150   1.058   6.816   0.339 -0.1802 -1.2758 -1.2120
  397TIP3   OH2 1151   4.528   0.820   0.013  0.1523 -0.0168  0.4755
  397TIP3    H1 1152   4.512   0.732  -0.022  0.3083 -0.1670  0.7770
  397TIP3    H2 1153   4.501   0.814   0.105  2.2694 -0.3784  1.0958
  398TIP3   OH2 1154   3.390   0.794   1.790  0.2993 -0.2789 -1.1550
  398TIP3    H1 1155   3.354   0.715   1.831 -0.4546  1.0216  0.8118
  398TIP3    H2 1156   3.483   0.791   1.811  0.5032 -1.2673 -2.1679
  399TIP3   OH2 1157   4.854   0.715   0.695 -0.0351  0.0039  0.4632
  399TIP3    H1 1158   4.920   0.723   0.626  1.5634  0.1835  1.9812
  399TIP3    H2 1159   4.788   0.781   0.673  1.7206  1.8200  0.4630
  400TIP3   OH2 1160   6.220   4.316   5.700  0.0558  0.3915 -0.0860
  400TIP3    H1 1161   6.215   4.394   5.756  1.9139  0.5849 -0.1626
  400TIP3    H2 1162   6.148   4.327   5.637  0.2661  2.0223 -0.0614
  401TIP3   OH2 1163   6.913   5.285   2.668 -0.6377 -0.0585  0.4369
  401TIP3    H1 1164   6.942   5.222   2.603 -1.2272  0.0834  0.0330
  401TIP3    H2 1165   6.896   5.365   2.618  0.0193  0.3972  0.9313
  402TIP3   OH2 1166   5.329   0.467   0.207  0.2410  0.0672 -0.0292
  402TIP3    H1 1167   5.293   0.410   0.274 -0.2979 -1.5724 -1.6966
  402TIP3    H2 1168   5.291   0.436   0.125  4.0201 -0.6116 -1.6468
  403TIP3   OH2 1169   4.671   1.890   0.206  0.5160 -0.2821 -0.1879
  403TIP3    H1 1170   4.659   1.839   0.286 -0.2377  2.3364  1.4288
  403TIP3    H2 1171   4.766   1.899   0.198  0.6180 -1.0586  0.0889
  404TIP3   OH2 1172   7.589   0.503   5.000  0.3002 -0.0370 -0.0731
  404TIP3    H1 1173   7.606   0.581   4.947 -0.1396  1.4479  1.9209
  404TIP3    H2 1174   7.660   0.443   4.976  0.9248  1.1480 -1.2868
  405TIP3   OH2 1175   3.653   3.743   2.027 -0.4408  0.5276  0.2060
  405TIP3    H1 1176   3.561   3.752   2.003 -0.3893  0.3514 -0.0572
  405TIP3    H2 1177   3.657   3.664   2.081 -0.8705  1.9609  2.4150
  406TIP3   OH2 1178   5.618   6.486   4.621  0.3158  0.4713  0.2084
  406TIP3    H1 1179   5.530   6.483   4.659 -0.0752  1.2855 -0.6043
  406TIP3    H2 1180   5.677   6.484   4.696 -0.4332  1.4118  0.8354
  407TIP3   OH2 1181   1.444   6.948   2.019  0.3240 -0.1717  0.3639
  407TIP3    H1 1182   1.507   7.019   2.006  0.1632 -0.5051 -2.7481
  407TIP3    H2 1183   1.358   6.990   2.014  0.2428 -0.4418 -0.7782
  408TIP3   OH2 1184   2.199   0.600   0.058 -0.0544 -0.3284  0.1837
  408TIP3    H1 1185   2.135   0.529   0.051 -0.5317  0.1982 -0.8733
  408TIP3    H2 1186   2.155   0.676   0.019  1.4386 -0.1159 -1.1377
  409TIP3   OH2 1187   3.876   2.094   0.778  0.5938 -0.4734 -0.4309
  409TIP3    H1 1188   3.932   2.041   0.835  1.8001 -0.4972 -1.6171
  409TIP3    H2 1189   3.903   2.071   0.689 -1.7998 -1.0187 -1.0492
  410TIP3   OH2 1190   5.093   1.077   0.771  0.4590  0.1283 -0.2626
  410TIP3    H1 1191   5.096   1.162   0.813 -1.0691 -0.3378  0.7932
  410TIP3    H2 1192   5.015   1.080   0.716  1.8658  0.3598 -2.3174
  411TIP3   OH2 1193   4.736   2.601   5.835  0.5573  0.5595 -0.0487
  411TIP3    H1 1194   4.659   2.548   5.855  0.7460  0.5890  0.7529
  411TIP3    H2 1195   4.745   2.594   5.740  0.1456 -0.2420 -0.0345
  412TIP3   OH2 1196   5.033   3.082   1.304 -0.0954  0.1303  0.1888
  412TIP3    H1 1197   4.986   3.058   1.224 -0.5594 -0.5990  0.6682
  412TIP3    H2 1198   5.022   3.177   1.312  2.0985  0.6108 -1.9537
  413TIP3   OH2 1199   5.315   1.034   0.411  0.1350 -0.5089  0.1602
  413TIP3    H1 1200   5.274   0.951   0.390  0.9019 -0.7297 -0.4775
  413TIP3    H2 1201   5.359   1.018   0.495  0.1214 -0.6857  0.1343
  414TIP3   OH2 1202   2.061   7.281   1.826  0.0948 -0.1761 -0.1162
  414TIP3    H1 1203   2.110   7.255   1.748 -2.5429 -1.0762 -1.5129
  414TIP3    H2 1204   2.069   7.207   1.886  2.5111  0.6975  0.7442
  415TIP3   OH2 1205   7.215   5.380   4.864  0.0485 -0.4169 -0.0536
  415TIP3    H1 1206   7.240   5.384   4.957 -0.2470 -0.9055  0.0474
  415TIP3    H2 1207   7.291   5.342   4.820 -0.4694 -1.8020  0.2368
  416TIP3   OH2 1208   1.011   6.943   2.704 -0.7536 -0.1226 -0.0381
  416TIP3    H1 1209   1.015   6.949   2.799  0.5547 -2.4656  0.0696
  416TIP3    H2 1210   0.949   7.012   2.679 -0.6964  0.8917  2.4415
  417TIP3   OH2 1211   2.712   2.584   2.663  0.2075 -0.1193  0.1321
  417TIP3    H1 1212   2.749   2.521   2.724  0.8718 -0.1349 -0.2849
  417TIP3    H2 1213   2.742   2.669   2.695 -0.0417 -0.0717  0.2424
  418TIP3   OH2 1214   7.405   6.321   5.961 -0.2715  0.1249  0.5981
  418TIP3    H1 1215   7.357   6.258   5.906 -0.2383  0.2942  0.3738
  418TIP3    H2 1216   7.472   6.269   6.004 -0.7456 -0.1444  1.0233
  419TIP3   OH2 1217   6.048   4.751   5.765 -0.3698  0.4269  0.0067
  419TIP3    H1 1218   5.954   4.748   5.748 -0.9465 -1.7702  3.2882
  419TIP3    H2 1219   6.060   4.831   5.817 -0.2424  1.2071 -1.1944
  420TIP3   OH2 1220   3.362   0.865   5.997 -0.1718 -0.0909  0.2997
  420TIP3    H1 1221   3.317   0.780   5.995  1.4449 -0.9777  1.0067
  420TIP3    H2 1222   3.383   0.878   6.089  1.9061 -0.1755 -0.1398
  421TIP3   OH2 1223   4.123   1.772   2.981 -0.8088 -0.0934 -0.2911
  421TIP3    H1 1224   4.117   1.794   2.888  1.4189 -2.0524 -0.9446
  421TIP3    H2 1225   4.171   1.846   3.020 -1.9387  0.8366 -0.6396
  422TIP3   OH2 1226   1.332   6.425   2.702  0.2794  0.2588  0.0685
  422TIP3    H1 1227   1.295   6.451   2.787 -0.3703 -0.0187 -0.1219
  422TIP3    H2 1228   1.350   6.507   2.657  1.6257  0.4256  0.8947
  423TIP3   OH2 1229   3.215   2.355   0.217  0.6652  0.5375 -0.2082
  423TIP3    H1 1230   3.209   2.320   0.128 -0.1436  0.2721 -0.0523
  423TIP3    H2 1231   3.308   2.354   0.237  0.8311  0.4147 -0.9828
  424TIP3   OH2 1232   4.718   1.901   1.996 -0.1057  0.3199 -0.0923
  424TIP3    H1 1233   4.678   1.843   2.062 -0.0383 -1.7204 -1.8084
  424TIP3    H2 1234   4.644   1.948   1.958 -0.2441  0.7906  0.7310
  425TIP3   OH2 1235   2.693   2.706   1.091  0.0165 -0.0800  0.1144
  425TIP3    H1 1236   2.627   2.725   1.025 -0.7650  0.5426  1.0683
  425TIP3    H2 1237   2.650   2.646   1.151  1.0878 -1.5244 -0.5361
  426TIP3   OH2 1238   5.464   5.802   5.928 -0.0293  0.2315  0.1245
  426TIP3    H1 1239   5.508   5.796   6.013 -1.1969  0.1882  0.7390
  426TIP3    H2 1240   5.458   5.712   5.898 -1.2131  0.0645  0.8368
  427TIP3   OH2 1241   3.723   1.697   1.753 -0.7609 -0.6407 -0.5564
  427TIP3    H1 1242   3.670   1.618   1.744  2.1195 -2.7560  0.5140
  427TIP3    H2 1243   3.757   1.713   1.665 -0.2120 -1.4513 -0.5015
  428TIP3   OH2 1244   4.423   7.295   5.570  0.0741 -0.8501 -0.2111
  428TIP3    H1 1245   4.490   7.230   5.591  1.1489 -0.1696 -1.4916
  428TIP3    H2 1246   4.341   7.245   5.568  1.0513 -2.4506 -2.5324
  429TIP3   OH2 1247   7.125   6.307   6.350  0.2582 -0.1008  0.1543
  429TIP3    H1 1248   7.097   6.360   6.275  1.2451 -0.0242 -0.1631
  429TIP3    H2 1249   7.203   6.262   6.320  1.0176  0.4045  1.3499
  430TIP3   OH2 1250   3.224   3.310   0.536 -0.2128 -1.0021 -0.2540
  430TIP3    H1 1251   3.164   3.377   0.504  0.8268  0.4182  0.7117
  430TIP3    H2 1252   3.257   3.267   0.457 -1.7645 -1.1693 -0.8311
  431TIP3   OH2 1253   4.211   0.461   2.573 -0.0653  0.8246  0.1196
  431TIP3    H1 1254   4.257   0.484   2.653 -1.4360 -0.8357  1.4439
  431TIP3    H2 1255   4.118   0.471   2.595 -0.5397 -1.6955 -0.5641
  432TIP3   OH2 1256   4.082   0.666   0.317  0.4600  0.9000  0.4573
  432TIP3    H1 1257   4.048   0.724   0.386 -1.4049 -1.3062  1.4522
  432TIP3    H2 1258   4.029   0.687   0.240  0.6673  1.4208  0.4540
  433TIP3   OH2 1259   5.979   5.290   5.955 -0.4762  0.3611 -0.1035
  433TIP3    H1 1260   6.022   5.209   5.929  2.3197  1.4889  0.8536
  433TIP3    H2 1261   5.926   5.315   5.879  0.9469 -0.8084 -1.5112
  434TIP3   OH2 1262   4.659   4.911   6.203 -0.5313  0.0044  0.6435
  434TIP3    H1 1263   4.642   5.005   6.195  0.9921  0.4575  2.3733
  434TIP3    H2 1264   4.651   4.878   6.114 -1.0678  1.7732  0.0020
  435TIP3   OH2 1265   4.797   5.233   6.072 -0.1233  0.4962 -0.1532
  435TIP3    H1 1266   4.781   5.254   6.164  1.6810  0.6997  0.1294
  435TIP3    H2 1267   4.744   5.296   6.024 -2.6434 -0.8647  0.7243
  436TIP3   OH2 1268   7.023   6.898   0.642 -0.4284 -0.5398  0.4821
  436TIP3    H1 1269   6.986   6.940   0.563  0.6159 -0.5084  0.0058
  436TIP3    H2 1270   7.084   6.833   0.608  1.6548  0.9538  1.2952
  437TIP3   OH2 1271   1.464   6.811   2.794 -0.1803 -0.4952  0.0750
  437TIP3    H1 1272   1.453   6.762   2.876  0.3470  1.0453  1.0766
  437TIP3    H2 1273   1.407   6.887   2.803  0.4089  0.0499 -0.6993
  438TIP3   OH2 1274   4.375   0.909   1.614 -0.4469 -0.0246  0.8352
  438TIP3    H1 1275   4.429   0.832   1.600  1.2826  0.9927  1.7752
  438TIP3    H2 1276   4.305   0.880   1.673  0.0044 -0.9530  0.9088
  439TIP3   OH2 1277   2.879   2.102   2.271  0.1243  0.0368 -0.1110
  439TIP3    H1 1278   2.849   2.064   2.354  1.2545 -0.1282  0.2319
  439TIP3    H2 1279   2.961   2.145   2.293 -0.1925  1.0600 -0.8996
  440TIP3   OH2 1280   4.411   2.949   5.686 -1.1401 -0.0257  0.4810
  440TIP3    H1 1281   4.488   2.949   5.743 -0.3674  2.0820 -0.5315
  440TIP3    H2 1282   4.348   3.006   5.730 -1.3227 -0.0521  0.2557
  441TIP3   OH2 1283   4.959   1.377   1.611  0.0446  0.1339 -0.2899
  441TIP3    H1 1284   4.955   1.466   1.577 -1.7669 -0.6291 -2.1819
  441TIP3    H2 1285   4.955   1.387   1.706 -0.3008  2.0500 -0.4901
  442TIP3   OH2 1286   6.721   1.131   0.265  0.1187 -0.0091 -0.4047
  442TIP3    H1 1287   6.657   1.181   0.316  0.9115 -0.2332  0.8420
  442TIP3    H2 1288   6.712   1.041   0.298  0.7702 -0.1254 -0.5457
  443TIP3   OH2 1289   4.788   1.203   1.363  0.4011 -0.2283  0.2226
  443TIP3    H1 1290   4.699   1.207   1.330  1.5400  2.0071 -2.7980
  443TIP3    H2 1291   4.793   1.118   1.407 -2.5161 -1.4449 -1.6226
  444TIP3   OH2 1292   6.126   3.787   5.769 -0.4061 -1.0420 -0.3435
  444TIP3    H1 1293   6.052   3.741   5.807 -1.5457 -0.0213 -1.3105
  444TIP3    H2 1294   6.104   3.880   5.777  1.5110 -0.6532  0.8696
  445TIP3   OH2 1295   0.033   4.594   5.664  0.1066  0.5580  0.1748
  445TIP3    H1 1296   0.065   4.512   5.625 -0.3249 -0.0257  1.0081
  445TIP3    H2 1297   0.110   4.650   5.670  0.6352 -0.2055  0.6236
  446TIP3   OH2 1298   2.611   0.551   1.993  0.1443 -0.0132 -0.4397
  446TIP3    H1 1299   2.518   0.530   1.988  0.6111 -2.6627  1.0039
  446TIP3    H2 1300   2.649   0.512   1.915  0.1391  0.6075 -0.7566
  447TIP3   OH2 1301   1.433   2.738   0.382  0.2682  0.4844  0.1107
  447TIP3    H1 1302   1.473   2.658   0.347 -2.2751 -0.1607 -1.4662
  447TIP3    H2 1303   1.366   2.706   0.442  0.4079  1.4816  0.7976
  448TIP3   OH2 1304   1.918   1.656   0.834  0.3930 -0.0228  0.0955
  448TIP3    H1 1305   1.861   1.579   0.826  2.6323 -1.5960 -1.4590
  448TIP3    H2 1306   1.897   1.693   0.920 -0.6728 -2.4481  0.9168
  449TIP3   OH2 1307   3.089   0.852   0.983 -0.0915  0.8384  0.3959
  449TIP3    H1 1308   3.053   0.824   0.899  0.0680  0.9515  0.2895
  449TIP3    H2 1309   3.180   0.822   0.982 -0.1909  0.5161  0.6821
  450TIP3   OH2 1310   0.500   2.540   0.034 -0.4311 -0.5259 -0.8170
  450TIP3    H1 1311   0.481   2.449   0.057 -1.2034  0.0013  0.7336
  450TIP3    H2 1312   0.414   2.580   0.024 -0.0921  0.0442 -1.4262
  451TIP3   OH2 1313   4.555   0.374   1.025  0.5126 -0.0135  0.3393
  451TIP3    H1 1314   4.647   0.349   1.036  0.9980  1.4820 -0.1717
  451TIP3    H2 1315   4.548   0.404   0.935 -0.6059 -0.6087  0.2194
  452TIP3   OH2 1316   1.174   2.307   0.517 -0.2326  0.0230  0.5623
  452TIP3    H1 1317   1.167   2.345   0.430  1.6456 -3.5712 -1.3043
  452TIP3    H2 1318   1.085   2.310   0.553 -1.3267  0.1761 -2.1126
  453TIP3   OH2 1319   3.709   1.530   0.568  0.2031 -0.2303 -0.2252
  453TIP3    H1 1320   3.757   1.473   0.628  1.2793  0.7177 -0.1718
  453TIP3    H2 1321   3.625   1.487   0.556 -0.0389 -0.4023  1.9852
  454TIP3   OH2 1322   4.968   1.879   0.189  0.4565 -0.0417 -0.2525
  454TIP3    H1 1323   4.995   1.789   0.211 -0.2988 -0.5677 -1.4479
  454TIP3    H2 1324   4.977   1.884   0.094  1.9673  1.6550 -0.0383
  455TIP3   OH2 1325   1.603   3.110   0.040  0.9077  0.5477 -0.1747
  455TIP3    H1 1326   1.677   3.090  -0.017  0.6320 -1.3344  0.0926
  455TIP3    H2 1327   1.610   3.047   0.112 -1.3911 -0.1922 -0.5574
  456TIP3   OH2 1328   4.792   3.564   2.073  0.2825  0.1156  0.2929
  456TIP3    H1 1329   4.831   3.482   2.105  0.3485 -0.5199 -1.3969
  456TIP3    H2 1330   4.857   3.600   2.013  0.5218  1.7440  1.4816
  457TIP3   OH2 1331   1.292   1.830   0.943 -0.2024 -0.2360 -0.2078
  457TIP3    H1 1332   1.300   1.925   0.932 -0.4998 -0.2523 -0.5855
  457TIP3    H2 1333   1.243   1.802   0.866 -0.0073 -0.7144 -0.1553
  458TIP3   OH2 1334   3.319   3.066   1.806  0.5703  0.0051 -0.5344
  458TIP3    H1 1335   3.271   3.091   1.727  1.1238 -1.3144 -1.3065
  458TIP3    H2 1336   3.386   3.006   1.775  0.2204 -1.2418  1.0768
  459TIP3   OH2 1337   4.024   1.336   0.010 -0.0769  0.2405  0.0724
  459TIP3    H1 1338   3.932   1.328   0.038 -0.4849  0.6510 -1.1182
  459TIP3    H2 1339   4.060   1.404   0.067 -1.4048  2.3991 -1.5696
  460TIP3   OH2 1340   3.615   2.270   0.945  0.5831 -0.4092  0.1807
  460TIP3    H1 1341   3.676   2.219   0.998  2.5114  1.8010  0.1171
  460TIP3    H2 1342   3.635   2.246   0.855  0.6945 -0.3864  0.2000
  461TIP3   OH2 1343   5.473   3.277   2.784 -0.3652  0.1797 -0.1073
  461TIP3    H1 1344   5.473   3.193   2.830  0.4701  0.0434 -0.3360
  461TIP3    H2 1345   5.411   3.331   2.832  1.2333  0.3674  1.8162
  462TIP3   OH2 1346   7.143   4.242   6.261 -0.7754  0.2653  0.4975
  462TIP3    H1 1347   7.212   4.293   6.219  0.5421 -0.5670  1.5935
  462TIP3    H2 1348   7.089   4.210   6.189  0.8911 -0.3678 -0.4940
  463TIP3   OH2 1349   3.276   0.634   2.264 -0.3128  0.1276 -0.4670
  463TIP3    H1 1350   3.227   0.673   2.336  0.6229 -0.5074  0.5147
  463TIP3    H2 1351   3.218   0.643   2.188 -1.6315  0.0803  0.5253
  464TIP3   OH2 1352   3.545   1.563   0.125 -0.0611  0.0070 -0.2847
  464TIP3    H1 1353   3.480   1.633   0.110  0.5997  0.3802 -1.4697
  464TIP3    H2 1354   3.618   1.608   0.167  0.0419 -0.1277 -0.3224
  465TIP3   OH2 1355   1.748   0.021   5.847  0.6785  0.2819 -0.0262
  465TIP3    H1 1356   1.684  -0.041   5.884 -0.3573 -0.2338 -2.5528
  465TIP3    H2 1357   1.712   0.044   5.762  1.9801  2.9968  0.0943
  466TIP3   OH2 1358   4.083   1.359   0.368 -0.1006 -0.4763 -0.1389
  466TIP3    H1 1359   4.174   1.332   0.366  0.0614  0.0880 -0.9825
  466TIP3    H2 1360   4.072   1.411   0.288 -0.7596  0.7217  0.7026
  467TIP3   OH2 1361   3.733   1.451   2.027 -0.1220  0.3516 -0.3933
  467TIP3    H1 1362   3.648   1.456   1.984 -0.2069 -1.1896 -0.4152
  467TIP3    H2 1363   3.760   1.543   2.037 -1.9424  0.8705 -0.0612
  468TIP3   OH2 1364   3.912   0.053   1.203 -0.4984  0.0227  0.3436
  468TIP3    H1 1365   3.903   0.091   1.116 -0.7594 -0.9161 -0.0398
  468TIP3    H2 1366   4.006   0.038   1.213 -0.3293  1.2261  0.7030
  469TIP3   OH2 1367   1.382   3.675   0.392  0.4562 -0.1596 -0.0071
  469TIP3    H1 1368   1.374   3.585   0.424 -0.4525 -0.1848 -0.2906
  469TIP3    H2 1369   1.445   3.668   0.319  0.8286 -0.4656  0.3410
  470TIP3   OH2 1370   4.017   1.487   2.398  0.1479 -0.4272 -0.4691
  470TIP3    H1 1371   4.099   1.495   2.448 -0.2455  1.8414 -0.1254
  470TIP3    H2 1372   4.009   1.393   2.380  0.8211 -1.1770  2.8251
  471TIP3   OH2 1373   3.472   2.585   3.098  0.3244  0.2100  1.0337
  471TIP3    H1 1374   3.554   2.537   3.101 -0.2623 -0.8111  0.7447
  471TIP3    H2 1375   3.483   2.654   3.163  2.3044  1.5205 -0.6042
  472TIP3   OH2 1376   3.971   1.149   0.906  0.4047  0.0101 -0.1368
  472TIP3    H1 1377   3.886   1.111   0.885 -0.1668  1.4115 -0.4349
  472TIP3    H2 1378   4.032   1.076   0.900 -0.5386 -0.6826 -1.5053
  473TIP3   OH2 1379   1.111   7.090   0.408  0.1078 -0.6551 -0.0044
  473TIP3    H1 1380   1.151   7.004   0.395 -0.5891 -0.5085 -3.4376
  473TIP3    H2 1381   1.161   7.149   0.352 -2.3027  0.3033 -1.2285
  474TIP3   OH2 1382   3.434   3.918   5.840 -0.3768  0.0981 -0.0564
  474TIP3    H1 1383   3.356   3.966   5.812  1.1402  3.1632  0.7751
  474TIP3    H2 1384   3.498   3.935   5.771  0.7849  0.8786  1.1927
  475TIP3   OH2 1385   6.188   3.125   5.859  0.0288 -0.3152  0.2648
  475TIP3    H1 1386   6.148   3.148   5.775 -0.3121  0.1439  0.5520
  475TIP3    H2 1387   6.282   3.123   5.840  0.1082  1.7155  0.3150
  476TIP3   OH2 1388   0.583   7.257   2.891  0.1710 -0.3371  0.8675
  476TIP3    H1 1389   0.644   7.278   2.962 -1.4934  0.6048  2.0438
  476TIP3    H2 1390   0.497   7.268   2.930 -0.7705 -1.9402 -0.6965
  477TIP3   OH2 1391   5.198   4.895   6.059  0.1020  0.4490 -0.2497
  477TIP3    H1 1392   5.142   4.821   6.082  1.9609 -1.4249 -1.5328
  477TIP3    H2 1393   5.149   4.941   5.991 -1.1593  0.5090  0.6876
  478TIP3   OH2 1394   4.405   0.507   2.359 -0.4702 -0.1520 -0.1882
  478TIP3    H1 1395   4.348   0.494   2.434  1.1369 -0.7526  0.9480
  478TIP3    H2 1396   4.409   0.422   2.316  0.5025 -0.4032  0.4006
  479TIP3   OH2 1397   0.487   6.014   0.107 -0.0242  0.1617  0.5869
  479TIP3    H1 1398   0.411   6.047   0.154 -0.4331 -0.4645  0.3747
  479TIP3    H2 1399   0.547   6.089   0.102 -0.2440  0.3994  1.5367
  480TIP3   OH2 1400   6.450   7.124   6.322 -0.6375 -0.2211  0.2156
  480TIP3    H1 1401   6.420   7.118   6.231 -0.2653 -1.9134  0.1841
  480TIP3    H2 1402   6.545   7.116   6.317 -0.6814 -1.3389  0.8034
  481TIP3   OH2 1403   3.353   3.473   2.088  0.0981 -0.1423 -0.1368
  481TIP3    H1 1404   3.362   3.545   2.026  0.9731 -1.1630 -1.2316
  481TIP3    H2 1405   3.329   3.397   2.034 -1.7939 -0.4546  1.1213
  482TIP3   OH2 1406   2.807   0.775   1.130 -0.1949  0.1308  0.4103
  482TIP3    H1 1407   2.892   0.779   1.085 -0.5357 -0.8479 -0.3386
  482TIP3    H2 1408   2.770   0.863   1.120  0.2300  0.2364 -0.2607
  483TIP3   OH2 1409   5.993   2.470   2.484 -0.2674  0.3139  0.1876
  483TIP3    H1 1410   5.904   2.435   2.478 -0.8836  1.2492  3.1459
  483TIP3    H2 1411   6.040   2.408   2.539  0.8544 -0.0015 -1.0890
  484TIP3   OH2 1412   5.692   0.452   3.472 -0.2054  0.0971 -0.1914
  484TIP3    H1 1413   5.719   0.390   3.404  0.5773  0.9312 -0.6652
  484TIP3    H2 1414   5.686   0.400   3.552  2.1965 -0.2683 -0.2008
  485TIP3   OH2 1415   4.031   1.467   1.612  0.2980  0.1599 -0.3485
  485TIP3    H1 1416   4.123   1.486   1.627 -0.2315  1.6130  1.2941
  485TIP3    H2 1417   4.013   1.502   1.524  0.7625  2.0827  0.2890
  486TIP3   OH2 1418   4.955   1.236   2.484  0.0793  0.9114  0.7752
  486TIP3    H1 1419   4.978   1.162   2.428  1.3654  1.4958  0.5194
  486TIP3    H2 1420   4.888   1.284   2.434 -2.8639 -1.5946  2.1539
  487TIP3   OH2 1421   6.892   5.973   6.075  0.3743  0.1179  0.4599
  487TIP3    H1 1422   6.859   6.017   5.997  0.9489 -0.2487 -0.0033
  487TIP3    H2 1423   6.814   5.938   6.119  0.0539  0.2930  0.0268
  488TIP3   OH2 1424   5.239   3.441   0.214  0.3059  0.3129  0.6198
  488TIP3    H1 1425   5.280   3.360   0.186 -1.7123 -0.0108 -1.5834
  488TIP3    H2 1426   5.183   3.416   0.288 -1.9542 -0.7960 -1.3718
  489TIP3   OH2 1427   5.879   1.858   1.541 -0.0474 -0.1452  0.1795
  489TIP3    H1 1428   5.842   1.818   1.620  0.7463  0.1057  0.6803
  489TIP3    H2 1429   5.864   1.793   1.472 -1.3704 -0.0726  0.3835
  490TIP3   OH2 1430   6.841   6.250   4.845 -0.1766 -0.5183 -0.2760
  490TIP3    H1 1431   6.871   6.332   4.885 -0.5145 -0.8015  0.5720
  490TIP3    H2 1432   6.806   6.275   4.760  0.0233  0.1749 -0.1520
  491TIP3   OH2 1433   5.703   1.058   0.172  0.1217  0.2008 -0.1218
  491TIP3    H1 1434   5.610   1.072   0.151 -0.2226  0.5120  1.4760
  491TIP3    H2 1435   5.706   0.970   0.208  0.1398  0.7917  1.3731
  492TIP3   OH2 1436   0.239   1.270   1.988  0.1811  0.1893  0.0742
  492TIP3    H1 1437   0.218   1.274   1.895  1.2790 -1.6819 -0.2826
  492TIP3    H2 1438   0.278   1.356   2.008  0.5343  0.3628 -1.3483
  493TIP3   OH2 1439   1.679   0.105   1.186  0.4219 -0.2709 -0.1364
  493TIP3    H1 1440   1.686   0.017   1.223  0.4046 -0.1817  0.0816
  493TIP3    H2 1441   1.770   0.133   1.173  0.4882  0.6454  2.1157
  494TIP3   OH2 1442   4.038   3.132   0.987  0.3802  0.1922 -0.0043
  494TIP3    H1 1443   3.983   3.137   1.066  1.2446  0.8283  0.5763
  494TIP3    H2 1444   3.980   3.097   0.920 -0.9385  1.4763  0.4236
  495TIP3   OH2 1445   3.435   1.993   1.948  0.0063 -0.0976  0.4722
  495TIP3    H1 1446   3.478   2.079   1.958 -1.5135  0.7873 -0.4600
  495TIP3    H2 1447   3.432   1.979   1.853 -1.3903 -0.3382  0.5482
  496TIP3   OH2 1448   3.774   0.358   1.057  0.5009  0.2782  0.4661
  496TIP3    H1 1449   3.768   0.309   0.975  1.2176  0.7920  0.1048
  496TIP3    H2 1450   3.772   0.450   1.030 -1.1580  0.4600  1.1579
  497TIP3   OH2 1451   5.184   2.403   0.865  0.4443  0.2221 -0.3862
  497TIP3    H1 1452   5.204   2.318   0.827 -1.1891 -0.4077  0.1057
  497TIP3    H2 1453   5.238   2.408   0.944  1.2746  0.0678 -0.9412
  498TIP3   OH2 1454   3.427   0.969   0.726  0.4020 -0.0115  0.2016
  498TIP3    H1 1455   3.366   0.974   0.799  0.1362  0.2260 -0.0404
  498TIP3    H2 1456   3.505   1.015   0.757  0.3955 -0.1585  0.4403
  499TIP3   OH2 1457   2.799   0.606   2.505  0.1261 -0.2431  0.4965
  499TIP3    H1 1458   2.791   0.668   2.433 -1.0556 -0.8464  0.0981
  499TIP3    H2 1459   2.809   0.661   2.583 -2.0990  0.5042  0.2928
  500TIP3   OH2 1460   5.905   0.884   2.637 -0.3531 -0.2198 -0.2371
  500TIP3    H1 1461   5.907   0.942   2.561 -1.9681  1.5026  0.9922
  500TIP3    H2 1462   5.988   0.899   2.681 -0.7200  1.1257  0.0188
  501TIP3   OH2 1463   4.748   3.258   0.340  0.1442  0.3499  0.2094
  501TIP3    H1 1464   4.663   3.253   0.296 -0.0190 -1.3549  0.6824
  501TIP3    H2 1465   4.736   3.325   0.407 -0.8353  0.0967  0.2955
  502TIP3   OH2 1466   2.767   2.006   2.505 -0.1367  0.0259  0.5633
  502TIP3    H1 1467   2.799   2.058   2.578 -1.2364  1.9476 -0.2901
  502TIP3    H2 1468   2.690   1.960   2.539  0.1534 -0.1438  0.9921
  503TIP3   OH2 1469   3.216   1.122   0.447 -0.1634  0.4618  0.2084
  503TIP3    H1 1470   3.127   1.157   0.448 -0.8967 -1.3658  1.1191
  503TIP3    H2 1471   3.218   1.065   0.370 -1.2346 -3.0399  2.6850
  504TIP3   OH2 1472   5.714   2.090   0.805 -0.0088 -0.4349  0.0091
  504TIP3    H1 1473   5.772   2.159   0.837 -2.4065  1.7804 -0.2697
  504TIP3    H2 1474   5.640   2.091   0.865 -1.4552 -0.7568 -1.7416
  505TIP3   OH2 1475   6.091   6.513   3.817  0.2878  0.8241  0.4783
  505TIP3    H1 1476   6.063   6.462   3.892 -1.7140 -0.3770 -1.0422
  505TIP3    H2 1477   6.034   6.590   3.817 -1.3587 -0.3599 -1.1505
  506TIP3   OH2 1478   4.383   5.948   5.940 -0.1953 -0.0243  0.2682
  506TIP3    H1 1479   4.436   5.904   5.874 -0.4710 -0.0714  0.0762
  506TIP3    H2 1480   4.327   5.879   5.976  0.4367 -0.1426  1.0382
  507TIP3   OH2 1481   3.080   3.444   1.471 -0.3214 -0.5381  0.1680
  507TIP3    H1 1482   3.055   3.421   1.560 -0.5667  0.3277  0.3228
  507TIP3    H2 1483   2.998   3.470   1.429  0.0248  0.5086  0.1315
  508TIP3   OH2 1484   6.793   6.371   5.206 -0.4786  0.0974  0.1443
  508TIP3    H1 1485   6.885   6.345   5.212 -0.3897  0.6261  1.2504
  508TIP3    H2 1486   6.767   6.389   5.297 -1.9623 -1.0294 -0.0321
  509TIP3   OH2 1487   4.249   3.382   2.389 -0.0402  0.0351 -0.1024
  509TIP3    H1 1488   4.327   3.343   2.429 -0.8759 -1.3091  0.2497
  509TIP3    H2 1489   4.190   3.308   2.375 -1.3272  1.0638 -0.1956
  510TIP3   OH2 1490   4.443   0.371   0.740  0.0789  0.0691 -0.2978
  510TIP3    H1 1491   4.411   0.355   0.651 -1.2478 -1.3219  0.4170
  510TIP3    H2 1492   4.495   0.294   0.761  0.1328  0.2541  0.2417
  511TIP3   OH2 1493   1.958   3.514   1.785  0.3670 -0.3695 -0.0762
  511TIP3    H1 1494   1.971   3.565   1.705  1.1022  0.1762  0.3793
  511TIP3    H2 1495   2.032   3.538   1.841 -1.7171  1.5505  1.9740
  512TIP3   OH2 1496   4.193   2.447   1.672  0.0917 -0.0717 -0.3371
  512TIP3    H1 1497   4.158   2.535   1.656  2.0073  0.7446 -0.1775
  512TIP3    H2 1498   4.161   2.395   1.599 -1.6531  0.5594 -0.0651
  513TIP3   OH2 1499   2.942   0.331   1.689  0.1426  0.2871  0.2148
  513TIP3    H1 1500   2.966   0.255   1.637 -1.2002  1.2954 -1.9469
  513TIP3    H2 1501   3.021   0.353   1.739  0.8600 -1.8420  0.0472
  514TIP3   OH2 1502   3.123   2.703   0.707 -0.0819  0.1060  0.3573
  514TIP3    H1 1503   3.088   2.615   0.720  0.2452  0.0376  0.8013
  514TIP3    H2 1504   3.049   2.753   0.671  0.1707 -0.7096 -1.3175
  515TIP3   OH2 1505   7.642   0.575   1.954  0.8136  0.1622  0.2375
  515TIP3    H1 1506   7.728   0.547   1.985  1.6750  0.7654 -1.4906
  515TIP3    H2 1507   7.661   0.645   1.892 -0.9067  0.0551 -0.4397
  516TIP3   OH2 1508   4.401   2.056   0.754 -0.1237  0.2305  0.0655
  516TIP3    H1 1509   4.382   2.040   0.846  0.8887  1.7219  0.5353
  516TIP3    H2 1510   4.423   1.969   0.719  0.5241 -0.1740  1.4556
  517TIP3   OH2 1511   1.963   4.286   2.877  0.1518 -0.1802  0.2333
  517TIP3    H1 1512   2.016   4.205   2.871 -1.0322 -0.8755 -1.0138
  517TIP3    H2 1513   1.982   4.332   2.795 -0.5696 -0.0638  0.1332
  518TIP3   OH2 1514   1.700   1.706   0.052  0.1775 -0.7221  0.3299
  518TIP3    H1 1515   1.779   1.707  -0.002  1.1685 -0.8412  1.7655
  518TIP3    H2 1516   1.732   1.704   0.142 -1.3986  3.2897  1.0731
  519TIP3   OH2 1517   3.027   5.440   2.550 -0.1135  0.0158  0.7071
  519TIP3    H1 1518   3.114   5.469   2.523  0.2091 -0.7182  0.9592
  519TIP3    H2 1519   3.028   5.445   2.645 -0.4697  0.3451  0.6967
  520TIP3   OH2 1520   7.621   5.806   6.306 -0.2633 -0.1392  0.2704
  520TIP3    H1 1521   7.691   5.787   6.369 -1.2803 -0.9915  1.1561
  520TIP3    H2 1522   7.604   5.722   6.263  0.2946  0.3994 -1.0118
  521TIP3   OH2 1523   0.689   7.264   1.790  0.9825 -0.0036 -0.2247
  521TIP3    H1 1524   0.700   7.226   1.877 -0.5700 -2.2669 -0.9799
  521TIP3    H2 1525   0.611   7.319   1.797  1.4393  0.6330  0.0362
  522TIP3   OH2 1526   6.225   3.605   5.054 -0.6421 -0.0544 -0.1971
  522TIP3    H1 1527   6.304   3.658   5.045  0.7260 -2.1691 -0.8390
  522TIP3    H2 1528   6.222   3.583   5.147 -1.8723  2.0792  0.3128
  523TIP3   OH2 1529   7.428   5.426   6.043  0.3066 -0.0343  0.1571
  523TIP3    H1 1530   7.508   5.381   6.016 -0.1574 -0.7128 -0.0874
  523TIP3    H2 1531   7.378   5.437   5.962 -0.5339 -0.9758  0.5422
  524TIP3   OH2 1532   0.031   4.037   5.846 -0.2525  0.1309 -0.1668
  524TIP3    H1 1533  -0.024   4.080   5.781 -0.3375  1.4373  0.7610
  524TIP3    H2 1534   0.102   4.099   5.863  0.5436 -0.7984 -0.0631
  525TIP3   OH2 1535   6.196   2.386   5.604  0.2718 -0.5816  0.0564
  525TIP3    H1 1536   6.221   2.367   5.514 -0.9470 -0.2429 -0.3525
  525TIP3    H2 1537   6.200   2.481   5.611 -1.9919 -0.4415 -0.3407
  526TIP3   OH2 1538   6.450   5.541   4.222  0.1331 -0.0264 -0.3535
  526TIP3    H1 1539   6.384   5.524   4.155 -1.7192 -0.1889  1.4401
  526TIP3    H2 1540   6.470   5.634   4.214 -0.2020 -0.0158 -1.0308
  527TIP3   OH2 1541   6.885   2.734   6.079  0.1840  1.1957 -0.1706
  527TIP3    H1 1542   6.838   2.739   6.161  0.4801 -0.2202  0.0858
  527TIP3    H2 1543   6.831   2.679   6.023  1.3762 -0.2009  0.0328
  528TIP3   OH2 1544   6.059   5.646   6.332  0.0054 -0.9927  0.2316
  528TIP3    H1 1545   6.096   5.574   6.281  0.2456 -1.2233  0.7284
  528TIP3    H2 1546   6.130   5.673   6.391  0.2771  0.3757 -0.7014
  529TIP3   OH2 1547   7.476   6.097   5.596 -0.1893 -0.4034 -0.0902
  529TIP3    H1 1548   7.423   6.110   5.675  0.1316 -0.4056  0.1227
  529TIP3    H2 1549   7.480   6.002   5.585 -1.4639 -0.3780 -0.9331
  530TIP3   OH2 1550   4.101   3.165   0.467  0.1965  0.5629 -0.0800
  530TIP3    H1 1551   4.195   3.183   0.475 -0.0921  1.7345  0.8729
  530TIP3    H2 1552   4.071   3.227   0.400 -0.2088  1.4595  0.9048
  531TIP3   OH2 1553   4.013   2.841   2.070  0.3136  0.3228 -0.1828
  531TIP3    H1 1554   4.057   2.894   2.004 -0.9976  1.4016 -0.2187
  531TIP3    H2 1555   3.959   2.780   2.020 -0.6561  1.1195 -0.1357
  532TIP3   OH2 1556   5.661   1.657   0.946  0.1040  0.5666 -0.0109
  532TIP3    H1 1557   5.566   1.659   0.953 -0.0347 -1.3043 -1.0177
  532TIP3    H2 1558   5.678   1.617   0.861  1.7917  1.4675 -0.1166
  533TIP3   OH2 1559   2.311   7.116   2.046  0.1449 -0.2500  0.4728
  533TIP3    H1 1560   2.236   7.063   2.076 -0.4818 -0.5744 -1.6085
  533TIP3    H2 1561   2.329   7.084   1.958  1.0518  1.6519 -0.0533
  534TIP3   OH2 1562   1.255   6.995   6.388  0.3684 -0.2798  0.6881
  534TIP3    H1 1563   1.163   6.995   6.415  0.1232  2.7177  0.0108
  534TIP3    H2 1564   1.254   7.031   6.299  2.1625 -0.5337  0.5503
  535TIP3   OH2 1565   3.630   1.787   0.554 -0.5205  0.5353  0.0217
  535TIP3    H1 1566   3.584   1.793   0.470  0.0979  1.7350 -0.2487
  535TIP3    H2 1567   3.653   1.695   0.562 -1.6370  0.1928 -0.5572
  536TIP3   OH2 1568   5.155   2.670   1.458 -1.0937  0.4214  0.6107
  536TIP3    H1 1569   5.148   2.758   1.494 -2.8900 -0.8039  3.3904
  536TIP3    H2 1570   5.076   2.659   1.405 -1.6426 -0.0918  1.5427
  537TIP3   OH2 1571   4.806   1.999   1.040 -0.2803 -0.1389  0.0237
  537TIP3    H1 1572   4.803   2.051   1.121 -0.1515 -1.5419  0.9575
  537TIP3    H2 1573   4.815   1.908   1.071 -1.2020 -0.7814 -1.5439
  538TIP3   OH2 1574   1.322   4.585   4.300 -0.1151 -0.4198  0.0744
  538TIP3    H1 1575   1.415   4.606   4.302 -0.5800  1.7819  0.5344
  538TIP3    H2 1576   1.297   4.594   4.208  0.1636 -1.2764 -0.0928
  539TIP3   OH2 1577   4.762   0.926   1.436  0.1475  0.2715  0.7524
  539TIP3    H1 1578   4.770   0.928   1.532 -0.4458 -0.6157  0.8206
  539TIP3    H2 1579   4.688   0.869   1.419 -0.2910  1.1122 -0.2167
  540TIP3   OH2 1580   3.957   1.298   1.941 -0.2184  0.2372 -0.0904
  540TIP3    H1 1581   3.878   1.348   1.917  0.6613  1.0825 -1.3058
  540TIP3    H2 1582   3.931   1.206   1.933 -1.3164  0.5115  0.3061
  541TIP3   OH2 1583   3.118   0.785   0.473 -0.9314 -0.5296 -0.0488
  541TIP3    H1 1584   3.102   0.820   0.385 -0.3431  0.8439  0.3838
  541TIP3    H2 1585   3.210   0.802   0.490 -0.7906 -1.7284  0.4320
  542TIP3   OH2 1586   1.567   6.842   6.196  0.6430  0.3169 -0.6363
  542TIP3    H1 1587   1.570   6.896   6.117  1.9090 -1.1838 -1.6433
  542TIP3    H2 1588   1.578   6.753   6.165  1.4058 -0.2806  1.2565
  543TIP3   OH2 1589   5.205   4.058   0.299  0.3032  0.1325 -0.6039
  543TIP3    H1 1590   5.237   4.133   0.249 -0.7416  0.7840 -0.2974
  543TIP3    H2 1591   5.110   4.070   0.303  0.3814  0.1577  1.6551
  544TIP3   OH2 1592   2.493   6.942   0.990  0.6087 -0.2409  0.7711
  544TIP3    H1 1593   2.465   7.032   1.010 -1.6829 -0.8226  0.2669
  544TIP3    H2 1594   2.427   6.887   1.031  1.5154 -1.6977  0.2877
  545TIP3   OH2 1595   7.230   3.670   5.534  0.1275 -0.3569 -0.3183
  545TIP3    H1 1596   7.191   3.749   5.571  0.9432 -0.7175  1.3911
  545TIP3    H2 1597   7.202   3.669   5.443 -1.4674  0.8821  0.1436
  546TIP3   OH2 1598   6.933   4.438   6.027  0.4594  0.1943 -0.4720
  546TIP3    H1 1599   6.843   4.409   6.011  0.3693 -0.1224  0.5968
  546TIP3    H2 1600   6.945   4.427   6.121  1.4711  0.6636 -0.5465
  547TIP3   OH2 1601   5.790   2.551   0.144 -0.0106  0.5159  0.1808
  547TIP3    H1 1602   5.835   2.508   0.071 -0.1589  0.7771 -0.0671
  547TIP3    H2 1603   5.734   2.483   0.181 -1.1260  0.8081 -0.9477
  548TIP3   OH2 1604   6.981   2.172   0.620 -0.0203 -0.5812  0.2397
  548TIP3    H1 1605   6.948   2.112   0.687 -1.5722 -2.0374 -1.7607
  548TIP3    H2 1606   6.919   2.244   0.619  0.1891 -0.3947  0.5873
  549TIP3   OH2 1607   6.381   1.900   0.108 -0.7653 -0.0704  0.2729
  549TIP3    H1 1608   6.444   1.829   0.118  0.2917  0.8892  0.4704
  549TIP3    H2 1609   6.297   1.861   0.133 -0.2687 -1.3651 -0.0321
  550TIP3   OH2 1610   3.752   1.730   1.444  0.5502  0.3107  0.0624
  550TIP3    H1 1611   3.663   1.722   1.410 -0.3818  1.2108  2.1947
  550TIP3    H2 1612   3.798   1.785   1.381 -0.5302  0.2395 -0.7957
  551TIP3   OH2 1613   4.485   3.256   0.186 -0.0192  0.1165  0.4625
  551TIP3    H1 1614   4.472   3.246   0.091  1.4003 -2.5490  0.5104
  551TIP3    H2 1615   4.505   3.168   0.217 -0.7211  0.9180  3.3122
  552TIP3   OH2 1616   3.919   3.347   1.998 -0.2470 -0.3048 -0.3852
  552TIP3    H1 1617   3.943   3.347   2.090 -0.9924  0.5079 -0.1831
  552TIP3    H2 1618   3.922   3.439   1.972  0.7039 -0.5958 -1.3789
  553TIP3   OH2 1619   7.701   6.244   5.701  0.6254  0.3230 -0.4003
  553TIP3    H1 1620   7.735   6.176   5.758 -0.5620  1.0365  1.1827
  553TIP3    H2 1621   7.620   6.207   5.665 -0.3564  1.1345  0.9610
  554TIP3   OH2 1622   6.516   5.052   5.933  0.6708  0.2974 -0.2536
  554TIP3    H1 1623   6.525   4.992   6.007 -1.6137 -0.5890 -0.6406
  554TIP3    H2 1624   6.423   5.048   5.910  1.4099  0.2139 -3.4835
  555TIP3   OH2 1625   5.237   2.227   1.837 -0.2269 -0.1518  0.1053
  555TIP3    H1 1626   5.224   2.228   1.932 -1.7442  0.3321 -0.0912
  555TIP3    H2 1627   5.201   2.143   1.809  1.0524 -0.6946  0.0527
  556TIP3   OH2 1628   6.378   3.750   0.438  0.7810  0.1558 -0.6995
  556TIP3    H1 1629   6.366   3.694   0.362  0.4267 -0.6811 -0.0393
  556TIP3    H2 1630   6.310   3.817   0.430  1.1871  0.4776 -1.4758
  557TIP3   OH2 1631   6.752   2.322   0.634 -0.3632 -0.1124  0.6047
  557TIP3    H1 1632   6.721   2.370   0.558 -0.0108  0.9918  1.1475
  557TIP3    H2 1633   6.676   2.315   0.692  0.2353  2.0962  1.6836
  558TIP3   OH2 1634   4.973   1.444   1.881  0.2562  0.1520 -0.2515
  558TIP3    H1 1635   4.886   1.416   1.911 -0.1142  2.8485  1.3412
  558TIP3    H2 1636   5.027   1.440   1.960  1.3504 -0.5004 -1.0176
  559TIP3   OH2 1637   7.004   2.903   2.917 -0.1597 -0.5675 -0.0099
  559TIP3    H1 1638   7.016   2.839   2.847 -1.2801 -1.4946  0.6226
  559TIP3    H2 1639   7.092   2.921   2.950  0.5725  1.1875 -2.7813
  560TIP3   OH2 1640   3.782   0.618   2.131 -0.5347 -0.0818  0.2767
  560TIP3    H1 1641   3.766   0.641   2.039  0.5953 -2.1927 -0.4790
  560TIP3    H2 1642   3.695   0.615   2.170 -0.9865  1.3652 -0.5771
  561TIP3   OH2 1643   4.757   0.689   0.228  0.1537 -0.3301  0.0154
  561TIP3    H1 1644   4.709   0.610   0.203 -0.8423  0.4881 -0.6784
  561TIP3    H2 1645   4.814   0.706   0.153  1.3950 -1.1624  0.7376
  562TIP3   OH2 1646   6.696   6.721   4.807  0.2631  0.1920  0.2637
  562TIP3    H1 1647   6.635   6.780   4.852 -1.5938 -2.2346  1.0016
  562TIP3    H2 1648   6.742   6.676   4.877  0.5388 -0.3866 -0.2861
  563TIP3   OH2 1649   5.186   3.861   0.052 -0.4918 -0.4509 -0.0730
  563TIP3    H1 1650   5.171   3.898   0.138  1.0352 -0.0143  0.0149
  563TIP3    H2 1651   5.144   3.775   0.055 -0.4375 -0.4345  1.1044
  564TIP3   OH2 1652   3.233   7.347   2.039 -0.0882  0.0120 -0.2495
  564TIP3    H1 1653   3.230   7.254   2.018  2.1759 -0.0659 -0.3773
  564TIP3    H2 1654   3.220   7.392   1.956  2.1841 -0.2522 -0.7959
  565TIP3   OH2 1655   4.396   0.230   1.181 -0.7372  0.5109 -0.5920
  565TIP3    H1 1656   4.304   0.246   1.161 -0.6696  1.1017 -0.4345
  565TIP3    H2 1657   4.444   0.292   1.127 -0.3825 -0.4532 -1.3938
  566TIP3   OH2 1658   6.861   3.572   0.729 -0.4574 -0.3688 -0.5326
  566TIP3    H1 1659   6.860   3.616   0.644  0.4974  1.6705  0.4787
  566TIP3    H2 1660   6.919   3.497   0.716  0.3863  0.4285 -1.4394
  567TIP3   OH2 1661   4.062   3.767   0.858  0.0596  0.5605  0.6682
  567TIP3    H1 1662   4.061   3.787   0.952  0.8538  2.3309  0.3244
  567TIP3    H2 1663   3.977   3.798   0.826  0.1526  0.7960  0.6466
  568TIP3   OH2 1664   0.486   3.669   3.825  0.7889 -0.2641  0.0811
  568TIP3    H1 1665   0.421   3.611   3.864  1.8013 -1.5411 -0.1069
  568TIP3    H2 1666   0.437   3.719   3.760  0.1569 -1.8459 -0.6905
  569TIP3   OH2 1667   6.002   2.831   0.640  0.6513 -0.2095  0.1326
  569TIP3    H1 1668   5.989   2.926   0.647  1.9448  0.1934 -2.3965
  569TIP3    H2 1669   5.931   2.794   0.691 -1.1503  2.1157 -0.5617
  570TIP3   OH2 1670   6.384   2.329   1.876  0.2292  0.1038 -0.0054
  570TIP3    H1 1671   6.371   2.279   1.795 -1.9550 -1.8430  1.5129
  570TIP3    H2 1672   6.431   2.407   1.847  1.1624 -1.4280 -2.8760
  571TIP3   OH2 1673   6.401   1.263   0.887 -0.2399 -0.1117  0.3458
  571TIP3    H1 1674   6.317   1.286   0.926 -0.3538 -0.1157  0.1040
  571TIP3    H2 1675   6.400   1.167   0.884 -1.6990 -0.0344 -2.8583
  572TIP3   OH2 1676   5.454   3.608   3.426 -0.0323  0.3235  0.1395
  572TIP3    H1 1677   5.426   3.582   3.339  0.6699  2.6819 -0.8346
  572TIP3    H2 1678   5.499   3.531   3.461  1.3468 -0.0340 -2.3336
  573TIP3   OH2 1679   5.895   1.715   2.139 -1.2931 -0.3645  0.8333
  573TIP3    H1 1680   5.958   1.733   2.209 -0.0856 -0.3549 -0.2519
  573TIP3    H2 1681   5.922   1.631   2.103 -1.3101  0.0995 -0.2842
  574TIP3   OH2 1682   0.485   1.473   2.892 -0.2236  0.0037  0.3095
  574TIP3    H1 1683   0.467   1.400   2.832 -0.1509 -0.8923  1.3675
  574TIP3    H2 1684   0.439   1.547   2.853  0.8077 -0.2668 -1.5057
  575TIP3   OH2 1685   4.223   1.610   2.556 -0.4747  0.2669 -0.7594
  575TIP3    H1 1686   4.318   1.623   2.560 -0.1250 -1.9053 -1.3313
  575TIP3    H2 1687   4.199   1.576   2.642 -0.1330 -2.5904 -1.7306
  576TIP3   OH2 1688   1.899   7.372   0.480 -0.6822 -0.3616  0.3612
  576TIP3    H1 1689   1.810   7.356   0.449 -1.2088 -0.2373  1.7766
  576TIP3    H2 1690   1.945   7.290   0.463 -1.1946 -0.5912  0.0644
  577TIP3   OH2 1691   7.393   6.885   6.389 -0.2830 -0.4900  0.6011
  577TIP3    H1 1692   7.484   6.886   6.360 -0.6965 -0.2838 -0.7229
  577TIP3    H2 1693   7.350   6.821   6.332 -1.5901  1.5383 -0.7942
  578TIP3   OH2 1694   5.335   1.285   1.435 -0.1707  0.5893  0.1471
  578TIP3    H1 1695   5.357   1.259   1.525 -3.1031  0.3446  0.8404
  578TIP3    H2 1696   5.412   1.260   1.383  1.0046 -0.5339  2.3600
  579TIP3   OH2 1697   7.397   2.427   1.851  0.0807  0.2829 -0.3995
  579TIP3    H1 1698   7.336   2.457   1.918  0.3704 -1.1108  0.5058
  579TIP3    H2 1699   7.381   2.485   1.777 -1.3079  0.8752  0.3407
  580TIP3   OH2 1700   6.144   6.206   6.132  0.2948 -0.3194  0.0333
  580TIP3    H1 1701   6.076   6.274   6.124 -0.6505 -1.2753 -0.1878
  580TIP3    H2 1702   6.143   6.161   6.048  2.0563  0.4276 -0.3960
  581TIP3   OH2 1703   4.708   5.435   1.874  0.3472 -0.7239 -0.0940
  581TIP3    H1 1704   4.635   5.479   1.918 -0.4934  0.1339 -2.3061
  581TIP3    H2 1705   4.680   5.344   1.866  0.4276 -0.8485  0.9561
  582TIP3   OH2 1706   6.610   2.305   0.295  0.2299 -0.4377  0.1395
  582TIP3    H1 1707   6.591   2.386   0.343  0.2135 -1.3543  1.6984
  582TIP3    H2 1708   6.525   2.264   0.281  0.2149 -0.0856 -0.8538
  583TIP3   OH2 1709   5.982   1.968   2.039 -0.2369  0.7489 -0.5708
  583TIP3    H1 1710   5.913   1.975   2.106  2.8834  1.0195  2.7631
  583TIP3    H2 1711   5.995   1.874   2.029 -0.9301  0.7003 -1.0606
  584TIP3   OH2 1712   6.166   2.666   0.832 -0.7245  0.4008 -0.1570
  584TIP3    H1 1713   6.154   2.754   0.796  0.3066  0.6010 -0.0164
  584TIP3    H2 1714   6.077   2.632   0.841 -1.0610  0.8142 -1.7318
  585TIP3   OH2 1715   7.710   3.121   0.549  0.0217 -0.0804 -0.5383
  585TIP3    H1 1716   7.791   3.071   0.551 -0.0645 -0.2144 -0.4645
  585TIP3    H2 1717   7.698   3.143   0.456  0.1215 -0.0929 -0.5538
  586TIP3   OH2 1718   0.056   6.091   5.845  0.0344 -0.4690 -0.2431
  586TIP3    H1 1719   0.069   6.001   5.814  1.4749 -0.5628  0.6347
  586TIP3    H2 1720   0.028   6.081   5.936 -2.6606 -0.1173 -0.9686
  587TIP3   OH2 1721   4.977   2.105   1.334  0.2247 -0.0206 -0.0954
  587TIP3    H1 1722   4.927   2.184   1.317 -2.0511 -1.4263 -0.1340
  587TIP3    H2 1723   5.068   2.130   1.316 -0.0843  3.2912  2.4300
  588TIP3   OH2 1724   3.311   1.217   2.108  0.0959 -0.3754  0.1660
  588TIP3    H1 1725   3.277   1.172   2.185 -2.2697 -0.9135 -1.1760
  588TIP3    H2 1726   3.338   1.147   2.049  0.9971  0.0365  0.0721
  589TIP3   OH2 1727   5.669   1.307   2.297 -0.2204 -0.3678  0.1628
  589TIP3    H1 1728   5.679   1.219   2.333  0.8125 -0.5867 -0.6356
  589TIP3    H2 1729   5.749   1.353   2.322 -0.2991  0.0333 -0.2919
  590TIP3   OH2 1730   6.200   4.604   5.191 -0.0121  0.1691  0.5484
  590TIP3    H1 1731   6.263   4.553   5.140 -1.3532 -0.9451 -0.0393
  590TIP3    H2 1732   6.253   4.669   5.238  1.3153  1.0228 -2.0111
  591TIP3   OH2 1733   4.382   2.389   0.229 -0.0532  0.0432 -0.0152
  591TIP3    H1 1734   4.437   2.443   0.172  2.8149 -1.0069  1.6300
  591TIP3    H2 1735   4.423   2.395   0.315 -1.7872 -1.8254  0.9910
  592TIP3   OH2 1736   6.988   6.776   6.171 -0.0500 -0.0490  0.3284
  592TIP3    H1 1737   7.034   6.761   6.089  1.0989 -1.9823  1.2825
  592TIP3    H2 1738   7.041   6.840   6.217  0.4688 -0.5476  0.4390
  593TIP3   OH2 1739   6.467   1.374   0.660 -0.4265 -0.3929 -0.1017
  593TIP3    H1 1740   6.457   1.340   0.750 -1.0575 -0.9815 -0.3878
  593TIP3    H2 1741   6.434   1.463   0.665 -0.0264 -0.2637  0.3571
  594TIP3   OH2 1742   5.233   1.601   3.675 -0.3930 -0.0383 -0.0933
  594TIP3    H1 1743   5.236   1.526   3.615 -1.0727  0.1113 -0.3207
  594TIP3    H2 1744   5.303   1.659   3.645 -0.3604 -0.2283 -0.3884
  595TIP3   OH2 1745   1.313   6.694   6.337  0.2575 -0.1743  0.1051
  595TIP3    H1 1746   1.331   6.787   6.349 -0.1500  0.1112 -1.3403
  595TIP3    H2 1747   1.382   6.663   6.278  0.1113 -0.6825  0.1930
  596TIP3   OH2 1748   2.994   0.810   5.621  0.3646  0.7830 -0.2059
  596TIP3    H1 1749   3.061   0.864   5.662 -0.4948  2.1107 -0.5026
  596TIP3    H2 1750   2.921   0.870   5.605 -0.6311 -0.4782 -0.5161
  597TIP3   OH2 1751   7.177   1.592   0.689 -0.3816 -0.2438  0.0703
  597TIP3    H1 1752   7.119   1.615   0.617 -0.3052 -0.8441 -0.1837
  597TIP3    H2 1753   7.236   1.526   0.653 -0.4685 -0.6889  0.7339
  598TIP3   OH2 1754   6.446   2.201   2.798 -0.1383  0.0839  0.3023
  598TIP3    H1 1755   6.536   2.220   2.825 -0.3123  1.2639  0.0703
  598TIP3    H2 1756   6.448   2.109   2.773  1.6710  0.8145 -2.4296
  599TIP3   OH2 1757   4.334   3.858   0.683  0.4850 -0.5849  0.6953
  599TIP3    H1 1758   4.242   3.882   0.698  0.3972 -0.0143 -0.6673
  599TIP3    H2 1759   4.334   3.762   0.688 -0.4192 -0.6694 -0.4109
  600TIP3   OH2 1760   6.688   4.267   6.015  0.0807 -0.7728 -0.4785
  600TIP3    H1 1761   6.647   4.225   6.091 -0.1037 -2.0976 -1.2950
  600TIP3    H2 1762   6.649   4.223   5.940 -1.4658  2.0953 -1.4219
  601TIP3   OH2 1763   1.527   5.621   5.166  0.3168  0.1338 -0.1261
  601TIP3    H1 1764   1.507   5.597   5.076  2.2627 -1.3904 -0.1718
  601TIP3    H2 1765   1.540   5.538   5.211  1.4214  0.9384  1.0762
  602TIP3   OH2 1766   5.205   2.133   0.954 -0.4033  0.0506 -0.1496
  602TIP3    H1 1767   5.163   2.072   0.895  0.3350  1.4323 -2.1568
  602TIP3    H2 1768   5.139   2.150   1.022 -0.8322 -2.4376  0.0975
  603TIP3   OH2 1769   6.911   5.056   5.317  0.1656  0.1384 -0.1397
  603TIP3    H1 1770   6.916   4.985   5.252  1.0872  1.8568 -2.0193
  603TIP3    H2 1771   6.991   5.047   5.368 -0.2580 -0.8532  0.3478
  604TIP3   OH2 1772   4.170   2.561   0.986 -0.0286  0.1399 -0.3670
  604TIP3    H1 1773   4.098   2.509   0.949 -0.0853  0.7500 -1.1158
  604TIP3    H2 1774   4.238   2.559   0.918  0.0805  0.8097 -0.2751
  605TIP3   OH2 1775   3.435   1.226   5.908  0.4193 -0.1737  0.2993
  605TIP3    H1 1776   3.380   1.300   5.933  2.0287  1.2054 -0.1368
  605TIP3    H2 1777   3.463   1.188   5.991  0.1374  0.1164  0.5272
  606TIP3   OH2 1778   6.252   2.447   2.136 -0.3427 -0.2876 -0.5084
  606TIP3    H1 1779   6.287   2.412   2.055  1.2485  0.1074 -0.0037
  606TIP3    H2 1780   6.293   2.533   2.145 -1.3947  0.1639  0.1330
  607TIP3   OH2 1781   7.481   5.798   5.641  0.0850 -0.2598  0.0894
  607TIP3    H1 1782   7.423   5.754   5.579 -0.2982  1.0737 -0.5389
  607TIP3    H2 1783   7.440   5.785   5.727 -1.4453  1.0687 -0.3966
  608TIP3   OH2 1784   2.617   0.087   6.088  0.0817  0.1463 -0.1316
  608TIP3    H1 1785   2.598   0.173   6.051 -0.8798 -0.5643 -1.3098
  608TIP3    H2 1786   2.531   0.047   6.100  0.4625 -0.2474  1.4122
  609TIP3   OH2 1787   0.846   4.053   4.503 -0.2296 -0.0032  0.7538
  609TIP3    H1 1788   0.781   4.009   4.556  1.1017 -0.7905  1.7637
  609TIP3    H2 1789   0.901   4.100   4.566  1.2554 -0.7999  0.0847
  610TIP3   OH2 1790   6.032   1.503   1.981  0.4859 -0.3020 -0.3150
  610TIP3    H1 1791   5.974   1.545   1.918 -0.1055 -0.5905  0.0350
  610TIP3    H2 1792   6.027   1.410   1.960  0.8456 -0.3294 -0.2977
  611TIP3   OH2 1793   6.247   2.282   0.527  0.0158  0.6346 -0.3336
  611TIP3    H1 1794   6.338   2.275   0.556  0.0876  0.7883 -0.5263
  611TIP3    H2 1795   6.244   2.232   0.446  0.1476  1.4572 -0.8425
  612TIP3   OH2 1796   4.993   0.745   2.997 -0.5594 -0.3638  0.3063
  612TIP3    H1 1797   4.911   0.733   3.046 -1.7449 -1.0624 -1.7850
  612TIP3    H2 1798   5.037   0.660   3.003 -1.0331 -0.6614 -0.4230
  613TIP3   OH2 1799   6.118   2.191   0.267 -0.8072  0.2021 -0.0553
  613TIP3    H1 1800   6.029   2.202   0.301 -0.7055  2.2364 -0.4306
  613TIP3    H2 1801   6.145   2.278   0.238 -0.1427 -1.0435 -3.5101
  614TIP3   OH2 1802   6.666   4.839   5.052 -0.8289 -0.3770  0.3115
  614TIP3    H1 1803   6.594   4.836   5.115 -1.1503  0.6428  0.0030
  614TIP3    H2 1804   6.624   4.841   4.966 -0.4355  0.1924  0.1266
  615TIP3   OH2 1805   2.010   0.630   3.862 -0.3216  0.1283  0.2407
  615TIP3    H1 1806   1.931   0.625   3.808 -0.6568 -1.9664  0.8780
  615TIP3    H2 1807   2.082   0.639   3.800 -0.5099 -4.1201 -0.7671
  616TIP3   OH2 1808   1.033   6.916   0.717  0.2236  0.0260 -0.0793
  616TIP3    H1 1809   1.017   6.999   0.671 -0.0170 -0.2324 -0.4593
  616TIP3    H2 1810   0.972   6.917   0.790 -1.4324 -0.8838 -1.4270
  617TIP3   OH2 1811   5.149   1.761   0.579 -0.0757 -0.0144 -0.2746
  617TIP3    H1 1812   5.234   1.755   0.536 -1.0331  1.3321 -2.4861
  617TIP3    H2 1813   5.130   1.673   0.609  2.1934 -0.2792  0.4535
  618TIP3   OH2 1814   4.465   4.143   1.412  0.2646 -0.1420 -0.2914
  618TIP3    H1 1815   4.559   4.149   1.429 -0.0198  1.4905  0.8967
  618TIP3    H2 1816   4.455   4.174   1.322  0.7804  0.4376 -0.1524
  619TIP3   OH2 1817   4.760   4.145   1.489  0.9800  1.0385 -0.2007
  619TIP3    H1 1818   4.776   4.134   1.583  1.3858 -1.2378 -0.5023
  619TIP3    H2 1819   4.842   4.117   1.447  0.4437  1.0610 -1.2872
  620TIP3   OH2 1820   4.636   1.463   0.106  0.1607  0.3248  0.3870
  620TIP3    H1 1821   4.634   1.473   0.011 -0.7197 -0.7169  0.2872
  620TIP3    H2 1822   4.558   1.510   0.136  1.7531  2.7661  0.8198
  621TIP3   OH2 1823   6.380   1.826   1.828 -0.2330  0.5081  0.1287
  621TIP3    H1 1824   6.296   1.824   1.784 -0.8943  0.5307  1.3509
  621TIP3    H2 1825   6.388   1.741   1.870  0.6163  0.2989 -0.4399
  622TIP3   OH2 1826   5.782   1.946   1.113  0.0611  0.3482 -0.5825
  622TIP3    H1 1827   5.822   1.876   1.165 -1.5228  0.2835  0.5982
  622TIP3    H2 1828   5.744   1.900   1.038 -1.8428 -0.2212  0.6998
  623TIP3   OH2 1829   7.040   1.671   0.464 -0.0179  0.8306 -0.1072
  623TIP3    H1 1830   7.036   1.595   0.406  1.6972 -1.8720  3.2023
  623TIP3    H2 1831   7.109   1.726   0.426 -0.3237  0.1203 -1.7446
  624TIP3   OH2 1832   5.920   1.445   0.732  0.3232 -0.1416 -0.8000
  624TIP3    H1 1833   5.832   1.482   0.732  0.7182  0.8268 -0.3036
  624TIP3    H2 1834   5.907   1.352   0.747 -0.5448  0.2120  0.8202
  625TIP3   OH2 1835   5.178   2.485   1.749 -0.5622  0.4978 -0.2085
  625TIP3    H1 1836   5.249   2.539   1.714 -0.7414  1.1364  0.3891
  625TIP3    H2 1837   5.218   2.400   1.765 -0.1673  0.5754 -0.7659
  626TIP3   OH2 1838   0.875   2.529   1.167  0.2821  0.1017  0.1878
  626TIP3    H1 1839   0.852   2.453   1.220 -0.4233  1.1839  1.4515
  626TIP3    H2 1840   0.802   2.590   1.180  1.0719  1.1837 -0.4453
  627TIP3   OH2 1841  -0.012   6.920   5.906 -0.3808  0.3364 -0.1408
  627TIP3    H1 1842   0.082   6.904   5.900 -0.3128  0.0566  1.4113
  627TIP3    H2 1843  -0.033   6.971   5.829  1.3620  1.8497  0.3554
  628TIP3   OH2 1844   5.740   2.207   1.228 -0.0994 -0.2450 -0.3859
  628TIP3    H1 1845   5.773   2.265   1.159  0.2486 -0.5390 -0.4683
  628TIP3    H2 1846   5.764   2.119   1.198  1.1761 -0.2835  0.7284
  629TIP3   OH2 1847   7.759   5.101   4.705  0.2956 -0.1918  0.1396
  629TIP3    H1 1848   7.811   5.026   4.733  0.5749 -0.4752 -1.0857
  629TIP3    H2 1849   7.730   5.142   4.786 -1.9321 -3.0416  0.8510
  630TIP3   OH2 1850   5.798   1.093   3.797  0.5092  0.6651 -0.3074
  630TIP3    H1 1851   5.803   1.048   3.713 -3.3599 -1.4698  0.5208
  630TIP3    H2 1852   5.704   1.103   3.814  1.2160  1.6377  3.4598
  631TIP3   OH2 1853   5.477   2.266   1.641 -0.3716  0.0325  0.0501
  631TIP3    H1 1854   5.412   2.251   1.710 -0.6164  1.8955  0.2475
  631TIP3    H2 1855   5.545   2.200   1.658 -1.0250 -0.3429  1.3103
  632TIP3   OH2 1856   5.096   0.063   1.252  0.1670  0.1480 -0.1783
  632TIP3    H1 1857   5.103   0.104   1.338  3.0822  0.5768 -0.5666
  632TIP3    H2 1858   5.010   0.090   1.219 -0.9801 -0.0391  2.5749
  633TIP3   OH2 1859   4.549   0.055   3.291  0.3632  0.4938 -0.3863
  633TIP3    H1 1860   4.585   0.099   3.215  1.5742  0.2488  0.0421
  633TIP3    H2 1861   4.625   0.025   3.341 -0.4122 -1.5458 -0.3466
  634TIP3   OH2 1862   6.086   3.632   0.657  0.1009 -0.1092  0.5237
  634TIP3    H1 1863   6.026   3.650   0.585  0.6691  0.2725  0.1476
  634TIP3    H2 1864   6.031   3.594   0.725 -0.2875 -1.2351 -0.4192
  635TIP3   OH2 1865   6.868   2.321   2.595 -0.3583  0.0692 -0.1132
  635TIP3    H1 1866   6.808   2.395   2.585  0.3484  0.9149  1.5868
  635TIP3    H2 1867   6.954   2.362   2.608 -0.2545 -0.9765  2.7936
  636TIP3   OH2 1868   0.679   3.164   6.314 -0.2150  0.0152  0.5708
  636TIP3    H1 1869   0.697   3.136   6.224  0.3156 -1.0203  0.9965
  636TIP3    H2 1870   0.614   3.101   6.346  0.2115 -0.1157  1.1845
  637TIP3   OH2 1871   4.847   2.988   2.774  0.0257 -0.3177 -0.6349
  637TIP3    H1 1872   4.860   2.970   2.681  0.9202 -0.5624 -0.4731
  637TIP3    H2 1873   4.809   3.075   2.777 -2.2696 -1.2468 -1.3393
  638TIP3   OH2 1874   5.398   0.317   3.158  0.3989  0.1978  0.3827
  638TIP3    H1 1875   5.360   0.391   3.206 -1.7523  1.6534 -3.3724
  638TIP3    H2 1876   5.485   0.348   3.132  0.2238  0.7168  0.4013
  639TIP3   OH2 1877   6.693   0.677   3.250  0.0854 -0.1444  0.4808
  639TIP3    H1 1878   6.658   0.713   3.331  0.1547 -2.2623  1.4894
  639TIP3    H2 1879   6.771   0.628   3.277 -0.9708 -2.4840 -0.5717
  640TIP3   OH2 1880   6.895   5.389   5.029 -0.3220  0.0067 -0.1306
  640TIP3    H1 1881   6.943   5.348   5.101 -0.3119 -1.2993 -0.8676
  640TIP3    H2 1882   6.906   5.328   4.955 -1.9000  0.4084 -0.7025
  641TIP3   OH2 1883   3.335   2.237   1.676 -0.3051 -1.0247 -0.0664
  641TIP3    H1 1884   3.256   2.289   1.667  0.2628  0.0893  1.2151
  641TIP3    H2 1885   3.304   2.148   1.696 -1.2176 -0.4395  1.1636
  642TIP3   OH2 1886   2.587   2.221   1.866  0.4419 -0.5758 -0.5737
  642TIP3    H1 1887   2.561   2.285   1.799  0.3092 -0.2581 -0.2177
  642TIP3    H2 1888   2.672   2.188   1.835  1.2321  0.8735  0.0027
  643TIP3   OH2 1889   1.070   7.042   5.203 -0.0326  0.1452  0.2724
  643TIP3    H1 1890   1.037   6.961   5.241 -0.6988  0.8315  1.1915
  643TIP3    H2 1891   1.164   7.042   5.223  0.4402 -1.4936 -1.7708
  644TIP3   OH2 1892   6.975   5.124   0.016 -0.0457  0.0194 -0.4327
  644TIP3    H1 1893   6.927   5.110   0.098 -0.0765 -0.1289 -0.4756
  644TIP3    H2 1894   7.061   5.085   0.033 -0.3286 -0.7511 -0.7588
  645TIP3   OH2 1895   6.906   3.337   2.957 -0.2345 -0.2527 -0.4077
  645TIP3    H1 1896   6.935   3.394   2.886  0.6545 -0.1887  0.0071
  645TIP3    H2 1897   6.896   3.251   2.916 -0.0355 -0.1481 -0.6744
  646TIP3   OH2 1898   7.114   6.086   6.020  0.2997 -0.2276  0.3329
  646TIP3    H1 1899   7.034   6.039   6.044  0.3960 -0.1707  0.7712
  646TIP3    H2 1900   7.086   6.177   6.008 -0.0237 -0.5351 -1.2526
  647TIP3   OH2 1901   5.306   6.604   6.139  0.1462 -0.1270  0.4586
  647TIP3    H1 1902   5.357   6.547   6.081 -2.5436 -1.1072 -1.0354
  647TIP3    H2 1903   5.366   6.675   6.162  2.0224 -1.0023 -1.5887
  648TIP3   OH2 1904   2.831   7.184   2.025  0.1759  0.2717  0.1413
  648TIP3    H1 1905   2.880   7.227   1.955  0.4112  1.4936  1.0395
  648TIP3    H2 1906   2.781   7.116   1.981  2.0782 -0.4936 -0.9236
  649TIP3   OH2 1907   5.204   1.340   2.603 -0.1936 -0.2407 -0.1861
  649TIP3    H1 1908   5.254   1.317   2.525 -1.5257 -0.3934 -1.0079
  649TIP3    H2 1909   5.113   1.327   2.578 -0.6387 -0.3043  1.4020
  650TIP3   OH2 1910   4.521   1.012   5.312 -0.0727  0.1557  0.1109
  650TIP3    H1 1911   4.536   1.073   5.240  0.2990  0.0935  0.1343
  650TIP3    H2 1912   4.428   0.989   5.306  0.1234 -0.4213 -0.7946
  651TIP3   OH2 1913   0.972   4.930   5.577 -0.0362  0.0343 -0.3111
  651TIP3    H1 1914   1.015   4.907   5.660 -1.2610  1.4956  0.7717
  651TIP3    H2 1915   0.991   5.024   5.566 -3.3610  0.8739  0.5120
  652TIP3   OH2 1916   7.352   4.648   5.747 -0.1069 -0.3332 -0.4428
  652TIP3    H1 1917   7.314   4.588   5.812  1.0376 -0.6023 -0.0044
  652TIP3    H2 1918   7.329   4.735   5.779  0.1616 -0.4744  0.1487
  653TIP3   OH2 1919   1.302   2.096   1.116 -0.3035  0.5061  0.2570
  653TIP3    H1 1920   1.257   2.172   1.151 -0.3204  1.0931 -0.9976
  653TIP3    H2 1921   1.253   2.021   1.149  0.6219  0.9699  2.7705
  654TIP3   OH2 1922   6.088   1.775   5.591  0.0518  0.3591 -0.1144
  654TIP3    H1 1923   6.140   1.738   5.662 -0.6541 -0.0110  0.2191
  654TIP3    H2 1924   6.151   1.793   5.521  0.4435 -1.2979 -0.2097
  655TIP3   OH2 1925   2.949   6.981   1.211  0.5731  0.3242 -0.5976
  655TIP3    H1 1926   3.016   6.931   1.258 -0.4368 -0.4792  0.0080
  655TIP3    H2 1927   2.969   7.073   1.231 -0.1187 -0.0195  1.8010
  656TIP3   OH2 1928   6.267   2.354   3.755 -0.2233  0.4118 -0.0582
  656TIP3    H1 1929   6.255   2.309   3.839 -2.8449  1.9237  0.4546
  656TIP3    H2 1930   6.346   2.407   3.767 -0.5247  0.5454  1.4512
  657TIP3   OH2 1931   5.447   2.665   0.854 -0.0452 -0.1631  0.2515
  657TIP3    H1 1932   5.435   2.760   0.853 -1.4849 -0.3003  1.8055
  657TIP3    H2 1933   5.490   2.648   0.938 -1.8706 -1.0921  1.0206
  658TIP3   OH2 1934   0.350   5.367   6.355  0.3594  0.0587  0.2538
  658TIP3    H1 1935   0.442   5.375   6.379  0.5647 -0.9305 -0.1944
  658TIP3    H2 1936   0.344   5.408   6.269 -0.0770  2.2055  1.2750
  659TIP3   OH2 1937   6.788   1.161   2.804  0.2519  0.1741 -0.0536
  659TIP3    H1 1938   6.768   1.090   2.865  0.2358 -1.0077 -1.3969
  659TIP3    H2 1939   6.711   1.217   2.805 -1.2351 -1.7692 -1.6295
  660TIP3   OH2 1940   0.156   6.835   6.275 -0.1986  0.0882  0.8065
  660TIP3    H1 1941   0.123   6.842   6.365 -1.8490  1.3079  0.1135
  660TIP3    H2 1942   0.214   6.910   6.266 -1.6790  1.1698  0.1751
  661TIP3   OH2 1943   3.969   5.031   0.218  0.1963 -0.2182 -0.1923
  661TIP3    H1 1944   4.064   5.021   0.222  0.1085 -0.4246  2.1287
  661TIP3    H2 1945   3.935   4.954   0.263 -1.0648  0.1632 -0.4745
  662TIP3   OH2 1946   5.444   2.776   2.484 -0.5340  0.0309  0.1177
  662TIP3    H1 1947   5.423   2.746   2.395 -0.7584 -0.0610  0.2010
  662TIP3    H2 1948   5.536   2.754   2.496  0.0839  1.9202 -0.8699
  663TIP3   OH2 1949   4.934   2.595   1.847  0.3072 -0.5087  0.8847
  663TIP3    H1 1950   5.012   2.553   1.811  0.2622 -0.6290  0.9257
  663TIP3    H2 1951   4.926   2.677   1.798  1.7322  0.5837  2.4096
  664TIP3   OH2 1952   3.898   2.254   1.581  0.0597 -0.3492  0.2537
  664TIP3    H1 1953   3.894   2.160   1.562  0.7890 -0.4811  0.7261
  664TIP3    H2 1954   3.905   2.258   1.676 -0.7384  0.2141  0.2921
  665TIP3   OH2 1955   4.591   2.144   0.212 -0.1062  0.5580  0.1329
  665TIP3    H1 1956   4.557   2.159   0.300 -0.8851  0.7644 -0.2006
  665TIP3    H2 1957   4.606   2.049   0.208 -0.0952  0.5454  0.4833
  666TIP3   OH2 1958   5.304   1.515   0.033 -0.4424 -0.2309  0.9732
  666TIP3    H1 1959   5.238   1.560   0.086 -0.8162  0.6001 -0.1882
  666TIP3    H2 1960   5.383   1.568   0.043 -0.5859  0.0701  0.4711
  667TIP3   OH2 1961   5.681   4.296   1.316  0.1737 -0.1886  0.0649
  667TIP3    H1 1962   5.634   4.216   1.338 -0.0083  0.1401  0.8970
  667TIP3    H2 1963   5.754   4.298   1.377  1.7316 -1.0890 -1.7200
  668TIP3   OH2 1964   5.101   1.296   0.939  0.0431 -0.3801  0.3773
  668TIP3    H1 1965   5.139   1.361   0.998  0.6329 -0.6872  0.3390
  668TIP3    H2 1966   5.084   1.345   0.858  1.4637 -0.4982 -0.0142
  669TIP3   OH2 1967   4.342   1.322   0.302 -0.3404 -0.1307 -0.3765
  669TIP3    H1 1968   4.364   1.410   0.273 -0.6652 -0.4412 -1.5815
  669TIP3    H2 1969   4.362   1.266   0.228  0.3692 -1.1528  0.5729
  670TIP3   OH2 1970   5.837   1.703   1.329 -0.0952  1.0733 -0.2693
  670TIP3    H1 1971   5.748   1.669   1.322 -0.1247  0.9233  0.6719
  670TIP3    H2 1972   5.882   1.670   1.252 -0.7166  0.7138 -0.4821
  671TIP3   OH2 1973   7.145   6.511   2.859 -0.0755  0.6151  0.1196
  671TIP3    H1 1974   7.209   6.492   2.791  0.5855 -3.1047  1.6861
  671TIP3    H2 1975   7.191   6.568   2.921  0.4385  1.1494 -0.7461
  672TIP3   OH2 1976   4.879   0.820   2.136 -0.1337 -0.1588 -0.5875
  672TIP3    H1 1977   4.820   0.885   2.174  0.6909  0.2655  0.0032
  672TIP3    H2 1978   4.965   0.863   2.138  0.2000 -0.7880 -1.3711
  673TIP3   OH2 1979   5.567   1.604   1.502 -0.1536  0.9292  0.1311
  673TIP3    H1 1980   5.564   1.618   1.407  1.8059 -1.8025 -0.4130
  673TIP3    H2 1981   5.487   1.555   1.521  0.2520  0.0373 -0.4105
  674TIP3   OH2 1982   6.408   0.189   0.853 -0.5291 -0.3239  0.2621
  674TIP3    H1 1983   6.344   0.177   0.923 -0.3993  2.5808  0.9389
  674TIP3    H2 1984   6.378   0.130   0.783 -2.7703 -0.5209  1.3263
  675TIP3   OH2 1985   5.993   2.214   3.180  0.3401 -0.1008  0.6367
  675TIP3    H1 1986   5.915   2.212   3.236 -0.2555 -1.2308 -0.1952
  675TIP3    H2 1987   6.052   2.151   3.220 -0.5343 -1.7485 -0.6002
  676TIP3   OH2 1988   1.249   0.716   6.249 -0.7638 -0.1523  0.3751
  676TIP3    H1 1989   1.335   0.736   6.286 -0.9098  0.3092  0.4607
  676TIP3    H2 1990   1.265   0.700   6.156 -1.0085  2.7806 -0.1963
  677TIP3   OH2 1991   1.411   2.862   0.945 -0.0031 -0.7552 -0.2163
  677TIP3    H1 1992   1.392   2.910   0.865 -1.1451  0.3676  0.6978
  677TIP3    H2 1993   1.341   2.797   0.951 -0.3250 -0.3725  0.2226
  678TIP3   OH2 1994   3.397   5.634   6.301  0.1922  0.1027  0.1426
  678TIP3    H1 1995   3.361   5.698   6.240  0.5713  0.8312  0.6771
  678TIP3    H2 1996   3.477   5.603   6.260  0.5075  0.6766  0.3230
  679TIP3   OH2 1997   7.133   4.969   5.480  0.4655 -0.2147 -0.0544
  679TIP3    H1 1998   7.141   5.034   5.549 -0.2233  2.7250 -2.6423
  679TIP3    H2 1999   7.142   4.885   5.525  0.3886  1.6024  3.5191
  680TIP3   OH2 2000   2.210   5.429   0.039  0.3512 -0.5250  0.3727
  680TIP3    H1 2001   2.256   5.433   0.123  3.3636  1.0462 -1.2728
  680TIP3    H2 2002   2.238   5.347  -0.000  1.5701  0.3011 -0.5111
  681TIP3   OH2 2003   5.390   2.920   0.912  0.5840  0.2586  0.5772
  681TIP3    H1 2004   5.386   3.011   0.886  0.6456  0.3377  0.8438
  681TIP3    H2 2005   5.323   2.912   0.980 -0.1415 -0.1305 -0.1660
  682TIP3   OH2 2006   7.742   4.443   2.537 -0.3493  0.0643  0.1310
  682TIP3    H1 2007   7.678   4.422   2.469  0.2764 -0.0893 -0.4139
  682TIP3    H2 2008   7.693   4.496   2.601 -1.7050 -2.1953  1.0367
  683TIP3   OH2 2009   6.940   3.753   5.207 -0.6434 -0.4128 -0.0542
  683TIP3    H1 2010   6.926   3.727   5.298  0.4478  1.3696  0.6546
  683TIP3    H2 2011   7.032   3.732   5.190 -0.5082  0.3709 -0.3379
  684TIP3   OH2 2012   7.699   3.762   0.493  0.0553 -0.2908 -0.2117
  684TIP3    H1 2013   7.621   3.810   0.464  0.3045 -0.4916 -1.2575
  684TIP3    H2 2014   7.758   3.830   0.527  0.9359  0.3487 -2.8728
  685TIP3   OH2 2015   0.668   3.824   1.289  0.2546  0.5330  0.2179
  685TIP3    H1 2016   0.693   3.811   1.197  2.6922 -1.1963  1.0803
  685TIP3    H2 2017   0.585   3.871   1.284 -0.1089 -0.2920 -2.8931
  686TIP3   OH2 2018   1.259   7.093   6.120 -0.2882 -0.1071 -0.2782
  686TIP3    H1 2019   1.323   7.164   6.110 -0.2213 -0.1865 -0.4098
  686TIP3    H2 2020   1.212   7.090   6.037 -0.3826 -0.1292 -0.2250
  687TIP3   OH2 2021   0.451   2.081   2.894  0.2814  0.4423 -0.2901
  687TIP3    H1 2022   0.529   2.057   2.843 -0.1462  0.5857 -1.0131
  687TIP3    H2 2023   0.463   2.036   2.978  0.9161  0.0797 -0.5706
  688TIP3   OH2 2024   5.648   2.792   0.496 -0.1178 -0.3599  0.1519
  688TIP3    H1 2025   5.599   2.871   0.475  1.6385  0.6734 -0.2104
  688TIP3    H2 2026   5.723   2.794   0.436  0.8725 -1.3667  1.3281
  689TIP3   OH2 2027   7.681   3.129   1.741  0.1232  0.3451  0.1989
  689TIP3    H1 2028   7.734   3.133   1.821 -0.6781 -1.1344  0.8191
  689TIP3    H2 2029   7.743   3.104   1.673  0.8453  1.7775  0.2951
  690TIP3   OH2 2030   7.239   4.281   0.937 -0.4909  0.5627 -0.2019
  690TIP3    H1 2031   7.237   4.197   0.890 -2.1016  0.2927  0.3212
  690TIP3    H2 2032   7.318   4.324   0.906 -0.2463 -0.6767 -1.3285
  691TIP3   OH2 2033   1.472   4.223   1.855  0.5606  0.3540  0.0991
  691TIP3    H1 2034   1.400   4.286   1.847 -0.6820 -1.0478  0.0152
  691TIP3    H2 2035   1.431   4.145   1.892  2.5028  0.3203  2.3354
  692TIP3   OH2 2036   0.614   3.421   1.141  0.5277  0.5124 -0.8931
  692TIP3    H1 2037   0.566   3.480   1.199  0.2973 -0.5414  0.0020
  692TIP3    H2 2038   0.552   3.399   1.072 -0.7408 -1.7733  0.8784
  693TIP3   OH2 2039   1.401   1.447   0.780 -0.3984 -0.1731 -0.1817
  693TIP3    H1 2040   1.481   1.497   0.799  0.7860 -2.0543 -0.1428
  693TIP3    H2 2041   1.354   1.446   0.864 -0.1765  0.4003 -0.0441
  694TIP3   OH2 2042   0.574   1.240   1.273  0.1039  0.2077 -0.6285
  694TIP3    H1 2043   0.518   1.178   1.226 -1.0389  0.1877  0.7261
  694TIP3    H2 2044   0.599   1.194   1.353  0.0620  1.1289 -0.0808
  695TIP3   OH2 2045   5.827   6.037   2.952 -0.0287  0.2667  0.5933
  695TIP3    H1 2046   5.737   6.007   2.938  0.7440 -1.5419 -0.7399
  695TIP3    H2 2047   5.866   5.969   3.007  1.5767 -0.9694 -1.9699
  696TIP3   OH2 2048   7.737   7.206   2.648 -0.2443  0.6169  0.7765
  696TIP3    H1 2049   7.699   7.283   2.690 -2.9621 -0.9071  1.2751
  696TIP3    H2 2050   7.701   7.132   2.698  0.0605 -1.0544 -1.4027
  697TIP3   OH2 2051   7.125   0.697   6.204  0.3345  0.1807  0.3753
  697TIP3    H1 2052   7.201   0.673   6.256 -0.6042 -0.4850  1.4753
  697TIP3    H2 2053   7.053   0.645   6.241  0.0289 -1.8365 -2.8619
  698TIP3   OH2 2054   1.223   3.146   2.186  0.4558  0.5667 -0.0543
  698TIP3    H1 2055   1.314   3.132   2.213 -0.5027  0.3811  3.3573
  698TIP3    H2 2056   1.195   3.222   2.237 -1.5847  0.0029 -0.3272
  699TIP3   OH2 2057   2.212   3.467   2.820 -0.2289  0.1433 -0.3672
  699TIP3    H1 2058   2.147   3.490   2.886 -0.0969 -1.5859  0.3913
  699TIP3    H2 2059   2.286   3.433   2.870  0.0655 -0.7340 -1.3868
  700TIP3   OH2 2060   2.075   4.559   0.318  0.0489 -0.0522  0.1734
  700TIP3    H1 2061   2.083   4.649   0.286 -0.4172 -0.1196 -0.1580
  700TIP3    H2 2062   2.162   4.522   0.309  0.6271  0.8770  1.8936
  701TIP3   OH2 2063   7.239   4.755   1.749 -0.2411  0.3300  0.9601
  701TIP3    H1 2064   7.160   4.794   1.711 -0.5465 -1.9889 -0.8507
  701TIP3    H2 2065   7.206   4.685   1.805  0.5369 -0.7276  0.0983
  702TIP3   OH2 2066   0.497   4.726   1.706  0.6725 -0.2673 -0.1235
  702TIP3    H1 2067   0.556   4.698   1.637 -1.6800 -1.8015 -1.5714
  702TIP3    H2 2068   0.483   4.820   1.689  0.8251 -0.4330 -1.1859
  703TIP3   OH2 2069   7.732   4.748   3.404  0.4785 -0.0099 -0.1077
  703TIP3    H1 2070   7.821   4.761   3.435  1.0039  0.4467 -1.7214
  703TIP3    H2 2071   7.680   4.814   3.450  0.7059 -1.1354  1.8229
  704TIP3   OH2 2072   0.609   2.641   3.667 -0.3007 -0.4879  0.2625
  704TIP3    H1 2073   0.595   2.548   3.647  1.2119 -0.4661 -1.0774
  704TIP3    H2 2074   0.581   2.687   3.588  2.4771 -0.1095 -0.5523
  705TIP3   OH2 2075   1.323   1.226   1.709 -0.0041 -0.1588  0.1302
  705TIP3    H1 2076   1.356   1.145   1.669 -0.2126  0.2454 -0.8951
  705TIP3    H2 2077   1.288   1.199   1.793 -0.9588 -1.3083 -0.6235
  706TIP3   OH2 2078   2.329   1.732   2.549 -0.1778 -0.1494 -0.2320
  706TIP3    H1 2079   2.235   1.719   2.535  0.3839 -3.1483 -1.3965
  706TIP3    H2 2080   2.347   1.689   2.632 -0.0017  1.3167  0.5019
  707TIP3   OH2 2081   0.756   2.293   1.724  0.0145  0.1931  0.3841
  707TIP3    H1 2082   0.722   2.329   1.806  2.5592  2.2547  0.6132
  707TIP3    H2 2083   0.847   2.273   1.743  0.4143 -0.0885 -1.7136
  708TIP3   OH2 2084   0.011   6.572   2.042 -0.3996 -0.2078  0.1269
  708TIP3    H1 2085  -0.041   6.621   1.977 -0.2597 -1.5938 -1.0584
  708TIP3    H2 2086   0.046   6.639   2.100 -1.2790  0.9895 -0.6975
  709TIP3   OH2 2087   1.689   1.303   0.782 -0.2341 -0.0656 -0.3949
  709TIP3    H1 2088   1.651   1.234   0.836 -0.1493 -0.2157 -0.5268
  709TIP3    H2 2089   1.776   1.318   0.819 -0.0347 -0.4232 -0.7142
  710TIP3   OH2 2090   0.865   3.859   1.643 -0.0321 -0.7986  0.3340
  710TIP3    H1 2091   0.782   3.906   1.651 -0.0643 -0.9833  1.1281
  710TIP3    H2 2092   0.855   3.805   1.564 -0.9258 -1.3347  0.8053
  711TIP3   OH2 2093   1.814   2.350   2.450  0.4404  0.0913 -0.3649
  711TIP3    H1 2094   1.874   2.424   2.455  0.4898  0.1355 -1.4328
  711TIP3    H2 2095   1.727   2.390   2.447  0.5190  0.1940 -2.2986
  712TIP3   OH2 2096   6.747   3.002   2.340 -0.3424 -0.0065  0.1261
  712TIP3    H1 2097   6.769   3.085   2.381 -0.7743  0.3158 -0.2873
  712TIP3    H2 2098   6.786   3.007   2.253  0.1036 -0.4669  0.2949
  713TIP3   OH2 2099   2.530   3.402   1.515 -0.1599  0.1672  0.5328
  713TIP3    H1 2100   2.566   3.324   1.472 -0.2025  0.2346  0.3737
  713TIP3    H2 2101   2.440   3.408   1.482  0.1303  0.7957 -0.1506
  714TIP3   OH2 2102   0.195   2.489   1.337  0.1717 -0.1127  0.0699
  714TIP3    H1 2103   0.148   2.532   1.265  1.5802 -1.6749 -1.8498
  714TIP3    H2 2104   0.208   2.558   1.402 -2.1477  1.0615 -0.6442
  715TIP3   OH2 2105   7.801   4.233   4.556  0.2562  0.1403  0.3977
  715TIP3    H1 2106   7.842   4.160   4.604 -0.5948 -0.4282  0.2840
  715TIP3    H2 2107   7.742   4.190   4.494 -0.9821  0.9467  1.0032
  716TIP3   OH2 2108   3.170   3.471   1.190 -0.3281 -0.7224 -0.3835
  716TIP3    H1 2109   3.185   3.471   1.285 -0.5878 -0.2266 -0.3399
  716TIP3    H2 2110   3.102   3.405   1.177  2.5764 -3.7796 -0.7190
  717TIP3   OH2 2111   1.306   2.656   0.595 -0.0661 -0.5280 -0.4139
  717TIP3    H1 2112   1.235   2.702   0.641  1.8529  0.8717  1.2038
  717TIP3    H2 2113   1.347   2.602   0.662 -0.2790 -2.2291 -1.6033
  718TIP3   OH2 2114   0.992   3.496   3.050 -0.2046  0.4245 -0.0187
  718TIP3    H1 2115   1.032   3.540   3.125  0.8499  2.0994 -1.5058
  718TIP3    H2 2116   0.948   3.566   3.002 -1.2939 -0.7041 -0.7078
  719TIP3   OH2 2117   3.097   1.277   3.086 -0.0482 -0.1153 -0.5107
  719TIP3    H1 2118   3.073   1.343   3.152  0.9265  0.0234 -0.2913
  719TIP3    H2 2119   3.091   1.194   3.133 -3.8186 -0.4768 -1.4600
  720TIP3   OH2 2120   4.746   0.019   6.131 -0.6596  0.1840 -0.2415
  720TIP3    H1 2121   4.698   0.099   6.153 -1.8560 -0.7987  0.8419
  720TIP3    H2 2122   4.728  -0.039   6.205 -0.9618 -1.5729 -1.6760
  721TIP3   OH2 2123   2.453   3.927   1.934  0.0539 -0.1574 -0.4903
  721TIP3    H1 2124   2.376   3.903   1.986  0.8276 -1.1275  0.2269
  721TIP3    H2 2125   2.432   3.898   1.845 -0.2997 -0.6533 -0.2492
  722TIP3   OH2 2126   1.940   4.085   1.219 -0.3491 -0.4156 -0.7091
  722TIP3    H1 2127   1.871   4.092   1.154 -0.4136 -0.7476 -0.6771
  722TIP3    H2 2128   1.976   4.174   1.225 -0.6213 -0.2913 -0.8866
  723TIP3   OH2 2129   6.582   1.834   1.603  0.3370 -0.7540  0.7090
  723TIP3    H1 2130   6.556   1.828   1.694 -1.0136 -0.6594  0.3392
  723TIP3    H2 2131   6.529   1.768   1.558 -1.2419  1.2397 -0.4660
  724TIP3   OH2 2132   7.656   2.269   0.186  0.2528 -0.0369 -0.3377
  724TIP3    H1 2133   7.725   2.333   0.202 -0.2961  0.8578 -1.4900
  724TIP3    H2 2134   7.645   2.268   0.091  0.6060 -2.2353 -0.3859
  725TIP3   OH2 2135   1.901   1.749   4.200 -0.0460  0.5508 -0.2711
  725TIP3    H1 2136   1.863   1.717   4.282 -2.4634  0.7692 -1.2769
  725TIP3    H2 2137   1.902   1.672   4.143  1.9197  0.3253  0.0376
  726TIP3   OH2 2138   6.827   2.830   1.319 -0.0895 -0.1051 -0.2073
  726TIP3    H1 2139   6.744   2.783   1.321  0.0829 -0.3886  0.5336
  726TIP3    H2 2140   6.894   2.762   1.331  0.1528  0.3405  1.0604
  727TIP3   OH2 2141   2.093   2.235   0.090 -0.3049  0.0224 -0.2528
  727TIP3    H1 2142   2.188   2.222   0.087 -0.3801 -0.4494 -0.7593
  727TIP3    H2 2143   2.079   2.316   0.041 -0.1171  0.3643  0.2594
  728TIP3   OH2 2144   3.275   1.284   1.339 -0.1997 -0.4558 -0.5506
  728TIP3    H1 2145   3.222   1.355   1.303  0.8220  0.6982  0.1998
  728TIP3    H2 2146   3.360   1.292   1.295  0.2332 -0.6025  0.2441
  729TIP3   OH2 2147   0.891   3.657   4.124  0.5052 -0.1762 -0.0501
  729TIP3    H1 2148   0.885   3.750   4.148 -0.0005 -0.6885  1.8360
  729TIP3    H2 2149   0.813   3.641   4.072  1.2938  0.7867 -1.5817
  730TIP3   OH2 2150   2.224   0.676   4.936 -0.5553 -0.0569  0.0931
  730TIP3    H1 2151   2.255   0.751   4.986 -0.8924 -0.5578  1.0636
  730TIP3    H2 2152   2.274   0.601   4.970 -0.4971 -0.3316 -0.5934
  731TIP3   OH2 2153   2.565   0.286   3.590  0.5657  0.1598 -0.6431
  731TIP3    H1 2154   2.499   0.288   3.659 -2.0366 -0.1959 -2.9961
  731TIP3    H2 2155   2.640   0.242   3.629 -0.3861  1.0018  2.2761
  732TIP3   OH2 2156   0.777   2.817   2.044 -0.4593 -0.0075  0.2550
  732TIP3    H1 2157   0.863   2.845   2.013 -0.8031  0.1872 -0.5315
  732TIP3    H2 2158   0.792   2.792   2.136  0.6135 -0.8607 -0.1352
  733TIP3   OH2 2159   1.749   2.745   3.330 -0.4693  0.2445  0.1067
  733TIP3    H1 2160   1.735   2.840   3.335  0.1796  0.3824 -0.4847
  733TIP3    H2 2161   1.742   2.725   3.237  1.0528 -0.0136  0.0343
  734TIP3   OH2 2162   1.310   2.302   2.549  0.5345  0.4470  0.3180
  734TIP3    H1 2163   1.285   2.391   2.574 -1.3164  0.5274 -1.6763
  734TIP3    H2 2164   1.312   2.254   2.632 -1.5154  1.6317  1.1120
  735TIP3   OH2 2165   0.676   4.687   1.501 -0.0924  0.3409 -0.2833
  735TIP3    H1 2166   0.711   4.598   1.500  0.2677  0.4961 -2.3268
  735TIP3    H2 2167   0.739   4.738   1.451  0.8009  2.1872  2.5853
  736TIP3   OH2 2168   1.768   6.260   2.075  0.4803 -0.0929  0.4062
  736TIP3    H1 2169   1.850   6.304   2.052 -0.2164  1.9053  1.6751
  736TIP3    H2 2170   1.701   6.306   2.024  0.0230 -1.1944 -0.0018
  737TIP3   OH2 2171   1.645   3.485   2.746  0.0905 -0.0933  0.4060
  737TIP3    H1 2172   1.577   3.545   2.775  0.2621  0.1354  0.3346
  737TIP3    H2 2173   1.707   3.482   2.819  0.0798 -0.1889  0.4115
  738TIP3   OH2 2174   6.701   3.310   1.815 -0.0067  0.0059 -0.1850
  738TIP3    H1 2175   6.699   3.346   1.904  0.1324  0.0736 -0.2092
  738TIP3    H2 2176   6.643   3.368   1.765 -0.7447 -0.5213  0.0412
  739TIP3   OH2 2177   2.592   2.644   2.048 -0.6568 -0.8102  0.0241
  739TIP3    H1 2178   2.507   2.685   2.031  0.7124  2.1752  0.0197
  739TIP3    H2 2179   2.607   2.660   2.141  0.5282 -0.0449 -0.2893
  740TIP3   OH2 2180   0.853   2.904   2.902  0.2507  0.2020 -0.3076
  740TIP3    H1 2181   0.801   2.864   2.833  0.4454  0.0151 -0.3469
  740TIP3    H2 2182   0.822   2.995   2.906  0.2954  0.2374 -0.6974
  741TIP3   OH2 2183   6.388   0.380   2.706  0.4497  0.0293  0.0477
  741TIP3    H1 2184   6.453   0.405   2.772 -0.4160  2.6499 -0.0187
  741TIP3    H2 2185   6.304   0.403   2.746 -0.4074 -2.4586 -0.2452
  742TIP3   OH2 2186   1.690   3.435   0.736  0.2962 -0.1213 -0.0469
  742TIP3    H1 2187   1.632   3.363   0.714 -0.7159  0.8004 -0.4338
  742TIP3    H2 2188   1.704   3.481   0.653 -0.3876  1.0761  0.4853
  743TIP3   OH2 2189   3.721   1.537   3.245 -0.3395  0.1436 -0.4238
  743TIP3    H1 2190   3.688   1.547   3.155  1.3198  1.7532 -0.8898
  743TIP3    H2 2191   3.762   1.621   3.264  0.3706 -0.6046  1.4215
  744TIP3   OH2 2192   2.611   1.243   2.378  0.2793 -0.1726  0.2970
  744TIP3    H1 2193   2.695   1.222   2.337 -0.2831 -1.2607 -0.3210
  744TIP3    H2 2194   2.563   1.290   2.309  0.9140  1.7593  1.1309
  745TIP3   OH2 2195   7.707   2.662   3.296 -0.4945 -0.2505 -0.4375
  745TIP3    H1 2196   7.779   2.695   3.349 -0.4988  0.4098 -0.8246
  745TIP3    H2 2197   7.636   2.645   3.358 -0.7389  1.1881 -0.2928
  746TIP3   OH2 2198   7.208   4.400   0.646 -0.3038  0.4227 -0.1925
  746TIP3    H1 2199   7.236   4.309   0.642 -0.2501  0.4334 -0.0876
  746TIP3    H2 2200   7.248   4.441   0.569 -0.5610  0.2953 -0.3912
  747TIP3   OH2 2201   6.537   1.407   6.282 -0.0837 -0.3913 -0.4413
  747TIP3    H1 2202   6.467   1.466   6.310  0.3329  0.4292 -1.1022
  747TIP3    H2 2203   6.546   1.423   6.188  0.2086 -1.3338 -0.5821
  748TIP3   OH2 2204   3.825   4.461   0.923  0.3007 -0.0055  0.0592
  748TIP3    H1 2205   3.763   4.417   0.982 -0.0763  3.0612  2.0670
  748TIP3    H2 2206   3.786   4.453   0.836 -1.2288 -1.0110  0.8198
  749TIP3   OH2 2207   5.989   1.523   1.492 -0.3527  0.7969 -0.6060
  749TIP3    H1 2208   5.996   1.609   1.450 -2.0524  1.1448 -0.2171
  749TIP3    H2 2209   5.916   1.533   1.554 -0.8080 -1.0480 -0.8332
  750TIP3   OH2 2210   5.558   3.203   2.395  0.3420  0.6435  0.0850
  750TIP3    H1 2211   5.595   3.171   2.313  1.3938 -0.7517  1.0524
  750TIP3    H2 2212   5.632   3.246   2.439 -0.7593  3.3746 -0.6431
  751TIP3   OH2 2213   1.815   3.161   2.313 -0.4137  0.6302  0.1733
  751TIP3    H1 2214   1.865   3.224   2.262 -0.3779  0.8307  0.4553
  751TIP3    H2 2215   1.841   3.177   2.404  0.7227 -0.7985  0.1215
  752TIP3   OH2 2216   6.696   3.310   2.113 -0.6829  0.0428 -0.2120
  752TIP3    H1 2217   6.781   3.331   2.152 -0.4357  0.0179 -0.7245
  752TIP3    H2 2218   6.635   3.371   2.155 -0.4240  0.0051  0.2196
  753TIP3   OH2 2219   0.459   2.092   3.383 -0.0375  0.0619  0.6958
  753TIP3    H1 2220   0.483   2.184   3.374  0.6149 -0.3016 -1.5632
  753TIP3    H2 2221   0.410   2.072   3.303  0.5247 -1.7460  0.7792
  754TIP3   OH2 2222   2.457   5.406   3.502  0.8547 -0.1235  0.1642
  754TIP3    H1 2223   2.419   5.472   3.444 -0.8131 -1.1734  0.0473
  754TIP3    H2 2224   2.480   5.334   3.444  1.9376  0.0156  0.4091
  755TIP3   OH2 2225   2.052   4.903   0.466  0.1177  0.1108 -0.0127
  755TIP3    H1 2226   1.976   4.936   0.514 -0.3766 -0.0037 -0.7064
  755TIP3    H2 2227   2.041   4.937   0.377 -0.4295 -1.9344 -0.7673
  756TIP3   OH2 2228   2.489   4.649   2.135  0.1487 -0.3681  0.2473
  756TIP3    H1 2229   2.512   4.682   2.222  0.4811  0.8219 -0.2783
  756TIP3    H2 2230   2.497   4.554   2.143 -0.5716 -0.3267  1.7268
  757TIP3   OH2 2231   2.528   4.027   0.204  0.0813  0.1471 -0.7535
  757TIP3    H1 2232   2.583   3.986   0.270  0.4694 -0.6093 -1.5487
  757TIP3    H2 2233   2.442   4.034   0.245  0.7374  1.2666  0.4663
  758TIP3   OH2 2234   1.239   1.776   0.642  0.9331 -0.2432  0.0612
  758TIP3    H1 2235   1.147   1.756   0.630  1.0271 -0.2981 -0.5610
  758TIP3    H2 2236   1.241   1.870   0.661  0.7442 -0.2574  0.1455
  759TIP3   OH2 2237   1.601   4.236   0.461  0.4056  0.2338 -0.1176
  759TIP3    H1 2238   1.507   4.225   0.476  0.1001  0.7339 -1.6107
  759TIP3    H2 2239   1.631   4.148   0.436  0.3539  0.0593  0.4247
  760TIP3   OH2 2240   1.171   0.493   3.064 -0.1709 -0.3813  0.1738
  760TIP3    H1 2241   1.222   0.459   2.990 -0.4404 -0.2104 -0.0918
  760TIP3    H2 2242   1.171   0.588   3.051  0.0512 -0.3253  0.5702
  761TIP3   OH2 2243   6.759   2.254   4.847 -0.1638  0.2413  0.2347
  761TIP3    H1 2244   6.691   2.187   4.854 -0.8952  0.9352 -0.1245
  761TIP3    H2 2245   6.821   2.218   4.784 -0.7820  0.0944 -0.3002
  762TIP3   OH2 2246   7.070   1.743   5.951 -0.8243 -0.1907 -0.3442
  762TIP3    H1 2247   7.083   1.708   6.039  2.2631  1.0526 -0.2441
  762TIP3    H2 2248   7.058   1.666   5.896  2.7506 -1.3312  0.3498
  763TIP3   OH2 2249   2.995   4.066   1.361 -0.1341 -0.2768  0.6382
  763TIP3    H1 2250   2.931   3.996   1.359 -0.2744 -0.1417  0.4020
  763TIP3    H2 2251   3.077   4.023   1.386  0.1561 -0.8070 -1.1803
  764TIP3   OH2 2252   1.569   0.374   1.223 -0.1715 -0.0844  0.1535
  764TIP3    H1 2253   1.645   0.431   1.212  0.8027 -1.6485 -1.5585
  764TIP3    H2 2254   1.607   0.287   1.237 -1.6359 -0.4770  1.9070
  765TIP3   OH2 2255   0.023   0.967   1.298  0.1530  0.1818  0.0275
  765TIP3    H1 2256  -0.024   0.886   1.321 -1.0099  0.5040 -1.1670
  765TIP3    H2 2257   0.114   0.949   1.321 -0.0689 -1.5406 -0.3535
  766TIP3   OH2 2258   2.428   4.475   0.365  0.4073  0.4664  0.0444
  766TIP3    H1 2259   2.464   4.388   0.348  0.8445  0.8716 -1.0947
  766TIP3    H2 2260   2.504   4.533   0.364 -0.0125  1.0157 -0.2305
  767TIP3   OH2 2261   1.926   0.607   1.786 -0.0207 -0.6017 -0.2321
  767TIP3    H1 2262   1.927   0.678   1.850  0.9696 -0.4169 -0.4418
  767TIP3    H2 2263   1.881   0.644   1.710  0.2755 -0.2728 -0.2495
  768TIP3   OH2 2264   3.295   5.304   0.328 -0.7921 -0.2255  0.2674
  768TIP3    H1 2265   3.234   5.232   0.341  0.5372 -1.6618 -1.1363
  768TIP3    H2 2266   3.370   5.283   0.384 -1.5679  1.5486  2.0248
  769TIP3   OH2 2267   1.679   2.349   2.102  0.1657 -0.2161 -0.3838
  769TIP3    H1 2268   1.683   2.349   2.198  0.5545 -0.8291 -0.3984
  769TIP3    H2 2269   1.620   2.277   2.080 -0.9513  0.7403 -0.5729
  770TIP3   OH2 2270   1.229   2.553   2.329  0.2127  0.2472  0.1765
  770TIP3    H1 2271   1.186   2.558   2.414 -0.3800  1.1742 -0.1711
  770TIP3    H2 2272   1.232   2.460   2.309  0.6118  0.0074  1.3406
  771TIP3   OH2 2273   2.326   2.146   1.896  0.3616  0.0452 -0.4667
  771TIP3    H1 2274   2.293   2.216   1.840 -0.5418 -1.5708 -2.0248
  771TIP3    H2 2275   2.412   2.176   1.925 -0.4857  2.2848 -0.1684
  772TIP3   OH2 2276   6.988   4.258   2.187 -0.1827 -0.2273  0.1219
  772TIP3    H1 2277   7.019   4.258   2.097 -1.9880 -1.2270 -0.5263
  772TIP3    H2 2278   7.065   4.236   2.239  0.6309 -0.7379 -1.2781
  773TIP3   OH2 2279   0.186   2.274   1.727  0.6517 -0.3657  0.1440
  773TIP3    H1 2280   0.138   2.264   1.645 -0.1953 -0.0395  0.6019
  773TIP3    H2 2281   0.144   2.348   1.771  0.6964 -0.9464  1.1689
  774TIP3   OH2 2282   1.668   3.612   0.975 -0.1365  0.4343  0.1162
  774TIP3    H1 2283   1.690   3.576   1.062  2.3109  0.0497 -0.6131
  774TIP3    H2 2284   1.686   3.540   0.915 -1.2451  0.9008 -0.7777
  775TIP3   OH2 2285   5.193   2.267   3.013  0.2817  0.1193  0.6113
  775TIP3    H1 2286   5.176   2.174   3.023  1.6207  0.0753  2.7276
  775TIP3    H2 2287   5.272   2.272   2.960  0.3543  0.0250  0.7085
  776TIP3   OH2 2288   0.821   3.316   0.279 -0.1203 -0.4969 -0.4835
  776TIP3    H1 2289   0.882   3.348   0.212  5.3117  0.2033  4.3958
  776TIP3    H2 2290   0.848   3.225   0.292 -1.7017 -0.8733  0.1651
  777TIP3   OH2 2291   1.869   1.952   2.225  0.2929  0.5010 -0.4391
  777TIP3    H1 2292   1.913   1.915   2.301  0.4788 -4.0905 -2.6038
  777TIP3    H2 2293   1.941   1.984   2.169  0.4669 -0.3462 -0.7114
  778TIP3   OH2 2294   2.541   0.943   3.411 -0.4252 -0.2304 -0.0252
  778TIP3    H1 2295   2.453   0.964   3.440 -0.8212 -0.6394 -0.9149
  778TIP3    H2 2296   2.579   1.027   3.384 -0.4473 -0.0202  0.5745
  779TIP3   OH2 2297   0.701   0.847   4.820  0.3229 -0.5009 -0.1466
  779TIP3    H1 2298   0.620   0.796   4.825  0.4404 -0.5884  1.0382
  779TIP3    H2 2299   0.732   0.833   4.731 -0.6637 -0.9314 -0.4357
  780TIP3   OH2 2300   0.382   0.325   5.971 -0.3132 -0.2048 -0.0584
  780TIP3    H1 2301   0.389   0.419   5.956  1.5281 -0.2465  0.4969
  780TIP3    H2 2302   0.376   0.317   6.066  0.6819 -0.7153 -0.0359
  781TIP3   OH2 2303   3.444   3.540   1.078  0.4008 -0.5579 -0.0317
  781TIP3    H1 2304   3.367   3.502   1.120  1.0256 -0.6188  1.0986
  781TIP3    H2 2305   3.513   3.535   1.145  0.7747  1.6078 -0.2093
  782TIP3   OH2 2306   1.416   2.333   1.446  0.1754 -0.6325 -0.0270
  782TIP3    H1 2307   1.498   2.360   1.405  0.1956  0.5846  0.7650
  782TIP3    H2 2308   1.438   2.321   1.539 -0.7356  0.6802  0.3741
  783TIP3   OH2 2309   3.066   6.109   5.154  0.3068 -0.0535 -0.6089
  783TIP3    H1 2310   3.077   6.171   5.082 -3.3193  0.6121 -0.7260
  783TIP3    H2 2311   3.091   6.159   5.232 -1.3143  1.1683 -0.8431
  784TIP3   OH2 2312   3.388   5.051   1.684  0.4983  0.0768  0.1762
  784TIP3    H1 2313   3.386   5.134   1.637 -4.2160  0.9684  1.7306
  784TIP3    H2 2314   3.447   5.066   1.758 -1.6138  2.6353  1.3907
  785TIP3   OH2 2315   1.435   2.553   1.639 -0.1863 -0.1477 -0.2746
  785TIP3    H1 2316   1.342   2.562   1.656 -0.3608 -2.0148 -0.1415
  785TIP3    H2 2317   1.469   2.505   1.715  0.8820  0.5088 -0.3231
  786TIP3   OH2 2318   0.954   1.567   3.061  0.1610  0.4036  0.5052
  786TIP3    H1 2319   0.885   1.521   3.108  0.5076 -0.7046 -0.0520
  786TIP3    H2 2320   0.950   1.657   3.094 -0.9935  0.1497  1.0819
  787TIP3   OH2 2321   2.608   3.048   1.180 -0.2608 -0.0734 -0.2362
  787TIP3    H1 2322   2.676   3.021   1.118 -0.0303  0.8307 -0.3819
  787TIP3    H2 2323   2.557   2.969   1.196  0.7317 -0.7230 -0.2539
  788TIP3   OH2 2324   0.114   2.815   1.756  0.5248  0.1935  0.4700
  788TIP3    H1 2325   0.039   2.785   1.704  0.7231 -0.7904  0.7323
  788TIP3    H2 2326   0.075   2.857   1.832  0.2323 -0.8212  0.8882
  789TIP3   OH2 2327   2.408   5.971   1.024 -0.6142  0.0096  0.2749
  789TIP3    H1 2328   2.436   6.053   0.984  0.6543 -0.0760  0.9627
  789TIP3    H2 2329   2.377   5.996   1.111 -1.6961 -0.0448 -0.0843
  790TIP3   OH2 2330   1.756   4.916   1.133  0.3854  0.4986  0.0864
  790TIP3    H1 2331   1.697   4.909   1.059  1.8025  0.2687 -1.0366
  790TIP3    H2 2332   1.841   4.888   1.099  0.4650 -2.5481  2.5419
  791TIP3   OH2 2333   4.087   5.053   6.112 -0.7198 -0.4346  0.0383
  791TIP3    H1 2334   4.032   5.079   6.038 -2.4287 -0.2537  1.3393
  791TIP3    H2 2335   4.075   5.123   6.176 -0.1882 -1.1842  0.9650
  792TIP3   OH2 2336   2.740   4.589   1.072 -0.0263  0.3213  0.0530
  792TIP3    H1 2337   2.693   4.642   1.136 -0.1291  0.3799 -0.0711
  792TIP3    H2 2338   2.680   4.580   0.998 -1.4488 -2.9911  1.5001
  793TIP3   OH2 2339   3.027   4.712   1.130  0.2970 -0.3776  0.3805
  793TIP3    H1 2340   2.936   4.698   1.104 -0.3295  1.8136  1.2450
  793TIP3    H2 2341   3.077   4.713   1.048 -0.5142 -1.1313 -0.1258
  794TIP3   OH2 2342   2.261   4.038   0.219  0.6422  0.1981 -0.3100
  794TIP3    H1 2343   2.243   4.119   0.171 -0.0571 -0.0477 -0.4718
  794TIP3    H2 2344   2.277   3.973   0.151 -0.8233 -0.2610 -0.2347
  795TIP3   OH2 2345   2.008   1.944   1.063 -0.2150  0.0220  0.3958
  795TIP3    H1 2346   1.924   1.983   1.038  0.5548  0.4361 -1.5892
  795TIP3    H2 2347   2.070   2.016   1.060  1.0614 -1.1170 -2.5406
  796TIP3   OH2 2348   2.645   4.557   0.649 -0.3158 -0.1884  0.2584
  796TIP3    H1 2349   2.706   4.604   0.592 -0.9760  1.1958  0.6660
  796TIP3    H2 2350   2.680   4.468   0.653  0.7472  0.1568 -0.8401
  797TIP3   OH2 2351   0.496   1.220   2.745 -0.0616 -0.2210  0.2621
  797TIP3    H1 2352   0.502   1.255   2.656  0.2901  0.2926  0.4863
  797TIP3    H2 2353   0.510   1.126   2.734  2.3341  0.1201  0.0164
  798TIP3   OH2 2354   2.027   3.387   2.236  0.1956  0.0370 -0.1361
  798TIP3    H1 2355   2.014   3.461   2.176 -0.1659 -0.1975 -0.3448
  798TIP3    H2 2356   2.099   3.415   2.292 -0.6575  1.0096  0.4994
  799TIP3   OH2 2357   3.231   4.344   1.312  0.9066  0.4105  0.1967
  799TIP3    H1 2358   3.173   4.300   1.250  1.4638 -0.6848  0.4490
  799TIP3    H2 2359   3.174   4.404   1.360  0.2809  0.5016 -0.6536
  800TIP3   OH2 2360   1.343   6.223   2.996 -0.2424 -0.0519  0.4435
  800TIP3    H1 2361   1.268   6.165   2.986  0.2409 -0.4380 -1.2688
  800TIP3    H2 2362   1.418   6.164   3.002 -0.0249  0.3396  1.7709
  801TIP3   OH2 2363   3.850   2.648   0.665 -0.1631 -0.2318  0.0432
  801TIP3    H1 2364   3.933   2.695   0.671 -0.6712  0.5147  1.3998
  801TIP3    H2 2365   3.869   2.561   0.699 -0.4917  0.6800  2.6274
  802TIP3   OH2 2366   2.780   6.536   0.784 -0.1467  0.4864  0.7192
  802TIP3    H1 2367   2.857   6.482   0.768 -0.7043  0.1764 -1.0663
  802TIP3    H2 2368   2.798   6.579   0.868  1.3885 -0.5604  0.9530
  803TIP3   OH2 2369   2.738   4.094   0.018 -0.4713 -0.2503 -0.4245
  803TIP3    H1 2370   2.647   4.123   0.007 -0.7381 -0.4442  1.1506
  803TIP3    H2 2371   2.731   4.002   0.042  0.0021  0.2512  1.8310
  804TIP3   OH2 2372   0.827   3.546   0.053 -0.2989 -0.0677  0.6369
  804TIP3    H1 2373   0.856   3.471   0.002 -0.9518 -0.4478  0.8283
  804TIP3    H2 2374   0.908   3.584   0.088  0.0023 -0.9174  0.8678
  805TIP3   OH2 2375   1.296   3.278   1.349 -0.3468 -0.3286  0.3386
  805TIP3    H1 2376   1.204   3.255   1.342 -0.4967  0.5831 -0.8770
  805TIP3    H2 2377   1.298   3.374   1.344  0.6330 -0.3169  0.7069
  806TIP3   OH2 2378   1.876   4.418   3.515 -0.1636  0.2251 -0.0930
  806TIP3    H1 2379   1.829   4.354   3.462  0.1312 -0.4252  0.4254
  806TIP3    H2 2380   1.809   4.456   3.572 -0.6289  1.4946 -1.4783
  807TIP3   OH2 2381   1.092   1.048   1.644 -0.2285 -0.5697  0.6943
  807TIP3    H1 2382   1.119   0.957   1.661 -1.2678 -0.6448  2.0448
  807TIP3    H2 2383   1.100   1.091   1.728  1.1269  0.8487 -0.1439
  808TIP3   OH2 2384   2.682   4.434   1.375 -0.0127  0.2519 -0.1264
  808TIP3    H1 2385   2.754   4.488   1.342 -0.2103 -0.1941 -1.3186
  808TIP3    H2 2386   2.624   4.423   1.300 -1.3242  0.5895  0.8305
  809TIP3   OH2 2387   3.786   2.660   1.222  0.1408 -0.2869  0.1274
  809TIP3    H1 2388   3.832   2.584   1.186  0.4128 -0.8039  1.5152
  809TIP3    H2 2389   3.705   2.624   1.257  1.4357 -0.4228  3.1421
  810TIP3   OH2 2390   1.827   5.994   3.576  0.0884 -0.4311  0.2832
  810TIP3    H1 2391   1.738   5.996   3.612 -0.0687 -0.2010 -0.1066
  810TIP3    H2 2392   1.884   5.995   3.652 -0.2433 -0.0701  0.5315
  811TIP3   OH2 2393   0.716   5.223   3.250 -0.3128  0.5485 -0.2675
  811TIP3    H1 2394   0.679   5.271   3.324 -1.3621  0.6543 -0.8612
  811TIP3    H2 2395   0.800   5.191   3.283 -1.0909 -0.0283  1.1946
  812TIP3   OH2 2396   0.984   3.279   1.471  0.0657 -0.2062  0.4000
  812TIP3    H1 2397   0.888   3.283   1.471  0.0382 -0.8375  0.2340
  812TIP3    H2 2398   1.011   3.350   1.413 -0.3478 -1.0767 -0.8603
  813TIP3   OH2 2399   2.050   5.783   3.243 -0.0746 -0.1486 -0.1315
  813TIP3    H1 2400   1.960   5.817   3.249  0.5661  1.6624 -0.5158
  813TIP3    H2 2401   2.095   5.822   3.318  0.4634 -0.8331 -0.1006
  814TIP3   OH2 2402   1.942   4.183   0.870 -0.0205 -0.2378 -0.5988
  814TIP3    H1 2403   1.880   4.158   0.939  1.7901  0.5483  1.3825
  814TIP3    H2 2404   1.890   4.234   0.807 -0.8830  2.8568  2.4536
  815TIP3   OH2 2405   1.617   3.461   0.458  0.2687 -0.3417 -0.2385
  815TIP3    H1 2406   1.545   3.488   0.515  1.6722  1.0289  0.9252
  815TIP3    H2 2407   1.620   3.528   0.390 -0.3640 -1.1051 -1.0390
  816TIP3   OH2 2408   1.427   0.908   2.604  0.0759  0.0073 -0.4722
  816TIP3    H1 2409   1.523   0.913   2.611 -0.1527  3.1832  1.2763
  816TIP3    H2 2410   1.408   0.937   2.514  0.7320 -0.0203 -0.6224
  817TIP3   OH2 2411   2.207   5.948   0.178  0.1774 -0.2530 -0.0609
  817TIP3    H1 2412   2.240   5.928   0.090 -0.8820 -0.1584 -0.4831
  817TIP3    H2 2413   2.186   6.041   0.176  0.7712 -0.1073  0.4964
  818TIP3   OH2 2414   2.081   1.612   1.834  0.0353 -0.7145 -0.3355
  818TIP3    H1 2415   2.032   1.543   1.879  0.8082 -0.8211  0.3697
  818TIP3    H2 2416   2.066   1.596   1.741  1.2264 -2.6349 -0.2412
  819TIP3   OH2 2417   3.010   2.549   1.320  0.1371 -0.2766 -0.0838
  819TIP3    H1 2418   2.965   2.487   1.262 -1.7594  0.0514  1.0042
  819TIP3    H2 2419   3.068   2.494   1.374  1.1399 -0.6909 -1.5336
  820TIP3   OH2 2420   7.344   3.381   1.184  0.2431 -0.2081  0.0114
  820TIP3    H1 2421   7.346   3.476   1.187 -1.0540 -0.1413 -0.7227
  820TIP3    H2 2422   7.431   3.356   1.152  0.8585  0.6820  0.9580
  821TIP3   OH2 2423   1.468   2.493   1.936 -0.4470 -0.0094  0.3187
  821TIP3    H1 2424   1.518   2.465   2.014  0.8111 -1.6146 -1.0210
  821TIP3    H2 2425   1.510   2.575   1.909 -0.1176 -0.0733  0.6254
  822TIP3   OH2 2426   1.914   4.241   0.126  0.5194  0.1423 -0.3987
  822TIP3    H1 2427   2.006   4.233   0.152 -0.1058 -1.8384  1.3334
  822TIP3    H2 2428   1.877   4.302   0.190  0.6489  1.1747 -1.2743
  823TIP3   OH2 2429   0.378   3.332   2.968  0.6006  0.2115 -0.2233
  823TIP3    H1 2430   0.367   3.426   2.955  1.2898  0.4088  0.5379
  823TIP3    H2 2431   0.338   3.315   3.053 -0.4564 -0.3717 -0.8311
  824TIP3   OH2 2432   6.521   6.247   5.601  0.5034 -0.3515  0.1752
  824TIP3    H1 2433   6.524   6.201   5.517  0.4082 -0.8646  0.4438
  824TIP3    H2 2434   6.565   6.187   5.662  0.3010 -0.1218  0.5479
  825TIP3   OH2 2435   4.545   3.724   0.388  0.4986 -0.4606  0.3711
  825TIP3    H1 2436   4.477   3.781   0.352  0.2192 -1.1530 -0.2066
  825TIP3    H2 2437   4.612   3.784   0.421 -0.4175  0.2376  1.0109
  826TIP3   OH2 2438   1.218   0.368   0.614 -0.1981 -0.6693 -0.5615
  826TIP3    H1 2439   1.235   0.385   0.706 -0.1898 -1.1014 -0.4832
  826TIP3    H2 2440   1.305   0.370   0.573 -0.0845 -1.6513 -0.3653
  827TIP3   OH2 2441   3.251   4.166   2.526  0.1120  0.1991  0.2855
  827TIP3    H1 2442   3.316   4.224   2.567  0.3728  0.0559  0.0827
  827TIP3    H2 2443   3.292   4.140   2.443 -0.6647  0.9529 -0.3285
  828TIP3   OH2 2444   4.412   5.870   5.192  0.3921  0.0786  0.4655
  828TIP3    H1 2445   4.452   5.807   5.132  0.5701  0.1318  0.5293
  828TIP3    H2 2446   4.399   5.948   5.138  0.9986  0.2903  0.6235
  829TIP3   OH2 2447   0.086   3.086   1.566 -0.2217  0.0805 -0.3821
  829TIP3    H1 2448   0.104   3.015   1.504  0.6469 -0.5948  0.6444
  829TIP3    H2 2449   0.170   3.107   1.604 -0.7498  0.5251  0.5516
  830TIP3   OH2 2450   3.956   5.215   0.426 -0.2537 -0.0727 -0.5238
  830TIP3    H1 2451   3.973   5.289   0.367  2.2772 -0.4009 -0.2675
  830TIP3    H2 2452   3.989   5.139   0.378 -1.5483 -0.8594 -0.1916
  831TIP3   OH2 2453   1.923   1.540   4.042  0.0940  0.2752 -0.5988
  831TIP3    H1 2454   1.981   1.465   4.055  0.0087  0.4089  0.6946
  831TIP3    H2 2455   1.927   1.558   3.948  1.7413 -0.0475 -0.6069
  832TIP3   OH2 2456   1.613   4.849   3.625 -0.2739  0.5614 -0.2773
  832TIP3    H1 2457   1.621   4.853   3.529 -1.5443  1.9136 -0.3358
  832TIP3    H2 2458   1.681   4.786   3.651  1.8409  2.0985 -1.8288
  833TIP3   OH2 2459   3.075   6.765   0.138 -0.0592 -0.0545  0.2775
  833TIP3    H1 2460   3.056   6.859   0.127  1.6788  0.3300  0.3954
  833TIP3    H2 2461   2.996   6.730   0.179 -0.7905  1.3334  0.1033
  834TIP3   OH2 2462   5.073   6.124   5.777  0.3707  0.5265 -0.1587
  834TIP3    H1 2463   5.166   6.114   5.758  0.4911 -0.6292  0.9074
  834TIP3    H2 2464   5.070   6.187   5.849  0.3835  0.1532  0.1745
  835TIP3   OH2 2465   4.265   1.290   1.654  0.3153 -0.3961  0.1470
  835TIP3    H1 2466   4.198   1.254   1.712  0.1389 -0.5600 -0.1616
  835TIP3    H2 2467   4.250   1.247   1.570  2.0374 -1.9469  0.5862
  836TIP3   OH2 2468   5.423   6.199   6.171  0.4041 -0.0712 -0.5311
  836TIP3    H1 2469   5.463   6.278   6.209 -0.1102 -1.7055  3.6270
  836TIP3    H2 2470   5.488   6.168   6.108  3.4298  0.3277  2.2310
  837TIP3   OH2 2471   0.493   4.036   0.280  0.4382  0.6548  0.3283
  837TIP3    H1 2472   0.543   4.011   0.202  1.0155 -1.2216  1.2808
  837TIP3    H2 2473   0.436   4.107   0.250  0.8223  0.1227 -1.7378
  838TIP3   OH2 2474   2.315   5.065   0.389 -0.2210 -0.1258 -0.4583
  838TIP3    H1 2475   2.244   5.128   0.385 -1.6000 -1.6483 -0.3706
  838TIP3    H2 2476   2.279   4.985   0.350  2.6515  0.1520 -3.9927
  839TIP3   OH2 2477   1.101   2.543   2.087 -0.1538 -0.0086  0.0982
  839TIP3    H1 2478   1.162   2.556   2.160  0.1660 -0.9321  0.0004
  839TIP3    H2 2479   1.054   2.463   2.109  0.2757 -0.5514 -0.9413
  840TIP3   OH2 2480   2.259   3.358   0.020  0.3613 -0.2528 -0.3363
  840TIP3    H1 2481   2.350   3.381  -0.001  0.8285 -1.0413  0.7447
  840TIP3    H2 2482   2.260   3.263   0.029 -0.0447 -0.0672  2.0291
  841TIP3   OH2 2483   1.649   4.807   0.462  0.4678  0.1260 -0.2556
  841TIP3    H1 2484   1.656   4.863   0.540 -0.4359 -0.0273 -0.0571
  841TIP3    H2 2485   1.628   4.869   0.391  1.4573  0.2863 -0.4095
  842TIP3   OH2 2486   2.444   2.778   1.299 -0.2367  0.3226  0.2982
  842TIP3    H1 2487   2.480   2.711   1.241 -0.2464 -0.1034  0.7780
  842TIP3    H2 2488   2.359   2.744   1.326 -0.4843  0.7874  0.1003
  843TIP3   OH2 2489   2.294   5.516   1.761  0.4745  0.7630  0.4932
  843TIP3    H1 2490   2.326   5.460   1.691 -1.4985  0.3654 -0.0946
  843TIP3    H2 2491   2.343   5.598   1.750  0.9615  0.3243 -0.6659
  844TIP3   OH2 2492   4.003   2.196   1.841 -0.1224 -0.0522 -0.4086
  844TIP3    H1 2493   4.062   2.232   1.906  0.5952  0.4024 -1.3075
  844TIP3    H2 2494   4.051   2.123   1.801 -0.4116 -0.0907 -0.6980
  845TIP3   OH2 2495   0.875   1.031   5.249 -0.4817  0.0038  0.0128
  845TIP3    H1 2496   0.883   1.085   5.170  0.1456  1.9222  1.3698
  845TIP3    H2 2497   0.816   0.960   5.223  0.4119  0.1071 -2.4422
  846TIP3   OH2 2498   2.900   0.188   3.022 -0.2858  0.3992 -0.2159
  846TIP3    H1 2499   2.928   0.271   3.061  0.7512  0.3533 -0.8562
  846TIP3    H2 2500   2.895   0.206   2.928  0.6241 -0.4641 -0.4302
  847TIP3   OH2 2501   3.821   4.570   6.324  0.9322  0.5543  0.1599
  847TIP3    H1 2502   3.743   4.603   6.279  0.4658 -0.7834 -0.0305
  847TIP3    H2 2503   3.843   4.489   6.277  0.1600 -1.1313  2.6141
  848TIP3   OH2 2504   0.744   4.495   0.664  0.2411  0.6304  0.7330
  848TIP3    H1 2505   0.705   4.430   0.723 -1.3582 -0.1435 -1.1227
  848TIP3    H2 2506   0.837   4.473   0.663  0.0695 -0.1843  1.9259
  849TIP3   OH2 2507   2.193   2.563   0.455  0.5826 -0.2908 -0.2008
  849TIP3    H1 2508   2.251   2.493   0.427 -0.2229 -1.0666  0.0418
  849TIP3    H2 2509   2.107   2.537   0.422  0.4400  1.0484 -0.9252
  850TIP3   OH2 2510   0.304   0.618   2.459 -0.0866 -0.3215 -0.5326
  850TIP3    H1 2511   0.360   0.640   2.533 -0.7271 -1.5008  0.3130
  850TIP3    H2 2512   0.365   0.601   2.387  0.5459  0.4603 -0.1927
  851TIP3   OH2 2513   0.049   2.309   0.685  0.5734 -0.5617  0.3122
  851TIP3    H1 2514   0.068   2.383   0.742  0.5797  0.4847 -1.0239
  851TIP3    H2 2515   0.129   2.257   0.686  1.1557  0.3141 -0.0180
  852TIP3   OH2 2516   1.751   4.997   1.967 -0.0085 -0.0511  0.5975
  852TIP3    H1 2517   1.845   5.014   1.969 -0.0665  0.2591  0.7978
  852TIP3    H2 2518   1.722   5.018   2.056 -0.5615  1.5494  0.0585
  853TIP3   OH2 2519   1.104   4.358   0.280  0.2218 -0.6081 -0.3665
  853TIP3    H1 2520   1.061   4.292   0.335  0.2080 -0.1086  0.2319
  853TIP3    H2 2521   1.195   4.361   0.312  0.0729  0.0824  0.0115
  854TIP3   OH2 2522   1.779   2.077   1.025 -0.6025  0.3224  0.2681
  854TIP3    H1 2523   1.782   2.122   0.941  3.6562 -1.8376 -0.8566
  854TIP3    H2 2524   1.692   2.037   1.027 -1.6460  2.3309 -2.0090
  855TIP3   OH2 2525   1.435   0.966   1.653 -0.5480  0.1840 -0.2333
  855TIP3    H1 2526   1.463   0.953   1.744 -2.3407 -0.7364  0.2066
  855TIP3    H2 2527   1.474   0.893   1.605  1.8605  1.6306 -0.5656
  856TIP3   OH2 2528   1.421   4.477   1.364 -0.3299 -0.3833 -0.0499
  856TIP3    H1 2529   1.385   4.566   1.367  2.1315  0.7606 -2.4969
  856TIP3    H2 2530   1.495   4.479   1.424 -0.0258 -0.6533 -0.4119
  857TIP3   OH2 2531   1.158   3.928   2.158  0.0926 -0.0912  0.1502
  857TIP3    H1 2532   1.085   3.891   2.109  0.0807  2.2687 -1.7068
  857TIP3    H2 2533   1.122   3.950   2.244 -0.7025 -1.2725  0.1240
  858TIP3   OH2 2534   5.617   4.954   6.178  0.0153 -0.1283  0.2900
  858TIP3    H1 2535   5.588   5.034   6.224  1.1257  0.4716 -0.0264
  858TIP3    H2 2536   5.712   4.963   6.173  0.2432 -1.8942  1.0182
  859TIP3   OH2 2537   7.541   0.175   4.819 -0.1747  0.0351 -0.0073
  859TIP3    H1 2538   7.475   0.239   4.792  1.2718  1.4823 -0.1840
  859TIP3    H2 2539   7.522   0.158   4.911 -0.6772  0.5909 -0.0060
  860TIP3   OH2 2540   1.072   2.515   3.572  0.6282  0.5571 -0.0877
  860TIP3    H1 2541   1.090   2.608   3.584  1.8983  0.2319  0.6723
  860TIP3    H2 2542   1.035   2.487   3.656  0.3504  0.3578 -0.2765
  861TIP3   OH2 2543   1.019   4.739   3.355 -0.0741  0.3629  0.1013
  861TIP3    H1 2544   0.932   4.699   3.369  0.1181  0.5080  1.8512
  861TIP3    H2 2545   1.010   4.788   3.273 -1.1559 -0.9730 -0.6090
  862TIP3   OH2 2546   1.781   7.340   1.866 -0.1085  0.8471 -0.3811
  862TIP3    H1 2547   1.872   7.323   1.842  0.0244 -0.1173  0.7403
  862TIP3    H2 2548   1.741   7.373   1.786  0.2223 -2.6640 -2.0899
  863TIP3   OH2 2549   2.568   7.329   6.394 -0.3427 -0.5456 -0.6038
  863TIP3    H1 2550   2.571   7.424   6.396 -3.3090 -0.4429  0.1868
  863TIP3    H2 2551   2.545   7.307   6.303  2.1332 -0.6301 -1.2633
  864TIP3   OH2 2552   0.796   3.720   0.816  0.1333 -0.2307 -0.6383
  864TIP3    H1 2553   0.883   3.693   0.785 -1.2040 -3.6088 -1.7596
  864TIP3    H2 2554   0.738   3.700   0.743 -1.7206  1.2065  0.4000
  865TIP3   OH2 2555   2.296   2.211   0.680  0.1333 -0.1928  0.2013
  865TIP3    H1 2556   2.332   2.296   0.704  0.8839 -0.6181  0.5929
  865TIP3    H2 2557   2.258   2.225   0.593 -1.4693  1.0242  1.0714
  866TIP3   OH2 2558   2.250   6.432   4.903  0.2025  0.0348  0.7297
  866TIP3    H1 2559   2.212   6.515   4.932  3.0714  1.3673  0.8041
  866TIP3    H2 2560   2.181   6.391   4.852 -1.3323  2.3852  0.8478
  867TIP3   OH2 2561   7.290   3.343   2.845 -0.2651  0.0620 -0.3044
  867TIP3    H1 2562   7.304   3.335   2.751 -0.8382 -1.4575 -0.2825
  867TIP3    H2 2563   7.205   3.387   2.853  0.1664  0.9339 -0.4873
  868TIP3   OH2 2564   0.890   3.712   1.405 -0.4899 -0.0306  0.5540
  868TIP3    H1 2565   0.834   3.652   1.454 -0.7015 -0.5812 -0.3566
  868TIP3    H2 2566   0.831   3.753   1.341 -0.0578  0.0975  0.2314
  869TIP3   OH2 2567   2.062   3.731   3.385  0.2062  0.2303 -0.1008
  869TIP3    H1 2568   2.002   3.790   3.431  0.1653 -0.0529  0.2155
  869TIP3    H2 2569   2.052   3.647   3.430  0.2572 -0.0210 -0.5553
  870TIP3   OH2 2570   3.260   5.611   2.355 -0.5801  0.3325  0.0866
  870TIP3    H1 2571   3.345   5.609   2.311 -0.9542  0.9766 -0.6804
  870TIP3    H2 2572   3.281   5.614   2.448  0.2442  1.2492 -0.1207
  871TIP3   OH2 2573   2.878   2.325   1.182 -0.5012  0.4823  0.0360
  871TIP3    H1 2574   2.912   2.237   1.170  0.7170  1.1860 -1.8473
  871TIP3    H2 2575   2.796   2.313   1.230 -0.9033 -1.7526 -1.1617
  872TIP3   OH2 2576   1.668   2.273   1.269  0.0935  0.1710  0.1320
  872TIP3    H1 2577   1.659   2.178   1.270 -1.9656  0.3525  0.5884
  872TIP3    H2 2578   1.637   2.300   1.182  0.0772  0.4946  0.2366
  873TIP3   OH2 2579   2.323   3.112   1.764  0.0091  0.3465  0.0068
  873TIP3    H1 2580   2.336   3.017   1.767 -1.6208  0.0709 -0.8053
  873TIP3    H2 2581   2.404   3.147   1.728  0.4426 -0.7943 -0.1385
  874TIP3   OH2 2582   6.574   6.311   5.963 -0.1183  0.0431  0.6785
  874TIP3    H1 2583   6.539   6.224   5.947  0.4347 -0.2052  0.8348
  874TIP3    H2 2584   6.665   6.307   5.934 -0.3751  0.8542 -0.2836
  875TIP3   OH2 2585   2.151   1.778   0.753 -0.2101 -0.1904 -0.3825
  875TIP3    H1 2586   2.061   1.764   0.780 -0.6268 -0.8301 -2.0582
  875TIP3    H2 2587   2.173   1.700   0.701  1.1545  0.1640 -0.3609
  876TIP3   OH2 2588   1.910   1.486   2.248  0.6354 -0.0467 -0.4566
  876TIP3    H1 2589   1.898   1.564   2.302  0.4401 -0.1832 -0.3024
  876TIP3    H2 2590   1.875   1.414   2.301  1.9584 -0.4248 -0.0790
  877TIP3   OH2 2591   0.626   3.015   1.939  0.4101  0.6060  0.0786
  877TIP3    H1 2592   0.680   3.077   1.890  1.3593 -0.4906 -0.2909
  877TIP3    H2 2593   0.690   2.954   1.978 -0.5659 -0.8519 -0.5597
  878TIP3   OH2 2594   1.419   4.613   2.013 -0.2587 -0.2448  0.1664
  878TIP3    H1 2595   1.360   4.587   2.083  0.5812  0.3032  1.0861
  878TIP3    H2 2596   1.495   4.650   2.057  0.2870  0.1065 -1.0294
  879TIP3   OH2 2597   2.781   4.154   1.743 -0.3167  0.0306 -0.3025
  879TIP3    H1 2598   2.851   4.217   1.758 -0.6059 -0.0073  1.2998
  879TIP3    H2 2599   2.752   4.171   1.654  0.5813  1.1955 -0.3826
  880TIP3   OH2 2600   0.164   3.420   3.474  0.0142  0.1271  0.5196
  880TIP3    H1 2601   0.119   3.489   3.523  0.0813 -0.8441  1.9843
  880TIP3    H2 2602   0.097   3.385   3.416 -0.2461  0.8729  0.3618
  881TIP3   OH2 2603   1.956   1.056   0.565  0.0511 -0.0291  0.0506
  881TIP3    H1 2604   2.050   1.065   0.580 -0.1792 -0.6604  2.1038
  881TIP3    H2 2605   1.940   0.962   0.576 -0.8071  0.0645 -0.3984
  882TIP3   OH2 2606   3.524   4.470   2.962  0.2924  0.7285 -0.1836
  882TIP3    H1 2607   3.543   4.462   3.055 -0.8356  0.6435  0.0393
  882TIP3    H2 2608   3.522   4.564   2.946  2.2675  0.7519 -0.5060
  883TIP3   OH2 2609   7.679   1.798   3.148 -0.0230 -0.1473  0.6226
  883TIP3    H1 2610   7.741   1.728   3.131  0.6112  0.5299  0.1266
  883TIP3    H2 2611   7.618   1.795   3.075 -0.3699 -0.5830  0.9266
  884TIP3   OH2 2612   1.685   2.735   1.886  0.2822 -0.2170  0.0040
  884TIP3    H1 2613   1.770   2.714   1.925  0.9292  2.1449 -0.0209
  884TIP3    H2 2614   1.704   2.747   1.792 -0.1102  0.1040 -0.0353
  885TIP3   OH2 2615   0.911   1.793   3.182  0.0248  0.5685 -0.6135
  885TIP3    H1 2616   0.873   1.875   3.153 -0.0169  1.3236  1.5251
  885TIP3    H2 2617   0.915   1.800   3.277 -2.1978 -2.8639 -0.1743
  886TIP3   OH2 2618   7.409   5.623   2.478 -0.3840 -0.4380  0.0428
  886TIP3    H1 2619   7.337   5.560   2.474 -1.1442  0.4049  0.2851
  886TIP3    H2 2620   7.388   5.678   2.554 -0.1099  0.5502 -0.5953
  887TIP3   OH2 2621   3.772   0.194   2.917  0.1231 -0.1371  0.4294
  887TIP3    H1 2622   3.760   0.261   2.850 -2.1409 -0.9422  0.0008
  887TIP3    H2 2623   3.845   0.141   2.884 -0.2628  0.1173 -0.8716
  888TIP3   OH2 2624   1.851   0.981   0.832  0.6031 -0.0472 -0.4677
  888TIP3    H1 2625   1.908   0.969   0.908 -1.3087 -1.7391  0.7329
  888TIP3    H2 2626   1.904   1.033   0.771  2.8104 -0.1583  1.2774
  889TIP3   OH2 2627   1.321   4.335   0.686  0.0873 -0.1708  0.3271
  889TIP3    H1 2628   1.380   4.405   0.657  0.6189 -0.6069  0.3560
  889TIP3    H2 2629   1.330   4.267   0.620 -0.8651  0.0253 -0.0011
  890TIP3   OH2 2630   1.819   5.077   1.356 -0.2751  0.0874  0.4439
  890TIP3    H1 2631   1.809   5.171   1.345  1.2658  0.1776 -0.2841
  890TIP3    H2 2632   1.755   5.038   1.296 -0.2516  0.6611  0.0455
  891TIP3   OH2 2633   2.400   3.941   0.601  0.1923  0.3779 -0.3071
  891TIP3    H1 2634   2.311   3.949   0.567 -0.0970  0.2396  0.4047
  891TIP3    H2 2635   2.447   4.014   0.562 -0.2455  0.4840 -0.6441
  892TIP3   OH2 2636   0.104   0.461   5.955 -0.1852  0.2706 -0.1622
  892TIP3    H1 2637   0.183   0.508   5.980 -0.3301  0.1369  0.5675
  892TIP3    H2 2638   0.112   0.376   5.998 -0.6888  0.2295 -0.1422
  893TIP3   OH2 2639   3.385   0.469   1.145 -0.0187  0.1753  0.2619
  893TIP3    H1 2640   3.310   0.427   1.105  0.0344 -1.5457  1.8941
  893TIP3    H2 2641   3.460   0.440   1.093 -0.1921 -0.2491  0.2483
  894TIP3   OH2 2642   4.449   7.300   3.464  0.5430  0.4346 -0.1456
  894TIP3    H1 2643   4.403   7.384   3.472  2.8388  1.7254 -0.1574
  894TIP3    H2 2644   4.449   7.265   3.554 -1.7556 -0.3069 -0.4119
  895TIP3   OH2 2645   2.937   3.070   0.462  0.5619  0.1971 -0.2081
  895TIP3    H1 2646   2.986   3.149   0.484 -1.3600  1.4910 -0.4218
  895TIP3    H2 2647   2.938   3.066   0.366  0.2373  0.2310 -0.2136
  896TIP3   OH2 2648   2.305   3.036   0.023 -0.2029 -0.3332 -0.2290
  896TIP3    H1 2649   2.274   2.974   0.089 -0.5040 -0.6533 -0.6672
  896TIP3    H2 2650   2.378   2.990  -0.019  0.4801  0.1772  0.3965
  897TIP3   OH2 2651   2.593   6.217   1.134 -1.1323 -0.0898 -0.5606
  897TIP3    H1 2652   2.644   6.138   1.150  1.2792  1.6304  0.5415
  897TIP3    H2 2653   2.569   6.212   1.041  2.7382 -0.0439 -1.6349
  898TIP3   OH2 2654   7.281   2.367   5.925 -0.0061 -0.0166  0.2456
  898TIP3    H1 2655   7.260   2.442   5.980  0.4547  1.2127 -1.1986
  898TIP3    H2 2656   7.197   2.324   5.909 -0.2668  0.1763  1.0940
  899TIP3   OH2 2657   7.574   3.235   1.094  0.3998  0.2565 -0.0960
  899TIP3    H1 2658   7.618   3.255   1.176  0.2215 -1.1645  0.3652
  899TIP3    H2 2659   7.531   3.151   1.110  1.7402 -0.8715 -2.1761
  900TIP3   OH2 2660   1.507   3.902   0.539 -0.3156 -0.6387 -0.5875
  900TIP3    H1 2661   1.451   3.835   0.499 -0.9676  0.2225 -1.1417
  900TIP3    H2 2662   1.572   3.922   0.471  1.0994 -2.1128  0.2918
  901TIP3   OH2 2663   0.827   1.929   1.350  0.4555 -0.6276  0.1412
  901TIP3    H1 2664   0.772   1.883   1.286 -0.3808 -0.4784  0.7370
  901TIP3    H2 2665   0.800   1.893   1.434  0.7256  0.0175  0.5071
  902TIP3   OH2 2666   5.364   6.945   6.371  0.0361 -0.7581 -0.2307
  902TIP3    H1 2667   5.312   6.867   6.388 -0.4927 -0.8444 -2.1602
  902TIP3    H2 2668   5.431   6.916   6.310 -0.1343  0.2838 -0.9152
  903TIP3   OH2 2669   3.565   1.986   2.731 -0.3180 -0.0315 -0.0964
  903TIP3    H1 2670   3.519   2.013   2.651  1.1591  0.5900 -0.7489
  903TIP3    H2 2671   3.625   1.917   2.702 -0.2812 -0.3068  0.6179
  904TIP3   OH2 2672   6.948   1.168   5.973  0.1939  0.3131 -0.6034
  904TIP3    H1 2673   7.003   1.223   6.029  1.2882  0.2420 -1.5982
  904TIP3    H2 2674   6.946   1.083   6.017  1.2799  0.1755 -0.8306
  905TIP3   OH2 2675   1.130   2.012   2.211  0.3769  0.0684 -0.0839
  905TIP3    H1 2676   1.171   2.031   2.127 -0.1037  2.8534  0.2365
  905TIP3    H2 2677   1.204   1.996   2.270  0.8447  0.6625 -0.4922
  906TIP3   OH2 2678   2.323   3.624   1.738  0.6126  0.1645  0.1784
  906TIP3    H1 2679   2.276   3.646   1.658  0.2622 -0.3272  0.2448
  906TIP3    H2 2680   2.257   3.631   1.807  1.0983  1.3425  0.5299
  907TIP3   OH2 2681   3.981   5.484   0.299 -0.4694  0.1153  0.2944
  907TIP3    H1 2682   3.959   5.499   0.391  0.6210  1.1482  0.4046
  907TIP3    H2 2683   3.929   5.549   0.251  0.4691  0.9269  0.3575
  908TIP3   OH2 2684   4.000   0.069   2.825 -0.2036 -0.9239 -0.4233
  908TIP3    H1 2685   4.066   0.045   2.759  0.2045 -1.6412  0.2392
  908TIP3    H2 2686   4.041   0.047   2.909 -0.3163  0.9123  0.1425
  909TIP3   OH2 2687   2.820   0.478   0.469 -0.4227  0.2566  0.3144
  909TIP3    H1 2688   2.765   0.400   0.477  0.9539 -0.4918  2.7580
  909TIP3    H2 2689   2.812   0.523   0.553  1.9920  0.5816  0.4094
  910TIP3   OH2 2690   4.863   0.980   1.692 -0.1376  0.2497 -0.1364
  910TIP3    H1 2691   4.898   1.051   1.746 -0.2585  0.6698 -0.5990
  910TIP3    H2 2692   4.813   0.926   1.752  0.0262  0.5153  0.2390
  911TIP3   OH2 2693   1.127   2.290   2.265 -0.0871  0.3880 -0.4801
  911TIP3    H1 2694   1.069   2.221   2.298 -0.1280  0.8308  0.3688
  911TIP3    H2 2695   1.201   2.242   2.226 -0.7854 -0.1658 -1.1503
  912TIP3   OH2 2696   1.616   0.609   1.871 -0.4973 -0.4914  0.8423
  912TIP3    H1 2697   1.597   0.658   1.951  1.9225  0.7942  0.6433
  912TIP3    H2 2698   1.570   0.657   1.802  1.5969  1.3635  0.6971
  913TIP3   OH2 2699   3.727   2.511   0.938 -0.3158  0.8109  0.5787
  913TIP3    H1 2700   3.686   2.431   0.970 -1.1772  0.3790 -1.5561
  913TIP3    H2 2701   3.655   2.571   0.922  0.0215  0.8285 -1.0151
  914TIP3   OH2 2702   5.431   4.927   5.479 -0.2173 -0.2605  0.5031
  914TIP3    H1 2703   5.364   4.994   5.472  0.0540  0.0305  0.6608
  914TIP3    H2 2704   5.414   4.868   5.406 -0.2772  0.1454  0.1840
  915TIP3   OH2 2705   2.315   5.676   2.155 -0.7469  0.0312 -0.1203
  915TIP3    H1 2706   2.400   5.682   2.198 -0.3211  1.4076 -1.0852
  915TIP3    H2 2707   2.264   5.747   2.194 -0.7412  0.5449 -1.0221
  916TIP3   OH2 2708   0.895   2.080   2.858 -0.2001  0.3597 -0.4234
  916TIP3    H1 2709   0.857   2.066   2.771  2.6218  1.3171 -1.8558
  916TIP3    H2 2710   0.990   2.082   2.843  0.3452  0.3829  2.7099
  917TIP3   OH2 2711   1.960   3.991   1.500  0.2210 -0.1713  0.0433
  917TIP3    H1 2712   1.920   3.985   1.414 -1.4348  1.1515  0.7000
  917TIP3    H2 2713   2.039   4.044   1.487 -0.8448  1.3223 -0.3899
  918TIP3   OH2 2714   0.094   0.985   5.271 -0.0145  0.3987 -0.0592
  918TIP3    H1 2715   0.131   0.925   5.335  0.1374  2.2430  1.6224
  918TIP3    H2 2716   0.164   1.050   5.256 -0.5141  0.6993 -1.1246
  919TIP3   OH2 2717   2.759   5.491   1.877 -0.1839  0.5159  0.1335
  919TIP3    H1 2718   2.673   5.511   1.915 -0.6315  0.4753 -0.8396
  919TIP3    H2 2719   2.744   5.492   1.782  0.2960 -2.0854 -0.0204
  920TIP3   OH2 2720   6.067   2.460   5.917  0.5389 -0.4038  0.1406
  920TIP3    H1 2721   6.132   2.505   5.971  1.7754 -1.8902 -0.0707
  920TIP3    H2 2722   6.087   2.486   5.827  1.0812 -1.1452  0.0426
  921TIP3   OH2 2723   5.755   1.594   0.403  0.4089 -0.3903  0.4190
  921TIP3    H1 2724   5.818   1.533   0.441  0.4150 -1.0200 -0.5798
  921TIP3    H2 2725   5.714   1.544   0.332 -0.4983  0.3466  0.4229
  922TIP3   OH2 2726   0.935   2.850   0.935 -0.0420 -0.1255  0.4615
  922TIP3    H1 2727   0.971   2.939   0.932  1.4928 -0.7414 -0.0461
  922TIP3    H2 2728   0.867   2.854   1.001 -0.4239  1.5918 -0.0036
  923TIP3   OH2 2729   2.636   3.834   0.003  0.0911 -0.5515 -0.0616
  923TIP3    H1 2730   2.568   3.864   0.062  1.1212  0.5075  0.6062
  923TIP3    H2 2731   2.667   3.752   0.042 -0.9476 -1.1669 -0.5011
  924TIP3   OH2 2732   2.746   5.932   0.384 -0.3562 -0.8140  0.2681
  924TIP3    H1 2733   2.652   5.918   0.377 -0.8857  1.9832  0.8850
  924TIP3    H2 2734   2.785   5.845   0.374 -2.9977 -2.0242  0.1387
  925TIP3   OH2 2735   1.701   6.187   1.256 -0.0511 -0.6271  0.3931
  925TIP3    H1 2736   1.620   6.225   1.289 -0.6705  1.1961 -2.9635
  925TIP3    H2 2737   1.764   6.199   1.327 -1.8242  1.1555  1.7292
  926TIP3   OH2 2738   2.450   4.229   0.597  0.1088  0.0380  0.1303
  926TIP3    H1 2739   2.406   4.307   0.633  0.0943  0.6983 -1.2940
  926TIP3    H2 2740   2.477   4.255   0.509  0.5281 -1.4280 -0.1872
  927TIP3   OH2 2741   1.873   3.772   2.866 -0.1786  0.4961 -0.1268
  927TIP3    H1 2742   1.870   3.712   2.940 -0.2759  1.2697  0.5095
  927TIP3    H2 2743   1.784   3.775   2.833 -0.2081  0.4280 -0.0531
  928TIP3   OH2 2744   1.153   3.918   0.718 -0.1343 -0.1246 -0.1535
  928TIP3    H1 2745   1.098   3.842   0.739  0.5690 -1.0335 -1.5312
  928TIP3    H2 2746   1.151   3.924   0.623  0.2573  1.2716 -0.0874
  929TIP3   OH2 2747   1.282   4.365   0.972  0.5194 -0.5077  0.3825
  929TIP3    H1 2748   1.329   4.385   0.891  0.0717  0.5009  0.3641
  929TIP3    H2 2749   1.227   4.442   0.987 -1.0286 -1.6137  0.4788
  930TIP3   OH2 2750   1.363   2.496   0.027 -0.0854  0.4358 -0.5094
  930TIP3    H1 2751   1.433   2.533   0.080 -0.6801 -0.0471  0.6280
  930TIP3    H2 2752   1.395   2.409   0.002 -0.5826 -0.0961  0.6571
  931TIP3   OH2 2753   2.194   3.586   1.106 -0.1056  0.1745  0.3624
  931TIP3    H1 2754   2.286   3.562   1.118  0.5053  2.7759  1.3183
  931TIP3    H2 2755   2.197   3.668   1.057 -1.6953  2.3522  3.6964
  932TIP3   OH2 2756   4.914   4.866   6.358  0.8539  0.3844 -0.5059
  932TIP3    H1 2757   4.825   4.881   6.326  0.8885  1.9725  0.1071
  932TIP3    H2 2758   4.920   4.771   6.368 -1.1811  0.3549  0.6477
  933TIP3   OH2 2759   7.652   2.441   1.438 -0.1702 -0.0778 -0.2406
  933TIP3    H1 2760   7.622   2.531   1.425 -1.6419 -0.6837 -1.1882
  933TIP3    H2 2761   7.614   2.392   1.365 -0.6167 -1.7497  1.0697
  934TIP3   OH2 2762   5.184   6.620   5.853 -0.7118 -0.4064  0.6207
  934TIP3    H1 2763   5.274   6.599   5.828 -0.3781  1.2784  0.3240
  934TIP3    H2 2764   5.179   6.597   5.946 -0.0086 -0.5855  0.6190
  935TIP3   OH2 2765   4.500   5.587   5.330  0.6606  0.0564 -0.0857
  935TIP3    H1 2766   4.544   5.505   5.351  1.6205  0.4951 -0.4018
  935TIP3    H2 2767   4.483   5.582   5.236  0.8718  0.2983 -0.1360
  936TIP3   OH2 2768   2.502   4.410   1.179  0.1900 -0.6194  0.0144
  936TIP3    H1 2769   2.511   4.440   1.089  0.1687  0.1928  0.2790
  936TIP3    H2 2770   2.410   4.427   1.201 -0.0216 -1.6090 -0.0921
  937TIP3   OH2 2771   0.934   3.016   0.372 -0.6047 -0.1191  0.2240
  937TIP3    H1 2772   0.999   2.947   0.361 -0.5848 -0.2019  0.8179
  937TIP3    H2 2773   0.925   3.025   0.467 -1.7801 -0.4173  0.1495
  938TIP3   OH2 2774   3.110   4.719   0.357  0.3619 -0.2132  0.3529
  938TIP3    H1 2775   3.072   4.772   0.427 -0.5526 -0.8138  0.3203
  938TIP3    H2 2776   3.085   4.764   0.276  1.8837  0.7841  0.4215
  939TIP3   OH2 2777   1.515   1.498   5.285 -0.3684 -0.0029  0.4716
  939TIP3    H1 2778   1.468   1.489   5.202  0.4664  0.2087 -0.0234
  939TIP3    H2 2779   1.488   1.421   5.336  0.4868 -1.0923 -0.6689
  940TIP3   OH2 2780   3.550   1.519   1.005 -0.4319 -0.3265 -0.0508
  940TIP3    H1 2781   3.553   1.606   1.045  0.9759 -0.5204  0.2856
  940TIP3    H2 2782   3.456   1.500   0.998 -0.7635 -0.0464  2.6920
  941TIP3   OH2 2783   3.046   2.372   0.413 -1.2120 -0.1792  0.4746
  941TIP3    H1 2784   3.121   2.358   0.356 -0.6482  0.3678  1.0683
  941TIP3    H2 2785   3.035   2.289   0.459 -1.9806 -0.7826 -0.7837
  942TIP3   OH2 2786   6.731   0.784   5.754 -0.0831  0.4789 -0.0445
  942TIP3    H1 2787   6.687   0.730   5.820 -1.4679 -0.0887 -1.4061
  942TIP3    H2 2788   6.671   0.856   5.736 -1.1372 -1.0091 -2.8762
  943TIP3   OH2 2789   2.492   2.449   0.785 -0.4680  0.2822  0.2124
  943TIP3    H1 2790   2.520   2.368   0.829  0.7042 -0.0290 -1.0661
  943TIP3    H2 2791   2.571   2.480   0.740 -1.2453  1.4374 -0.3814
  944TIP3   OH2 2792   3.702   3.892   0.313 -0.1288 -0.0174  0.4731
  944TIP3    H1 2793   3.720   3.843   0.393  1.1619 -0.0263  0.1972
  944TIP3    H2 2794   3.783   3.942   0.298 -0.5640  0.3837 -0.5326
  945TIP3   OH2 2795   2.937   4.432   0.548  0.6040  0.1271  0.2077
  945TIP3    H1 2796   2.862   4.373   0.555 -0.2178  1.1163 -0.0970
  945TIP3    H2 2797   2.990   4.414   0.626 -0.2352 -0.1892  0.7043
  946TIP3   OH2 2798   1.489   3.276   0.733 -0.2085  0.2787  0.0017
  946TIP3    H1 2799   1.451   3.249   0.817 -0.3362 -0.4207 -0.2833
  946TIP3    H2 2800   1.501   3.195   0.684 -0.2875  0.7008 -0.7274
  947TIP3   OH2 2801   4.605   4.340   1.153 -0.0932  0.5187 -0.4177
  947TIP3    H1 2802   4.603   4.432   1.125  0.5887  0.4508 -0.6835
  947TIP3    H2 2803   4.551   4.294   1.088  0.0651  0.6331 -0.6297
  948TIP3   OH2 2804   3.233   1.764   0.694 -0.1496  0.1223 -0.0236
  948TIP3    H1 2805   3.254   1.855   0.673  0.8352 -0.2270 -0.5683
  948TIP3    H2 2806   3.314   1.728   0.731 -0.2611 -0.7902 -0.6593
  949TIP3   OH2 2807   2.943   3.083   0.202 -0.4608 -0.0079  0.0026
  949TIP3    H1 2808   2.936   3.160   0.145  2.0483 -0.2578 -0.7322
  949TIP3    H2 2809   2.912   3.010   0.148  1.8187 -0.2289 -1.0668
  950TIP3   OH2 2810   5.511   1.958   2.002 -0.0122  0.3610 -0.1752
  950TIP3    H1 2811   5.429   1.923   1.967  0.8096 -1.9676  0.1584
  950TIP3    H2 2812   5.504   1.945   2.096  1.0296 -0.5091 -0.2101
  951TIP3   OH2 2813   2.297   1.731   6.059  0.0212 -0.4106 -0.4386
  951TIP3    H1 2814   2.325   1.822   6.064 -1.5570  0.0357  0.8511
  951TIP3    H2 2815   2.377   1.682   6.040  0.7315  1.3226 -2.1292
  952TIP3   OH2 2816   1.867   2.540   0.702 -0.4418  0.9254 -0.5115
  952TIP3    H1 2817   1.867   2.624   0.656 -1.4582  0.6007 -1.1301
  952TIP3    H2 2818   1.841   2.477   0.635  0.7362  0.0518 -0.1588
  953TIP3   OH2 2819   5.583   5.044   5.686 -0.3381  0.0350 -0.2206
  953TIP3    H1 2820   5.550   4.978   5.625  1.8047 -0.7672 -0.5718
  953TIP3    H2 2821   5.505   5.087   5.720 -1.7817 -2.5825 -0.0811
  954TIP3   OH2 2822   0.660   4.691   0.428 -0.3602  0.0889 -0.0906
  954TIP3    H1 2823   0.574   4.711   0.464  0.0772 -0.3071  1.1688
  954TIP3    H2 2824   0.642   4.638   0.350 -1.2552  0.1706  0.0579
  955TIP3   OH2 2825   3.760   6.240   6.228 -0.4987  0.0069 -0.6788
  955TIP3    H1 2826   3.689   6.199   6.277 -0.8453  1.1543 -0.2034
  955TIP3    H2 2827   3.833   6.244   6.291 -0.4197 -0.0156 -0.7679
  956TIP3   OH2 2828   5.385   1.860   0.466  0.5381 -0.1908  0.1183
  956TIP3    H1 2829   5.433   1.851   0.549 -0.8264 -1.1035  0.8310
  956TIP3    H2 2830   5.453   1.863   0.400  1.7015  1.6333  1.3536
  957TIP3   OH2 2831   2.956   4.006   0.263  0.1839 -0.4794  0.1322
  957TIP3    H1 2832   3.017   3.949   0.216  0.5339 -0.2255  0.2751
  957TIP3    H2 2833   2.878   3.952   0.277 -0.2970 -0.2624 -1.5932
  958TIP3   OH2 2834   4.576   7.314   6.215 -0.0872  0.5427  0.2224
  958TIP3    H1 2835   4.641   7.272   6.159 -0.1431 -0.9796  1.2561
  958TIP3    H2 2836   4.503   7.335   6.157  0.1588 -0.3388 -0.4147
  959TIP3   OH2 2837   2.657   3.647   0.877  0.3273 -0.3459 -0.3477
  959TIP3    H1 2838   2.608   3.631   0.797 -0.0159  1.5750 -0.5389
  959TIP3    H2 2839   2.686   3.738   0.870  3.2875 -1.2105  0.1119
  960TIP3   OH2 2840   3.519   2.597   1.223  0.1734  0.4783  0.0449
  960TIP3    H1 2841   3.443   2.618   1.169 -0.3780  0.1344  0.6687
  960TIP3    H2 2842   3.488   2.609   1.313  0.5051 -0.7943  0.3458
  961TIP3   OH2 2843   3.806   4.393   1.515 -0.3450 -0.2562  0.0214
  961TIP3    H1 2844   3.741   4.416   1.581 -1.1794 -1.1412 -0.4892
  961TIP3    H2 2845   3.890   4.402   1.561 -0.7563  1.7402  0.4223
  962TIP3   OH2 2846   4.404   4.316   0.773  0.5409  0.1315 -0.0831
  962TIP3    H1 2847   4.370   4.395   0.813  1.0075 -0.6165  1.8252
  962TIP3    H2 2848   4.357   4.309   0.690 -1.9888  0.5762  1.2701
  963TIP3   OH2 2849   4.838   5.761   5.961 -0.0423  0.5136 -0.4085
  963TIP3    H1 2850   4.867   5.690   5.903  0.4614  0.4642 -0.0986
  963TIP3    H2 2851   4.743   5.748   5.969  0.0376 -0.0893 -0.4083
  964TIP3   OH2 2852   4.853   4.034   0.618  0.0204 -0.1129 -0.7015
  964TIP3    H1 2853   4.934   4.004   0.661 -1.1905 -1.8826  0.3826
  964TIP3    H2 2854   4.812   3.954   0.585 -1.0420  0.8312 -1.7133
  965TIP3   OH2 2855   4.990   4.264   0.538  0.3100  0.3094  0.7241
  965TIP3    H1 2856   4.927   4.335   0.544  1.5544  1.3434  2.0591
  965TIP3    H2 2857   4.947   4.190   0.581 -0.5641  0.5673  0.3022
  966TIP3   OH2 2858   4.784   4.004   2.023  0.0598  0.3169  0.2519
  966TIP3    H1 2859   4.690   4.024   2.016 -0.1608 -0.2772  1.4060
  966TIP3    H2 2860   4.789   3.936   2.091  1.2565 -0.1857 -0.3393
  967TIP3   OH2 2861   0.952   1.041   4.832 -0.1734 -0.3853 -0.1520
  967TIP3    H1 2862   0.878   0.981   4.829 -1.8133  1.5830 -0.2221
  967TIP3    H2 2863   0.930   1.102   4.903  1.2864  0.3265 -0.2900
  968TIP3   OH2 2864   1.524   0.949   3.641  0.2593 -0.4877  0.1002
  968TIP3    H1 2865   1.603   1.002   3.632  0.0659  0.1661  1.9296
  968TIP3    H2 2866   1.456   0.999   3.596  0.5857 -0.3364 -0.2226
  969TIP3   OH2 2867   3.849   4.251   0.133  0.2638  0.8401 -0.0869
  969TIP3    H1 2868   3.911   4.258   0.061  0.8183 -0.6418  0.2299
  969TIP3    H2 2869   3.801   4.334   0.131  2.1100  1.9478 -0.4636
  970TIP3   OH2 2870   3.121   3.152   1.627 -0.5144 -0.1296 -0.0781
  970TIP3    H1 2871   3.029   3.141   1.648 -0.6051 -2.0520 -1.3313
  970TIP3    H2 2872   3.128   3.123   1.536  1.6925 -2.0897  0.6576
  971TIP3   OH2 2873   6.812   0.892   4.442 -0.0514 -0.2667  0.6741
  971TIP3    H1 2874   6.727   0.849   4.443  0.7960 -2.0122 -1.1224
  971TIP3    H2 2875   6.814   0.941   4.360  0.2853  0.6055  1.1919
  972TIP3   OH2 2876   4.353   5.486   1.029 -0.1629 -0.1345 -0.0856
  972TIP3    H1 2877   4.259   5.499   1.026 -0.2524 -0.8149 -0.3263
  972TIP3    H2 2878   4.381   5.528   1.111 -0.6931 -0.0662  0.0587
  973TIP3   OH2 2879   7.659   7.046   6.322 -0.3132  0.8274  0.1443
  973TIP3    H1 2880   7.743   7.031   6.277  0.3594  0.2389  1.5429
  973TIP3    H2 2881   7.593   7.032   6.254  0.6702 -0.1670 -0.6437
  974TIP3   OH2 2882   3.135   3.080   1.367 -0.1475  0.2432  0.8784
  974TIP3    H1 2883   3.137   2.989   1.337  1.1910  0.3446  0.6338
  974TIP3    H2 2884   3.209   3.122   1.323 -0.6966  1.4364  1.0559
  975TIP3   OH2 2885   2.573   3.615   0.333 -0.5647  0.3476  0.0747
  975TIP3    H1 2886   2.553   3.521   0.331 -0.5854  0.3644 -0.4627
  975TIP3    H2 2887   2.491   3.656   0.361 -1.0151  0.3362 -1.2150
  976TIP3   OH2 2888   7.035   1.256   5.696 -0.1997 -0.2379  0.5574
  976TIP3    H1 2889   7.111   1.205   5.669  1.7949  2.5917  0.5486
  976TIP3    H2 2890   7.003   1.213   5.775  0.5260 -2.2956 -0.2429
  977TIP3   OH2 2891   3.261   5.736   5.851 -0.1586  0.3170  0.6430
  977TIP3    H1 2892   3.326   5.672   5.882 -0.4965 -0.8214 -0.8905
  977TIP3    H2 2893   3.188   5.683   5.821 -0.8436  1.4787  0.2231
  978TIP3   OH2 2894   3.958   2.732   1.532 -0.2634 -0.0258  0.1526
  978TIP3    H1 2895   4.048   2.703   1.547  0.0802  1.6442  1.5509
  978TIP3    H2 2896   3.931   2.686   1.453  1.2116 -1.8757  0.6834
  979TIP3   OH2 2897   3.773   4.368   1.926 -0.4945 -0.3311  0.1238
  979TIP3    H1 2898   3.718   4.338   1.998  0.3280  1.8938  1.7339
  979TIP3    H2 2899   3.711   4.397   1.859 -1.2651 -1.9099  0.1378
  980TIP3   OH2 2900   4.395   7.224   3.941 -0.2699  0.1509  0.3552
  980TIP3    H1 2901   4.466   7.285   3.923 -0.6063  0.7515  1.0584
  980TIP3    H2 2902   4.420   7.181   4.023 -0.1453 -0.4967 -0.0140
  981TIP3   OH2 2903   7.540   0.934   5.378 -0.0264  0.2977 -0.3957
  981TIP3    H1 2904   7.578   0.995   5.315  0.1962 -0.7867 -1.3227
  981TIP3    H2 2905   7.485   0.876   5.326  1.2263 -1.4763  0.1837
  982TIP3   OH2 2906   6.680   1.358   5.452 -0.2894  0.1246  0.3350
  982TIP3    H1 2907   6.709   1.274   5.488 -0.2153  0.3703  0.8441
  982TIP3    H2 2908   6.585   1.349   5.442  0.1942 -1.7337 -3.9850
  983TIP3   OH2 2909   1.275   1.661   6.356  0.2499 -0.3645  0.4640
  983TIP3    H1 2910   1.207   1.716   6.396 -1.1406 -1.3007 -0.5488
  983TIP3    H2 2911   1.319   1.719   6.295 -0.7520 -0.1720 -0.0898
  984TIP3   OH2 2912   3.066   0.489   0.008 -0.1177  0.0730 -0.0775
  984TIP3    H1 2913   2.980   0.464  -0.026 -0.8743 -0.0832  1.8838
  984TIP3    H2 2914   3.048   0.521   0.097  1.8708 -0.1477  0.4214
  985TIP3   OH2 2915   2.861   1.627   0.373 -1.0043 -0.4622  0.5696
  985TIP3    H1 2916   2.938   1.681   0.392 -1.1123 -0.0488 -0.1337
  985TIP3    H2 2917   2.875   1.546   0.423 -0.0827 -0.4100  0.4086
  986TIP3   OH2 2918   2.542   3.434   0.004  0.2054  0.3336 -0.2476
  986TIP3    H1 2919   2.623   3.388  -0.018 -1.6963 -3.0516 -0.4048
  986TIP3    H2 2920   2.541   3.435   0.100  1.5899  2.5937 -0.2170
  987TIP3   OH2 2921   2.276   3.599   0.502  0.0098 -0.3537  0.1600
  987TIP3    H1 2922   2.233   3.671   0.456 -1.4392  0.5735  2.8262
  987TIP3    H2 2923   2.252   3.521   0.452 -1.9434  0.5453 -0.3645
  988TIP3   OH2 2924   3.952   3.652   0.317 -0.0729  0.6389  0.6211
  988TIP3    H1 2925   3.923   3.725   0.372 -4.1644  1.0529 -1.8570
  988TIP3    H2 2926   3.934   3.574   0.368  1.5431  1.2229  2.1169
  989TIP3   OH2 2927   2.404   1.615   4.830 -0.2780 -0.4324 -0.3318
  989TIP3    H1 2928   2.349   1.540   4.850 -0.7569  0.0914  0.3264
  989TIP3    H2 2929   2.472   1.613   4.898 -0.3678 -0.1953 -0.2349
  990TIP3   OH2 2930   5.592   6.270   5.806  0.1427  0.4900  0.1075
  990TIP3    H1 2931   5.557   6.302   5.723 -0.5619  1.3772  0.7416
  990TIP3    H2 2932   5.596   6.175   5.795  0.6084  0.6460 -1.1517
  991TIP3   OH2 2933   7.494   2.469   5.624 -0.5889  0.1437  0.1558
  991TIP3    H1 2934   7.582   2.461   5.587 -1.4168  1.5417 -2.1758
  991TIP3    H2 2935   7.436   2.431   5.558 -1.8517  0.1324  1.2380
  992TIP3   OH2 2936   3.466   1.033   0.471  0.3415  0.1245 -0.2759
  992TIP3    H1 2937   3.445   0.995   0.556 -1.2473  1.0213 -0.2496
  992TIP3    H2 2938   3.383   1.072   0.441  0.7847 -0.4662 -2.3721
  993TIP3   OH2 2939   5.063   4.397   1.286 -0.1498 -0.4473 -0.6241
  993TIP3    H1 2940   4.972   4.384   1.258 -0.1669 -1.5339 -0.1173
  993TIP3    H2 2941   5.072   4.492   1.296 -2.0250 -0.4543  1.8255
  994TIP3   OH2 2942   3.008   3.038   0.821 -0.0373 -0.2845 -0.0739
  994TIP3    H1 2943   2.966   3.123   0.808 -0.2099  0.0368  2.4243
  994TIP3    H2 2944   3.092   3.046   0.777  0.0299  1.2540  0.3118
  995TIP3   OH2 2945   3.156   1.684   1.115 -0.0396 -0.7568 -0.3137
  995TIP3    H1 2946   3.120   1.699   1.028  0.3799  1.7126 -0.0921
  995TIP3    H2 2947   3.240   1.731   1.115 -0.5056  0.1223  1.7313
  996TIP3   OH2 2948   3.539   4.672   1.534 -0.3522 -0.1613  0.3333
  996TIP3    H1 2949   3.615   4.627   1.496  0.3575  1.8064 -0.6685
  996TIP3    H2 2950   3.574   4.717   1.610 -0.4353  1.0194 -0.3192
  997TIP3   OH2 2951   3.087   3.004   2.216  0.3166  0.1027  0.0995
  997TIP3    H1 2952   3.096   3.013   2.121  0.3399 -0.5407  0.0385
  997TIP3    H2 2953   3.174   3.025   2.250  0.4540 -0.2113 -0.0596
  998TIP3   OH2 2954   4.196   0.530   4.537 -0.4938 -0.4436 -0.1052
  998TIP3    H1 2955   4.127   0.548   4.473  0.0195 -1.6779 -1.0113
  998TIP3    H2 2956   4.150   0.486   4.609 -0.8325 -0.3047 -0.2342
  999TIP3   OH2 2957   3.904   3.530   2.774 -0.4268  0.0828 -0.1642
  999TIP3    H1 2958   3.878   3.600   2.714 -0.3976  0.3943  0.1851
  999TIP3    H2 2959   3.830   3.469   2.773 -0.0122 -0.4172 -1.2763
 1000TIP3   OH2 2960   3.446   2.565   0.832 -0.4508  0.3455  0.8134
 1000TIP3    H1 2961   3.403   2.579   0.916 -0.8819 -2.2428  1.0687
 1000TIP3    H2 2962   3.420   2.476   0.806  2.3548 -0.1722 -0.4387
 1001TIP3   OH2 2963   3.084   2.656   0.322 -0.3349 -0.3119  0.6149
 1001TIP3    H1 2964   3.029   2.716   0.373 -0.9391 -1.1928  0.9974
 1001TIP3    H2 2965   3.064   2.569   0.357  1.0212 -0.6803  0.5130
 1002TIP3   OH2 2966   5.249   3.823   2.032  0.7851 -0.1029 -0.5681
 1002TIP3    H1 2967   5.317   3.843   2.096 -1.2131  2.7475  0.8045
 1002TIP3    H2 2968   5.280   3.862   1.950  0.9189  1.0057 -0.0006
 1003TIP3   OH2 2969   6.842   5.676   6.201  0.1624 -0.0357 -0.2719
 1003TIP3    H1 2970   6.916   5.639   6.152  0.8159  1.3766 -0.3893
 1003TIP3    H2 2971   6.883   5.724   6.272 -0.6883  0.0705  0.1505
 1004TIP3   OH2 2972   4.058   4.370   0.641 -0.3485  0.4102  0.0541
 1004TIP3    H1 2973   4.048   4.285   0.684 -0.5238 -0.3088 -1.4005
 1004TIP3    H2 2974   3.981   4.420   0.668 -1.1882 -0.5422 -0.5628
 1005TIP3   OH2 2975   5.696   5.501   4.149  0.2034 -0.3985  0.0879
 1005TIP3    H1 2976   5.744   5.572   4.106 -0.0726  0.5115  1.2445
 1005TIP3    H2 2977   5.747   5.422   4.130  1.2774  0.3198 -0.0480
 1006TIP3   OH2 2978   2.337   3.708   2.146  0.4933  0.3127 -0.2028
 1006TIP3    H1 2979   2.428   3.686   2.165  0.0229 -1.7618 -0.2313
 1006TIP3    H2 2980   2.292   3.699   2.229 -0.1774 -1.4449 -0.7223
 1007TIP3   OH2 2981   4.121   2.189   1.031  0.3248 -0.3015 -0.4802
 1007TIP3    H1 2982   4.181   2.246   0.984  1.4151 -2.8033 -2.2274
 1007TIP3    H2 2983   4.142   2.203   1.123  2.5787 -0.0122 -1.0128
 1008TIP3   OH2 2984   2.155   2.585   0.131 -1.0901  0.1271  0.3244
 1008TIP3    H1 2985   2.119   2.550   0.049  0.4467 -0.0477 -0.2863
 1008TIP3    H2 2986   2.080   2.584   0.191 -1.7642 -1.6549 -0.4785
 1009TIP3   OH2 2987   3.769   3.167   0.210  0.4546 -0.0238 -0.1243
 1009TIP3    H1 2988   3.737   3.113   0.282  0.1061 -0.7846 -0.8449
 1009TIP3    H2 2989   3.799   3.247   0.253 -0.2040 -0.2598  0.8169
 1010TIP3   OH2 2990   2.851   4.323   0.118  0.4692  0.0812 -0.0560
 1010TIP3    H1 2991   2.944   4.321   0.098  0.5854 -0.9359  0.5622
 1010TIP3    H2 2992   2.825   4.231   0.122 -0.3708  0.3398  0.6346
 1011TIP3   OH2 2993   3.585   3.396   0.124  0.3243  0.3823 -0.0729
 1011TIP3    H1 2994   3.610   3.310   0.156 -0.1735  0.9816  2.0520
 1011TIP3    H2 2995   3.663   3.430   0.081 -0.1916 -2.0682 -3.1166
 1012TIP3   OH2 2996   2.643   3.606   1.358  0.8502 -0.6188 -0.3602
 1012TIP3    H1 2997   2.601   3.548   1.422 -0.5096 -1.4806 -1.9759
 1012TIP3    H2 2998   2.729   3.566   1.342  0.7974 -0.9509  0.1742
 1013TIP3   OH2 2999   2.305   0.493   5.647 -0.7841 -0.0902 -0.1407
 1013TIP3    H1 3000   2.239   0.561   5.663 -0.4911  0.3831 -0.9071
 1013TIP3    H2 3001   2.344   0.477   5.733 -1.4875  0.0562  0.2119
 1014TIP3   OH2 3002   6.916   7.199   6.157  0.3661 -0.3031 -0.3929
 1014TIP3    H1 3003   6.910   7.289   6.189  1.7456 -0.6112  0.7943
 1014TIP3    H2 3004   6.876   7.201   6.070 -3.0335  0.6577  1.1252
 1015TIP3   OH2 3005   2.970   2.795   2.578  0.5150 -0.3385  0.1219
 1015TIP3    H1 3006   2.960   2.736   2.504  1.9638 -1.8499  1.0919
 1015TIP3    H2 3007   3.031   2.863   2.548  0.4590 -0.4890 -0.3296
 1016TIP3   OH2 3008   5.782   5.557   5.979  0.0902 -0.0646 -0.5289
 1016TIP3    H1 3009   5.807   5.526   6.066  0.7797  0.3292 -0.5796
 1016TIP3    H2 3010   5.687   5.552   5.978  0.0771 -0.0704  0.2485
 1017TIP3   OH2 3011   3.955   6.684   5.359 -0.7906 -0.7827  0.1385
 1017TIP3    H1 3012   4.035   6.645   5.393 -1.3343 -2.0536  0.0067
 1017TIP3    H2 3013   3.980   6.772   5.331  0.3939 -0.9326  0.7350
 1018TIP3   OH2 3014   4.208   3.534   0.810 -0.0069 -0.4623 -0.0319
 1018TIP3    H1 3015   4.180   3.613   0.855  1.1578 -1.0229  1.7134
 1018TIP3    H2 3016   4.167   3.540   0.724 -0.4920  1.6911  0.3209
 1019TIP3   OH2 3017   0.455   0.633   5.483  0.2196  0.4353  0.4511
 1019TIP3    H1 3018   0.498   0.633   5.397  2.9382 -0.4220  1.7861
 1019TIP3    H2 3019   0.388   0.565   5.475  0.5230  0.2764 -0.9403
 1020TIP3   OH2 3020   3.624   4.204   2.102 -0.3758 -0.4259 -0.3121
 1020TIP3    H1 3021   3.578   4.153   2.035  1.3049 -1.6598 -0.5651
 1020TIP3    H2 3022   3.649   4.139   2.168  0.5128  0.3069  0.0735
 1021TIP3   OH2 3023   6.947   6.385   6.047 -0.5722 -0.5054  0.2342
 1021TIP3    H1 3024   6.898   6.454   6.002  0.1132 -0.2658 -0.1510
 1021TIP3    H2 3025   6.933   6.307   5.994  0.4999 -0.1517 -0.5859
 1022TIP3   OH2 3026   2.447   2.856   0.970 -0.0100 -0.1852 -0.0149
 1022TIP3    H1 3027   2.396   2.792   0.920  0.2933 -0.3409 -0.1268
 1022TIP3    H2 3028   2.382   2.914   1.008 -0.3364 -1.0614  0.7696
 1023TIP3   OH2 3029   6.433   6.765   5.669  0.1926 -0.2642 -0.3615
 1023TIP3    H1 3030   6.500   6.803   5.612 -0.2362 -1.8623 -1.9749
 1023TIP3    H2 3031   6.471   6.683   5.701  0.7633  1.0230  2.3958
 1024TIP3   OH2 3032   0.996   2.839   2.330 -0.5158 -0.1709 -0.1139
 1024TIP3    H1 3033   0.923   2.777   2.327 -0.3344 -0.3868 -0.1056
 1024TIP3    H2 3034   1.028   2.834   2.420 -0.0408 -0.6038 -0.3047
 1025TIP3   OH2 3035   2.041   2.906   2.797  0.4689  0.3684 -0.3393
 1025TIP3    H1 3036   2.135   2.914   2.779  0.7335  1.0889  1.2701
 1025TIP3    H2 3037   2.020   2.984   2.848 -0.6767 -0.5746  0.6474
 1026TIP3   OH2 3038   1.078   3.325   1.887 -0.0839  0.2562 -0.1436
 1026TIP3    H1 3039   1.157   3.292   1.931  0.3033 -0.3844 -1.2847
 1026TIP3    H2 3040   1.111   3.367   1.808 -0.9450 -0.8737 -1.1296
 1027TIP3   OH2 3041   4.319   4.202   2.114  0.0005  0.3148 -0.1925
 1027TIP3    H1 3042   4.341   4.282   2.161  0.5979 -0.6675  1.2457
 1027TIP3    H2 3043   4.238   4.172   2.155 -2.0984  1.9285 -2.9633
 1028TIP3   OH2 3044   5.113   4.180   2.051  0.8467 -0.5193 -0.2986
 1028TIP3    H1 3045   5.127   4.153   2.142  1.5558 -0.3611 -0.3524
 1028TIP3    H2 3046   5.023   4.155   2.031  1.1945 -1.9726 -0.0536
 1029TIP3   OH2 3047   2.110   0.287   5.747 -0.1288 -0.2923  0.2501
 1029TIP3    H1 3048   2.128   0.381   5.739  2.2127 -0.6754  0.4624
 1029TIP3    H2 3049   2.134   0.267   5.838  1.3394 -1.4602 -0.3712
 1030TIP3   OH2 3050   2.339   1.971   0.855  0.0786  0.0218 -0.3922
 1030TIP3    H1 3051   2.286   1.900   0.819 -0.7810 -0.0331  0.9255
 1030TIP3    H2 3052   2.316   2.047   0.802 -3.0049  0.5090  1.4832
 1031TIP3   OH2 3053   0.122   0.712   4.907 -0.1845  0.5071 -0.4200
 1031TIP3    H1 3054   0.176   0.700   4.829  0.5370 -0.0452  0.1604
 1031TIP3    H2 3055   0.085   0.800   4.898  0.5311  0.7509 -0.9800
 1032TIP3   OH2 3056   0.358   0.846   4.265  0.1945 -0.3758 -0.2689
 1032TIP3    H1 3057   0.366   0.940   4.249 -1.2904 -0.2685 -0.4292
 1032TIP3    H2 3058   0.417   0.806   4.202  0.0330  0.4057 -0.9263
 1033TIP3   OH2 3059   4.906   6.140   5.528  0.7485 -0.1396 -0.2031
 1033TIP3    H1 3060   4.951   6.123   5.611 -1.6532 -0.5319  1.0636
 1033TIP3    H2 3061   4.895   6.053   5.489 -0.2352 -0.2093  0.2148
 1034TIP3   OH2 3062   4.710   7.014   5.485  0.0566 -0.0735 -0.5592
 1034TIP3    H1 3063   4.724   6.986   5.394 -1.7338  0.3146 -0.9758
 1034TIP3    H2 3064   4.787   6.984   5.531  0.3794 -1.4628 -1.9586
 1035TIP3   OH2 3065   3.280   4.963   1.049 -0.1663  0.2840  0.1100
 1035TIP3    H1 3066   3.305   5.055   1.060 -0.7516  0.4778 -0.1596
 1035TIP3    H2 3067   3.363   4.917   1.034  0.0272  0.9299 -0.8554
 1036TIP3   OH2 3068   3.724   6.858   6.201  0.2405 -0.5829  0.1844
 1036TIP3    H1 3069   3.745   6.940   6.156 -0.1751 -0.6786 -0.2005
 1036TIP3    H2 3070   3.807   6.827   6.236  0.6225 -0.6346 -0.7513
 1037TIP3   OH2 3071   4.878   4.839   1.485  0.3888  0.4540  0.0815
 1037TIP3    H1 3072   4.938   4.775   1.446  1.8999  1.0461  1.4001
 1037TIP3    H2 3073   4.792   4.797   1.480  1.2897 -1.5175  0.5438
 1038TIP3   OH2 3074   3.334   4.961   0.517 -0.7681  0.0453  0.2254
 1038TIP3    H1 3075   3.418   4.945   0.474  0.7712  3.3425  1.8153
 1038TIP3    H2 3076   3.280   5.003   0.449 -0.3259  0.0262 -0.1406
 1039TIP3   OH2 3077   1.921   2.909   0.185  0.0496  0.1987 -0.5153
 1039TIP3    H1 3078   1.887   2.851   0.117 -0.4952 -1.1927  0.9111
 1039TIP3    H2 3079   1.845   2.929   0.240  0.6427  0.6527  0.1565
 1040TIP3   OH2 3080   4.942   2.385   0.364  0.1694  0.0931 -0.2586
 1040TIP3    H1 3081   5.023   2.418   0.404 -0.0037 -0.3197  0.4398
 1040TIP3    H2 3082   4.971   2.339   0.285  0.5526  0.5696 -0.3963
 1041TIP3   OH2 3083   1.741   1.638   5.321 -0.0016 -0.1969 -0.0123
 1041TIP3    H1 3084   1.730   1.709   5.258 -0.7817 -0.1325  0.1947
 1041TIP3    H2 3085   1.671   1.576   5.300 -0.7578  0.2014  1.2976
 1042TIP3   OH2 3086   7.573   0.732   4.629 -0.3779 -0.0371 -0.3676
 1042TIP3    H1 3087   7.638   0.671   4.663 -0.3770  0.8419  1.2396
 1042TIP3    H2 3088   7.510   0.742   4.699  0.6915  3.3407  0.2175
 1043TIP3   OH2 3089   3.778   3.405   1.123 -0.4091 -0.4584 -0.7027
 1043TIP3    H1 3090   3.818   3.461   1.189 -0.2749 -1.9691  0.5142
 1043TIP3    H2 3091   3.837   3.329   1.117 -1.8565 -1.6065 -0.5789
 1044TIP3   OH2 3092   4.160   7.223   6.267  0.6046  0.1869  0.1109
 1044TIP3    H1 3093   4.228   7.182   6.214 -1.0426 -0.2958 -1.6713
 1044TIP3    H2 3094   4.114   7.150   6.309 -0.5528  0.3447 -0.8608
 1045TIP3   OH2 3095   2.313   0.857   6.257 -0.1798  0.0778  0.1845
 1045TIP3    H1 3096   2.371   0.915   6.306 -1.1294  0.8402  0.4048
 1045TIP3    H2 3097   2.362   0.838   6.177  0.2334  1.0155  0.2000
 1046TIP3   OH2 3098   7.563   7.103   6.015  0.0724  0.7337 -0.2446
 1046TIP3    H1 3099   7.622   7.031   5.992  0.2354  0.9091 -0.3711
 1046TIP3    H2 3100   7.480   7.080   5.972 -0.9718 -1.2239  2.6910
 1047TIP3   OH2 3101   0.045   3.915   0.723  0.0402  0.0015  0.2879
 1047TIP3    H1 3102   0.062   4.008   0.707  0.4234  0.2971  2.3341
 1047TIP3    H2 3103   0.128   3.872   0.701  0.4238  0.3497  1.0429
 1048TIP3   OH2 3104   4.756   6.945   5.209 -0.0271 -0.7909 -0.1271
 1048TIP3    H1 3105   4.716   6.859   5.201  1.1152 -1.2761 -0.5669
 1048TIP3    H2 3106   4.709   6.999   5.145 -0.1497 -1.2990 -0.4661
 1049TIP3   OH2 3107   2.451   3.969   1.080 -0.1377 -0.2766  0.3232
 1049TIP3    H1 3108   2.432   4.026   1.006  0.8046  1.0938  1.1101
 1049TIP3    H2 3109   2.394   4.002   1.150  0.5797 -0.1476  0.8482
 1050TIP3   OH2 3110   3.760   3.912   1.834 -0.0408 -0.3557 -0.1572
 1050TIP3    H1 3111   3.842   3.866   1.819 -0.3837 -1.8318  2.2260
 1050TIP3    H2 3112   3.723   3.870   1.912 -2.9604  0.3990 -1.0753
 1051TIP3   OH2 3113   0.645   0.956   4.057  0.1848  0.0331  0.4057
 1051TIP3    H1 3114   0.615   0.875   4.099  1.2282 -0.7562 -0.3641
 1051TIP3    H2 3115   0.686   1.005   4.127 -0.0095 -0.3225  0.7728
 1052TIP3   OH2 3116   3.472   5.004   2.928  0.0067  0.5106  0.3845
 1052TIP3    H1 3117   3.414   5.055   2.871 -0.9272  1.1605  1.8951
 1052TIP3    H2 3118   3.551   5.058   2.937  0.2612  0.2872 -0.4970
 1053TIP3   OH2 3119   4.710   4.295   1.806  0.6508  0.0297  0.5853
 1053TIP3    H1 3120   4.664   4.350   1.743  0.4746 -1.0195 -0.2124
 1053TIP3    H2 3121   4.714   4.348   1.886 -1.1387  0.4709  0.3923
 1054TIP3   OH2 3122   2.114   2.316   4.098 -0.0246  0.0353  0.3491
 1054TIP3    H1 3123   2.185   2.380   4.088 -0.0534  0.0159  0.0340
 1054TIP3    H2 3124   2.089   2.323   4.191 -1.2321  1.7582 -0.0797
 1055TIP3   OH2 3125   1.970   2.768   0.559  0.6745 -0.0153  0.1922
 1055TIP3    H1 3126   1.981   2.857   0.523 -0.3468  0.4997  1.1379
 1055TIP3    H2 3127   2.028   2.765   0.635  1.9944 -0.7385 -0.8210
 1056TIP3   OH2 3128   1.770   6.947   5.913 -0.1832  0.3911 -0.3025
 1056TIP3    H1 3129   1.815   6.915   5.991  1.5849  0.4541 -1.2854
 1056TIP3    H2 3130   1.689   6.986   5.947 -0.7517 -2.0393  1.2183
 1057TIP3   OH2 3131   6.039   6.004   5.150  0.2275  0.0243  0.2161
 1057TIP3    H1 3132   6.122   6.019   5.105 -0.0945  0.3739 -0.2516
 1057TIP3    H2 3133   6.064   5.957   5.230  0.7741 -0.7215 -0.3914
 1058TIP3   OH2 3134   5.073   2.563   0.118  0.2064 -0.0811 -0.1715
 1058TIP3    H1 3135   5.164   2.539   0.139  0.3971  1.5053  0.9136
 1058TIP3    H2 3136   5.023   2.483   0.132  1.2719 -0.6593  0.3652
 1059TIP3   OH2 3137   0.318   2.460   4.791  0.1174  0.4841  0.2827
 1059TIP3    H1 3138   0.361   2.528   4.740  0.0176  0.8780  0.7214
 1059TIP3    H2 3139   0.384   2.431   4.854  0.4466 -0.4421 -0.4716
 1060TIP3   OH2 3140   3.863   4.213   3.594 -0.0251  0.0829 -0.1128
 1060TIP3    H1 3141   3.854   4.304   3.623  1.0246  0.8932 -2.1991
 1060TIP3    H2 3142   3.925   4.174   3.655  0.7324  1.2268 -0.1378
 1061TIP3   OH2 3143   3.208   3.254   1.959  0.2093 -0.0910 -0.2147
 1061TIP3    H1 3144   3.231   3.173   1.914  1.9956 -0.1389  0.7319
 1061TIP3    H2 3145   3.116   3.243   1.984  0.1522 -1.3909 -0.9978
 1062TIP3   OH2 3146   4.903   3.039   1.073  0.6815 -0.3559  0.1694
 1062TIP3    H1 3147   4.894   2.983   0.996  0.3496  0.2506 -0.2392
 1062TIP3    H2 3148   4.815   3.075   1.086  0.8283 -0.1620  0.6062
 1063TIP3   OH2 3149   3.292   5.921   0.095 -0.2258 -0.0185  0.8524
 1063TIP3    H1 3150   3.323   5.917   0.004 -1.0101  2.0236  0.4553
 1063TIP3    H2 3151   3.333   6.000   0.131  0.0150 -0.7711  2.2588
 1064TIP3   OH2 3152   7.482   0.158   5.829 -0.5068 -0.5342 -0.1040
 1064TIP3    H1 3153   7.444   0.236   5.787  1.1151 -0.6726 -1.9038
 1064TIP3    H2 3154   7.472   0.089   5.764  1.8504 -0.8038 -0.2126
 1065TIP3   OH2 3155   3.226   5.130   2.482 -0.4905 -0.4664 -0.0545
 1065TIP3    H1 3156   3.157   5.185   2.444 -0.3240 -1.2368 -1.4722
 1065TIP3    H2 3157   3.221   5.048   2.434 -0.5250 -1.6003  1.8518
 1066TIP3   OH2 3158   6.683   6.024   5.651  0.3601 -0.1002  0.5775
 1066TIP3    H1 3159   6.738   6.085   5.601  1.6412 -2.3789 -0.9086
 1066TIP3    H2 3160   6.706   6.041   5.742  1.8197  0.6157  0.1032
 1067TIP3   OH2 3161   2.793   2.080   0.677 -0.2099  0.4168  0.1442
 1067TIP3    H1 3162   2.716   2.101   0.624  0.6217 -1.4997 -1.9285
 1067TIP3    H2 3163   2.760   2.019   0.743 -0.5975 -0.0290 -0.4478
 1068TIP3   OH2 3164   4.375   7.091   6.105  0.2849 -0.7227  0.6818
 1068TIP3    H1 3165   4.434   7.065   6.176 -1.0699 -0.9851  1.7241
 1068TIP3    H2 3166   4.405   7.041   6.029  3.1583  1.2132  0.4787
 1069TIP3   OH2 3167   3.710   3.577   0.840  0.1679 -0.0744 -0.4065
 1069TIP3    H1 3168   3.727   3.484   0.850  0.1591  0.0386  0.6612
 1069TIP3    H2 3169   3.648   3.583   0.767 -0.3631 -0.9395 -0.0240
 1070TIP3   OH2 3170   0.602   6.408   6.151  0.0640 -0.6629  0.0722
 1070TIP3    H1 3171   0.697   6.419   6.137  0.4442 -1.6693  1.7425
 1070TIP3    H2 3172   0.580   6.332   6.098 -0.2569  0.8059 -1.9975
 1071TIP3   OH2 3173   2.196   3.433   3.258  0.6257  0.4680 -0.1104
 1071TIP3    H1 3174   2.239   3.386   3.329  1.4365 -0.8651 -1.4518
 1071TIP3    H2 3175   2.112   3.389   3.248  0.5281  0.6296  0.0007
 1072TIP3   OH2 3176   1.870   0.972   0.331 -0.0922  0.1695 -0.2734
 1072TIP3    H1 3177   1.961   0.978   0.303 -0.1043 -0.4078 -0.4340
 1072TIP3    H2 3178   1.867   1.021   0.413  0.7270 -1.2280  0.5963
 1073TIP3   OH2 3179   3.269   3.658   2.311  0.0706  0.0610  0.2426
 1073TIP3    H1 3180   3.291   3.647   2.218 -1.6913  0.9156 -0.3135
 1073TIP3    H2 3181   3.173   3.655   2.312 -0.0092  2.4179  1.7359
 1074TIP3   OH2 3182   0.295   0.995   6.013  0.5857  0.2494 -0.0456
 1074TIP3    H1 3183   0.385   0.961   6.020  0.1663 -1.1214 -1.0811
 1074TIP3    H2 3184   0.249   0.929   5.961 -0.5590  1.8616 -1.1079
 1075TIP3   OH2 3185   4.959   1.092   1.975  0.6381  0.2695 -0.0797
 1075TIP3    H1 3186   5.025   1.101   1.906  0.6197  0.9811 -0.0126
 1075TIP3    H2 3187   5.007   1.052   2.048  1.0452  0.9447  0.0301
 1076TIP3   OH2 3188   5.116   3.631   0.610 -0.0268 -0.1571 -0.0332
 1076TIP3    H1 3189   5.080   3.547   0.641  0.8838 -0.4278  0.2921
 1076TIP3    H2 3190   5.151   3.611   0.523 -0.0139 -0.0575 -0.0504
 1077TIP3   OH2 3191   4.596   3.814   1.670  0.1646  0.5106 -0.4179
 1077TIP3    H1 3192   4.576   3.791   1.761  0.1824  1.1118 -0.2623
 1077TIP3    H2 3193   4.658   3.747   1.641 -2.4326 -1.7417 -1.0755
 1078TIP3   OH2 3194   1.982   1.908   1.842 -0.3208 -0.2220 -0.3897
 1078TIP3    H1 3195   1.968   1.923   1.748  0.7330 -0.4035 -0.5793
 1078TIP3    H2 3196   2.022   1.821   1.846  1.1384  0.4685  0.1123
 1079TIP3   OH2 3197   4.592   1.921   1.313 -0.7161 -0.1123 -0.0428
 1079TIP3    H1 3198   4.604   1.974   1.392 -0.2080  0.1914 -0.3199
 1079TIP3    H2 3199   4.680   1.889   1.292 -1.1658 -1.8102  0.6379
 1080TIP3   OH2 3200   4.179   4.496   0.237  0.2209  0.2759 -0.4496
 1080TIP3    H1 3201   4.224   4.530   0.314  0.1071  2.3816 -1.2595
 1080TIP3    H2 3202   4.091   4.532   0.243 -0.6983 -1.9922 -0.0368
 1081TIP3   OH2 3203   4.691   2.293   0.019 -0.1199 -0.1750  0.3221
 1081TIP3    H1 3204   4.692   2.252  -0.067 -0.8553  0.2434  0.1069
 1081TIP3    H2 3205   4.658   2.226   0.078 -1.7729  0.2369 -0.1081
 1082TIP3   OH2 3206   3.027   4.901   0.606  0.5839 -0.0708 -0.1662
 1082TIP3    H1 3207   3.015   4.990   0.637  1.6177 -0.8249  2.5246
 1082TIP3    H2 3208   3.120   4.884   0.616  0.1199 -2.0578  1.1065
 1083TIP3   OH2 3209   3.247   1.188   3.490  0.2744  0.3334 -0.0014
 1083TIP3    H1 3210   3.334   1.181   3.528  1.5288  1.3179 -2.5618
 1083TIP3    H2 3211   3.194   1.124   3.538  2.4128 -0.3247  1.5376
 1084TIP3   OH2 3212   6.351   6.517   5.150  0.1659 -0.8527  0.0711
 1084TIP3    H1 3213   6.349   6.531   5.245 -0.2623 -0.8142  0.0560
 1084TIP3    H2 3214   6.435   6.474   5.134 -0.0247 -1.3980  0.5377
 1085TIP3   OH2 3215   7.321   1.178   5.034  0.2158 -0.5224  0.2433
 1085TIP3    H1 3216   7.255   1.118   5.067  0.9058 -1.0468  0.6726
 1085TIP3    H2 3217   7.340   1.146   4.945  1.8640 -2.0216  1.1050
 1086TIP3   OH2 3218   0.259   0.587   4.670  0.1639 -0.5108 -0.4457
 1086TIP3    H1 3219   0.246   0.582   4.576 -0.4250  0.2549 -0.4086
 1086TIP3    H2 3220   0.270   0.496   4.698  1.2326 -0.6764 -1.3681
 1087TIP3   OH2 3221   2.719   4.294   0.639  0.0236 -0.7068 -0.2134
 1087TIP3    H1 3222   2.759   4.215   0.676  0.2979 -0.4996 -0.0613
 1087TIP3    H2 3223   2.628   4.270   0.623  0.0048 -0.9249  0.2134
 1088TIP3   OH2 3224   0.628   0.529   6.093 -0.0012  0.0226  0.3849
 1088TIP3    H1 3225   0.542   0.562   6.117 -0.2966 -1.7796  1.9450
 1088TIP3    H2 3226   0.610   0.459   6.030  0.3747  0.1014  0.1840
 1089TIP3   OH2 3227   1.282   0.976   6.003 -0.0980  0.1044  0.4372
 1089TIP3    H1 3228   1.266   0.944   5.914 -0.8119 -0.3729  0.7336
 1089TIP3    H2 3229   1.239   1.061   6.007  0.8149  0.5926  0.0086
 1090TIP3   OH2 3230   3.197   5.606   0.933 -0.0281 -0.5517  0.2870
 1090TIP3    H1 3231   3.149   5.537   0.980 -1.2792  1.0617  1.4570
 1090TIP3    H2 3232   3.286   5.599   0.966 -0.9353  0.7336  3.2811
 1091TIP3   OH2 3233   1.277   0.622   5.706  0.5173 -0.4482 -0.7148
 1091TIP3    H1 3234   1.198   0.578   5.673 -1.2353  1.4764  0.7525
 1091TIP3    H2 3235   1.310   0.671   5.632 -0.4768 -0.1585 -0.9707
 1092TIP3   OH2 3236   5.209   3.713   0.926  0.5956  0.1899 -0.6144
 1092TIP3    H1 3237   5.224   3.664   0.845  0.1926 -1.2139  0.1409
 1092TIP3    H2 3238   5.259   3.666   0.993  1.2248  1.5466 -0.1021
 1093TIP3   OH2 3239   0.267   1.134   6.343 -0.3355 -0.0918  0.0701
 1093TIP3    H1 3240   0.324   1.204   6.312 -1.2453 -0.2445 -2.0959
 1093TIP3    H2 3241   0.304   1.055   6.304 -1.1025 -0.3923 -0.0580
 1094TIP3   OH2 3242   2.749   2.352   0.404 -0.2015 -0.1697 -0.1597
 1094TIP3    H1 3243   2.845   2.345   0.404 -0.2244 -0.5036 -0.0482
 1094TIP3    H2 3244   2.729   2.404   0.482 -0.1827 -1.2238  0.5629
 1095TIP3   OH2 3245   1.461   3.349   0.071 -0.1189  0.3357 -0.1132
 1095TIP3    H1 3246   1.370   3.318   0.074 -0.9387  2.5925 -1.1928
 1095TIP3    H2 3247   1.513   3.268   0.068 -2.1212 -0.9734 -0.7150
 1096TIP3   OH2 3248   3.526   1.154   6.156  0.7452  0.0266 -0.0083
 1096TIP3    H1 3249   3.616   1.182   6.171  1.4748 -2.7402  1.0860
 1096TIP3    H2 3250   3.525   1.061   6.179 -2.4830  0.0855  0.4255
 1097TIP3   OH2 3251   6.068   4.905   1.857  0.8381 -0.4873  0.6877
 1097TIP3    H1 3252   5.973   4.916   1.851  0.3660 -3.1743  2.6256
 1097TIP3    H2 3253   6.092   4.945   1.940  1.4759  0.3822  0.1000
 1098TIP3   OH2 3254   3.901   4.545   0.306  0.2037  0.7131 -0.2079
 1098TIP3    H1 3255   3.849   4.472   0.340 -0.0141  1.5071  1.2122
 1098TIP3    H2 3256   3.863   4.563   0.220 -0.7042  0.1191  0.0577
 1099TIP3   OH2 3257   4.575   4.677   0.362 -0.2209 -0.4378  0.3945
 1099TIP3    H1 3258   4.486   4.640   0.365 -0.8888  1.1829  0.8265
 1099TIP3    H2 3259   4.613   4.652   0.446  0.0759 -1.9382 -0.1659
 1100TIP3   OH2 3260   5.576   1.549   2.452  0.5953 -0.1371  0.4037
 1100TIP3    H1 3261   5.548   1.529   2.363  0.4024 -0.5063  0.5489
 1100TIP3    H2 3262   5.654   1.494   2.466  1.8193  1.3855 -0.2433
 1101TIP3   OH2 3263   5.384   1.382   0.705  0.2386 -0.5854  0.6103
 1101TIP3    H1 3264   5.294   1.415   0.712  1.1027  1.5145  2.3118
 1101TIP3    H2 3265   5.389   1.347   0.616 -1.7896  0.7440 -0.0717
 1102TIP3   OH2 3266   4.236   2.235   0.627  0.1523  1.5792 -0.9430
 1102TIP3    H1 3267   4.221   2.197   0.541  0.6312  2.0929 -1.2581
 1102TIP3    H2 3268   4.278   2.166   0.678 -2.7049  0.2803 -0.2151
 1103TIP3   OH2 3269   6.114   6.564   6.350  0.1153 -0.0804 -0.2403
 1103TIP3    H1 3270   6.124   6.593   6.260  1.8962 -0.2925 -0.1327
 1103TIP3    H2 3271   6.080   6.475   6.343 -0.8036  0.2978 -0.6683
 1104TIP3   OH2 3272   3.522   1.884   1.692  0.2222 -0.4417  0.2140
 1104TIP3    H1 3273   3.565   1.920   1.615 -0.6037 -0.4701 -0.2615
 1104TIP3    H2 3274   3.595   1.856   1.749  0.9054  2.9881  1.1027
 1105TIP3   OH2 3275   6.242   4.890   6.199 -0.4510 -0.0322 -0.4293
 1105TIP3    H1 3276   6.232   4.945   6.121  1.4373  1.3119  0.2399
 1105TIP3    H2 3277   6.158   4.896   6.243 -1.6637 -1.0616 -2.4954
 1106TIP3   OH2 3278   3.973   2.836   0.371 -0.1499  0.0104 -0.1247
 1106TIP3    H1 3279   4.019   2.882   0.441  0.8166  0.9804 -1.3748
 1106TIP3    H2 3280   3.984   2.892   0.294  0.0898 -1.7694 -1.4239
 1107TIP3   OH2 3281   5.790   0.090   1.065  0.4228 -0.2689  0.0850
 1107TIP3    H1 3282   5.756   0.039   0.991  0.2148  1.1767 -0.8515
 1107TIP3    H2 3283   5.829   0.026   1.123  2.5785 -1.2762 -2.3718
 1108TIP3   OH2 3284   3.947   6.723   6.310  0.1731  0.2320 -0.1780
 1108TIP3    H1 3285   3.977   6.640   6.272 -0.7645  0.1955 -0.8474
 1108TIP3    H2 3286   4.028   6.771   6.327  0.6439  0.0656 -1.8181
 1109TIP3   OH2 3287   5.958   6.045   4.030  0.4651 -0.0240  0.2405
 1109TIP3    H1 3288   5.923   6.080   3.947  0.5848 -2.6316 -0.9584
 1109TIP3    H2 3289   5.899   6.081   4.097 -1.1930  0.0917 -1.2188
 1110TIP3   OH2 3290   3.200   4.813   1.311 -0.2250 -0.0426  0.2161
 1110TIP3    H1 3291   3.223   4.722   1.328 -0.5282 -0.0382  0.6673
 1110TIP3    H2 3292   3.135   4.808   1.240  1.9248  0.0131 -1.8013
 1111TIP3   OH2 3293   5.965   6.955   5.780  0.1215 -0.1124  0.3129
 1111TIP3    H1 3294   5.974   6.994   5.693  0.1965 -1.2817 -0.2121
 1111TIP3    H2 3295   6.031   6.886   5.783  1.0721  0.8061  1.8166
 1112TIP3   OH2 3296   1.165   1.235   6.020  0.0065  0.1250  0.3772
 1112TIP3    H1 3297   1.171   1.309   6.081 -3.7148 -1.1145  2.3694
 1112TIP3    H2 3298   1.075   1.236   5.989  0.8644 -1.4952 -2.3643
 1113TIP3   OH2 3299   4.028   6.215   3.694  0.3532 -0.7889 -0.6295
 1113TIP3    H1 3300   3.957   6.226   3.631 -1.9619 -1.5025  1.7492
 1113TIP3    H2 3301   4.052   6.123   3.688 -1.7906 -1.5277  1.4222
 1114TIP3   OH2 3302   1.855   1.412   6.031  0.0027 -0.3106  0.2031
 1114TIP3    H1 3303   1.865   1.501   6.065 -1.0169  0.2565 -0.9451
 1114TIP3    H2 3304   1.916   1.407   5.957 -0.1804 -0.4547  0.0604
 1115TIP3   OH2 3305   3.945   1.391   1.084  0.1409  0.0751  1.4245
 1115TIP3    H1 3306   3.855   1.400   1.114 -1.0908  0.7374 -2.2116
 1115TIP3    H2 3307   3.973   1.305   1.116 -1.9482 -0.3475  2.1728
 1116TIP3   OH2 3308   2.853   4.256   2.725  0.1368  0.5495  0.0035
 1116TIP3    H1 3309   2.819   4.305   2.650 -0.0191  2.0351  1.0311
 1116TIP3    H2 3310   2.796   4.280   2.798 -2.2231 -3.9172 -0.1654
 1117TIP3   OH2 3311   2.409   3.554   2.470 -0.2346 -0.0771  0.4809
 1117TIP3    H1 3312   2.480   3.508   2.424  1.1738  1.4525  1.0515
 1117TIP3    H2 3313   2.340   3.488   2.480  0.0416 -0.8686 -2.4126
 1118TIP3   OH2 3314   0.772   0.622   4.231  0.4145  0.1240 -0.0774
 1118TIP3    H1 3315   0.805   0.543   4.190  2.2271 -0.7154  2.8540
 1118TIP3    H2 3316   0.824   0.693   4.193  2.0205 -0.6247  0.7179
 1119TIP3   OH2 3317   6.209   6.280   5.413  0.4462  0.2118  0.0379
 1119TIP3    H1 3318   6.247   6.308   5.496 -0.0551  0.2499  0.2500
 1119TIP3    H2 3319   6.285   6.253   5.360  0.7037 -0.4028  0.7250
 1120TIP3   OH2 3320   7.816   0.232   5.130 -0.2051 -0.2956  0.3899
 1120TIP3    H1 3321   7.758   0.162   5.160 -0.1106 -0.5180  0.0570
 1120TIP3    H2 3322   7.793   0.308   5.184  0.9496 -1.0697  2.0284
 1121TIP3   OH2 3323   6.597   0.757   6.207  0.1104  0.1397  0.1304
 1121TIP3    H1 3324   6.625   0.848   6.196 -0.7166  0.2183 -1.4622
 1121TIP3    H2 3325   6.538   0.759   6.282 -1.0458  1.1720 -0.7994
 1122TIP3   OH2 3326   2.674   3.047   0.556 -0.3123  0.1145  0.3465
 1122TIP3    H1 3327   2.670   3.082   0.645  0.0761  1.7639 -0.2618
 1122TIP3    H2 3328   2.761   3.073   0.524 -0.2248 -0.9508 -0.3279
 1123TIP3   OH2 3329   3.633   3.969   0.965 -0.1115  0.1213  0.5474
 1123TIP3    H1 3330   3.639   4.061   0.940 -0.1942 -0.1846 -0.5970
 1123TIP3    H2 3331   3.540   3.955   0.985 -0.3975 -0.1370 -0.9302
 1124TIP3   OH2 3332   3.801   0.981   1.071 -0.0426  0.0303  0.1193
 1124TIP3    H1 3333   3.847   0.912   1.118  0.5633  0.6055  0.3878
 1124TIP3    H2 3334   3.812   1.059   1.126 -0.2644  0.4550 -0.4335
 1125TIP3   OH2 3335   4.014   1.592   0.769 -0.1363 -0.1082 -0.4315
 1125TIP3    H1 3336   4.033   1.671   0.820 -2.4663 -0.6668  1.3749
 1125TIP3    H2 3337   4.087   1.586   0.707  1.7107  1.7328  1.4573
 1126TIP3   OH2 3338   3.692   3.144   1.883 -0.2985  0.1478  0.0954
 1126TIP3    H1 3339   3.693   3.226   1.933 -0.4323  0.1275  0.1324
 1126TIP3    H2 3340   3.779   3.107   1.895 -0.0491  0.5665 -0.3822
 1127TIP3   OH2 3341   4.461   0.882   0.903  0.3079 -0.0193 -0.0841
 1127TIP3    H1 3342   4.550   0.897   0.936 -0.0898 -0.8860  1.4022
 1127TIP3    H2 3343   4.468   0.802   0.852  0.3782 -0.0738  0.0114
 1128TIP3   OH2 3344   1.090   2.999   1.529  0.2963 -1.2954  0.1553
 1128TIP3    H1 3345   1.059   3.087   1.511  1.0467 -0.7037  1.6591
 1128TIP3    H2 3346   1.015   2.953   1.566  0.1127 -1.0711  0.0575
 1129TIP3   OH2 3347   4.107   2.926   1.841 -0.3360  0.3744  0.6875
 1129TIP3    H1 3348   4.200   2.930   1.819 -0.0203 -1.1712  1.6021
 1129TIP3    H2 3349   4.062   2.946   1.760  0.8005  0.5921  0.0975
 1130TIP3   OH2 3350   5.051   7.219   5.838 -0.3220  0.1655 -0.0702
 1130TIP3    H1 3351   5.075   7.276   5.765  0.5192  0.0012  0.0772
 1130TIP3    H2 3352   5.038   7.278   5.912 -1.3104  0.3455 -0.3716
 1131TIP3   OH2 3353   6.330   6.841   6.267 -0.1813 -0.1732 -0.0613
 1131TIP3    H1 3354   6.354   6.814   6.355  0.8357 -0.7967 -0.5250
 1131TIP3    H2 3355   6.353   6.934   6.263 -2.4920  0.4983  1.1143
 1132TIP3   OH2 3356   7.378   2.318   6.197 -0.6557  0.4567 -0.1224
 1132TIP3    H1 3357   7.377   2.301   6.103 -0.9926 -1.4320  0.1956
 1132TIP3    H2 3358   7.384   2.413   6.204  0.6124  0.5541 -2.0491
 1133TIP3   OH2 3359   4.338   3.990   1.092 -0.3411  0.2746  0.1893
 1133TIP3    H1 3360   4.286   3.952   1.163  2.8878 -0.0553  2.5195
 1133TIP3    H2 3361   4.334   3.925   1.022 -0.7392 -1.0405  1.4079
 1134TIP3   OH2 3362   4.470   6.397   5.288  0.0344 -0.1561  0.0973
 1134TIP3    H1 3363   4.443   6.384   5.378  1.8349  2.6400  1.0943
 1134TIP3    H2 3364   4.551   6.448   5.294  1.6110 -2.1204 -3.0082
 1135TIP3   OH2 3365   3.354   2.874   3.725  0.7598 -0.1463  0.1569
 1135TIP3    H1 3366   3.344   2.823   3.645 -0.5430  0.0174  0.1889
 1135TIP3    H2 3367   3.371   2.963   3.695 -0.2372  0.0139  0.0401
 1136TIP3   OH2 3368   5.226   3.918   1.366 -0.1219 -0.0108 -0.7543
 1136TIP3    H1 3369   5.169   3.974   1.314 -0.6103 -0.0433 -0.2575
 1136TIP3    H2 3370   5.314   3.947   1.344 -0.2972 -0.4597 -2.0924
 1137TIP3   OH2 3371   5.594   1.408   5.976  0.6033 -0.1260  0.3757
 1137TIP3    H1 3372   5.662   1.402   6.043  1.0675 -0.4390 -0.1211
 1137TIP3    H2 3373   5.605   1.329   5.923 -1.0909 -0.9372  1.1621
 1138TIP3   OH2 3374   4.539   4.620   1.899  0.0409  0.2592  0.3647
 1138TIP3    H1 3375   4.509   4.580   1.818  0.2641 -1.3070  1.0367
 1138TIP3    H2 3376   4.474   4.688   1.919 -0.6216 -0.1202 -0.5165
 1139TIP3   OH2 3377   6.486   6.135   4.620  0.1884  0.5684  0.1994
 1139TIP3    H1 3378   6.539   6.110   4.544 -1.2091  0.6385 -0.8398
 1139TIP3    H2 3379   6.403   6.090   4.606 -1.0466  2.7526  0.2751
 1140TIP3   OH2 3380   3.383   4.580   1.308  0.0849  0.1857 -0.1824
 1140TIP3    H1 3381   3.332   4.505   1.279 -0.1151  0.6625 -1.1034
 1140TIP3    H2 3382   3.413   4.557   1.396 -0.5482 -0.6764 -0.1869
 1141TIP3   OH2 3383   5.591   6.985   5.581  0.2584  0.3419  0.0937
 1141TIP3    H1 3384   5.564   7.077   5.583 -1.4414 -0.1349 -0.5741
 1141TIP3    H2 3385   5.586   6.960   5.489  1.4655 -0.2157  0.1725
 1142TIP3   OH2 3386   4.148   3.227   1.360  0.4259 -0.3445 -0.1528
 1142TIP3    H1 3387   4.187   3.140   1.347 -1.7762 -1.2515 -0.8854
 1142TIP3    H2 3388   4.209   3.287   1.316  1.5227 -1.5994 -0.3986
 1143TIP3   OH2 3389   7.006   4.919   5.723  0.2201 -0.2519 -0.1827
 1143TIP3    H1 3390   6.937   4.927   5.788  1.0464 -1.1576  0.8252
 1143TIP3    H2 3391   7.081   4.884   5.771  0.9951 -0.4880 -1.5206
 1144TIP3   OH2 3392   4.702   2.493   0.261  0.6070  0.0114 -0.1968
 1144TIP3    H1 3393   4.781   2.447   0.291 -1.1771 -1.8203  1.9251
 1144TIP3    H2 3394   4.655   2.428   0.208 -0.1314  0.6338 -0.3070
 1145TIP3   OH2 3395   6.278   4.588   6.295  0.1205  0.2582  0.3242
 1145TIP3    H1 3396   6.309   4.639   6.219  0.0204  2.0825  1.4845
 1145TIP3    H2 3397   6.356   4.575   6.348 -0.0812  0.2097  0.6090
 1146TIP3   OH2 3398   3.396   3.123   0.053 -0.7895  0.4213  0.1227
 1146TIP3    H1 3399   3.370   3.162  -0.031  0.4995 -0.3247 -0.6390
 1146TIP3    H2 3400   3.456   3.052   0.029 -2.4673 -1.5400  1.5340
 1147TIP3   OH2 3401   6.962   3.635   1.890  0.4240  0.9564  0.3771
 1147TIP3    H1 3402   7.028   3.597   1.949  0.1751  2.2643  1.5114
 1147TIP3    H2 3403   6.931   3.560   1.839  1.5068  0.0068  1.0651
 1148TIP3   OH2 3404   6.903   3.692   1.261  0.2154 -0.2134 -0.0057
 1148TIP3    H1 3405   6.991   3.661   1.241 -0.1642 -0.7392 -0.9193
 1148TIP3    H2 3406   6.845   3.625   1.223 -0.5618 -0.8417  2.2021
 1149TIP3   OH2 3407   5.952   3.732   0.412  0.2975 -0.2483 -0.0149
 1149TIP3    H1 3408   5.946   3.671   0.338  0.5292 -0.9118  0.5011
 1149TIP3    H2 3409   5.865   3.771   0.419  0.7243  1.0561 -1.6699
 1150TIP3   OH2 3410   4.199   4.217   0.307  0.1272  0.3969 -0.0244
 1150TIP3    H1 3411   4.165   4.299   0.271  1.5019  0.9765 -0.0137
 1150TIP3    H2 3412   4.263   4.187   0.243  1.2340  0.4641  1.0375
 1151TIP3   OH2 3413   3.904   4.160   1.815  0.4657 -0.4147 -0.2593
 1151TIP3    H1 3414   3.868   4.234   1.864  1.3978 -1.2316  1.7152
 1151TIP3    H2 3415   3.834   4.096   1.812  0.7945 -0.8659  1.1368
 1152TIP3   OH2 3416   1.800   0.247   6.005 -0.2716  0.1009  0.2907
 1152TIP3    H1 3417   1.804   0.154   5.981  0.7810 -0.0781  1.1299
 1152TIP3    H2 3418   1.728   0.282   5.952  0.8615 -0.6705 -1.8274
 1153TIP3   OH2 3419   4.824   4.547   1.598 -0.3861 -0.1482  0.3155
 1153TIP3    H1 3420   4.792   4.547   1.508  3.0990  0.3912 -0.9829
 1153TIP3    H2 3421   4.784   4.624   1.638 -0.6278  0.5499 -1.2553
 1154TIP3   OH2 3422   5.086   4.673   1.334 -0.7471  0.2041 -0.1592
 1154TIP3    H1 3423   5.170   4.684   1.379 -0.8452  0.3220 -0.0034
 1154TIP3    H2 3424   5.103   4.702   1.245 -0.1521 -1.4657 -0.6031
 1155TIP3   OH2 3425   5.263   3.165   0.146 -0.1735  0.1109  0.6206
 1155TIP3    H1 3426   5.168   3.165   0.147 -0.2484  0.5867 -2.5814
 1155TIP3    H2 3427   5.288   3.086   0.194 -2.1714 -0.6227  0.4767
 1156TIP3   OH2 3428   5.778   5.426   0.330  0.1905  0.0365 -0.0609
 1156TIP3    H1 3429   5.830   5.505   0.343  0.1973 -0.0158  0.2488
 1156TIP3    H2 3430   5.761   5.423   0.236  0.4948  0.2132 -0.1229
 1157TIP3   OH2 3431   1.875   0.628   6.264  0.0988 -0.0913 -0.5172
 1157TIP3    H1 3432   1.918   0.714   6.256  1.1648 -0.8002 -2.6979
 1157TIP3    H2 3433   1.786   0.642   6.232  0.8385 -0.2141 -2.6777
 1158TIP3   OH2 3434   4.216   4.475   0.976 -0.3775  0.2609 -0.3880
 1158TIP3    H1 3435   4.140   4.522   0.942  0.4290  0.9742 -1.2121
 1158TIP3    H2 3436   4.184   4.386   0.992 -1.5310  0.7003 -0.1774
 1159TIP3   OH2 3437   5.121   4.996   0.728  0.3244  0.1049  0.5416
 1159TIP3    H1 3438   5.158   5.072   0.773  0.3935 -1.1525  2.7052
 1159TIP3    H2 3439   5.030   5.019   0.711  0.7969  1.3197 -0.3717
 1160TIP3   OH2 3440   3.540   5.318   3.216  1.0133  0.7290 -0.1482
 1160TIP3    H1 3441   3.595   5.357   3.283  0.3152  0.8611  0.3530
 1160TIP3    H2 3442   3.569   5.227   3.210  1.7397  0.9734 -0.3702
 1161TIP3   OH2 3443   1.163   0.454   4.966  0.3740 -0.1499 -0.0988
 1161TIP3    H1 3444   1.249   0.465   4.926  0.2713 -0.4632 -0.4009
 1161TIP3    H2 3445   1.143   0.540   5.003  0.2868  0.2578 -1.0725
 1162TIP3   OH2 3446   7.202   6.480   6.084  0.0702  0.5102  0.1559
 1162TIP3    H1 3447   7.257   6.409   6.050 -1.2159  1.2154 -3.6028
 1162TIP3    H2 3448   7.115   6.462   6.047 -0.7247  2.9300  0.7820
 1163TIP3   OH2 3449   4.965   2.326   0.111  0.1539 -0.1962 -0.0787
 1163TIP3    H1 3450   5.002   2.263   0.049  0.2862  0.5351 -0.7597
 1163TIP3    H2 3451   4.870   2.315   0.103  0.1818 -0.4535 -0.0487
 1164TIP3   OH2 3452   5.343   5.721   1.924  0.1705  0.1586  0.5770
 1164TIP3    H1 3453   5.434   5.751   1.931  0.1251  0.5757 -0.4995
 1164TIP3    H2 3454   5.297   5.795   1.884 -0.1553 -0.9303 -1.1247
 1165TIP3   OH2 3455   0.078   5.082   4.437  0.2813 -0.1877 -0.3776
 1165TIP3    H1 3456   0.081   5.089   4.533  1.4363  1.0836 -0.4877
 1165TIP3    H2 3457   0.159   5.125   4.408 -0.2094 -0.3127 -1.9322
 1166TIP3   OH2 3458   3.834   0.694   6.114 -0.4652 -0.6236 -0.4361
 1166TIP3    H1 3459   3.919   0.673   6.075 -0.6748 -0.1717 -1.1490
 1166TIP3    H2 3460   3.774   0.629   6.078 -0.5104 -0.6571 -0.2986
 1167TIP3   OH2 3461   7.509   4.810   1.636  0.4625 -0.2789 -0.4951
 1167TIP3    H1 3462   7.432   4.783   1.687  1.1678 -0.5575  0.4486
 1167TIP3    H2 3463   7.473   4.853   1.559 -0.6544  1.4207  0.9152
 1168TIP3   OH2 3464   6.499   2.004   3.011  0.2531  0.1984 -0.4309
 1168TIP3    H1 3465   6.425   1.993   3.069 -1.2612 -1.1249 -2.5501
 1168TIP3    H2 3466   6.576   2.003   3.069 -1.2103 -0.7822  1.5363
 1169TIP3   OH2 3467   2.499   0.492   6.029  0.2372 -0.1370  0.0706
 1169TIP3    H1 3468   2.551   0.430   6.080  0.5708 -0.5278 -0.7384
 1169TIP3    H2 3469   2.408   0.475   6.056  0.3979 -0.4463  0.4177
 1170TIP3   OH2 3470   4.543   3.415   1.496 -0.2596  0.4726 -0.3616
 1170TIP3    H1 3471   4.488   3.477   1.543 -1.1664  0.0204 -0.8190
 1170TIP3    H2 3472   4.503   3.410   1.409 -0.3530 -0.9670 -0.2371
 1171TIP3   OH2 3473   2.839   2.873   2.173 -0.2604  0.0225  0.7911
 1171TIP3    H1 3474   2.866   2.842   2.087 -1.2897  1.2705  0.0047
 1171TIP3    H2 3475   2.911   2.929   2.202  0.2636 -0.7110  0.9330
 1172TIP3   OH2 3476   2.881   1.082   6.347 -0.8559 -0.3449 -0.5105
 1172TIP3    H1 3477   2.850   1.049   6.431  4.4230 -3.0562  0.6376
 1172TIP3    H2 3478   2.833   1.031   6.282 -0.7554 -2.5569  1.0619
 1173TIP3   OH2 3479   5.824   6.396   5.385  0.2832 -0.0331  0.1394
 1173TIP3    H1 3480   5.831   6.333   5.457 -0.7151  0.4900  0.7097
 1173TIP3    H2 3481   5.831   6.343   5.306 -1.1143 -0.9351  0.6053
 1174TIP3   OH2 3482   5.526   0.342   5.873  0.5086  0.2337 -0.2329
 1174TIP3    H1 3483   5.542   0.256   5.836 -0.0334 -0.4149  1.0004
 1174TIP3    H2 3484   5.468   0.385   5.810 -1.4362 -1.3219  0.4193
 1175TIP3   OH2 3485   6.750   4.419   2.685  0.0364  0.4671 -0.3280
 1175TIP3    H1 3486   6.691   4.386   2.618  0.3551 -0.0166 -0.3721
 1175TIP3    H2 3487   6.828   4.446   2.637  0.6488 -0.7719 -0.0619
 1176TIP3   OH2 3488   3.727   3.771   2.334  0.4548  0.1126  0.1697
 1176TIP3    H1 3489   3.711   3.724   2.252  0.3037 -1.4735  1.0805
 1176TIP3    H2 3490   3.690   3.858   2.319  0.0718 -0.2740 -1.2988
 1177TIP3   OH2 3491   6.280   1.601   2.040 -0.4328 -0.4722  0.5686
 1177TIP3    H1 3492   6.315   1.528   2.090 -1.2740 -0.8807  0.5730
 1177TIP3    H2 3493   6.205   1.564   1.993  0.6997 -0.2399 -1.4690
 1178TIP3   OH2 3494   3.827   1.128   1.309 -0.0666 -0.5796 -0.3822
 1178TIP3    H1 3495   3.772   1.117   1.387  1.0526 -0.6935  0.4074
 1178TIP3    H2 3496   3.916   1.112   1.341  0.6489  1.7308 -1.1682
 1179TIP3   OH2 3497   2.812   0.608   6.028  0.0100  0.4167  0.4925
 1179TIP3    H1 3498   2.807   0.521   5.988  1.0032  0.0819  1.0787
 1179TIP3    H2 3499   2.808   0.591   6.122  0.3699  1.0001  0.6105
 1180TIP3   OH2 3500   2.331   1.886   5.384  0.3491 -0.0407  0.0706
 1180TIP3    H1 3501   2.376   1.922   5.460  0.2462 -0.1275  0.1736
 1180TIP3    H2 3502   2.369   1.799   5.372  0.5221  0.0578 -0.1131
 1181TIP3   OH2 3503   6.225   1.081   1.438 -0.2075  0.4012  0.6545
 1181TIP3    H1 3504   6.223   0.987   1.416  1.4461 -0.0491  2.3014
 1181TIP3    H2 3505   6.163   1.121   1.377  0.2889 -1.5384 -1.1851
 1182TIP3   OH2 3506   3.354   3.321   1.443 -0.2567 -0.0550 -0.1740
 1182TIP3    H1 3507   3.339   3.274   1.361 -1.0154  0.6324 -0.4304
 1182TIP3    H2 3508   3.271   3.364   1.462  0.4886  1.3580 -0.0388
 1183TIP3   OH2 3509   4.527   5.826   0.955 -0.3169 -0.4612  0.1483
 1183TIP3    H1 3510   4.586   5.857   1.024 -0.2267 -0.7857  0.2162
 1183TIP3    H2 3511   4.556   5.737   0.936  0.2185 -0.0568 -0.9324
 1184TIP3   OH2 3512   0.735   0.549   5.527 -0.0139  0.5240 -0.0136
 1184TIP3    H1 3513   0.651   0.592   5.545  0.4614  2.2835 -1.8167
 1184TIP3    H2 3514   0.724   0.510   5.440 -0.0010 -1.9854  1.0700
 1185TIP3   OH2 3515   2.400   0.251   4.593 -0.1621 -0.2004  0.2884
 1185TIP3    H1 3516   2.348   0.327   4.619 -0.3342  0.5898 -2.2233
 1185TIP3    H2 3517   2.336   0.188   4.559  0.2021 -0.4567  0.0667
 1186TIP3   OH2 3518   1.684   1.792   6.302  0.1150  0.4220  0.2739
 1186TIP3    H1 3519   1.675   1.755   6.390  2.4503 -1.3862 -0.2103
 1186TIP3    H2 3520   1.610   1.755   6.253  0.2357 -0.5649  0.8229
 1187TIP3   OH2 3521   6.550   6.017   6.305  0.1557  0.2649  0.2225
 1187TIP3    H1 3522   6.608   5.984   6.375 -2.0687 -1.1280  1.4944
 1187TIP3    H2 3523   6.546   6.111   6.320  0.7653  0.1558  1.1544
 1188TIP3   OH2 3524   6.159   0.117   0.961  0.1875  0.1916 -0.2689
 1188TIP3    H1 3525   6.142   0.027   0.933  0.6144 -0.4258  1.3850
 1188TIP3    H2 3526   6.079   0.164   0.940 -0.7165 -0.9821  0.4463
 1189TIP3   OH2 3527   7.257   3.150   1.841 -0.4904 -0.3376  0.2787
 1189TIP3    H1 3528   7.269   3.082   1.774 -2.1072  0.7464 -1.1851
 1189TIP3    H2 3529   7.312   3.222   1.810 -0.4975 -0.1819  0.6391
 1190TIP3   OH2 3530   5.338   2.663   4.071 -0.0091  0.3171  0.3543
 1190TIP3    H1 3531   5.392   2.612   4.010  2.2004  2.3979  0.4780
 1190TIP3    H2 3532   5.359   2.627   4.157  0.3725  0.3881  0.2945
 1191TIP3   OH2 3533   0.272   4.591   1.480 -0.5202 -0.4981 -0.0338
 1191TIP3    H1 3534   0.252   4.674   1.522 -0.2931  0.0560 -1.0017
 1191TIP3    H2 3535   0.305   4.615   1.393 -1.6238 -1.6361 -0.7872
 1192TIP3   OH2 3536   5.644   1.130   1.077  0.0851  0.4323  0.6186
 1192TIP3    H1 3537   5.654   1.043   1.038 -0.2368  0.8608 -0.4208
 1192TIP3    H2 3538   5.564   1.164   1.039 -0.7996  0.4399  2.4552
 1193TIP3   OH2 3539   5.325   5.306   1.766 -0.0449 -0.2413  0.0039
 1193TIP3    H1 3540   5.403   5.251   1.772  0.0851  0.0009  0.5829
 1193TIP3    H2 3541   5.344   5.367   1.695  1.0378  0.9841  1.3396
 1194TIP3   OH2 3542   2.138   5.830   1.531 -0.2216 -0.1668 -0.2270
 1194TIP3    H1 3543   2.044   5.840   1.547 -0.2876 -1.2442  0.1256
 1194TIP3    H2 3544   2.164   5.758   1.588  1.1300  1.0821  0.7556
 1195TIP3   OH2 3545   6.577   4.714   3.064  0.1511 -0.3218 -0.8347
 1195TIP3    H1 3546   6.526   4.739   2.987  0.7887 -0.7203 -1.3960
 1195TIP3    H2 3547   6.559   4.621   3.075  1.3806 -0.6555 -1.5297
 1196TIP3   OH2 3548   4.619   4.978   2.363 -0.0076 -0.3545  0.1943
 1196TIP3    H1 3549   4.549   5.024   2.317 -0.3924 -0.6767  0.4585
 1196TIP3    H2 3550   4.650   4.912   2.300  0.3376  0.0627 -0.0726
 1197TIP3   OH2 3551   6.156   3.183   1.324 -0.1489 -0.1694  0.0217
 1197TIP3    H1 3552   6.131   3.122   1.393  0.9133 -0.7879 -0.1159
 1197TIP3    H2 3553   6.164   3.128   1.246 -1.9907  0.6375 -0.7518
 1198TIP3   OH2 3554   6.127   3.372   0.915  0.2512 -0.1236 -0.1281
 1198TIP3    H1 3555   6.034   3.386   0.899  0.0608  0.3346  1.3143
 1198TIP3    H2 3556   6.134   3.279   0.937  0.0632 -0.0443  0.2674
 1199TIP3   OH2 3557   1.545   1.844   5.498  0.0106 -0.4668  0.4463
 1199TIP3    H1 3558   1.486   1.779   5.536 -2.0656 -0.1927 -2.1698
 1199TIP3    H2 3559   1.594   1.795   5.432  0.8737 -0.1002  0.8038
 1200TIP3   OH2 3560   4.595   5.439   4.879  0.6779 -0.1984 -0.0204
 1200TIP3    H1 3561   4.602   5.351   4.917 -0.0923 -0.3123 -0.1427
 1200TIP3    H2 3562   4.586   5.424   4.785 -2.4675 -0.1115  0.2367
 1201TIP3   OH2 3563   7.099   5.657   5.707  1.0868  0.3950  0.0755
 1201TIP3    H1 3564   7.009   5.676   5.680  1.0938 -1.6599 -1.5748
 1201TIP3    H2 3565   7.111   5.705   5.788 -0.9404  2.0701 -0.5810
 1202TIP3   OH2 3566   0.758   6.062   5.722  0.7511 -0.1437  0.1291
 1202TIP3    H1 3567   0.830   6.000   5.712  0.9058  0.1130 -0.3752
 1202TIP3    H2 3568   0.703   6.048   5.644  1.7160  1.5559 -0.8785
 1203TIP3   OH2 3569   7.131   7.018   6.250  0.4800  0.6167 -0.1481
 1203TIP3    H1 3570   7.177   7.061   6.323 -0.5960 -1.4591  1.8284
 1203TIP3    H2 3571   7.057   7.075   6.231  0.6658  1.0897  0.5283
 1204TIP3   OH2 3572   0.302   5.695   3.454 -0.4789  0.6148 -0.1560
 1204TIP3    H1 3573   0.362   5.765   3.427  1.6650 -0.5116  1.4508
 1204TIP3    H2 3574   0.289   5.642   3.375  0.5478  0.9629 -0.5658
 1205TIP3   OH2 3575   6.303   4.539   0.318  0.5501 -0.1484  0.0753
 1205TIP3    H1 3576   6.284   4.528   0.411  0.7327  0.0430  0.1340
 1205TIP3    H2 3577   6.236   4.486   0.274 -1.8736  2.7498  0.1625
 1206TIP3   OH2 3578   4.283   1.599   5.868 -0.2320 -0.3174  0.2775
 1206TIP3    H1 3579   4.214   1.544   5.832  0.7084 -2.1171  1.1706
 1206TIP3    H2 3580   4.271   1.594   5.963  0.9114 -0.3564  0.4302
 1207TIP3   OH2 3581   5.392   2.380   1.033  0.4399 -0.5881 -0.2979
 1207TIP3    H1 3582   5.415   2.298   0.989  3.1083  0.0798 -0.2487
 1207TIP3    H2 3583   5.349   2.352   1.114 -0.1927 -1.8985 -1.0618
 1208TIP3   OH2 3584   7.299   5.267   6.219 -0.0889 -0.6386  0.0433
 1208TIP3    H1 3585   7.326   5.293   6.131  1.1052 -3.0192 -0.3217
 1208TIP3    H2 3586   7.373   5.292   6.275 -0.5086  0.1300  0.2634
 1209TIP3   OH2 3587   4.587   4.694   0.664 -0.3519  0.5409 -0.4840
 1209TIP3    H1 3588   4.662   4.647   0.701 -1.1941 -0.0877  0.4287
 1209TIP3    H2 3589   4.522   4.694   0.734 -0.3419  3.1378 -0.4271
 1210TIP3   OH2 3590   0.512   2.056   2.290 -0.2193  0.7473 -0.2750
 1210TIP3    H1 3591   0.515   2.094   2.202 -1.1666  1.2880 -0.0764
 1210TIP3    H2 3592   0.597   2.012   2.299  0.7686  2.5387 -0.6155
 1211TIP3   OH2 3593   2.416   6.171   6.315 -0.0801 -0.5480  1.0172
 1211TIP3    H1 3594   2.408   6.089   6.265  1.3672 -0.5053  0.6790
 1211TIP3    H2 3595   2.412   6.240   6.249 -1.6506 -0.3161  1.3393
 1212TIP3   OH2 3596   4.245   1.249   1.388 -0.7665  0.5988 -0.4950
 1212TIP3    H1 3597   4.197   1.169   1.409  0.3721 -0.0696 -0.4001
 1212TIP3    H2 3598   4.227   1.264   1.295 -2.2593  1.1218 -0.1303
 1213TIP3   OH2 3599   6.616   3.715   0.855  0.4073  0.0065  0.4976
 1213TIP3    H1 3600   6.688   3.658   0.828 -0.6122 -0.6483 -0.8619
 1213TIP3    H2 3601   6.537   3.667   0.831 -0.4826  1.1118  1.1883
 1214TIP3   OH2 3602   5.731   1.543   1.941 -0.0561  0.2819  0.6024
 1214TIP3    H1 3603   5.680   1.466   1.966 -1.7598  1.4929  0.9231
 1214TIP3    H2 3604   5.745   1.590   2.023  1.1396  0.2517  0.4308
 1215TIP3   OH2 3605   0.048   2.147   5.634  0.1514 -0.1581  0.1947
 1215TIP3    H1 3606  -0.014   2.105   5.694 -0.0489 -0.1822 -0.0273
 1215TIP3    H2 3607   0.115   2.081   5.618 -1.1125 -1.0717 -1.5907
 1216TIP3   OH2 3608   7.052   2.656   1.294 -0.2822 -0.0439  0.4905
 1216TIP3    H1 3609   7.116   2.602   1.341  0.7669 -0.5924 -1.5002
 1216TIP3    H2 3610   7.085   2.746   1.304  1.7690 -0.4803 -1.9135
 1217TIP3   OH2 3611   1.007   0.653   4.655 -0.1656  0.4635 -0.1376
 1217TIP3    H1 3612   1.094   0.648   4.617 -0.8811  0.5795 -1.8262
 1217TIP3    H2 3613   0.998   0.571   4.704  1.0064  0.5914  0.3053
 1218TIP3   OH2 3614   5.332   0.045   5.753 -0.8595 -1.1460 -0.6078
 1218TIP3    H1 3615   5.271   0.091   5.695  0.0451  0.6268 -0.1862
 1218TIP3    H2 3616   5.275  -0.002   5.814 -1.8303 -0.2425 -0.7912
 1219TIP3   OH2 3617   5.850   4.284   1.525 -0.2961  0.0639  0.2654
 1219TIP3    H1 3618   5.866   4.364   1.574  1.7505 -0.8866  1.2081
 1219TIP3    H2 3619   5.929   4.231   1.539 -1.0549 -1.5654 -1.4117
 1220TIP3   OH2 3620   4.370   4.860   1.270  0.0774 -0.3269  0.2047
 1220TIP3    H1 3621   4.338   4.772   1.250 -1.9695  0.0298  1.7412
 1220TIP3    H2 3622   4.328   4.916   1.205 -2.2026  0.0806  1.9536
 1221TIP3   OH2 3623   3.120   4.164   2.759 -0.4105  0.1006  0.2231
 1221TIP3    H1 3624   3.155   4.189   2.674  1.3492  2.4922  1.5815
 1221TIP3    H2 3625   3.034   4.205   2.764 -0.3671  0.2488 -0.2701
 1222TIP3   OH2 3626   4.461   2.570   0.454 -0.3285  0.3232 -0.2190
 1222TIP3    H1 3627   4.439   2.652   0.498 -2.9137 -0.6957  0.4840
 1222TIP3    H2 3628   4.553   2.555   0.476 -0.9046  1.0502  2.8914
 1223TIP3   OH2 3629   5.782   5.917   6.347 -0.0121 -0.0471  0.8174
 1223TIP3    H1 3630   5.791   5.880   6.259  1.6351  0.3128  0.8325
 1223TIP3    H2 3631   5.783   6.012   6.334 -1.3728  0.0125  1.0710
 1224TIP3   OH2 3632   3.891   2.627   1.962 -0.0769 -0.3076  0.3662
 1224TIP3    H1 3633   3.846   2.605   1.880 -0.2732 -0.2848  0.4695
 1224TIP3    H2 3634   3.984   2.628   1.938 -0.2760  2.5430 -0.5302
 1225TIP3   OH2 3635   6.060   3.098   0.162  0.2880  0.0825  0.0857
 1225TIP3    H1 3636   5.988   3.125   0.219  1.3687  1.8745  0.6296
 1225TIP3    H2 3637   6.061   3.003   0.168 -0.3418  0.1823  2.1711
 1226TIP3   OH2 3638   5.624   0.962   1.942 -0.1752 -0.3224  0.0707
 1226TIP3    H1 3639   5.561   0.891   1.928 -2.3573  1.5607  0.1498
 1226TIP3    H2 3640   5.631   1.004   1.856  0.5384 -0.1705  0.2049
 1227TIP3   OH2 3641   7.004   7.283   4.824  0.0162 -0.0906  0.1222
 1227TIP3    H1 3642   6.928   7.229   4.843  0.7789 -2.0440 -2.1630
 1227TIP3    H2 3643   7.035   7.253   4.739  1.9466  2.2856 -0.0963
 1228TIP3   OH2 3644   7.027   0.478   0.880  0.3309  0.4392 -0.2586
 1228TIP3    H1 3645   6.944   0.483   0.831  0.5697  1.7339 -0.5362
 1228TIP3    H2 3646   7.067   0.396   0.850 -0.2187  0.4774 -1.1261
 1229TIP3   OH2 3647   0.212   1.131   4.856  0.1993 -0.3990  0.1673
 1229TIP3    H1 3648   0.248   1.101   4.773  0.6617  0.8756 -0.0961
 1229TIP3    H2 3649   0.128   1.170   4.833 -0.6679 -1.9547  0.5853
 1230TIP3   OH2 3650   4.032   4.274   0.980 -0.2908 -0.3501 -0.0068
 1230TIP3    H1 3651   3.963   4.336   1.003 -0.4144 -0.6245  0.3746
 1230TIP3    H2 3652   3.986   4.204   0.933 -0.2468 -0.4473  0.0937
 1231TIP3   OH2 3653   5.765   6.288   6.042  0.4738  0.5082 -0.4588
 1231TIP3    H1 3654   5.834   6.347   6.013  2.0421 -1.4588 -0.7992
 1231TIP3    H2 3655   5.687   6.317   5.994  1.5514  1.3987 -1.6849
 1232TIP3   OH2 3656   0.958   6.855   5.512  0.5979  0.1093 -0.7220
 1232TIP3    H1 3657   0.978   6.818   5.426 -0.4018 -0.7403 -0.5979
 1232TIP3    H2 3658   0.989   6.789   5.574 -0.4357 -0.1479 -0.4777
 1233TIP3   OH2 3659   5.464   2.297   1.295  0.7841 -0.5529  0.1358
 1233TIP3    H1 3660   5.500   2.353   1.363 -0.9751  1.2222 -0.3255
 1233TIP3    H2 3661   5.538   2.245   1.265  2.6812  2.0282  0.1091
 1234TIP3   OH2 3662   6.198   4.691   5.514 -0.1874 -0.4153 -0.1464
 1234TIP3    H1 3663   6.117   4.661   5.474 -0.4382  0.5128 -0.3428
 1234TIP3    H2 3664   6.172   4.722   5.601 -0.1974  0.7539 -0.5626
 1235TIP3   OH2 3665   4.457   1.956   1.892  1.1190 -0.5943  0.2754
 1235TIP3    H1 3666   4.362   1.967   1.900  1.1602  1.1373 -1.3961
 1235TIP3    H2 3667   4.467   1.867   1.859  0.1956 -1.5645  2.4984
 1236TIP3   OH2 3668   0.262   6.854   5.896 -0.0451  0.0574  0.1321
 1236TIP3    H1 3669   0.294   6.868   5.807 -1.3211  0.1105 -0.3206
 1236TIP3    H2 3670   0.283   6.762   5.915  0.2820  0.0618 -0.1923
 1237TIP3   OH2 3671   4.887   4.253   1.086 -0.6592 -0.1014 -0.8990
 1237TIP3    H1 3672   4.875   4.274   0.994 -1.1546 -1.5361 -1.1803
 1237TIP3    H2 3673   4.798   4.243   1.121 -0.5272  2.1466  0.1634
 1238TIP3   OH2 3674   6.108   2.747   3.215  0.1263  0.4521 -0.0578
 1238TIP3    H1 3675   6.108   2.653   3.194 -0.8478  0.7026 -1.2713
 1238TIP3    H2 3676   6.023   2.762   3.256  0.5248  0.6986  0.6832
 1239TIP3   OH2 3677   0.376   1.381   4.083 -0.0645  0.1499 -0.2796
 1239TIP3    H1 3678   0.447   1.326   4.049 -0.6130 -0.4571 -0.4450
 1239TIP3    H2 3679   0.398   1.394   4.176  0.5388  0.4081 -0.4538
 1240TIP3   OH2 3680   6.544   3.840   0.113 -0.9219  0.0780 -0.2444
 1240TIP3    H1 3681   6.630   3.801   0.093 -1.1466 -0.2799 -0.5328
 1240TIP3    H2 3682   6.487   3.765   0.129 -1.0931  0.3272  0.3247
 1241TIP3   OH2 3683   3.954   4.745   1.177 -0.3047  0.1047 -0.1116
 1241TIP3    H1 3684   3.878   4.794   1.208 -0.1774  0.2668 -0.0517
 1241TIP3    H2 3685   3.952   4.663   1.227 -1.5582 -0.7587 -1.5290
 1242TIP3   OH2 3686   5.199   0.239   6.268  0.0003 -0.0350  0.2395
 1242TIP3    H1 3687   5.269   0.301   6.247 -0.9743  0.5288 -1.4024
 1242TIP3    H2 3688   5.127   0.293   6.300  0.4761 -0.6604  2.4644
 1243TIP3   OH2 3689   2.309   5.030   5.725  0.1911  1.0622  0.1189
 1243TIP3    H1 3690   2.331   4.954   5.778 -0.1961  1.5931  1.0489
 1243TIP3    H2 3691   2.394   5.071   5.707  0.2911  1.1336  0.7250
 1244TIP3   OH2 3692   6.731   4.390   0.696 -0.5298 -0.1150 -0.1127
 1244TIP3    H1 3693   6.797   4.372   0.763 -0.4294 -0.5976 -0.3395
 1244TIP3    H2 3694   6.686   4.307   0.683 -0.5705 -0.0195 -0.6181
 1245TIP3   OH2 3695   0.926   6.743   6.233  0.0608  0.3680  0.1000
 1245TIP3    H1 3696   0.892   6.827   6.265  2.5823  1.1374  0.8195
 1245TIP3    H2 3697   0.888   6.678   6.293 -1.4965  1.0105 -0.1537
 1246TIP3   OH2 3698   5.601   4.836   0.752  0.2317  0.1749  0.2435
 1246TIP3    H1 3699   5.533   4.901   0.771  0.6054 -0.2100  3.1013
 1246TIP3    H2 3700   5.647   4.825   0.835  1.0887 -2.6743 -0.5697
 1247TIP3   OH2 3701   1.524   2.442   0.518 -0.2062 -0.2211 -0.2113
 1247TIP3    H1 3702   1.506   2.462   0.610 -0.0010 -0.1697 -0.1826
 1247TIP3    H2 3703   1.462   2.496   0.469  0.3775  0.5337 -0.1365
 1248TIP3   OH2 3704   0.137   5.450   2.634 -0.2449 -0.0647 -0.3184
 1248TIP3    H1 3705   0.204   5.418   2.695 -0.1078  1.8210  0.5662
 1248TIP3    H2 3706   0.057   5.407   2.661  0.1029 -0.3393  0.2867
 1249TIP3   OH2 3707   1.063   3.469   0.459  0.1370  0.4501 -0.0904
 1249TIP3    H1 3708   1.069   3.381   0.495 -2.2424  0.3439  0.1002
 1249TIP3    H2 3709   1.102   3.461   0.372  0.6197 -0.6152  0.2116
 1250TIP3   OH2 3710   3.512   0.068   2.016  0.4107 -0.1336 -0.0555
 1250TIP3    H1 3711   3.509   0.151   2.064 -1.8964 -0.2553  0.0774
 1250TIP3    H2 3712   3.521   0.093   1.924 -1.0823  0.2985 -0.0890
 1251TIP3   OH2 3713   2.205   5.105   1.163 -0.2676 -0.0938  0.3812
 1251TIP3    H1 3714   2.152   5.123   1.085  0.1215  0.5152  0.2603
 1251TIP3    H2 3715   2.293   5.091   1.130  0.4746  2.9491  0.9600
 1252TIP3   OH2 3716   7.791   4.726   1.021  0.1265  0.0125 -0.1706
 1252TIP3    H1 3717   7.807   4.782   1.096 -1.9242 -0.2522  0.5069
 1252TIP3    H2 3718   7.751   4.647   1.058 -1.9561  0.3460 -1.6117
 1253TIP3   OH2 3719   5.493   1.981   4.848  0.1599 -0.0061  0.5363
 1253TIP3    H1 3720   5.588   1.976   4.856  0.2210 -1.5850 -0.8741
 1253TIP3    H2 3721   5.461   1.899   4.884 -0.7138  0.7798  1.5599
 1254TIP3   OH2 3722   7.399   4.087   3.004  0.0407 -0.0718  0.3410
 1254TIP3    H1 3723   7.457   4.104   2.930 -0.1332  0.6743  0.3678
 1254TIP3    H2 3724   7.426   4.001   3.037 -0.0461 -0.5211 -0.7395
 1255TIP3   OH2 3725   7.112   5.106   1.503  0.1971  0.2617  0.2235
 1255TIP3    H1 3726   7.193   5.055   1.512  0.1035  0.3014  1.4330
 1255TIP3    H2 3727   7.048   5.059   1.555 -0.7892 -0.1975 -1.3830
 1256TIP3   OH2 3728   1.190   5.776   2.357 -0.4104  0.3456  0.2636
 1256TIP3    H1 3729   1.224   5.847   2.412 -1.7593  0.1883  1.3403
 1256TIP3    H2 3730   1.268   5.739   2.316  0.6434  0.5604  1.9725
 1257TIP3   OH2 3731   0.451   3.335   0.942  0.0961 -0.0115  0.1355
 1257TIP3    H1 3732   0.364   3.368   0.964 -1.1241 -1.7423 -1.8968
 1257TIP3    H2 3733   0.468   3.369   0.855  1.4145  0.1854  0.4580
 1258TIP3   OH2 3734   1.415   4.897   1.174  0.2561  0.1290  0.2315
 1258TIP3    H1 3735   1.453   4.946   1.247  0.2778 -0.8658  0.9036
 1258TIP3    H2 3736   1.430   4.953   1.098 -1.5738  2.1232  1.2755
 1259TIP3   OH2 3737   6.821   5.420   1.281 -0.0954  0.5906 -0.8492
 1259TIP3    H1 3738   6.788   5.478   1.350 -1.4787  0.0240 -1.0303
 1259TIP3    H2 3739   6.752   5.418   1.215  0.0119 -1.1212 -0.9280
 1260TIP3   OH2 3740   0.872   6.845   1.924  0.5456 -0.2091  0.2114
 1260TIP3    H1 3741   0.886   6.823   1.832 -0.5462 -0.0457 -0.0089
 1260TIP3    H2 3742   0.878   6.761   1.970  0.2326 -0.4191 -0.1280
 1261TIP3   OH2 3743   0.345   3.673   6.106  0.0716 -0.8009  0.1259
 1261TIP3    H1 3744   0.367   3.766   6.114 -2.0976 -0.2173 -0.5658
 1261TIP3    H2 3745   0.430   3.629   6.112  1.0378  1.1409  1.4344
 1262TIP3   OH2 3746   7.381   6.222   1.538  0.2255  0.1165 -0.1775
 1262TIP3    H1 3747   7.462   6.221   1.488  0.5817 -2.3124  0.4030
 1262TIP3    H2 3748   7.393   6.154   1.605 -2.2626 -0.2407 -0.0508
 1263TIP3   OH2 3749   1.908   5.517   1.981 -0.0011 -0.1587  0.4157
 1263TIP3    H1 3750   2.001   5.506   1.961  0.2574 -0.4209  1.7050
 1263TIP3    H2 3751   1.882   5.433   2.020 -1.0831 -0.5114 -1.0494
 1264TIP3   OH2 3752   6.282   0.626   6.225  0.0110 -0.2348  0.1604
 1264TIP3    H1 3753   6.302   0.718   6.241  0.3769 -0.1850 -0.5567
 1264TIP3    H2 3754   6.224   0.601   6.297 -1.4185  1.0028 -0.5387
 1265TIP3   OH2 3755   5.262   1.382   5.545 -0.5031 -0.7873 -0.4204
 1265TIP3    H1 3756   5.239   1.464   5.502  1.2864  0.0480  0.1911
 1265TIP3    H2 3757   5.309   1.408   5.624 -0.5581 -2.3874  0.1537
 1266TIP3   OH2 3758   6.377   7.093   2.558 -0.5611 -0.0000 -0.5749
 1266TIP3    H1 3759   6.311   7.086   2.488 -2.8059  0.5334  1.4241
 1266TIP3    H2 3760   6.376   7.185   2.582  0.5384 -0.1049 -0.1252
 1267TIP3   OH2 3761   0.607   6.576   3.071 -0.2210  0.1118 -0.0304
 1267TIP3    H1 3762   0.558   6.591   2.990  1.8275  0.5036 -1.2233
 1267TIP3    H2 3763   0.579   6.489   3.100 -1.6102  0.3293 -0.6794
 1268TIP3   OH2 3764   0.827   3.436   3.933  0.4835  0.0910 -0.1747
 1268TIP3    H1 3765   0.766   3.400   3.998 -1.4424 -0.3299 -2.1677
 1268TIP3    H2 3766   0.887   3.364   3.914  1.0982  0.2365  1.1738
 1269TIP3   OH2 3767   5.716   3.893   0.141  0.5732 -0.8096 -0.4274
 1269TIP3    H1 3768   5.695   3.923   0.229  0.6059  0.7401 -0.9408
 1269TIP3    H2 3769   5.632   3.869   0.102  0.6686 -2.4809  0.3735
 1270TIP3   OH2 3770   2.234   5.770   1.269  0.0521 -0.1625  0.4591
 1270TIP3    H1 3771   2.170   5.775   1.340 -1.2698  1.2880 -0.8109
 1270TIP3    H2 3772   2.257   5.861   1.250  1.0490 -0.5802 -0.3973
 1271TIP3   OH2 3773   0.862   6.571   1.478 -0.3006 -0.6427  0.3186
 1271TIP3    H1 3774   0.777   6.544   1.442 -1.0065  2.6521 -0.6598
 1271TIP3    H2 3775   0.924   6.559   1.406 -1.3107  3.8092 -1.4354
 1272TIP3   OH2 3776   1.885   4.713   2.091 -0.4796 -0.1099 -0.3478
 1272TIP3    H1 3777   1.825   4.783   2.119  0.4796  1.4257 -2.0758
 1272TIP3    H2 3778   1.828   4.638   2.076 -2.1909  1.6656 -3.1477
 1273TIP3   OH2 3779   2.867   5.437   1.259 -0.3666  0.2022  0.4353
 1273TIP3    H1 3780   2.891   5.380   1.331  0.3578 -0.1082 -0.0461
 1273TIP3    H2 3781   2.946   5.442   1.205 -0.7344  0.8599 -0.0474
 1274TIP3   OH2 3782   0.666   5.296   0.446 -0.4484  0.2153 -0.2104
 1274TIP3    H1 3783   0.606   5.221   0.447  2.4377 -2.1731  0.3368
 1274TIP3    H2 3784   0.733   5.273   0.382  2.6244  0.4694  2.7424
 1275TIP3   OH2 3785   1.934   7.053   0.800 -0.1351  0.1978  0.4718
 1275TIP3    H1 3786   1.920   6.993   0.727 -0.0322 -0.4061  0.9385
 1275TIP3    H2 3787   1.924   6.998   0.878  0.6986  0.6305  0.8931
 1276TIP3   OH2 3788   0.536   5.890   1.003  0.1278 -0.5188 -0.0913
 1276TIP3    H1 3789   0.446   5.887   1.035  0.2565 -2.0140  0.1367
 1276TIP3    H2 3790   0.529   5.932   0.917 -0.6303  0.4171  0.4101
 1277TIP3   OH2 3791   0.588   4.375   2.359  0.5434 -0.5946  0.6889
 1277TIP3    H1 3792   0.652   4.304   2.354 -0.9056 -1.9554  0.9342
 1277TIP3    H2 3793   0.507   4.332   2.387 -0.8036  0.8770 -0.8187
 1278TIP3   OH2 3794   0.973   4.319   4.412  0.4845  0.2687  0.4301
 1278TIP3    H1 3795   0.878   4.310   4.410  0.4119  0.8668  0.9567
 1278TIP3    H2 3796   0.996   4.316   4.505  0.8853  1.0516  0.3611
 1279TIP3   OH2 3797   0.811   5.230   0.212 -0.3296  0.0957 -0.2432
 1279TIP3    H1 3798   0.885   5.287   0.192  0.7312 -0.4659  1.9479
 1279TIP3    H2 3799   0.752   5.240   0.137  2.8922 -1.0108 -3.0635
 1280TIP3   OH2 3800   7.469   0.571   6.060  0.0426  0.1995 -0.3142
 1280TIP3    H1 3801   7.388   0.580   6.009  0.1061 -0.5820 -0.5500
 1280TIP3    H2 3802   7.503   0.485   6.037  0.7736  0.3898  0.0387
 1281TIP3   OH2 3803   1.838   5.415   0.365 -0.2844 -0.2493 -0.1463
 1281TIP3    H1 3804   1.772   5.484   0.349 -2.2763 -1.7570  1.3431
 1281TIP3    H2 3805   1.898   5.422   0.291 -2.3605  0.9060 -1.7741
 1282TIP3   OH2 3806   6.381   3.309   0.771 -0.2121 -0.1625  0.1007
 1282TIP3    H1 3807   6.393   3.387   0.717  0.7967  0.4355  1.1550
 1282TIP3    H2 3808   6.300   3.325   0.819  1.7650  1.8321  2.8961
 1283TIP3   OH2 3809   0.237   2.940   0.323 -0.0816  0.2795 -0.1849
 1283TIP3    H1 3810   0.194   2.970   0.404  0.7960  1.5529 -0.1866
 1283TIP3    H2 3811   0.179   2.871   0.290  0.4490 -1.5522  2.4854
 1284TIP3   OH2 3812   6.158   1.486   4.811 -0.5162  0.4848 -0.0647
 1284TIP3    H1 3813   6.183   1.398   4.839  0.5984 -0.2018 -2.9749
 1284TIP3    H2 3814   6.124   1.474   4.722  1.2567  3.1564 -1.1755
 1285TIP3   OH2 3815   1.697   4.999   0.653 -0.0891 -0.3982  0.5948
 1285TIP3    H1 3816   1.781   5.045   0.663  0.2263  0.3445 -4.2323
 1285TIP3    H2 3817   1.637   5.067   0.622 -1.1142 -2.0099 -1.0138
 1286TIP3   OH2 3818   0.255   5.635   1.031 -0.2349  0.6736 -0.2655
 1286TIP3    H1 3819   0.162   5.639   1.056 -0.8659 -1.0151 -2.1854
 1286TIP3    H2 3820   0.268   5.713   0.977 -0.9771  0.1322 -1.2618
 1287TIP3   OH2 3821   2.892   4.921   2.390 -0.6946 -0.4103  0.4192
 1287TIP3    H1 3822   2.952   4.852   2.420 -0.2143 -0.0626  0.2763
 1287TIP3    H2 3823   2.948   4.999   2.382 -0.8456 -0.4457 -1.1571
 1288TIP3   OH2 3824   1.200   6.188   2.695 -0.2704  0.2781 -0.2498
 1288TIP3    H1 3825   1.181   6.232   2.612  0.1010  0.2697 -0.3401
 1288TIP3    H2 3826   1.272   6.238   2.733  1.1875 -1.1646 -1.0757
 1289TIP3   OH2 3827   3.503   4.541   2.535 -0.4044 -0.2168 -0.5536
 1289TIP3    H1 3828   3.561   4.509   2.465 -1.1021 -0.0163 -1.2221
 1289TIP3    H2 3829   3.491   4.465   2.592  0.1176 -0.3987 -0.6774
 1290TIP3   OH2 3830   2.909   3.207   1.255 -0.5479  0.4251 -0.0343
 1290TIP3    H1 3831   2.857   3.139   1.211  0.7877 -2.3273  2.4498
 1290TIP3    H2 3832   2.982   3.158   1.294  2.0981  3.7293 -0.6417
 1291TIP3   OH2 3833   3.220   3.622   0.720  0.1158  0.3986 -0.4995
 1291TIP3    H1 3834   3.132   3.608   0.753 -0.3328 -0.3115 -2.0004
 1291TIP3    H2 3835   3.209   3.653   0.631  1.4081 -1.1407 -1.2255
 1292TIP3   OH2 3836   6.745   2.051   5.131 -0.2808 -0.1052  0.6600
 1292TIP3    H1 3837   6.827   2.082   5.093 -1.2080  0.3358 -1.0172
 1292TIP3    H2 3838   6.753   2.070   5.225  1.5459 -0.1288  0.5143
 1293TIP3   OH2 3839   0.262   3.738   1.799  0.7096 -0.2470 -0.1899
 1293TIP3    H1 3840   0.321   3.791   1.745  0.8186  0.3474  0.5073
 1293TIP3    H2 3841   0.253   3.787   1.881 -1.4640  0.1427 -0.6054
 1294TIP3   OH2 3842   6.225   4.545   0.563 -0.4980  0.1066 -0.2419
 1294TIP3    H1 3843   6.273   4.497   0.630 -1.3196 -2.1419 -1.2297
 1294TIP3    H2 3844   6.160   4.596   0.612  0.0996 -0.1079  0.7855
 1295TIP3   OH2 3845   3.686   3.504   2.145 -0.6504 -0.4572 -0.1567
 1295TIP3    H1 3846   3.623   3.436   2.169 -1.1077  0.6599  1.9358
 1295TIP3    H2 3847   3.769   3.458   2.134 -0.9593 -1.3686  1.2426
 1296TIP3   OH2 3848   6.859   5.107   1.713  0.6619  0.1938 -0.0416
 1296TIP3    H1 3849   6.786   5.067   1.761  0.1286  2.2638  0.9391
 1296TIP3    H2 3850   6.928   5.117   1.778  0.5228  1.5019 -0.0674
 1297TIP3   OH2 3851   1.708   5.238   1.760 -0.1284  0.5066  0.5870
 1297TIP3    H1 3852   1.710   5.333   1.773  0.4765  0.4506  0.9604
 1297TIP3    H2 3853   1.727   5.202   1.846 -1.6084  0.0184  0.7213
 1298TIP3   OH2 3854   0.926   6.065   0.602 -0.2690 -0.0472 -0.5232
 1298TIP3    H1 3855   0.985   6.076   0.527 -1.1837 -0.1148 -1.2531
 1298TIP3    H2 3856   0.900   6.153   0.625 -1.6074 -0.1373 -1.5961
 1299TIP3   OH2 3857   2.028   4.910   1.249 -0.0739  0.1813  0.0771
 1299TIP3    H1 3858   2.085   4.983   1.229 -0.8550  0.7799  0.0130
 1299TIP3    H2 3859   1.951   4.949   1.291 -0.8110 -0.5104 -0.5945
 1300TIP3   OH2 3860   2.230   4.863   2.686  0.0338  0.1628 -0.6496
 1300TIP3    H1 3861   2.146   4.818   2.679 -1.7225  3.2885 -0.5532
 1300TIP3    H2 3862   2.289   4.798   2.725 -2.6001 -1.7373  0.3050
 1301TIP3   OH2 3863   2.551   5.425   0.344  0.0551 -0.4466  0.1391
 1301TIP3    H1 3864   2.459   5.446   0.326 -0.5440 -1.9117  1.4020
 1301TIP3    H2 3865   2.600   5.498   0.306 -1.7321  1.1880  0.8883
 1302TIP3   OH2 3866   2.547   5.388   4.149 -0.3267 -0.2907  0.1466
 1302TIP3    H1 3867   2.549   5.361   4.058 -0.3167 -1.5870  0.5159
 1302TIP3    H2 3868   2.521   5.480   4.147 -3.2865 -1.1034 -1.0079
 1303TIP3   OH2 3869   3.516   5.177   1.274 -0.1541  0.2983  0.4231
 1303TIP3    H1 3870   3.529   5.139   1.188  3.4940  0.3677  0.8363
 1303TIP3    H2 3871   3.490   5.104   1.330 -1.3395  0.0328 -0.4650
 1304TIP3   OH2 3872   4.508   4.096   2.914 -0.0919  0.5519 -0.3493
 1304TIP3    H1 3873   4.567   4.020   2.920  0.0754  0.7346  0.4091
 1304TIP3    H2 3874   4.442   4.070   2.850  0.6307  0.2188 -0.9714
 1305TIP3   OH2 3875   6.188   0.172   6.336  0.4313  0.1433  1.0849
 1305TIP3    H1 3876   6.149   0.110   6.274  2.8150 -2.5876  2.2092
 1305TIP3    H2 3877   6.263   0.208   6.288  1.3409 -0.7909  1.7798
 1306TIP3   OH2 3878   1.380   4.415   0.331  0.3552  0.0995 -0.3612
 1306TIP3    H1 3879   1.452   4.353   0.339  0.6116  0.4967  0.5350
 1306TIP3    H2 3880   1.412   4.495   0.374 -1.6796 -0.6576  2.7589
 1307TIP3   OH2 3881   0.980   2.331   6.150  0.1670 -0.1975  0.2174
 1307TIP3    H1 3882   0.901   2.294   6.109 -0.3142  2.9162 -1.8833
 1307TIP3    H2 3883   0.955   2.348   6.240 -1.0068 -0.9027  0.0342
 1308TIP3   OH2 3884   1.825   4.645   2.511  0.3530 -0.1093  0.4878
 1308TIP3    H1 3885   1.846   4.722   2.566 -0.6231  1.0835 -0.7816
 1308TIP3    H2 3886   1.730   4.645   2.506  0.4366 -0.0978 -1.3500
 1309TIP3   OH2 3887   1.862   5.788   1.325 -0.0781 -0.0224 -0.1817
 1309TIP3    H1 3888   1.850   5.694   1.336 -0.0878  0.1353  1.1946
 1309TIP3    H2 3889   1.870   5.822   1.414  1.6360  1.0467 -0.7215
 1310TIP3   OH2 3890   1.517   2.836   5.288 -0.4249 -0.4333  0.2039
 1310TIP3    H1 3891   1.450   2.903   5.305 -2.0478 -1.9651  0.0272
 1310TIP3    H2 3892   1.466   2.757   5.269  1.4659 -1.6316  0.0946
 1311TIP3   OH2 3893   0.914   7.225   1.283 -0.0463 -0.0579  0.5872
 1311TIP3    H1 3894   0.987   7.285   1.272 -0.4950  0.2683 -0.6836
 1311TIP3    H2 3895   0.864   7.260   1.356  1.0937 -0.3160  1.4951
 1312TIP3   OH2 3896   2.702   5.061   1.322 -0.5300  0.3588  0.8127
 1312TIP3    H1 3897   2.697   5.122   1.249  1.4838 -0.2073  0.1695
 1312TIP3    H2 3898   2.703   5.117   1.400 -1.7224  0.9974  0.3863
 1313TIP3   OH2 3899   6.048   7.302   4.723  0.2551  0.2819  0.3880
 1313TIP3    H1 3900   6.076   7.265   4.639  1.6004 -0.6392  1.2138
 1313TIP3    H2 3901   6.021   7.226   4.774 -3.4373  1.0999 -0.2105
 1314TIP3   OH2 3902   3.983   0.084   0.699 -0.1466  0.5356 -0.1640
 1314TIP3    H1 3903   3.901   0.126   0.725 -0.1967  0.7318 -0.6293
 1314TIP3    H2 3904   3.964  -0.010   0.699 -0.4949  0.6055 -0.6989
 1315TIP3   OH2 3905   1.906   5.655   1.043  0.0590  0.2025 -0.1820
 1315TIP3    H1 3906   1.897   5.719   0.973  0.7968  0.0598 -0.4125
 1315TIP3    H2 3907   1.857   5.692   1.117 -1.7898 -0.2309 -1.1583
 1316TIP3   OH2 3908   0.734   5.030   1.170  0.1933  0.2631  0.1495
 1316TIP3    H1 3909   0.780   4.946   1.165  1.5886  0.9419  1.3457
 1316TIP3    H2 3910   0.737   5.064   1.081 -2.0924 -1.8277 -0.7928
 1317TIP3   OH2 3911   0.386   4.235   0.612  0.2839 -0.5055  0.5878
 1317TIP3    H1 3912   0.336   4.309   0.648 -0.2897 -0.2394 -0.7424
 1317TIP3    H2 3913   0.462   4.275   0.570 -0.4452 -0.5962 -0.8415
 1318TIP3   OH2 3914   1.016   4.407   0.701 -0.4406  0.5794 -0.0865
 1318TIP3    H1 3915   1.081   4.462   0.657 -1.4934  1.4005 -0.6517
 1318TIP3    H2 3916   1.021   4.433   0.793  0.5889  0.0619  0.0139
 1319TIP3   OH2 3917   4.650   5.848   6.173 -0.0593 -0.0104  0.0552
 1319TIP3    H1 3918   4.626   5.929   6.218  1.8634  0.8014 -0.3212
 1319TIP3    H2 3919   4.728   5.817   6.220 -0.1839 -1.1021 -0.4448
 1320TIP3   OH2 3920   4.342   5.995   6.207  0.3174  0.1828  0.1321
 1320TIP3    H1 3921   4.365   5.988   6.114 -1.1730  1.8482 -0.3923
 1320TIP3    H2 3922   4.420   6.030   6.249  0.6277  0.4588 -0.6708
 1321TIP3   OH2 3923   2.118   6.009   0.578  0.1079 -0.3258  0.0523
 1321TIP3    H1 3924   2.110   6.087   0.523  0.7068 -0.3935 -0.1312
 1321TIP3    H2 3925   2.096   6.039   0.666 -1.6406 -0.3854 -0.3429
 1322TIP3   OH2 3926   2.038   5.021   1.908 -0.0788 -0.3118 -0.8115
 1322TIP3    H1 3927   2.060   5.001   1.817 -0.8210  1.0292 -1.2973
 1322TIP3    H2 3928   2.078   4.950   1.958  1.4404 -0.3777 -2.0643
 1323TIP3   OH2 3929   2.555   4.978   0.830 -0.5103 -0.0965 -0.3680
 1323TIP3    H1 3930   2.558   5.002   0.737  0.3626  2.1896  0.2304
 1323TIP3    H2 3931   2.633   4.924   0.843 -0.9263 -0.8748 -1.0749
 1324TIP3   OH2 3932   1.160   3.813   1.427 -0.4129  0.1369  0.3009
 1324TIP3    H1 3933   1.074   3.780   1.400 -0.2163  1.5254 -2.1271
 1324TIP3    H2 3934   1.174   3.773   1.513 -3.7373  0.3145  1.0208
 1325TIP3   OH2 3935   0.557   2.796   4.475  0.2824  0.6594  0.4125
 1325TIP3    H1 3936   0.548   2.717   4.422  0.2975 -0.1369  1.5726
 1325TIP3    H2 3937   0.589   2.862   4.414 -3.3733  0.8017 -1.4644
 1326TIP3   OH2 3938   1.288   5.916   0.422 -0.6071 -0.2396 -0.3246
 1326TIP3    H1 3939   1.330   5.985   0.474 -0.5443 -0.3538 -0.2245
 1326TIP3    H2 3940   1.245   5.860   0.487  1.6670 -1.8807 -0.1840
 1327TIP3   OH2 3941   1.009   4.544   2.298 -1.0099  0.2032  0.3787
 1327TIP3    H1 3942   1.011   4.484   2.373  1.4262 -0.4586 -0.1545
 1327TIP3    H2 3943   0.976   4.491   2.226  0.5742 -0.3929  0.0512
 1328TIP3   OH2 3944   1.263   5.968   3.295  0.0347 -0.6133  0.3002
 1328TIP3    H1 3945   1.253   6.031   3.366  0.9544 -1.2719  1.0347
 1328TIP3    H2 3946   1.313   6.014   3.228 -0.7965 -0.0013  0.0966
 1329TIP3   OH2 3947   6.835   1.341   6.293  0.3734  0.2142 -0.0751
 1329TIP3    H1 3948   6.741   1.357   6.296 -0.2210 -1.5321 -4.4771
 1329TIP3    H2 3949   6.872   1.421   6.255  0.4529  0.2796  0.1405
 1330TIP3   OH2 3950   1.149   5.882   1.691 -0.2801  0.0737  0.6807
 1330TIP3    H1 3951   1.210   5.809   1.676 -0.7142  0.0758 -1.1347
 1330TIP3    H2 3952   1.195   5.958   1.657 -0.6044  0.3613  0.8921
 1331TIP3   OH2 3953   1.548   4.725   0.139  0.3834 -0.0840  0.1617
 1331TIP3    H1 3954   1.586   4.808   0.113 -3.2290  0.9925 -2.0056
 1331TIP3    H2 3955   1.498   4.745   0.219 -0.3681 -0.1828 -0.2772
 1332TIP3   OH2 3956   4.592   6.632   5.655 -0.5615  0.1541 -0.4694
 1332TIP3    H1 3957   4.564   6.553   5.608 -0.4819  0.1704 -0.5435
 1332TIP3    H2 3958   4.642   6.681   5.591 -0.3768  0.1343 -0.3391
 1333TIP3   OH2 3959   1.554   6.067   0.076 -0.0962  0.9093 -0.1247
 1333TIP3    H1 3960   1.642   6.037   0.097 -0.1941  1.2445  0.7694
 1333TIP3    H2 3961   1.565   6.159   0.054  0.0189  0.5436 -1.6622
 1334TIP3   OH2 3962   0.038   6.870   1.365  0.1208 -0.4381 -0.3056
 1334TIP3    H1 3963   0.083   6.820   1.297  0.3171 -2.7990  1.4818
 1334TIP3    H2 3964  -0.055   6.855   1.348  0.0332  2.4479 -2.5473
 1335TIP3   OH2 3965   0.748   5.730   1.035 -0.1189 -0.7308  0.1433
 1335TIP3    H1 3966   0.674   5.788   1.017  0.8891 -0.0982 -2.0789
 1335TIP3    H2 3967   0.717   5.643   1.011 -0.4669 -0.6126  0.1574
 1336TIP3   OH2 3968   0.182   0.729   5.770  0.4977  0.3000 -0.1391
 1336TIP3    H1 3969   0.160   0.638   5.791 -1.7185  0.9089  0.3493
 1336TIP3    H2 3970   0.134   0.781   5.835  2.3186  1.8011  0.0388
 1337TIP3   OH2 3971   2.702   3.895   0.357 -1.4020  0.1823 -0.0632
 1337TIP3    H1 3972   2.694   3.804   0.330 -0.2435  0.0235  0.1254
 1337TIP3    H2 3973   2.713   3.892   0.452  0.6940  0.3906 -0.2783
 1338TIP3   OH2 3974   6.929   1.969   6.040 -0.3847 -0.0951  0.6908
 1338TIP3    H1 3975   6.962   1.887   6.075 -0.5012 -0.8679 -0.9666
 1338TIP3    H2 3976   7.006   2.025   6.032  0.2972 -1.3214 -1.6065
 1339TIP3   OH2 3977   1.553   4.929   1.775  0.4564  0.4796  0.5039
 1339TIP3    H1 3978   1.470   4.965   1.806 -0.0887 -0.5141  0.2104
 1339TIP3    H2 3979   1.617   4.958   1.840 -0.3198  0.2492  1.3828
 1340TIP3   OH2 3980   1.089   5.743   3.974 -0.9566 -0.3187  0.4244
 1340TIP3    H1 3981   1.164   5.730   4.032 -1.0222  0.5035  0.7027
 1340TIP3    H2 3982   1.126   5.780   3.894 -0.4689 -4.3330 -1.2697
 1341TIP3   OH2 3983   2.255   6.645   1.679  0.4064  0.1281  0.7360
 1341TIP3    H1 3984   2.266   6.550   1.668 -1.9543 -0.0248 -0.7169
 1341TIP3    H2 3985   2.201   6.671   1.604  1.9165  2.8158  0.5224
 1342TIP3   OH2 3986   7.421   5.263   0.886 -0.0381  0.2791  0.4754
 1342TIP3    H1 3987   7.350   5.203   0.909  0.8283 -0.8338  0.3574
 1342TIP3    H2 3988   7.386   5.315   0.814 -0.3196 -1.1107 -0.4219
 1343TIP3   OH2 3989   2.769   3.926   0.631 -0.6710  0.5521  0.4431
 1343TIP3    H1 3990   2.850   3.965   0.664  0.4098  0.1296 -1.6454
 1343TIP3    H2 3991   2.712   3.923   0.707  1.2197  1.0074  1.9241
 1344TIP3   OH2 3992   1.757   4.620   0.666  0.4776 -0.0735  0.2712
 1344TIP3    H1 3993   1.837   4.587   0.626  1.1791  0.1990  1.4424
 1344TIP3    H2 3994   1.701   4.644   0.591  1.8093  0.5483 -0.5439
 1345TIP3   OH2 3995   2.057   6.288   2.014 -0.0123 -0.1335  0.5752
 1345TIP3    H1 3996   2.119   6.339   2.065  0.3025  0.4307 -0.3505
 1345TIP3    H2 3997   2.111   6.228   1.963 -0.2502  0.0076  0.1493
 1346TIP3   OH2 3998   0.317   4.604   0.126 -0.1625 -0.3348  0.1278
 1346TIP3    H1 3999   0.268   4.683   0.152  0.9171  0.0413  1.0505
 1346TIP3    H2 4000   0.357   4.627   0.043 -0.9868 -0.4000 -0.2902
 1347TIP3   OH2 4001   4.113   6.629   1.470  0.0063 -0.1147 -0.2461
 1347TIP3    H1 4002   4.164   6.582   1.536 -1.2696  0.0058  0.8522
 1347TIP3    H2 4003   4.028   6.644   1.512 -1.1305 -0.8092 -2.2361
 1348TIP3   OH2 4004   0.328   2.015   5.276 -0.0136  0.1241  0.0022
 1348TIP3    H1 4005   0.244   2.060   5.261 -1.3338 -1.9524  0.9961
 1348TIP3    H2 4006   0.314   1.927   5.243  1.9856 -0.0873 -0.3277
 1349TIP3   OH2 4007   3.079   4.723   2.127 -0.2094  0.0828 -0.4484
 1349TIP3    H1 4008   2.984   4.734   2.118 -0.1366 -0.6304 -2.4231
 1349TIP3    H2 4009   3.090   4.633   2.158 -0.1567 -0.0212 -0.7678
 1350TIP3   OH2 4010   0.434   5.986   1.384 -0.1090  0.0547 -0.3416
 1350TIP3    H1 4011   0.359   5.980   1.324 -1.1625  2.4733  0.6820
 1350TIP3    H2 4012   0.492   6.050   1.342  1.0164 -1.1913 -0.7113
 1351TIP3   OH2 4013   2.740   5.231   0.635  0.2520 -0.3938 -0.4098
 1351TIP3    H1 4014   2.670   5.184   0.590  1.4152 -2.0164 -0.5588
 1351TIP3    H2 4015   2.813   5.232   0.572  0.6320  0.5958  0.0343
 1352TIP3   OH2 4016   1.820   6.460   0.104 -0.4550  0.3764  0.6657
 1352TIP3    H1 4017   1.772   6.522   0.158 -2.4655 -1.1621  0.6768
 1352TIP3    H2 4018   1.891   6.429   0.161 -1.7737 -0.2544  1.9990
 1353TIP3   OH2 4019   3.128   4.265   0.039 -0.2449  0.5558 -0.2966
 1353TIP3    H1 4020   3.169   4.311   0.112  0.7714 -0.2769 -0.3333
 1353TIP3    H2 4021   3.131   4.173   0.063 -1.5404  0.4229 -0.5900
 1354TIP3   OH2 4022   1.410   3.967   1.199 -0.3322  0.0628  0.3268
 1354TIP3    H1 4023   1.461   4.047   1.189  0.1179 -0.3112 -0.4392
 1354TIP3    H2 4024   1.398   3.935   1.110 -0.6981 -0.6014  0.6101
 1355TIP3   OH2 4025   1.172   3.853   0.454 -0.3382  0.1759 -0.0281
 1355TIP3    H1 4026   1.103   3.830   0.391  0.7110  0.9173 -1.4768
 1355TIP3    H2 4027   1.234   3.780   0.449 -1.2655 -0.7640  1.6869
 1356TIP3   OH2 4028   2.368   5.461   0.780  0.4007 -0.0363 -0.2516
 1356TIP3    H1 4029   2.409   5.416   0.706 -1.1399 -0.7748 -0.6730
 1356TIP3    H2 4030   2.300   5.400   0.811 -0.6486  1.3218  0.1710
 1357TIP3   OH2 4031   2.534   4.993   0.552 -0.4079 -0.2806  0.3263
 1357TIP3    H1 4032   2.452   5.013   0.508 -0.4779 -0.7792  0.2210
 1357TIP3    H2 4033   2.544   4.898   0.541 -0.8467 -0.5510  2.1187
 1358TIP3   OH2 4034   2.220   0.038   2.418  0.1935 -0.4773  1.0387
 1358TIP3    H1 4035   2.184   0.086   2.493 -1.4309  0.2317 -0.1443
 1358TIP3    H2 4036   2.155  -0.030   2.401  0.0529 -0.0012 -0.3426
 1359TIP3   OH2 4037   0.420   5.789   3.027  0.1981 -0.2903  0.0911
 1359TIP3    H1 4038   0.375   5.803   3.110  0.6213 -0.3665  0.3336
 1359TIP3    H2 4039   0.488   5.725   3.047  0.1369 -0.4985 -0.3716
 1360TIP3   OH2 4040   1.792   6.227   2.648 -0.2019 -0.0772 -0.4331
 1360TIP3    H1 4041   1.783   6.148   2.703  0.9568  0.7733  1.0378
 1360TIP3    H2 4042   1.852   6.201   2.579  0.2820 -0.4687  0.1243
 1361TIP3   OH2 4043   0.987   6.701   3.315  0.0022 -0.1961 -0.0769
 1361TIP3    H1 4044   1.057   6.759   3.285  0.9609 -1.4153 -0.2253
 1361TIP3    H2 4045   0.944   6.673   3.234 -0.9989  0.9610  0.0448
 1362TIP3   OH2 4046   1.212   6.406   2.396 -0.0291 -0.2298 -0.1788
 1362TIP3    H1 4047   1.157   6.328   2.390 -0.8740  0.3921 -0.8534
 1362TIP3    H2 4048   1.154   6.472   2.435  0.6562  0.0692  0.3272
 1363TIP3   OH2 4049   2.658   5.087   1.726  0.1623 -0.4159 -0.1712
 1363TIP3    H1 4050   2.564   5.100   1.738  0.3829  1.7767 -0.5890
 1363TIP3    H2 4051   2.693   5.080   1.815  0.0415  2.2947  0.1317
 1364TIP3   OH2 4052   0.593   5.994   2.915 -0.1968 -0.4129 -0.3164
 1364TIP3    H1 4053   0.537   6.002   2.838 -2.2128  0.7574  1.2540
 1364TIP3    H2 4054   0.569   5.910   2.954  0.4881 -0.7767 -0.6470
 1365TIP3   OH2 4055   7.305   7.370   4.279  0.3931 -0.0363  0.2634
 1365TIP3    H1 4056   7.379   7.374   4.339 -2.5280  1.8361  3.9569
 1365TIP3    H2 4057   7.265   7.285   4.297  0.6572 -0.3140 -0.4707
 1366TIP3   OH2 4058   0.931   6.451   1.705  0.3437 -0.6268  0.2772
 1366TIP3    H1 4059   0.906   6.361   1.686  2.5550 -1.0408 -0.8280
 1366TIP3    H2 4060   0.942   6.492   1.620  0.1908  0.4608  0.7677
 1367TIP3   OH2 4061   4.588   3.485   5.459 -0.1912 -0.3235  0.3698
 1367TIP3    H1 4062   4.639   3.404   5.462  0.4198  0.0423 -0.0602
 1367TIP3    H2 4063   4.616   3.535   5.535  0.4808  0.1035 -0.1498
 1368TIP3   OH2 4064   6.218   1.772   6.121  0.3335 -0.6018  0.3375
 1368TIP3    H1 4065   6.176   1.809   6.198 -0.2076  0.6487 -0.5430
 1368TIP3    H2 4066   6.145   1.736   6.069  0.5451 -0.1704 -0.2612
 1369TIP3   OH2 4067   4.825   3.582   6.313 -0.3621  0.2504  0.3253
 1369TIP3    H1 4068   4.834   3.552   6.404 -0.2600  3.6179  1.4833
 1369TIP3    H2 4069   4.887   3.654   6.305 -1.1805  0.7283 -2.0945
 1370TIP3   OH2 4070   4.083   2.929   0.631 -0.3380  1.0230  0.0866
 1370TIP3    H1 4071   4.102   3.016   0.594  1.8156  0.1071 -1.0610
 1370TIP3    H2 4072   4.053   2.947   0.720 -0.0613  2.9540 -0.1844
 1371TIP3   OH2 4073   1.752   4.288   0.681  0.3389  0.0606 -0.1140
 1371TIP3    H1 4074   1.702   4.267   0.602  2.0238  0.0461 -1.1891
 1371TIP3    H2 4075   1.805   4.364   0.656 -1.6404  2.2528  2.0654
 1372TIP3   OH2 4076   2.464   6.816   1.789  0.6057 -0.0064 -0.7107
 1372TIP3    H1 4077   2.407   6.757   1.739 -0.0785  0.7562 -0.8518
 1372TIP3    H2 4078   2.424   6.902   1.777 -0.9747 -0.1122  3.0647
 1373TIP3   OH2 4079   0.259   4.060   1.473  0.1395  0.0582  0.0021
 1373TIP3    H1 4080   0.237   4.142   1.429  0.4549  0.3768  0.4350
 1373TIP3    H2 4081   0.175   4.019   1.491 -0.0513  0.7703  0.7013
 1374TIP3   OH2 4082   3.460   5.673   1.777 -0.2733  0.2081  0.0133
 1374TIP3    H1 4083   3.373   5.667   1.816 -0.0992 -0.5674  0.2872
 1374TIP3    H2 4084   3.447   5.723   1.696 -1.3056 -1.5754 -0.9556
 1375TIP3   OH2 4085   3.737   5.120   3.431 -0.1738  0.2902  0.2739
 1375TIP3    H1 4086   3.699   5.207   3.427 -1.1019 -0.1210 -0.1718
 1375TIP3    H2 4087   3.831   5.134   3.420 -0.4116  1.1580 -0.7367
 1376TIP3   OH2 4088   5.881   2.466   5.080  0.7624  0.2847  0.1540
 1376TIP3    H1 4089   5.835   2.507   5.006  0.7703 -1.3671 -0.7856
 1376TIP3    H2 4090   5.823   2.481   5.155 -2.3187 -3.2728 -1.3143
 1377TIP3   OH2 4091   1.066   5.899   4.451 -0.0052  0.4770 -0.0374
 1377TIP3    H1 4092   1.047   5.910   4.544 -0.8144  1.6960 -0.3273
 1377TIP3    H2 4093   1.118   5.819   4.446  1.3513  1.2344  1.6384
 1378TIP3   OH2 4094   7.687   2.668   0.681 -0.0400  0.5559 -0.2670
 1378TIP3    H1 4095   7.626   2.724   0.633  0.5488  0.8625 -0.6669
 1378TIP3    H2 4096   7.745   2.633   0.613 -0.9407 -1.2320 -0.1447
 1379TIP3   OH2 4097   1.911   3.143   4.513  0.5413  0.0284  0.7432
 1379TIP3    H1 4098   1.997   3.181   4.535  0.6661  0.7844 -0.9712
 1379TIP3    H2 4099   1.928   3.050   4.502  1.3307  0.3261 -0.5449
 1380TIP3   OH2 4100   6.357   1.649   0.726 -0.0125  0.2701 -0.4250
 1380TIP3    H1 4101   6.263   1.667   0.721 -0.0432  0.2611  0.1604
 1380TIP3    H2 4102   6.380   1.664   0.817  0.4310 -0.3352 -0.4356
 1381TIP3   OH2 4103   0.699   2.466   5.169  0.1019  0.0580  0.2336
 1381TIP3    H1 4104   0.604   2.459   5.180  0.0076  0.4815 -0.3036
 1381TIP3    H2 4105   0.732   2.382   5.200 -0.2853  0.6235  2.2373
 1382TIP3   OH2 4106   2.326   4.925   0.010  0.0229 -0.3090 -0.1631
 1382TIP3    H1 4107   2.416   4.923  -0.023  0.0751 -0.0968 -0.0365
 1382TIP3    H2 4108   2.300   4.833   0.018 -0.1753 -0.3587 -1.3209
 1383TIP3   OH2 4109   0.051   4.667   0.752 -0.0914  0.1643 -0.9299
 1383TIP3    H1 4110  -0.031   4.654   0.704 -1.1501  0.9059  0.6407
 1383TIP3    H2 4111   0.024   4.709   0.834  2.0026  1.5606 -0.9368
 1384TIP3   OH2 4112   3.135   5.059   0.310 -0.0801 -0.3380 -0.0253
 1384TIP3    H1 4113   3.171   5.054   0.221 -0.0378 -0.6136  0.0061
 1384TIP3    H2 4114   3.048   5.020   0.303 -0.3906  0.3641 -0.1088
 1385TIP3   OH2 4115   4.292   5.258   1.288 -0.1005 -0.5337 -0.0076
 1385TIP3    H1 4116   4.258   5.236   1.201  1.1599  0.0329 -0.6685
 1385TIP3    H2 4117   4.386   5.271   1.274 -0.0124  0.3400  1.2993
 1386TIP3   OH2 4118   1.720   4.246   1.539 -0.2143  0.2521  0.0716
 1386TIP3    H1 4119   1.638   4.201   1.519  0.9290 -1.6435 -0.4735
 1386TIP3    H2 4120   1.787   4.177   1.535  1.5002  1.8874 -0.1825
 1387TIP3   OH2 4121   2.350   4.093   0.845  0.3934 -0.7720 -0.2356
 1387TIP3    H1 4122   2.280   4.038   0.880 -0.1865 -0.3114 -0.6556
 1387TIP3    H2 4123   2.348   4.077   0.750  0.5350 -0.3931 -0.3035
 1388TIP3   OH2 4124   3.136   5.757   0.250 -0.4746 -0.5636  0.4629
 1388TIP3    H1 4125   3.187   5.693   0.299 -1.0307 -1.0395  0.4238
 1388TIP3    H2 4126   3.200   5.798   0.191 -0.0744 -0.9356  0.6314
 1389TIP3   OH2 4127   2.503   4.494   0.886  0.7272 -0.5763  0.3383
 1389TIP3    H1 4128   2.544   4.522   0.804 -0.8791  2.6469  0.5540
 1389TIP3    H2 4129   2.414   4.469   0.860  0.0097  1.0677  1.1607
 1390TIP3   OH2 4130   2.791   5.754   1.712  0.4165  0.3766  0.4243
 1390TIP3    H1 4131   2.710   5.704   1.707  0.6484 -0.0027  0.4484
 1390TIP3    H2 4132   2.852   5.708   1.654  1.3007 -0.6340  2.1352
 1391TIP3   OH2 4133   4.090   4.193   1.242  0.2483 -0.4110 -0.6787
 1391TIP3    H1 4134   4.026   4.124   1.261  1.5473 -1.5205 -0.2111
 1391TIP3    H2 4135   4.095   4.195   1.147  0.5730 -1.3343 -0.6897
 1392TIP3   OH2 4136   7.682   0.436   5.251 -0.0142 -0.2036 -0.0902
 1392TIP3    H1 4137   7.650   0.472   5.168 -2.1621 -0.3231  0.6564
 1392TIP3    H2 4138   7.703   0.512   5.304  0.0450 -0.1118 -0.2453
 1393TIP3   OH2 4139   0.234   2.961   4.789 -0.0400 -0.0063 -0.0816
 1393TIP3    H1 4140   0.235   3.007   4.873  0.3989  1.4625 -0.8703
 1393TIP3    H2 4141   0.143   2.966   4.760 -0.4654 -1.6366  0.8823
 1394TIP3   OH2 4142   2.176   4.701   1.199  0.2659  0.1230  0.0812
 1394TIP3    H1 4143   2.124   4.623   1.179  0.7576  0.2235 -1.6735
 1394TIP3    H2 4144   2.111   4.765   1.229 -0.3866 -0.3793 -0.2173
 1395TIP3   OH2 4145   1.426   4.818   2.606 -0.1319 -0.1106  0.2374
 1395TIP3    H1 4146   1.480   4.751   2.565  0.2604 -0.0715  0.6974
 1395TIP3    H2 4147   1.343   4.774   2.625 -0.1443 -0.2587 -0.1431
 1396TIP3   OH2 4148   3.963   1.860   6.120  0.0248  0.5438  0.0389
 1396TIP3    H1 4149   4.003   1.879   6.035  2.1987  0.0669  0.9407
 1396TIP3    H2 4150   3.968   1.943   6.167 -1.2886  0.8395 -0.3225
 1397TIP3   OH2 4151   2.215   3.341   0.395 -0.0756 -0.0917  0.2257
 1397TIP3    H1 4152   2.200   3.283   0.470  0.3615 -0.7173 -0.1612
 1397TIP3    H2 4153   2.174   3.296   0.321  0.6498 -0.1219 -0.1636
 1398TIP3   OH2 4154   1.664   5.658   0.415 -0.5682  0.0669 -0.4751
 1398TIP3    H1 4155   1.737   5.720   0.425 -0.3583 -0.2695  0.1176
 1398TIP3    H2 4156   1.627   5.651   0.503 -2.0887  1.1692 -1.0184
 1399TIP3   OH2 4157   2.189   2.851   0.208  0.1674 -0.4888 -0.2675
 1399TIP3    H1 4158   2.105   2.883   0.243 -0.0883 -0.7344 -0.6558
 1399TIP3    H2 4159   2.170   2.762   0.179  0.7514 -0.8099  0.3309
 1400TIP3   OH2 4160   2.430   6.311   3.328  0.2378  0.0819 -0.3684
 1400TIP3    H1 4161   2.510   6.334   3.281  0.3557 -1.5257 -0.9899
 1400TIP3    H2 4162   2.359   6.337   3.270  0.3859 -2.2663 -1.6834
 1401TIP3   OH2 4163   0.857   5.476   5.205  0.0313  0.4454  0.8064
 1401TIP3    H1 4164   0.833   5.555   5.253  1.1411  1.4219 -0.2079
 1401TIP3    H2 4165   0.891   5.508   5.121 -0.2093 -1.1421  0.0873
 1402TIP3   OH2 4166   3.138   4.437   0.328 -0.4382 -0.4765 -0.0167
 1402TIP3    H1 4167   3.124   4.532   0.329 -1.8538 -0.6764  0.6513
 1402TIP3    H2 4168   3.056   4.400   0.363  0.7201 -1.8637  1.3077
 1403TIP3   OH2 4169   4.565   0.344   1.428 -0.2203 -0.0628  0.5094
 1403TIP3    H1 4170   4.569   0.383   1.341  0.6202 -0.7888  0.2137
 1403TIP3    H2 4171   4.496   0.278   1.421  0.1789 -0.4564  0.2496
 1404TIP3   OH2 4172   6.699   6.023   2.492 -0.1064  0.2736  0.7561
 1404TIP3    H1 4173   6.645   5.972   2.551 -0.0783  0.6199  1.0857
 1404TIP3    H2 4174   6.703   6.110   2.532 -0.5696  0.6730 -0.0579
 1405TIP3   OH2 4175   1.229   4.992   1.542 -0.1360 -0.1053  0.0013
 1405TIP3    H1 4176   1.203   4.947   1.622  0.9242 -0.0884  0.3599
 1405TIP3    H2 4177   1.304   4.942   1.509  0.7308  1.0926  0.1361
 1406TIP3   OH2 4178   6.409   2.210   5.690  0.6157  0.3737  0.2449
 1406TIP3    H1 4179   6.327   2.260   5.685  0.9235  0.9900  1.3473
 1406TIP3    H2 4180   6.474   2.274   5.718  1.2685 -0.3726  0.4339
 1407TIP3   OH2 4181   2.293   5.481   0.335  0.1095  0.0880 -0.3328
 1407TIP3    H1 4182   2.245   5.563   0.337  0.9057  0.5439  1.0284
 1407TIP3    H2 4183   2.240   5.421   0.388 -0.1367 -0.0952 -0.7804
 1408TIP3   OH2 4184   1.795   5.277   2.072  0.5502  0.0038  0.4365
 1408TIP3    H1 4185   1.845   5.202   2.104  2.1131  0.1739 -1.5529
 1408TIP3    H2 4186   1.728   5.290   2.139  1.6901 -1.6992  1.9762
 1409TIP3   OH2 4187   1.696   5.573   2.742  0.0818 -0.6643  0.0645
 1409TIP3    H1 4188   1.606   5.559   2.773 -0.5906  0.5821 -1.2642
 1409TIP3    H2 4189   1.747   5.582   2.822 -1.2783  0.3808  0.8547
 1410TIP3   OH2 4190   5.210   3.919   5.495 -0.1398  0.4828 -0.4787
 1410TIP3    H1 4191   5.241   3.998   5.451 -0.4757 -0.3386 -2.2371
 1410TIP3    H2 4192   5.127   3.899   5.452  0.0671 -0.9592 -0.2269
 1411TIP3   OH2 4193   2.797   6.991   2.999  0.1818 -0.2142  0.3769
 1411TIP3    H1 4194   2.725   7.053   2.988 -0.0454 -0.6045 -0.3839
 1411TIP3    H2 4195   2.781   6.951   3.085 -0.8923 -0.7827 -0.0741
 1412TIP3   OH2 4196   0.085   2.703   0.329  0.2632 -0.3581 -0.1752
 1412TIP3    H1 4197   0.000   2.747   0.340  0.1240 -0.6375 -0.1181
 1412TIP3    H2 4198   0.109   2.676   0.418  1.0185  0.8340 -0.0148
 1413TIP3   OH2 4199   0.875   6.032   2.313 -0.3385  0.3209 -0.2463
 1413TIP3    H1 4200   0.834   6.065   2.232 -1.3534  1.3139  0.6627
 1413TIP3    H2 4201   0.869   5.937   2.305  0.9815  0.3581 -2.0624
 1414TIP3   OH2 4202   3.822   6.062   5.468 -0.8747  0.3611 -0.3252
 1414TIP3    H1 4203   3.910   6.074   5.433 -0.4304 -1.4670  0.1174
 1414TIP3    H2 4204   3.778   6.145   5.451  0.5106  0.8271 -1.7798
 1415TIP3   OH2 4205   2.495   3.578   1.107 -0.0919  0.1972 -0.1061
 1415TIP3    H1 4206   2.556   3.566   1.181  0.5433  0.2840 -0.6086
 1415TIP3    H2 4207   2.552   3.600   1.033 -0.6372 -0.8944 -0.8576
 1416TIP3   OH2 4208   0.553   2.507   6.340  0.1999  0.3525 -0.1933
 1416TIP3    H1 4209   0.467   2.535   6.310 -1.3711 -1.3733  2.4384
 1416TIP3    H2 4210   0.544   2.412   6.354  0.9004  0.8697  4.9394
 1417TIP3   OH2 4211   6.197   3.887   5.372  0.4888 -0.4984 -0.2349
 1417TIP3    H1 4212   6.141   3.959   5.342  1.7599  1.0082  0.9223
 1417TIP3    H2 4213   6.235   3.919   5.454  1.8101 -2.1294 -0.1932
 1418TIP3   OH2 4214   7.631   3.300   0.817 -0.6491 -0.1338 -0.2569
 1418TIP3    H1 4215   7.577   3.271   0.891 -1.7273  1.0557 -0.5611
 1418TIP3    H2 4216   7.610   3.392   0.807  0.0782 -0.1036 -1.5719
 1419TIP3   OH2 4217   1.861   3.699   0.115  0.4169 -0.0215  0.2309
 1419TIP3    H1 4218   1.824   3.786   0.103  1.5586  0.4451 -0.0324
 1419TIP3    H2 4219   1.891   3.673   0.028  2.3619  0.4013  0.7474
 1420TIP3   OH2 4220   3.080   6.906   3.108 -0.1833 -0.0484  0.7080
 1420TIP3    H1 4221   3.023   6.981   3.123  0.4003  0.3909  0.7769
 1420TIP3    H2 4222   3.165   6.945   3.088 -0.1262 -0.6796 -0.3076
 1421TIP3   OH2 4223   3.987   5.391   1.430  0.4845  0.6008  0.7286
 1421TIP3    H1 4224   3.929   5.314   1.429  0.1510  0.8443  1.0672
 1421TIP3    H2 4225   4.071   5.358   1.399 -0.0537  0.4192 -0.5733
 1422TIP3   OH2 4226   2.426   4.789   1.268 -0.1365  0.6165 -0.1086
 1422TIP3    H1 4227   2.389   4.871   1.301 -1.0892  0.4301 -0.6935
 1422TIP3    H2 4228   2.355   4.750   1.218 -0.3710 -1.5359  1.8329
 1423TIP3   OH2 4229   1.172   1.243   4.943  0.3904  0.1019  0.3943
 1423TIP3    H1 4230   1.244   1.275   4.889  0.4045  0.9174  0.8793
 1423TIP3    H2 4231   1.095   1.247   4.886  0.6763 -0.5034 -0.0361
 1424TIP3   OH2 4232   6.968   0.899   6.076  0.2557  0.2555  0.0370
 1424TIP3    H1 4233   7.020   0.839   6.129  1.4499 -0.2990 -1.6995
 1424TIP3    H2 4234   6.981   0.869   5.986 -0.1160  2.3695 -0.7537
 1425TIP3   OH2 4235   4.245   3.927   1.395  0.0970  0.0814  0.2383
 1425TIP3    H1 4236   4.169   3.958   1.443  0.0574  1.1725 -0.5068
 1425TIP3    H2 4237   4.310   3.996   1.405 -0.3526  0.9351 -2.3032
 1426TIP3   OH2 4238   2.772   4.435   2.173 -0.0077 -0.3221  0.6921
 1426TIP3    H1 4239   2.861   4.433   2.208  0.4897  0.5082 -0.4496
 1426TIP3    H2 4240   2.742   4.524   2.191 -0.0855 -0.1760 -0.1142
 1427TIP3   OH2 4241   1.920   2.476   4.606  0.0888 -0.7595 -0.5461
 1427TIP3    H1 4242   1.883   2.407   4.661  1.2269 -0.5408  0.5162
 1427TIP3    H2 4243   1.933   2.434   4.521  0.6225 -1.8291  0.0455
 1428TIP3   OH2 4244   1.895   4.976   0.049 -0.4356  0.0472  0.3760
 1428TIP3    H1 4245   1.824   5.004  -0.009 -0.0718  0.3682  0.0870
 1428TIP3    H2 4246   1.918   4.888   0.017 -2.1369 -0.9416  1.8064
 1429TIP3   OH2 4247   7.636   0.356   6.050 -0.1665  0.0346  0.8186
 1429TIP3    H1 4248   7.595   0.288   6.104 -0.1062  0.1028  0.9499
 1429TIP3    H2 4249   7.729   0.332   6.048 -0.3176 -0.4818 -0.0144
 1430TIP3   OH2 4250   1.198   5.174   0.258 -0.0768  0.0183  0.0842
 1430TIP3    H1 4251   1.117   5.225   0.260 -0.2940 -0.3507  1.1925
 1430TIP3    H2 4252   1.259   5.228   0.208 -0.5227  1.0444  0.6371
 1431TIP3   OH2 4253   1.707   2.023   4.157 -0.2471 -0.2281 -0.6124
 1431TIP3    H1 4254   1.705   2.115   4.130 -0.3030 -0.2447 -0.6634
 1431TIP3    H2 4255   1.673   1.974   4.082  0.4233 -0.3537 -0.8409
 1432TIP3   OH2 4256   6.416   0.148   1.853  0.0321 -0.0269  0.1154
 1432TIP3    H1 4257   6.426   0.065   1.900  0.1527 -0.5843 -0.8902
 1432TIP3    H2 4258   6.340   0.135   1.797 -0.0249  0.5907  0.0494
 1433TIP3   OH2 4259   3.152   4.780   0.883  0.0989  0.0340  0.0268
 1433TIP3    H1 4260   3.233   4.767   0.833  0.2482  0.1800  0.2246
 1433TIP3    H2 4261   3.164   4.867   0.923  0.3679 -0.4606  1.0345
 1434TIP3   OH2 4262   1.575   3.936   5.459  0.1286  0.2421 -0.0818
 1434TIP3    H1 4263   1.501   3.956   5.516  0.4557  1.5038 -0.0792
 1434TIP3    H2 4264   1.538   3.934   5.371  0.2546  1.8604 -0.1861
 1435TIP3   OH2 4265   0.569   2.640   5.393 -0.4174 -0.3643  0.2677
 1435TIP3    H1 4266   0.659   2.657   5.363  0.0628 -1.0926  1.2310
 1435TIP3    H2 4267   0.538   2.570   5.336 -0.0401 -0.7304  0.5040
 1436TIP3   OH2 4268   2.655   2.770   0.597 -0.2958 -0.2953  0.6609
 1436TIP3    H1 4269   2.648   2.864   0.581  0.6050 -0.4223 -0.4752
 1436TIP3    H2 4270   2.566   2.737   0.582 -0.2125  0.0969 -0.7292
 1437TIP3   OH2 4271   2.134   5.102   1.482  0.2889 -0.6099 -0.4561
 1437TIP3    H1 4272   2.169   5.061   1.403 -0.1147 -0.5580 -0.6652
 1437TIP3    H2 4273   2.107   5.028   1.537  0.4525 -0.6440 -0.4219
 1438TIP3   OH2 4274   0.095   2.104   5.123  0.0642 -0.0523  0.1575
 1438TIP3    H1 4275   0.059   2.191   5.104  0.2124  0.2602  1.2781
 1438TIP3    H2 4276   0.062   2.049   5.052 -1.0853  0.6345  0.1349
 1439TIP3   OH2 4277   4.057   5.462   1.069  0.6476 -0.2700 -0.3126
 1439TIP3    H1 4278   3.965   5.468   1.096  0.2180 -3.3150 -0.9381
 1439TIP3    H2 4279   4.081   5.371   1.083  2.6894 -0.2020 -2.9549
 1440TIP3   OH2 4280   2.236   6.091   1.567 -0.4790  0.1309 -0.2062
 1440TIP3    H1 4281   2.169   6.024   1.560  1.0008 -1.4178  0.1533
 1440TIP3    H2 4282   2.314   6.052   1.528 -0.4155  2.8465 -3.0268
 1441TIP3   OH2 4283   4.002   6.499   1.000  0.0717  0.3042 -0.4901
 1441TIP3    H1 4284   3.974   6.558   1.069 -0.3845 -0.8254  0.3092
 1441TIP3    H2 4285   4.095   6.518   0.988 -0.2205  1.6431 -0.7208
 1442TIP3   OH2 4286   1.081   5.626   1.838  0.3679  0.6298 -0.5164
 1442TIP3    H1 4287   1.084   5.719   1.814  0.2627  0.8650  0.3572
 1442TIP3    H2 4288   1.046   5.582   1.760  0.5215  1.3104 -0.9708
 1443TIP3   OH2 4289   1.522   1.919   4.928  0.2658  0.1882 -0.3107
 1443TIP3    H1 4290   1.441   1.912   4.877 -0.7553 -1.3274  1.4998
 1443TIP3    H2 4291   1.591   1.891   4.867 -0.7789 -0.3503 -1.2675
 1444TIP3   OH2 4292   1.532   1.615   4.226  0.2319  0.3744 -0.3294
 1444TIP3    H1 4293   1.528   1.635   4.132  1.1539 -0.0260 -0.4634
 1444TIP3    H2 4294   1.478   1.537   4.236  0.7268 -0.0166 -0.6579
 1445TIP3   OH2 4295   6.819   7.087   4.597  0.3449 -0.4514  0.3810
 1445TIP3    H1 4296   6.902   7.126   4.570 -0.2612  0.4610 -0.1730
 1445TIP3    H2 4297   6.843   7.030   4.670  1.6263 -1.1021 -0.5222
 1446TIP3   OH2 4298   1.328   2.827   5.623 -0.2399 -0.3552 -0.2522
 1446TIP3    H1 4299   1.232   2.830   5.622 -0.2402 -0.3804 -0.2840
 1446TIP3    H2 4300   1.355   2.875   5.545 -0.1495  2.8420  1.6296
 1447TIP3   OH2 4301   1.497   2.295   4.602 -0.1877 -0.0705 -0.4567
 1447TIP3    H1 4302   1.573   2.318   4.657 -0.5628  0.8472 -0.3195
 1447TIP3    H2 4303   1.450   2.229   4.653 -1.2450  1.7160  0.9347
 1448TIP3   OH2 4304   3.505   6.498   0.365 -0.0384  0.2879  0.2703
 1448TIP3    H1 4305   3.487   6.478   0.457  0.4709 -0.6503  0.1692
 1448TIP3    H2 4306   3.586   6.548   0.367  0.1580 -0.0265  0.3124
 1449TIP3   OH2 4307   2.683   6.719   1.994  0.1199 -0.1932 -0.0815
 1449TIP3    H1 4308   2.675   6.662   2.070  0.3163 -0.0040  0.0840
 1449TIP3    H2 4309   2.623   6.792   2.011 -0.0656 -0.3060 -0.2514
 1450TIP3   OH2 4310   4.851   0.199   0.588  0.2319  0.4433  0.4066
 1450TIP3    H1 4311   4.943   0.185   0.562 -0.1809 -1.1004 -0.2998
 1450TIP3    H2 4312   4.843   0.154   0.672 -0.5506 -1.8379 -0.8391
 1451TIP3   OH2 4313   0.435   1.385   5.145 -0.3464 -0.4029 -0.8906
 1451TIP3    H1 4314   0.371   1.371   5.075  0.7035 -0.0286 -1.9436
 1451TIP3    H2 4315   0.514   1.414   5.099 -0.0617  1.1833  0.5726
 1452TIP3   OH2 4316   0.696   1.276   5.872 -0.1002  0.1246 -0.4322
 1452TIP3    H1 4317   0.738   1.269   5.786 -0.5208 -0.0784 -0.6217
 1452TIP3    H2 4318   0.759   1.324   5.926  0.8403 -1.0870 -0.4191
 1453TIP3   OH2 4319   3.256   6.786   0.447  0.1372  0.1658  0.0200
 1453TIP3    H1 4320   3.259   6.707   0.393 -1.6173 -0.8214  1.2905
 1453TIP3    H2 4321   3.169   6.784   0.487  0.4014  2.2849  0.7830
 1454TIP3   OH2 4322   4.249   6.536   0.171  0.0368 -0.0248 -0.0915
 1454TIP3    H1 4323   4.182   6.602   0.160  0.2384  0.1556 -0.2489
 1454TIP3    H2 4324   4.280   6.547   0.261 -1.1621 -1.0727  0.4715
 1455TIP3   OH2 4325   4.647   3.802   0.639  0.2921  0.1215 -0.6296
 1455TIP3    H1 4326   4.558   3.837   0.637 -0.7035 -2.3016 -0.7518
 1455TIP3    H2 4327   4.647   3.743   0.714  1.1795 -1.4253 -1.8332
 1456TIP3   OH2 4328   0.721   0.422   2.789  0.0689 -0.2274 -0.3479
 1456TIP3    H1 4329   0.730   0.332   2.820 -0.5334 -0.5615 -1.1126
 1456TIP3    H2 4330   0.810   0.455   2.784  0.2510 -0.5722  0.5270
 1457TIP3   OH2 4331   4.624   1.475   1.806  0.1685 -0.4527 -0.5439
 1457TIP3    H1 4332   4.664   1.425   1.877  0.9764  2.0076  0.8195
 1457TIP3    H2 4333   4.682   1.461   1.731  0.9367 -0.7513  0.0915
 1458TIP3   OH2 4334   5.086   1.154   1.747  0.0199 -0.2892  0.0160
 1458TIP3    H1 4335   5.033   1.202   1.684 -2.9122 -1.9738  1.0974
 1458TIP3    H2 4336   5.152   1.217   1.776 -0.9493  1.6589 -1.8784
 1459TIP3   OH2 4337   6.795   2.197   5.825 -0.1944 -0.6636  0.0374
 1459TIP3    H1 4338   6.873   2.249   5.803 -0.4607 -0.2385  0.0922
 1459TIP3    H2 4339   6.790   2.201   5.920 -0.4386 -0.4619  0.0173
 1460TIP3   OH2 4340   3.146   6.060   0.944  0.3118 -0.3743 -0.0823
 1460TIP3    H1 4341   3.146   6.032   1.035 -0.9968 -2.9670 -0.8267
 1460TIP3    H2 4342   3.122   5.982   0.895  0.7184  1.0498 -2.6383
 1461TIP3   OH2 4343   1.739   0.874   5.176 -0.0954  0.0328 -0.4446
 1461TIP3    H1 4344   1.791   0.796   5.195 -0.6434 -0.7603 -2.1142
 1461TIP3    H2 4345   1.798   0.948   5.193  0.7764 -0.7804  0.0651
 1462TIP3   OH2 4346   2.011   4.498   3.842  0.1041 -0.2844 -0.0057
 1462TIP3    H1 4347   2.014   4.458   3.929  0.4155  0.7748  0.4722
 1462TIP3    H2 4348   2.084   4.458   3.795  0.0954 -0.6694  0.3055
 1463TIP3   OH2 4349   3.951   7.255   5.137 -0.1079  0.3967 -0.3003
 1463TIP3    H1 4350   3.926   7.278   5.047  1.3607  0.0281 -0.8262
 1463TIP3    H2 4351   3.956   7.339   5.182  2.0367  0.8723 -1.3572
 1464TIP3   OH2 4352   1.395   1.534   5.057  0.1348 -0.3909 -0.4082
 1464TIP3    H1 4353   1.324   1.552   4.996  0.3712  2.0422 -0.0270
 1464TIP3    H2 4354   1.463   1.597   5.034  1.1009 -0.9085  0.9339
 1465TIP3   OH2 4355   7.406   3.389   3.464  0.6844 -0.3972  0.1274
 1465TIP3    H1 4356   7.468   3.342   3.408 -0.3143 -0.6324 -0.7959
 1465TIP3    H2 4357   7.325   3.390   3.414 -0.2538 -0.6795  1.6288
 1466TIP3   OH2 4358   4.373   6.434   2.288  0.3053  0.0289  0.1551
 1466TIP3    H1 4359   4.422   6.485   2.223  1.5929 -1.6588 -0.2173
 1466TIP3    H2 4360   4.295   6.487   2.306  1.0676  1.5986 -1.0530
 1467TIP3   OH2 4361   5.089   6.856   6.048 -0.2475  0.2848  0.3930
 1467TIP3    H1 4362   5.117   6.780   6.099 -1.4071 -0.2393  0.2686
 1467TIP3    H2 4363   4.993   6.856   6.056 -0.4035  0.5309 -1.2858
 1468TIP3   OH2 4364   0.293   1.032   4.627  0.4038  0.1189 -0.1756
 1468TIP3    H1 4365   0.363   0.980   4.588  0.5522  1.0997 -1.2594
 1468TIP3    H2 4366   0.217   0.973   4.628  1.2170 -0.9277  0.9554
 1469TIP3   OH2 4367   4.638   5.474   0.482 -0.1699  0.1331 -0.3478
 1469TIP3    H1 4368   4.573   5.543   0.467 -0.3930 -0.2930 -1.3493
 1469TIP3    H2 4369   4.622   5.410   0.413  1.1379 -0.1045 -0.4482
 1470TIP3   OH2 4370   3.196   5.609   3.063  0.4600  0.6278  0.2510
 1470TIP3    H1 4371   3.107   5.638   3.043  0.5824  0.3463 -0.7479
 1470TIP3    H2 4372   3.229   5.675   3.124 -0.2180  1.0812  0.1383
 1471TIP3   OH2 4373   6.699   2.009   5.677 -0.0164  0.2280 -0.2889
 1471TIP3    H1 4374   6.752   2.012   5.598  0.0412  0.4602 -0.2429
 1471TIP3    H2 4375   6.705   2.098   5.713 -1.3817  0.5836 -0.9020
 1472TIP3   OH2 4376   4.327   6.061   0.908 -0.0076 -0.2713  0.2233
 1472TIP3    H1 4377   4.405   6.061   0.853 -0.4706  2.0481 -0.4459
 1472TIP3    H2 4378   4.348   5.999   0.978  2.1489 -0.1997 -0.3332
 1473TIP3   OH2 4379   2.861   6.329   1.253 -0.7841  0.0670 -0.4000
 1473TIP3    H1 4380   2.882   6.422   1.261 -0.0573  0.1503 -2.8225
 1473TIP3    H2 4381   2.787   6.315   1.314 -1.7702  2.5107 -0.9906
 1474TIP3   OH2 4382   0.585   3.903   6.188  0.4721 -0.0914  0.9208
 1474TIP3    H1 4383   0.592   3.852   6.268  1.1136 -0.5824  0.5552
 1474TIP3    H2 4384   0.673   3.937   6.172  0.2923  0.2213  0.5693
 1475TIP3   OH2 4385   1.074   5.492   1.109 -0.1994 -0.8739  0.5770
 1475TIP3    H1 4386   1.046   5.427   1.045  1.4979 -1.9349  0.9032
 1475TIP3    H2 4387   1.169   5.488   1.108 -0.1191  0.2402  2.0053
 1476TIP3   OH2 4388   3.082   5.080   1.362 -0.1075  0.2006  0.1073
 1476TIP3    H1 4389   3.114   4.992   1.343  1.0055  0.7500 -0.5571
 1476TIP3    H2 4390   3.054   5.075   1.454 -1.4459 -1.2458 -0.3342
 1477TIP3   OH2 4391   0.125   1.781   4.629 -0.3453 -0.5397  0.3429
 1477TIP3    H1 4392   0.091   1.839   4.562 -0.1998 -1.2666 -0.3760
 1477TIP3    H2 4393   0.049   1.733   4.661 -0.3862 -0.3328  0.5512
 1478TIP3   OH2 4394   3.013   6.416   0.491  0.6591 -0.0274 -0.0987
 1478TIP3    H1 4395   2.983   6.359   0.561 -1.3323  1.2675  0.1146
 1478TIP3    H2 4396   2.970   6.382   0.412  2.1646 -0.9019 -0.5822
 1479TIP3   OH2 4397   3.887   3.820   0.528  0.1994  0.0647 -0.2082
 1479TIP3    H1 4398   3.845   3.817   0.614  1.3369 -0.7862  0.3351
 1479TIP3    H2 4399   3.914   3.911   0.518 -0.2022  0.2332  0.1974
 1480TIP3   OH2 4400   3.291   2.745   4.977  0.5095 -0.1314 -0.4126
 1480TIP3    H1 4401   3.330   2.718   4.894 -1.6155 -1.3573 -1.0242
 1480TIP3    H2 4402   3.349   2.709   5.043 -0.0448 -2.7461 -1.2965
 1481TIP3   OH2 4403   0.433   1.624   6.134  0.4542 -0.0198 -0.0631
 1481TIP3    H1 4404   0.370   1.684   6.173 -0.6103 -1.1991  0.0719
 1481TIP3    H2 4405   0.446   1.657   6.045 -0.6460  0.0244 -0.2155
 1482TIP3   OH2 4406   3.805   6.483   0.647 -0.2459 -0.5002 -0.0731
 1482TIP3    H1 4407   3.807   6.568   0.602  0.0390 -0.9225 -0.8744
 1482TIP3    H2 4408   3.856   6.425   0.590  0.5159 -0.9350  1.0326
 1483TIP3   OH2 4409   5.325   0.124   0.758  0.0185 -0.4901  0.1725
 1483TIP3    H1 4410   5.283   0.201   0.719 -1.0170 -0.8152  0.6211
 1483TIP3    H2 4411   5.365   0.157   0.838  1.2090 -0.0452 -0.5878
 1484TIP3   OH2 4412   1.000   1.671   5.096 -0.3192  0.0307  0.1647
 1484TIP3    H1 4413   0.925   1.715   5.138 -0.3611  0.2554 -0.1438
 1484TIP3    H2 4414   1.071   1.680   5.159 -0.5774 -0.2665  0.5001
 1485TIP3   OH2 4415   7.205   3.010   5.741  0.5873  0.2791  0.1816
 1485TIP3    H1 4416   7.144   2.961   5.797  1.7494 -0.1024  1.1258
 1485TIP3    H2 4417   7.199   3.101   5.773 -2.3676  1.0211 -2.2666
 1486TIP3   OH2 4418   0.023   1.556   5.482  0.4763  0.0283 -0.1588
 1486TIP3    H1 4419   0.048   1.505   5.560  0.4478  0.5355  0.1850
 1486TIP3    H2 4420   0.096   1.545   5.422  0.9290  0.4106  0.3174
 1487TIP3   OH2 4421   5.451   6.417   5.538 -0.1211  0.4495 -0.4015
 1487TIP3    H1 4422   5.468   6.443   5.448  0.0265  1.7670 -0.0006
 1487TIP3    H2 4423   5.433   6.499   5.584  0.5668 -0.1339  0.9351
 1488TIP3   OH2 4424   3.940   6.901   1.450  0.1846 -0.2393  0.3161
 1488TIP3    H1 4425   4.025   6.914   1.410  0.1644 -0.3720  0.2299
 1488TIP3    H2 4426   3.877   6.930   1.384  0.0962 -1.7850 -0.3056
 1489TIP3   OH2 4427   1.941   0.687   4.848  0.4439  0.0273 -0.2154
 1489TIP3    H1 4428   2.019   0.698   4.902 -0.5113 -1.7714  1.5919
 1489TIP3    H2 4429   1.921   0.776   4.817  1.1141  1.1015  2.2843
 1490TIP3   OH2 4430   0.517   3.390   5.823 -0.4203  0.2089 -0.2899
 1490TIP3    H1 4431   0.582   3.356   5.762 -1.0345 -1.3370 -0.0944
 1490TIP3    H2 4432   0.522   3.485   5.813  1.5990  0.0928 -0.5498
 1491TIP3   OH2 4433   3.782   5.418   1.135 -0.6909  0.3529 -0.3826
 1491TIP3    H1 4434   3.782   5.326   1.109  0.1541  0.7307 -1.8351
 1491TIP3    H2 4435   3.693   5.435   1.165 -0.9777 -0.8173 -0.5585
 1492TIP3   OH2 4436   1.481   4.110   6.058 -0.2452 -0.2006  0.4231
 1492TIP3    H1 4437   1.575   4.102   6.071 -0.3261 -0.6987  0.7167
 1492TIP3    H2 4438   1.459   4.042   5.995 -0.5243 -0.6012  0.9382
 1493TIP3   OH2 4439   2.151   6.078   1.836  0.5299  0.2767 -0.3167
 1493TIP3    H1 4440   2.062   6.048   1.854  0.3047  1.2049  0.1692
 1493TIP3    H2 4441   2.155   6.087   1.740  0.1757  0.0271 -0.3542
 1494TIP3   OH2 4442   6.606   1.453   5.865  0.0169 -0.1258  0.2874
 1494TIP3    H1 4443   6.583   1.504   5.943  1.1226  0.1211  0.4716
 1494TIP3    H2 4444   6.592   1.513   5.792 -2.6824 -0.9070  0.1205
 1495TIP3   OH2 4445   7.367   0.508   5.257  0.3281 -0.0371 -0.7096
 1495TIP3    H1 4446   7.351   0.417   5.232  3.2139 -0.3716 -1.5544
 1495TIP3    H2 4447   7.372   0.506   5.353  1.3232 -0.9707 -0.7717
 1496TIP3   OH2 4448   0.788   3.596   2.818  0.6422 -0.1086 -0.2227
 1496TIP3    H1 4449   0.825   3.517   2.777  0.1478 -0.8201  0.6742
 1496TIP3    H2 4450   0.694   3.580   2.819  0.3689  1.3318 -1.7433
 1497TIP3   OH2 4451   7.275   1.141   4.763 -0.0786 -0.0403 -0.0586
 1497TIP3    H1 4452   7.342   1.126   4.698 -0.2049  1.2918 -0.5106
 1497TIP3    H2 4453   7.205   1.186   4.716 -0.8004 -0.3968  0.6585
 1498TIP3   OH2 4454   5.313   1.831   0.056  0.4465  0.6489  0.6951
 1498TIP3    H1 4455   5.293   1.772   0.129  1.1590 -1.1237 -0.5274
 1498TIP3    H2 4456   5.397   1.801   0.023  1.6802  3.4479  1.1320
 1499TIP3   OH2 4457   4.066   7.114   5.773 -0.6246 -0.0643  0.4260
 1499TIP3    H1 4458   4.064   7.180   5.843 -1.8476  0.9821 -0.5698
 1499TIP3    H2 4459   3.975   7.109   5.742  0.1434  0.5242 -2.0199
 1500TIP3   OH2 4460   0.100   3.204   1.253 -0.0245  0.0074  0.3178
 1500TIP3    H1 4461   0.126   3.201   1.161 -0.0822  1.7899  0.2219
 1500TIP3    H2 4462   0.179   3.231   1.299 -0.3004  0.2455  0.6556
 1501TIP3   OH2 4463   7.566   3.224   4.306 -0.0118 -0.1777 -0.7697
 1501TIP3    H1 4464   7.548   3.237   4.399  1.4047 -0.8505 -0.3938
 1501TIP3    H2 4465   7.481   3.198   4.269 -0.3439 -0.9755  0.5226
 1502TIP3   OH2 4466   2.340   5.111   2.547 -0.3791 -0.0957  0.1819
 1502TIP3    H1 4467   2.412   5.138   2.603  0.5318 -1.9895 -0.0376
 1502TIP3    H2 4468   2.286   5.054   2.602  0.3789 -1.7482 -0.7404
 1503TIP3   OH2 4469   4.142   6.626   2.726  0.2517  0.4187 -0.2614
 1503TIP3    H1 4470   4.129   6.604   2.818 -0.6691  0.9539 -0.2507
 1503TIP3    H2 4471   4.235   6.648   2.719  0.5394 -0.5944  0.3305
 1504TIP3   OH2 4472   1.207   1.790   5.235 -0.3399  0.2538  0.2720
 1504TIP3    H1 4473   1.267   1.727   5.195  2.0781  2.3177  0.4779
 1504TIP3    H2 4474   1.229   1.787   5.328 -3.1295 -1.5896  0.9230
 1505TIP3   OH2 4475   1.533   1.895   4.318  0.0783  0.3474  0.3402
 1505TIP3    H1 4476   1.586   1.952   4.261  0.4996 -1.0294 -0.6672
 1505TIP3    H2 4477   1.490   1.835   4.257 -1.1346  0.2066  1.3197
 1506TIP3   OH2 4478   2.935   7.219   1.086  0.4094  0.6661 -0.1867
 1506TIP3    H1 4479   2.901   7.273   1.157  2.1153 -0.9580  1.9367
 1506TIP3    H2 4480   2.863   7.160   1.064  0.4664 -0.0833  1.5306
 1507TIP3   OH2 4481   5.747   0.324   0.186  0.2389  0.1801  0.4519
 1507TIP3    H1 4482   5.746   0.408   0.233  0.4800  1.8605 -2.4527
 1507TIP3    H2 4483   5.825   0.280   0.221 -0.0473  1.0168  2.2375
 1508TIP3   OH2 4484   3.547   2.006   1.155 -0.2291 -0.6795 -0.0809
 1508TIP3    H1 4485   3.554   2.039   1.245 -0.9572 -0.0667 -0.2517
 1508TIP3    H2 4486   3.635   1.974   1.135 -0.0847 -0.8929  0.8809
 1509TIP3   OH2 4487   7.673   0.813   5.602 -0.0933  0.4739 -0.2620
 1509TIP3    H1 4488   7.644   0.857   5.522  0.5024  0.2278 -0.6210
 1509TIP3    H2 4489   7.594   0.776   5.640 -0.0288 -1.7278 -2.1521
 1510TIP3   OH2 4490   2.364   7.245   0.055  0.2901 -0.4583 -0.4828
 1510TIP3    H1 4491   2.311   7.308   0.007 -0.3574  0.5045  1.4605
 1510TIP3    H2 4492   2.421   7.298   0.110  1.3063 -1.5364 -0.4715
 1511TIP3   OH2 4493   1.380   4.995   2.208 -0.2746  0.1641  1.0132
 1511TIP3    H1 4494   1.423   5.068   2.252 -1.4211  1.0524  0.6687
 1511TIP3    H2 4495   1.289   5.023   2.196 -0.0624 -0.1550 -1.6938
 1512TIP3   OH2 4496   3.100   4.667   3.436  0.3829  0.1019 -0.2142
 1512TIP3    H1 4497   3.021   4.691   3.484  0.1763 -1.1032  0.0606
 1512TIP3    H2 4498   3.167   4.727   3.470  0.1998 -0.6148  1.4697
 1513TIP3   OH2 4499   2.645   5.644   0.199  0.0149 -0.7597 -0.7314
 1513TIP3    H1 4500   2.654   5.682   0.287 -1.7204  0.7076 -1.1533
 1513TIP3    H2 4501   2.734   5.644   0.164  0.4739  0.2850  0.3793
 1514TIP3   OH2 4502   5.481   5.471   3.976  0.3155  0.3419  0.2111
 1514TIP3    H1 4503   5.562   5.452   4.024  1.7175  0.9447 -1.8417
 1514TIP3    H2 4504   5.440   5.385   3.964  0.3160  0.1021  1.8178
 1515TIP3   OH2 4505   0.234   0.478   5.697  0.1120  0.1546  0.2852
 1515TIP3    H1 4506   0.139   0.475   5.704  0.0319 -2.3723 -1.3155
 1515TIP3    H2 4507   0.252   0.545   5.632 -0.5770  0.5658  0.5225
 1516TIP3   OH2 4508   3.511   6.899   1.111  0.1599 -0.1523 -0.3644
 1516TIP3    H1 4509   3.515   6.913   1.017  0.7084 -1.2487 -0.5161
 1516TIP3    H2 4510   3.489   6.807   1.121  1.1620 -0.3059  0.5703
 1517TIP3   OH2 4511   3.902   4.092   0.817 -0.4497 -0.1389  0.0118
 1517TIP3    H1 4512   3.870   4.002   0.823 -1.3069  0.2201  0.9923
 1517TIP3    H2 4513   3.845   4.134   0.752 -1.6441  0.3499  1.3510
 1518TIP3   OH2 4514   3.402   4.781   2.592  0.3213 -0.5165 -0.2171
 1518TIP3    H1 4515   3.406   4.821   2.505  2.4208 -0.2709 -0.0523
 1518TIP3    H2 4516   3.443   4.695   2.580 -0.4054 -0.9306  0.2887
 1519TIP3   OH2 4517   3.871   6.654   3.466  0.1382  0.0089 -0.2728
 1519TIP3    H1 4518   3.791   6.634   3.417  0.2167 -1.7892  0.3187
 1519TIP3    H2 4519   3.904   6.734   3.425 -1.4197  0.2085 -1.1825
 1520TIP3   OH2 4520   3.306   3.760   0.445 -0.3804  0.0770  0.0654
 1520TIP3    H1 4521   3.329   3.677   0.404  0.1106  0.6155 -0.7661
 1520TIP3    H2 4522   3.344   3.826   0.388 -2.9155  0.9743 -0.6624
 1521TIP3   OH2 4523   6.638   7.068   5.197 -0.3804  0.3182  0.6289
 1521TIP3    H1 4524   6.552   7.073   5.239 -1.0802 -2.7705 -0.3148
 1521TIP3    H2 4525   6.698   7.051   5.269 -0.7572  1.0172  1.1145
 1522TIP3   OH2 4526   1.742   5.695   1.822  0.9243  0.7754  0.6258
 1522TIP3    H1 4527   1.800   5.653   1.886  1.2493 -0.0617 -0.2052
 1522TIP3    H2 4528   1.663   5.641   1.822  0.9226  0.7781  0.3324
 1523TIP3   OH2 4529   4.387   4.235   3.149  0.8940  0.4958  0.3704
 1523TIP3    H1 4530   4.412   4.206   3.236  0.1072  1.1819  0.8327
 1523TIP3    H2 4531   4.455   4.200   3.091  0.4110 -1.6046  0.9964
 1524TIP3   OH2 4532   0.338   2.058   5.963  0.4644  0.6615  0.2450
 1524TIP3    H1 4533   0.304   2.145   5.940  0.3112  0.2526 -1.1103
 1524TIP3    H2 4534   0.308   2.001   5.892  2.8608  0.0288 -0.2914
 1525TIP3   OH2 4535   1.225   1.920   5.652  0.3177 -0.4112 -0.2980
 1525TIP3    H1 4536   1.158   1.893   5.715  1.9580 -0.7098  1.3467
 1525TIP3    H2 4537   1.273   1.840   5.632  2.9529  0.5404  1.8972
 1526TIP3   OH2 4538   1.960   3.611   0.361 -0.3391  0.1574 -0.5653
 1526TIP3    H1 4539   1.948   3.518   0.377  1.4850 -0.1531 -0.9457
 1526TIP3    H2 4540   1.947   3.621   0.266 -0.5490  0.2899 -0.5231
 1527TIP3   OH2 4541   3.541   4.279   0.875 -0.2364 -0.3094 -0.4969
 1527TIP3    H1 4542   3.523   4.355   0.820 -0.3885  1.9774  2.5978
 1527TIP3    H2 4543   3.459   4.230   0.875 -1.3177  1.4529  0.3524
 1528TIP3   OH2 4544   7.137   3.013   6.354 -0.1263  0.1331 -0.0722
 1528TIP3    H1 4545   7.090   2.929   6.352  0.0941 -0.0275  1.3264
 1528TIP3    H2 4546   7.080   3.073   6.306 -0.8408 -0.5350 -0.0796
 1529TIP3   OH2 4547   4.183   5.098   1.972  0.6211 -0.1002 -0.1693
 1529TIP3    H1 4548   4.133   5.169   2.013  0.2101 -0.9180  0.7508
 1529TIP3    H2 4549   4.177   5.116   1.878 -1.5465 -0.2841 -0.0789
 1530TIP3   OH2 4550   3.222   2.946   0.209 -0.6769 -0.0380  0.7950
 1530TIP3    H1 4551   3.282   3.016   0.182 -0.3648 -1.0147 -1.0491
 1530TIP3    H2 4552   3.136   2.989   0.211 -0.5477  0.3059 -0.7061
 1531TIP3   OH2 4553   2.901   1.803   1.161 -0.1488 -0.6063  0.4655
 1531TIP3    H1 4554   2.871   1.808   1.252  0.5586 -0.0808  0.6744
 1531TIP3    H2 4555   2.995   1.790   1.168 -0.5047 -4.1344 -0.1607
 1532TIP3   OH2 4556   3.778   6.100   2.880 -0.2314 -0.5095 -0.2768
 1532TIP3    H1 4557   3.758   6.083   2.788  0.0458 -2.4690  0.0065
 1532TIP3    H2 4558   3.737   6.028   2.927 -0.2022  0.3748  1.1213
 1533TIP3   OH2 4559   2.657   0.746   5.846  0.1377 -0.9289  0.3396
 1533TIP3    H1 4560   2.698   0.694   5.915  1.6791 -1.5680 -1.0280
 1533TIP3    H2 4561   2.679   0.700   5.765 -1.0101  0.2217 -0.6411
 1534TIP3   OH2 4562   3.110   6.954   0.924 -0.1893  0.0187  0.5829
 1534TIP3    H1 4563   3.021   6.966   0.957 -0.2048  1.9502 -0.1325
 1534TIP3    H2 4564   3.109   6.991   0.836  1.2756 -0.1277  0.4860
 1535TIP3   OH2 4565   6.487   1.775   6.009 -0.5927 -0.2652  0.8006
 1535TIP3    H1 4566   6.406   1.740   6.046 -1.3892 -2.1993 -2.4939
 1535TIP3    H2 4567   6.466   1.865   5.985 -2.3124 -1.1949 -1.3903
 1536TIP3   OH2 4568   1.392   2.152   6.348  0.1263 -0.1668 -0.2612
 1536TIP3    H1 4569   1.470   2.200   6.377  0.9096 -0.4722 -1.8477
 1536TIP3    H2 4570   1.336   2.220   6.311 -0.3671  0.0435  0.8255
 1537TIP3   OH2 4571   3.513   5.841   2.511 -0.5094 -0.6448 -0.3839
 1537TIP3    H1 4572   3.445   5.821   2.447 -1.2924  0.3714  0.1123
 1537TIP3    H2 4573   3.595   5.821   2.466 -1.0790 -0.6213 -1.4564
 1538TIP3   OH2 4574   2.107   5.309   0.757 -0.4437  0.0895 -0.3177
 1538TIP3    H1 4575   2.110   5.358   0.839 -2.1885  0.3570 -0.3830
 1538TIP3    H2 4576   2.136   5.221   0.781  0.4661  0.5395  0.2778
 1539TIP3   OH2 4577   6.094   0.945   0.420 -0.2425 -0.2944  0.2942
 1539TIP3    H1 4578   6.140   0.861   0.423 -1.7763 -1.1506  0.9749
 1539TIP3    H2 4579   6.128   0.993   0.495 -0.6820 -1.0507  0.9932
 1540TIP3   OH2 4580   1.250   3.034   4.530  0.9252  0.2510 -0.1579
 1540TIP3    H1 4581   1.300   3.046   4.449  2.7706 -1.0856  0.7304
 1540TIP3    H2 4582   1.314   3.052   4.599 -0.0377 -0.7635  1.0167
 1541TIP3   OH2 4583   1.626   3.563   6.291  0.6402  0.1780  0.1849
 1541TIP3    H1 4584   1.538   3.583   6.324  0.5076 -0.6303  0.3304
 1541TIP3    H2 4585   1.673   3.646   6.298 -0.0293  0.5503  0.3686
 1542TIP3   OH2 4586   5.952   0.496   0.468 -0.8464 -0.3223 -0.0916
 1542TIP3    H1 4587   6.020   0.563   0.472  0.3098 -1.4917  0.7640
 1542TIP3    H2 4588   5.992   0.424   0.419 -1.6386 -0.8474  0.0157
 1543TIP3   OH2 4589   2.836   0.527   4.502 -0.0052 -0.1937  0.2074
 1543TIP3    H1 4590   2.759   0.483   4.540  0.5633  0.7946  2.6093
 1543TIP3    H2 4591   2.909   0.500   4.559  1.8677 -2.7949 -3.2476
 1544TIP3   OH2 4592   2.341   4.715   1.561  0.6012 -0.3316  0.6452
 1544TIP3    H1 4593   2.379   4.638   1.604  1.6535 -0.4488 -0.4574
 1544TIP3    H2 4594   2.414   4.754   1.512  0.2909  1.8351  1.8233
 1545TIP3   OH2 4595   4.147   7.113   2.273  0.2744 -0.5964  0.0885
 1545TIP3    H1 4596   4.095   7.164   2.335  0.8589 -1.2848  1.1505
 1545TIP3    H2 4597   4.113   7.024   2.281  1.6108 -1.0462  0.7790
 1546TIP3   OH2 4598   2.013   4.082   1.931  0.3850  0.2257 -0.2122
 1546TIP3    H1 4599   1.986   4.156   1.877 -0.3242  1.2843  1.5423
 1546TIP3    H2 4600   1.935   4.059   1.981  0.4463 -2.0835 -1.1065
 1547TIP3   OH2 4601   4.327   5.976   1.508 -0.0594 -0.6080 -0.6010
 1547TIP3    H1 4602   4.262   5.950   1.441  0.4858 -1.6135 -0.7528
 1547TIP3    H2 4603   4.278   5.977   1.590 -0.8957  1.2826 -1.0869
 1548TIP3   OH2 4604   2.690   7.081   0.644  0.1401  0.5004 -0.5722
 1548TIP3    H1 4605   2.654   7.000   0.679 -0.7867  0.8279 -0.7456
 1548TIP3    H2 4606   2.667   7.078   0.551  2.7175 -0.4465 -1.2285
 1549TIP3   OH2 4607   5.644   1.683   4.741  0.3093 -0.2164  0.2316
 1549TIP3    H1 4608   5.666   1.767   4.700 -0.2749  0.0817  0.5181
 1549TIP3    H2 4609   5.661   1.697   4.834 -0.6272 -0.1392  0.3896
 1550TIP3   OH2 4610   0.670   2.881   4.820  0.5122 -0.4628 -0.1362
 1550TIP3    H1 4611   0.633   2.959   4.779  3.1335  1.0270  0.2153
 1550TIP3    H2 4612   0.613   2.863   4.894 -0.8794  0.3174 -1.0066
 1551TIP3   OH2 4613   6.404   0.381   6.184  0.3977 -0.2514 -0.7388
 1551TIP3    H1 4614   6.431   0.347   6.270  2.9796 -1.5259 -2.0157
 1551TIP3    H2 4615   6.376   0.471   6.203  0.7546 -0.5656  1.4846
 1552TIP3   OH2 4616   7.379   3.090   3.587 -0.0031  0.0031  0.6332
 1552TIP3    H1 4617   7.362   3.082   3.681  3.5062  1.3500  1.4713
 1552TIP3    H2 4618   7.369   3.183   3.568 -0.9586 -0.2951 -0.4239
 1553TIP3   OH2 4619   5.429   6.697   5.639  0.1478  0.1833 -0.0262
 1553TIP3    H1 4620   5.515   6.732   5.663 -0.5266  2.0076 -0.2418
 1553TIP3    H2 4621   5.367   6.764   5.666 -0.9572  0.4619 -3.0801
 1554TIP3   OH2 4622   0.154   1.725   5.776 -0.2466  0.7147  0.1670
 1554TIP3    H1 4623   0.097   1.671   5.830 -0.4937  0.6675 -0.1404
 1554TIP3    H2 4624   0.239   1.722   5.820 -0.3022  0.2176  0.2449
 1555TIP3   OH2 4625   3.035   5.154   1.102  0.2019  0.5293 -0.2937
 1555TIP3    H1 4626   3.019   5.145   1.196 -1.2108 -0.6511 -0.6333
 1555TIP3    H2 4627   3.116   5.106   1.086  0.3286  0.5530  0.2773
 1556TIP3   OH2 4628   3.470   4.515   0.179  0.1209 -0.0151 -0.1529
 1556TIP3    H1 4629   3.492   4.422   0.191  1.4263  0.1514 -1.1959
 1556TIP3    H2 4630   3.464   4.550   0.268 -1.0045 -1.2329  0.2657
 1557TIP3   OH2 4631   4.472   6.201   5.970  0.1410  0.3553 -0.0874
 1557TIP3    H1 4632   4.425   6.118   5.961 -2.8707  2.1166 -1.6768
 1557TIP3    H2 4633   4.517   6.194   6.054 -2.4642 -1.7493  1.2327
 1558TIP3   OH2 4634   7.789   0.547   5.531  0.2086  0.1929 -0.2650
 1558TIP3    H1 4635   7.766   0.640   5.537  0.0932  0.1473 -0.0282
 1558TIP3    H2 4636   7.748   0.507   5.607  0.9439  0.0874  0.0831
 1559TIP3   OH2 4637   3.469   4.298   2.660 -0.1490  0.1265  0.4573
 1559TIP3    H1 4638   3.417   4.338   2.730  0.0389 -0.5732  0.9993
 1559TIP3    H2 4639   3.531   4.241   2.705  0.1337 -0.1450 -0.2662
 1560TIP3   OH2 4640   3.842   3.297   0.723 -0.5347 -0.2274 -0.1316
 1560TIP3    H1 4641   3.776   3.289   0.792  0.8703  0.7876  1.3816
 1560TIP3    H2 4642   3.875   3.208   0.711 -0.3707 -0.3291  0.9609
 1561TIP3   OH2 4643   5.886   5.341   0.678 -0.3173 -0.2771 -0.4247
 1561TIP3    H1 4644   5.871   5.293   0.596 -2.3477  0.2623 -0.3880
 1561TIP3    H2 4645   5.848   5.427   0.662 -0.9986 -0.2760  1.2011
 1562TIP3   OH2 4646   2.157   3.270   4.540 -0.3227 -0.4199  0.1367
 1562TIP3    H1 4647   2.134   3.317   4.459 -0.6309  0.0625  0.5034
 1562TIP3    H2 4648   2.236   3.220   4.517  1.2362  1.8925  0.3193
 1563TIP3   OH2 4649   1.631   0.798   5.628  0.5775 -0.1167 -0.3439
 1563TIP3    H1 4650   1.671   0.849   5.557 -1.1407 -0.7084 -1.7703
 1563TIP3    H2 4651   1.648   0.707   5.605 -0.7869 -0.3441 -0.5067
 1564TIP3   OH2 4652   2.689   1.719   5.652 -0.4928  0.3327  0.2183
 1564TIP3    H1 4653   2.665   1.772   5.728 -0.2361 -0.4563  0.8491
 1564TIP3    H2 4654   2.774   1.754   5.625 -1.6016  2.1147 -1.0952
 1565TIP3   OH2 4655   4.783   5.642   0.677 -0.3257  0.2323  0.3323
 1565TIP3    H1 4656   4.758   5.578   0.611  0.6489 -1.8632  1.9209
 1565TIP3    H2 4657   4.873   5.618   0.701 -0.9585  0.3650  3.0298
 1566TIP3   OH2 4658   6.022   0.165   0.301  0.3358  0.0746  0.0935
 1566TIP3    H1 4659   5.971   0.096   0.343 -0.4904 -0.7565 -2.2320
 1566TIP3    H2 4660   6.079   0.198   0.371  0.3965 -2.5953  1.3685
 1567TIP3   OH2 4661   1.902   1.061   5.303 -0.0585  0.0129 -0.0202
 1567TIP3    H1 4662   1.880   1.087   5.392  0.3158  1.1166 -0.2404
 1567TIP3    H2 4663   1.870   1.133   5.248 -1.5276 -1.2900 -0.9054
 1568TIP3   OH2 4664   5.397   6.117   0.172 -0.3281  0.1643 -0.1417
 1568TIP3    H1 4665   5.379   6.161   0.255  1.5127  0.9877 -0.1550
 1568TIP3    H2 4666   5.479   6.070   0.188 -1.5263 -2.1462 -0.5578
 1569TIP3   OH2 4667   4.758   5.992   1.459  0.1433  0.2468 -0.1569
 1569TIP3    H1 4668   4.750   6.081   1.425  0.0806 -0.6615 -2.6276
 1569TIP3    H2 4669   4.851   5.984   1.483  0.2799  0.7754 -0.4987
 1570TIP3   OH2 4670   4.231   4.998   0.286  0.1617 -0.1501 -0.3377
 1570TIP3    H1 4671   4.315   4.965   0.257  0.4914  0.0806  0.3349
 1570TIP3    H2 4672   4.252   5.076   0.337 -0.5405  0.5489 -1.1049
 1571TIP3   OH2 4673   1.733   2.508   5.032 -0.4185  0.2850 -0.4155
 1571TIP3    H1 4674   1.742   2.578   5.097  0.9942  2.2745 -2.6847
 1571TIP3    H2 4675   1.711   2.430   5.084  1.2322  1.6703  2.5113
 1572TIP3   OH2 4676   3.207   4.512   3.235 -0.7000 -0.2971 -0.3337
 1572TIP3    H1 4677   3.160   4.551   3.308 -0.9518  0.6035 -0.9750
 1572TIP3    H2 4678   3.299   4.523   3.257 -0.7767 -0.9546  0.3338
 1573TIP3   OH2 4679   7.630   0.289   0.481 -0.2882 -0.1241  0.0193
 1573TIP3    H1 4680   7.604   0.199   0.462  0.2406 -0.3680  0.4406
 1573TIP3    H2 4681   7.720   0.282   0.513  0.4928  0.7575 -1.9044
 1574TIP3   OH2 4682   1.369   0.402   6.095 -0.3809  0.0101  0.4598
 1574TIP3    H1 4683   1.325   0.484   6.072  0.5067  1.2335  2.9237
 1574TIP3    H2 4684   1.305   0.354   6.147 -1.3987 -1.5336 -2.1123
 1575TIP3   OH2 4685   3.293   1.784   5.624  0.2336  0.1752  0.1837
 1575TIP3    H1 4686   3.331   1.777   5.536  1.0285 -2.3855  0.7018
 1575TIP3    H2 4687   3.205   1.817   5.609  1.0236  1.6561 -1.4113
 1576TIP3   OH2 4688   4.769   4.442   0.544 -0.1407 -1.0827 -0.0011
 1576TIP3    H1 4689   4.774   4.466   0.636  1.0375  0.1181 -0.3659
 1576TIP3    H2 4690   4.819   4.510   0.498 -1.3642 -1.2268 -1.5984
 1577TIP3   OH2 4691   2.922   3.829   0.880  0.0409  0.0662  0.1187
 1577TIP3    H1 4692   2.963   3.885   0.815  0.7331  1.5699  1.8310
 1577TIP3    H2 4693   2.847   3.880   0.912 -1.6607 -1.5845 -1.0863
 1578TIP3   OH2 4694   6.345   3.538   2.458 -0.2396 -0.7442 -0.6655
 1578TIP3    H1 4695   6.326   3.500   2.544  0.0977  1.9110  0.6230
 1578TIP3    H2 4696   6.264   3.581   2.432  0.1966 -0.0302 -0.8571
 1579TIP3   OH2 4697   1.554   0.222   4.837 -0.0228 -0.0817  0.2906
 1579TIP3    H1 4698   1.642   0.188   4.851 -0.5143 -1.1362  0.9249
 1579TIP3    H2 4699   1.523   0.175   4.760 -0.8634 -1.4073  1.4213
 1580TIP3   OH2 4700   2.333   1.295   5.015  0.2842  0.1828 -1.2250
 1580TIP3    H1 4701   2.314   1.347   5.094 -2.0430 -0.3885 -1.3496
 1580TIP3    H2 4702   2.266   1.227   5.015  0.5806 -0.1455 -3.4208
 1581TIP3   OH2 4703   5.178   4.317   0.018 -0.1887 -0.1680 -0.0359
 1581TIP3    H1 4704   5.091   4.302  -0.019  0.5209  0.9816 -2.2637
 1581TIP3    H2 4705   5.161   4.356   0.104 -1.8701  2.0835 -1.3468
 1582TIP3   OH2 4706   7.347   7.211   5.377 -0.5167  0.0922  0.2983
 1582TIP3    H1 4707   7.324   7.173   5.462 -0.3929  2.3306  1.3762
 1582TIP3    H2 4708   7.408   7.282   5.398 -0.3899  0.5930 -1.6661
 1583TIP3   OH2 4709   4.847   6.519   1.615 -0.2624  0.5305 -0.1092
 1583TIP3    H1 4710   4.902   6.588   1.651 -1.6296  0.3719  2.3987
 1583TIP3    H2 4711   4.823   6.550   1.528  0.3209  2.5403  0.4242
 1584TIP3   OH2 4712   1.005   0.819   4.321 -0.4971  0.0104 -0.3082
 1584TIP3    H1 4713   1.008   0.784   4.233 -2.0173  0.2277 -0.4571
 1584TIP3    H2 4714   1.077   0.777   4.367  0.9583  0.6792 -1.9350
 1585TIP3   OH2 4715   3.539   3.555   1.340  0.2095 -0.0038  0.1696
 1585TIP3    H1 4716   3.600   3.481   1.339 -0.9179 -0.9371 -0.8542
 1585TIP3    H2 4717   3.493   3.547   1.424  0.6393  0.0251  0.4160
 1586TIP3   OH2 4718   4.007   2.908   0.079 -0.2389 -0.1885  0.2894
 1586TIP3    H1 4719   3.989   2.994   0.042  0.5447  0.1652  0.7133
 1586TIP3    H2 4720   4.086   2.879   0.034 -1.0597 -1.1173 -0.5635
 1587TIP3   OH2 4721   2.309   2.759   6.190 -0.1854  0.0406 -0.1045
 1587TIP3    H1 4722   2.222   2.783   6.222  0.0018  0.3427  0.1921
 1587TIP3    H2 4723   2.307   2.778   6.097  0.3892  2.5435  0.3496
 1588TIP3   OH2 4724   7.387   5.826   1.529  0.5876 -0.1564  0.2556
 1588TIP3    H1 4725   7.301   5.862   1.504 -0.4967 -2.1375  1.0326
 1588TIP3    H2 4726   7.428   5.803   1.445 -0.7952 -1.7469 -0.0130
 1589TIP3   OH2 4727   1.568   0.331   5.891 -0.3443 -0.4315  0.2088
 1589TIP3    H1 4728   1.496   0.312   5.831  0.1104  0.8014 -0.7587
 1589TIP3    H2 4729   1.525   0.358   5.972 -0.9753 -0.1976 -0.1954
 1590TIP3   OH2 4730   6.912   4.735   3.416 -0.1775  0.4544 -0.7683
 1590TIP3    H1 4731   6.836   4.727   3.474  0.4144 -3.2263 -0.4032
 1590TIP3    H2 4732   6.876   4.735   3.328 -0.6823 -0.4885 -0.5671
 1591TIP3   OH2 4733   2.399   6.329   0.571  0.4129  0.4342  0.0168
 1591TIP3    H1 4734   2.440   6.377   0.643  1.4463 -0.7553  0.2397
 1591TIP3    H2 4735   2.473   6.295   0.520 -0.3089  0.7484 -1.2587
 1592TIP3   OH2 4736   0.392   7.291   1.860 -0.2612  0.0092 -0.1851
 1592TIP3    H1 4737   0.310   7.334   1.835 -0.9629 -1.0244  0.3002
 1592TIP3    H2 4738   0.365   7.205   1.891  0.8844  0.2042  1.3894
 1593TIP3   OH2 4739   3.459   0.491   0.573 -0.1352 -0.1979  0.3583
 1593TIP3    H1 4740   3.463   0.433   0.649  0.5343  0.2808  0.6922
 1593TIP3    H2 4741   3.389   0.455   0.519 -0.8033 -0.3715  1.3406
 1594TIP3   OH2 4742   1.064   6.580   0.165  0.3262 -0.5976 -0.0087
 1594TIP3    H1 4743   1.052   6.589   0.260  0.6260 -0.5568  0.0272
 1594TIP3    H2 4744   0.982   6.542   0.134 -0.1952  0.3952  0.1165
 1595TIP3   OH2 4745   1.294   6.684   2.067  0.2647 -0.6356 -0.2632
 1595TIP3    H1 4746   1.365   6.655   2.009  1.5092 -1.4044  1.5900
 1595TIP3    H2 4747   1.289   6.778   2.054  3.1549 -0.2374  1.1813
 1596TIP3   OH2 4748   6.813   2.081   5.438 -0.2194 -0.1580  0.1122
 1596TIP3    H1 4749   6.874   2.012   5.409  0.2322  0.1117  0.4095
 1596TIP3    H2 4750   6.857   2.163   5.415 -0.5194  0.0349  0.2334
 1597TIP3   OH2 4751   6.951   2.824   5.408  0.0360 -0.2495  0.2145
 1597TIP3    H1 4752   7.025   2.885   5.404 -0.3625  0.2266  0.0772
 1597TIP3    H2 4753   6.911   2.829   5.321 -0.0254 -0.6688  0.2196
 1598TIP3   OH2 4754   0.265   7.187   0.792  0.1379 -0.1906  0.5432
 1598TIP3    H1 4755   0.216   7.166   0.871 -1.8067 -0.5492 -0.7024
 1598TIP3    H2 4756   0.263   7.283   0.787 -2.0719 -0.2714 -0.4672
 1599TIP3   OH2 4757   0.873   5.776   1.548  0.0042  0.3844 -0.1470
 1599TIP3    H1 4758   0.952   5.823   1.525  0.2465 -0.4641 -1.1196
 1599TIP3    H2 4759   0.834   5.752   1.464  0.0502 -1.4015  0.3206
 1600TIP3   OH2 4760   3.445   4.932   1.403 -0.1641 -0.7945 -0.0577
 1600TIP3    H1 4761   3.365   4.899   1.362 -1.6986  1.6492  0.8682
 1600TIP3    H2 4762   3.426   4.931   1.497  1.1646 -0.8731  0.2194
 1601TIP3   OH2 4763   1.457   6.422   2.280 -0.6404  0.6863 -0.6162
 1601TIP3    H1 4764   1.375   6.412   2.328  0.4003  1.1636  1.3062
 1601TIP3    H2 4765   1.475   6.334   2.246 -0.0663 -0.3116  2.1153
 1602TIP3   OH2 4766   6.358   0.382   1.446 -0.7502 -0.2182  0.1932
 1602TIP3    H1 4767   6.445   0.374   1.485 -0.6656  0.2679  0.1064
 1602TIP3    H2 4768   6.371   0.359   1.354 -0.7070 -0.1075  0.1718
 1603TIP3   OH2 4769   6.156   2.720   6.274  0.2252 -0.2072 -0.3823
 1603TIP3    H1 4770   6.105   2.678   6.205 -1.5559 -0.8085  1.2466
 1603TIP3    H2 4771   6.142   2.814   6.260  0.9983 -0.2726 -1.6493
 1604TIP3   OH2 4772   2.312   6.955   1.401  0.3442 -0.8370 -0.0334
 1604TIP3    H1 4773   2.376   7.023   1.421 -0.8573  1.1247 -2.5804
 1604TIP3    H2 4774   2.237   6.975   1.458  0.2235 -0.3595 -0.3547
 1605TIP3   OH2 4775   6.196   3.287   6.360  0.7529 -0.1688  0.2408
 1605TIP3    H1 4776   6.117   3.269   6.410  0.7724  0.6371  0.5740
 1605TIP3    H2 4777   6.176   3.256   6.272 -0.0988  0.4296  0.2162
 1606TIP3   OH2 4778   6.497   3.528   3.842 -0.1588  0.0750  0.6494
 1606TIP3    H1 4779   6.440   3.603   3.861 -1.3107 -0.5154 -0.4143
 1606TIP3    H2 4780   6.569   3.564   3.791 -0.0195  0.6734  1.2590
 1607TIP3   OH2 4781   3.585   6.118   0.345 -1.0257  0.1962  0.5580
 1607TIP3    H1 4782   3.621   6.193   0.392  0.2793 -0.0161 -0.0979
 1607TIP3    H2 4783   3.491   6.122   0.363 -0.8045  1.2663  1.5446
 1608TIP3   OH2 4784   6.733   7.236   5.937  0.7545 -0.1809 -0.3967
 1608TIP3    H1 4785   6.687   7.152   5.931  2.7173 -1.2879 -0.4506
 1608TIP3    H2 4786   6.682   7.287   5.999 -1.8710 -0.4770 -2.2666
 1609TIP3   OH2 4787   4.224   0.743   3.530 -0.2548 -0.1869 -0.1114
 1609TIP3    H1 4788   4.275   0.820   3.505 -0.2573 -0.5420 -1.2456
 1609TIP3    H2 4789   4.259   0.718   3.615  0.1702  0.7028 -0.0188
 1610TIP3   OH2 4790   3.421   6.731   0.694  0.0331 -0.4457  0.4112
 1610TIP3    H1 4791   3.389   6.642   0.678 -0.4307 -0.1728 -0.1788
 1610TIP3    H2 4792   3.359   6.788   0.648  0.4361  0.1753  0.6290
 1611TIP3   OH2 4793   4.456   6.671   2.171  0.4594 -0.3352  0.1581
 1611TIP3    H1 4794   4.418   6.742   2.223  0.7251  1.2138 -1.7031
 1611TIP3    H2 4795   4.550   6.688   2.171  0.3318  0.5231 -1.9900
 1612TIP3   OH2 4796   0.653   2.132   5.912 -0.3928  0.1999 -0.0036
 1612TIP3    H1 4797   0.590   2.164   5.847 -0.6435 -0.6586 -0.1832
 1612TIP3    H2 4798   0.738   2.149   5.873 -0.5464 -0.4955 -0.6476
 1613TIP3   OH2 4799   6.454   3.274   6.088 -0.4777 -0.5190 -0.3406
 1613TIP3    H1 4800   6.503   3.304   6.165 -1.1998  0.3816 -0.2175
 1613TIP3    H2 4801   6.481   3.332   6.018 -0.4349 -0.8154 -0.5690
 1614TIP3   OH2 4802   3.498   6.628   1.026  0.0462  0.5679 -0.5893
 1614TIP3    H1 4803   3.459   6.545   1.054  1.7052 -0.4855 -1.3008
 1614TIP3    H2 4804   3.483   6.631   0.931 -1.4670  1.8868 -0.3154
 1615TIP3   OH2 4805   1.832   7.083   0.266  0.3600 -0.3568 -0.1097
 1615TIP3    H1 4806   1.833   7.126   0.180 -1.5041  1.5706  0.7751
 1615TIP3    H2 4807   1.853   6.992   0.248  2.0673  0.4452 -2.3574
 1616TIP3   OH2 4808   4.283   0.642   0.540  0.1167 -0.1515 -0.2810
 1616TIP3    H1 4809   4.378   0.651   0.543  0.1962 -0.4157 -1.6027
 1616TIP3    H2 4810   4.263   0.638   0.447 -1.2285  0.2948 -0.0138
 1617TIP3   OH2 4811   2.660   7.010   1.623 -0.1082  0.0341  0.5176
 1617TIP3    H1 4812   2.690   7.101   1.616  0.2357 -0.1366 -0.2503
 1617TIP3    H2 4813   2.565   7.015   1.615 -0.1467  0.3975  1.1822
 1618TIP3   OH2 4814   4.734   0.132   0.343  0.1757 -0.3337 -0.0153
 1618TIP3    H1 4815   4.765   0.047   0.311 -1.6915 -0.9065 -0.3844
 1618TIP3    H2 4816   4.771   0.139   0.431 -0.7008 -2.1254  0.5094
 1619TIP3   OH2 4817   6.822   0.085   1.286 -0.0331 -0.4241 -0.2471
 1619TIP3    H1 4818   6.784   0.164   1.247  1.4873  1.0039  1.0907
 1619TIP3    H2 4819   6.825   0.022   1.214 -1.7408  0.5629 -1.2077
 1620TIP3   OH2 4820   0.164   4.395   3.500 -0.1105  0.4125  0.1413
 1620TIP3    H1 4821   0.073   4.399   3.469 -0.3298  0.0789  0.7509
 1620TIP3    H2 4822   0.201   4.319   3.455  0.2479  1.3014 -1.1132
 1621TIP3   OH2 4823   2.645   6.783   0.182 -0.3792 -0.0145  0.2957
 1621TIP3    H1 4824   2.610   6.825   0.103 -2.1535 -1.3560  0.3598
 1621TIP3    H2 4825   2.584   6.712   0.201  1.3825 -1.2493  1.4793
 1622TIP3   OH2 4826   0.543   6.624   3.509 -0.5337 -0.1159  0.2206
 1622TIP3    H1 4827   0.528   6.629   3.604 -0.1900 -0.5085  0.2994
 1622TIP3    H2 4828   0.592   6.704   3.489 -0.2383 -0.2341  0.4519
 1623TIP3   OH2 4829   4.677   6.307   1.675  0.2961  0.1751  0.2208
 1623TIP3    H1 4830   4.599   6.311   1.620  0.6025 -0.8678 -0.3103
 1623TIP3    H2 4831   4.726   6.387   1.655  0.0549  0.1397 -0.4897
 1624TIP3   OH2 4832   0.991   2.084   5.546 -0.1766 -0.4774  0.2008
 1624TIP3    H1 4833   1.080   2.053   5.563 -0.0060 -1.1572 -1.7937
 1624TIP3    H2 4834   0.989   2.100   5.452 -1.3996  2.0372  0.6278
 1625TIP3   OH2 4835   4.054   6.851   2.283  0.1311  0.5694  0.1786
 1625TIP3    H1 4836   4.097   6.766   2.280 -0.3610  0.3502 -1.0497
 1625TIP3    H2 4837   3.966   6.835   2.247 -0.7157  1.1660  1.8838
 1626TIP3   OH2 4838   2.891   6.865   0.751  1.0174  0.1871 -0.2058
 1626TIP3    H1 4839   2.936   6.950   0.757  1.0135  0.1422  0.4875
 1626TIP3    H2 4840   2.942   6.816   0.686  0.4743  1.0504 -1.3003
 1627TIP3   OH2 4841   3.701   6.430   1.182 -0.1438 -0.0274  0.0672
 1627TIP3    H1 4842   3.727   6.522   1.180  2.9238 -0.8896 -1.7064
 1627TIP3    H2 4843   3.714   6.398   1.093 -3.8796 -1.5443 -0.0639
 1628TIP3   OH2 4844   1.284   2.358   6.219  0.5539  0.4378  0.5599
 1628TIP3    H1 4845   1.210   2.398   6.172  0.9232 -0.1091 -0.4927
 1628TIP3    H2 4846   1.356   2.360   6.156  1.8273  2.1605  2.0275
 1629TIP3   OH2 4847   3.367   6.391   1.119 -0.7197  0.4814  0.2246
 1629TIP3    H1 4848   3.363   6.312   1.173 -1.8875  0.0132 -0.5195
 1629TIP3    H2 4849   3.324   6.459   1.172 -0.7235  0.3386  0.4050
 1630TIP3   OH2 4850   3.901   7.059   0.152  0.1235  0.0226 -0.1127
 1630TIP3    H1 4851   3.903   7.152   0.129  1.5173 -0.0077 -0.1648
 1630TIP3    H2 4852   3.883   7.015   0.069 -0.3759  0.2335 -0.1178
 1631TIP3   OH2 4853   2.433   6.885   0.681  0.2916  0.1836 -1.0023
 1631TIP3    H1 4854   2.350   6.861   0.721  0.5105 -0.9937 -1.2347
 1631TIP3    H2 4855   2.497   6.875   0.752  0.0926  2.1995 -0.5030
 1632TIP3   OH2 4856   2.801   4.852   0.899  0.2127  0.1236 -0.3038
 1632TIP3    H1 4857   2.885   4.892   0.919  0.1500  0.4861 -0.7688
 1632TIP3    H2 4858   2.756   4.847   0.983  0.9680 -0.6989  0.0622
 1633TIP3   OH2 4859   3.399   6.173   0.880  0.6371  0.0583  0.0993
 1633TIP3    H1 4860   3.425   6.252   0.927 -0.1817  0.1524  0.4007
 1633TIP3    H2 4861   3.331   6.133   0.935  0.1274 -0.1701 -0.6795
 1634TIP3   OH2 4862   3.617   7.103   2.900  0.0716  0.1386  0.6607
 1634TIP3    H1 4863   3.674   7.036   2.863  1.3703  1.1606  0.7672
 1634TIP3    H2 4864   3.561   7.130   2.826  0.0302 -0.5502  0.4399
 1635TIP3   OH2 4865   0.286   1.218   3.778  0.1790  0.6828 -0.7606
 1635TIP3    H1 4866   0.332   1.277   3.718  1.0425 -0.2086 -0.9912
 1635TIP3    H2 4867   0.352   1.192   3.842 -0.4669  0.7953 -0.0429
 1636TIP3   OH2 4868   3.412   1.586   5.757  0.5341  0.6479  0.3963
 1636TIP3    H1 4869   3.352   1.649   5.717  1.2232  0.6697 -0.6225
 1636TIP3    H2 4870   3.461   1.638   5.822  2.4551  1.6570 -1.7757
 1637TIP3   OH2 4871   1.455   7.299   5.106 -0.2744  0.3447 -0.2687
 1637TIP3    H1 4872   1.402   7.376   5.087  1.8696  1.8684 -0.2383
 1637TIP3    H2 4873   1.480   7.265   5.020  1.7384  1.7936 -0.2702
 1638TIP3   OH2 4874   2.562   1.268   5.355 -0.0297 -0.0377  0.5002
 1638TIP3    H1 4875   2.649   1.286   5.392  0.4136 -1.2852  0.0917
 1638TIP3    H2 4876   2.561   1.316   5.272  1.4217 -2.4113 -0.9381
 1639TIP3   OH2 4877   2.827   1.018   4.427  0.5522 -0.1054  0.1779
 1639TIP3    H1 4878   2.751   0.969   4.459  1.0278 -0.0169  1.4437
 1639TIP3    H2 4879   2.843   0.983   4.339  0.2338 -1.4587  0.6537
 1640TIP3   OH2 4880   1.573   0.525   5.141 -0.0596 -0.0777  0.1573
 1640TIP3    H1 4881   1.658   0.490   5.166 -0.5036 -1.0891  0.3089
 1640TIP3    H2 4882   1.593   0.596   5.080  0.8963 -0.1552  0.3743
 1641TIP3   OH2 4883   4.163   1.487   2.796  0.4557 -0.1119 -0.2220
 1641TIP3    H1 4884   4.073   1.474   2.825  1.3056 -1.3647  2.0320
 1641TIP3    H2 4885   4.206   1.528   2.871  1.9506 -0.3041 -0.9564
 1642TIP3   OH2 4886   5.482   5.671   2.223 -0.0242  0.1546  0.3141
 1642TIP3    H1 4887   5.521   5.676   2.136 -0.8850 -0.4784 -0.1139
 1642TIP3    H2 4888   5.482   5.578   2.244  1.4751  0.4328  1.5924
 1643TIP3   OH2 4889   6.437   6.787   6.028  0.1919  0.0621 -0.2206
 1643TIP3    H1 4890   6.397   6.809   6.113 -0.3722  3.8656 -1.3393
 1643TIP3    H2 4891   6.507   6.726   6.050 -1.7502 -1.2718  2.6363
 1644TIP3   OH2 4892   1.889   2.893   3.609 -0.3378 -0.3984 -0.0245
 1644TIP3    H1 4893   1.809   2.923   3.566 -1.1041  1.1820  2.4229
 1644TIP3    H2 4894   1.959   2.934   3.558 -1.1919  0.7423 -0.3017
 1645TIP3   OH2 4895   1.937   1.565   3.770  0.2506 -0.2681  0.3012
 1645TIP3    H1 4896   1.893   1.487   3.737 -1.0028  0.7219 -0.3934
 1645TIP3    H2 4897   1.874   1.636   3.757  1.3048  0.8356  1.0880
 1646TIP3   OH2 4898   0.825   1.737   3.601 -0.2047  0.0543  0.1390
 1646TIP3    H1 4899   0.814   1.757   3.694  0.3668  0.0538  0.2102
 1646TIP3    H2 4900   0.912   1.696   3.596 -0.2090  0.1129 -0.4016
 1647TIP3   OH2 4901   2.402   7.019   3.697 -0.2981  0.1324 -0.2124
 1647TIP3    H1 4902   2.466   6.948   3.707 -0.2771  0.0249 -1.0412
 1647TIP3    H2 4903   2.325   6.977   3.658  0.0760  0.7264 -1.6622
 1648TIP3   OH2 4904   0.193   5.672   6.196 -0.0004  0.4377  0.5321
 1648TIP3    H1 4905   0.124   5.677   6.129  1.5502 -1.7361 -1.3209
 1648TIP3    H2 4906   0.152   5.628   6.270 -1.0987  0.7739  0.1251
 1649TIP3   OH2 4907   0.341   7.366   4.162 -0.1808 -0.7046 -0.0654
 1649TIP3    H1 4908   0.335   7.273   4.183  0.2372 -0.7373 -0.0791
 1649TIP3    H2 4909   0.403   7.401   4.227  2.1147 -1.0565 -2.0057
 1650TIP3   OH2 4910   7.308   6.822   2.589  0.4299 -0.4688 -0.2583
 1650TIP3    H1 4911   7.340   6.819   2.679 -0.1974  0.1275 -0.0124
 1650TIP3    H2 4912   7.371   6.770   2.540  0.2967 -1.5250  0.6678
 1651TIP3   OH2 4913   3.151   0.053   3.666 -0.0879  0.2484 -0.2056
 1651TIP3    H1 4914   3.181  -0.029   3.628 -0.6823 -1.0277  1.9830
 1651TIP3    H2 4915   3.060   0.062   3.637  0.2291  0.5628 -1.1125
 1652TIP3   OH2 4916   1.415   2.147   5.894 -0.4139  0.0990 -0.2199
 1652TIP3    H1 4917   1.324   2.161   5.921 -0.2057  0.6192  0.2235
 1652TIP3    H2 4918   1.440   2.065   5.937 -1.0836 -0.7383 -1.4010
 1653TIP3   OH2 4919   4.451   0.132   5.919  0.6912  0.0296 -0.0003
 1653TIP3    H1 4920   4.485   0.053   5.961 -0.9352 -0.6652  0.0313
 1653TIP3    H2 4921   4.481   0.125   5.828 -1.5098 -1.9106 -0.6380
 1654TIP3   OH2 4922   6.228   7.172   3.899 -0.5167 -0.6988  0.2272
 1654TIP3    H1 4923   6.227   7.082   3.933  0.7784 -0.5822  0.5965
 1654TIP3    H2 4924   6.287   7.219   3.958  1.5505 -0.4219 -1.9656
 1655TIP3   OH2 4925   0.210   0.212   5.471  0.7100  0.1173 -0.3127
 1655TIP3    H1 4926   0.301   0.190   5.451  0.9239  0.3471  0.4062
 1655TIP3    H2 4927   0.195   0.295   5.425 -0.2305 -1.6752 -3.3835
 1656TIP3   OH2 4928   0.294   6.774   2.371 -0.2769 -0.3279 -0.5731
 1656TIP3    H1 4929   0.261   6.726   2.295  0.5984  1.1148 -1.9103
 1656TIP3    H2 4930   0.230   6.844   2.386  0.1269  0.0746 -0.7014
 1657TIP3   OH2 4931   1.021   1.575   4.701 -0.8099 -0.6218  0.2516
 1657TIP3    H1 4932   0.997   1.487   4.730 -1.7443 -0.7308 -0.8125
 1657TIP3    H2 4933   1.040   1.566   4.607  3.3358 -0.5001  0.9945
 1658TIP3   OH2 4934   2.297   1.373   4.749 -0.4032 -0.2223 -0.9677
 1658TIP3    H1 4935   2.277   1.338   4.836  0.2627  0.8787 -0.3528
 1658TIP3    H2 4936   2.218   1.357   4.698 -1.4473  0.6245  0.3282
 1659TIP3   OH2 4937   2.194   7.264   3.766  0.7680 -0.0108 -0.1875
 1659TIP3    H1 4938   2.233   7.292   3.850  0.4638 -0.5522  0.1375
 1659TIP3    H2 4939   2.244   7.187   3.741  0.0270 -0.6055  0.1424
 1660TIP3   OH2 4940   1.910   0.409   4.964  0.3020  0.4706  0.5338
 1660TIP3    H1 4941   1.870   0.355   4.896  1.8217 -0.4689  0.3833
 1660TIP3    H2 4942   1.911   0.497   4.926 -1.7329  0.5637  0.6010
 1661TIP3   OH2 4943   2.209   0.143   2.670 -0.2581 -0.3060 -0.1470
 1661TIP3    H1 4944   2.165   0.170   2.750  0.1260 -0.9019  0.2716
 1661TIP3    H2 4945   2.284   0.092   2.700  0.6489  0.6005 -0.8583
 1662TIP3   OH2 4946   1.208   1.743   3.031  0.0912 -0.3281  0.0072
 1662TIP3    H1 4947   1.148   1.671   3.010  0.0657 -0.0717 -0.8058
 1662TIP3    H2 4948   1.275   1.739   2.963 -0.3916  0.9676 -0.5626
 1663TIP3   OH2 4949   0.511   0.073   5.812 -0.2427 -0.3711 -0.0360
 1663TIP3    H1 4950   0.439   0.020   5.776  0.6332 -1.9210  0.4263
 1663TIP3    H2 4951   0.482   0.094   5.901 -1.6328  1.9659 -1.0062
 1664TIP3   OH2 4952   5.962   6.619   4.386 -0.3573 -0.0760  0.0517
 1664TIP3    H1 4953   5.868   6.606   4.397 -0.2103 -0.0982  1.4045
 1664TIP3    H2 4954   6.000   6.591   4.470  0.7385  1.0151 -0.0700
 1665TIP3   OH2 4955   1.333   7.219   3.752  0.0112  0.1895  0.5396
 1665TIP3    H1 4956   1.329   7.192   3.660  0.1864 -2.7149  1.3486
 1665TIP3    H2 4957   1.253   7.269   3.766 -0.7097 -0.5539 -0.8341
 1666TIP3   OH2 4958   0.434   6.042   2.683  0.4709  0.1260 -0.5403
 1666TIP3    H1 4959   0.432   5.955   2.642 -0.0167  0.4785 -1.2629
 1666TIP3    H2 4960   0.427   6.103   2.610  1.4469  0.7923 -0.0791
 1667TIP3   OH2 4961   7.706   5.956   4.907 -0.0881 -0.2618 -0.2916
 1667TIP3    H1 4962   7.665   6.042   4.920  0.5352 -0.2818  2.0456
 1667TIP3    H2 4963   7.658   5.917   4.834 -0.8143  1.7908 -0.9510
 1668TIP3   OH2 4964   7.340   7.232   4.669 -0.2908 -0.2039  0.1715
 1668TIP3    H1 4965   7.427   7.237   4.630 -0.1957 -1.3279  0.2240
 1668TIP3    H2 4966   7.286   7.189   4.602 -0.8455  0.6350  0.0736
 1669TIP3   OH2 4967   7.531   6.825   3.532  0.1184  0.3334 -0.7025
 1669TIP3    H1 4968   7.487   6.820   3.617 -1.3560  0.7797 -1.4234
 1669TIP3    H2 4969   7.467   6.791   3.469  1.7036 -1.2712 -1.4707
 1670TIP3   OH2 4970   3.054   1.028   4.560  0.3093 -0.1238  0.2045
 1670TIP3    H1 4971   3.101   1.097   4.513 -0.2979  0.3100  0.2313
 1670TIP3    H2 4972   2.962   1.044   4.539  0.1678 -0.9512  0.1758
 1671TIP3   OH2 4973   5.467   5.756   5.521 -0.1827 -0.2857 -0.3305
 1671TIP3    H1 4974   5.553   5.797   5.535 -0.3912  0.8230 -2.2269
 1671TIP3    H2 4975   5.482   5.663   5.541  1.0266  0.1920  1.0555
 1672TIP3   OH2 4976   2.111   1.628   2.821 -0.7166 -0.5370  0.6894
 1672TIP3    H1 4977   2.109   1.715   2.780 -1.3763 -0.4907  0.8149
 1672TIP3    H2 4978   2.204   1.612   2.838 -0.3508 -0.9004 -1.5333
 1673TIP3   OH2 4979   2.449   1.016   5.341  0.0987  0.0670  0.7096
 1673TIP3    H1 4980   2.472   1.109   5.329  1.0964 -0.3688 -0.9761
 1673TIP3    H2 4981   2.372   1.017   5.396 -2.0098  2.1009 -2.1153
 1674TIP3   OH2 4982   2.194   0.466   3.536  0.4390  0.2292 -0.0284
 1674TIP3    H1 4983   2.146   0.387   3.509  1.3539 -0.0991 -0.7530
 1674TIP3    H2 4984   2.130   0.536   3.532  0.2878  0.0162 -2.2050
 1675TIP3   OH2 4985   0.908   6.017   4.281  0.1917  0.0232  0.7553
 1675TIP3    H1 4986   0.837   6.012   4.345 -0.4741  1.5666  0.1622
 1675TIP3    H2 4987   0.974   5.956   4.314 -1.6211 -1.8511  1.0427
 1676TIP3   OH2 4988   2.110   1.181   4.579  0.3387 -0.0066 -0.3002
 1676TIP3    H1 4989   2.143   1.166   4.490  0.3837 -0.5241 -0.1945
 1676TIP3    H2 4990   2.124   1.099   4.625  0.2658  0.2434  0.1760
 1677TIP3   OH2 4991   7.462   7.388   3.214  0.4290  0.5289  0.6162
 1677TIP3    H1 4992   7.401   7.322   3.249 -1.0836  1.0883 -0.8841
 1677TIP3    H2 4993   7.543   7.339   3.197 -0.5859 -0.9130 -0.2217
 1678TIP3   OH2 4994   3.763   3.684   0.043  0.0582  0.0863  0.3409
 1678TIP3    H1 4995   3.771   3.676   0.138  3.0939  0.3351  0.1812
 1678TIP3    H2 4996   3.816   3.612   0.009  0.2648  0.9180 -1.1425
 1679TIP3   OH2 4997   0.149   7.001   3.039 -0.0142  0.0450  0.2124
 1679TIP3    H1 4998   0.199   7.081   3.022  0.2473 -0.2047 -0.2013
 1679TIP3    H2 4999   0.164   6.946   2.962 -0.4804 -0.2589  0.3354
 1680TIP3   OH2 5000   1.590   0.239   3.585 -0.0972 -0.2335  0.2123
 1680TIP3    H1 5001   1.606   0.274   3.673  0.8848  1.2339 -0.5339
 1680TIP3    H2 5002   1.555   0.151   3.601 -0.1749  0.1003  2.0722
 1681TIP3   OH2 5003   3.684   0.241   4.375 -0.0568 -0.2703 -0.2231
 1681TIP3    H1 5004   3.591   0.227   4.358 -0.0353  0.9684 -1.5081
 1681TIP3    H2 5005   3.729   0.176   4.321 -0.1161  0.8867 -1.6998
 1682TIP3   OH2 5006   4.532   4.134   0.957 -0.0309 -0.0306 -0.0978
 1682TIP3    H1 5007   4.455   4.104   1.006  0.0811  1.4907  1.0546
 1682TIP3    H2 5008   4.496   4.190   0.888 -0.0524 -0.6258 -0.5780
 1683TIP3   OH2 5009   2.681   2.794   4.262  0.1155  0.3164  0.0786
 1683TIP3    H1 5010   2.703   2.884   4.287  0.6716  0.1676  0.1512
 1683TIP3    H2 5011   2.734   2.740   4.322 -2.1170 -0.0893  1.7453
 1684TIP3   OH2 5012   1.650   1.845   2.892 -0.4003  0.3903  0.5056
 1684TIP3    H1 5013   1.720   1.859   2.829  0.1064 -1.4927  0.6296
 1684TIP3    H2 5014   1.668   1.759   2.930 -1.1725  1.1045  2.6008
 1685TIP3   OH2 5015   1.985   0.939   3.427  0.5368  0.6806  0.2595
 1685TIP3    H1 5016   1.955   1.017   3.380 -1.0661 -0.2348 -0.2577
 1685TIP3    H2 5017   1.965   0.958   3.519  0.1820  0.8812  0.1400
 1686TIP3   OH2 5018   5.996   7.182   3.477  0.2404 -0.2516  0.2921
 1686TIP3    H1 5019   6.055   7.138   3.417 -0.5122  0.7247 -1.2010
 1686TIP3    H2 5020   6.021   7.274   3.473  0.8148 -0.3014  2.2230
 1687TIP3   OH2 5021   7.294   7.209   3.381  0.7087  0.3842  0.2377
 1687TIP3    H1 5022   7.315   7.290   3.427 -0.1293  0.1202  1.0890
 1687TIP3    H2 5023   7.283   7.144   3.450  0.3799 -0.2197 -0.3792
 1688TIP3   OH2 5024   3.960   1.495   2.979  0.4576 -1.4023  0.4386
 1688TIP3    H1 5025   3.867   1.476   2.986  0.2941 -1.4666 -1.6447
 1688TIP3    H2 5026   3.971   1.578   3.026  0.1798 -3.5909  4.5943
 1689TIP3   OH2 5027   4.900   7.372   3.096 -0.1204 -0.4255  0.1482
 1689TIP3    H1 5028   4.903   7.276   3.090  0.0630 -0.3760 -0.6100
 1689TIP3    H2 5029   4.905   7.390   3.190 -2.0803 -1.2234  0.4401
 1690TIP3   OH2 5030   0.346   1.140   5.237 -0.1533 -0.4045 -0.4209
 1690TIP3    H1 5031   0.381   1.212   5.185  0.4866 -0.2314  0.2298
 1690TIP3    H2 5032   0.421   1.111   5.290 -0.0923 -2.3275 -1.5344
 1691TIP3   OH2 5033   7.780   6.338   6.234  0.6123 -0.0556  0.3933
 1691TIP3    H1 5034   7.819   6.419   6.265  1.6928 -0.5745  0.3954
 1691TIP3    H2 5035   7.727   6.307   6.308  0.3649  0.5267  0.4646
 1692TIP3   OH2 5036   3.867   0.047   5.439 -0.1314 -0.0643 -0.3105
 1692TIP3    H1 5037   3.860   0.106   5.515  0.0693 -0.3834 -0.0398
 1692TIP3    H2 5038   3.806   0.083   5.375  0.3067  0.6947 -0.3149
 1693TIP3   OH2 5039   0.843   0.202   2.086  0.0456 -0.7036  0.2371
 1693TIP3    H1 5040   0.795   0.165   2.160 -0.8800 -0.4403 -0.2297
 1693TIP3    H2 5041   0.887   0.126   2.046 -1.8568 -1.3090 -0.7320
 1694TIP3   OH2 5042   2.889   0.283   2.762 -0.3210 -0.1321  0.0154
 1694TIP3    H1 5043   2.979   0.297   2.734 -0.2722 -1.7897 -0.7184
 1694TIP3    H2 5044   2.838   0.283   2.681 -1.0076  0.9592  0.4416
 1695TIP3   OH2 5045   2.039   6.458   4.258 -0.4239 -0.4467 -0.1090
 1695TIP3    H1 5046   2.095   6.401   4.206 -0.3511 -0.9389  0.4908
 1695TIP3    H2 5047   1.955   6.457   4.212 -0.4610 -1.1542 -0.0415
 1696TIP3   OH2 5048   2.112   1.943   2.430 -0.3028  0.5072 -0.8839
 1696TIP3    H1 5049   2.155   2.027   2.446 -0.7939  0.7651 -0.9150
 1696TIP3    H2 5050   2.138   1.920   2.341 -0.3254  0.7250 -0.9484
 1697TIP3   OH2 5051   5.764   6.194   6.288 -0.8755 -0.2108  0.8663
 1697TIP3    H1 5052   5.693   6.255   6.311 -0.4744  1.6486 -2.4757
 1697TIP3    H2 5053   5.780   6.210   6.195  3.8436 -0.7054  1.4715
 1698TIP3   OH2 5054   3.740   0.459   4.973  0.6698 -0.1520 -0.6976
 1698TIP3    H1 5055   3.718   0.431   5.062  0.1574 -0.4654 -0.9234
 1698TIP3    H2 5056   3.792   0.539   4.986  0.5530 -0.1628 -0.1210
 1699TIP3   OH2 5057   7.525   7.059   2.027 -0.2058 -0.0660 -0.0888
 1699TIP3    H1 5058   7.516   6.990   1.961  2.3835  0.7472 -1.3813
 1699TIP3    H2 5059   7.588   7.024   2.090  0.7880  0.9357 -0.5149
 1700TIP3   OH2 5060   0.236   6.156   4.711 -0.4143 -0.3052 -0.2453
 1700TIP3    H1 5061   0.245   6.147   4.806  0.2171  2.1693 -0.0290
 1700TIP3    H2 5062   0.157   6.208   4.699  0.3218  0.6743 -0.9885
 1701TIP3   OH2 5063   0.891   7.333   6.362 -0.1365  0.2880  0.4036
 1701TIP3    H1 5064   0.855   7.296   6.281  0.5941  0.4830 -0.0161
 1701TIP3    H2 5065   0.904   7.425   6.343  0.7620  0.1814  0.4813
 1702TIP3   OH2 5066   7.574   6.528   3.214 -0.7053  0.3993  0.0551
 1702TIP3    H1 5067   7.569   6.586   3.138 -0.4570  0.5096  0.1236
 1702TIP3    H2 5068   7.641   6.567   3.270 -1.1248  0.5026  0.4863
 1703TIP3   OH2 5069   0.335   6.351   3.928 -0.4375 -0.2461  0.1680
 1703TIP3    H1 5070   0.405   6.296   3.962  0.6513  1.0966  0.1198
 1703TIP3    H2 5071   0.342   6.432   3.979 -0.5039  0.7631 -1.4204
 1704TIP3   OH2 5072   0.144   6.624   3.228 -0.4841  0.0906  0.2839
 1704TIP3    H1 5073   0.086   6.667   3.290 -1.5692 -0.0927 -0.5928
 1704TIP3    H2 5074   0.162   6.538   3.267 -0.3869  0.3352  0.7877
 1705TIP3   OH2 5075   7.497   5.628   5.188 -0.0116 -0.0107 -0.5399
 1705TIP3    H1 5076   7.576   5.644   5.241 -0.3959 -0.1519  0.0842
 1705TIP3    H2 5077   7.531   5.591   5.107  0.4866 -1.3153  0.2472
 1706TIP3   OH2 5078   2.525   1.045   6.302 -0.2379  0.4983 -0.2015
 1706TIP3    H1 5079   2.507   1.107   6.232  0.6884 -0.2308 -1.1203
 1706TIP3    H2 5080   2.602   0.996   6.270 -0.9055 -1.0451  0.5252
 1707TIP3   OH2 5081   5.275   7.282   4.816  0.0922  0.5234  0.1433
 1707TIP3    H1 5082   5.354   7.306   4.768 -0.0133 -0.2074 -0.4035
 1707TIP3    H2 5083   5.291   7.311   4.905  1.5441 -0.8689  0.3441
 1708TIP3   OH2 5084   4.791   6.145   3.440  0.1884 -0.7548 -0.3097
 1708TIP3    H1 5085   4.855   6.214   3.420 -1.8545  0.9543 -1.2299
 1708TIP3    H2 5086   4.766   6.162   3.531 -1.0698  0.4282 -0.8437
 1709TIP3   OH2 5087   0.493   7.164   4.304 -0.4972  0.2630  0.5604
 1709TIP3    H1 5088   0.533   7.080   4.278  1.8156  0.1883  4.1544
 1709TIP3    H2 5089   0.468   7.151   4.395 -0.4514  3.3877  1.0503
 1710TIP3   OH2 5090   7.566   6.459   0.489  0.1421  0.1434  0.2321
 1710TIP3    H1 5091   7.522   6.414   0.417 -0.2313  0.7747  0.0663
 1710TIP3    H2 5092   7.501   6.463   0.558  0.0487  0.7568  0.1142
 1711TIP3   OH2 5093   4.567   1.505   3.303 -0.7589  0.2239 -0.1639
 1711TIP3    H1 5094   4.640   1.487   3.244 -1.5871  1.5408 -1.6292
 1711TIP3    H2 5095   4.534   1.419   3.328 -0.7707 -0.3458 -2.1015
 1712TIP3   OH2 5096   2.171   6.901   3.638 -0.5847 -0.0108 -0.5302
 1712TIP3    H1 5097   2.153   6.808   3.646 -0.1649 -0.0308  0.1435
 1712TIP3    H2 5098   2.104   6.943   3.692  0.7066 -0.0345  1.1162
 1713TIP3   OH2 5099   1.768   0.473   5.703 -0.0770  0.0734  0.0827
 1713TIP3    H1 5100   1.683   0.486   5.660  0.6095  1.8523 -0.7649
 1713TIP3    H2 5101   1.746   0.447   5.792 -1.5081 -0.1569 -0.3202
 1714TIP3   OH2 5102   7.774   5.428   2.992  0.4769 -0.0584  0.1191
 1714TIP3    H1 5103   7.780   5.368   2.918 -1.8680 -1.5252  1.0819
 1714TIP3    H2 5104   7.693   5.477   2.977  0.9090  0.8786  0.7957
 1715TIP3   OH2 5105   1.370   6.619   3.436 -0.0699 -0.1603  0.2872
 1715TIP3    H1 5106   1.380   6.673   3.357 -0.8621 -1.1467 -0.5033
 1715TIP3    H2 5107   1.308   6.668   3.490  1.7498  1.3646  1.0923
 1716TIP3   OH2 5108   1.560   6.443   2.022 -0.7681  0.1433 -0.4238
 1716TIP3    H1 5109   1.478   6.405   1.991 -0.6472 -0.1962 -0.3248
 1716TIP3    H2 5110   1.547   6.455   2.116 -0.6323 -0.0949 -0.3737
 1717TIP3   OH2 5111   2.305   6.181   4.011  0.0510  0.3424 -0.3366
 1717TIP3    H1 5112   2.293   6.177   3.916 -1.1709 -1.1978 -0.1466
 1717TIP3    H2 5113   2.347   6.097   4.033 -0.7485  0.1831  0.6225
 1718TIP3   OH2 5114   2.560   1.765   1.534 -0.1279  0.5942 -0.0217
 1718TIP3    H1 5115   2.558   1.689   1.592 -0.9104  0.9283  0.3990
 1718TIP3    H2 5116   2.589   1.730   1.450 -1.7230 -0.4013 -0.1719
 1719TIP3   OH2 5117   0.118   7.147   3.566 -0.4656 -0.6268  0.1368
 1719TIP3    H1 5118   0.147   7.173   3.479  2.2464  0.9507  1.4611
 1719TIP3    H2 5119   0.025   7.128   3.556 -0.3451  0.2524 -2.9336
 1720TIP3   OH2 5120   3.496   0.994   5.383 -0.1130  0.5994  0.0770
 1720TIP3    H1 5121   3.546   0.913   5.379 -1.3865 -0.2303  0.8281
 1720TIP3    H2 5122   3.481   1.017   5.291  0.3251  0.0350 -0.1384
 1721TIP3   OH2 5123   2.453   5.720   3.927 -0.3014  0.2359  0.5632
 1721TIP3    H1 5124   2.522   5.658   3.903  0.8360  0.7234  2.5127
 1721TIP3    H2 5125   2.374   5.666   3.932  0.3147 -0.7102  0.4039
 1722TIP3   OH2 5126   2.352   7.087   4.199 -0.2565  0.0303 -0.1386
 1722TIP3    H1 5127   2.440   7.105   4.231  0.6365  1.1751 -3.0537
 1722TIP3    H2 5128   2.358   7.000   4.161 -0.7474 -0.4453  0.8639
 1723TIP3   OH2 5129   7.160   6.727   5.953 -0.3608  0.6770  0.1223
 1723TIP3    H1 5130   7.182   6.733   5.860  0.9779 -1.4170  0.2885
 1723TIP3    H2 5131   7.230   6.674   5.991 -1.2899  0.8973  2.1974
 1724TIP3   OH2 5132   4.335   0.978   2.581  1.5651  0.0519 -0.0050
 1724TIP3    H1 5133   4.383   0.988   2.663  0.8822  1.7699  0.1986
 1724TIP3    H2 5134   4.266   0.915   2.600  0.7358  1.2619  1.0460
 1725TIP3   OH2 5135   4.101   0.980   2.376  0.2995 -0.3030 -0.0170
 1725TIP3    H1 5136   4.074   0.913   2.439 -1.2512  1.2569  1.0409
 1725TIP3    H2 5137   4.189   1.005   2.404  0.7113 -1.5539 -0.1506
 1726TIP3   OH2 5138   6.687   5.176   0.655  0.4377  0.0841 -0.1615
 1726TIP3    H1 5139   6.686   5.103   0.593  1.5195  0.0335 -0.1359
 1726TIP3    H2 5140   6.610   5.228   0.633  1.1971  0.4563 -2.0135
 1727TIP3   OH2 5141   2.499   0.518   1.355 -0.3141 -0.1390 -0.0246
 1727TIP3    H1 5142   2.483   0.611   1.339  2.0867  0.7906  2.4781
 1727TIP3    H2 5143   2.427   0.490   1.411 -0.6679  0.3700 -0.2188
 1728TIP3   OH2 5144   2.814   0.815   4.157 -0.2916 -0.2184 -0.2262
 1728TIP3    H1 5145   2.866   0.784   4.232  0.3886  1.3299 -0.0449
 1728TIP3    H2 5146   2.757   0.741   4.136  1.2879 -1.6101  0.1985
 1729TIP3   OH2 5147   2.769   0.535   3.799  0.0485  0.2667  0.0731
 1729TIP3    H1 5148   2.861   0.519   3.777 -0.0715 -0.1821 -0.0940
 1729TIP3    H2 5149   2.740   0.600   3.735 -0.4019 -1.2949 -1.3303
 1730TIP3   OH2 5150   4.330   3.050   3.886  0.7657 -0.1674  0.6048
 1730TIP3    H1 5151   4.401   3.109   3.912  0.6399 -0.7397  2.3475
 1730TIP3    H2 5152   4.294   3.019   3.969  0.2472 -1.9824 -0.2822
 1731TIP3   OH2 5153   7.304   6.009   3.035  0.1409  0.2547 -0.6230
 1731TIP3    H1 5154   7.273   6.100   3.038  0.2070  0.3218 -1.6867
 1731TIP3    H2 5155   7.235   5.962   2.989 -0.1612 -0.3559  0.4362
 1732TIP3   OH2 5156   3.762   1.321   4.000  0.5547 -0.1700 -0.6832
 1732TIP3    H1 5157   3.808   1.336   4.083  0.0006 -0.2783 -0.3565
 1732TIP3    H2 5158   3.718   1.237   4.012  0.3721 -0.1257 -1.0443
 1733TIP3   OH2 5159   0.158   6.591   2.559  0.3099 -0.1035  0.8021
 1733TIP3    H1 5160   0.226   6.538   2.602  1.1463  0.1150 -0.2371
 1733TIP3    H2 5161   0.206   6.646   2.498 -0.9257 -0.8013 -0.8212
 1734TIP3   OH2 5162   0.859   1.073   2.031 -0.1138  0.5020 -0.2065
 1734TIP3    H1 5163   0.780   1.123   2.050 -0.2627 -0.5718  2.1724
 1734TIP3    H2 5164   0.866   1.011   2.103  3.9218  1.7952  0.6278
 1735TIP3   OH2 5165   4.390   1.874   2.184  0.0014  0.4553  0.4251
 1735TIP3    H1 5166   4.336   1.855   2.261  0.6610 -0.6700  0.6198
 1735TIP3    H2 5167   4.473   1.905   2.220 -0.1164  1.1301  0.1359
 1736TIP3   OH2 5168   0.693   4.918   5.940 -0.0327 -0.1842  0.0236
 1736TIP3    H1 5169   0.655   4.846   5.991 -2.2611  0.7345 -0.2765
 1736TIP3    H2 5170   0.650   4.996   5.974  1.1323  0.8423 -0.8119
 1737TIP3   OH2 5171   1.302   0.654   5.976 -0.2855 -0.4478 -0.0024
 1737TIP3    H1 5172   1.312   0.749   5.963  1.8255 -0.7789 -0.9089
 1737TIP3    H2 5173   1.302   0.617   5.888 -0.6827 -1.3520  0.3710
 1738TIP3   OH2 5174   4.248   1.037   5.252 -0.7138 -0.3685 -0.2209
 1738TIP3    H1 5175   4.184   1.029   5.180 -1.4757 -0.0540  0.4113
 1738TIP3    H2 5176   4.224   0.969   5.314 -0.4638 -0.2206  0.0403
 1739TIP3   OH2 5177   0.279   5.395   4.264  0.5230 -0.1163  0.4031
 1739TIP3    H1 5178   0.229   5.346   4.198 -0.3902  0.6658  0.5010
 1739TIP3    H2 5179   0.364   5.351   4.268 -0.3444 -1.8205  0.6253
 1740TIP3   OH2 5180   7.101   7.230   5.290 -0.3862  0.2466  0.6861
 1740TIP3    H1 5181   7.196   7.229   5.275 -0.4024  0.5829  0.5636
 1740TIP3    H2 5182   7.089   7.181   5.372 -0.2371 -1.0273 -0.0451
 1741TIP3   OH2 5183   1.328   0.262   3.358  0.0742  0.2684  0.6540
 1741TIP3    H1 5184   1.308   0.272   3.265 -1.7195 -0.1988  0.9727
 1741TIP3    H2 5185   1.353   0.170   3.367  0.4564  0.3648  0.6136
 1742TIP3   OH2 5186   4.673   0.915   4.522  0.5251  0.2167 -0.0770
 1742TIP3    H1 5187   4.721   0.853   4.575 -0.5595 -0.8151 -0.2864
 1742TIP3    H2 5188   4.617   0.861   4.466 -1.5447  1.4091  0.8016
 1743TIP3   OH2 5189   3.019   0.245   5.073 -0.0809 -0.7239  0.2304
 1743TIP3    H1 5190   3.097   0.230   5.126 -0.0902 -1.8245 -0.0697
 1743TIP3    H2 5191   3.001   0.339   5.084  1.9393 -0.2058 -0.5747
 1744TIP3   OH2 5192   2.505   7.111   5.776  0.1205  0.5968 -0.2319
 1744TIP3    H1 5193   2.458   7.190   5.801 -0.0561  0.8906 -1.4637
 1744TIP3    H2 5194   2.440   7.041   5.782  0.4527  0.4170  1.5314
 1745TIP3   OH2 5195   3.032   0.901   2.947 -0.0856 -0.3489  0.5809
 1745TIP3    H1 5196   3.046   0.946   3.030  1.0616  0.6279 -0.1256
 1745TIP3    H2 5197   3.060   0.964   2.881  0.2227 -1.5931 -0.4897
 1746TIP3   OH2 5198   1.661   6.357   5.342  0.4858  0.0453  0.5415
 1746TIP3    H1 5199   1.741   6.306   5.355  1.4866  1.0701 -1.3770
 1746TIP3    H2 5200   1.614   6.349   5.425  2.5828 -0.5542  1.7152
 1747TIP3   OH2 5201   1.325   7.135   1.565  0.1977  0.7576 -0.5939
 1747TIP3    H1 5202   1.405   7.166   1.608 -0.1287  1.5870 -0.5731
 1747TIP3    H2 5203   1.323   7.041   1.583  0.4685  0.9607  0.5491
 1748TIP3   OH2 5204   6.908   4.447   4.496  0.2101 -0.0816 -0.2360
 1748TIP3    H1 5205   6.824   4.477   4.530  1.0895  2.4442 -0.1577
 1748TIP3    H2 5206   6.910   4.480   4.406  1.2173  0.1040 -0.1493
 1749TIP3   OH2 5207   0.436   5.345   3.439  0.3803  0.4057 -0.2130
 1749TIP3    H1 5208   0.378   5.354   3.514 -1.3652  1.2922 -1.6291
 1749TIP3    H2 5209   0.523   5.365   3.473 -0.0139 -1.5826  2.0864
 1750TIP3   OH2 5210   3.588   1.590   4.755  0.6700 -0.8103 -0.0959
 1750TIP3    H1 5211   3.630   1.558   4.675  1.3793  1.8818 -0.8546
 1750TIP3    H2 5212   3.496   1.569   4.743  0.8406 -0.8693 -1.4179
 1751TIP3   OH2 5213   7.130   6.332   4.407 -0.5749 -0.3138  0.0795
 1751TIP3    H1 5214   7.172   6.308   4.490 -0.8788 -0.3980  0.2105
 1751TIP3    H2 5215   7.199   6.373   4.355 -0.5271  0.2476  0.5912
 1752TIP3   OH2 5216   7.619   5.849   4.201 -0.4423 -0.2128  0.4463
 1752TIP3    H1 5217   7.543   5.824   4.253 -0.7333 -1.1401 -0.4055
 1752TIP3    H2 5218   7.650   5.931   4.241 -0.5990 -0.9484  2.1030
 1753TIP3   OH2 5219   2.489   0.742   4.323  0.3423 -0.3478 -0.9432
 1753TIP3    H1 5220   2.423   0.683   4.360  0.5540  0.3659  0.5852
 1753TIP3    H2 5221   2.493   0.717   4.230  1.7403 -3.9540  0.0154
 1754TIP3   OH2 5222   7.430   7.067   2.642  0.0666  0.2009  0.0987
 1754TIP3    H1 5223   7.502   7.033   2.694 -1.1296 -0.3187  1.4575
 1754TIP3    H2 5224   7.384   6.989   2.610  0.4369  0.5209 -1.2451
 1755TIP3   OH2 5225   2.819   0.525   2.949  0.0616  0.0028  0.3267
 1755TIP3    H1 5226   2.863   0.516   3.033 -0.8898 -0.4555  0.7804
 1755TIP3    H2 5227   2.814   0.436   2.915 -0.2182  0.0917  0.1295
 1756TIP3   OH2 5228   1.298   5.304   3.509 -0.7613  0.3708 -1.0357
 1756TIP3    H1 5229   1.224   5.330   3.564 -0.0107 -0.8644  0.5952
 1756TIP3    H2 5230   1.360   5.377   3.517 -0.7221  0.2675 -0.3530
 1757TIP3   OH2 5231   4.311   2.093   3.678  0.2456 -0.5221 -0.1497
 1757TIP3    H1 5232   4.405   2.088   3.663  0.1621 -0.7992 -0.6054
 1757TIP3    H2 5233   4.301   2.153   3.752  0.7403  0.0782 -0.5583
 1758TIP3   OH2 5234   2.192   7.221   3.354 -0.5711 -0.5276  0.4986
 1758TIP3    H1 5235   2.205   7.202   3.261 -1.6837  1.8022 -0.1856
 1758TIP3    H2 5236   2.279   7.242   3.387 -0.4717  0.8051 -0.5725
 1759TIP3   OH2 5237   6.073   6.437   3.184  0.0530  0.1037 -0.7196
 1759TIP3    H1 5238   6.083   6.508   3.120  0.5753  0.4210 -0.2957
 1759TIP3    H2 5239   6.000   6.465   3.239  1.7569  1.4471  0.9007
 1760TIP3   OH2 5240   0.373   5.439   1.153  0.4751 -0.0638 -0.3144
 1760TIP3    H1 5241   0.321   5.430   1.233 -0.3552  3.0810 -0.4173
 1760TIP3    H2 5242   0.334   5.514   1.108  2.5888 -0.1571 -2.3932
 1761TIP3   OH2 5243   3.514   0.086   2.541 -0.2786 -0.5411  0.5798
 1761TIP3    H1 5244   3.552   0.128   2.463 -0.4176 -2.1067 -0.3445
 1761TIP3    H2 5245   3.557   0.130   2.615 -2.2983  3.0435 -0.2733
 1762TIP3   OH2 5246   2.353   0.182   3.750 -0.3452  0.4066 -0.6014
 1762TIP3    H1 5247   2.403   0.177   3.832 -0.9587  1.3464 -0.1515
 1762TIP3    H2 5248   2.268   0.218   3.777 -0.7799  0.1046 -1.5551
 1763TIP3   OH2 5249   3.270   0.435   3.420 -0.0053 -0.4358  0.6633
 1763TIP3    H1 5250   3.267   0.354   3.368  1.6512 -0.2345  0.2296
 1763TIP3    H2 5251   3.216   0.497   3.371 -1.2943 -1.2671  1.0031
 1764TIP3   OH2 5252   0.239   5.769   2.286  0.0116 -0.4599  0.1570
 1764TIP3    H1 5253   0.203   5.785   2.199 -1.4599 -0.7913  0.6829
 1764TIP3    H2 5254   0.320   5.722   2.271  0.2126  0.2604 -1.0668
 1765TIP3   OH2 5255   1.192   7.045   3.972 -0.5131 -0.2066  0.6415
 1765TIP3    H1 5256   1.250   7.101   3.920 -0.1343 -0.8031  0.4207
 1765TIP3    H2 5257   1.120   7.023   3.913 -0.8145  0.2944  0.8230
 1766TIP3   OH2 5258   6.718   6.227   2.730 -0.2923 -0.1817  0.2098
 1766TIP3    H1 5259   6.775   6.291   2.688 -1.1804 -0.4307 -1.4184
 1766TIP3    H2 5260   6.659   6.279   2.785  0.0334  0.2612  0.1387
 1767TIP3   OH2 5261   0.017   7.307   2.971  0.1117 -0.0867  0.2940
 1767TIP3    H1 5262  -0.027   7.223   2.986  0.3532 -0.1842  0.4493
 1767TIP3    H2 5263   0.020   7.347   3.058 -0.9760  0.5577  0.0487
 1768TIP3   OH2 5264   3.380   1.550   3.805  0.3025 -0.1221 -0.0509
 1768TIP3    H1 5265   3.389   1.635   3.762  1.3014 -1.3230 -2.3577
 1768TIP3    H2 5266   3.326   1.499   3.744  0.4053 -1.3938  0.9075
 1769TIP3   OH2 5267   6.752   6.367   1.990 -0.1852  0.0336 -0.1519
 1769TIP3    H1 5268   6.754   6.307   2.064  0.4389  1.7050  1.2436
 1769TIP3    H2 5269   6.736   6.453   2.030 -0.1975  0.9138 -1.9927
 1770TIP3   OH2 5270   3.196   0.162   5.301  0.7535 -0.0039  0.4531
 1770TIP3    H1 5271   3.226   0.102   5.369  2.3640  1.6835  1.2915
 1770TIP3    H2 5272   3.267   0.162   5.236  0.4029  0.3736  0.0621
 1771TIP3   OH2 5273   1.256   6.580   4.788 -0.4961 -0.1158  0.3986
 1771TIP3    H1 5274   1.178   6.587   4.733 -1.4500 -0.7847  1.6295
 1771TIP3    H2 5275   1.250   6.656   4.847  0.6231  0.7081 -0.5243
 1772TIP3   OH2 5276   0.347   6.364   4.553  0.8599  0.4041 -0.0792
 1772TIP3    H1 5277   0.325   6.283   4.599 -2.3089  0.8973 -0.5729
 1772TIP3    H2 5278   0.323   6.347   4.462  2.2832  1.1444 -0.5934
 1773TIP3   OH2 5279   0.694   6.382   3.857 -0.0004 -0.3145 -0.1273
 1773TIP3    H1 5280   0.662   6.456   3.805 -0.4264 -0.3042  0.1390
 1773TIP3    H2 5281   0.627   6.371   3.925  0.2655 -0.6873  0.0745
 1774TIP3   OH2 5282   3.840   2.124   2.695  0.4732 -0.0385 -0.0218
 1774TIP3    H1 5283   3.753   2.093   2.672  0.9807 -2.0705  0.6899
 1774TIP3    H2 5284   3.899   2.075   2.637  1.3125 -0.7174  1.3673
 1775TIP3   OH2 5285   3.407   0.224   1.603 -0.1365  0.5184 -0.1720
 1775TIP3    H1 5286   3.499   0.252   1.599  0.0279 -0.0247 -0.3111
 1775TIP3    H2 5287   3.381   0.211   1.512  0.3926 -1.6505 -0.0441
 1776TIP3   OH2 5288   1.926   7.313   4.942 -0.1007  0.1070 -0.3334
 1776TIP3    H1 5289   1.863   7.350   5.004 -0.7418  1.5255 -1.7893
 1776TIP3    H2 5290   1.889   7.227   4.920  0.1217 -0.3951  1.2159
 1777TIP3   OH2 5291   6.558   6.919   3.990  0.7045  0.2211 -0.7945
 1777TIP3    H1 5292   6.547   6.941   3.897 -2.3465  2.0121 -0.0729
 1777TIP3    H2 5293   6.514   6.835   4.000 -0.8299  1.0284 -0.5873
 1778TIP3   OH2 5294   1.642   6.511   2.471  0.5321  0.0547  0.3931
 1778TIP3    H1 5295   1.588   6.476   2.400  0.4450 -0.1430  0.5568
 1778TIP3    H2 5296   1.579   6.551   2.531  0.7412  1.9580 -0.5978
 1779TIP3   OH2 5297   6.068   5.314   3.388 -0.3381 -0.1861  0.0882
 1779TIP3    H1 5298   6.082   5.278   3.300 -1.0646  2.0031 -0.9480
 1779TIP3    H2 5299   5.984   5.358   3.383 -1.0503 -1.1831  2.3041
 1780TIP3   OH2 5300   6.319   6.970   2.839 -0.2217 -0.0758 -0.2513
 1780TIP3    H1 5301   6.324   6.995   2.747 -0.1250  2.7491  0.4759
 1780TIP3    H2 5302   6.411   6.964   2.867 -0.2574  0.3287 -0.0375
 1781TIP3   OH2 5303   7.058   7.191   3.208 -0.7619  0.3452 -0.2023
 1781TIP3    H1 5304   7.138   7.179   3.259 -0.2902  0.4576 -0.8986
 1781TIP3    H2 5305   7.055   7.286   3.191  0.9978 -0.1145 -3.3935
 1782TIP3   OH2 5306   0.679   6.331   3.431 -0.1038 -0.5861  0.2459
 1782TIP3    H1 5307   0.694   6.395   3.501  1.0218 -1.3415  0.7199
 1782TIP3    H2 5308   0.586   6.310   3.437  0.0746 -1.0074  1.8491
 1783TIP3   OH2 5309   0.008   6.473   3.516 -0.0842 -0.1729  0.5076
 1783TIP3    H1 5310  -0.033   6.423   3.587 -0.4308  0.6689  0.9109
 1783TIP3    H2 5311   0.060   6.409   3.468  0.5383 -0.6604  1.8161
 1784TIP3   OH2 5312   1.038   7.331   2.993  0.2689  0.0567  0.0848
 1784TIP3    H1 5313   1.054   7.404   2.934  0.7456 -2.0432 -2.4894
 1784TIP3    H2 5314   1.125   7.305   3.023  0.1917 -0.1262  0.1535
 1785TIP3   OH2 5315   3.919   2.230   4.516  0.5298 -0.1944 -0.6333
 1785TIP3    H1 5316   3.850   2.284   4.555  0.6279  0.9181 -1.9225
 1785TIP3    H2 5317   3.875   2.185   4.444  0.5602 -1.4886  0.1551
 1786TIP3   OH2 5318   2.126   7.272   4.215 -0.6279  0.0305  0.2989
 1786TIP3    H1 5319   2.190   7.220   4.166 -1.3048 -0.0654 -0.5051
 1786TIP3    H2 5320   2.171   7.296   4.296  1.2217  1.8596 -1.2339
 1787TIP3   OH2 5321   7.391   5.820   4.335 -0.3025  0.1545 -0.3897
 1787TIP3    H1 5322   7.328   5.766   4.288  0.0128 -1.0113  0.5153
 1787TIP3    H2 5323   7.377   5.800   4.427 -0.5395  2.0152  0.0151
 1788TIP3   OH2 5324   4.702   1.347   3.776  0.3010 -0.9785  0.1991
 1788TIP3    H1 5325   4.779   1.388   3.736  0.8309 -2.4111 -0.2456
 1788TIP3    H2 5326   4.726   1.256   3.789 -0.6943 -1.0532  1.6966
 1789TIP3   OH2 5327   0.369   6.575   1.386 -0.0818 -0.1097  0.0257
 1789TIP3    H1 5328   0.307   6.619   1.327 -0.1786 -1.2190 -0.7145
 1789TIP3    H2 5329   0.380   6.636   1.459 -0.3218  1.0785 -0.9162
 1790TIP3   OH2 5330   6.583   7.143   5.624  0.1099  0.3474 -0.1586
 1790TIP3    H1 5331   6.533   7.215   5.663  0.4486  0.1380  0.6550
 1790TIP3    H2 5332   6.630   7.104   5.697 -1.0572 -1.5245 -0.3844
 1791TIP3   OH2 5333   6.208   6.694   4.284  0.3718 -0.1257 -0.3425
 1791TIP3    H1 5334   6.245   6.634   4.220  0.0805  0.2639 -0.8831
 1791TIP3    H2 5335   6.127   6.652   4.313 -0.2533  0.3908 -1.3330
 1792TIP3   OH2 5336   0.685   6.238   2.507 -0.1611 -0.2030  0.4391
 1792TIP3    H1 5337   0.710   6.167   2.566  0.6543 -1.1628 -1.0219
 1792TIP3    H2 5338   0.651   6.194   2.429 -0.9800  1.0313  0.0862
 1793TIP3   OH2 5339   2.726   2.627   4.672 -0.1960 -0.1103  0.2606
 1793TIP3    H1 5340   2.783   2.698   4.643  0.5733 -1.3999 -1.4621
 1793TIP3    H2 5341   2.765   2.548   4.635 -2.4628 -1.1525  0.0138
 1794TIP3   OH2 5342   1.975   0.658   3.511 -0.3453  0.1832  0.1755
 1794TIP3    H1 5343   1.916   0.731   3.492 -1.0716 -0.9558 -2.0317
 1794TIP3    H2 5344   2.045   0.698   3.562 -1.1466  2.2766 -0.2942
 1795TIP3   OH2 5345   0.879   6.401   6.121  0.1913 -0.4964  0.0127
 1795TIP3    H1 5346   0.943   6.333   6.099  1.8706  1.1511 -0.2201
 1795TIP3    H2 5347   0.888   6.466   6.052 -0.9535  0.2914  0.6059
 1796TIP3   OH2 5348   0.882   0.517   1.738 -0.0990 -0.0170  0.5646
 1796TIP3    H1 5349   0.812   0.452   1.745 -0.4130 -0.0262 -2.1837
 1796TIP3    H2 5350   0.907   0.515   1.645  2.9696  0.5778  1.3197
 1797TIP3   OH2 5351   6.742   5.695   5.354  0.5040  0.8207  0.0588
 1797TIP3    H1 5352   6.772   5.724   5.268  0.6828  1.7398  0.4269
 1797TIP3    H2 5353   6.768   5.765   5.414  3.2003 -1.2129  1.3706
 1798TIP3   OH2 5354   3.075   0.687   2.471 -0.3202 -0.5637 -0.3174
 1798TIP3    H1 5355   3.028   0.710   2.551  2.7663 -0.4701  1.5540
 1798TIP3    H2 5356   3.049   0.597   2.453 -1.1297 -0.5486  0.7291
 1799TIP3   OH2 5357   6.821   5.619   4.895 -0.4779 -0.3960 -0.2856
 1799TIP3    H1 5358   6.848   5.537   4.937  1.4846 -0.2662 -1.2293
 1799TIP3    H2 5359   6.819   5.598   4.801 -1.8026  0.1471 -0.3923
 1800TIP3   OH2 5360   1.395   0.613   1.652 -0.5296 -0.5322 -0.2673
 1800TIP3    H1 5361   1.416   0.530   1.694 -1.3956 -0.2767  0.6747
 1800TIP3    H2 5362   1.446   0.612   1.571  0.4975 -1.3898  0.3816
 1801TIP3   OH2 5363   1.489   6.793   4.728 -0.0068  0.1555 -0.5438
 1801TIP3    H1 5364   1.508   6.757   4.815  0.0634 -1.6234 -1.2698
 1801TIP3    H2 5365   1.569   6.839   4.704  0.2974 -0.1059 -0.0476
 1802TIP3   OH2 5366   1.073   6.636   3.577  0.0797 -0.1899 -0.7476
 1802TIP3    H1 5367   1.129   6.708   3.606 -1.0985  1.0024 -1.3725
 1802TIP3    H2 5368   1.038   6.665   3.493  0.9021 -2.2198 -1.8267
 1803TIP3   OH2 5369   4.468   1.680   4.264 -0.3228  0.2995 -1.1104
 1803TIP3    H1 5370   4.426   1.748   4.316  0.7402 -0.5659  0.9442
 1803TIP3    H2 5371   4.520   1.629   4.327  0.0981 -1.4947 -2.8265
 1804TIP3   OH2 5372   0.070   7.131   2.219 -0.1341 -0.4504 -0.4391
 1804TIP3    H1 5373   0.121   7.140   2.299  2.1891 -1.4797 -1.7582
 1804TIP3    H2 5374  -0.007   7.187   2.233  1.0183  0.6289  1.8362
 1805TIP3   OH2 5375   7.513   6.824   5.002 -0.3716 -0.4851 -0.3826
 1805TIP3    H1 5376   7.430   6.836   4.956 -1.6419 -0.0978  1.8883
 1805TIP3    H2 5377   7.538   6.733   4.985 -0.5451 -0.1995 -2.2049
 1806TIP3   OH2 5378   3.038   1.346   6.079  0.0806 -0.0149 -0.0394
 1806TIP3    H1 5379   3.064   1.257   6.099  0.9330  0.4761  1.0743
 1806TIP3    H2 5380   3.102   1.376   6.015  0.4247  0.1641  0.3929
 1807TIP3   OH2 5381   1.537   7.189   4.867 -0.2707  0.2741  0.5593
 1807TIP3    H1 5382   1.618   7.142   4.846 -1.0299 -0.1881 -1.4703
 1807TIP3    H2 5383   1.524   7.247   4.792 -1.7396  0.4603  0.9548
 1808TIP3   OH2 5384   1.273   6.820   4.554 -0.3901 -0.0610  0.0414
 1808TIP3    H1 5385   1.345   6.812   4.616 -1.0826 -1.6670  0.6732
 1808TIP3    H2 5386   1.217   6.745   4.573 -1.8077  0.7123 -0.9841
 1809TIP3   OH2 5387   6.937   4.838   4.169  0.6949 -0.1671  0.4806
 1809TIP3    H1 5388   6.887   4.789   4.236 -0.1553 -2.2993 -1.6169
 1809TIP3    H2 5389   7.025   4.802   4.175  1.0161  0.7881  1.5332
 1810TIP3   OH2 5390   1.017   6.150   5.785 -0.2872  0.4753 -0.2227
 1810TIP3    H1 5391   0.922   6.150   5.775 -0.3309  0.5137  0.1946
 1810TIP3    H2 5392   1.045   6.065   5.752 -0.3742  0.8112 -1.2000
 1811TIP3   OH2 5393   1.849   0.436   3.344 -0.1661 -0.9448 -0.2316
 1811TIP3    H1 5394   1.872   0.477   3.427  1.2352 -0.3523 -0.9062
 1811TIP3    H2 5395   1.809   0.352   3.369 -0.2821 -0.5205  1.0415
 1812TIP3   OH2 5396   1.335   0.018   3.967  0.0583 -0.1177  0.1532
 1812TIP3    H1 5397   1.317   0.112   3.970 -0.0479 -0.1581  1.0012
 1812TIP3    H2 5398   1.400   0.008   3.897  1.6000  0.8535  1.3965
 1813TIP3   OH2 5399   0.822   7.165   2.515 -0.0504 -0.0159  0.6239
 1813TIP3    H1 5400   0.863   7.249   2.496  0.6881 -0.6516 -0.6801
 1813TIP3    H2 5401   0.741   7.187   2.561  1.1982  1.3032  2.2426
 1814TIP3   OH2 5402   3.232   2.026   2.544 -0.1318 -0.5218  0.0554
 1814TIP3    H1 5403   3.266   1.956   2.488  1.3367 -0.5869  1.0054
 1814TIP3    H2 5404   3.168   1.984   2.601  0.8186 -1.1141  0.6915
 1815TIP3   OH2 5405   3.567   0.234   3.905 -0.3336 -0.3071  1.0769
 1815TIP3    H1 5406   3.618   0.290   3.846  0.3744 -2.1044 -0.0741
 1815TIP3    H2 5407   3.501   0.194   3.849 -0.1507 -1.4383  1.6524
 1816TIP3   OH2 5408   0.546   6.513   4.687 -0.0710  0.0097  0.0492
 1816TIP3    H1 5409   0.502   6.590   4.721 -0.1895  0.4987 -1.1911
 1816TIP3    H2 5410   0.476   6.461   4.646  0.0032 -0.7693  0.8817
 1817TIP3   OH2 5411   0.963   6.668   0.609  0.4903  0.0854  0.1280
 1817TIP3    H1 5412   1.001   6.755   0.624  1.4603 -0.2619 -0.2688
 1817TIP3    H2 5413   0.972   6.624   0.694 -1.0054  0.7314  0.6465
 1818TIP3   OH2 5414   3.263   0.145   3.290 -0.1180 -0.3694  0.7124
 1818TIP3    H1 5415   3.279   0.097   3.209 -1.2090  1.0881 -0.4213
 1818TIP3    H2 5416   3.337   0.124   3.347  2.2150  0.8914 -1.7752
 1819TIP3   OH2 5417   4.755   0.698   3.157 -0.4024  0.4491 -0.2981
 1819TIP3    H1 5418   4.704   0.648   3.093  0.1150 -0.4154 -0.0446
 1819TIP3    H2 5419   4.690   0.737   3.215 -0.7785 -0.6455  0.0206
 1820TIP3   OH2 5420   0.703   6.963   4.932  0.4178  0.4474  0.4116
 1820TIP3    H1 5421   0.673   6.916   4.855 -0.3193 -0.9636  1.5219
 1820TIP3    H2 5422   0.781   6.915   4.961 -0.4251 -0.2200  1.6390
 1821TIP3   OH2 5423   2.694   0.438   1.728  0.1886  0.1330 -0.3098
 1821TIP3    H1 5424   2.784   0.407   1.718  0.2626  0.9997 -2.5008
 1821TIP3    H2 5425   2.641   0.359   1.724  0.7117 -0.1917 -0.9574
 1822TIP3   OH2 5426   3.821   0.491   3.208  0.5467 -0.5673  0.0151
 1822TIP3    H1 5427   3.802   0.564   3.266 -0.4474 -1.0721  0.3352
 1822TIP3    H2 5428   3.894   0.522   3.154 -0.9104  1.2726 -0.9600
 1823TIP3   OH2 5429   2.711   6.821   5.555 -0.6028  0.2006  0.2973
 1823TIP3    H1 5430   2.743   6.848   5.469 -1.8331 -0.6107 -0.4211
 1823TIP3    H2 5431   2.761   6.875   5.617  0.2015  0.8756 -0.9184
 1824TIP3   OH2 5432   0.616   5.615   3.116  0.1073 -0.0240  0.4139
 1824TIP3    H1 5433   0.576   5.564   3.186  1.6701  0.7405  1.9115
 1824TIP3    H2 5434   0.649   5.550   3.054 -0.0715 -0.7557  1.0882
 1825TIP3   OH2 5435   0.796   6.982   6.309  0.0367  0.2633 -0.2894
 1825TIP3    H1 5436   0.765   6.924   6.378  1.4396 -0.5948 -0.3597
 1825TIP3    H2 5437   0.723   6.989   6.248  0.1598 -2.1394 -0.7373
 1826TIP3   OH2 5438   5.748   0.331   6.109 -1.1049 -0.1298 -0.1969
 1826TIP3    H1 5439   5.814   0.342   6.041 -0.6237  0.7821  0.3965
 1826TIP3    H2 5440   5.664   0.330   6.062 -0.8238  1.1463 -0.7639
 1827TIP3   OH2 5441   2.053   0.903   0.984 -0.3438 -0.1743  0.1008
 1827TIP3    H1 5442   2.068   0.810   0.999 -0.4061 -0.1856  0.0941
 1827TIP3    H2 5443   2.075   0.945   1.067 -0.7298 -0.2418  0.2402
 1828TIP3   OH2 5444   0.669   7.033   4.544  0.3288 -0.0613  0.3479
 1828TIP3    H1 5445   0.585   7.022   4.589  0.9947 -1.6876  1.2053
 1828TIP3    H2 5446   0.686   6.949   4.502  1.1512  0.5108 -0.4942
 1829TIP3   OH2 5447   1.026   6.238   4.555 -0.4000 -0.2271  0.6904
 1829TIP3    H1 5448   1.035   6.333   4.548 -0.9827 -0.2808 -1.0885
 1829TIP3    H2 5449   1.067   6.204   4.476 -0.9708 -1.4055  0.8887
 1830TIP3   OH2 5450   6.153   6.411   4.970 -0.3390  0.0503  0.0091
 1830TIP3    H1 5451   6.225   6.457   5.012 -0.6290  1.2724 -0.8168
 1830TIP3    H2 5452   6.103   6.373   5.042  0.9016 -0.4920  0.6088
 1831TIP3   OH2 5453   0.705   6.924   3.442  0.3191  0.6471 -0.6158
 1831TIP3    H1 5454   0.797   6.936   3.417  0.1468  1.9650 -0.6341
 1831TIP3    H2 5455   0.666   6.879   3.367  0.7535  0.8395 -0.9631
 1832TIP3   OH2 5456   0.234   7.127   0.187 -0.3640  0.0254 -0.2028
 1832TIP3    H1 5457   0.141   7.117   0.207 -0.1886  0.4084  0.8719
 1832TIP3    H2 5458   0.273   7.156   0.270  0.3951  1.8256 -1.1782
 1833TIP3   OH2 5459   4.447   0.206   2.310 -0.1978  0.4461  0.6784
 1833TIP3    H1 5460   4.530   0.242   2.277  1.5832 -2.7088  1.4988
 1833TIP3    H2 5461   4.416   0.149   2.240 -1.0253  0.6171  0.9061
 1834TIP3   OH2 5462   3.658   0.749   5.442  0.3453 -0.3360  0.1524
 1834TIP3    H1 5463   3.604   0.732   5.520 -0.4120 -1.9389 -0.6937
 1834TIP3    H2 5464   3.745   0.718   5.466  0.2161 -0.4171  0.5305
 1835TIP3   OH2 5465   3.419   3.533   3.316 -0.0333  0.4383 -0.1345
 1835TIP3    H1 5466   3.477   3.459   3.296 -1.1346 -0.5688  0.3592
 1835TIP3    H2 5467   3.457   3.572   3.395 -0.6364 -0.9071  0.8497
 1836TIP3   OH2 5468   2.799   0.126   1.830  0.3152 -0.1544 -0.2540
 1836TIP3    H1 5469   2.879   0.175   1.843  1.1164 -1.6012  0.4376
 1836TIP3    H2 5470   2.761   0.162   1.750  0.2325  2.4061  0.8825
 1837TIP3   OH2 5471   5.294   0.937   3.193  0.1379  0.3439  0.2370
 1837TIP3    H1 5472   5.295   1.012   3.252  0.1052  1.6038 -1.3417
 1837TIP3    H2 5473   5.213   0.890   3.215 -0.0196  0.9594  0.9825
 1838TIP3   OH2 5474   2.639   1.393   3.707 -0.0752  0.8908  0.3498
 1838TIP3    H1 5475   2.554   1.349   3.702  0.0235  0.6658  0.6722
 1838TIP3    H2 5476   2.658   1.399   3.800  0.8390 -0.1572  0.2413
 1839TIP3   OH2 5477   5.236   6.350   0.131  0.4320 -0.2865  0.2006
 1839TIP3    H1 5478   5.144   6.325   0.124  0.5180 -0.2024 -1.2886
 1839TIP3    H2 5479   5.283   6.267   0.139  0.3636 -0.3959 -0.5739
 1840TIP3   OH2 5480   4.524   1.054   5.914  0.0866 -0.4185  0.1475
 1840TIP3    H1 5481   4.587   1.118   5.879  0.3139 -1.3229 -1.1405
 1840TIP3    H2 5482   4.482   1.100   5.987  1.0608  0.7908 -0.0215
 1841TIP3   OH2 5483   3.192   0.620   4.462 -0.3517  0.7186 -0.7919
 1841TIP3    H1 5484   3.156   0.588   4.545  0.9991  0.3826 -0.3160
 1841TIP3    H2 5485   3.242   0.546   4.428 -1.1367  0.7631 -2.0547
 1842TIP3   OH2 5486   2.038   7.190   4.659  0.0521  0.2099  0.4981
 1842TIP3    H1 5487   2.071   7.276   4.686 -3.4174  1.3425  1.3808
 1842TIP3    H2 5488   1.982   7.210   4.583  0.1673 -1.4266 -0.0193
 1843TIP3   OH2 5489   6.051   6.868   2.737  0.4012 -0.2062  0.3808
 1843TIP3    H1 5490   6.112   6.856   2.664 -3.1695  0.7186 -2.9131
 1843TIP3    H2 5491   6.064   6.958   2.765  1.9731 -0.6438  1.1488
 1844TIP3   OH2 5492   3.840   0.996   4.560 -0.1870 -0.1106  0.4059
 1844TIP3    H1 5493   3.919   0.995   4.614  0.0352 -2.0478  0.0663
 1844TIP3    H2 5494   3.834   0.908   4.524 -1.1434  0.7367 -1.5818
 1845TIP3   OH2 5495   7.331   2.560   1.611  0.0691  0.6422  0.1609
 1845TIP3    H1 5496   7.376   2.596   1.534 -0.2166 -3.2600 -1.9600
 1845TIP3    H2 5497   7.241   2.591   1.603  0.0124  0.1759 -1.1895
 1846TIP3   OH2 5498   2.384   0.778   1.274  0.0675 -0.0045  0.6080
 1846TIP3    H1 5499   2.300   0.749   1.238 -0.0683  0.0272  0.9009
 1846TIP3    H2 5500   2.361   0.828   1.353  0.3441  0.2339  0.5418
 1847TIP3   OH2 5501   1.999   1.516   1.571  0.5236 -0.2912  0.2849
 1847TIP3    H1 5502   1.912   1.537   1.538  0.3884  0.1444  0.8973
 1847TIP3    H2 5503   2.057   1.582   1.533  0.3996  0.0942  0.7548
 1848TIP3   OH2 5504   6.618   3.734   6.120  0.6841  0.1436 -0.0501
 1848TIP3    H1 5505   6.548   3.675   6.151  2.1213 -0.1627  2.8050
 1848TIP3    H2 5506   6.572   3.812   6.091 -1.0459 -1.2009 -1.0716
 1849TIP3   OH2 5507   6.061   2.816   0.032 -0.6219 -0.4118  0.2824
 1849TIP3    H1 5508   6.137   2.776   0.075  0.4397  0.7451 -0.4970
 1849TIP3    H2 5509   6.070   2.791  -0.060 -0.8392  0.2484  0.0807
 1850TIP3   OH2 5510   3.791   1.361   1.708 -0.4417 -0.0772  0.6413
 1850TIP3    H1 5511   3.709   1.409   1.711  0.3191  1.2088  1.6545
 1850TIP3    H2 5512   3.859   1.429   1.711  0.6587 -1.1194  0.0262
 1851TIP3   OH2 5513   4.721   2.534   2.748 -0.1894 -0.0913  0.0916
 1851TIP3    H1 5514   4.741   2.564   2.659  2.3595 -3.7642 -0.6718
 1851TIP3    H2 5515   4.806   2.530   2.792 -1.3941  1.5514  2.7547
 1852TIP3   OH2 5516   2.609   6.385   2.839  0.4610 -0.1780  0.0265
 1852TIP3    H1 5517   2.564   6.469   2.828 -0.3252 -0.5853  0.0715
 1852TIP3    H2 5518   2.702   6.408   2.840  0.2742  0.6443 -0.3851
 1853TIP3   OH2 5519   3.745   0.133   4.057 -0.2125 -0.1024  0.3315
 1853TIP3    H1 5520   3.689   0.062   4.090  0.5364 -1.3620 -1.0521
 1853TIP3    H2 5521   3.695   0.172   3.986  0.3142 -0.6851 -0.3596
 1854TIP3   OH2 5522   5.819   3.377   3.330  0.1569 -0.1270  0.4290
 1854TIP3    H1 5523   5.735   3.350   3.293  0.1617 -0.1196  0.4137
 1854TIP3    H2 5524   5.823   3.471   3.313  0.4552 -0.2440 -0.1390
 1855TIP3   OH2 5525   3.231   1.200   4.407  0.5557 -0.1763  0.1248
 1855TIP3    H1 5526   3.207   1.158   4.324  1.6305  1.0671 -0.8455
 1855TIP3    H2 5527   3.309   1.252   4.386 -1.0368  2.7701  1.0968
 1856TIP3   OH2 5528   4.544   0.126   4.702  0.0174  0.1160 -0.1526
 1856TIP3    H1 5529   4.499   0.115   4.618 -1.5612  3.0411  0.2534
 1856TIP3    H2 5530   4.496   0.068   4.762 -1.5789  1.2403 -0.3188
 1857TIP3   OH2 5531   3.707   0.713   0.330  0.2372 -0.2377 -0.3074
 1857TIP3    H1 5532   3.712   0.693   0.423 -0.1781  0.0766 -0.2162
 1857TIP3    H2 5533   3.799   0.713   0.301  0.4326  0.5884  0.2964
 1858TIP3   OH2 5534   3.570   1.007   3.540  0.0379 -0.8854  0.2525
 1858TIP3    H1 5535   3.650   1.047   3.505  0.1145 -0.5957  0.7601
 1858TIP3    H2 5536   3.549   1.059   3.617 -0.8295 -0.7630 -0.0730
 1859TIP3   OH2 5537   0.240   6.715   2.104  0.1395 -0.0595  0.1855
 1859TIP3    H1 5538   0.308   6.782   2.096 -0.4332  0.4804 -0.1686
 1859TIP3    H2 5539   0.191   6.720   2.023  1.3746 -2.3602 -0.7547
 1860TIP3   OH2 5540   5.328   0.076   4.925 -0.2663  0.2391  0.5319
 1860TIP3    H1 5541   5.401   0.023   4.892  0.6595  1.4268  0.6553
 1860TIP3    H2 5542   5.254   0.015   4.929  0.2743 -0.5474 -1.2552
 1861TIP3   OH2 5543   3.347   1.775   2.847  0.3543 -0.0890 -0.7055
 1861TIP3    H1 5544   3.364   1.753   2.939 -0.6351 -0.6861 -0.6674
 1861TIP3    H2 5545   3.408   1.847   2.829  1.0271 -0.4089  0.2207
 1862TIP3   OH2 5546   0.883   7.211   0.995  0.6740 -0.2496 -0.3190
 1862TIP3    H1 5547   0.977   7.214   0.974  0.9188  0.1279  0.7999
 1862TIP3    H2 5548   0.877   7.252   1.081 -0.1540 -2.7445  0.8667
 1863TIP3   OH2 5549   5.847   1.039   5.000 -0.3588  0.2003 -0.1463
 1863TIP3    H1 5550   5.855   0.969   4.936 -1.7424 -0.6808  0.6117
 1863TIP3    H2 5551   5.896   1.112   4.962 -1.2704 -0.2575 -2.2735
 1864TIP3   OH2 5552   1.915   5.256   3.577  0.0033 -0.5855  0.0901
 1864TIP3    H1 5553   1.857   5.223   3.509 -0.9792 -0.2407  0.7526
 1864TIP3    H2 5554   1.999   5.268   3.533 -0.4533 -0.9704 -0.9056
 1865TIP3   OH2 5555   2.598   2.914   2.503 -0.2147 -0.1974  0.0793
 1865TIP3    H1 5556   2.627   3.000   2.472 -0.0541  0.3465  1.6568
 1865TIP3    H2 5557   2.634   2.908   2.592 -2.0347 -0.9735  0.7907
 1866TIP3   OH2 5558   2.182   0.839   2.060 -0.0289 -0.7792 -0.1679
 1866TIP3    H1 5559   2.204   0.755   2.019 -2.7677 -0.6939 -1.9471
 1866TIP3    H2 5560   2.181   0.821   2.154 -0.0478 -2.5978 -0.5053
 1867TIP3   OH2 5561   2.365   4.638   2.759 -0.2688  0.0805  0.1588
 1867TIP3    H1 5562   2.372   4.623   2.853  2.2815  1.7240  0.2549
 1867TIP3    H2 5563   2.374   4.551   2.720 -1.1618 -0.5802  1.3847
 1868TIP3   OH2 5564   3.196   1.921   3.423 -0.0674 -0.9305 -0.5985
 1868TIP3    H1 5565   3.127   1.855   3.434 -0.3279 -0.6337 -0.4262
 1868TIP3    H2 5566   3.210   1.955   3.512  0.1319 -0.8243 -0.6717
 1869TIP3   OH2 5567   1.403   6.422   0.203  0.4115 -0.3729  0.1493
 1869TIP3    H1 5568   1.357   6.339   0.215 -0.3468 -0.0134 -0.2766
 1869TIP3    H2 5569   1.338   6.480   0.164  0.0667  1.3045  3.1019
 1870TIP3   OH2 5570   5.280   1.594   2.982  0.0406 -0.4492 -0.6246
 1870TIP3    H1 5571   5.351   1.539   2.948  1.9425  1.6585 -0.1375
 1870TIP3    H2 5572   5.295   1.680   2.943 -2.2449  0.0302 -0.4876
 1871TIP3   OH2 5573   4.568   2.472   4.178 -0.9946 -0.0781 -0.3697
 1871TIP3    H1 5574   4.664   2.464   4.180 -1.1132 -1.3200  0.5108
 1871TIP3    H2 5575   4.553   2.566   4.164  0.3492 -0.3524 -4.3019
 1872TIP3   OH2 5576   5.261   2.536   4.334 -0.6378  0.1190  0.2321
 1872TIP3    H1 5577   5.170   2.532   4.304 -0.9403 -0.4795  1.2073
 1872TIP3    H2 5578   5.269   2.464   4.396  0.9947 -0.8925 -1.1263
 1873TIP3   OH2 5579   4.426   2.466   3.950 -0.1306  0.7842 -0.1112
 1873TIP3    H1 5580   4.469   2.464   4.035  0.1674 -0.7682 -0.2856
 1873TIP3    H2 5581   4.489   2.510   3.892  0.0637  0.9747  0.2444
 1874TIP3   OH2 5582   4.895   1.393   3.602  0.0859  0.2727  0.2286
 1874TIP3    H1 5583   4.986   1.422   3.602 -0.2029  1.2249 -0.2093
 1874TIP3    H2 5584   4.890   1.328   3.532  0.3193  0.5812 -0.0767
 1875TIP3   OH2 5585   4.781   2.437   4.551  0.1354 -0.4356 -0.0698
 1875TIP3    H1 5586   4.721   2.380   4.503 -0.7518 -0.8457  1.4915
 1875TIP3    H2 5587   4.726   2.511   4.579  0.6823 -0.1153  0.1549
 1876TIP3   OH2 5588   0.841   5.303   4.123  0.1394 -0.0574  0.1580
 1876TIP3    H1 5589   0.891   5.379   4.095  0.1476  0.3927  1.3520
 1876TIP3    H2 5590   0.781   5.286   4.051  1.9818 -0.5911 -1.2761
 1877TIP3   OH2 5591   3.385   1.829   2.368 -0.4326 -0.3824  0.3967
 1877TIP3    H1 5592   3.475   1.857   2.349  0.2474 -0.2961  3.5315
 1877TIP3    H2 5593   3.395   1.756   2.429 -2.5020  0.5183  1.8593
 1878TIP3   OH2 5594   6.493   0.840   4.751  0.0814 -0.0252 -0.4617
 1878TIP3    H1 5595   6.433   0.904   4.789  1.0782  0.0329  1.0295
 1878TIP3    H2 5596   6.522   0.881   4.669  0.5948  1.3787  0.4003
 1879TIP3   OH2 5597   3.575   2.273   1.824  0.2397  0.0297  0.0161
 1879TIP3    H1 5598   3.498   2.253   1.771  2.1785  0.5059 -3.1224
 1879TIP3    H2 5599   3.630   2.195   1.817  0.2358 -0.1769  1.9580
 1880TIP3   OH2 5600   3.660   3.055   3.221 -0.3220  0.3962  0.0942
 1880TIP3    H1 5601   3.708   3.032   3.142  0.1727  2.3576 -0.2140
 1880TIP3    H2 5602   3.722   3.039   3.292 -0.4706 -0.5404  0.0186
 1881TIP3   OH2 5603   2.969   2.011   3.129  0.1512 -0.0629  0.3630
 1881TIP3    H1 5604   3.034   1.983   3.064 -0.5834 -1.5130  0.2166
 1881TIP3    H2 5605   2.902   2.056   3.077  0.6699  0.7797  0.4178
 1882TIP3   OH2 5606   4.463   2.312   1.218  0.3089  0.2634 -0.2179
 1882TIP3    H1 5607   4.448   2.317   1.123 -1.8915 -0.3164  0.0874
 1882TIP3    H2 5608   4.378   2.293   1.255  1.3121 -0.3442  1.8426
 1883TIP3   OH2 5609   4.554   1.129   3.403 -0.1270 -0.1807  0.2349
 1883TIP3    H1 5610   4.628   1.187   3.385 -0.9772  0.7111 -0.4246
 1883TIP3    H2 5611   4.564   1.057   3.340  1.4716 -1.2871  1.6942
 1884TIP3   OH2 5612   4.933   1.850   1.820  0.2816  0.1603  0.0871
 1884TIP3    H1 5613   4.888   1.853   1.904  2.9629 -1.3567  1.6508
 1884TIP3    H2 5614   4.870   1.809   1.760 -0.8708 -0.7156  1.8651
 1885TIP3   OH2 5615   2.759   1.497   3.961 -0.2740 -0.2490 -0.0040
 1885TIP3    H1 5616   2.854   1.497   3.964 -0.2790 -0.7084  0.2195
 1885TIP3    H2 5617   2.736   1.578   3.916  0.2724 -0.9608 -1.6014
 1886TIP3   OH2 5618   2.670   6.422   3.194 -0.4291  0.1025  0.4848
 1886TIP3    H1 5619   2.754   6.458   3.165 -0.2968 -2.6485 -2.8110
 1886TIP3    H2 5620   2.606   6.489   3.171  0.2909  0.0538 -1.7895
 1887TIP3   OH2 5621   5.717   0.637   1.656  0.1956 -0.3414  0.1319
 1887TIP3    H1 5622   5.709   0.628   1.751 -0.1746 -1.1456  0.0347
 1887TIP3    H2 5623   5.648   0.580   1.621  0.6773 -0.4711 -0.6218
 1888TIP3   OH2 5624   2.759   6.163   3.651  0.7424  0.1674  0.5711
 1888TIP3    H1 5625   2.796   6.181   3.738 -0.6978  1.3294  0.9710
 1888TIP3    H2 5626   2.664   6.164   3.665  0.4826  0.9480 -1.1374
 1889TIP3   OH2 5627   3.364   3.434   3.055  0.2485 -0.3078  0.8915
 1889TIP3    H1 5628   3.312   3.418   3.133  1.9548  1.4651  2.4506
 1889TIP3    H2 5629   3.348   3.526   3.034  0.5153 -0.5242 -0.3105
 1890TIP3   OH2 5630   0.252   2.965   4.455 -0.8384  0.7278 -0.9611
 1890TIP3    H1 5631   0.255   3.060   4.466  0.1674  0.7143 -1.0036
 1890TIP3    H2 5632   0.303   2.949   4.375 -1.2300  0.1728 -1.1056
 1891TIP3   OH2 5633   1.245   7.162   4.232 -0.3699 -0.0474  0.7553
 1891TIP3    H1 5634   1.262   7.068   4.242 -0.6739 -0.0787  0.9757
 1891TIP3    H2 5635   1.259   7.179   4.138 -2.0747 -0.6701  0.3636
 1892TIP3   OH2 5636   3.064   1.214   1.071  0.4210  0.3336  0.5169
 1892TIP3    H1 5637   3.093   1.152   1.138  2.5207  1.5185  0.7187
 1892TIP3    H2 5638   3.038   1.292   1.120  0.5498  0.6708  0.0491
 1893TIP3   OH2 5639   4.108   1.818   1.209 -0.1945 -0.1061  0.2993
 1893TIP3    H1 5640   4.109   1.906   1.247 -0.4593  1.0077 -2.1938
 1893TIP3    H2 5641   4.199   1.791   1.208  0.0745  0.8139 -0.4317
 1894TIP3   OH2 5642   3.283   2.413   5.004  0.1331  0.0661  0.2236
 1894TIP3    H1 5643   3.208   2.447   5.053 -0.3460 -0.7706  0.0843
 1894TIP3    H2 5644   3.346   2.388   5.072  0.0810  0.2996  0.3582
 1895TIP3   OH2 5645   1.657   6.754   4.420 -0.1339  0.0546  0.1061
 1895TIP3    H1 5646   1.614   6.677   4.457  0.4407  0.2479  1.1723
 1895TIP3    H2 5647   1.584   6.814   4.401 -0.3520  0.4474  2.0637
 1896TIP3   OH2 5648   6.517   1.835   3.812 -0.6971  0.4066  0.2018
 1896TIP3    H1 5649   6.584   1.775   3.844 -0.6880  0.1816 -0.2370
 1896TIP3    H2 5650   6.437   1.807   3.856 -1.0639 -1.0732 -1.3423
 1897TIP3   OH2 5651   4.802   0.531   3.414 -0.2893  0.4448 -0.0654
 1897TIP3    H1 5652   4.794   0.566   3.326 -0.4217 -0.0793 -0.2607
 1897TIP3    H2 5653   4.732   0.466   3.421 -0.0907  0.2682  0.3179
 1898TIP3   OH2 5654   2.441   6.844   2.948 -0.0918  0.4832 -0.1252
 1898TIP3    H1 5655   2.475   6.916   3.000  0.7384  1.1453 -1.5554
 1898TIP3    H2 5656   2.413   6.885   2.866 -1.3582 -0.5347 -0.2177
 1899TIP3   OH2 5657   4.535   1.249   1.256 -0.3300 -0.5328  0.2878
 1899TIP3    H1 5658   4.471   1.216   1.319  0.4926  0.0421  1.4649
 1899TIP3    H2 5659   4.514   1.342   1.248 -1.3524 -0.8904 -1.4375
 1900TIP3   OH2 5660   1.660   6.995   4.593  0.0404 -0.4343 -0.0508
 1900TIP3    H1 5661   1.728   7.048   4.552  0.8770 -1.5539 -0.1292
 1900TIP3    H2 5662   1.597   6.978   4.524 -0.0840  0.1943 -0.0995
 1901TIP3   OH2 5663   4.620   2.140   3.682 -0.0354  0.4802 -0.1577
 1901TIP3    H1 5664   4.681   2.214   3.679 -0.2610  0.6137 -2.0544
 1901TIP3    H2 5665   4.676   2.063   3.682  0.2035  0.6253  1.9363
 1902TIP3   OH2 5666   3.119   1.167   2.855  0.6349  0.0222 -0.5019
 1902TIP3    H1 5667   3.049   1.202   2.799  0.4182  0.6062  0.1198
 1902TIP3    H2 5668   3.123   1.228   2.929  1.3698 -0.3682 -0.2121
 1903TIP3   OH2 5669   7.459   6.660   2.081 -0.4047  0.2087 -0.3757
 1903TIP3    H1 5670   7.503   6.681   1.999  2.3113 -0.2571  0.9053
 1903TIP3    H2 5671   7.412   6.579   2.063  1.1228 -0.5160 -1.1455
 1904TIP3   OH2 5672   4.932   0.224   3.296 -0.0119 -0.1089  0.0768
 1904TIP3    H1 5673   5.028   0.220   3.305 -0.1058 -1.9143  0.5411
 1904TIP3    H2 5674   4.899   0.168   3.367 -1.4611  1.3348  0.5710
 1905TIP3   OH2 5675   3.134   2.685   2.906  0.1278  0.0301  0.5172
 1905TIP3    H1 5676   3.173   2.773   2.904  1.2361 -0.4406  0.7622
 1905TIP3    H2 5677   3.083   2.679   2.826  0.3588  0.7648  0.3078
 1906TIP3   OH2 5678   2.360   7.087   1.753 -0.3914 -0.6297 -0.0724
 1906TIP3    H1 5679   2.282   7.117   1.707 -0.0675 -2.1434 -1.6351
 1906TIP3    H2 5680   2.405   7.168   1.778 -2.4096  0.2535  0.7978
 1907TIP3   OH2 5681   1.914   5.969   4.065  0.0055 -0.0636  0.4134
 1907TIP3    H1 5682   1.913   6.036   4.134  0.4685  0.8197 -0.4311
 1907TIP3    H2 5683   1.842   5.910   4.088 -0.5140  0.8162  1.0730
 1908TIP3   OH2 5684   0.965   4.833   6.001 -0.2430 -0.0693  0.3014
 1908TIP3    H1 5685   0.875   4.837   5.970 -0.5224  0.3406  1.1527
 1908TIP3    H2 5686   1.016   4.881   5.936 -0.8960  1.2222  0.7282
 1909TIP3   OH2 5687   3.742   1.862   1.011  0.2813  0.4785  0.3658
 1909TIP3    H1 5688   3.709   1.821   0.931  1.1726  0.2383  0.1158
 1909TIP3    H2 5689   3.762   1.952   0.985  0.5702  0.4006  0.3139
 1910TIP3   OH2 5690   6.028   6.146   0.010  0.1272  0.4700  0.2944
 1910TIP3    H1 5691   6.040   6.055   0.038 -0.5344  0.3757  0.2657
 1910TIP3    H2 5692   6.114   6.186   0.024  0.8261 -0.5276 -1.0642
 1911TIP3   OH2 5693   1.017   5.857   5.327  0.1226 -0.2071 -0.3032
 1911TIP3    H1 5694   0.982   5.910   5.255 -0.0054 -0.1383 -0.1884
 1911TIP3    H2 5695   1.096   5.817   5.290  0.4039  0.3208 -0.2819
 1912TIP3   OH2 5696   4.725   0.228   3.104 -0.0667  0.3059  0.7728
 1912TIP3    H1 5697   4.804   0.251   3.152  0.7398 -0.0791 -0.3371
 1912TIP3    H2 5698   4.754   0.162   3.041 -0.6105  2.4330 -1.7808
 1913TIP3   OH2 5699   4.387   3.376   2.839  0.3594 -0.3436  0.2081
 1913TIP3    H1 5700   4.329   3.436   2.793  0.1706 -0.3958  0.3747
 1913TIP3    H2 5701   4.475   3.400   2.812  0.2124 -0.7430 -0.6224
 1914TIP3   OH2 5702   4.544   2.036   1.636 -0.1862 -0.0516 -0.0540
 1914TIP3    H1 5703   4.621   2.088   1.615 -0.5795  1.0116  1.0649
 1914TIP3    H2 5704   4.547   2.025   1.731 -0.9184 -0.7892 -0.1042
 1915TIP3   OH2 5705   2.409   6.817   4.181 -0.3536  0.3371 -0.4388
 1915TIP3    H1 5706   2.486   6.870   4.204 -0.6735  1.0117 -0.9171
 1915TIP3    H2 5707   2.445   6.743   4.132  0.2339 -0.6038  1.3502
 1916TIP3   OH2 5708   1.137   6.186   1.013  0.3611 -0.1912 -0.3541
 1916TIP3    H1 5709   1.107   6.113   0.959 -1.1816  0.3162 -0.2024
 1916TIP3    H2 5710   1.091   6.174   1.096  2.2511 -0.6182  0.6558
 1917TIP3   OH2 5711   3.020   0.127   1.516  1.0764  0.0052 -0.3559
 1917TIP3    H1 5712   2.990   0.160   1.431  0.2149  0.0214 -0.0583
 1917TIP3    H2 5713   3.073   0.051   1.495 -1.3280 -1.6130 -0.8105
 1918TIP3   OH2 5714   1.592   7.154   1.952  0.1198  0.3607  0.2510
 1918TIP3    H1 5715   1.566   7.167   2.043  0.6383 -0.6563  0.5477
 1918TIP3    H2 5716   1.668   7.210   1.941  0.8871 -0.5540  0.8404
 1919TIP3   OH2 5717   4.317   0.057   5.090  0.4411  0.2508  0.1726
 1919TIP3    H1 5718   4.238   0.019   5.129  0.4911  2.6054  2.7081
 1919TIP3    H2 5719   4.284   0.119   5.025  0.2192  0.4088  0.4339
 1920TIP3   OH2 5720   3.141   2.273   2.778 -0.0380 -0.4342 -0.4929
 1920TIP3    H1 5721   3.189   2.313   2.706  0.7833 -0.8651 -0.1935
 1920TIP3    H2 5722   3.209   2.236   2.835 -0.6150  0.9340  1.1192
 1921TIP3   OH2 5723   3.906   1.948   2.123 -0.0085  0.2862  0.2662
 1921TIP3    H1 5724   3.874   1.869   2.077  0.5145 -0.3710  1.0218
 1921TIP3    H2 5725   3.934   1.916   2.209 -1.9660  1.6945  1.4505
 1922TIP3   OH2 5726   3.332   7.016   2.981  0.4295 -0.5066 -0.0882
 1922TIP3    H1 5727   3.348   7.050   2.893  0.3935 -0.0308  0.0883
 1922TIP3    H2 5728   3.332   7.094   3.037 -0.9203 -0.6639  0.1387
 1923TIP3   OH2 5729   3.449   2.051   4.972  0.3779 -0.0818  0.5311
 1923TIP3    H1 5730   3.538   2.086   4.963  1.7782 -2.7317  3.1238
 1923TIP3    H2 5731   3.425   2.071   5.062 -0.4402 -1.9913  0.7621
 1924TIP3   OH2 5732   2.917   6.798   2.794 -0.0486  0.3769  0.0185
 1924TIP3    H1 5733   2.941   6.878   2.748 -0.7431  1.5239  1.5703
 1924TIP3    H2 5734   2.884   6.828   2.879 -0.7901 -1.5228  0.4496
 1925TIP3   OH2 5735   5.988   0.020   3.609  0.3662 -0.0712  0.1617
 1925TIP3    H1 5736   5.969   0.090   3.671 -0.0032  0.6235 -0.7204
 1925TIP3    H2 5737   6.059   0.055   3.555  1.3261 -1.0277  0.7653
 1926TIP3   OH2 5738   4.321   1.035   0.700 -0.4678 -0.2603  0.3557
 1926TIP3    H1 5739   4.384   0.981   0.749  0.5120  1.2423  0.7992
 1926TIP3    H2 5740   4.237   1.017   0.742 -0.0933 -1.1599  0.7385
 1927TIP3   OH2 5741   7.200   7.166   2.762  0.2149 -0.4612 -0.0636
 1927TIP3    H1 5742   7.133   7.097   2.761 -1.6387  1.3001  0.0684
 1927TIP3    H2 5743   7.269   7.132   2.705 -0.7044 -2.4009 -0.0688
 1928TIP3   OH2 5744   2.018   6.273   2.380 -0.4433 -0.7524  0.0064
 1928TIP3    H1 5745   2.058   6.358   2.364  0.7061 -0.8023  2.4796
 1928TIP3    H2 5746   2.072   6.232   2.447 -1.9436 -2.7555  0.0676
 1929TIP3   OH2 5747   0.970   6.538   3.931  0.2012  0.3821  0.0113
 1929TIP3    H1 5748   1.005   6.494   3.853  0.1293  1.7858 -0.8345
 1929TIP3    H2 5749   0.888   6.492   3.950  0.4514 -0.2667 -0.4715
 1930TIP3   OH2 5750   2.382   6.781   3.376 -0.7888  0.4828  0.1676
 1930TIP3    H1 5751   2.348   6.862   3.338 -3.0317  0.2458  1.5877
 1930TIP3    H2 5752   2.324   6.713   3.342  0.5812 -0.4408 -0.3543
 1931TIP3   OH2 5753   2.886   6.474   4.384 -0.3127  0.0205  0.0705
 1931TIP3    H1 5754   2.867   6.453   4.476 -2.5372 -1.8002 -0.7475
 1931TIP3    H2 5755   2.956   6.414   4.360 -0.8579 -0.6444  0.1272
 1932TIP3   OH2 5756   2.717   0.908   1.369  0.0194  0.2662  0.2678
 1932TIP3    H1 5757   2.688   0.825   1.331  0.6297  1.2761 -2.5392
 1932TIP3    H2 5758   2.748   0.959   1.294  2.6251  1.8306  2.3188
 1933TIP3   OH2 5759   5.249   1.973   3.951  0.4680 -0.4226 -0.0509
 1933TIP3    H1 5760   5.188   1.911   3.912  1.9113 -0.7598 -1.8903
 1933TIP3    H2 5761   5.203   2.010   4.026 -1.2192 -2.1078 -0.2419
 1934TIP3   OH2 5762   3.409   0.376   3.107 -0.1048  0.0355  0.3658
 1934TIP3    H1 5763   3.326   0.331   3.090 -0.3259  0.6227 -0.1709
 1934TIP3    H2 5764   3.467   0.309   3.140 -0.9697 -0.2761  1.2854
 1935TIP3   OH2 5765   4.764   1.287   1.960  0.1694  0.5764 -0.5375
 1935TIP3    H1 5766   4.820   1.215   1.987  1.1249  0.9574 -1.4757
 1935TIP3    H2 5767   4.675   1.252   1.967  0.5257 -0.0818  0.7888
 1936TIP3   OH2 5768   3.286   0.876   4.484  0.1914  0.5459 -0.3549
 1936TIP3    H1 5769   3.279   0.796   4.431 -0.5471 -1.2167  2.3228
 1936TIP3    H2 5770   3.196   0.904   4.497  0.4677  2.1142 -1.6557
 1937TIP3   OH2 5771   4.125   0.368   1.829 -0.6117  0.5732  0.0031
 1937TIP3    H1 5772   4.196   0.349   1.891 -0.1103  0.5044 -0.5922
 1937TIP3    H2 5773   4.045   0.364   1.883 -0.2538 -0.2904  0.4834
 1938TIP3   OH2 5774   3.169   1.032   1.241 -0.3650 -0.6109  0.4133
 1938TIP3    H1 5775   3.201   0.951   1.200 -0.1983 -0.0596 -0.5429
 1938TIP3    H2 5776   3.241   1.059   1.298  0.5705  0.1882 -1.1267
 1939TIP3   OH2 5777   2.078   1.641   2.523  0.4308  0.1308 -0.2017
 1939TIP3    H1 5778   2.043   1.596   2.600  1.3581 -2.1043 -1.0475
 1939TIP3    H2 5779   2.004   1.692   2.489 -0.3687  0.0305  1.3269
 1940TIP3   OH2 5780   2.921   6.351   3.460  0.4300  0.2678 -0.1263
 1940TIP3    H1 5781   2.894   6.282   3.400  0.2399  0.0714  0.1867
 1940TIP3    H2 5782   2.862   6.343   3.535 -0.6819  1.7935 -0.7895
 1941TIP3   OH2 5783   4.196   1.788   1.965 -0.0487 -0.0992  0.0246
 1941TIP3    H1 5784   4.138   1.754   2.033 -0.3000  0.1719 -0.0509
 1941TIP3    H2 5785   4.245   1.712   1.934 -0.8856 -0.4681 -0.4180
 1942TIP3   OH2 5786   1.443   6.496   0.897 -0.0522  0.1882  0.4007
 1942TIP3    H1 5787   1.470   6.582   0.928 -1.2484  0.4194  0.8230
 1942TIP3    H2 5788   1.524   6.453   0.872  0.7922  0.6183  2.2988
 1943TIP3   OH2 5789   1.574   6.633   4.943  0.4253  0.5464 -0.1563
 1943TIP3    H1 5790   1.662   6.595   4.947  0.7977  1.5127  1.2178
 1943TIP3    H2 5791   1.547   6.640   5.034 -1.3014 -0.2028 -0.5986
 1944TIP3   OH2 5792   5.858   1.188   3.350 -0.1548 -0.2909  0.4143
 1944TIP3    H1 5793   5.935   1.141   3.381  0.8651  0.6206 -0.7266
 1944TIP3    H2 5794   5.839   1.250   3.420 -0.7281 -1.4789  1.3395
 1945TIP3   OH2 5795   4.474   0.212   2.592 -0.9695  0.2621 -1.1369
 1945TIP3    H1 5796   4.447   0.196   2.501 -2.0506  0.4972 -0.8640
 1945TIP3    H2 5797   4.567   0.189   2.593 -1.4220 -1.7520 -1.8106
 1946TIP3   OH2 5798   2.307   0.442   3.900  0.3830 -0.6734 -0.2462
 1946TIP3    H1 5799   2.353   0.464   3.819  1.7936  0.6340  0.8832
 1946TIP3    H2 5800   2.372   0.396   3.953 -0.7011 -2.0208 -0.0685
 1947TIP3   OH2 5801   4.646   3.649   3.371  0.5646  0.0879  0.5868
 1947TIP3    H1 5802   4.651   3.708   3.446  1.7725  0.7280  0.0219
 1947TIP3    H2 5803   4.680   3.566   3.403  1.8218  0.5822  0.5298
 1948TIP3   OH2 5804   4.667   1.587   1.511  0.2534  0.1475 -0.3487
 1948TIP3    H1 5805   4.714   1.562   1.431 -0.8121  0.2800 -1.0232
 1948TIP3    H2 5806   4.576   1.566   1.492  0.2973 -2.1063  1.7403
 1949TIP3   OH2 5807   1.183   7.103   2.049 -0.4573  0.5630  0.1070
 1949TIP3    H1 5808   1.152   7.151   1.972 -0.3025  0.0391 -0.2851
 1949TIP3    H2 5809   1.154   7.156   2.123 -1.6820  0.4391 -0.2712
 1950TIP3   OH2 5810   2.582   1.206   6.077 -0.5079  0.1436 -0.2507
 1950TIP3    H1 5811   2.651   1.141   6.064  0.2396  0.1228  3.3661
 1950TIP3    H2 5812   2.626   1.280   6.119 -2.2528  1.0664  0.0002
 1951TIP3   OH2 5813   3.515   1.315   0.490 -0.0994 -0.8378  0.8720
 1951TIP3    H1 5814   3.536   1.312   0.396 -0.6033  1.5976  0.6377
 1951TIP3    H2 5815   3.513   1.224   0.517  0.6125 -1.5632 -1.3737
 1952TIP3   OH2 5816   4.350   1.882   4.432  0.0768 -0.3361 -0.0480
 1952TIP3    H1 5817   4.277   1.869   4.492 -0.1439  0.9772 -0.0040
 1952TIP3    H2 5818   4.425   1.903   4.489 -0.1353  0.9182 -0.2002
 1953TIP3   OH2 5819   1.493   5.467   2.538  0.6036  0.6945  0.0163
 1953TIP3    H1 5820   1.402   5.453   2.565 -0.5114  1.0128 -3.4493
 1953TIP3    H2 5821   1.502   5.563   2.535  0.8620  0.6617 -0.2442
 1954TIP3   OH2 5822   0.574   6.306   5.896  0.1844 -0.2061 -0.5273
 1954TIP3    H1 5823   0.487   6.334   5.869 -1.3545 -2.7051  1.5822
 1954TIP3    H2 5824   0.611   6.261   5.820 -0.8761 -0.2314 -1.0308
 1955TIP3   OH2 5825   0.653   7.035   0.301 -0.5538  0.4704 -0.3506
 1955TIP3    H1 5826   0.699   7.114   0.329 -0.4582  0.3818 -0.2539
 1955TIP3    H2 5827   0.647   6.982   0.380 -1.1903  0.6598 -0.2681
 1956TIP3   OH2 5828   3.760   1.729   2.013 -0.2048 -0.3510  0.2647
 1956TIP3    H1 5829   3.751   1.702   1.921 -0.1004 -2.2764  0.7973
 1956TIP3    H2 5830   3.671   1.747   2.042 -0.1272  1.4723 -0.5424
 1957TIP3   OH2 5831   3.628   1.940   2.271 -0.1174 -0.3752 -0.2426
 1957TIP3    H1 5832   3.671   1.943   2.185 -1.8349  0.7254 -1.1019
 1957TIP3    H2 5833   3.700   1.940   2.334  1.1695  1.1220 -1.6480
 1958TIP3   OH2 5834   4.909   2.010   4.949 -0.0178  0.0259 -0.5757
 1958TIP3    H1 5835   4.857   1.997   4.870 -1.0658 -0.3354  0.1631
 1958TIP3    H2 5836   4.845   2.007   5.020  0.9525  0.0871  0.3044
 1959TIP3   OH2 5837   1.522   5.953   4.513 -0.1461 -0.3941 -0.2879
 1959TIP3    H1 5838   1.426   5.957   4.513 -0.1028  2.0079  2.2501
 1959TIP3    H2 5839   1.544   5.893   4.584  0.2462  1.2861  1.0376
 1960TIP3   OH2 5840   3.244   7.283   3.065 -0.6248 -0.0029  0.8073
 1960TIP3    H1 5841   3.206   7.307   2.981 -0.4371  2.0405  1.2696
 1960TIP3    H2 5842   3.303   7.356   3.085  0.7428 -1.3625  1.8276
 1961TIP3   OH2 5843   6.908   2.171   4.532  0.5190 -0.0777  0.0260
 1961TIP3    H1 5844   6.909   2.207   4.444 -0.6803  1.2246  0.5375
 1961TIP3    H2 5845   6.990   2.121   4.538  0.6026 -0.1995 -1.8116
 1962TIP3   OH2 5846   1.913   7.012   3.784 -0.2514  0.6075 -0.0344
 1962TIP3    H1 5847   1.827   7.042   3.753  0.2320  0.6001 -1.4095
 1962TIP3    H2 5848   1.943   7.081   3.842 -1.9167 -0.1485  1.7984
 1963TIP3   OH2 5849   4.361   0.499   3.299  0.5704 -0.4488  0.0258
 1963TIP3    H1 5850   4.379   0.425   3.241 -1.9647 -0.6288 -0.5905
 1963TIP3    H2 5851   4.328   0.568   3.241  1.2316  0.5493  0.8231
 1964TIP3   OH2 5852   3.775   1.673   4.092 -0.5788 -0.1596  0.0593
 1964TIP3    H1 5853   3.681   1.660   4.103 -0.5446 -0.5670 -0.1410
 1964TIP3    H2 5854   3.799   1.731   4.164 -1.3639  1.6769 -1.1058
 1965TIP3   OH2 5855   3.870   0.368   4.011 -0.4616 -0.5608  0.4796
 1965TIP3    H1 5856   3.859   0.388   3.918 -0.1485  1.0272  0.7702
 1965TIP3    H2 5857   3.822   0.286   4.024  1.2153 -1.9423 -1.5137
 1966TIP3   OH2 5858   5.266   3.955   4.241 -0.0138  0.4870 -0.2605
 1966TIP3    H1 5859   5.174   3.954   4.214  0.3472  1.9713 -1.5937
 1966TIP3    H2 5860   5.315   3.939   4.161  0.8965 -0.0733  0.4089
 1967TIP3   OH2 5861   0.785   7.264   6.129  0.7767  0.0368  0.6908
 1967TIP3    H1 5862   0.734   7.318   6.068  0.3751  0.3850  1.3318
 1967TIP3    H2 5863   0.738   7.180   6.132  1.0095 -0.1122  0.2321
 1968TIP3   OH2 5864   5.451   0.322   2.525  0.2144 -0.1702  0.4665
 1968TIP3    H1 5865   5.464   0.280   2.610 -1.0274  0.3338  0.9113
 1968TIP3    H2 5866   5.478   0.256   2.461  2.3091 -0.1280  1.2719
 1969TIP3   OH2 5867   3.374   0.741   1.050 -0.1925 -0.9496 -0.2318
 1969TIP3    H1 5868   3.459   0.718   1.013  0.2550  0.6674 -0.2533
 1969TIP3    H2 5869   3.354   0.669   1.111  1.9268 -0.5868  0.9513
 1970TIP3   OH2 5870   4.852   0.141   1.539 -0.4045  0.5255  0.0585
 1970TIP3    H1 5871   4.938   0.176   1.516  0.1146 -0.1305  0.9844
 1970TIP3    H2 5872   4.795   0.218   1.539 -0.3482  0.6088 -2.9752
 1971TIP3   OH2 5873   2.905   6.517   2.340  0.0790  0.1830  0.1114
 1971TIP3    H1 5874   2.974   6.469   2.294  0.7706  3.1278 -2.1169
 1971TIP3    H2 5875   2.827   6.507   2.286 -0.5595 -0.9259  1.2255
 1972TIP3   OH2 5876   2.758   6.029   2.764  0.0096 -0.1119 -0.1836
 1972TIP3    H1 5877   2.851   6.012   2.782  0.6815  2.2974 -1.1133
 1972TIP3    H2 5878   2.727   6.075   2.842 -0.6471 -1.6772  0.4903
 1973TIP3   OH2 5879   4.427   2.840   3.492 -0.4599  0.1576  0.0609
 1973TIP3    H1 5880   4.457   2.749   3.482  4.4164  1.6465 -0.2422
 1973TIP3    H2 5881   4.415   2.871   3.403  2.7762  1.2180 -0.0601
 1974TIP3   OH2 5882   7.255   1.626   4.379 -0.6468 -0.5030 -0.3027
 1974TIP3    H1 5883   7.174   1.670   4.405 -0.8934  0.1511 -2.0706
 1974TIP3    H2 5884   7.236   1.533   4.387 -1.6513 -0.3588 -0.8769
 1975TIP3   OH2 5885   6.337   0.390   4.968  0.7127  0.0569 -0.1901
 1975TIP3    H1 5886   6.329   0.435   4.884 -0.2134 -0.0951 -0.1988
 1975TIP3    H2 5887   6.391   0.447   5.022 -0.3353  1.1139 -0.2410
 1976TIP3   OH2 5888   2.459   1.430   1.602 -0.0412  0.3961  0.8002
 1976TIP3    H1 5889   2.502   1.478   1.673  0.6913  0.4172  0.3498
 1976TIP3    H2 5890   2.525   1.367   1.574 -0.8101 -0.5039  1.0256
 1977TIP3   OH2 5891   4.250   2.726   3.936  0.5190  0.1308  0.2261
 1977TIP3    H1 5892   4.270   2.786   4.008 -1.7400 -0.1124  1.1117
 1977TIP3    H2 5893   4.295   2.645   3.959 -0.1170  0.0818  1.3257
 1978TIP3   OH2 5894   5.261   0.233   4.499  0.1234 -0.0515 -0.2365
 1978TIP3    H1 5895   5.302   0.313   4.467 -1.3884  1.6778  2.0355
 1978TIP3    H2 5896   5.317   0.205   4.571  0.2716 -0.6881 -0.5946
 1979TIP3   OH2 5897   4.548   2.728   3.151 -0.5247 -0.4108 -0.2175
 1979TIP3    H1 5898   4.591   2.646   3.175 -1.8728 -0.9169  0.5220
 1979TIP3    H2 5899   4.567   2.739   3.058 -0.7003 -1.8005 -0.4334
 1980TIP3   OH2 5900   5.250   2.470   2.346 -0.4962  0.3106  0.0409
 1980TIP3    H1 5901   5.333   2.435   2.378 -0.2339  1.0365  0.1574
 1980TIP3    H2 5902   5.229   2.542   2.406 -0.6315  0.8634 -0.6597
 1981TIP3   OH2 5903   2.792   6.303   1.805  0.0150  0.2750 -0.0830
 1981TIP3    H1 5904   2.741   6.376   1.770  1.2316  0.8774 -0.6305
 1981TIP3    H2 5905   2.727   6.247   1.849 -1.0308  1.2854 -0.3168
 1982TIP3   OH2 5906   6.896   0.747   3.061  0.5311 -0.1537  0.7186
 1982TIP3    H1 5907   6.838   0.707   3.126  0.2585 -3.0447 -1.1878
 1982TIP3    H2 5908   6.973   0.775   3.111 -1.0825  0.7478  2.7693
 1983TIP3   OH2 5909   1.459   7.303   2.395  0.1689  0.2562 -0.1448
 1983TIP3    H1 5910   1.374   7.329   2.431 -0.0536 -1.0256  0.2808
 1983TIP3    H2 5911   1.508   7.385   2.390 -1.3991  1.1522 -1.2698
 1984TIP3   OH2 5912   2.703   6.856   3.224  0.5516 -0.3510  0.0005
 1984TIP3    H1 5913   2.746   6.850   3.309 -0.9318  0.1874  0.8195
 1984TIP3    H2 5914   2.633   6.791   3.228  0.0251  0.1735 -0.5345
 1985TIP3   OH2 5915   5.829   0.723   3.341 -0.2493  0.2226  0.2101
 1985TIP3    H1 5916   5.784   0.654   3.291 -1.6286 -0.2483  2.0504
 1985TIP3    H2 5917   5.836   0.796   3.279 -0.4812 -0.9095 -1.1759
 1986TIP3   OH2 5918   4.113   3.459   3.182  0.3824  0.2861 -0.9133
 1986TIP3    H1 5919   4.092   3.519   3.110  0.8765  0.0970 -1.2194
 1986TIP3    H2 5920   4.206   3.440   3.171  1.2847  2.9288  1.8010
 1987TIP3   OH2 5921   3.916   0.436   2.615 -0.0587  0.1210  0.1535
 1987TIP3    H1 5922   3.926   0.469   2.526 -0.2876 -1.1877 -0.3718
 1987TIP3    H2 5923   3.822   0.435   2.630  0.0029  0.8029  0.5903
 1988TIP3   OH2 5924   5.486   0.316   5.048 -0.0071  0.6739 -0.2627
 1988TIP3    H1 5925   5.561   0.335   4.991  0.0606 -0.9545 -0.7552
 1988TIP3    H2 5926   5.454   0.231   5.017 -0.9491  0.5190  1.1124
 1989TIP3   OH2 5927   4.351   0.278   3.946 -0.1323  0.1060 -0.3405
 1989TIP3    H1 5928   4.330   0.345   4.012 -1.6478 -0.9922  0.3159
 1989TIP3    H2 5929   4.430   0.236   3.979 -1.0514 -0.6371  0.9578
 1990TIP3   OH2 5930   4.595   2.205   4.172  0.1140  0.7096 -0.1032
 1990TIP3    H1 5931   4.572   2.297   4.162 -1.3362  0.4011  0.2320
 1990TIP3    H2 5932   4.553   2.161   4.098 -0.4919  0.1194  0.5736
 1991TIP3   OH2 5933   7.178   1.030   3.922 -0.2396  0.1899  0.1078
 1991TIP3    H1 5934   7.222   1.083   3.855 -0.0577 -1.0463 -0.7544
 1991TIP3    H2 5935   7.227   0.948   3.925 -0.8712 -0.1606  1.0340
 1992TIP3   OH2 5936   3.978   0.607   3.559  0.6531 -0.4185 -0.5539
 1992TIP3    H1 5937   4.006   0.524   3.598  0.6063  0.4591  1.3731
 1992TIP3    H2 5938   4.058   0.659   3.552  0.0378  1.0446  2.4080
 1993TIP3   OH2 5939   4.193   2.519   2.552  0.2784 -0.0081  0.4240
 1993TIP3    H1 5940   4.178   2.610   2.528 -0.2325 -0.3957 -0.7483
 1993TIP3    H2 5941   4.255   2.523   2.625  1.4648  1.1929 -0.6392
 1994TIP3   OH2 5942   1.870   7.087   4.447 -0.4286  1.5186 -0.2306
 1994TIP3    H1 5943   1.823   7.138   4.382  0.1235  1.7044 -0.4889
 1994TIP3    H2 5944   1.937   7.040   4.398 -0.2374  1.3834  0.1527
 1995TIP3   OH2 5945   4.100   3.584   2.498  0.2801 -0.2085 -0.3306
 1995TIP3    H1 5946   4.126   3.548   2.583  2.1947  0.2509 -0.6856
 1995TIP3    H2 5947   4.167   3.552   2.437 -1.3488 -0.9450 -1.7680
 1996TIP3   OH2 5948   2.539   7.056   3.096 -0.7591 -0.4855 -0.0508
 1996TIP3    H1 5949   2.495   7.118   3.154 -1.6547 -0.5820 -0.6148
 1996TIP3    H2 5950   2.567   6.985   3.153  0.8503  0.7399  0.6983
 1997TIP3   OH2 5951   3.422   1.795   1.063 -0.7589 -0.4007 -0.5630
 1997TIP3    H1 5952   3.456   1.807   0.974 -0.8544 -0.4679 -0.6088
 1997TIP3    H2 5953   3.443   1.877   1.108 -4.4470  1.3430 -1.8619
 1998TIP3   OH2 5954   5.748   2.542   3.953  0.6047 -0.0075 -0.1335
 1998TIP3    H1 5955   5.768   2.577   4.040 -0.4073  0.7548 -0.1930
 1998TIP3    H2 5956   5.803   2.592   3.894 -1.0170  1.7079 -0.2431
 1999TIP3   OH2 5957   3.940   2.427   1.372  0.6401 -0.2716  0.0914
 1999TIP3    H1 5958   3.848   2.409   1.353  0.1553  1.2383  0.9316
 1999TIP3    H2 5959   3.961   2.370   1.446  0.7040 -1.4199 -0.7974
 2000TIP3   OH2 5960   4.058   1.067   1.433 -0.6906 -0.2910  0.0464
 2000TIP3    H1 5961   4.072   0.972   1.436  2.1909  0.1079  0.8907
 2000TIP3    H2 5962   4.026   1.089   1.521 -1.0015 -0.4296 -0.0320
 2001TIP3   OH2 5963   3.552   1.002   2.328  0.6570 -0.7630  0.3847
 2001TIP3    H1 5964   3.474   1.054   2.348  0.2192 -0.8548 -1.0187
 2001TIP3    H2 5965   3.621   1.040   2.383 -0.0981  0.1055  0.7416
 2002TIP3   OH2 5966   5.899   5.664   3.437  0.1076  0.0717  0.5272
 2002TIP3    H1 5967   5.917   5.595   3.373  0.5624  0.5118  0.1764
 2002TIP3    H2 5968   5.848   5.621   3.505  1.2194 -0.8517  0.7870
 2003TIP3   OH2 5969   4.211   0.743   3.241 -0.3208 -0.0038  0.2595
 2003TIP3    H1 5970   4.184   0.730   3.332 -2.5372 -2.2202 -0.6463
 2003TIP3    H2 5971   4.195   0.835   3.224 -0.4540  0.3003  1.9471
 2004TIP3   OH2 5972   2.332   6.928   2.691  0.4219 -0.4724  0.0712
 2004TIP3    H1 5973   2.294   7.012   2.665  1.2161 -0.0308  0.3203
 2004TIP3    H2 5974   2.296   6.864   2.629 -0.9637 -0.1120  0.4970
 2005TIP3   OH2 5975   5.857   2.603   2.749 -0.5694 -0.3086 -0.0312
 2005TIP3    H1 5976   5.808   2.543   2.805  0.3690 -1.1560 -0.1044
 2005TIP3    H2 5977   5.876   2.551   2.670 -0.1143  0.2226 -0.2725
 2006TIP3   OH2 5978   1.896   6.994   1.372 -0.4415  0.0741 -0.2186
 2006TIP3    H1 5979   1.915   7.080   1.408 -0.6753  0.5328 -1.1573
 2006TIP3    H2 5980   1.805   6.978   1.394 -0.2541 -0.1602  0.3961
 2007TIP3   OH2 5981   5.464   0.328   2.824 -0.4297  0.5820 -0.3164
 2007TIP3    H1 5982   5.393   0.356   2.881 -0.7374 -0.2137 -0.3009
 2007TIP3    H2 5983   5.538   0.384   2.848 -0.4879  0.1042  1.0137
 2008TIP3   OH2 5984   4.638   1.900   2.309 -0.5598  0.5706  0.5580
 2008TIP3    H1 5985   4.706   1.844   2.272 -0.5076  1.6579 -1.0132
 2008TIP3    H2 5986   4.637   1.878   2.402  0.4762 -0.9745  0.2194
 2009TIP3   OH2 5987   2.034   6.292   3.745  0.2839  0.9231  0.5865
 2009TIP3    H1 5988   2.089   6.262   3.672  0.5941  0.1077  1.1524
 2009TIP3    H2 5989   1.976   6.357   3.706  0.5024  0.5473 -0.3777
 2010TIP3   OH2 5990   0.114   4.261   0.165  0.1165  0.0826  0.6359
 2010TIP3    H1 5991   0.210   4.264   0.162  0.0841  0.0764 -0.8088
 2010TIP3    H2 5992   0.087   4.255   0.073 -1.3323  2.0259  0.8973
 2011TIP3   OH2 5993   5.736   2.153   1.866  0.6612 -0.3326  0.9052
 2011TIP3    H1 5994   5.681   2.078   1.889  1.0172 -0.5159  1.1674
 2011TIP3    H2 5995   5.825   2.126   1.891  1.0895 -0.6112 -0.8073
 2012TIP3   OH2 5996   4.760   2.492   3.119 -0.1109 -0.4117 -0.8233
 2012TIP3    H1 5997   4.852   2.467   3.122  0.3741  1.5373  1.1204
 2012TIP3    H2 5998   4.729   2.485   3.209 -1.0673  1.8009 -0.9422
 2013TIP3   OH2 5999   5.937   1.136   2.198 -0.3471  0.2872  0.6228
 2013TIP3    H1 6000   5.981   1.097   2.273 -0.1934 -0.0921  0.3315
 2013TIP3    H2 6001   5.865   1.076   2.178 -0.1480  0.1904  0.2137
 2014TIP3   OH2 6002   4.370   2.836   5.186  0.0205 -0.5330 -0.1983
 2014TIP3    H1 6003   4.329   2.869   5.266  0.8647  2.0484 -0.7761
 2014TIP3    H2 6004   4.297   2.804   5.132 -0.8813  0.7508  0.2523
 2015TIP3   OH2 6005   6.789   1.382   3.135 -0.3962  0.0162 -0.3792
 2015TIP3    H1 6006   6.784   1.417   3.046 -1.0254 -0.2924 -0.4700
 2015TIP3    H2 6007   6.753   1.294   3.129 -0.9745  0.1977  0.2831
 2016TIP3   OH2 6008   7.244   2.040   2.946 -0.6862 -0.0144  0.1106
 2016TIP3    H1 6009   7.149   2.047   2.933 -0.5635  1.0106 -0.2690
 2016TIP3    H2 6010   7.255   2.038   3.041 -1.1357 -0.7756  0.1445
 2017TIP3   OH2 6011   2.856   6.719   0.980 -0.0675  0.3641  0.8967
 2017TIP3    H1 6012   2.946   6.741   1.005 -0.2357  0.7971  1.1211
 2017TIP3    H2 6013   2.846   6.756   0.892 -0.4309  1.4100  1.3726
 2018TIP3   OH2 6014   4.517   0.380   1.759 -0.4383 -0.5585 -0.2944
 2018TIP3    H1 6015   4.509   0.468   1.721  0.0958 -0.6382 -0.5949
 2018TIP3    H2 6016   4.608   0.373   1.786 -1.0125 -0.1987  1.8048
 2019TIP3   OH2 6017   5.736   0.021   2.510  0.1022  0.0015 -0.2201
 2019TIP3    H1 6018   5.744   0.068   2.427  0.1553 -1.5672 -1.1111
 2019TIP3    H2 6019   5.646   0.039   2.538  0.4476  1.4816 -0.0255
 2020TIP3   OH2 6020   5.040   2.609   4.076  0.3328  0.1407  0.5576
 2020TIP3    H1 6021   5.133   2.630   4.076  0.4416 -0.3355 -0.0868
 2020TIP3    H2 6022   5.006   2.650   4.156  0.8462  1.3804  0.1454
 2021TIP3   OH2 6023   4.444   1.668   3.102 -0.4208 -0.7008 -0.1887
 2021TIP3    H1 6024   4.437   1.754   3.143 -3.8207 -1.3391  0.7624
 2021TIP3    H2 6025   4.471   1.610   3.173 -0.3818 -0.8015 -0.2870
 2022TIP3   OH2 6026   5.186   0.611   2.641 -0.6588  0.1292 -0.0094
 2022TIP3    H1 6027   5.282   0.607   2.647 -0.6156  1.7105  0.5436
 2022TIP3    H2 6028   5.168   0.597   2.548  0.1548  0.5728 -0.2424
 2023TIP3   OH2 6029   5.676   2.032   2.717 -0.6255 -0.1514 -0.0076
 2023TIP3    H1 6030   5.671   2.004   2.809  0.7137 -1.5260 -0.3185
 2023TIP3    H2 6031   5.677   1.950   2.668 -1.8237  0.5882 -1.2849
 2024TIP3   OH2 6032   6.538   0.425   4.560 -0.3082  0.3493 -0.3528
 2024TIP3    H1 6033   6.491   0.344   4.541  0.0480  0.1376 -0.3284
 2024TIP3    H2 6034   6.531   0.476   4.479  1.9448 -0.9101 -1.3586
 2025TIP3   OH2 6035   1.152   6.758   2.561 -0.2685 -0.4349  0.0871
 2025TIP3    H1 6036   1.120   6.832   2.613 -0.2611  0.1619 -0.7464
 2025TIP3    H2 6037   1.073   6.707   2.541 -0.7471  1.0755 -2.0291
 2026TIP3   OH2 6038   1.302   0.693   4.081 -0.0172 -0.1016  0.0617
 2026TIP3    H1 6039   1.377   0.710   4.137 -0.8190  0.7922  0.8863
 2026TIP3    H2 6040   1.278   0.602   4.098 -0.4045  0.2422  1.3501
 2027TIP3   OH2 6041   5.791   6.300   2.556 -0.4070 -0.4753  0.5843
 2027TIP3    H1 6042   5.820   6.367   2.494  0.7866 -0.4479  1.1653
 2027TIP3    H2 6043   5.847   6.225   2.539 -0.4910 -0.6832  1.2089
 2028TIP3   OH2 6044   3.885   5.664   2.710 -0.0564 -0.0042 -0.2850
 2028TIP3    H1 6045   3.938   5.742   2.722 -0.4217  0.1778  0.1774
 2028TIP3    H2 6046   3.835   5.680   2.630 -1.3115  0.9283  0.6607
 2029TIP3   OH2 6047   3.009   6.160   2.534  0.3407  0.2368 -0.6264
 2029TIP3    H1 6048   3.103   6.171   2.519  0.2010  2.7621  0.1653
 2029TIP3    H2 6049   2.981   6.244   2.569 -1.4644 -1.7713  2.9739
 2030TIP3   OH2 6050   5.124   2.508   2.098 -0.1549  0.5386 -0.1443
 2030TIP3    H1 6051   5.156   2.505   2.188  0.3497 -0.1282 -0.3402
 2030TIP3    H2 6052   5.030   2.492   2.106  0.2020 -1.6186  0.1102
 2031TIP3   OH2 6053   1.145   3.718   6.295 -0.6309 -0.2739  0.3770
 2031TIP3    H1 6054   1.215   3.685   6.352 -0.3758 -0.7609 -0.2136
 2031TIP3    H2 6055   1.091   3.773   6.352 -0.1912 -0.4984  1.0095
 2032TIP3   OH2 6056   5.332   6.794   1.163 -0.3874  0.4368  0.1258
 2032TIP3    H1 6057   5.326   6.769   1.071  0.3910 -0.2124  0.2404
 2032TIP3    H2 6058   5.338   6.711   1.210  2.9795  0.8205  0.4658
 2033TIP3   OH2 6059   5.152   0.513   2.099 -0.8320 -0.1457  0.3080
 2033TIP3    H1 6060   5.149   0.516   2.004 -2.1488  0.1571  0.3567
 2033TIP3    H2 6061   5.235   0.468   2.119 -0.0138  0.7669 -0.9449
 2034TIP3   OH2 6062   5.874   2.297   3.894 -0.2839  0.6347 -0.2109
 2034TIP3    H1 6063   5.920   2.246   3.960 -0.6281  0.6265  0.0228
 2034TIP3    H2 6064   5.834   2.370   3.942 -0.3543  0.7479 -0.4388
 2035TIP3   OH2 6065   4.563   3.155   0.739  0.6278  0.0854  0.2454
 2035TIP3    H1 6066   4.608   3.086   0.690  0.9533 -0.7648  1.6922
 2035TIP3    H2 6067   4.487   3.111   0.778 -0.2254  0.9979 -0.3858
 2036TIP3   OH2 6068   7.758   1.902   6.061 -0.1890 -0.0665 -0.5618
 2036TIP3    H1 6069   7.789   1.811   6.058  1.6123  0.4938 -0.0624
 2036TIP3    H2 6070   7.678   1.898   6.112  1.1029 -1.0984  1.4772
 2037TIP3   OH2 6071   6.050   1.118   2.790  0.5783 -0.3131  0.3296
 2037TIP3    H1 6072   6.056   1.212   2.806  0.9055 -0.4523  1.0561
 2037TIP3    H2 6073   5.956   1.100   2.788  0.5258 -0.3961  2.8227
 2038TIP3   OH2 6074   2.488   7.121   5.212  0.4821  0.4251 -0.5605
 2038TIP3    H1 6075   2.396   7.145   5.223 -0.1366 -1.7895 -0.7845
 2038TIP3    H2 6076   2.536   7.201   5.234 -1.4827  1.6025 -0.4390
 2039TIP3   OH2 6077   6.724   1.482   2.194 -0.5627 -0.1113  0.3869
 2039TIP3    H1 6078   6.700   1.569   2.225 -0.2687 -0.1857  0.8344
 2039TIP3    H2 6079   6.714   1.486   2.099 -2.2768 -0.1254  0.5433
 2040TIP3   OH2 6080   1.625   7.284   2.698  0.3401  0.5331  0.6072
 2040TIP3    H1 6081   1.551   7.223   2.697 -0.5512  1.5921 -0.7986
 2040TIP3    H2 6082   1.692   7.240   2.646  0.0420  0.3396  0.3807
 2041TIP3   OH2 6083   4.794   0.100   3.559  0.1406 -0.2536  0.3130
 2041TIP3    H1 6084   4.727   0.162   3.587  0.3094  0.0188  0.1166
 2041TIP3    H2 6085   4.811   0.046   3.636 -0.8286 -0.7949  0.1513
 2042TIP3   OH2 6086   5.797   0.967   3.181  0.0241  0.4731 -0.2718
 2042TIP3    H1 6087   5.706   0.938   3.193  0.3342  0.0923  1.2773
 2042TIP3    H2 6088   5.800   1.054   3.220  0.0274  1.0409 -1.4996
 2043TIP3   OH2 6089   4.911   2.939   4.915 -0.3662  0.0016  0.4579
 2043TIP3    H1 6090   4.839   2.994   4.884 -1.3607 -1.4758  0.0836
 2043TIP3    H2 6091   4.948   2.986   4.989 -1.7224  0.7831  0.6515
 2044TIP3   OH2 6092   5.613   0.772   2.937  0.2438 -0.3189  0.1670
 2044TIP3    H1 6093   5.521   0.778   2.911 -0.1742 -2.5096  1.0456
 2044TIP3    H2 6094   5.619   0.826   3.016  0.3842  2.1671 -1.4865
 2045TIP3   OH2 6095   1.777   7.267   0.902  0.6000  0.8198  0.0180
 2045TIP3    H1 6096   1.816   7.190   0.860 -0.1519  0.2279  0.4017
 2045TIP3    H2 6097   1.836   7.339   0.879  0.5720  0.3748 -1.4719
 2046TIP3   OH2 6098   6.403   2.193   3.553 -1.0122  0.6439  0.1053
 2046TIP3    H1 6099   6.359   2.263   3.602 -0.4357 -0.0758  1.6846
 2046TIP3    H2 6100   6.375   2.112   3.596  1.1419  0.1207  0.5962
 2047TIP3   OH2 6101   0.289   1.658   2.876  0.1821 -0.1718  0.2021
 2047TIP3    H1 6102   0.247   1.737   2.908  1.0903  0.9730 -1.3680
 2047TIP3    H2 6103   0.302   1.673   2.782  2.5336 -1.1674  0.3300
 2048TIP3   OH2 6104   0.388   0.350   3.389 -0.0738  0.5348 -0.6384
 2048TIP3    H1 6105   0.446   0.390   3.453  0.1508  0.0506 -0.5347
 2048TIP3    H2 6106   0.442   0.337   3.311  0.0630 -0.2577 -0.4162
 2049TIP3   OH2 6107   5.653   1.183   2.919  0.7002 -0.1143 -0.2107
 2049TIP3    H1 6108   5.603   1.102   2.924  1.6768 -0.6557  1.1584
 2049TIP3    H2 6109   5.668   1.197   2.826 -0.4482 -0.9023 -0.5134
 2050TIP3   OH2 6110   6.555   1.623   2.787 -0.3753 -0.0551  0.0224
 2050TIP3    H1 6111   6.559   1.717   2.772  0.9287 -0.3286 -1.5050
 2050TIP3    H2 6112   6.591   1.584   2.707 -1.7950 -1.8797  0.2315
 2051TIP3   OH2 6113   7.350   0.355   2.321 -0.3834 -0.0721  0.2373
 2051TIP3    H1 6114   7.303   0.372   2.239  0.0338 -2.1555 -0.4718
 2051TIP3    H2 6115   7.314   0.272   2.353  0.8172 -0.2550  1.1603
 2052TIP3   OH2 6116   1.338   6.319   5.238 -0.3958  0.3050  0.0091
 2052TIP3    H1 6117   1.336   6.345   5.330 -0.6842  0.1491  0.0497
 2052TIP3    H2 6118   1.298   6.393   5.191  0.8346  0.8998 -0.1269
 2053TIP3   OH2 6119   7.025   1.188   4.623  0.2714 -0.3252  0.0188
 2053TIP3    H1 6120   7.035   1.149   4.536  0.6618 -1.5302  0.5845
 2053TIP3    H2 6121   6.986   1.117   4.676  1.4372 -0.0990  1.1978
 2054TIP3   OH2 6122   0.262   0.870   2.064  0.3136  0.2413 -0.1122
 2054TIP3    H1 6123   0.203   0.845   2.136  0.3226  1.1349  0.2056
 2054TIP3    H2 6124   0.215   0.939   2.017  0.7030  0.2970 -0.4190
 2055TIP3   OH2 6125   6.803   0.219   2.681  0.3472 -0.2197  0.4660
 2055TIP3    H1 6126   6.851   0.252   2.605  0.1898 -0.2590  0.3489
 2055TIP3    H2 6127   6.712   0.214   2.651  0.3839 -0.8476  0.4582
 2056TIP3   OH2 6128   7.025   0.142   4.720 -0.2266 -0.1617  0.4582
 2056TIP3    H1 6129   6.961   0.118   4.653  0.5919  1.2324 -0.8538
 2056TIP3    H2 6130   6.972   0.180   4.790 -0.9561 -0.1948 -0.0677
 2057TIP3   OH2 6131   3.372   5.767   3.252 -0.4531  0.1059 -0.0629
 2057TIP3    H1 6132   3.335   5.732   3.334 -1.7060 -1.0328 -1.0922
 2057TIP3    H2 6133   3.450   5.714   3.237  0.7024  1.3870  1.2186
 2058TIP3   OH2 6134   5.391   1.638   4.096  0.8063  0.6173 -0.6893
 2058TIP3    H1 6135   5.326   1.644   4.026  2.9228  0.0854 -2.7559
 2058TIP3    H2 6136   5.346   1.594   4.168 -1.0912  0.2380 -2.0984
 2059TIP3   OH2 6137   5.491   0.127   2.276 -0.0114 -0.3570  1.1849
 2059TIP3    H1 6138   5.515   0.074   2.200 -0.1399 -1.5103  1.9346
 2059TIP3    H2 6139   5.424   0.075   2.321 -0.6859  0.7869  1.5277
 2060TIP3   OH2 6140   5.206   1.294   3.623 -0.6664  0.2771  0.5787
 2060TIP3    H1 6141   5.253   1.259   3.699 -0.9716  0.7065  0.9707
 2060TIP3    H2 6142   5.275   1.326   3.565 -0.4863  1.2490  1.3205
 2061TIP3   OH2 6143   3.943   7.082   2.960  0.5288 -0.1346  0.3573
 2061TIP3    H1 6144   3.974   7.063   2.871  2.6905  1.3559  0.7540
 2061TIP3    H2 6145   3.899   7.002   2.988  0.3126 -0.8267 -1.8292
 2062TIP3   OH2 6146   0.450   0.132   2.800 -0.2220  0.0500 -0.0430
 2062TIP3    H1 6147   0.545   0.128   2.792 -0.3601 -0.5174 -1.7970
 2062TIP3    H2 6148   0.419   0.057   2.749 -1.6177  0.4931  0.1353
 2063TIP3   OH2 6149   0.589   2.340   3.693 -0.0066  0.3059  0.1775
 2063TIP3    H1 6150   0.499   2.342   3.661  0.3341 -0.6378 -0.8638
 2063TIP3    H2 6151   0.581   2.346   3.789 -1.0913  1.7951  0.0188
 2064TIP3   OH2 6152   3.524   7.026   4.156 -0.2741  0.2558 -0.0837
 2064TIP3    H1 6153   3.558   7.022   4.067 -0.7912  2.3181 -0.4154
 2064TIP3    H2 6154   3.599   7.007   4.212  0.3778  0.3022 -0.9337
 2065TIP3   OH2 6155   6.364   0.823   3.042 -0.0851 -0.6061 -0.0919
 2065TIP3    H1 6156   6.420   0.838   2.966 -0.1989 -2.2114 -0.5117
 2065TIP3    H2 6157   6.343   0.911   3.074  0.9190  0.0547 -1.2098
 2066TIP3   OH2 6158   4.685   0.347   4.701 -0.3026 -0.4790  0.1942
 2066TIP3    H1 6159   4.643   0.262   4.689  0.7209 -0.5631 -3.3097
 2066TIP3    H2 6160   4.612   0.407   4.720 -1.3444 -1.6150 -0.1396
 2067TIP3   OH2 6161   0.370   0.434   4.000  0.1140  0.2922 -0.4170
 2067TIP3    H1 6162   0.277   0.437   4.023  0.4260 -1.1904  1.1049
 2067TIP3    H2 6163   0.409   0.376   4.064  1.9114  0.0057 -1.7277
 2068TIP3   OH2 6164   0.799   2.208   1.422 -0.0540 -0.0710 -0.7819
 2068TIP3    H1 6165   0.842   2.126   1.397  1.1210  0.5130 -0.6936
 2068TIP3    H2 6166   0.730   2.181   1.484 -1.1523 -1.2197 -2.4745
 2069TIP3   OH2 6167   7.679   2.654   2.353 -0.1761  0.7229 -0.3176
 2069TIP3    H1 6168   7.598   2.607   2.371 -1.1810  1.6503 -2.3441
 2069TIP3    H2 6169   7.676   2.730   2.411  0.1553 -0.2407  0.9759
 2070TIP3   OH2 6170   7.310   2.004   5.068  0.7876  0.0432  0.5251
 2070TIP3    H1 6171   7.320   1.914   5.100 -0.6449  0.0506  1.0318
 2070TIP3    H2 6172   7.221   2.029   5.094  0.0496  0.5243 -2.3049
 2071TIP3   OH2 6173   4.576   2.075   3.940 -0.1501  0.6458 -0.1726
 2071TIP3    H1 6174   4.575   1.981   3.923  2.7190  0.4890  0.3589
 2071TIP3    H2 6175   4.566   2.115   3.853 -0.3684 -0.1298 -0.5072
 2072TIP3   OH2 6176   2.485   6.250   2.597  0.2846  0.1755 -0.2264
 2072TIP3    H1 6177   2.462   6.308   2.670 -2.6631 -0.2834 -0.7466
 2072TIP3    H2 6178   2.547   6.188   2.634 -0.5391  0.4631  1.6881
 2073TIP3   OH2 6179   5.603   7.144   3.932  0.0399  0.1433 -0.4277
 2073TIP3    H1 6180   5.685   7.109   3.898  0.0458  0.4106 -0.6799
 2073TIP3    H2 6181   5.543   7.142   3.858 -0.1441  0.0786 -0.2785
 2074TIP3   OH2 6182   0.703   0.155   4.337  0.7298  0.2074 -0.5052
 2074TIP3    H1 6183   0.730   0.111   4.256 -0.6466 -0.6108 -0.5419
 2074TIP3    H2 6184   0.633   0.214   4.310  0.8098  0.5188 -0.0358
 2075TIP3   OH2 6185   4.140   7.128   4.056  0.0082 -0.0562 -0.3623
 2075TIP3    H1 6186   4.051   7.097   4.036  0.6618 -1.4979 -1.1294
 2075TIP3    H2 6187   4.168   7.172   3.976 -0.5257  1.6538  0.3689
 2076TIP3   OH2 6188   7.195   2.657   3.013  0.7168 -0.8471 -0.3158
 2076TIP3    H1 6189   7.211   2.750   3.029 -0.5715 -0.4570 -1.2362
 2076TIP3    H2 6190   7.136   2.630   3.084 -1.1118 -0.2789 -1.5763
 2077TIP3   OH2 6191   5.194   2.035   2.635 -0.1707  0.0327  0.2028
 2077TIP3    H1 6192   5.144   2.104   2.591  0.1150 -0.2149 -0.5239
 2077TIP3    H2 6193   5.286   2.062   2.626 -0.0006 -0.8185 -0.7674
 2078TIP3   OH2 6194   2.134   7.143   0.629 -0.2659 -0.1796  0.1382
 2078TIP3    H1 6195   2.228   7.160   0.640 -0.1320  0.8344 -2.2293
 2078TIP3    H2 6196   2.099   7.145   0.718  2.2176 -2.2961  1.2380
 2079TIP3   OH2 6197   4.147   7.029   1.266  0.1912  0.2649  0.0300
 2079TIP3    H1 6198   4.215   7.084   1.305  0.7820 -0.7596  0.4452
 2079TIP3    H2 6199   4.164   7.033   1.171  1.7224 -1.1665  0.2374
 2080TIP3   OH2 6200   6.972   2.257   3.708 -0.2652  0.2071 -0.5151
 2080TIP3    H1 6201   7.027   2.185   3.740 -2.0198 -1.0310 -0.2512
 2080TIP3    H2 6202   6.922   2.220   3.636 -2.5493  0.6241  0.8054
 2081TIP3   OH2 6203   5.158   1.940   0.772 -0.6064 -0.5453 -0.3388
 2081TIP3    H1 6204   5.123   1.908   0.689 -0.0876 -0.9238 -0.4140
 2081TIP3    H2 6205   5.209   1.867   0.806  0.2026  0.0382 -0.2937
 2082TIP3   OH2 6206   5.329   2.125   3.588  0.6936  0.6699  0.1101
 2082TIP3    H1 6207   5.364   2.071   3.517  0.0512  1.9049 -1.1771
 2082TIP3    H2 6208   5.234   2.113   3.582  0.6368  0.8201  0.7281
 2083TIP3   OH2 6209   5.175   6.795   5.455 -0.0568 -0.0186 -0.0733
 2083TIP3    H1 6210   5.267   6.785   5.478  0.1359 -0.1899 -0.9151
 2083TIP3    H2 6211   5.129   6.789   5.539  0.7604  0.9649  0.4545
 2084TIP3   OH2 6212   7.409   1.779   3.678  0.9094  0.2554 -0.0013
 2084TIP3    H1 6213   7.379   1.698   3.635  1.0099  1.1393 -1.7646
 2084TIP3    H2 6214   7.501   1.786   3.654  0.3869  1.9599 -1.5589
 2085TIP3   OH2 6215   0.362   1.512   2.215  0.0324 -0.1222  0.6333
 2085TIP3    H1 6216   0.389   1.603   2.230 -1.3583  0.2525  0.9399
 2085TIP3    H2 6217   0.443   1.462   2.225  1.1044  1.2288 -1.0184
 2086TIP3   OH2 6218   6.716   0.060   0.804  0.6329 -0.8768 -0.4032
 2086TIP3    H1 6219   6.661   0.137   0.818  0.0977 -1.1883 -0.7685
 2086TIP3    H2 6220   6.739   0.064   0.711  1.1188 -0.8196 -0.2803
 2087TIP3   OH2 6221   7.538   1.845   3.367 -0.0181  0.2116  0.7427
 2087TIP3    H1 6222   7.605   1.812   3.427 -0.7214 -3.1387 -0.2247
 2087TIP3    H2 6223   7.574   1.827   3.280 -1.1846  0.4185  0.2140
 2088TIP3   OH2 6224   5.224   0.539   2.994  0.4613 -0.6975 -0.0089
 2088TIP3    H1 6225   5.280   0.615   2.980 -0.1404 -0.4126 -0.9014
 2088TIP3    H2 6226   5.253   0.502   3.078  2.1480 -0.7130 -0.5921
 2089TIP3   OH2 6227   5.369   0.696   3.690  0.4635  0.6083  0.2617
 2089TIP3    H1 6228   5.290   0.705   3.636  1.2565  1.2421 -0.7953
 2089TIP3    H2 6229   5.370   0.603   3.715 -0.1775  0.4251 -0.3830
 2090TIP3   OH2 6230   4.745   0.203   2.569 -0.0928 -0.3525 -0.2512
 2090TIP3    H1 6231   4.813   0.270   2.573  1.5652 -1.9166 -1.6461
 2090TIP3    H2 6232   4.774   0.136   2.630 -1.9307  0.3264  1.4056
 2091TIP3   OH2 6233   4.812   1.074   3.766 -0.1917  0.1670  0.0369
 2091TIP3    H1 6234   4.861   1.028   3.835  0.6325 -0.6915 -1.1042
 2091TIP3    H2 6235   4.879   1.096   3.701 -1.1720 -0.1171 -1.0719
 2092TIP3   OH2 6236   0.263   1.420   2.566  0.1975  0.5820 -0.3819
 2092TIP3    H1 6237   0.280   1.514   2.562 -0.8805  0.7194 -2.0885
 2092TIP3    H2 6238   0.203   1.409   2.640  0.9573  1.1183  0.3281
 2093TIP3   OH2 6239   5.408   1.825   2.935 -0.1580  0.1428  0.2089
 2093TIP3    H1 6240   5.442   1.789   2.853  0.7822  2.5156 -0.4642
 2093TIP3    H2 6241   5.486   1.841   2.988 -0.6930 -0.4011  1.1672
 2094TIP3   OH2 6242   4.359   3.079   0.898  0.1076  0.1922  0.0951
 2094TIP3    H1 6243   4.353   3.062   0.993 -2.3666 -2.4919 -0.4656
 2094TIP3    H2 6244   4.299   3.152   0.883 -1.6272 -1.1765  0.2282
 2095TIP3   OH2 6245   6.233   2.252   2.354 -0.1236 -0.1987 -0.0741
 2095TIP3    H1 6246   6.143   2.240   2.382 -0.2737  0.0512 -0.4524
 2095TIP3    H2 6247   6.230   2.323   2.290  0.0892 -1.4181 -1.4608
 2096TIP3   OH2 6248   5.455   0.263   1.394  0.1839 -0.4769  0.1867
 2096TIP3    H1 6249   5.449   0.308   1.310 -1.9824  1.5091  1.2960
 2096TIP3    H2 6250   5.422   0.175   1.378  1.3751 -0.6380 -1.3789
 2097TIP3   OH2 6251   5.865   0.937   3.544  0.5868  0.4267  0.1859
 2097TIP3    H1 6252   5.840   0.848   3.519 -0.4925  0.9466 -0.6069
 2097TIP3    H2 6253   5.948   0.953   3.499 -0.7830  0.9515 -2.2211
 2098TIP3   OH2 6254   7.279   4.531   1.583  0.1069 -0.2497 -0.1958
 2098TIP3    H1 6255   7.261   4.625   1.575 -0.5768 -0.3588  0.0167
 2098TIP3    H2 6256   7.195   4.489   1.565 -0.1824 -0.7191  2.1554
 2099TIP3   OH2 6257   6.904   1.553   3.668 -0.1412 -0.1991  0.1626
 2099TIP3    H1 6258   6.897   1.541   3.573 -0.2600  0.4704  0.0853
 2099TIP3    H2 6259   6.945   1.638   3.678  0.7894 -0.7113  0.7055
 2100TIP3   OH2 6260   4.962   2.746   4.330  0.2643 -0.1863  0.1262
 2100TIP3    H1 6261   4.891   2.698   4.373  1.1147 -0.5722  1.1210
 2100TIP3    H2 6262   4.930   2.836   4.325 -0.2135 -0.3170  0.7635
 2101TIP3   OH2 6263   7.666   1.148   3.469  0.2475 -0.0694 -0.3761
 2101TIP3    H1 6264   7.641   1.061   3.438  1.8619 -0.3819 -0.8549
 2101TIP3    H2 6265   7.584   1.189   3.495 -0.8282 -0.7756 -2.5789
 2102TIP3   OH2 6266   0.143   2.250   4.233 -1.0245 -0.1839 -0.4811
 2102TIP3    H1 6267   0.187   2.198   4.301  0.7341 -0.3406 -1.7114
 2102TIP3    H2 6268   0.059   2.206   4.220 -1.1093 -0.5227  1.1375
 2103TIP3   OH2 6269   6.909   2.784   4.455 -0.2639 -0.2802  0.4518
 2103TIP3    H1 6270   6.911   2.765   4.549 -0.4748  1.8913  0.9129
 2103TIP3    H2 6271   6.918   2.879   4.450  1.5008 -0.5334 -1.8131
 2104TIP3   OH2 6272   5.950   1.334   3.804  0.1412  0.4709 -0.0056
 2104TIP3    H1 6273   5.933   1.393   3.731  0.3278 -0.7664 -1.0482
 2104TIP3    H2 6274   5.934   1.246   3.770 -0.0190 -0.1139  1.5041
 2105TIP3   OH2 6275   2.960   5.605   3.461  0.5996 -0.4809  0.1469
 2105TIP3    H1 6276   2.931   5.516   3.443 -1.7992  0.2353  0.2839
 2105TIP3    H2 6277   3.013   5.598   3.540 -0.1911 -1.6646  0.5779
 2106TIP3   OH2 6278   6.548   1.253   2.818  0.0475  0.1756  0.1362
 2106TIP3    H1 6279   6.492   1.326   2.844  0.9570  1.0457 -0.2714
 2106TIP3    H2 6280   6.513   1.225   2.733 -1.3349 -0.9752  1.0701
 2107TIP3   OH2 6281   7.165   0.573   3.849 -0.5307 -0.1084 -0.1439
 2107TIP3    H1 6282   7.234   0.613   3.796  0.5594 -0.9984  0.5926
 2107TIP3    H2 6283   7.132   0.645   3.903 -1.8702  0.8827 -2.2216
 2108TIP3   OH2 6284   5.390   1.015   0.657  0.0724  0.7513 -0.0436
 2108TIP3    H1 6285   5.300   1.040   0.679 -0.0149  0.4403 -0.0484
 2108TIP3    H2 6286   5.443   1.091   0.682  0.0029  0.3049  1.4771
 2109TIP3   OH2 6287   4.730   2.096   2.962 -0.0790  0.0092 -0.7995
 2109TIP3    H1 6288   4.737   2.078   3.056 -2.7473 -1.2263 -0.7942
 2109TIP3    H2 6289   4.653   2.153   2.954  0.3101  0.3562 -2.2091
 2110TIP3   OH2 6290   6.260   0.987   4.094 -0.6690  0.2400  0.4165
 2110TIP3    H1 6291   6.248   0.897   4.067 -0.0629 -0.1449  1.3931
 2110TIP3    H2 6292   6.344   1.013   4.055 -1.5197  0.8461 -1.0414
 2111TIP3   OH2 6293   3.273   6.487   2.505 -0.1017  0.0555  0.1478
 2111TIP3    H1 6294   3.224   6.409   2.479 -0.3498 -0.2586  1.5126
 2111TIP3    H2 6295   3.226   6.519   2.583 -1.2127  2.7365 -1.5794
 2112TIP3   OH2 6296   3.701   6.523   4.612  0.3005  0.2381  0.5991
 2112TIP3    H1 6297   3.742   6.527   4.698  1.2058 -0.9776  0.2314
 2112TIP3    H2 6298   3.763   6.474   4.558 -1.9387 -2.2441  0.2183
 2113TIP3   OH2 6299   5.578   6.372   2.734 -0.5893  0.1506  0.6030
 2113TIP3    H1 6300   5.607   6.462   2.749  1.1360 -0.5703  1.6031
 2113TIP3    H2 6301   5.638   6.338   2.667  0.1757 -0.9662  1.8360
 2114TIP3   OH2 6302   4.744   2.621   3.381 -0.4048  0.6941  0.2217
 2114TIP3    H1 6303   4.655   2.598   3.409 -1.4800  2.5705 -1.4526
 2114TIP3    H2 6304   4.747   2.716   3.390  1.2201  0.7028 -0.3635
 2115TIP3   OH2 6305   6.508   1.762   2.463  0.3835  0.0407  0.1134
 2115TIP3    H1 6306   6.499   1.857   2.465  0.4995  0.0805 -1.1101
 2115TIP3    H2 6307   6.595   1.746   2.500 -0.4532  0.2725  2.2493
 2116TIP3   OH2 6308   4.871   6.399   2.790  0.2843 -0.0369 -0.1689
 2116TIP3    H1 6309   4.796   6.339   2.790  0.6593 -0.5071 -0.2893
 2116TIP3    H2 6310   4.936   6.356   2.847  0.5246  0.2900 -0.1980
 2117TIP3   OH2 6311   7.435   0.578   1.288  0.0957 -0.2935 -0.4089
 2117TIP3    H1 6312   7.369   0.519   1.326 -0.9832  1.4989  0.5598
 2117TIP3    H2 6313   7.396   0.606   1.205  0.1365 -0.1205 -0.3695
 2118TIP3   OH2 6314   5.205   0.895   3.515  0.0174 -0.2898  0.7373
 2118TIP3    H1 6315   5.165   0.881   3.429 -0.9725  0.8229  1.0005
 2118TIP3    H2 6316   5.131   0.919   3.572  0.6266 -1.2369  1.9505
 2119TIP3   OH2 6317   5.455   6.311   3.818  0.3634  0.2288  0.1543
 2119TIP3    H1 6318   5.443   6.218   3.839 -0.6190  0.4685  0.7200
 2119TIP3    H2 6319   5.366   6.346   3.816  0.8041  1.4785  1.4775
 2120TIP3   OH2 6320   4.501   1.373   2.964  0.6174 -0.4363  0.1598
 2120TIP3    H1 6321   4.544   1.457   2.948 -0.2858  0.2508  1.2582
 2120TIP3    H2 6322   4.431   1.393   3.026  0.0241 -1.9022 -0.0094
 2121TIP3   OH2 6323   6.777   0.545   4.092 -0.2495 -0.0755  0.1422
 2121TIP3    H1 6324   6.858   0.593   4.110 -0.0594 -0.0569 -0.7255
 2121TIP3    H2 6325   6.724   0.606   4.040 -0.0904 -0.7203 -0.7910
 2122TIP3   OH2 6326   5.906   0.500   1.340 -0.1449 -0.3257 -0.2985
 2122TIP3    H1 6327   5.891   0.594   1.350  0.4300 -0.2059 -0.5712
 2122TIP3    H2 6328   5.961   0.477   1.415 -0.6742 -0.5344  0.0275
 2123TIP3   OH2 6329   5.181   6.893   3.966  0.9887 -0.2385  0.2463
 2123TIP3    H1 6330   5.175   6.969   3.908 -0.6760 -0.3449  0.2796
 2123TIP3    H2 6331   5.246   6.836   3.923  1.8976  0.9621 -0.0206
 2124TIP3   OH2 6332   0.821   0.168   1.609 -0.1419 -0.3108  0.1382
 2124TIP3    H1 6333   0.737   0.159   1.565  0.2876 -0.7767 -0.5891
 2124TIP3    H2 6334   0.876   0.099   1.571  0.7486  0.3689  0.1788
 2125TIP3   OH2 6335   0.991   0.438   2.764 -0.2307  0.0200  0.0988
 2125TIP3    H1 6336   0.980   0.514   2.707  2.0886  1.2261  1.1826
 2125TIP3    H2 6337   1.075   0.400   2.739 -0.6018 -1.2153  0.6874
 2126TIP3   OH2 6338   2.500   1.261   4.564 -0.1700  0.2858 -0.0102
 2126TIP3    H1 6339   2.433   1.323   4.538  0.7363  0.5570 -1.7676
 2126TIP3    H2 6340   2.508   1.201   4.490  0.3794 -0.7069  0.8389
 2127TIP3   OH2 6341   0.285   2.530   2.462 -0.4843 -0.4000 -0.1244
 2127TIP3    H1 6342   0.315   2.524   2.372  0.0815  1.2792 -0.0719
 2127TIP3    H2 6343   0.248   2.444   2.482 -1.1845 -0.5826 -2.1491
 2128TIP3   OH2 6344   3.785   1.632   4.955  0.7146  0.0920 -0.3779
 2128TIP3    H1 6345   3.784   1.727   4.964  0.2233  0.1934 -1.4706
 2128TIP3    H2 6346   3.710   1.611   4.899 -1.1708 -1.2471  2.5406
 2129TIP3   OH2 6347   4.225   0.964   6.164 -0.4708 -0.2720  0.3361
 2129TIP3    H1 6348   4.300   1.023   6.148 -0.1186 -1.0076 -0.8017
 2129TIP3    H2 6349   4.170   0.976   6.086 -0.3427 -1.5216  0.0503
 2130TIP3   OH2 6350   2.880   7.229   3.855 -0.0601 -0.6269  0.8166
 2130TIP3    H1 6351   2.952   7.185   3.900 -0.0113 -0.4065  0.9564
 2130TIP3    H2 6352   2.804   7.173   3.873 -0.0556 -0.5050  1.2387
 2131TIP3   OH2 6353   5.228   1.189   2.007 -0.0791  0.7813  0.3725
 2131TIP3    H1 6354   5.295   1.124   2.027 -0.6880 -0.1840 -0.6477
 2131TIP3    H2 6355   5.254   1.267   2.057  1.9505  0.5220 -0.2366
 2132TIP3   OH2 6356   4.498   1.109   1.980 -0.2847 -0.1526  0.4987
 2132TIP3    H1 6357   4.422   1.166   1.992  0.9131  1.4060  0.9284
 2132TIP3    H2 6358   4.505   1.096   1.886 -2.1554 -1.8376  0.5597
 2133TIP3   OH2 6359   7.024   4.492   1.366  0.1371  0.3339  0.0297
 2133TIP3    H1 6360   7.025   4.470   1.273  0.4101  1.1551 -0.1637
 2133TIP3    H2 6361   7.049   4.411   1.411  0.6311  0.1187 -0.6425
 2134TIP3   OH2 6362   7.608   3.533   4.014  0.7093 -0.1624  0.5377
 2134TIP3    H1 6363   7.519   3.562   3.993  1.3261  0.6265 -1.0307
 2134TIP3    H2 6364   7.634   3.587   4.088  0.4602  0.6832  0.0088
 2135TIP3   OH2 6365   7.173   2.951   4.274  0.0112 -0.2045 -0.1012
 2135TIP3    H1 6366   7.225   2.884   4.318 -1.7077 -1.4270  0.1448
 2135TIP3    H2 6367   7.147   3.011   4.344  0.1874 -0.2020 -0.0384
 2136TIP3   OH2 6368   7.458   2.908   3.418  0.6056  0.1732 -0.3458
 2136TIP3    H1 6369   7.528   2.888   3.480 -1.0672  1.1218  1.9418
 2136TIP3    H2 6370   7.418   2.988   3.452  0.3194  1.3660 -3.2984
 2137TIP3   OH2 6371   4.013   3.003   1.582 -0.3896  0.2032  0.2081
 2137TIP3    H1 6372   3.973   2.935   1.528  1.5094  0.2339 -1.3006
 2137TIP3    H2 6373   3.958   3.081   1.566 -1.1476 -0.3567  0.0561
 2138TIP3   OH2 6374   4.338   0.531   5.016  0.7479 -0.0572  0.5038
 2138TIP3    H1 6375   4.323   0.625   5.005  0.8439  0.0933  1.5672
 2138TIP3    H2 6376   4.259   0.500   5.061  0.4619 -0.5920 -0.3738
 2139TIP3   OH2 6377   0.522   1.197   3.947 -0.2755  0.1861 -0.4654
 2139TIP3    H1 6378   0.534   1.107   3.977 -1.1330  0.0393 -0.5587
 2139TIP3    H2 6379   0.610   1.226   3.923  0.2984  0.0288  1.4099
 2140TIP3   OH2 6380   0.145   0.936   3.711 -0.7731 -0.7938 -0.4828
 2140TIP3    H1 6381   0.135   0.949   3.805 -0.7358 -0.7746 -0.4819
 2140TIP3    H2 6382   0.239   0.946   3.695 -0.8138 -0.5438 -0.5630
 2141TIP3   OH2 6383   4.103   0.816   2.587 -0.2775  0.5091 -0.3436
 2141TIP3    H1 6384   4.149   0.732   2.590  0.7321  1.0559  0.0350
 2141TIP3    H2 6385   4.063   0.825   2.674 -1.6114 -0.2506 -0.8857
 2142TIP3   OH2 6386   6.737   2.402   3.052  0.2733 -0.0208 -0.0211
 2142TIP3    H1 6387   6.773   2.337   2.991  0.5412 -0.8035  0.9453
 2142TIP3    H2 6388   6.731   2.482   3.001 -0.4524 -0.9108 -1.3664
 2143TIP3   OH2 6389   7.029   3.345   4.537 -0.1290 -0.2133  0.1535
 2143TIP3    H1 6390   7.048   3.434   4.509 -1.0764 -0.2667 -0.7243
 2143TIP3    H2 6391   7.106   3.317   4.585  0.6547  0.6711 -0.5771
 2144TIP3   OH2 6392   5.248   0.750   1.843  0.5490  0.3263  0.0820
 2144TIP3    H1 6393   5.207   0.665   1.825  1.5034  0.4146 -2.8120
 2144TIP3    H2 6394   5.217   0.806   1.771  2.1698  1.6253  0.3898
 2145TIP3   OH2 6395   4.329   1.482   1.901 -0.1768  0.4916  0.6642
 2145TIP3    H1 6396   4.411   1.434   1.896  0.2135  1.2423 -0.2615
 2145TIP3    H2 6397   4.261   1.415   1.894  0.3628  0.1251 -1.2769
 2146TIP3   OH2 6398   0.534   2.666   2.013  0.2950  0.6519  0.0433
 2146TIP3    H1 6399   0.443   2.693   2.022 -0.4664 -1.7150 -0.0055
 2146TIP3    H2 6400   0.585   2.742   2.040 -1.6720  2.3118 -0.8020
 2147TIP3   OH2 6401   5.353   0.273   4.135  0.2146 -0.1918 -0.1712
 2147TIP3    H1 6402   5.260   0.288   4.117  0.0661 -0.6679  0.2087
 2147TIP3    H2 6403   5.385   0.227   4.057  0.0004 -0.5536 -0.0433
 2148TIP3   OH2 6404   0.307   3.115   5.556 -0.0440 -0.7058  0.3328
 2148TIP3    H1 6405   0.350   3.044   5.510 -1.4546 -1.5740  0.3264
 2148TIP3    H2 6406   0.377   3.177   5.575  1.1391 -1.9290  0.0400
 2149TIP3   OH2 6407   7.242   0.570   3.285  0.4910  0.0687  0.0410
 2149TIP3    H1 6408   7.332   0.602   3.285  0.1032  1.1885  1.7641
 2149TIP3    H2 6409   7.246   0.485   3.329  0.2921  1.3852  2.6712
 2150TIP3   OH2 6410   2.090   1.886   2.713  0.0050 -0.0588 -0.1706
 2150TIP3    H1 6411   2.120   1.891   2.622  0.2129 -1.8317 -0.2185
 2150TIP3    H2 6412   2.128   1.962   2.755 -0.5554  1.0973 -1.6947
 2151TIP3   OH2 6413   2.629   1.282   2.641  0.2974 -0.7363 -0.2558
 2151TIP3    H1 6414   2.652   1.268   2.550 -1.3185 -3.0007 -0.3718
 2151TIP3    H2 6415   2.544   1.326   2.638  0.4743 -0.3709  0.1326
 2152TIP3   OH2 6416   1.100   0.792   1.951 -0.0801  0.1090  0.0195
 2152TIP3    H1 6417   1.122   0.735   1.878  0.7629  0.5712 -0.0977
 2152TIP3    H2 6418   1.076   0.732   2.022 -0.6864 -0.3453 -0.5669
 2153TIP3   OH2 6419   2.977   2.086   4.083  0.2969  0.3789  0.4600
 2153TIP3    H1 6420   2.939   2.056   4.165  0.5790 -0.3221  0.3340
 2153TIP3    H2 6421   3.065   2.050   4.082 -0.2371 -0.9635 -0.8689
 2154TIP3   OH2 6422   7.084   1.326   3.209 -0.5429  0.4708 -0.1242
 2154TIP3    H1 6423   6.992   1.307   3.192 -0.5551  0.7628 -0.3977
 2154TIP3    H2 6424   7.113   1.255   3.266 -0.1247 -1.3888 -2.5329
 2155TIP3   OH2 6425   7.604   2.652   4.189  0.5138  0.0955  0.1433
 2155TIP3    H1 6426   7.685   2.612   4.222  1.2074  1.9249  0.7190
 2155TIP3    H2 6427   7.605   2.741   4.225 -1.6949  0.1774  0.0366
 2156TIP3   OH2 6428   1.488   3.747   3.116  0.1662 -0.3753  0.0073
 2156TIP3    H1 6429   1.514   3.739   3.025 -0.6313 -1.9463 -0.0892
 2156TIP3    H2 6430   1.499   3.840   3.136  0.9176 -0.1354 -1.5058
 2157TIP3   OH2 6431   3.354   2.381   4.744  0.3940  0.0774  0.2007
 2157TIP3    H1 6432   3.301   2.382   4.824 -2.8922  0.1444 -1.8643
 2157TIP3    H2 6433   3.351   2.290   4.714 -0.2307  0.4589 -0.9494
 2158TIP3   OH2 6434   2.512   0.772   3.134  0.3666 -0.7865  0.0115
 2158TIP3    H1 6435   2.515   0.834   3.207 -2.0334 -1.5027  0.7570
 2158TIP3    H2 6436   2.557   0.817   3.063  0.1527  1.1284  1.0414
 2159TIP3   OH2 6437   1.133   3.212   5.087  0.5500 -0.0047 -0.2820
 2159TIP3    H1 6438   1.119   3.306   5.097  0.2528 -0.0737 -0.0534
 2159TIP3    H2 6439   1.196   3.205   5.016 -0.2493  0.3130 -1.0249
 2160TIP3   OH2 6440   1.776   0.114   4.148  0.7404  0.2429 -0.3251
 2160TIP3    H1 6441   1.802   0.194   4.195  1.0285  0.0939 -0.2305
 2160TIP3    H2 6442   1.722   0.066   4.211  0.1610  0.5885 -0.5486
 2161TIP3   OH2 6443   6.274   7.219   1.278 -0.0391 -0.1456 -0.4235
 2161TIP3    H1 6444   6.273   7.289   1.213  0.4410  0.4691  0.2119
 2161TIP3    H2 6445   6.366   7.209   1.301 -0.2387 -0.0837  0.4396
 2162TIP3   OH2 6446   0.179   0.628   5.158 -0.1286  0.3469 -0.1653
 2162TIP3    H1 6447   0.179   0.652   5.066  0.9279 -0.2338 -0.3174
 2162TIP3    H2 6448   0.089   0.645   5.187 -1.1696 -1.9130 -1.9357
 2163TIP3   OH2 6449   7.500   6.176   0.629 -0.0877 -0.5211  0.5176
 2163TIP3    H1 6450   7.409   6.204   0.636  0.4613  1.2965  0.7879
 2163TIP3    H2 6451   7.527   6.161   0.719  0.1468 -0.1303  0.5151
 2164TIP3   OH2 6452   3.562   2.728   3.900 -0.0691  0.2320  0.4002
 2164TIP3    H1 6453   3.546   2.799   3.838 -0.1796 -0.9617 -0.9709
 2164TIP3    H2 6454   3.515   2.753   3.979 -0.6206  1.3787 -0.2903
 2165TIP3   OH2 6455   3.321   2.336   0.760 -0.6293 -0.0522 -0.3158
 2165TIP3    H1 6456   3.344   2.309   0.671 -0.0446  0.7316 -0.4151
 2165TIP3    H2 6457   3.245   2.392   0.749 -0.5873  0.0045 -0.3149
 2166TIP3   OH2 6458   0.429   0.665   3.281 -0.6919 -0.0394  0.2266
 2166TIP3    H1 6459   0.479   0.621   3.349  2.3840 -0.4846 -2.2397
 2166TIP3    H2 6460   0.374   0.596   3.242  0.7376 -0.7402 -0.5816
 2167TIP3   OH2 6461   0.692   0.737   2.910  0.2907 -0.3123 -0.4721
 2167TIP3    H1 6462   0.748   0.675   2.959  0.9255  0.2010 -0.5371
 2167TIP3    H2 6463   0.610   0.739   2.959  0.9155  0.1876  0.5825
 2168TIP3   OH2 6464   1.354   2.163   4.109  0.3017  0.4529  0.1810
 2168TIP3    H1 6465   1.294   2.089   4.094 -0.3515  1.0310 -0.0952
 2168TIP3    H2 6466   1.319   2.206   4.187 -0.1347  1.2732 -0.4592
 2169TIP3   OH2 6467   1.777   0.585   3.715  0.7104  0.3191 -0.1100
 2169TIP3    H1 6468   1.764   0.620   3.626  0.2000 -0.4667 -0.3610
 2169TIP3    H2 6469   1.689   0.587   3.754  0.9459  0.7116  0.3916
 2170TIP3   OH2 6470   7.672   1.601   1.057 -0.1379  0.0847  0.0151
 2170TIP3    H1 6471   7.614   1.574   1.128  0.1051 -1.5660 -0.3979
 2170TIP3    H2 6472   7.637   1.557   0.979 -0.0074  1.3514 -0.7803
 2171TIP3   OH2 6473   0.841   1.670   4.120 -0.3118 -0.7353 -0.1591
 2171TIP3    H1 6474   0.851   1.626   4.204 -1.1297 -0.7414 -0.0708
 2171TIP3    H2 6475   0.822   1.761   4.142  2.5903 -0.0157 -0.3325
 2172TIP3   OH2 6476   6.035   7.136   6.006  0.1825 -0.3520 -0.4159
 2172TIP3    H1 6477   6.091   7.196   5.956 -0.8006  1.7086  0.8798
 2172TIP3    H2 6478   5.984   7.090   5.939  1.9344 -0.7728 -1.4948
 2173TIP3   OH2 6479   1.235   6.766   2.957  0.2277  0.6677 -0.5409
 2173TIP3    H1 6480   1.168   6.831   2.937  1.2087  2.4573  1.7399
 2173TIP3    H2 6481   1.190   6.682   2.948 -1.3585  1.6829 -2.4555
 2174TIP3   OH2 6482   3.984   1.009   3.580 -0.1722  0.5784  0.4682
 2174TIP3    H1 6483   4.040   0.946   3.626  0.3425  0.4903 -0.2690
 2174TIP3    H2 6484   4.028   1.093   3.593  1.4598  0.1804 -2.1252
 2175TIP3   OH2 6485   3.544   1.453   1.727  0.6889  0.1671  0.1021
 2175TIP3    H1 6486   3.482   1.397   1.679  0.1027  0.1111  0.9225
 2175TIP3    H2 6487   3.492   1.493   1.796  1.0929  1.8000 -0.5114
 2176TIP3   OH2 6488   0.868   2.418   4.325  0.5197  0.2208  0.0015
 2176TIP3    H1 6489   0.881   2.484   4.393 -1.0230  1.1323 -0.5693
 2176TIP3    H2 6490   0.872   2.335   4.372 -1.2167  0.8652  1.3388
 2177TIP3   OH2 6491   0.113   1.745   1.509 -0.3247  0.4114 -0.6224
 2177TIP3    H1 6492   0.057   1.822   1.503 -0.6506  0.1324 -1.1270
 2177TIP3    H2 6493   0.092   1.708   1.595  0.8781  1.6893  0.2413
 2178TIP3   OH2 6494   3.672   1.657   3.609  0.1018  0.3377 -0.0587
 2178TIP3    H1 6495   3.631   1.582   3.654 -1.4369  0.9969 -0.3375
 2178TIP3    H2 6496   3.762   1.629   3.594 -0.4391 -1.4460 -0.0971
 2179TIP3   OH2 6497   3.780   2.566   3.982 -0.2633 -0.4344  0.1230
 2179TIP3    H1 6498   3.708   2.626   3.962 -1.3411 -1.9501 -0.6093
 2179TIP3    H2 6499   3.742   2.503   4.043  0.6617 -0.8267  0.3065
 2180TIP3   OH2 6500   3.962   1.217   2.376  0.0417  0.7592 -0.1514
 2180TIP3    H1 6501   3.898   1.211   2.305  1.6509 -0.5679 -1.5017
 2180TIP3    H2 6502   4.019   1.141   2.364  1.4089  1.4925  1.5096
 2181TIP3   OH2 6503   2.401   3.303   2.926 -0.1295 -0.3472  0.4016
 2181TIP3    H1 6504   2.398   3.223   2.874  1.4159  0.3717 -0.8513
 2181TIP3    H2 6505   2.471   3.287   2.990  0.5198  0.1705 -0.1685
 2182TIP3   OH2 6506   2.419   1.082   2.534  0.7893  0.2596  0.5510
 2182TIP3    H1 6507   2.432   1.020   2.606  1.2776 -0.3103 -0.0116
 2182TIP3    H2 6508   2.496   1.069   2.478 -0.5395 -0.7258 -1.1104
 2183TIP3   OH2 6509   1.095   0.189   1.509 -0.0333 -0.6027  0.0438
 2183TIP3    H1 6510   1.054   0.239   1.580  4.0087  0.1094  2.0701
 2183TIP3    H2 6511   1.079   0.098   1.532  2.4479 -0.4216  2.7760
 2184TIP3   OH2 6512   6.360   0.570   0.589 -0.2494 -0.1531 -0.0266
 2184TIP3    H1 6513   6.312   0.550   0.669 -0.5168  0.6848  0.0315
 2184TIP3    H2 6514   6.436   0.619   0.618 -0.5412  0.4785 -0.3116
 2185TIP3   OH2 6515   2.720   3.555   3.741 -0.3790  0.0486 -0.2442
 2185TIP3    H1 6516   2.798   3.587   3.696 -1.1589  1.8698 -0.3261
 2185TIP3    H2 6517   2.754   3.513   3.820  0.7703 -0.4509 -0.9756
 2186TIP3   OH2 6518   1.411   1.556   3.000 -0.6693 -0.4404  0.2004
 2186TIP3    H1 6519   1.429   1.511   2.917  0.9665 -0.0649  0.3389
 2186TIP3    H2 6520   1.327   1.521   3.028 -1.0483 -0.8812 -1.4191
 2187TIP3   OH2 6521   1.268   2.685   3.333 -0.1173  0.5896  0.3259
 2187TIP3    H1 6522   1.278   2.780   3.344  0.8529  0.6534 -0.9483
 2187TIP3    H2 6523   1.332   2.662   3.265 -0.5817 -0.9270  0.3817
 2188TIP3   OH2 6524   1.515   0.670   4.668  0.5582 -0.5021 -0.6074
 2188TIP3    H1 6525   1.545   0.668   4.759  1.9145 -0.9436 -1.0500
 2188TIP3    H2 6526   1.544   0.755   4.636  0.0864 -0.3506 -0.6228
 2189TIP3   OH2 6527   1.178   1.059   2.855 -0.4178  0.1681  0.3778
 2189TIP3    H1 6528   1.091   1.075   2.816 -0.9707 -1.4259  0.9103
 2189TIP3    H2 6529   1.239   1.103   2.796 -1.6305  1.7613  0.2869
 2190TIP3   OH2 6530   0.809   3.647   4.582 -0.1720 -0.1496  0.3093
 2190TIP3    H1 6531   0.893   3.660   4.539  0.4897 -0.7044  1.3963
 2190TIP3    H2 6532   0.773   3.569   4.541 -0.3248  0.3008 -0.4133
 2191TIP3   OH2 6533   2.387   0.282   3.199  0.3822  0.1013  0.5314
 2191TIP3    H1 6534   2.351   0.343   3.264 -0.3219  0.7437 -0.4354
 2191TIP3    H2 6535   2.336   0.202   3.210 -0.0880  0.3841  0.4309
 2192TIP3   OH2 6536   2.374   1.332   3.738 -0.6347 -0.3080 -0.3340
 2192TIP3    H1 6537   2.325   1.255   3.766 -0.6977 -0.5024 -0.9692
 2192TIP3    H2 6538   2.318   1.406   3.764 -0.5708 -0.4726  0.2802
 2193TIP3   OH2 6539   3.725   3.674   5.618  0.0358  0.3501 -0.1884
 2193TIP3    H1 6540   3.737   3.670   5.712 -1.7883 -0.5591  0.0370
 2193TIP3    H2 6541   3.724   3.582   5.590 -0.6987  0.5596 -0.8890
 2194TIP3   OH2 6542   2.467   2.358   4.122 -0.4287  0.7732 -0.0544
 2194TIP3    H1 6543   2.406   2.414   4.074 -0.8915  0.3568  0.0433
 2194TIP3    H2 6544   2.433   2.356   4.212 -1.9494 -1.7607 -0.6108
 2195TIP3   OH2 6545   7.531   3.713   4.226 -0.3097  0.5518 -0.3027
 2195TIP3    H1 6546   7.591   3.775   4.183 -0.6446  1.2582  0.2354
 2195TIP3    H2 6547   7.541   3.731   4.319 -1.6837  0.9834 -0.2333
 2196TIP3   OH2 6548   2.218   5.228   4.270 -0.4515  0.1249 -0.8109
 2196TIP3    H1 6549   2.162   5.259   4.198 -3.0931  0.9749  1.5500
 2196TIP3    H2 6550   2.228   5.303   4.327  0.1645 -1.0463  0.6488
 2197TIP3   OH2 6551   3.146   2.278   3.835 -0.3394  0.2779 -0.2682
 2197TIP3    H1 6552   3.081   2.336   3.796 -0.8580  0.8525  1.4182
 2197TIP3    H2 6553   3.228   2.328   3.831 -0.4494  0.4505 -0.3541
 2198TIP3   OH2 6554   0.314   3.005   2.624  0.7469 -0.4378 -0.1514
 2198TIP3    H1 6555   0.298   2.911   2.634 -3.3152  0.0615 -1.1380
 2198TIP3    H2 6556   0.325   3.037   2.714 -1.4418 -1.3265  0.4570
 2199TIP3   OH2 6557   0.362   2.721   4.644 -0.1265 -0.5861 -0.5206
 2199TIP3    H1 6558   0.444   2.749   4.604  0.5767 -2.4739 -0.4364
 2199TIP3    H2 6559   0.319   2.803   4.670  1.3842  0.4501 -1.2168
 2200TIP3   OH2 6560   7.267   3.660   4.235 -0.3539  0.1038 -0.0081
 2200TIP3    H1 6561   7.245   3.581   4.187  0.2074  1.0364 -1.8351
 2200TIP3    H2 6562   7.359   3.677   4.215 -0.9083  2.1357 -1.0192
 2201TIP3   OH2 6563   3.495   0.749   3.674  0.0856 -0.1199  0.4671
 2201TIP3    H1 6564   3.538   0.821   3.629  0.1768 -1.1144 -1.0822
 2201TIP3    H2 6565   3.401   0.767   3.663  0.1087  0.0217  0.5014
 2202TIP3   OH2 6566   0.333   1.750   3.523  0.0424 -0.0449 -0.1398
 2202TIP3    H1 6567   0.372   1.668   3.491  0.7000 -0.6151  2.0372
 2202TIP3    H2 6568   0.406   1.798   3.561 -0.7355  0.5289  0.6583
 2203TIP3   OH2 6569   1.050   2.858   2.612 -0.1198 -0.0735  0.0926
 2203TIP3    H1 6570   0.970   2.811   2.635 -1.5130  2.3541  0.3519
 2203TIP3    H2 6571   1.090   2.881   2.696 -0.5929  1.0816  0.0136
 2204TIP3   OH2 6572   0.666   0.314   3.710  0.4795 -0.0462 -0.1202
 2204TIP3    H1 6573   0.716   0.237   3.683  0.6246 -0.9736  2.6890
 2204TIP3    H2 6574   0.713   0.348   3.786 -0.8591  1.5166  0.0380
 2205TIP3   OH2 6575   3.929   7.072   4.687  0.5599  0.0635 -0.1873
 2205TIP3    H1 6576   3.915   6.987   4.645  3.1618 -0.8973  0.7825
 2205TIP3    H2 6577   3.973   7.124   4.620 -1.2839  0.7417 -0.8743
 2206TIP3   OH2 6578   0.136   0.771   3.077  0.4190 -0.3395  0.4144
 2206TIP3    H1 6579   0.097   0.829   3.142 -0.4697 -0.8837  0.3640
 2206TIP3    H2 6580   0.163   0.829   3.006 -0.2203  0.0449  0.4838
 2207TIP3   OH2 6581   3.171   1.185   1.715 -0.0403 -0.5032  0.5939
 2207TIP3    H1 6582   3.121   1.111   1.747 -0.1734  0.5162  2.7822
 2207TIP3    H2 6583   3.105   1.250   1.688  0.0835 -0.2696  0.8476
 2208TIP3   OH2 6584   7.431   6.396   2.174  0.4109  0.0869 -0.1481
 2208TIP3    H1 6585   7.411   6.331   2.241 -0.4518  0.6043  0.0978
 2208TIP3    H2 6586   7.514   6.366   2.136  0.7270 -0.4065  0.8996
 2209TIP3   OH2 6587   7.027   2.927   1.844  0.0254  0.0135  0.3027
 2209TIP3    H1 6588   6.989   2.974   1.770  1.3407 -0.2148 -0.5427
 2209TIP3    H2 6589   7.119   2.955   1.845  0.8437 -2.4988 -0.2132
 2210TIP3   OH2 6590   1.566   7.205   3.007 -0.3203 -0.0220 -0.0931
 2210TIP3    H1 6591   1.625   7.179   2.937  0.0631 -0.9351  0.5675
 2210TIP3    H2 6592   1.584   7.298   3.020 -0.5824  0.2216 -1.3816
 2211TIP3   OH2 6593   2.089   1.924   3.336 -0.2252 -0.0665  0.0336
 2211TIP3    H1 6594   2.137   1.966   3.266  0.3563  0.9816  1.0448
 2211TIP3    H2 6595   2.022   1.871   3.292  1.1420 -0.6637 -1.3399
 2212TIP3   OH2 6596   1.407   1.770   2.752  0.8535  0.4703  0.3390
 2212TIP3    H1 6597   1.458   1.818   2.818  0.1921  2.6178 -0.6784
 2212TIP3    H2 6598   1.454   1.784   2.670  1.5550 -2.0245  0.2606
 2213TIP3   OH2 6599   3.457   0.675   2.768  0.4301  0.1685 -0.2060
 2213TIP3    H1 6600   3.502   0.621   2.833  0.8208 -0.2444 -0.8181
 2213TIP3    H2 6601   3.364   0.653   2.779  0.5339 -0.2128 -0.0703
 2214TIP3   OH2 6602   0.446   2.347   5.021  0.3413  0.3115  0.2290
 2214TIP3    H1 6603   0.517   2.285   5.003 -1.3138 -1.4452 -0.4652
 2214TIP3    H2 6604   0.420   2.329   5.112  0.0111  0.1095  0.0988
 2215TIP3   OH2 6605   7.691   6.341   3.991 -0.4504  0.6402 -0.2656
 2215TIP3    H1 6606   7.781   6.372   3.979 -0.9572  3.2626  2.2078
 2215TIP3    H2 6607   7.699   6.271   4.057 -0.0910  0.0975 -0.8838
 2216TIP3   OH2 6608   2.737   3.340   5.513 -0.6350 -0.1769  0.3678
 2216TIP3    H1 6609   2.780   3.407   5.567 -1.6967 -0.0785  1.0909
 2216TIP3    H2 6610   2.804   3.272   5.503  0.7322  1.3276 -1.0405
 2217TIP3   OH2 6611   1.539   4.331   6.363  0.7339 -0.2179 -0.5551
 2217TIP3    H1 6612   1.506   4.277   6.291 -1.6676 -0.6175  0.7976
 2217TIP3    H2 6613   1.603   4.275   6.407  0.8246 -0.6695 -1.2472
 2218TIP3   OH2 6614   7.418   2.159   4.314 -0.5432  0.1422  0.0472
 2218TIP3    H1 6615   7.397   2.095   4.382 -1.1331  0.2632 -0.0192
 2218TIP3    H2 6616   7.356   2.231   4.328 -1.1285 -0.1402 -1.0471
 2219TIP3   OH2 6617   1.163   1.475   5.512  0.5052  0.1493  0.2629
 2219TIP3    H1 6618   1.156   1.416   5.436  0.2103  0.1313  0.3043
 2219TIP3    H2 6619   1.177   1.416   5.586  1.3436  0.2006  0.1466
 2220TIP3   OH2 6620   2.662   2.056   4.521  0.1779  0.1442  0.3284
 2220TIP3    H1 6621   2.596   2.007   4.570 -0.7243  0.4001 -0.6097
 2220TIP3    H2 6622   2.669   2.140   4.567 -0.8047  0.4570 -0.0715
 2221TIP3   OH2 6623   1.368   1.171   2.691  0.2020 -0.0977 -0.3969
 2221TIP3    H1 6624   1.396   1.262   2.681  2.7534 -0.4991  2.3197
 2221TIP3    H2 6625   1.434   1.121   2.643 -0.5288 -0.5895 -0.8835
 2222TIP3   OH2 6626   2.333   4.936   3.381 -0.4699  0.0522 -0.2944
 2222TIP3    H1 6627   2.256   4.987   3.406  0.3238  0.2128  1.9359
 2222TIP3    H2 6628   2.398   5.002   3.355 -0.4316  0.0395 -0.2328
 2223TIP3   OH2 6629   2.518   6.648   3.662  0.4444  0.1595  0.2157
 2223TIP3    H1 6630   2.579   6.710   3.703 -0.7653  1.0838  0.6363
 2223TIP3    H2 6631   2.499   6.686   3.576 -0.6279  0.6109  0.6404
 2224TIP3   OH2 6632   2.509   3.136   4.952 -0.2786 -0.2989  0.7661
 2224TIP3    H1 6633   2.421   3.100   4.940 -0.0549 -0.3376 -0.7788
 2224TIP3    H2 6634   2.567   3.075   4.907  0.1898  1.4848 -1.1580
 2225TIP3   OH2 6635   5.742   6.770   4.271  0.0449  0.7902  0.5434
 2225TIP3    H1 6636   5.698   6.688   4.293 -0.7681  0.9831 -0.3258
 2225TIP3    H2 6637   5.706   6.794   4.185  1.8365  0.9602 -0.1713
 2226TIP3   OH2 6638   0.408   1.339   3.560 -0.0581 -0.1317 -0.5484
 2226TIP3    H1 6639   0.356   1.276   3.510 -2.2718  0.7776  0.5486
 2226TIP3    H2 6640   0.425   1.410   3.498 -0.4901 -0.2406 -0.7955
 2227TIP3   OH2 6641   1.934   1.821   3.108  0.7564 -0.0778 -0.1133
 2227TIP3    H1 6642   1.993   1.896   3.108 -0.0491  0.5876  1.5242
 2227TIP3    H2 6643   1.850   1.856   3.078  0.5360 -0.4436  0.0665
 2228TIP3   OH2 6644   1.048   1.883   4.323 -0.1482 -0.1948  0.5741
 2228TIP3    H1 6645   1.108   1.911   4.393 -0.4542 -0.6259  1.0094
 2228TIP3    H2 6646   0.962   1.884   4.364 -0.2737 -0.8831  0.3305
 2229TIP3   OH2 6647   0.963   0.616   3.511 -0.1885  0.1543  0.3175
 2229TIP3    H1 6648   1.043   0.629   3.461  0.3793 -0.7937  0.9844
 2229TIP3    H2 6649   0.901   0.678   3.472  0.9375  1.0928 -0.0108
 2230TIP3   OH2 6650   7.627   2.115   0.413 -0.3156  0.3215 -0.1775
 2230TIP3    H1 6651   7.719   2.101   0.434  0.0230  0.5397 -1.5182
 2230TIP3    H2 6652   7.627   2.175   0.339 -1.5625  0.9060  0.2803
 2231TIP3   OH2 6653   5.736   6.874   2.328 -0.1342  0.6783 -0.0844
 2231TIP3    H1 6654   5.659   6.820   2.347 -1.1145  1.6642 -1.2350
 2231TIP3    H2 6655   5.719   6.957   2.372  1.5340 -0.0099  1.9855
 2232TIP3   OH2 6656   1.789   1.461   3.436 -0.4489 -0.3284 -0.5019
 2232TIP3    H1 6657   1.850   1.520   3.391  0.3077  0.1674  1.1393
 2232TIP3    H2 6658   1.835   1.377   3.439 -0.2962 -0.2392 -0.2628
 2233TIP3   OH2 6659   1.459   3.581   2.192 -0.4058 -0.1263 -0.0618
 2233TIP3    H1 6660   1.366   3.565   2.174 -0.4199 -0.8437  0.6225
 2233TIP3    H2 6661   1.463   3.674   2.217 -1.4788 -0.8673  3.1609
 2234TIP3   OH2 6662   2.785   1.108   3.225  0.3567  0.1186  0.3368
 2234TIP3    H1 6663   2.754   1.140   3.309  1.0691 -0.5393  0.8540
 2234TIP3    H2 6664   2.880   1.117   3.229  0.3624  0.5852 -0.6020
 2235TIP3   OH2 6665   2.061   2.601   2.799  0.1917  0.1554 -0.3711
 2235TIP3    H1 6666   2.087   2.561   2.716  0.2028 -1.3167  0.3241
 2235TIP3    H2 6667   2.098   2.689   2.796 -1.6369  0.9094 -2.8544
 2236TIP3   OH2 6668   0.746   1.768   2.735 -0.1172 -0.1571  0.0352
 2236TIP3    H1 6669   0.820   1.710   2.751  0.5839  0.6747 -0.1238
 2236TIP3    H2 6670   0.719   1.797   2.822  1.5599  1.7397 -0.0234
 2237TIP3   OH2 6671   1.627   1.474   1.865  0.0311  0.3237  0.2813
 2237TIP3    H1 6672   1.595   1.395   1.909  0.7042 -1.9327 -3.1095
 2237TIP3    H2 6673   1.711   1.492   1.906 -0.1102 -0.7339  1.0640
 2238TIP3   OH2 6674   5.735   1.822   2.497 -0.2560  0.3895  0.0062
 2238TIP3    H1 6675   5.792   1.772   2.556 -0.5652 -0.0204 -0.0500
 2238TIP3    H2 6676   5.704   1.758   2.433  0.5232  0.9379 -0.9449
 2239TIP3   OH2 6677   2.538   4.219   3.342 -0.3353  0.0891 -0.2113
 2239TIP3    H1 6678   2.583   4.149   3.294  2.6800  1.4590  0.4961
 2239TIP3    H2 6679   2.491   4.174   3.412  0.8375 -1.3358 -0.3083
 2240TIP3   OH2 6680   7.007   7.327   3.647 -0.2584 -0.1286 -0.1725
 2240TIP3    H1 6681   7.079   7.328   3.710 -1.5411  0.7626  1.3200
 2240TIP3    H2 6682   6.955   7.250   3.671  0.4444 -1.0657 -1.5678
 2241TIP3   OH2 6683   0.910   3.742   4.823  0.1953  0.0462  0.1540
 2241TIP3    H1 6684   0.987   3.688   4.840 -0.6679 -0.8282  1.3179
 2241TIP3    H2 6685   0.870   3.704   4.745  0.1319 -0.3954  0.4038
 2242TIP3   OH2 6686   1.961   2.664   3.481 -0.3438 -0.2354 -0.0358
 2242TIP3    H1 6687   1.924   2.721   3.548  0.7783 -0.0960  0.4686
 2242TIP3    H2 6688   1.898   2.667   3.409 -0.1309  1.9126 -0.1639
 2243TIP3   OH2 6689   3.023   0.878   3.962 -0.1648 -0.2347 -0.6314
 2243TIP3    H1 6690   3.047   0.801   3.910 -0.8559 -0.3171 -0.8317
 2243TIP3    H2 6691   2.953   0.848   4.020  0.9212 -0.2655  0.7010
 2244TIP3   OH2 6692   6.604   3.127   4.381  0.6155 -0.0800  0.2036
 2244TIP3    H1 6693   6.645   3.180   4.449  3.2803 -1.9501  0.1706
 2244TIP3    H2 6694   6.666   3.130   4.308 -1.0769 -0.0395 -1.2642
 2245TIP3   OH2 6695   0.855   3.586   1.065 -0.2896  0.0275 -0.0728
 2245TIP3    H1 6696   0.780   3.528   1.080 -2.3146  2.7554  0.6748
 2245TIP3    H2 6697   0.839   3.623   0.978 -0.1849  1.1156  0.3647
 2246TIP3   OH2 6698   6.093   6.215   2.303  0.1628 -0.1254 -0.3512
 2246TIP3    H1 6699   6.001   6.191   2.301 -0.0248  0.6277 -2.1201
 2246TIP3    H2 6700   6.130   6.165   2.376 -1.8568  0.4180  1.0667
 2247TIP3   OH2 6701   0.756   6.853   1.564 -0.1834 -0.7800  0.2671
 2247TIP3    H1 6702   0.715   6.935   1.588  0.8557  0.6192 -2.5030
 2247TIP3    H2 6703   0.725   6.835   1.475  1.9699 -1.7472 -0.3438
 2248TIP3   OH2 6704   6.263   6.306   3.753  0.1957  0.0033  0.0560
 2248TIP3    H1 6705   6.213   6.387   3.762 -1.1649 -0.7205 -0.7680
 2248TIP3    H2 6706   6.270   6.292   3.659  0.2527 -0.9247  0.1869
 2249TIP3   OH2 6707   0.722   1.899   2.260 -0.7591  0.4763 -0.2529
 2249TIP3    H1 6708   0.787   1.882   2.327 -1.2696 -3.9358 -0.7080
 2249TIP3    H2 6709   0.763   1.869   2.179 -2.2626  0.3419 -0.9848
 2250TIP3   OH2 6710   7.608   0.725   3.160  0.2644  1.0240  0.0609
 2250TIP3    H1 6711   7.637   0.640   3.190  0.0751  0.9955  0.1636
 2250TIP3    H2 6712   7.554   0.759   3.231 -0.1890  0.9511 -0.2496
 2251TIP3   OH2 6713   0.165   1.571   4.022  0.3647 -0.4785 -0.0030
 2251TIP3    H1 6714   0.080   1.542   4.055  1.3422 -0.4841  2.6299
 2251TIP3    H2 6715   0.226   1.502   4.049  1.5671  0.6448  0.2220
 2252TIP3   OH2 6716   6.689   2.754   2.458 -0.3445  0.4977 -0.2015
 2252TIP3    H1 6717   6.693   2.674   2.405 -2.8950  0.7791 -0.9060
 2252TIP3    H2 6718   6.726   2.822   2.402  0.2376  0.1223 -0.2713
 2253TIP3   OH2 6719   0.115   4.310   2.887 -0.0360  0.0008  0.0394
 2253TIP3    H1 6720   0.027   4.334   2.919  0.0475  0.0206  0.2559
 2253TIP3    H2 6721   0.118   4.344   2.798 -0.8371 -1.4099 -0.5463
 2254TIP3   OH2 6722   1.259   6.575   3.876  0.7465 -0.2685 -0.1627
 2254TIP3    H1 6723   1.263   6.551   3.969  1.3799 -1.6502 -0.5257
 2254TIP3    H2 6724   1.198   6.512   3.837 -2.3892  2.5853 -0.0534
 2255TIP3   OH2 6725   3.569   1.397   3.006  0.1750  0.4522 -0.1859
 2255TIP3    H1 6726   3.498   1.368   3.063  0.9884 -3.1560 -0.8494
 2255TIP3    H2 6727   3.547   1.361   2.920  1.4653  1.5461 -0.9927
 2256TIP3   OH2 6728   0.416   1.154   3.184  0.6509  0.0075 -0.5507
 2256TIP3    H1 6729   0.353   1.168   3.114 -1.1716 -0.8519  0.8785
 2256TIP3    H2 6730   0.363   1.144   3.263  2.6824  1.7100  1.1062
 2257TIP3   OH2 6731   1.829   3.661   3.575  0.1905 -0.2274  0.6015
 2257TIP3    H1 6732   1.834   3.697   3.664  1.5370  2.8692 -0.6720
 2257TIP3    H2 6733   1.753   3.705   3.536 -0.6805 -1.9237  0.3300
 2258TIP3   OH2 6734   2.315   3.076   3.818  0.0292  0.4447  0.0381
 2258TIP3    H1 6735   2.404   3.109   3.803  0.3768 -1.2195 -1.8490
 2258TIP3    H2 6736   2.326   3.010   3.887  0.3471  0.0042 -0.4208
 2259TIP3   OH2 6737   1.477   1.060   0.424 -0.7262  0.1026  0.0935
 2259TIP3    H1 6738   1.470   1.146   0.465 -1.1142  0.5664 -0.9408
 2259TIP3    H2 6739   1.542   1.014   0.477 -2.8063 -0.0891  2.5913
 2260TIP3   OH2 6740   2.254   2.702   5.929 -0.0669  0.3568 -0.2936
 2260TIP3    H1 6741   2.158   2.707   5.923 -0.0569 -0.9844 -1.8664
 2260TIP3    H2 6742   2.284   2.709   5.838  1.2395 -1.0483  0.0216
 2261TIP3   OH2 6743   2.214   1.154   4.327  0.2794  0.1555  0.3110
 2261TIP3    H1 6744   2.304   1.123   4.339 -0.3334 -1.8731 -0.1781
 2261TIP3    H2 6745   2.190   1.125   4.239 -1.4440 -0.8459  1.0920
 2262TIP3   OH2 6746   0.228   3.100   2.894  0.3614 -0.2202  0.6609
 2262TIP3    H1 6747   0.280   3.180   2.889  1.2544 -0.7940  0.5616
 2262TIP3    H2 6748   0.220   3.082   2.988 -0.7347  0.5561  0.7159
 2263TIP3   OH2 6749   0.092   1.029   1.758  0.5511  0.3269 -0.0160
 2263TIP3    H1 6750   0.080   1.114   1.800  0.2087  1.5677 -2.5402
 2263TIP3    H2 6751   0.046   1.037   1.674  0.5009 -2.3494 -0.2856
 2264TIP3   OH2 6752   2.342   1.464   1.330 -0.3708 -0.4421 -0.1003
 2264TIP3    H1 6753   2.385   1.407   1.266 -0.3308 -1.7629  1.0690
 2264TIP3    H2 6754   2.403   1.467   1.404 -0.1092  1.6037 -0.3621
 2265TIP3   OH2 6755   0.860   0.133   6.351 -0.0559  0.7160 -0.5260
 2265TIP3    H1 6756   0.805   0.057   6.334 -1.5805  1.2880  1.4990
 2265TIP3    H2 6757   0.946   0.097   6.373 -0.3456 -0.3398 -1.1023
 2266TIP3   OH2 6758   1.622   2.990   3.215  0.3015 -0.3837 -0.1459
 2266TIP3    H1 6759   1.643   3.053   3.146  0.3653  0.2284  0.4329
 2266TIP3    H2 6760   1.552   2.936   3.178 -0.6884  0.8799 -0.1325
 2267TIP3   OH2 6761   1.449   1.360   4.851 -0.3935  0.3217  0.4738
 2267TIP3    H1 6762   1.425   1.414   4.927  1.8310  3.1673 -0.7641
 2267TIP3    H2 6763   1.414   1.408   4.776 -1.2912 -1.7256 -0.4382
 2268TIP3   OH2 6764   2.130   2.873   3.399 -0.0937  0.2865  0.0761
 2268TIP3    H1 6765   2.084   2.794   3.370  1.2155  0.2988 -2.1165
 2268TIP3    H2 6766   2.142   2.924   3.319  0.4813  1.9795  1.2235
 2269TIP3   OH2 6767   2.520   1.362   2.127 -0.7684  0.2425 -0.4934
 2269TIP3    H1 6768   2.498   1.450   2.095 -0.8851  0.2300 -0.4504
 2269TIP3    H2 6769   2.526   1.308   2.048  0.9041  0.6307 -0.6578
 2270TIP3   OH2 6770   5.141   7.217   3.464 -0.0435  0.7088 -0.1707
 2270TIP3    H1 6771   5.064   7.253   3.508 -0.2960 -0.3245  0.2449
 2270TIP3    H2 6772   5.213   7.272   3.494 -0.2659  0.2457  1.2786
 2271TIP3   OH2 6773   0.790   1.391   4.848 -0.2225 -0.0290  0.6648
 2271TIP3    H1 6774   0.749   1.323   4.794 -2.3794 -1.0255  3.4187
 2271TIP3    H2 6775   0.724   1.460   4.852  1.3036  1.5610 -0.7410
 2272TIP3   OH2 6776   0.703   4.087   5.390  0.6483 -0.1584 -0.2950
 2272TIP3    H1 6777   0.758   4.102   5.313 -0.4418 -0.8604 -1.2170
 2272TIP3    H2 6778   0.614   4.109   5.361  0.0220 -1.8359  0.3257
 2273TIP3   OH2 6779   0.598   0.494   3.497  0.3801 -0.2620  0.2371
 2273TIP3    H1 6780   0.683   0.480   3.454 -0.3083 -0.8995 -0.9406
 2273TIP3    H2 6781   0.605   0.447   3.580  0.9607 -0.8291 -0.1278
 2274TIP3   OH2 6782   2.390   2.865   3.483  0.1963  0.0062 -0.5299
 2274TIP3    H1 6783   2.413   2.783   3.440  0.8419  0.8640 -1.8635
 2274TIP3    H2 6784   2.295   2.865   3.488  0.2357 -1.4625  0.7970
 2275TIP3   OH2 6785   6.045   0.557   3.393  0.1843 -0.4460  0.3181
 2275TIP3    H1 6786   5.975   0.619   3.372 -0.9443 -1.9590 -0.5402
 2275TIP3    H2 6787   6.120   0.586   3.342 -0.3060  0.2791  0.0124
 2276TIP3   OH2 6788   0.575   2.249   2.525  0.4599  0.3501 -0.1646
 2276TIP3    H1 6789   0.626   2.181   2.569 -1.7302 -0.3414  1.3847
 2276TIP3    H2 6790   0.548   2.209   2.442  1.4851  0.3339 -0.4977
 2277TIP3   OH2 6791   6.668   1.248   3.783 -0.1258  0.1757  0.3072
 2277TIP3    H1 6792   6.607   1.185   3.745  0.8056 -0.7846  0.3854
 2277TIP3    H2 6793   6.618   1.330   3.789 -0.9742 -0.2423 -0.8877
 2278TIP3   OH2 6794   3.020   1.735   3.545 -0.1545  0.5718  0.3126
 2278TIP3    H1 6795   3.059   1.653   3.577  0.2820  1.3397  1.8029
 2278TIP3    H2 6796   2.929   1.712   3.525  0.5904 -0.8376 -1.5681
 2279TIP3   OH2 6797   2.055   1.931   4.021  0.0277 -0.1381  0.0162
 2279TIP3    H1 6798   1.987   1.878   4.063  0.5892 -2.0525 -1.4230
 2279TIP3    H2 6799   2.114   1.956   4.092 -1.6011  0.6819  1.1078
 2280TIP3   OH2 6800   5.788   5.174   5.780 -0.1976  0.1598  0.1318
 2280TIP3    H1 6801   5.820   5.183   5.690 -0.6218  0.2995 -0.0084
 2280TIP3    H2 6802   5.715   5.113   5.774  0.6488 -0.9147  0.5995
 2281TIP3   OH2 6803   2.090   0.184   3.765  0.5429 -0.0350  0.5312
 2281TIP3    H1 6804   2.092   0.141   3.851 -0.9029 -0.0951  0.5432
 2281TIP3    H2 6805   2.017   0.245   3.771  0.7893  0.3596 -0.4740
 2282TIP3   OH2 6806   5.881   6.237   4.484  0.2257 -0.7035  0.1752
 2282TIP3    H1 6807   5.871   6.270   4.395  0.3901  0.9944  0.7652
 2282TIP3    H2 6808   5.833   6.299   4.538  0.4093 -1.5348  1.3134
 2283TIP3   OH2 6809   6.533   2.939   2.583 -0.5731 -0.3165 -0.2358
 2283TIP3    H1 6810   6.577   2.863   2.544 -0.1436 -0.4633  0.5368
 2283TIP3    H2 6811   6.447   2.942   2.539  0.3446  0.2224 -2.0580
 2284TIP3   OH2 6812   7.717   2.593   5.152 -0.3312  0.3661 -0.6746
 2284TIP3    H1 6813   7.723   2.558   5.241 -0.9697  0.9343 -0.3971
 2284TIP3    H2 6814   7.625   2.582   5.129 -0.4939  1.5986 -0.6799
 2285TIP3   OH2 6815   1.730   1.081   3.517 -0.1714  0.7071 -0.2556
 2285TIP3    H1 6816   1.792   1.141   3.558  2.6500 -2.2056  0.0133
 2285TIP3    H2 6817   1.767   1.063   3.431  0.2966 -2.3113  0.5091
 2286TIP3   OH2 6818   2.195   1.263   5.286 -0.3272  0.3980  0.0393
 2286TIP3    H1 6819   2.194   1.283   5.380  3.5494 -0.0317  0.2357
 2286TIP3    H2 6820   2.178   1.169   5.282  1.1872  0.1004  0.4387
 2287TIP3   OH2 6821   1.408   2.599   4.361 -0.3343 -0.5357  0.4739
 2287TIP3    H1 6822   1.337   2.611   4.423 -0.9096  0.6548 -0.3757
 2287TIP3    H2 6823   1.487   2.621   4.410 -0.7943  0.5349  0.7672
 2288TIP3   OH2 6824   1.780   2.859   2.804 -0.1508  0.8352 -0.2098
 2288TIP3    H1 6825   1.875   2.851   2.802 -0.2282 -0.3375 -3.3863
 2288TIP3    H2 6826   1.763   2.951   2.787  0.4141  0.8463 -0.7326
 2289TIP3   OH2 6827   2.654   2.642   3.377  0.0940 -0.2534  0.0972
 2289TIP3    H1 6828   2.721   2.676   3.317  1.4222  0.7007  2.0985
 2289TIP3    H2 6829   2.680   2.550   3.392 -0.9711 -0.8876 -1.7674
 2290TIP3   OH2 6830   3.117   2.216   3.511 -0.3168 -0.2826 -0.7752
 2290TIP3    H1 6831   3.127   2.152   3.582  0.2412  0.5060 -0.1443
 2290TIP3    H2 6832   3.060   2.284   3.548  1.7503  1.2503 -0.3171
 2291TIP3   OH2 6833   3.216   2.713   4.532  1.2507 -0.0048 -0.1389
 2291TIP3    H1 6834   3.302   2.737   4.568  1.0620  0.0293  0.3029
 2291TIP3    H2 6835   3.206   2.621   4.554  1.2849 -0.0731 -0.4149
 2292TIP3   OH2 6836   2.662   4.116   3.026  0.0200  0.3924  0.1624
 2292TIP3    H1 6837   2.713   4.087   3.101 -0.7978 -0.8605  0.2511
 2292TIP3    H2 6838   2.648   4.209   3.041  0.0688  0.2030  1.4527
 2293TIP3   OH2 6839   0.753   3.644   2.156 -0.2306  0.4641  0.1017
 2293TIP3    H1 6840   0.663   3.674   2.166 -1.2884 -1.9749 -1.5490
 2293TIP3    H2 6841   0.785   3.632   2.245 -2.0184  0.0091  0.7008
 2294TIP3   OH2 6842   1.147   4.076   4.377 -0.3111 -0.5327 -0.3481
 2294TIP3    H1 6843   1.180   4.157   4.415  0.0638 -0.8193 -0.0661
 2294TIP3    H2 6844   1.057   4.098   4.350 -0.0719  0.0945 -0.6528
 2295TIP3   OH2 6845   2.652   1.446   2.867 -0.1231 -0.1916 -0.7184
 2295TIP3    H1 6846   2.639   1.382   2.797  0.5529 -0.4967 -0.5698
 2295TIP3    H2 6847   2.625   1.400   2.947  1.9290 -0.8796 -0.3889
 2296TIP3   OH2 6848   1.738   2.026   3.075  0.0752 -0.4371 -0.2027
 2296TIP3    H1 6849   1.683   1.988   3.143  0.6797 -0.1911  0.4307
 2296TIP3    H2 6850   1.705   1.988   2.994 -0.7271 -0.6429  0.2117
 2297TIP3   OH2 6851   3.465   1.134   4.597  0.1269  0.3676  0.0052
 2297TIP3    H1 6852   3.425   1.085   4.526 -0.0834  0.2675  0.1916
 2297TIP3    H2 6853   3.475   1.223   4.564  0.0643  0.3114 -0.1610
 2298TIP3   OH2 6854   0.937   1.282   5.357  0.1600  0.4493  0.1520
 2298TIP3    H1 6855   1.021   1.303   5.315  0.6642  0.5380  1.1767
 2298TIP3    H2 6856   0.920   1.191   5.332  0.0185  0.7711 -0.9413
 2299TIP3   OH2 6857   1.455   0.487   2.479  0.2893  0.4515  0.7717
 2299TIP3    H1 6858   1.540   0.446   2.462  0.0321  0.3365 -0.2918
 2299TIP3    H2 6859   1.453   0.502   2.574  1.9292  1.4152  0.6573
 2300TIP3   OH2 6860   3.886   1.759   3.125 -0.0005 -0.0060 -0.0576
 2300TIP3    H1 6861   3.890   1.805   3.209  0.5999  0.3827 -0.2975
 2300TIP3    H2 6862   3.969   1.780   3.082  1.3107 -3.2046  0.7755
 2301TIP3   OH2 6863   2.961   0.738   4.379 -0.4166  0.0201 -0.0577
 2301TIP3    H1 6864   2.909   0.678   4.432  0.1781 -0.0094  0.4950
 2301TIP3    H2 6865   3.052   0.713   4.395 -0.2066  0.4256 -0.5929
 2302TIP3   OH2 6866   1.755   2.436   5.958 -0.1203 -0.6423  0.6075
 2302TIP3    H1 6867   1.665   2.437   5.989  0.2392 -1.5209  1.7158
 2302TIP3    H2 6868   1.805   2.479   6.028  0.4968 -1.3481  0.6068
 2303TIP3   OH2 6869   3.007   1.290   4.115 -0.0454 -0.1279  0.0165
 2303TIP3    H1 6870   3.071   1.222   4.138  0.0303  0.2299  0.8783
 2303TIP3    H2 6871   3.061   1.366   4.091 -0.1275 -0.4054 -1.0779
 2304TIP3   OH2 6872   3.586   0.796   3.131  0.9556  0.0517 -0.7421
 2304TIP3    H1 6873   3.652   0.793   3.200  1.5361  2.2613 -1.1742
 2304TIP3    H2 6874   3.596   0.882   3.091 -2.1324  0.4054 -0.8928
 2305TIP3   OH2 6875   7.390   2.475   3.094  0.3777 -0.4795 -0.0801
 2305TIP3    H1 6876   7.355   2.409   3.035 -1.4421  0.0624  0.3711
 2305TIP3    H2 6877   7.353   2.557   3.063 -0.6457 -0.2030  1.8407
 2306TIP3   OH2 6878   6.683   7.240   4.759  0.0085  0.2649 -0.6736
 2306TIP3    H1 6879   6.730   7.182   4.698 -1.0438 -0.2641 -0.9904
 2306TIP3    H2 6880   6.593   7.210   4.756  0.4952 -2.0674  3.7965
 2307TIP3   OH2 6881   3.224   0.959   2.482 -0.0750 -0.0429 -0.6747
 2307TIP3    H1 6882   3.301   0.926   2.528 -0.4610  0.8445  0.6376
 2307TIP3    H2 6883   3.191   0.884   2.433  1.4996 -0.4866 -1.0804
 2308TIP3   OH2 6884   2.588   4.370   3.096  0.2935  0.1158 -0.3779
 2308TIP3    H1 6885   2.631   4.406   3.018 -1.4290 -0.0006 -1.4099
 2308TIP3    H2 6886   2.606   4.434   3.165  0.3240  1.1394 -1.3202
 2309TIP3   OH2 6887   0.308   2.799   2.000 -0.2650  0.4607 -0.9288
 2309TIP3    H1 6888   0.274   2.832   1.917  0.2089  0.9191 -0.9408
 2309TIP3    H2 6889   0.229   2.774   2.049 -0.7705  2.9623 -0.3520
 2310TIP3   OH2 6890   6.720   3.146   3.459 -0.0150 -0.2962  0.5544
 2310TIP3    H1 6891   6.723   3.097   3.376 -2.3022 -1.7651  1.3103
 2310TIP3    H2 6892   6.639   3.118   3.501  0.5915  1.2277  2.8327
 2311TIP3   OH2 6893   6.188   0.832   1.343 -0.2605 -0.2103  0.3627
 2311TIP3    H1 6894   6.093   0.844   1.350 -0.3320 -0.6016  0.1125
 2311TIP3    H2 6895   6.197   0.745   1.303  0.1853  0.7009 -1.5266
 2312TIP3   OH2 6896   1.393   0.256   5.690  0.4157  0.0753  0.2494
 2312TIP3    H1 6897   1.390   0.274   5.596  0.6004  0.3948  0.3014
 2312TIP3    H2 6898   1.346   0.174   5.700  2.0405 -0.9784 -0.3682
 2313TIP3   OH2 6899   0.173   3.512   1.705 -0.5773 -0.7658  0.3666
 2313TIP3    H1 6900   0.097   3.498   1.761 -1.0983  2.0588  0.4410
 2313TIP3    H2 6901   0.213   3.592   1.739  0.4925 -0.3618 -1.7702
 2314TIP3   OH2 6902   6.490   2.095   5.368  0.1050  0.8903  0.2028
 2314TIP3    H1 6903   6.584   2.084   5.385  0.5558  0.3629 -2.3192
 2314TIP3    H2 6904   6.448   2.034   5.428  1.4008  0.8544  1.1125
 2315TIP3   OH2 6905   0.961   3.121   3.502 -0.2359  0.3735 -0.8957
 2315TIP3    H1 6906   0.909   3.186   3.456  0.7793  0.3944 -2.0525
 2315TIP3    H2 6907   0.999   3.067   3.433  0.3412 -0.3584 -0.0284
 2316TIP3   OH2 6908   1.378   2.757   2.738 -0.7023 -0.4203  0.0650
 2316TIP3    H1 6909   1.345   2.821   2.674 -1.2189 -2.4400 -1.7344
 2316TIP3    H2 6910   1.465   2.733   2.705 -1.0026 -1.5303  0.0681
 2317TIP3   OH2 6911   0.705   2.427   3.162  0.6083 -0.2301  0.0605
 2317TIP3    H1 6912   0.790   2.422   3.120  1.7150  0.6613  2.0851
 2317TIP3    H2 6913   0.716   2.378   3.244 -0.1858  1.6058  1.2970
 2318TIP3   OH2 6914   5.214   7.070   3.761 -0.0788  0.4940  0.3310
 2318TIP3    H1 6915   5.172   7.154   3.747  0.5670  0.7418 -0.1468
 2318TIP3    H2 6916   5.308   7.089   3.760  0.1614 -0.6240 -2.3999
 2319TIP3   OH2 6917   0.471   3.358   2.301 -0.2698  0.2842 -1.1468
 2319TIP3    H1 6918   0.552   3.349   2.350 -1.1086  0.4341  0.2920
 2319TIP3    H2 6919   0.457   3.272   2.261 -0.1161 -0.1565 -0.2644
 2320TIP3   OH2 6920   0.347   0.345   4.419 -0.0702  0.6503 -0.3936
 2320TIP3    H1 6921   0.422   0.401   4.437 -1.6205  2.9422 -0.7452
 2320TIP3    H2 6922   0.374   0.290   4.346  1.9777 -0.0846  0.8820
 2321TIP3   OH2 6923   2.602   0.134   4.347  0.3493 -0.0656  0.4425
 2321TIP3    H1 6924   2.642   0.058   4.390 -1.4113 -1.1044  0.3020
 2321TIP3    H2 6925   2.542   0.170   4.413 -0.2941  0.0119 -0.1823
 2322TIP3   OH2 6926   2.000   1.727   4.753 -0.2221 -0.8305  0.0455
 2322TIP3    H1 6927   2.086   1.750   4.789 -0.2316 -0.2376 -0.3118
 2322TIP3    H2 6928   2.020   1.662   4.686 -0.0554 -0.7363  0.0024
 2323TIP3   OH2 6929   2.274   0.756   2.544 -0.4813  0.4284  0.6316
 2323TIP3    H1 6930   2.277   0.761   2.449  0.0914  0.5748  0.6510
 2323TIP3    H2 6931   2.349   0.809   2.573 -1.1410  1.0666  1.1877
 2324TIP3   OH2 6932   7.010   6.399   3.507 -0.1712  0.2261 -0.0116
 2324TIP3    H1 6933   7.065   6.337   3.460  0.1805  2.0256 -2.0539
 2324TIP3    H2 6934   6.921   6.365   3.496  0.1530 -0.6850  0.1421
 2325TIP3   OH2 6935   2.746   1.782   3.908  0.1737 -0.7385 -0.3507
 2325TIP3    H1 6936   2.657   1.780   3.943  0.1734 -0.3176 -0.3244
 2325TIP3    H2 6937   2.748   1.859   3.851  0.1034 -1.5292 -1.4531
 2326TIP3   OH2 6938   6.841   4.054   4.823 -0.1371 -0.0570  0.2193
 2326TIP3    H1 6939   6.881   3.970   4.800 -0.5690 -0.0251 -0.6687
 2326TIP3    H2 6940   6.747   4.035   4.830 -0.4625  0.6916 -1.7125
 2327TIP3   OH2 6941   1.191   2.557   2.602  0.1635  0.0086  0.3484
 2327TIP3    H1 6942   1.121   2.500   2.633 -2.5418  1.9396 -1.9771
 2327TIP3    H2 6943   1.193   2.629   2.667 -0.7878  0.5144 -0.1717
 2328TIP3   OH2 6944   1.924   3.868   0.469  0.1687  0.3168  0.2813
 2328TIP3    H1 6945   1.905   3.844   0.560  0.1681 -0.2407  0.1321
 2328TIP3    H2 6946   1.945   3.785   0.426  0.7450  0.6513 -0.0890
 2329TIP3   OH2 6947   1.219   0.879   4.702 -0.2696 -0.1574 -0.2643
 2329TIP3    H1 6948   1.287   0.850   4.763  1.5542  2.3555 -0.9924
 2329TIP3    H2 6949   1.143   0.826   4.723  0.4433  0.3210  3.9294
 2330TIP3   OH2 6950   2.146   1.141   2.926  0.3660 -0.1179  0.0649
 2330TIP3    H1 6951   2.240   1.144   2.945  0.0116 -0.2345  1.8397
 2330TIP3    H2 6952   2.114   1.066   2.975 -0.7602  0.2469 -0.1157
 2331TIP3   OH2 6953   3.170   1.447   2.437  0.6344  0.1168 -0.2776
 2331TIP3    H1 6954   3.237   1.381   2.421  1.7951  1.4137 -0.9402
 2331TIP3    H2 6955   3.219   1.522   2.471 -0.6212  0.7379  0.1951
 2332TIP3   OH2 6956   2.995   0.058   3.312  0.2480  0.4521  0.6712
 2332TIP3    H1 6957   2.946   0.135   3.338  1.3123  1.3360  0.1396
 2332TIP3    H2 6958   3.087   0.084   3.320  0.6133 -0.0837 -1.4273
 2333TIP3   OH2 6959   1.278   1.869   1.711  0.1258  0.0267  0.3092
 2333TIP3    H1 6960   1.327   1.946   1.740  0.5840 -0.0516 -0.2458
 2333TIP3    H2 6961   1.285   1.871   1.615  0.0514 -0.6488  0.2891
 2334TIP3   OH2 6962   1.533   4.581   2.460  0.3631 -0.2568  0.1746
 2334TIP3    H1 6963   1.589   4.516   2.418  0.3016 -0.7543  0.8560
 2334TIP3    H2 6964   1.449   4.572   2.415  1.3351  1.8231 -2.1867
 2335TIP3   OH2 6965   1.937   2.737   2.026 -0.3040 -0.1119  0.0454
 2335TIP3    H1 6966   2.009   2.674   2.034 -1.6913 -1.7731 -0.1506
 2335TIP3    H2 6967   1.886   2.725   2.107 -0.1038  1.3924  0.4108
 2336TIP3   OH2 6968   1.534   1.911   2.498 -0.6250 -0.4580 -0.1487
 2336TIP3    H1 6969   1.587   1.836   2.469  0.1914 -0.3417  0.9954
 2336TIP3    H2 6970   1.583   1.988   2.467 -0.8816 -0.3724 -0.3461
 2337TIP3   OH2 6971   3.373   1.219   2.734  0.7930  0.0107 -0.1917
 2337TIP3    H1 6972   3.343   1.307   2.757 -0.8372 -0.2142 -1.4046
 2337TIP3    H2 6973   3.305   1.161   2.766  0.6517 -0.6209 -1.5878
 2338TIP3   OH2 6974   6.302   7.076   3.588  0.2537 -0.3921 -0.6390
 2338TIP3    H1 6975   6.259   7.058   3.504 -0.4471  1.0706 -0.6156
 2338TIP3    H2 6976   6.326   7.169   3.583  1.5899 -0.6806  0.1731
 2339TIP3   OH2 6977   2.959   3.214   3.731  0.1992 -0.3325  0.2419
 2339TIP3    H1 6978   2.924   3.280   3.791  0.0615 -1.9495  1.9847
 2339TIP3    H2 6979   2.974   3.137   3.786 -1.4083 -2.3888 -2.0668
 2340TIP3   OH2 6980   2.604   2.018   1.172  0.5478  0.1573  0.3880
 2340TIP3    H1 6981   2.675   2.069   1.133 -0.8975  0.7418 -1.5829
 2340TIP3    H2 6982   2.607   1.935   1.125  1.1678 -0.5723  1.6937
 2341TIP3   OH2 6983   4.782   1.902   2.691 -0.5779  0.0177 -0.5286
 2341TIP3    H1 6984   4.877   1.889   2.693 -0.5473  0.2918  1.3943
 2341TIP3    H2 6985   4.770   1.995   2.710 -1.2144  0.0338 -1.0118
 2342TIP3   OH2 6986   3.633   0.231   3.193 -0.5344 -0.7541 -0.0673
 2342TIP3    H1 6987   3.688   0.196   3.124 -0.1512  1.5766 -0.9968
 2342TIP3    H2 6988   3.688   0.295   3.238 -2.4408  1.7337 -1.1186
 2343TIP3   OH2 6989   0.533   7.077   0.923  0.1316 -0.8232 -0.1100
 2343TIP3    H1 6990   0.545   7.070   0.828 -1.4101 -2.3286 -0.2230
 2343TIP3    H2 6991   0.439   7.090   0.934  0.3157 -0.5319  1.2208
 2344TIP3   OH2 6992   4.663   0.998   2.164  0.1470  0.0267  0.3024
 2344TIP3    H1 6993   4.641   1.038   2.248  2.7369  1.6369  0.2588
 2344TIP3    H2 6994   4.602   1.037   2.102 -1.4752 -0.8261  1.3178
 2345TIP3   OH2 6995   1.441   7.104   2.574 -0.1989 -0.0133  0.4900
 2345TIP3    H1 6996   1.468   7.169   2.509 -0.4176 -0.3951  0.0197
 2345TIP3    H2 6997   1.437   7.022   2.526  2.0707 -0.7704  1.5244
 2346TIP3   OH2 6998   2.183   0.496   1.448 -0.5606  0.7520  0.4275
 2346TIP3    H1 6999   2.199   0.468   1.538 -0.3238 -1.7639 -0.3585
 2346TIP3    H2 7000   2.088   0.510   1.444 -1.2408 -3.3171  0.0115
 2347TIP3   OH2 7001   2.733   1.793   1.840  0.4052 -0.0546  0.2583
 2347TIP3    H1 7002   2.721   1.831   1.927  0.7071  0.9296 -0.1239
 2347TIP3    H2 7003   2.686   1.851   1.781  1.5401  0.1922 -0.4369
 2348TIP3   OH2 7004   0.969   6.998   3.308  0.0525 -0.1575  0.1594
 2348TIP3    H1 7005   1.032   6.939   3.266 -0.4305  0.0911 -0.9354
 2348TIP3    H2 7006   1.019   7.077   3.328  0.4024 -0.4626  0.5045
 2349TIP3   OH2 7007   3.011   2.462   3.612  0.3372 -0.1234 -0.0055
 2349TIP3    H1 7008   2.968   2.523   3.673 -0.7577 -1.0931  0.2061
 2349TIP3    H2 7009   3.042   2.518   3.541 -0.6255  0.6938  0.2045
 2350TIP3   OH2 7010   1.794   1.015   2.862  0.2415  0.0991  0.1554
 2350TIP3    H1 7011   1.886   1.019   2.886  0.8314  0.3734 -2.0014
 2350TIP3    H2 7012   1.766   0.927   2.884  1.1666 -0.1480  0.3468
 2351TIP3   OH2 7013   3.465   2.743   4.163  0.2481 -0.0847  0.2659
 2351TIP3    H1 7014   3.552   2.705   4.177  0.2254 -0.1002  0.3678
 2351TIP3    H2 7015   3.406   2.684   4.211  0.2833  0.4373  0.9485
 2352TIP3   OH2 7016   1.071   5.442   3.272  0.4750 -0.1888 -0.4194
 2352TIP3    H1 7017   1.137   5.460   3.205  0.7100  2.9044  0.5432
 2352TIP3    H2 7018   1.069   5.521   3.325 -2.4258 -1.0927  0.9435
 2353TIP3   OH2 7019   2.414   3.730   5.027 -0.2666  0.1237  0.2560
 2353TIP3    H1 7020   2.364   3.709   4.948  0.5477  0.0418 -0.2442
 2353TIP3    H2 7021   2.498   3.686   5.015 -0.0666  0.2555  1.0918
 2354TIP3   OH2 7022   1.419   3.178   1.131  0.3663 -0.0914 -0.2232
 2354TIP3    H1 7023   1.515   3.181   1.137  0.3664  2.1746 -0.9601
 2354TIP3    H2 7024   1.389   3.213   1.214  0.1702 -0.7520 -0.0149
 2355TIP3   OH2 7025   4.261   3.302   3.474  0.5787 -0.3027  0.0272
 2355TIP3    H1 7026   4.289   3.271   3.560 -0.7723  2.3874  1.5337
 2355TIP3    H2 7027   4.284   3.395   3.474 -1.6815  0.3031 -1.5139
 2356TIP3   OH2 7028   3.738   2.070   1.847 -0.0393 -0.4489  0.0368
 2356TIP3    H1 7029   3.770   2.022   1.771  1.4765  0.0495  0.3385
 2356TIP3    H2 7030   3.812   2.124   1.874 -1.0614  0.5259  0.9409
 2357TIP3   OH2 7031   2.114   0.378   4.127 -0.4046  0.2860 -0.4920
 2357TIP3    H1 7032   2.129   0.461   4.171  2.1670 -0.5193  0.2052
 2357TIP3    H2 7033   2.155   0.387   4.041  1.3893 -0.8148  0.2170
 2358TIP3   OH2 7034   2.997   0.989   1.807  0.2747  0.3872 -0.0358
 2358TIP3    H1 7035   2.934   1.061   1.801  0.3196  0.3951 -0.4273
 2358TIP3    H2 7036   2.959   0.929   1.871 -0.1616  0.3649 -0.3132
 2359TIP3   OH2 7037   3.776   2.958   2.972  0.0025  0.4381 -0.1400
 2359TIP3    H1 7038   3.748   2.872   2.940 -0.3160  0.5681 -0.2176
 2359TIP3    H2 7039   3.844   2.985   2.911  0.4795  0.0087  0.1939
 2360TIP3   OH2 7040   1.744   4.464   2.004 -0.0194 -0.4790  0.3320
 2360TIP3    H1 7041   1.713   4.381   2.039  0.4446  0.0791  2.1548
 2360TIP3    H2 7042   1.706   4.470   1.917  1.2095 -3.3025 -0.4215
 2361TIP3   OH2 7043   4.051   1.511   1.342  0.3603 -0.2094  0.2687
 2361TIP3    H1 7044   4.045   1.462   1.260 -4.3431 -0.0864  0.4143
 2361TIP3    H2 7045   4.060   1.602   1.315 -0.1399 -0.2689 -0.1047
 2362TIP3   OH2 7046   1.296   3.015   5.404 -0.0846 -0.2577  0.1845
 2362TIP3    H1 7047   1.202   3.031   5.394 -0.5200 -0.5967  3.1841
 2362TIP3    H2 7048   1.336   3.102   5.400 -0.5168 -0.1123 -1.1110
 2363TIP3   OH2 7049   1.379   6.814   3.852  0.0130  0.4363 -0.0444
 2363TIP3    H1 7050   1.317   6.859   3.910 -1.6815  2.0781 -2.9718
 2363TIP3    H2 7051   1.365   6.721   3.868  0.2458  0.8524  2.7778
 2364TIP3   OH2 7052   7.756   6.911   3.215  0.2967  0.4410 -0.2457
 2364TIP3    H1 7053   7.764   6.842   3.281  0.2913  0.2318 -0.4640
 2364TIP3    H2 7054   7.843   6.919   3.177  0.3134  0.6000 -0.1744
 2365TIP3   OH2 7055   3.994   2.820   3.242  0.3065 -0.4262  0.2075
 2365TIP3    H1 7056   3.963   2.730   3.240  0.4273 -0.4575 -0.2581
 2365TIP3    H2 7057   4.036   2.834   3.157 -0.8173  0.4619 -0.2105
 2366TIP3   OH2 7058   7.414   5.877   2.325 -0.5088  0.0760 -0.4458
 2366TIP3    H1 7059   7.446   5.787   2.320 -0.2098  0.2020 -0.7742
 2366TIP3    H2 7060   7.492   5.931   2.330 -0.7011  0.2446  1.1071
 2367TIP3   OH2 7061   3.364   1.581   1.914 -0.1198 -0.5917  0.5850
 2367TIP3    H1 7062   3.401   1.669   1.923  0.1403 -0.6675  0.2898
 2367TIP3    H2 7063   3.355   1.549   2.004 -0.4136 -0.1799  0.6999
 2368TIP3   OH2 7064   2.336   1.346   2.532  0.2940 -0.1879  0.0171
 2368TIP3    H1 7065   2.357   1.256   2.505 -0.7046  0.0432 -1.5684
 2368TIP3    H2 7066   2.242   1.345   2.546  0.1955  0.7712 -0.5723
 2369TIP3   OH2 7067   4.617   0.507   3.021  0.0124  0.4354 -0.2348
 2369TIP3    H1 7068   4.628   0.418   3.054 -0.2489  0.1178 -1.0123
 2369TIP3    H2 7069   4.559   0.498   2.946  1.5708  1.0045 -1.5300
 2370TIP3   OH2 7070   2.965   0.498   3.568 -0.3608  0.0172 -0.2939
 2370TIP3    H1 7071   3.035   0.447   3.608  0.3464  0.0576 -1.4609
 2370TIP3    H2 7072   2.995   0.589   3.573 -1.2572  0.2537  1.0560
 2371TIP3   OH2 7073   1.963   2.330   2.111 -0.1166  0.1549 -0.5799
 2371TIP3    H1 7074   1.977   2.237   2.095 -0.5878 -0.1389  0.6348
 2371TIP3    H2 7075   1.869   2.343   2.102 -0.1015  0.4317 -0.3724
 2372TIP3   OH2 7076   1.085   7.238   2.258 -0.0310  0.4948  0.2587
 2372TIP3    H1 7077   0.992   7.245   2.237 -0.1479 -1.2802  0.0634
 2372TIP3    H2 7078   1.091   7.163   2.318  1.2247  0.8219  0.5688
 2373TIP3   OH2 7079   2.533   0.906   2.247  0.4983  0.2170  0.0717
 2373TIP3    H1 7080   2.622   0.884   2.274  0.7468  0.1685 -0.7610
 2373TIP3    H2 7081   2.543   0.947   2.161 -0.2417  0.6610  0.1937
 2374TIP3   OH2 7082   2.683   3.445   4.041 -0.0815  0.6563  0.2348
 2374TIP3    H1 7083   2.658   3.537   4.050 -2.0796  0.2789 -0.9478
 2374TIP3    H2 7084   2.604   3.396   4.066  1.2475 -0.7765  1.7558
 2375TIP3   OH2 7085   2.371   0.351   1.681 -0.0389  0.4810  0.1787
 2375TIP3    H1 7086   2.276   0.345   1.689  0.0826 -0.5193  0.9911
 2375TIP3    H2 7087   2.401   0.371   1.770  0.4820  1.1795 -0.1523
 2376TIP3   OH2 7088   1.159   0.978   3.354  0.3761  0.4075 -0.1838
 2376TIP3    H1 7089   1.077   0.967   3.402  0.6979  0.6671  0.4231
 2376TIP3    H2 7090   1.221   1.011   3.418  1.2331 -0.7581 -0.3911
 2377TIP3   OH2 7091   3.783   4.450   0.621 -0.4099  0.4465 -0.1986
 2377TIP3    H1 7092   3.695   4.482   0.641 -0.7880  0.7030 -2.1697
 2377TIP3    H2 7093   3.771   4.391   0.547  0.6681 -2.1190  1.5817
 2378TIP3   OH2 7094   3.353   2.073   3.652 -0.1543 -0.1086 -0.1093
 2378TIP3    H1 7095   3.406   2.088   3.730 -0.8358 -1.7861  0.6828
 2378TIP3    H2 7096   3.265   2.054   3.686 -0.8089  0.6550 -1.3397
 2379TIP3   OH2 7097   2.737   2.235   3.608  0.1754  0.8743 -0.0499
 2379TIP3    H1 7098   2.766   2.224   3.699  1.1330 -0.1211 -0.4681
 2379TIP3    H2 7099   2.690   2.155   3.588  0.9717  0.5822 -0.7959
 2380TIP3   OH2 7100   3.602   2.594   3.528 -0.4698  0.2799 -0.1137
 2380TIP3    H1 7101   3.632   2.625   3.442 -0.4693  1.6687  0.3617
 2380TIP3    H2 7102   3.657   2.519   3.547  0.6911  0.9953 -0.5789
 2381TIP3   OH2 7103   2.816   2.765   1.909  0.4690 -0.1155 -0.3964
 2381TIP3    H1 7104   2.742   2.706   1.928  0.2956 -0.5604 -2.3262
 2381TIP3    H2 7105   2.893   2.708   1.911  0.4186 -0.2285 -1.1998
 2382TIP3   OH2 7106   2.270   1.900   1.783 -0.2729  0.2040 -0.3929
 2382TIP3    H1 7107   2.277   1.984   1.829  1.1790  1.0201 -2.0059
 2382TIP3    H2 7108   2.267   1.835   1.852 -1.9248  1.6134  0.9112
 2383TIP3   OH2 7109   2.386   1.596   0.035  0.2465 -0.1424 -1.0179
 2383TIP3    H1 7110   2.429   1.518   0.002  0.3401 -0.1095 -0.9746
 2383TIP3    H2 7111   2.384   1.584   0.130  0.4566  0.0071 -0.9932
 2384TIP3   OH2 7112   3.076   2.014   0.892  0.0694  0.4568 -0.1114
 2384TIP3    H1 7113   3.027   2.088   0.856 -0.5027  0.3366  0.4073
 2384TIP3    H2 7114   3.160   2.052   0.918  0.4381  0.5754 -1.4185
 2385TIP3   OH2 7115   2.980   0.520   1.314  0.1546  0.7307  0.0245
 2385TIP3    H1 7116   2.997   0.603   1.270  0.8085  0.8303  0.4624
 2385TIP3    H2 7117   2.958   0.544   1.404  0.3065  0.4274  0.1440
 2386TIP3   OH2 7118   4.166   2.006   4.843 -0.6036 -0.1549  0.4168
 2386TIP3    H1 7119   4.142   1.962   4.925 -0.1423  1.9320  1.7103
 2386TIP3    H2 7120   4.256   2.034   4.857 -0.5354  0.2449 -0.8081
 2387TIP3   OH2 7121   2.847   2.400   4.517  0.5909  0.0169  0.2301
 2387TIP3    H1 7122   2.861   2.381   4.424 -0.4990 -2.4583  0.5421
 2387TIP3    H2 7123   2.927   2.445   4.544  2.3170 -2.1650 -1.1333
 2388TIP3   OH2 7124   5.490   1.415   2.900 -0.4732 -0.6603  0.0099
 2388TIP3    H1 7125   5.544   1.341   2.872 -0.0307 -0.4637  0.3231
 2388TIP3    H2 7126   5.554   1.480   2.931 -0.8829 -0.3578  0.2234
 2389TIP3   OH2 7127   2.813   1.278   4.362  0.6272 -0.2074  0.5700
 2389TIP3    H1 7128   2.829   1.186   4.382  1.8369 -0.2663 -0.5561
 2389TIP3    H2 7129   2.866   1.295   4.284  0.0018  1.3045  0.4514
 2390TIP3   OH2 7130   1.807   5.961   2.718  0.5086 -0.8864  0.0395
 2390TIP3    H1 7131   1.893   5.954   2.677  1.2680 -3.1836  1.8554
 2390TIP3    H2 7132   1.815   5.909   2.798 -1.5127  1.7316  2.0343
 2391TIP3   OH2 7133   2.882   1.921   1.416  0.1556  0.2139  0.3624
 2391TIP3    H1 7134   2.792   1.889   1.420 -0.3770  1.8473  3.7994
 2391TIP3    H2 7135   2.922   1.891   1.498  2.4280  0.4154 -0.6234
 2392TIP3   OH2 7136   1.640   7.005   4.067 -0.8423 -0.2472 -0.6257
 2392TIP3    H1 7137   1.724   7.049   4.056 -0.7304 -0.0444  0.9208
 2392TIP3    H2 7138   1.663   6.913   4.079 -0.7310 -0.0261  1.0324
 2393TIP3   OH2 7139   3.360   2.481   3.797 -0.2374  0.0788 -0.4189
 2393TIP3    H1 7140   3.353   2.477   3.702 -0.5343 -0.8735 -0.3633
 2393TIP3    H2 7141   3.454   2.487   3.815 -0.2222  1.0526 -0.7899
 2394TIP3   OH2 7142   2.988   0.090   2.422  0.3239 -0.0001  0.1683
 2394TIP3    H1 7143   3.045   0.029   2.468 -0.4061 -0.4438  0.4908
 2394TIP3    H2 7144   2.920   0.113   2.486 -0.1779  0.0838 -0.3862
 2395TIP3   OH2 7145   1.739   1.290   1.645  0.0050  0.5145  0.3149
 2395TIP3    H1 7146   1.813   1.311   1.703 -0.7618  0.9784  1.1431
 2395TIP3    H2 7147   1.692   1.373   1.636 -0.3844  0.2326 -0.2422
 2396TIP3   OH2 7148   1.607   2.235   4.021 -0.1043  0.2558  0.0391
 2396TIP3    H1 7149   1.612   2.315   4.073  0.4387 -1.2853  2.4431
 2396TIP3    H2 7150   1.526   2.193   4.051 -0.3216 -0.1524 -1.1214
 2397TIP3   OH2 7151   0.176   7.226   3.329  0.4128  0.4670 -0.2074
 2397TIP3    H1 7152   0.128   7.300   3.293  0.6257  0.2048 -1.0325
 2397TIP3    H2 7153   0.261   7.263   3.355  0.1952  0.6906  0.1954
 2398TIP3   OH2 7154   2.314   2.609   5.088  0.1421  0.3243  0.4242
 2398TIP3    H1 7155   2.321   2.645   5.176 -0.4709 -0.1489  0.6733
 2398TIP3    H2 7156   2.345   2.679   5.030  0.5116  0.6480  1.0095
 2399TIP3   OH2 7157   1.472   2.529   0.792 -0.8530  0.4845  0.0417
 2399TIP3    H1 7158   1.436   2.601   0.844  0.8598 -0.0282  2.0049
 2399TIP3    H2 7159   1.567   2.539   0.800 -0.5854 -2.0113  0.4041
 2400TIP3   OH2 7160   1.459   0.316   2.005 -0.3096  0.1155  0.0404
 2400TIP3    H1 7161   1.466   0.237   2.058 -2.1903  0.4626  0.8493
 2400TIP3    H2 7162   1.534   0.370   2.031  0.2887 -0.8808  0.3689
 2401TIP3   OH2 7163   5.830   6.131   2.225  0.0610  0.0045  0.1936
 2401TIP3    H1 7164   5.798   6.054   2.272  0.1195 -0.0865  0.0838
 2401TIP3    H2 7165   5.750   6.174   2.193  0.1444 -1.7300 -2.4732
 2402TIP3   OH2 7166   2.635   0.835   4.541 -0.1427  0.2199 -0.0855
 2402TIP3    H1 7167   2.694   0.768   4.575  0.9485  0.8929 -0.6052
 2402TIP3    H2 7168   2.600   0.798   4.460  0.1847  0.1321 -0.1880
 2403TIP3   OH2 7169   4.747   5.227   0.774 -0.1537  0.4088 -0.5782
 2403TIP3    H1 7170   4.688   5.296   0.743 -2.0838 -0.0641  1.8697
 2403TIP3    H2 7171   4.699   5.184   0.845  2.3300 -1.3465  0.1199
 2404TIP3   OH2 7172   5.181   5.834   6.282 -0.0230  0.1679  0.1530
 2404TIP3    H1 7173   5.185   5.876   6.196  0.1315 -3.2603 -1.5765
 2404TIP3    H2 7174   5.266   5.852   6.321  0.7568 -0.2115 -1.3594
 2405TIP3   OH2 7175   3.088   0.347   3.810  0.3378 -0.0250 -0.3698
 2405TIP3    H1 7176   3.168   0.340   3.861 -0.6840 -1.9540  1.0289
 2405TIP3    H2 7177   3.097   0.280   3.742 -0.1749 -0.4427 -0.0367
 2406TIP3   OH2 7178   2.395   0.537   3.673  0.4961 -0.8519  0.0997
 2406TIP3    H1 7179   2.469   0.498   3.626  0.3578  0.9178 -1.6818
 2406TIP3    H2 7180   2.319   0.513   3.621  0.2480  0.4348 -0.1500
 2407TIP3   OH2 7181   2.743   0.341   2.515  0.2235 -0.0424  0.0112
 2407TIP3    H1 7182   2.762   0.435   2.511 -2.3879  0.5479  0.4030
 2407TIP3    H2 7183   2.735   0.314   2.424 -0.8926  0.5478 -0.0766
 2408TIP3   OH2 7184   3.079   3.022   2.479 -0.6250  0.3736 -0.3455
 2408TIP3    H1 7185   3.043   3.101   2.518  0.6617  0.8880 -0.1701
 2408TIP3    H2 7186   3.055   3.026   2.387  2.2967  2.6931 -1.0822
 2409TIP3   OH2 7187   5.686   3.259   4.856  0.0721 -0.2271 -0.3269
 2409TIP3    H1 7188   5.664   3.349   4.877  0.5879  0.2570 -1.7799
 2409TIP3    H2 7189   5.602   3.219   4.832  0.2486  0.7155 -2.6522
 2410TIP3   OH2 7190   2.493   0.878   2.702 -0.0226  0.0676  0.1071
 2410TIP3    H1 7191   2.424   0.855   2.764 -1.5070 -0.4205 -1.7001
 2410TIP3    H2 7192   2.570   0.829   2.732 -1.3968 -2.1518  0.0991
 2411TIP3   OH2 7193   0.283   6.373   4.271  0.0826  0.2089  0.0854
 2411TIP3    H1 7194   0.196   6.369   4.312 -0.7115  1.5547 -1.3963
 2411TIP3    H2 7195   0.281   6.453   4.219  1.6348 -0.6024 -1.2764
 2412TIP3   OH2 7196   4.092   1.420   3.438  0.1367 -0.3753  0.0816
 2412TIP3    H1 7197   4.186   1.430   3.424  0.3376 -0.6253  1.2012
 2412TIP3    H2 7198   4.053   1.437   3.352  1.0716  1.5488 -0.0052
 2413TIP3   OH2 7199   2.049   2.557   0.958 -0.0988  0.5511  0.2282
 2413TIP3    H1 7200   1.994   2.486   0.925 -0.6883  1.1095  0.0173
 2413TIP3    H2 7201   1.988   2.627   0.980  0.4528  0.8625  0.7725
 2414TIP3   OH2 7202   2.941   3.592   3.558  0.7151  0.1250 -0.2052
 2414TIP3    H1 7203   2.901   3.608   3.472  0.1586  2.4565  0.4398
 2414TIP3    H2 7204   3.025   3.637   3.553  0.6940  0.2363  0.4383
 2415TIP3   OH2 7205   7.715   6.776   4.211  0.3633 -0.1352 -0.0251
 2415TIP3    H1 7206   7.737   6.771   4.118 -1.1583 -0.0606 -0.4051
 2415TIP3    H2 7207   7.620   6.765   4.213  0.1103  2.1518  1.3393
 2416TIP3   OH2 7208   2.193   3.201   2.066 -0.1328 -0.1307 -0.3282
 2416TIP3    H1 7209   2.131   3.254   2.116  0.0810 -0.1563 -0.0292
 2416TIP3    H2 7210   2.148   3.180   1.985 -0.7373 -0.6439  0.1370
 2417TIP3   OH2 7211   3.618   2.005   4.447 -0.5874 -0.1132  0.4264
 2417TIP3    H1 7212   3.665   1.965   4.520  1.0288  1.2402  0.1718
 2417TIP3    H2 7213   3.678   1.997   4.373 -1.5665 -0.0896 -0.3799
 2418TIP3   OH2 7214   3.680   0.707   1.859 -0.1193 -0.0635 -0.6817
 2418TIP3    H1 7215   3.761   0.743   1.824  0.5889 -1.5433 -0.5807
 2418TIP3    H2 7216   3.652   0.643   1.794  0.0382 -1.2375  0.3922
 2419TIP3   OH2 7217   2.841   2.962   1.047  0.5127  0.6894 -0.2560
 2419TIP3    H1 7218   2.914   2.985   0.989 -1.4257  1.1365 -2.6229
 2419TIP3    H2 7219   2.841   2.867   1.051  0.6734  0.6569 -1.0016
 2420TIP3   OH2 7220   7.271   7.112   4.401 -0.0638  0.1931  0.1064
 2420TIP3    H1 7221   7.365   7.105   4.385  0.1166 -0.5170  1.4019
 2420TIP3    H2 7222   7.232   7.039   4.353  0.5458 -2.4003  3.3834
 2421TIP3   OH2 7223   0.278   5.648   4.148 -0.3838 -0.4291 -0.1297
 2421TIP3    H1 7224   0.275   5.564   4.194  0.8443 -0.6357 -0.4251
 2421TIP3    H2 7225   0.255   5.713   4.214  3.0618 -0.5335  1.2644
 2422TIP3   OH2 7226   2.219   1.555   3.738  0.3305 -0.4092  0.7383
 2422TIP3    H1 7227   2.246   1.612   3.666  0.5809 -1.1672  0.2311
 2422TIP3    H2 7228   2.126   1.575   3.751  0.0560 -0.9154 -0.3878
 2423TIP3   OH2 7229   2.339   2.760   2.024 -0.1142 -0.4822 -0.0124
 2423TIP3    H1 7230   2.337   2.832   2.086  0.4355 -1.4272  1.1251
 2423TIP3    H2 7231   2.248   2.730   2.019 -0.4639  0.7169 -1.0148
 2424TIP3   OH2 7232   3.468   0.889   2.591  0.0753  0.0302  0.2563
 2424TIP3    H1 7233   3.494   0.813   2.642 -0.3567 -0.5349 -0.3494
 2424TIP3    H2 7234   3.549   0.922   2.553  0.4445  0.6592  1.5758
 2425TIP3   OH2 7235   0.594   7.166   3.567 -0.5068  0.0413  0.1881
 2425TIP3    H1 7236   0.629   7.104   3.504  0.9496 -0.1070  1.1274
 2425TIP3    H2 7237   0.508   7.130   3.591 -0.9648 -0.0205 -1.5036
 2426TIP3   OH2 7238   2.683   2.596   0.238 -0.3049 -0.0671 -0.6680
 2426TIP3    H1 7239   2.722   2.536   0.301  0.5053  0.1105 -0.9946
 2426TIP3    H2 7240   2.589   2.583   0.247 -0.1645 -0.5899  0.0377
 2427TIP3   OH2 7241   2.450   2.563   1.628  0.7773  0.2112 -0.2651
 2427TIP3    H1 7242   2.383   2.611   1.580  1.4635  1.0958 -0.3546
 2427TIP3    H2 7243   2.503   2.631   1.669  1.5628 -0.4813 -0.1204
 2428TIP3   OH2 7244   1.001   2.663   1.845 -0.0605  0.1210  0.3122
 2428TIP3    H1 7245   1.050   2.627   1.919  1.4791  0.9711 -0.2634
 2428TIP3    H2 7246   1.060   2.652   1.770 -0.9936  0.6358 -0.4974
 2429TIP3   OH2 7247   6.199   3.248   3.238  0.0112 -0.3323  0.2906
 2429TIP3    H1 7248   6.110   3.265   3.206 -0.4206  0.7606  1.9920
 2429TIP3    H2 7249   6.208   3.153   3.232 -0.4165 -0.2577 -2.0580
 2430TIP3   OH2 7250   0.961   6.533   2.497 -0.1605 -0.0048 -0.0950
 2430TIP3    H1 7251   0.910   6.484   2.433 -0.2833 -1.2583  0.9536
 2430TIP3    H2 7252   0.924   6.509   2.582  0.6475  0.8698  0.5235
 2431TIP3   OH2 7253   2.158   4.549   2.404  0.2171 -0.0915  0.6645
 2431TIP3    H1 7254   2.202   4.518   2.325  0.5844  0.5319  0.6231
 2431TIP3    H2 7255   2.160   4.645   2.396 -1.4530 -0.0553  0.4766
 2432TIP3   OH2 7256   2.278   3.522   3.661  0.6400  0.3285 -0.4381
 2432TIP3    H1 7257   2.353   3.470   3.690  0.0366 -0.5330 -0.4078
 2432TIP3    H2 7258   2.258   3.488   3.573 -2.1093 -2.1215  1.0494
 2433TIP3   OH2 7259   2.273   3.416   1.399 -0.2438  0.2813  0.2521
 2433TIP3    H1 7260   2.304   3.327   1.384  2.4590  1.1806  0.2395
 2433TIP3    H2 7261   2.189   3.420   1.352 -0.4585 -2.2598  0.3367
 2434TIP3   OH2 7262   1.251   4.459   3.706 -1.0551  0.2903  0.1711
 2434TIP3    H1 7263   1.321   4.525   3.709 -1.0767  0.3883 -1.0891
 2434TIP3    H2 7264   1.269   4.402   3.781 -0.8884  1.5766  1.1316
 2435TIP3   OH2 7265   2.590   0.031   1.315  0.2063  0.1544 -0.2783
 2435TIP3    H1 7266   2.582   0.101   1.380 -0.8779  0.6178 -0.9027
 2435TIP3    H2 7267   2.503  -0.008   1.310  1.1184 -2.1048  0.9977
 2436TIP3   OH2 7268   1.540   0.552   3.223 -0.5250 -0.0283  0.0802
 2436TIP3    H1 7269   1.614   0.518   3.173  0.6895  0.5672  1.4116
 2436TIP3    H2 7270   1.506   0.623   3.169 -0.4813 -0.6677 -0.8028
 2437TIP3   OH2 7271   4.051   1.936   0.962 -1.0852  0.0768  0.0671
 2437TIP3    H1 7272   4.060   1.880   1.040  1.2882 -0.6896 -0.7164
 2437TIP3    H2 7273   4.073   2.024   0.994 -3.3400  0.3324  0.9686
 2438TIP3   OH2 7274   0.731   2.567   1.858 -0.4182  0.3711 -0.4168
 2438TIP3    H1 7275   0.685   2.607   1.932  0.9809  0.7306  0.2790
 2438TIP3    H2 7276   0.816   2.612   1.856  1.2476 -2.6016  0.4482
 2439TIP3   OH2 7277   1.087   1.169   1.892 -0.4051 -0.0508 -0.2145
 2439TIP3    H1 7278   1.115   1.232   1.958 -1.2113  0.6040 -0.5029
 2439TIP3    H2 7279   1.011   1.125   1.931  1.5905 -2.5843  1.0151
 2440TIP3   OH2 7280   0.963   0.657   2.589 -0.0975 -0.0249  0.0212
 2440TIP3    H1 7281   0.973   0.691   2.501  0.1127 -1.1720 -0.4088
 2440TIP3    H2 7282   1.014   0.717   2.644 -0.5885  0.9389 -0.5641
 2441TIP3   OH2 7283   2.292   2.799   2.746  0.2556 -0.3733 -0.1002
 2441TIP3    H1 7284   2.292   2.800   2.650 -1.0111 -0.2146 -0.0959
 2441TIP3    H2 7285   2.357   2.732   2.769  1.7552  0.7166 -1.0433
 2442TIP3   OH2 7286   4.430   3.116   3.624 -0.6907 -0.4614 -0.4910
 2442TIP3    H1 7287   4.395   3.043   3.573  0.7511 -1.0509 -0.6687
 2442TIP3    H2 7288   4.402   3.099   3.714  0.9822 -2.1007 -0.2556
 2443TIP3   OH2 7289   2.524   6.985   2.191  0.0964  0.8812  0.3602
 2443TIP3    H1 7290   2.443   6.971   2.143  0.0961  0.0743  0.5940
 2443TIP3    H2 7291   2.591   6.991   2.123 -0.1299  1.3285  0.1790
 2444TIP3   OH2 7292   3.309   4.340   1.713  0.1460  0.1854 -0.1610
 2444TIP3    H1 7293   3.352   4.301   1.637 -1.3282 -1.9218  0.0287
 2444TIP3    H2 7294   3.216   4.325   1.698 -0.1698 -0.3116  2.0582
 2445TIP3   OH2 7295   1.416   2.861   3.020  0.1243 -0.1727  0.0635
 2445TIP3    H1 7296   1.335   2.824   2.986 -0.2984  1.6549 -0.9725
 2445TIP3    H2 7297   1.470   2.877   2.942  0.1073  1.7949  0.4289
 2446TIP3   OH2 7298   4.485   3.246   3.970 -0.2794  0.4523  0.5569
 2446TIP3    H1 7299   4.543   3.284   3.905  0.7805  0.6043  1.5659
 2446TIP3    H2 7300   4.496   3.302   4.047  0.4457 -1.2277  1.6990
 2447TIP3   OH2 7301   0.727   7.076   5.797 -0.0267  0.1652 -0.5078
 2447TIP3    H1 7302   0.757   7.009   5.859  0.3576 -0.2461 -1.1313
 2447TIP3    H2 7303   0.723   7.031   5.713 -2.4451  0.1978 -0.4517
 2448TIP3   OH2 7304   1.142   1.617   2.734 -0.0109  0.4465 -0.4589
 2448TIP3    H1 7305   1.141   1.629   2.639 -1.1530 -1.2899 -0.6874
 2448TIP3    H2 7306   1.235   1.613   2.757  0.2791 -0.7259 -1.7415
 2449TIP3   OH2 7307   7.577   6.701   2.312  0.3302  0.1492 -0.2169
 2449TIP3    H1 7308   7.549   6.792   2.324  0.1126 -0.2435  2.3628
 2449TIP3    H2 7309   7.552   6.681   2.222 -4.0298  1.0961  0.6632
 2450TIP3   OH2 7310   2.396   3.317   4.305 -0.7617  0.2377 -0.0565
 2450TIP3    H1 7311   2.412   3.326   4.211 -0.7730  1.1506  0.0215
 2450TIP3    H2 7312   2.438   3.235   4.329  1.0451  1.0074 -0.4859
 2451TIP3   OH2 7313   4.202   4.724   3.842  0.7781 -0.0297  0.2912
 2451TIP3    H1 7314   4.147   4.664   3.892  1.1759 -1.1555 -0.5973
 2451TIP3    H2 7315   4.289   4.716   3.883  0.7779  0.1382  0.3275
 2452TIP3   OH2 7316   6.716   7.248   0.705 -0.0746  0.8023 -0.2997
 2452TIP3    H1 7317   6.800   7.203   0.708  0.8899  2.5612 -0.2611
 2452TIP3    H2 7318   6.732   7.325   0.651 -1.7130  1.0783 -0.4293
 2453TIP3   OH2 7319   1.382   0.297   5.101 -0.7588  0.2820  0.1166
 2453TIP3    H1 7320   1.435   0.255   5.033 -0.8902 -0.7089  0.6212
 2453TIP3    H2 7321   1.350   0.378   5.060  0.2152  0.3247 -0.5622
 2454TIP3   OH2 7322   4.430   5.354   4.259 -0.3618  0.4592 -0.2378
 2454TIP3    H1 7323   4.347   5.316   4.232 -0.3732  1.7500 -2.1985
 2454TIP3    H2 7324   4.490   5.280   4.267 -1.3738 -0.3435 -0.1456
 2455TIP3   OH2 7325   4.544   0.739   3.647  0.7343 -0.8644  0.9084
 2455TIP3    H1 7326   4.509   0.816   3.691  1.4730 -0.4308  0.7421
 2455TIP3    H2 7327   4.633   0.764   3.622  0.3703 -1.1422 -0.7369
 2456TIP3   OH2 7328   1.157   0.821   2.690  0.2972 -0.0675 -0.2925
 2456TIP3    H1 7329   1.246   0.838   2.660  0.6231  0.0513  0.7110
 2456TIP3    H2 7330   1.141   0.890   2.755 -0.0965 -0.7895  0.3729
 2457TIP3   OH2 7331   2.246   4.093   4.087  0.3922 -0.5835  0.1310
 2457TIP3    H1 7332   2.278   4.039   4.015  0.0233 -1.2277  0.4471
 2457TIP3    H2 7333   2.201   4.032   4.145 -0.3583  0.1236  0.3020
 2458TIP3   OH2 7334   0.324   3.089   3.400 -0.4345  0.1539 -0.2906
 2458TIP3    H1 7335   0.366   3.175   3.406  0.2925 -0.2402  0.3153
 2458TIP3    H2 7336   0.385   3.037   3.348  0.4516 -0.7833  1.6392
 2459TIP3   OH2 7337   3.329   2.961   2.607  0.3217  0.4588  0.9189
 2459TIP3    H1 7338   3.376   2.956   2.524  0.1598  2.8084  0.6458
 2459TIP3    H2 7339   3.246   3.004   2.586 -1.8247 -3.1254  1.4838
 2460TIP3   OH2 7340   2.843   3.150   4.963  0.4999  0.2244 -0.1748
 2460TIP3    H1 7341   2.754   3.120   4.982  0.7449  0.1772  0.8939
 2460TIP3    H2 7342   2.831   3.214   4.892 -0.3608  0.0798 -0.1749
 2461TIP3   OH2 7343   5.846   0.845   5.813  0.8176 -0.3980 -0.1035
 2461TIP3    H1 7344   5.936   0.867   5.839  1.7629 -2.6502 -1.3854
 2461TIP3    H2 7345   5.820   0.776   5.874  0.7304 -1.2304 -1.0819
 2462TIP3   OH2 7346   7.665   2.511   3.589  0.3681  0.0343 -0.5093
 2462TIP3    H1 7347   7.623   2.498   3.674  1.6194 -1.6499 -0.1286
 2462TIP3    H2 7348   7.594   2.499   3.525 -0.1931 -0.5846  0.2122
 2463TIP3   OH2 7349   3.712   0.627   1.103  0.2455  0.0379 -0.1962
 2463TIP3    H1 7350   3.780   0.685   1.138 -0.5336  0.7907  0.0964
 2463TIP3    H2 7351   3.634   0.646   1.157 -0.4214 -0.2114 -1.0614
 2464TIP3   OH2 7352   1.891   2.257   3.631 -0.0129  0.3801 -0.3195
 2464TIP3    H1 7353   1.899   2.273   3.726 -0.8134 -1.2215  0.0259
 2464TIP3    H2 7354   1.820   2.315   3.603 -0.5989 -0.0495  0.2831
 2465TIP3   OH2 7355   2.044   1.126   1.449  0.1909 -0.5568 -0.1781
 2465TIP3    H1 7356   2.112   1.189   1.473  0.0935 -0.4922 -0.0717
 2465TIP3    H2 7357   2.067   1.047   1.497  0.5629 -0.7435 -0.6532
 2466TIP3   OH2 7358   2.860   5.419   2.312  0.2979  0.5451 -0.5463
 2466TIP3    H1 7359   2.898   5.425   2.399 -1.1616 -1.4074  0.2703
 2466TIP3    H2 7360   2.767   5.441   2.324  0.1575  0.6010 -1.6538
 2467TIP3   OH2 7361   4.384   4.937   4.203 -0.2331 -0.2113 -0.0411
 2467TIP3    H1 7362   4.305   4.896   4.238 -0.3439  0.2502  0.2530
 2467TIP3    H2 7363   4.362   4.961   4.113 -0.7754  0.8585  0.3680
 2468TIP3   OH2 7364   5.458   4.013   6.263  0.3077 -0.0707 -0.3264
 2468TIP3    H1 7365   5.370   4.050   6.271  1.4993  3.2890 -1.6856
 2468TIP3    H2 7366   5.462   3.981   6.173 -0.3002 -2.5730  0.4822
 2469TIP3   OH2 7367   5.587   6.468   0.035  0.2422  0.6583 -0.2782
 2469TIP3    H1 7368   5.547   6.482   0.121 -0.5597  1.2012 -0.7350
 2469TIP3    H2 7369   5.653   6.400   0.050  2.1729  2.8209  1.3759
 2470TIP3   OH2 7370   1.713   2.071   1.918  0.1567 -0.1304 -0.2363
 2470TIP3    H1 7371   1.656   1.996   1.933  0.2080  0.1424  1.4084
 2470TIP3    H2 7372   1.801   2.040   1.942  0.1653  0.4702  0.5327
 2471TIP3   OH2 7373   4.562   5.291   0.293 -0.0872  0.6896 -0.1308
 2471TIP3    H1 7374   4.601   5.314   0.209 -1.0711 -0.4942 -0.9163
 2471TIP3    H2 7375   4.594   5.203   0.312 -1.1065  0.3317 -0.0310
 2472TIP3   OH2 7376   3.009   2.830   1.296 -0.3324  0.7890  0.1497
 2472TIP3    H1 7377   2.936   2.874   1.341 -0.8228  0.8992 -0.7403
 2472TIP3    H2 7378   2.983   2.738   1.293 -1.0201  1.0089 -1.2518
 2473TIP3   OH2 7379   2.083   0.382   3.132 -0.7508 -0.8065 -0.5971
 2473TIP3    H1 7380   2.092   0.457   3.073 -2.9255 -0.9428 -1.1311
 2473TIP3    H2 7381   2.024   0.411   3.201 -0.5412 -1.6111 -0.0578
 2474TIP3   OH2 7382   7.621   6.110   2.585 -1.0047  0.4523 -0.6329
 2474TIP3    H1 7383   7.655   6.139   2.670 -1.2939 -0.2512 -0.2708
 2474TIP3    H2 7384   7.609   6.016   2.595  0.0303  0.1851 -1.8314
 2475TIP3   OH2 7385   1.742   3.882   3.233 -0.3521  0.6334  0.2525
 2475TIP3    H1 7386   1.769   3.915   3.147  2.0902 -0.5634  0.5211
 2475TIP3    H2 7387   1.818   3.836   3.266 -1.7068 -0.0648  2.5204
 2476TIP3   OH2 7388   5.431   5.548   0.835 -0.1301 -0.2076 -0.3131
 2476TIP3    H1 7389   5.440   5.497   0.755  1.8159  1.2350 -1.0570
 2476TIP3    H2 7390   5.395   5.632   0.806  1.5407  0.6892  0.1546
 2477TIP3   OH2 7391   2.210   1.962   1.512 -0.2846 -0.5598  0.5174
 2477TIP3    H1 7392   2.233   1.936   1.601 -2.8820  0.9709  1.6845
 2477TIP3    H2 7393   2.180   1.881   1.470  1.6876 -1.4382  0.7545
 2478TIP3   OH2 7394   3.451   1.752   4.004  0.6616  0.2423 -0.1848
 2478TIP3    H1 7395   3.477   1.839   3.973  0.6672 -0.2262 -1.5318
 2478TIP3    H2 7396   3.431   1.703   3.924  0.3327 -0.8942  0.5816
 2479TIP3   OH2 7397   0.390   6.528   2.896  0.2208 -0.2775 -0.5084
 2479TIP3    H1 7398   0.340   6.609   2.886  1.0115  0.3038  0.1620
 2479TIP3    H2 7399   0.399   6.494   2.806 -0.4622  0.1632 -0.7461
 2480TIP3   OH2 7400   2.991   1.874   4.620  0.1204 -0.3628  0.0493
 2480TIP3    H1 7401   2.978   1.898   4.528  1.1057 -0.5483 -0.1480
 2480TIP3    H2 7402   2.960   1.950   4.669 -0.2516 -0.1938 -0.4424
 2481TIP3   OH2 7403   2.901   1.485   2.397  0.1776 -0.4721 -0.0458
 2481TIP3    H1 7404   2.900   1.560   2.337  0.7310 -1.4306 -1.2805
 2481TIP3    H2 7405   2.993   1.476   2.422 -0.0854  0.0808  1.1782
 2482TIP3   OH2 7406   1.679   3.136   2.989  0.6018 -0.2497  0.4352
 2482TIP3    H1 7407   1.718   3.223   2.999  1.5527 -0.6913  0.5691
 2482TIP3    H2 7408   1.643   3.136   2.901  0.9114  0.1570  0.3082
 2483TIP3   OH2 7409   2.760   2.119   2.991 -0.0017 -0.6030 -0.6048
 2483TIP3    H1 7410   2.677   2.115   2.944 -1.2486  1.7175  1.2482
 2483TIP3    H2 7411   2.808   2.191   2.950  0.9129 -1.6210 -1.3545
 2484TIP3   OH2 7412   2.573   0.752   3.934 -0.5779  0.5426  0.2175
 2484TIP3    H1 7413   2.604   0.790   3.852  1.6192  0.4799  0.9734
 2484TIP3    H2 7414   2.625   0.672   3.943  0.8539  1.6928  2.7465
 2485TIP3   OH2 7415   1.755   2.420   1.551  0.2322  0.1930  0.2760
 2485TIP3    H1 7416   1.712   2.349   1.598 -0.0605 -1.0357 -1.7590
 2485TIP3    H2 7417   1.758   2.390   1.460  3.8115  1.0254  0.0534
 2486TIP3   OH2 7418   2.503   1.956   2.586  0.1684  0.3809 -0.2892
 2486TIP3    H1 7419   2.417   1.915   2.578 -0.9050  2.4417  0.2744
 2486TIP3    H2 7420   2.494   2.039   2.538  0.9933  1.8669  2.0407
 2487TIP3   OH2 7421   2.007   2.602   4.020 -0.3867 -0.2493  0.1723
 2487TIP3    H1 7422   2.095   2.580   4.050  0.0461 -0.8260 -1.4721
 2487TIP3    H2 7423   1.998   2.556   3.937 -2.3194 -0.3484  0.4228
 2488TIP3   OH2 7424   2.109   2.871   1.303  0.1632  0.0751  0.2252
 2488TIP3    H1 7425   2.041   2.806   1.282  0.0833  0.9280 -2.2598
 2488TIP3    H2 7426   2.165   2.826   1.366  0.2206 -2.5196 -1.5833
 2489TIP3   OH2 7427   1.438   3.362   3.090 -0.3763  0.1885 -0.1367
 2489TIP3    H1 7428   1.501   3.417   3.136 -0.4713  0.8532 -0.7974
 2489TIP3    H2 7429   1.477   3.274   3.092  0.3019  0.4858 -0.0550
 2490TIP3   OH2 7430   6.397   2.820   1.593  0.3608  0.4485  0.0493
 2490TIP3    H1 7431   6.347   2.828   1.511 -1.5165 -0.7377  1.0497
 2490TIP3    H2 7432   6.406   2.726   1.606 -0.3828  0.6247  1.8381
 2491TIP3   OH2 7433   1.267   3.723   2.722  0.1612  0.2469  0.7320
 2491TIP3    H1 7434   1.328   3.721   2.648 -1.1868 -2.6957 -0.4120
 2491TIP3    H2 7435   1.294   3.649   2.777 -2.8942 -1.7675 -0.3295
 2492TIP3   OH2 7436   3.511   2.655   4.468 -0.9053  0.3842  0.3644
 2492TIP3    H1 7437   3.506   2.750   4.460 -2.1111  0.3603  0.6877
 2492TIP3    H2 7438   3.581   2.629   4.408  0.3000  1.5922  1.2280
 2493TIP3   OH2 7439   4.031   3.939   1.975 -0.0673  0.1653  0.5097
 2493TIP3    H1 7440   4.111   3.933   1.922  0.4837 -1.4243  1.4540
 2493TIP3    H2 7441   4.000   4.028   1.963  1.3639  0.5300 -0.5943
 2494TIP3   OH2 7442   1.608   7.189   3.709  0.5867 -0.2370 -0.0452
 2494TIP3    H1 7443   1.517   7.212   3.729  0.3217 -0.2365 -1.2294
 2494TIP3    H2 7444   1.660   7.252   3.759 -0.0525 -0.1974  0.5880
 2495TIP3   OH2 7445   2.169   1.064   1.174 -0.0795  0.1406  0.6863
 2495TIP3    H1 7446   2.249   1.116   1.179 -1.3473  2.1745  0.4021
 2495TIP3    H2 7447   2.142   1.052   1.265 -0.6107  1.3053  0.6848
 2496TIP3   OH2 7448   2.745   3.565   5.039  0.0404  0.1296 -0.0790
 2496TIP3    H1 7449   2.784   3.531   5.120  1.0371  0.3587 -0.4497
 2496TIP3    H2 7450   2.671   3.507   5.022  1.5210 -1.7243 -0.5290
 2497TIP3   OH2 7451   3.734   1.944   4.032 -0.2227  0.0468  0.6142
 2497TIP3    H1 7452   3.813   1.994   4.052  0.1012  0.1004 -0.7358
 2497TIP3    H2 7453   3.761   1.852   4.036 -0.1745  0.0564  0.5080
 2498TIP3   OH2 7454   3.278   0.810   3.239 -0.4008  0.2085 -0.2904
 2498TIP3    H1 7455   3.339   0.743   3.206 -0.7564  0.1195 -0.7731
 2498TIP3    H2 7456   3.202   0.760   3.269 -0.8711  0.4261 -1.1049
 2499TIP3   OH2 7457   4.294   1.536   2.203  0.0780 -0.0754 -0.3760
 2499TIP3    H1 7458   4.295   1.441   2.218 -1.3417 -0.0804 -0.2552
 2499TIP3    H2 7459   4.296   1.545   2.108 -0.8341 -0.2549 -0.4161
 2500TIP3   OH2 7460   2.618   1.313   3.115  0.5561 -0.3644 -0.2577
 2500TIP3    H1 7461   2.606   1.377   3.186  0.9649 -0.4258 -0.1323
 2500TIP3    H2 7462   2.690   1.258   3.144  0.8681 -0.2567 -0.8188
 2501TIP3   OH2 7463   3.426   0.858   4.103  0.0500 -0.2918 -0.0754
 2501TIP3    H1 7464   3.450   0.775   4.144  0.0828 -0.4098 -0.3358
 2501TIP3    H2 7465   3.497   0.876   4.041  0.2596  0.1407  0.2838
 2502TIP3   OH2 7466   6.931   5.928   0.114 -0.3239  0.1735 -0.0274
 2502TIP3    H1 7467   6.922   5.889   0.201  0.4466  0.1039  0.0196
 2502TIP3    H2 7468   6.916   6.021   0.128  2.6791  0.6035  0.6827
 2503TIP3   OH2 7469   5.085   1.398   3.275 -0.9009 -0.1105 -0.2584
 2503TIP3    H1 7470   5.157   1.352   3.232  1.0101  1.0718  1.5943
 2503TIP3    H2 7471   5.050   1.457   3.208  0.9064  0.4513 -0.7309
 2504TIP3   OH2 7472   4.347   0.662   2.769 -0.1595 -0.0923  0.1895
 2504TIP3    H1 7473   4.408   0.690   2.701 -1.9622  0.1114 -1.3856
 2504TIP3    H2 7474   4.380   0.576   2.797  0.8813  0.0452 -0.6075
 2505TIP3   OH2 7475   0.418   6.997   3.118 -0.6998  0.1430 -0.2076
 2505TIP3    H1 7476   0.328   6.973   3.096 -0.5241  0.8105 -1.7565
 2505TIP3    H2 7477   0.410   7.079   3.167 -1.0524 -0.9475  1.6030
 2506TIP3   OH2 7478   1.924   0.879   1.920 -0.2553  0.3721 -0.7151
 2506TIP3    H1 7479   2.002   0.848   1.966  0.7824  2.1784 -1.1643
 2506TIP3    H2 7480   1.873   0.925   1.986  0.4563  1.5887 -0.9798
 2507TIP3   OH2 7481   6.844   5.826   2.750 -0.3856 -1.2016  0.0937
 2507TIP3    H1 7482   6.885   5.886   2.813 -0.6263  0.9448 -1.7380
 2507TIP3    H2 7483   6.905   5.823   2.677 -1.9375 -0.5670 -1.2508
 2508TIP3   OH2 7484   2.824   1.698   5.339 -0.2830 -0.5745  0.3640
 2508TIP3    H1 7485   2.842   1.721   5.430 -0.0224 -1.4424  0.5384
 2508TIP3    H2 7486   2.900   1.646   5.312 -1.2854 -2.0120  0.2766
 2509TIP3   OH2 7487   3.133   0.409   2.983  0.0422  0.3938 -0.2638
 2509TIP3    H1 7488   3.178   0.492   2.967 -0.0302  0.5257  0.1937
 2509TIP3    H2 7489   3.103   0.380   2.897  0.5724  0.5516 -0.5041
 2510TIP3   OH2 7490   1.948   1.213   4.014  0.3289  0.2327  0.3381
 2510TIP3    H1 7491   2.030   1.182   4.053 -0.3998  0.3509  2.0024
 2510TIP3    H2 7492   1.903   1.133   3.987  0.2181  0.0520  1.0343
 2511TIP3   OH2 7493   1.649   0.817   5.910 -0.0533  0.2042  0.3872
 2511TIP3    H1 7494   1.635   0.738   5.962 -1.2197 -0.6258 -1.1201
 2511TIP3    H2 7495   1.658   0.785   5.820  3.2048  1.4868  0.2002
 2512TIP3   OH2 7496   4.551   1.832   3.840  0.5567  0.5445  0.3638
 2512TIP3    H1 7497   4.618   1.807   3.777  1.0038 -0.7111  1.3143
 2512TIP3    H2 7498   4.476   1.777   3.817 -0.9333  3.4158 -2.0336
 2513TIP3   OH2 7499   4.804   1.682   2.198  0.3250  0.3768  0.6608
 2513TIP3    H1 7500   4.896   1.662   2.213  0.6305  1.5679  0.4284
 2513TIP3    H2 7501   4.760   1.658   2.280  0.8590 -0.0118  0.8382
 2514TIP3   OH2 7502   1.615   3.251   1.822 -0.2463 -0.2887  0.1760
 2514TIP3    H1 7503   1.657   3.184   1.876  1.3448  0.8784  0.4266
 2514TIP3    H2 7504   1.599   3.324   1.881  0.9514  0.7629 -0.7462
 2515TIP3   OH2 7505   2.633   3.856   1.250 -0.1950 -0.1116 -0.0700
 2515TIP3    H1 7506   2.628   3.763   1.272 -0.3082 -0.3429 -1.0874
 2515TIP3    H2 7507   2.559   3.872   1.193  0.2438  0.4425 -0.4946
 2516TIP3   OH2 7508   1.689   5.812   4.103  0.2876 -0.0219  0.2706
 2516TIP3    H1 7509   1.613   5.842   4.053  1.7601  3.7724  0.1730
 2516TIP3    H2 7510   1.726   5.741   4.050  0.1110  1.9372 -2.5641
 2517TIP3   OH2 7511   3.207   2.314   5.769  0.4012  0.0832  0.4406
 2517TIP3    H1 7512   3.201   2.251   5.841  0.4534  0.8551  1.1262
 2517TIP3    H2 7513   3.118   2.318   5.732  0.9618 -2.3161 -1.2720
 2518TIP3   OH2 7514   2.746   2.797   3.777  0.0889  0.0154 -0.7728
 2518TIP3    H1 7515   2.720   2.706   3.769 -1.8078  0.3650  0.8380
 2518TIP3    H2 7516   2.745   2.831   3.688  0.5178 -1.4480 -1.3449
 2519TIP3   OH2 7517   2.386   2.141   1.438 -0.3868  0.5918 -0.3167
 2519TIP3    H1 7518   2.416   2.086   1.366  1.6081  0.9773  0.1803
 2519TIP3    H2 7519   2.306   2.100   1.469  0.2052 -1.0997 -0.9993
 2520TIP3   OH2 7520   2.825   3.620   4.600 -0.7301 -0.0553  0.4442
 2520TIP3    H1 7521   2.834   3.530   4.572 -2.0782 -0.8215  2.3445
 2520TIP3    H2 7522   2.735   3.627   4.633 -0.2385  1.6034  1.5534
 2521TIP3   OH2 7523   4.796   6.083   0.418 -0.6138 -0.5821  0.0784
 2521TIP3    H1 7524   4.780   6.006   0.473  1.2908 -0.0803  1.3989
 2521TIP3    H2 7525   4.825   6.047   0.335  1.3713 -1.3105  1.0536
 2522TIP3   OH2 7526   2.605   3.190   3.124 -0.7087 -0.6475 -0.0027
 2522TIP3    H1 7527   2.651   3.243   3.188 -0.4528 -1.5086  0.5354
 2522TIP3    H2 7528   2.541   3.140   3.176  0.7217 -2.6843 -0.1646
 2523TIP3   OH2 7529   0.511   2.887   2.928 -0.0277 -0.0028  0.1675
 2523TIP3    H1 7530   0.551   2.804   2.903 -0.2456 -0.3821  1.0766
 2523TIP3    H2 7531   0.419   2.866   2.942  0.1829  0.0995  1.7791
 2524TIP3   OH2 7532   3.294   3.017   4.349  0.3108  0.4154  0.0959
 2524TIP3    H1 7533   3.386   2.991   4.355  0.1619 -0.8616 -2.3150
 2524TIP3    H2 7534   3.245   2.940   4.378 -0.0057  1.4141  2.2748
 2525TIP3   OH2 7535   0.674   6.796   4.366  0.2971  0.4557 -0.3359
 2525TIP3    H1 7536   0.620   6.819   4.291 -1.0823  0.0476  0.5136
 2525TIP3    H2 7537   0.665   6.701   4.374 -0.6984  0.6484  1.1654
 2526TIP3   OH2 7538   2.895   2.187   1.557 -0.6112  0.7455  0.0803
 2526TIP3    H1 7539   2.829   2.118   1.564  1.9892 -1.7527  1.0949
 2526TIP3    H2 7540   2.890   2.217   1.467  0.6312 -3.4010 -1.4961
 2527TIP3   OH2 7541   1.338   4.093   4.103  0.1297 -0.3279 -0.3971
 2527TIP3    H1 7542   1.256   4.046   4.122  0.2551 -0.1398  0.6332
 2527TIP3    H2 7543   1.391   4.029   4.055 -0.5327 -0.5220 -0.8825
 2528TIP3   OH2 7544   2.938   5.058   4.450  0.5331 -0.1816  0.7403
 2528TIP3    H1 7545   2.846   5.031   4.453  1.3252 -2.9618  1.1937
 2528TIP3    H2 7546   2.965   5.063   4.542  0.7900  0.9375  0.6214
 2529TIP3   OH2 7547   2.595   3.168   1.766 -0.1809 -0.5729 -0.1894
 2529TIP3    H1 7548   2.672   3.132   1.810 -0.5096 -0.9393  0.0981
 2529TIP3    H2 7549   2.570   3.243   1.820 -0.9774 -1.4162  0.6488
 2530TIP3   OH2 7550   7.648   6.668   3.836  0.8294 -0.3992 -0.1706
 2530TIP3    H1 7551   7.631   6.647   3.744  0.9409 -0.2554 -0.2256
 2530TIP3    H2 7552   7.634   6.586   3.882 -0.0390 -0.2763 -0.2057
 2531TIP3   OH2 7553   0.786   6.884   3.749  0.6899  0.0708  0.6887
 2531TIP3    H1 7554   0.768   6.867   3.656  0.5529  0.7621  0.5906
 2531TIP3    H2 7555   0.880   6.902   3.751  0.4282  1.4943  0.4725
 2532TIP3   OH2 7556   7.272   7.329   1.159  0.1516  0.1259 -0.4249
 2532TIP3    H1 7557   7.178   7.314   1.163  0.0070  0.7265 -1.4483
 2532TIP3    H2 7558   7.301   7.283   1.080  0.6348  0.3370 -0.3746
 2533TIP3   OH2 7559   0.064   6.926   2.417  0.5710 -0.2506 -0.0023
 2533TIP3    H1 7560   0.099   7.014   2.403  0.6314 -0.2249  0.3136
 2533TIP3    H2 7561  -0.005   6.917   2.351  0.9226 -0.1651 -0.3764
 2534TIP3   OH2 7562   6.892   7.117   2.997 -0.3917  0.2645 -0.2245
 2534TIP3    H1 7563   6.927   7.070   2.921 -0.8049  2.8265 -2.0425
 2534TIP3    H2 7564   6.969   7.136   3.051  0.1640  0.1788 -0.9843
 2535TIP3   OH2 7565   1.757   0.472   3.067 -0.1233 -0.0813  0.0258
 2535TIP3    H1 7566   1.819   0.488   3.138 -0.4554  0.7503  0.1307
 2535TIP3    H2 7567   1.792   0.395   3.022  0.3452 -0.3253  0.7980
 2536TIP3   OH2 7568   0.749   6.604   5.355 -0.2016  0.7927 -0.5843
 2536TIP3    H1 7569   0.740   6.691   5.393 -1.0115 -0.0954  1.3305
 2536TIP3    H2 7570   0.761   6.546   5.430 -1.3117 -0.9596 -1.7150
 2537TIP3   OH2 7571   3.086   0.637   2.042 -0.5184  0.3662 -0.0432
 2537TIP3    H1 7572   3.163   0.644   1.985  0.4027  1.1298  1.2658
 2537TIP3    H2 7573   3.015   0.677   1.991  0.2312  0.7835 -0.7686
 2538TIP3   OH2 7574   2.159   3.629   1.960 -0.4984  0.1290  0.5352
 2538TIP3    H1 7575   2.238   3.632   2.014 -0.8559 -1.8691  1.1977
 2538TIP3    H2 7576   2.092   3.673   2.013 -0.9485 -2.1645  1.9509
 2539TIP3   OH2 7577   6.492   6.441   3.883 -0.0016 -0.1898 -0.0123
 2539TIP3    H1 7578   6.579   6.401   3.872 -0.2747 -0.6638 -0.5194
 2539TIP3    H2 7579   6.438   6.399   3.815 -0.2429  1.2278 -0.7202
 2540TIP3   OH2 7580   3.319   1.647   3.360 -0.0181 -0.3520  0.1924
 2540TIP3    H1 7581   3.342   1.559   3.331  2.6511 -0.1567  1.5707
 2540TIP3    H2 7582   3.315   1.640   3.456 -0.3376  0.8944  0.2774
 2541TIP3   OH2 7583   1.768   0.759   2.953  0.4011 -0.3104 -0.3783
 2541TIP3    H1 7584   1.733   0.783   3.038 -0.1644 -1.3712 -0.2992
 2541TIP3    H2 7585   1.774   0.663   2.956  0.8058 -0.3196 -1.3530
 2542TIP3   OH2 7586   1.292   2.314   1.863 -0.2725  0.1030 -0.1009
 2542TIP3    H1 7587   1.351   2.375   1.907  0.3015 -0.7099  0.2717
 2542TIP3    H2 7588   1.299   2.233   1.914 -0.3881 -0.5339 -1.0788
 2543TIP3   OH2 7589   3.526   0.145   3.428 -0.1587 -0.6559  0.7176
 2543TIP3    H1 7590   3.600   0.113   3.479  0.5662 -0.6728 -0.3374
 2543TIP3    H2 7591   3.564   0.171   3.344 -1.1777  0.3169  0.5435
 2544TIP3   OH2 7592   3.018   1.811   3.968 -0.2407  0.5416 -0.1029
 2544TIP3    H1 7593   3.046   1.892   4.009 -0.2743  0.7643 -0.5240
 2544TIP3    H2 7594   2.923   1.822   3.956 -0.2295  0.4788 -0.2470
 2545TIP3   OH2 7595   1.708   3.382   4.195  0.6710 -0.6381 -0.5127
 2545TIP3    H1 7596   1.628   3.434   4.199  0.5712 -0.9231  1.5114
 2545TIP3    H2 7597   1.678   3.294   4.170  0.3414 -0.7353  0.2009
 2546TIP3   OH2 7598   4.751   0.393   3.727 -0.7557 -0.0574 -0.3682
 2546TIP3    H1 7599   4.763   0.484   3.699  2.6079 -0.3091  0.1223
 2546TIP3    H2 7600   4.756   0.397   3.823 -0.0353 -0.8281 -0.3705
 2547TIP3   OH2 7601   3.437   3.828   3.161 -0.7167  0.1650  0.5906
 2547TIP3    H1 7602   3.381   3.751   3.159  0.6116 -0.8239  0.0044
 2547TIP3    H2 7603   3.521   3.795   3.193 -1.1186  2.0634  3.7268
 2548TIP3   OH2 7604   4.746   3.973   2.646  0.3664  0.0767  0.2839
 2548TIP3    H1 7605   4.734   4.065   2.671 -0.4784 -0.1235  0.6142
 2548TIP3    H2 7606   4.733   3.972   2.551 -2.4281 -0.1484  0.6317
 2549TIP3   OH2 7607   4.514   1.847   2.610 -0.1256  0.1797  0.0742
 2549TIP3    H1 7608   4.506   1.779   2.544  0.4342 -0.8210  1.0289
 2549TIP3    H2 7609   4.607   1.845   2.636 -0.4079  0.3215  1.1298
 2550TIP3   OH2 7610   2.391   3.035   2.864  0.4413 -0.2156  0.2120
 2550TIP3    H1 7611   2.415   3.066   2.777 -0.7397 -0.6602 -0.2781
 2550TIP3    H2 7612   2.355   2.947   2.850 -0.6567  0.0894  1.0106
 2551TIP3   OH2 7613   4.682   2.974   1.486  0.0526 -0.4101  0.3852
 2551TIP3    H1 7614   4.763   2.940   1.524  0.1808 -0.5051  0.0294
 2551TIP3    H2 7615   4.648   3.034   1.552  1.1847  0.7695 -0.0651
 2552TIP3   OH2 7616   1.702   2.666   0.884  0.2054 -0.1378 -0.4541
 2552TIP3    H1 7617   1.703   2.761   0.881  0.0301 -0.1682 -2.8323
 2552TIP3    H2 7618   1.776   2.640   0.829  0.4078 -1.3848  0.3845
 2553TIP3   OH2 7619   1.232   6.747   4.992  0.0036  0.1642  0.0016
 2553TIP3    H1 7620   1.280   6.829   5.004 -0.6563  0.3890  1.2380
 2553TIP3    H2 7621   1.255   6.694   5.068  0.0379 -0.6056 -0.5368
 2554TIP3   OH2 7622   3.178   2.819   0.944 -0.7760 -0.3382 -0.0433
 2554TIP3    H1 7623   3.175   2.787   0.854  1.4212 -0.1238 -0.2267
 2554TIP3    H2 7624   3.138   2.906   0.940 -1.2447 -0.5737 -0.6783
 2555TIP3   OH2 7625   4.502   3.027   0.326  0.4092 -0.1138  0.0942
 2555TIP3    H1 7626   4.563   2.985   0.387  0.2961 -0.6083 -0.1325
 2555TIP3    H2 7627   4.472   2.956   0.270  0.6919  0.3850 -0.6862
 2556TIP3   OH2 7628   3.284   0.212   2.508  0.6266 -0.0522  0.5733
 2556TIP3    H1 7629   3.373   0.190   2.537  0.4497 -0.7458  0.5846
 2556TIP3    H2 7630   3.250   0.132   2.470  0.2217  0.3831  0.0028
 2557TIP3   OH2 7631   6.944   2.075   2.512  0.1808 -0.1592  0.4552
 2557TIP3    H1 7632   6.910   2.163   2.531  0.4221 -0.3960  2.0606
 2557TIP3    H2 7633   6.901   2.019   2.576  0.4013 -1.1497 -0.2513
 2558TIP3   OH2 7634   4.364   1.327   3.429 -0.2955 -0.0891 -0.3671
 2558TIP3    H1 7635   4.402   1.239   3.426  0.4883  0.2513 -0.3741
 2558TIP3    H2 7636   4.410   1.371   3.500 -0.2662  0.5160 -0.7557
 2559TIP3   OH2 7637   4.584   2.236   3.417 -0.4866  0.3927 -0.4948
 2559TIP3    H1 7638   4.562   2.328   3.412  0.7800  0.8025  0.9628
 2559TIP3    H2 7639   4.563   2.211   3.508  0.5070 -0.3816 -0.4667
 2560TIP3   OH2 7640   5.207   3.339   1.201  0.8593 -0.6099  0.0882
 2560TIP3    H1 7641   5.112   3.349   1.208  1.0903  0.8425  1.2625
 2560TIP3    H2 7642   5.237   3.419   1.157  1.6865 -0.4386  0.9455
 2561TIP3   OH2 7643   3.740   1.004   0.518  0.4499 -0.1008 -0.5713
 2561TIP3    H1 7644   3.782   0.951   0.450  1.1159  0.5838 -0.6949
 2561TIP3    H2 7645   3.646   1.001   0.496  0.6967  0.4834 -1.7872
 2562TIP3   OH2 7646   5.433   1.038   2.799  0.8814 -0.4005  0.3239
 2562TIP3    H1 7647   5.374   1.106   2.831  0.3533 -0.3981 -0.6250
 2562TIP3    H2 7648   5.439   1.054   2.705  2.8345 -0.0609  0.4874
 2563TIP3   OH2 7649   4.281   1.718   3.455  0.6990  0.0610 -0.4435
 2563TIP3    H1 7650   4.274   1.693   3.363  1.6375 -0.2395 -0.4385
 2563TIP3    H2 7651   4.190   1.724   3.485  0.4426 -2.5395 -0.6464
 2564TIP3   OH2 7652   2.485   3.421   1.919  0.0071  0.1133 -0.1927
 2564TIP3    H1 7653   2.449   3.477   1.850  2.2188  1.2375 -0.4571
 2564TIP3    H2 7654   2.464   3.467   2.000  0.4362  0.5318 -0.3179
 2565TIP3   OH2 7655   4.860   4.747   3.426  0.4803  0.1800  0.4466
 2565TIP3    H1 7656   4.793   4.724   3.362  0.4244 -0.3407  0.6933
 2565TIP3    H2 7657   4.877   4.840   3.409  0.4380  0.0593 -0.2937
 2566TIP3   OH2 7658   3.902   1.818   4.301 -0.4346  0.0372  0.4051
 2566TIP3    H1 7659   3.948   1.823   4.385 -1.8416  1.1780  1.1169
 2566TIP3    H2 7660   3.942   1.742   4.256  1.7855  0.7041  1.2013
 2567TIP3   OH2 7661   5.994   0.652   2.998 -0.3757 -0.4076 -0.3033
 2567TIP3    H1 7662   6.021   0.576   3.050  1.5325  0.3802 -0.1065
 2567TIP3    H2 7663   5.908   0.627   2.962 -1.2165 -1.4156  2.2790
 2568TIP3   OH2 7664   3.147   1.251   4.708 -0.0139  0.1238 -0.1683
 2568TIP3    H1 7665   3.160   1.156   4.699  1.1392  0.2994 -0.5312
 2568TIP3    H2 7666   3.199   1.289   4.637  1.4557  1.1221  1.3826
 2569TIP3   OH2 7667   2.841   3.740   2.061 -0.6247 -0.5234 -0.3141
 2569TIP3    H1 7668   2.799   3.718   1.978  0.7555 -2.1078 -0.6306
 2569TIP3    H2 7669   2.866   3.832   2.051 -1.9168 -0.2326 -1.0082
 2570TIP3   OH2 7670   4.197   0.463   2.135 -0.1906  0.5137  0.5232
 2570TIP3    H1 7671   4.267   0.409   2.096 -0.0338 -0.3594  1.9528
 2570TIP3    H2 7672   4.116   0.425   2.100 -0.0220  0.2576  0.4033
 2571TIP3   OH2 7673   5.046   1.153   0.278 -0.3869  0.0651 -0.0960
 2571TIP3    H1 7674   5.100   1.229   0.254 -2.0221  0.5435 -2.3508
 2571TIP3    H2 7675   5.049   1.096   0.201 -1.3407 -0.9140  0.5833
 2572TIP3   OH2 7676   4.401   2.320   0.942  0.2292  0.5770 -0.4398
 2572TIP3    H1 7677   4.394   2.399   0.888 -0.1120  0.5500 -0.4355
 2572TIP3    H2 7678   4.441   2.255   0.884 -2.2861 -0.1488 -1.4124
 2573TIP3   OH2 7679   2.525   3.026   4.118  0.0618 -0.6622  0.0329
 2573TIP3    H1 7680   2.462   2.961   4.089 -0.9038  1.1797 -2.1435
 2573TIP3    H2 7681   2.560   3.063   4.037  0.7195  1.4179  1.2401
 2574TIP3   OH2 7682   3.437   3.631   1.637 -0.0914 -0.0063 -0.4305
 2574TIP3    H1 7683   3.384   3.552   1.650 -0.6087  0.5657  1.0424
 2574TIP3    H2 7684   3.374   3.701   1.624  0.3250  0.4247 -0.1684
 2575TIP3   OH2 7685   3.470   2.138   2.519  0.1548 -0.6564 -0.3361
 2575TIP3    H1 7686   3.382   2.109   2.540 -0.7432  2.8248  0.9952
 2575TIP3    H2 7687   3.464   2.171   2.429 -0.7264  2.4365  0.7905
 2576TIP3   OH2 7688   4.203   4.033   2.552 -0.2176  0.2004  0.3964
 2576TIP3    H1 7689   4.199   4.128   2.537 -2.0651 -0.1488 -1.5871
 2576TIP3    H2 7690   4.281   4.005   2.504  0.2308  0.6914  0.8365
 2577TIP3   OH2 7691   4.225   3.307   0.925 -0.1664  0.0953 -0.2142
 2577TIP3    H1 7692   4.154   3.246   0.945  0.0287 -0.0189  0.1413
 2577TIP3    H2 7693   4.182   3.385   0.892 -0.5332  0.5417  1.2814
 2578TIP3   OH2 7694   2.871   2.997   1.770  0.0562  0.0752 -0.2118
 2578TIP3    H1 7695   2.958   2.988   1.809 -0.0851  0.2349  0.1424
 2578TIP3    H2 7696   2.822   2.923   1.805 -0.1895  0.4478  0.2392
 2579TIP3   OH2 7697   4.296   2.473   0.718 -0.2457  0.4433 -0.0805
 2579TIP3    H1 7698   4.264   2.393   0.676 -0.7823  0.4597  0.2822
 2579TIP3    H2 7699   4.340   2.521   0.648  1.3487 -0.8398  0.0350
 2580TIP3   OH2 7700   4.999   3.899   4.164  0.0849 -0.1489 -0.5074
 2580TIP3    H1 7701   4.958   3.825   4.210 -1.1888  1.1958  0.5754
 2580TIP3    H2 7702   4.944   3.974   4.187  2.1111  1.3707 -0.5574
 2581TIP3   OH2 7703   4.989   1.631   1.548 -1.0547 -0.6648 -0.2665
 2581TIP3    H1 7704   4.992   1.725   1.529  2.2389 -0.0286  2.8917
 2581TIP3    H2 7705   5.035   1.591   1.474  0.2925  0.5500 -0.1161
 2582TIP3   OH2 7706   0.399   2.735   0.679 -0.0193 -0.2112 -0.6317
 2582TIP3    H1 7707   0.318   2.725   0.728  0.8370 -0.9755  0.6708
 2582TIP3    H2 7708   0.451   2.797   0.732  1.9052 -2.9116  0.7815
 2583TIP3   OH2 7709   3.011   3.589   2.225 -0.4200 -0.5112 -0.5777
 2583TIP3    H1 7710   2.940   3.648   2.197 -1.0385 -1.1258 -0.3230
 2583TIP3    H2 7711   2.966   3.511   2.256  0.4259 -1.3351 -1.4102
 2584TIP3   OH2 7712   2.397   1.478   4.343  0.1082 -0.3681 -0.5500
 2584TIP3    H1 7713   2.366   1.449   4.257  1.1995  0.4325 -1.2227
 2584TIP3    H2 7714   2.488   1.502   4.329 -0.3552  2.0062  0.3070
 2585TIP3   OH2 7715   5.462   3.307   1.518  0.0093  0.0500  0.2750
 2585TIP3    H1 7716   5.469   3.243   1.589  0.6374 -1.1508 -0.8462
 2585TIP3    H2 7717   5.414   3.261   1.449  0.9834  0.5816 -0.7671
 2586TIP3   OH2 7718   4.771   4.210   2.787  0.6595 -0.3921 -0.0082
 2586TIP3    H1 7719   4.826   4.214   2.865  2.4386  1.3475 -1.2723
 2586TIP3    H2 7720   4.682   4.227   2.819  1.1242 -1.2715  1.8196
 2587TIP3   OH2 7721   4.586   1.039   2.402  0.1836  0.2521 -0.0214
 2587TIP3    H1 7722   4.633   0.973   2.453 -2.1890 -1.8091 -0.3714
 2587TIP3    H2 7723   4.494   1.030   2.430 -0.5662  1.7082 -1.8823
 2588TIP3   OH2 7724   5.541   3.121   3.886  0.0579  0.3130  0.4003
 2588TIP3    H1 7725   5.467   3.070   3.919  1.0580 -1.1783  0.3618
 2588TIP3    H2 7726   5.615   3.061   3.887  1.3728  1.8818  0.7560
 2589TIP3   OH2 7727   3.616   2.770   1.992  0.0628  0.1942  0.0648
 2589TIP3    H1 7728   3.677   2.697   2.003  0.2651  0.6168  1.9077
 2589TIP3    H2 7729   3.622   2.793   1.899  0.1286 -2.0061 -0.4993
 2590TIP3   OH2 7730   5.375   3.614   4.388 -0.4932 -0.8637  0.2391
 2590TIP3    H1 7731   5.316   3.572   4.327  0.3010 -0.9800 -0.4635
 2590TIP3    H2 7732   5.411   3.689   4.339 -0.4355 -0.5036  0.8199
 2591TIP3   OH2 7733   5.774   1.225   1.511 -0.2927  0.5693 -0.4440
 2591TIP3    H1 7734   5.847   1.285   1.525  0.4121 -0.3364 -0.2264
 2591TIP3    H2 7735   5.720   1.269   1.445 -0.5731  2.1244  0.7779
 2592TIP3   OH2 7736   4.042   3.183   2.362  0.0985  0.0533 -0.2465
 2592TIP3    H1 7737   4.083   3.097   2.354  1.7284  0.6779  1.0216
 2592TIP3    H2 7738   3.981   3.174   2.435  0.3196 -0.0224 -0.0698
 2593TIP3   OH2 7739   5.458   3.002   0.425  0.1038 -0.6222  0.3463
 2593TIP3    H1 7740   5.406   2.951   0.363  0.6166 -2.4323  1.3880
 2593TIP3    H2 7741   5.411   2.996   0.508  1.0439 -0.8224  0.8772
 2594TIP3   OH2 7742   5.212   4.356   2.798 -0.0460 -0.1224 -0.0762
 2594TIP3    H1 7743   5.210   4.435   2.745 -1.2477 -0.0008  0.1367
 2594TIP3    H2 7744   5.144   4.370   2.864  0.7274 -0.7052  0.8660
 2595TIP3   OH2 7745   4.073   4.687   2.012  0.3844 -0.6236 -0.1750
 2595TIP3    H1 7746   4.029   4.732   1.940  0.0059 -0.0808  0.4010
 2595TIP3    H2 7747   4.154   4.653   1.973  1.1608  1.4127 -0.3522
 2596TIP3   OH2 7748   4.813   2.993   2.264  0.2494 -0.1966 -0.1155
 2596TIP3    H1 7749   4.842   2.953   2.183  0.4142  1.7869 -1.0592
 2596TIP3    H2 7750   4.873   3.067   2.277 -0.6371  0.3227  1.0738
 2597TIP3   OH2 7751   5.120   5.166   4.457 -0.0392 -0.0849 -0.0317
 2597TIP3    H1 7752   5.037   5.174   4.409 -0.1703 -1.3242 -0.0221
 2597TIP3    H2 7753   5.185   5.148   4.390  0.2381  0.9027 -0.0399
 2598TIP3   OH2 7754   4.789   4.613   0.189 -0.2812  0.1703 -0.3665
 2598TIP3    H1 7755   4.716   4.652   0.238  0.0808  0.4715 -0.0524
 2598TIP3    H2 7756   4.815   4.681   0.126 -0.1973  0.1152 -0.3916
 2599TIP3   OH2 7757   2.103   1.467   1.219  0.1758 -0.0530 -0.0806
 2599TIP3    H1 7758   2.185   1.453   1.265  0.9398 -0.4492 -1.5466
 2599TIP3    H2 7759   2.123   1.533   1.152 -0.6094 -0.3609 -0.6338
 2600TIP3   OH2 7760   3.074   4.566   1.456  0.2471  0.4327 -0.1562
 2600TIP3    H1 7761   3.141   4.617   1.503  3.4920 -0.8500 -3.2011
 2600TIP3    H2 7762   3.034   4.629   1.396  0.5139  0.6144 -0.1440
 2601TIP3   OH2 7763   3.529   3.265   1.640 -0.1941  0.2213  0.0421
 2601TIP3    H1 7764   3.475   3.263   1.561  0.6964  0.2484 -0.5786
 2601TIP3    H2 7765   3.467   3.275   1.711 -0.9727  0.7515 -0.7004
 2602TIP3   OH2 7766   4.020   2.906   5.131 -0.0770 -0.7081  0.0614
 2602TIP3    H1 7767   4.030   2.823   5.178 -1.3639 -0.9680 -0.1150
 2602TIP3    H2 7768   4.019   2.882   5.039  1.5933 -0.2768 -0.0987
 2603TIP3   OH2 7769   1.855   3.727   2.367 -0.0872 -0.1275 -0.0149
 2603TIP3    H1 7770   1.779   3.676   2.395  0.1963 -1.1179 -1.0207
 2603TIP3    H2 7771   1.902   3.747   2.448 -1.2652  0.2673  0.5877
 2604TIP3   OH2 7772   4.519   3.017   2.270 -0.2277  0.3453 -0.0124
 2604TIP3    H1 7773   4.513   3.112   2.257 -0.6865  0.2589 -0.4319
 2604TIP3    H2 7774   4.613   3.000   2.276 -0.2117  1.1042  2.2654
 2605TIP3   OH2 7775   4.783   3.089   3.914  0.4889  0.2578 -0.3319
 2605TIP3    H1 7776   4.787   2.996   3.895  0.0363  0.1029  0.3300
 2605TIP3    H2 7777   4.786   3.131   3.828  0.8271 -0.3569 -0.6240
 2606TIP3   OH2 7778   7.273   6.595   6.311 -0.0168 -0.0400 -0.2569
 2606TIP3    H1 7779   7.272   6.581   6.217  0.5396 -0.4809 -0.1982
 2606TIP3    H2 7780   7.266   6.508   6.349  1.9789 -0.0659  0.1057
 2607TIP3   OH2 7781   2.979   1.768   0.826 -0.0426 -0.2424  0.2624
 2607TIP3    H1 7782   3.044   1.766   0.756 -1.1770 -0.0590 -0.8242
 2607TIP3    H2 7783   2.976   1.859   0.854 -0.4542 -0.0920 -0.2774
 2608TIP3   OH2 7784   4.521   1.250   2.684  0.1525  0.6194 -0.0333
 2608TIP3    H1 7785   4.541   1.309   2.757  0.3038  3.2289 -2.1289
 2608TIP3    H2 7786   4.481   1.173   2.726  0.6980  1.8308  2.8298
 2609TIP3   OH2 7787   3.781   0.492   4.241  0.3125 -0.2409  0.4458
 2609TIP3    H1 7788   3.813   0.470   4.154  0.5581  0.0438  0.4641
 2609TIP3    H2 7789   3.780   0.408   4.288 -0.4444 -0.5000 -0.0302
 2610TIP3   OH2 7790   3.372   4.109   2.270 -0.1876 -0.0721 -0.1159
 2610TIP3    H1 7791   3.410   4.159   2.198 -3.2848  0.1340 -1.6911
 2610TIP3    H2 7792   3.303   4.056   2.229 -2.0458  0.0869  2.6494
 2611TIP3   OH2 7793   4.541   0.716   3.358 -0.5577  0.2566 -0.2740
 2611TIP3    H1 7794   4.501   0.630   3.345 -0.6315  0.5498 -2.2088
 2611TIP3    H2 7795   4.527   0.736   3.450  0.1048 -2.1332  0.3893
 2612TIP3   OH2 7796   5.437   0.057   3.206  0.5554  0.8581  0.4941
 2612TIP3    H1 7797   5.394  -0.003   3.144 -0.1210  1.2824  0.5394
 2612TIP3    H2 7798   5.424   0.144   3.167  0.4066  1.0946  1.0692
 2613TIP3   OH2 7799   2.955   2.306   1.995 -0.7492 -0.0842 -0.2989
 2613TIP3    H1 7800   2.897   2.237   1.964 -1.5803  0.1964  0.6076
 2613TIP3    H2 7801   3.011   2.263   2.060 -1.1937  0.0652  0.1859
 2614TIP3   OH2 7802   2.155   7.007   3.135  0.2269 -0.2726  0.3688
 2614TIP3    H1 7803   2.122   7.006   3.225 -0.2878  0.8347  0.1939
 2614TIP3    H2 7804   2.104   6.939   3.090 -0.2350 -0.1192  0.6579
 2615TIP3   OH2 7805   4.416   1.481   1.457 -0.2858 -0.2758  0.1703
 2615TIP3    H1 7806   4.417   1.491   1.552 -1.6327 -0.4910  0.2140
 2615TIP3    H2 7807   4.364   1.402   1.443  0.4565 -0.6120 -0.7190
 2616TIP3   OH2 7808   0.144   7.161   1.278 -0.0995  0.1236  0.7632
 2616TIP3    H1 7809   0.100   7.241   1.308 -0.9901 -0.7690  1.9184
 2616TIP3    H2 7810   0.115   7.094   1.339  0.9114 -1.0220  0.0117
 2617TIP3   OH2 7811   3.844   2.931   1.187 -0.0791 -0.0022 -0.4127
 2617TIP3    H1 7812   3.845   2.839   1.213 -0.8069  0.4515  1.2805
 2617TIP3    H2 7813   3.809   2.930   1.098  2.5926 -1.5942 -1.5075
 2618TIP3   OH2 7814   3.030   3.245   2.594 -0.1110 -0.2740 -0.0740
 2618TIP3    H1 7815   3.027   3.338   2.572  0.5031 -0.6848 -1.9889
 2618TIP3    H2 7816   3.117   3.231   2.631 -0.1228 -0.1511  0.0002
 2619TIP3   OH2 7817   3.431   1.319   0.028 -0.3019 -0.5224 -0.0131
 2619TIP3    H1 7818   3.460   1.405   0.058 -1.7099  0.6411 -1.8360
 2619TIP3    H2 7819   3.397   1.276   0.106  1.8152 -0.0344  1.2014
 2620TIP3   OH2 7820   4.140   0.248   1.066 -0.1784  0.0345  0.4435
 2620TIP3    H1 7821   4.107   0.290   1.145  0.1434  0.3443  0.4200
 2620TIP3    H2 7822   4.140   0.319   1.001  2.6238  0.6375  1.0297
 2621TIP3   OH2 7823   2.983   1.852   1.685  0.1247  0.1065  0.4364
 2621TIP3    H1 7824   2.901   1.806   1.702 -0.2840 -0.4022 -2.5359
 2621TIP3    H2 7825   3.040   1.829   1.759 -1.1292 -2.6240  0.6151
 2622TIP3   OH2 7826   7.691   5.691   2.479  0.6374 -0.1986  0.1616
 2622TIP3    H1 7827   7.738   5.616   2.442 -2.1345 -1.5463 -0.8118
 2622TIP3    H2 7828   7.600   5.662   2.482 -0.3265  2.7793  0.7628
 2623TIP3   OH2 7829   3.022   1.057   0.204 -0.2016  0.9414 -0.0088
 2623TIP3    H1 7830   3.106   1.014   0.185 -0.0971  1.1917 -0.1161
 2623TIP3    H2 7831   2.956   0.997   0.171 -0.0885  0.3994  0.7354
 2624TIP3   OH2 7832   5.491   3.746   0.974  0.3018  0.0257  0.2090
 2624TIP3    H1 7833   5.517   3.825   1.020 -1.2572  0.1699  0.8706
 2624TIP3    H2 7834   5.473   3.774   0.885  3.0834 -0.2078 -0.4568
 2625TIP3   OH2 7835   2.727   3.118   2.041 -0.3267  0.0138 -0.5990
 2625TIP3    H1 7836   2.732   3.024   2.053 -1.8057 -0.2322 -1.7634
 2625TIP3    H2 7837   2.658   3.147   2.101  0.9016  0.5443  0.6039
 2626TIP3   OH2 7838   1.817   0.716   4.095  0.4386  0.1985 -0.5660
 2626TIP3    H1 7839   1.908   0.739   4.110  0.4796 -0.8369  0.9057
 2626TIP3    H2 7840   1.819   0.622   4.075 -0.6248 -0.7775  3.3741
 2627TIP3   OH2 7841   4.925   2.469   3.553 -0.4201 -0.2837 -0.1540
 2627TIP3    H1 7842   5.012   2.508   3.562 -0.8278  0.5181  0.3523
 2627TIP3    H2 7843   4.879   2.528   3.493 -1.1645  0.2184  0.9113
 2628TIP3   OH2 7844   3.622   3.153   2.176 -0.5481  0.0950  0.4150
 2628TIP3    H1 7845   3.672   3.075   2.150 -0.7136 -0.4326  1.6620
 2628TIP3    H2 7846   3.533   3.135   2.145 -0.5330 -0.0993  0.4837
 2629TIP3   OH2 7847   4.739   3.735   2.753 -0.4773 -0.2145 -0.0851
 2629TIP3    H1 7848   4.746   3.807   2.690  0.4523  0.6588  0.9995
 2629TIP3    H2 7849   4.826   3.695   2.753  0.6975  2.1439  3.3895
 2630TIP3   OH2 7850   2.478   7.163   1.458 -0.3915  0.3493 -0.3559
 2630TIP3    H1 7851   2.487   7.176   1.363  1.7042  0.1878 -0.2068
 2630TIP3    H2 7852   2.559   7.199   1.494 -0.5261 -0.9292  1.2401
 2631TIP3   OH2 7853   4.687   2.812   2.917  0.1682 -0.4488 -0.3116
 2631TIP3    H1 7854   4.736   2.737   2.882  0.8401  0.4762 -1.3965
 2631TIP3    H2 7855   4.724   2.888   2.871 -0.8598  0.4889  0.3955
 2632TIP3   OH2 7856   4.024   2.190   3.258  0.7479  0.0691  0.1582
 2632TIP3    H1 7857   4.088   2.135   3.303  1.4850 -0.8672 -1.9303
 2632TIP3    H2 7858   3.939   2.159   3.291  1.0808 -3.1598 -1.7216
 2633TIP3   OH2 7859   1.602   7.129   2.224 -0.6900  0.3121  0.0716
 2633TIP3    H1 7860   1.618   7.051   2.277  0.8559  0.2347 -0.4918
 2633TIP3    H2 7861   1.548   7.185   2.280 -0.4456 -0.4683  1.1039
 2634TIP3   OH2 7862   3.526   1.778   0.809  0.0038 -0.2453 -0.6641
 2634TIP3    H1 7863   3.585   1.785   0.734 -1.7093  0.1651 -2.0059
 2634TIP3    H2 7864   3.533   1.687   0.837  1.4560 -0.1336 -0.6511
 2635TIP3   OH2 7865   2.650   0.659   2.777  0.2445  0.1740  0.6145
 2635TIP3    H1 7866   2.689   0.595   2.836 -0.7046  0.8302  1.9728
 2635TIP3    H2 7867   2.573   0.615   2.740  0.2612  0.1178  0.6482
 2636TIP3   OH2 7868   3.695   2.413   3.047 -0.1774 -0.4738  0.5460
 2636TIP3    H1 7869   3.769   2.418   2.986  0.1328 -2.1712  0.7735
 2636TIP3    H2 7870   3.674   2.320   3.052 -1.8588 -0.0854  1.0612
 2637TIP3   OH2 7871   3.821   3.478   4.771 -0.5469 -0.1586 -0.4912
 2637TIP3    H1 7872   3.908   3.488   4.733  0.0835  0.0594  0.9745
 2637TIP3    H2 7873   3.836   3.435   4.856 -1.6584  1.6609  0.6621
 2638TIP3   OH2 7874   5.248   1.008   1.280  0.3303  0.3135 -0.4599
 2638TIP3    H1 7875   5.165   1.042   1.314  1.1164  1.0318  0.8123
 2638TIP3    H2 7876   5.243   1.021   1.186 -0.8064  0.8048 -0.3382
 2639TIP3   OH2 7877   4.727   3.663   4.047  0.3720 -0.3957 -0.1104
 2639TIP3    H1 7878   4.779   3.696   3.974  0.6007 -0.3062  0.0916
 2639TIP3    H2 7879   4.779   3.685   4.125  0.0501 -0.3402  0.0889
 2640TIP3   OH2 7880   0.592   2.463   0.905  0.3641 -0.5384 -0.3788
 2640TIP3    H1 7881   0.638   2.388   0.944  0.4128  0.5898  1.8482
 2640TIP3    H2 7882   0.657   2.503   0.847  0.8593 -1.2970 -0.3512
 2641TIP3   OH2 7883   5.145   3.183   2.592 -0.3222  0.1000  0.0028
 2641TIP3    H1 7884   5.206   3.111   2.577  1.4250  1.3187  1.1396
 2641TIP3    H2 7885   5.200   3.256   2.619 -2.1277  1.7121 -0.5574
 2642TIP3   OH2 7886   3.254   3.272   3.276  0.3014  0.3428 -0.1356
 2642TIP3    H1 7887   3.177   3.224   3.245 -0.5621  1.0349  0.9204
 2642TIP3    H2 7888   3.226   3.314   3.357  2.2518 -0.6357  1.0949
 2643TIP3   OH2 7889   3.400   1.621   2.546  0.0860 -0.2812  0.7268
 2643TIP3    H1 7890   3.401   1.637   2.640  1.1554 -0.6297  0.7811
 2643TIP3    H2 7891   3.461   1.548   2.533 -0.8506 -0.9419 -0.1111
 2644TIP3   OH2 7892   5.365   3.050   2.539 -0.2819  0.1792 -0.4244
 2644TIP3    H1 7893   5.373   2.954   2.535 -2.1805 -0.0537  0.6160
 2644TIP3    H2 7894   5.430   3.082   2.477 -0.7447 -1.8487 -2.0295
 2645TIP3   OH2 7895   4.543   3.162   1.326 -0.3984 -0.5133 -0.2847
 2645TIP3    H1 7896   4.596   3.090   1.360 -2.8899 -2.1024  0.3472
 2645TIP3    H2 7897   4.509   3.206   1.403  0.0418  0.5439 -0.6814
 2646TIP3   OH2 7898   3.290   3.596   2.700  0.7996 -0.1874 -0.5417
 2646TIP3    H1 7899   3.236   3.554   2.633 -0.6901 -0.3583  0.7424
 2646TIP3    H2 7900   3.371   3.620   2.654 -0.8080  1.1385 -2.7783
 2647TIP3   OH2 7901   4.077   3.181   5.148  0.0682 -0.6140  0.4605
 2647TIP3    H1 7902   4.171   3.179   5.134  0.2803 -1.0013  1.9450
 2647TIP3    H2 7903   4.052   3.090   5.160 -0.7081 -0.6459 -1.2015
 2648TIP3   OH2 7904   4.291   1.341   3.158  0.1003  0.3432  0.1597
 2648TIP3    H1 7905   4.223   1.275   3.144  1.7016 -1.2179 -0.4238
 2648TIP3    H2 7906   4.323   1.323   3.247  0.7135  0.1560 -0.0978
 2649TIP3   OH2 7907   4.931   3.632   2.995  0.5376 -0.4106 -0.3363
 2649TIP3    H1 7908   4.849   3.615   3.039  1.0208  1.0908  1.2027
 2649TIP3    H2 7909   4.995   3.642   3.065  1.4800  1.1824 -1.3850
 2650TIP3   OH2 7910   0.341   0.632   5.988  0.5818  0.5944  0.1298
 2650TIP3    H1 7911   0.369   0.670   6.071  1.3799 -1.7613  0.9963
 2650TIP3    H2 7912   0.403   0.667   5.924  1.5252  0.4790  0.9559
 2651TIP3   OH2 7913   3.998   1.679   3.917  1.1842  0.7488  0.2438
 2651TIP3    H1 7914   3.916   1.640   3.947  1.1022 -0.5724 -1.6252
 2651TIP3    H2 7915   3.980   1.772   3.911 -0.8742  0.2333 -2.2632
 2652TIP3   OH2 7916   6.189   2.752   0.451  0.3074 -0.2908 -0.3118
 2652TIP3    H1 7917   6.173   2.657   0.445  0.4177 -0.2729 -0.9691
 2652TIP3    H2 7918   6.123   2.783   0.513  0.3433 -0.8191 -0.0081
 2653TIP3   OH2 7919   1.990   3.792   2.137  0.0068  0.1157  0.5517
 2653TIP3    H1 7920   1.953   3.880   2.143 -2.0254 -0.7426  1.1485
 2653TIP3    H2 7921   1.941   3.741   2.202  1.4794 -1.3398  0.5468
 2654TIP3   OH2 7922   2.731   2.506   0.659  0.3451 -0.2824 -0.5384
 2654TIP3    H1 7923   2.716   2.600   0.655 -1.9109 -0.5258  1.1858
 2654TIP3    H2 7924   2.823   2.497   0.685  0.2141  1.4523  0.5559
 2655TIP3   OH2 7925   2.170   0.589   1.951 -0.0020 -0.2415  0.4097
 2655TIP3    H1 7926   2.228   0.513   1.948  0.4767  0.1373 -0.2054
 2655TIP3    H2 7927   2.125   0.588   1.866 -1.0088 -0.6162  0.9420
 2656TIP3   OH2 7928   1.126   7.316   3.555  0.3547  0.2238 -0.3701
 2656TIP3    H1 7929   1.042   7.269   3.557  0.5554 -0.1232  0.0110
 2656TIP3    H2 7930   1.169   7.285   3.476  0.1693  0.3276 -0.5145
 2657TIP3   OH2 7931   4.337   1.282   2.296  0.0372 -0.2658 -0.1168
 2657TIP3    H1 7932   4.287   1.299   2.377 -1.1100 -1.2639 -0.5980
 2657TIP3    H2 7933   4.428   1.282   2.324 -0.2768  0.5424  0.9793
 2658TIP3   OH2 7934   4.191   2.813   3.631  0.5698  0.2165  0.2059
 2658TIP3    H1 7935   4.281   2.793   3.602  0.7031 -1.9080  1.9940
 2658TIP3    H2 7936   4.201   2.842   3.721 -0.4927  0.7090  0.1703
 2659TIP3   OH2 7937   5.679   3.149   2.154  0.4033  0.0967  0.2967
 2659TIP3    H1 7938   5.595   3.177   2.118 -0.5645 -4.2116 -1.1103
 2659TIP3    H2 7939   5.741   3.161   2.082 -0.0410 -1.4310 -0.3593
 2660TIP3   OH2 7940   4.927   2.225   2.287 -0.5957  0.1186 -0.1956
 2660TIP3    H1 7941   4.958   2.202   2.200  1.2059 -1.1287  0.7518
 2660TIP3    H2 7942   4.841   2.183   2.294 -0.6918  0.1147 -1.2996
 2661TIP3   OH2 7943   3.674   3.375   2.709  0.0209  0.0033 -0.4933
 2661TIP3    H1 7944   3.729   3.310   2.665  1.1815  0.5665  0.1095
 2661TIP3    H2 7945   3.627   3.325   2.775  1.3955 -0.1384  0.4064
 2662TIP3   OH2 7946   3.174   0.680   2.819  0.6268  0.5388 -0.0143
 2662TIP3    H1 7947   3.082   0.694   2.795  0.2552 -2.0240 -0.1933
 2662TIP3    H2 7948   3.183   0.723   2.904 -0.9749  0.0665  0.4204
 2663TIP3   OH2 7949   2.421   3.162   2.618 -0.3248 -0.3454 -0.1529
 2663TIP3    H1 7950   2.348   3.224   2.619  0.4792  0.6493 -1.1012
 2663TIP3    H2 7951   2.397   3.098   2.550 -1.4917 -1.5182  1.3327
 2664TIP3   OH2 7952   4.733   1.472   2.732  0.0245  0.2602 -0.6326
 2664TIP3    H1 7953   4.791   1.512   2.668  1.0243 -0.4811 -0.2012
 2664TIP3    H2 7954   4.680   1.544   2.766 -1.2907  0.4976 -3.0665
 2665TIP3   OH2 7955   1.841   2.905   4.260  0.3907 -0.6628 -0.0561
 2665TIP3    H1 7956   1.753   2.924   4.292  1.6392 -0.4146  3.3688
 2665TIP3    H2 7957   1.837   2.814   4.232 -1.1245 -0.4265 -0.6685
 2666TIP3   OH2 7958   2.351   4.004   2.313  0.0633  0.5019  0.2431
 2666TIP3    H1 7959   2.283   3.991   2.247 -1.2351 -1.2690  1.8807
 2666TIP3    H2 7960   2.426   3.956   2.279 -0.2646  0.4711 -0.4528
 2667TIP3   OH2 7961   2.506   1.442   0.472  0.2066 -0.3217  0.0373
 2667TIP3    H1 7962   2.428   1.497   0.467  1.1738  1.4092  3.1402
 2667TIP3    H2 7963   2.565   1.478   0.405  0.1387  1.3353  0.8455
 2668TIP3   OH2 7964   3.650   2.882   0.634  0.3750 -0.8247 -0.2638
 2668TIP3    H1 7965   3.588   2.886   0.707 -1.4675 -2.2349 -1.6922
 2668TIP3    H2 7966   3.677   2.790   0.630 -0.3199 -0.9672 -1.9668
 2669TIP3   OH2 7967   4.678   3.897   2.977  0.4286 -0.4766 -0.8090
 2669TIP3    H1 7968   4.600   3.849   3.006 -1.4684  1.9571 -1.6274
 2669TIP3    H2 7969   4.694   3.865   2.889 -1.2540  0.8276 -1.6222
 2670TIP3   OH2 7970   1.964   6.891   2.585 -0.0565 -0.3660 -0.1342
 2670TIP3    H1 7971   1.872   6.867   2.594 -0.6838  2.6536  2.2247
 2670TIP3    H2 7972   2.011   6.828   2.640 -0.7765 -1.3987 -0.6847
 2671TIP3   OH2 7973   2.771   2.349   2.518  0.4283  0.0406 -0.0198
 2671TIP3    H1 7974   2.834   2.315   2.455 -0.9138  0.1081 -1.4434
 2671TIP3    H2 7975   2.785   2.443   2.519 -2.0647  0.5474 -3.1704
 2672TIP3   OH2 7976   3.342   1.215   2.433 -0.1496 -0.5284  0.1363
 2672TIP3    H1 7977   3.386   1.225   2.517 -1.0319 -0.1537  0.5566
 2672TIP3    H2 7978   3.290   1.135   2.442 -1.6611  0.4830  0.5903
 2673TIP3   OH2 7979   4.534   2.115   2.528  0.5612  0.3041 -0.7734
 2673TIP3    H1 7980   4.494   2.028   2.531  0.1116  0.5294  0.1355
 2673TIP3    H2 7981   4.606   2.110   2.591 -1.9121  1.7454  2.3045
 2674TIP3   OH2 7982   5.417   2.382   2.826  0.0098 -0.5203  0.4399
 2674TIP3    H1 7983   5.403   2.296   2.786  0.6613 -1.2032  1.6429
 2674TIP3    H2 7984   5.335   2.429   2.812  0.8055 -0.0403 -3.3209
 2675TIP3   OH2 7985   4.335   4.161   0.093 -0.0952 -0.5668  0.1020
 2675TIP3    H1 7986   4.313   4.111   0.014  1.0965  1.1343 -1.3314
 2675TIP3    H2 7987   4.430   4.162   0.096 -0.1170  0.6391  0.7582
 2676TIP3   OH2 7988   3.865   4.116   2.480 -0.3430 -0.1448 -0.4995
 2676TIP3    H1 7989   3.936   4.099   2.542 -0.1779 -0.3136 -0.7319
 2676TIP3    H2 7990   3.900   4.089   2.395 -0.9146 -0.8394 -0.5205
 2677TIP3   OH2 7991   4.264   3.585   1.914 -0.0181  0.2127 -0.2650
 2677TIP3    H1 7992   4.349   3.609   1.949  0.4081 -2.3616  0.5891
 2677TIP3    H2 7993   4.204   3.592   1.988  0.2712 -2.0551  0.2212
 2678TIP3   OH2 7994   2.175   3.053   3.199 -0.8774  0.3828 -0.5372
 2678TIP3    H1 7995   2.102   3.112   3.218 -2.1105 -1.3318  0.2311
 2678TIP3    H2 7996   2.193   3.067   3.106 -0.4872  2.6468 -0.1489
 2679TIP3   OH2 7997   1.497   7.104   3.460  0.2461 -0.1379 -0.5314
 2679TIP3    H1 7998   1.555   7.093   3.536 -2.1990  1.2968  1.6210
 2679TIP3    H2 7999   1.524   7.188   3.422  0.5905 -0.2126 -0.4574
 2680TIP3   OH2 8000   4.073   4.314   2.264  0.4102  0.2320 -0.2860
 2680TIP3    H1 8001   4.036   4.227   2.250 -0.3612  0.3723  0.8017
 2680TIP3    H2 8002   4.092   4.317   2.358  0.0268  1.3926 -0.2359
 2681TIP3   OH2 8003   4.158   0.126   3.046  0.2410 -0.5951  0.3786
 2681TIP3    H1 8004   4.100   0.171   3.107  1.9548  0.0183  1.5998
 2681TIP3    H2 8005   4.218   0.194   3.015 -1.7381 -0.4530 -3.5121
 2682TIP3   OH2 8006   2.595   3.601   1.705  0.6177  0.5905 -0.3305
 2682TIP3    H1 8007   2.566   3.521   1.659 -0.9536  0.4219  0.8889
 2682TIP3    H2 8008   2.514   3.636   1.743  1.4946  2.1481  0.1050
 2683TIP3   OH2 8009   4.384   3.222   0.493  0.5872  0.3756  0.4153
 2683TIP3    H1 8010   4.424   3.173   0.421 -1.8815  0.3739 -1.0076
 2683TIP3    H2 8011   4.455   3.235   0.555  2.3558 -1.1584 -1.2140
 2684TIP3   OH2 8012   4.548   2.772   1.386 -0.5299 -0.5407  0.1563
 2684TIP3    H1 8013   4.592   2.856   1.374  0.1252 -0.6938  1.3732
 2684TIP3    H2 8014   4.557   2.754   1.479 -0.4853 -2.0703 -0.1416
 2685TIP3   OH2 8015   4.741   3.431   4.221  0.0870 -0.4761  0.3694
 2685TIP3    H1 8016   4.653   3.393   4.222  0.1327 -0.5683  0.8898
 2685TIP3    H2 8017   4.732   3.513   4.173 -0.2540 -0.5547  0.3028
 2686TIP3   OH2 8018   5.599   2.444   0.838 -0.2417  0.1095 -0.1944
 2686TIP3    H1 8019   5.512   2.476   0.864 -0.8782 -1.6656 -0.0271
 2686TIP3    H2 8020   5.602   2.458   0.743  0.1883  2.2335  0.1196
 2687TIP3   OH2 8021   1.347   0.693   2.914 -0.0406 -0.1223 -0.0276
 2687TIP3    H1 8022   1.303   0.777   2.900 -0.2488 -0.5791 -2.1588
 2687TIP3    H2 8023   1.401   0.680   2.836 -0.7787 -2.4563 -0.1710
 2688TIP3   OH2 8024   4.180   1.597   3.212  0.7087  0.2484  0.0682
 2688TIP3    H1 8025   4.167   1.662   3.143  0.1337 -0.5509 -0.5783
 2688TIP3    H2 8026   4.224   1.524   3.169  0.5518 -0.1642  0.5979
 2689TIP3   OH2 8027   3.884   1.953   1.605  0.1053 -0.2071 -0.1261
 2689TIP3    H1 8028   3.957   1.947   1.667 -0.8888 -1.5291  0.9238
 2689TIP3    H2 8029   3.877   1.865   1.568  0.2738  0.4127 -1.6560
 2690TIP3   OH2 8030   6.238   1.630   4.019 -0.4651  0.2340 -0.3791
 2690TIP3    H1 8031   6.143   1.616   4.015 -0.4609 -0.0284  0.5655
 2690TIP3    H2 8032   6.255   1.656   4.109  0.4669 -0.3926 -0.3746
 2691TIP3   OH2 8033   3.903   3.885   3.298 -0.1303 -0.6209 -0.7678
 2691TIP3    H1 8034   3.949   3.828   3.359  0.8600  0.5297 -0.4074
 2691TIP3    H2 8035   3.964   3.897   3.225  0.0631  0.7166 -0.4012
 2692TIP3   OH2 8036   4.271   2.951   5.425 -0.6738 -0.2387 -0.0237
 2692TIP3    H1 8037   4.183   2.964   5.461 -0.5671 -1.2428  0.6065
 2692TIP3    H2 8038   4.328   2.953   5.502 -0.1150  0.6217 -0.4533
 2693TIP3   OH2 8039   2.826   3.454   1.834  0.8182 -0.1298 -0.5460
 2693TIP3    H1 8040   2.761   3.522   1.816  2.2299  1.0778 -1.1848
 2693TIP3    H2 8041   2.836   3.407   1.752 -1.4260 -2.2807  0.3432
 2694TIP3   OH2 8042   3.752   1.769   2.728 -0.2485 -0.3437 -0.0271
 2694TIP3    H1 8043   3.795   1.685   2.744  1.3675  0.2952 -0.8826
 2694TIP3    H2 8044   3.804   1.810   2.658 -1.3478  1.1135 -0.0172
 2695TIP3   OH2 8045   4.047   2.513   3.924 -0.4620 -0.6731  0.4926
 2695TIP3    H1 8046   4.091   2.589   3.962 -0.8108 -0.3903  0.3391
 2695TIP3    H2 8047   3.954   2.533   3.932 -0.5603 -1.2642  0.8115
 2696TIP3   OH2 8048   4.492   1.449   3.627  0.5897 -0.0376 -0.2197
 2696TIP3    H1 8049   4.449   1.518   3.679  1.1755  1.3269 -1.4937
 2696TIP3    H2 8050   4.562   1.417   3.684  0.5198  0.6594  0.2781
 2697TIP3   OH2 8051   2.570   1.221   1.481 -0.2414 -0.1362  0.2818
 2697TIP3    H1 8052   2.653   1.185   1.514  0.5116  1.6150  0.3899
 2697TIP3    H2 8053   2.581   1.222   1.386  0.5663  1.6560  0.3711
 2698TIP3   OH2 8054   3.907   2.225   2.173 -0.1557 -0.4624  0.0802
 2698TIP3    H1 8055   3.845   2.201   2.242 -1.8158  0.6269 -1.0144
 2698TIP3    H2 8056   3.897   2.157   2.107  0.9314 -1.1138  0.5578
 2699TIP3   OH2 8057   3.339   3.503   5.037  0.8844 -0.6725 -0.3796
 2699TIP3    H1 8058   3.251   3.492   5.073  2.1870 -0.7308  2.9855
 2699TIP3    H2 8059   3.344   3.595   5.013 -0.2922 -0.8162 -1.2142
 2700TIP3   OH2 8060   2.776   4.062   2.313  0.1771  0.5903  0.2758
 2700TIP3    H1 8061   2.828   3.996   2.361  0.2754  0.0409 -0.5718
 2700TIP3    H2 8062   2.704   4.012   2.274  2.2253  0.3120 -3.3591
 2701TIP3   OH2 8063   4.129   3.968   0.457  0.1406  0.0345 -0.3463
 2701TIP3    H1 8064   4.199   4.027   0.428  0.5675 -0.8343 -1.1253
 2701TIP3    H2 8065   4.174   3.888   0.484 -0.6187 -0.9830 -1.9943
 2702TIP3   OH2 8066   1.216   3.408   1.671 -0.2305 -0.2879 -0.2257
 2702TIP3    H1 8067   1.304   3.398   1.636 -0.4142 -1.6150 -0.3425
 2702TIP3    H2 8068   1.159   3.367   1.606 -0.7247 -1.3181  0.8274
 2703TIP3   OH2 8069   1.764   3.312   1.336  0.3573  0.3333  0.3824
 2703TIP3    H1 8070   1.693   3.248   1.347 -0.1126  1.1675  2.4129
 2703TIP3    H2 8071   1.797   3.327   1.425  0.5334  2.8028 -0.0551
 2704TIP3   OH2 8072   4.820   2.971   3.183  0.2802 -0.5585 -0.2538
 2704TIP3    H1 8073   4.837   2.889   3.135 -1.7124 -0.4824 -1.1620
 2704TIP3    H2 8074   4.725   2.981   3.179  0.3884  1.1404  0.9809
 2705TIP3   OH2 8075   5.240   1.710   0.271  0.0802  0.1328 -0.1844
 2705TIP3    H1 8076   5.264   1.775   0.337  1.0887  0.2201 -0.6195
 2705TIP3    H2 8077   5.224   1.630   0.321  0.1559  0.3762  0.2330
 2706TIP3   OH2 8078   3.787   2.934   4.562 -0.3389  0.5481 -0.6665
 2706TIP3    H1 8079   3.807   2.844   4.589 -0.4708  1.2359  1.8825
 2706TIP3    H2 8080   3.730   2.925   4.486 -0.7865 -1.5342 -0.1054
 2707TIP3   OH2 8081   5.084   2.934   1.531 -0.0041 -0.0301 -0.0963
 2707TIP3    H1 8082   5.115   3.003   1.590  0.0397 -0.2991  0.1910
 2707TIP3    H2 8083   5.049   2.982   1.456  0.1355  0.3051  0.0513
 2708TIP3   OH2 8084   5.017   3.668   1.985 -0.1505 -0.7036  0.0839
 2708TIP3    H1 8085   5.097   3.721   1.988  1.0629 -2.4262 -0.7918
 2708TIP3    H2 8086   5.000   3.656   1.891 -0.8138 -1.2899  0.2778
 2709TIP3   OH2 8087   6.021   2.064   4.977 -0.1255 -0.5144 -0.4128
 2709TIP3    H1 8088   6.060   2.132   5.032  0.1199 -1.0795  0.1220
 2709TIP3    H2 8089   6.045   2.089   4.887  1.5640 -0.8861 -0.0924
 2710TIP3   OH2 8090   4.854   2.117   4.058  0.0328  0.4799 -0.0971
 2710TIP3    H1 8091   4.767   2.156   4.068 -0.0618  0.2975 -0.1969
 2710TIP3    H2 8092   4.854   2.044   4.120  0.1746  0.5822  0.0220
 2711TIP3   OH2 8093   4.174   2.410   2.968 -0.3269 -0.4073  0.0183
 2711TIP3    H1 8094   4.208   2.483   2.916 -1.1977  0.1263  0.1948
 2711TIP3    H2 8095   4.233   2.337   2.949  0.2068  0.1865 -0.6003
 2712TIP3   OH2 8096   4.883   2.523   2.309 -0.0209 -0.1229 -0.1735
 2712TIP3    H1 8097   4.878   2.428   2.319  1.2657 -0.1314  0.4491
 2712TIP3    H2 8098   4.848   2.540   2.221 -0.8154 -1.1081 -0.0511
 2713TIP3   OH2 8099   4.405   2.337   2.169 -0.4648  0.6551 -0.1413
 2713TIP3    H1 8100   4.469   2.266   2.162 -2.9786 -1.6417 -1.0403
 2713TIP3    H2 8101   4.432   2.386   2.246  1.0276 -1.6523  0.8715
 2714TIP3   OH2 8102   1.934   1.412   2.669  0.2051  0.1280 -0.1389
 2714TIP3    H1 8103   1.950   1.458   2.751 -1.4959 -1.6178  1.2150
 2714TIP3    H2 8104   2.009   1.354   2.659 -0.7247 -1.3906  1.4538
 2715TIP3   OH2 8105   4.562   1.433   4.033  0.3226  0.1372 -0.3914
 2715TIP3    H1 8106   4.621   1.385   4.092  0.4535  0.0795 -0.5698
 2715TIP3    H2 8107   4.620   1.478   3.973  0.1729 -0.3318 -0.8885
 2716TIP3   OH2 8108   3.127   1.844   1.924 -0.0547 -0.2253 -0.0977
 2716TIP3    H1 8109   3.211   1.860   1.881 -1.1410  2.8818 -1.2681
 2716TIP3    H2 8110   3.144   1.861   2.016  1.0007 -1.3077 -0.0895
 2717TIP3   OH2 8111   2.537   2.921   1.508  0.1606  0.5753  0.1191
 2717TIP3    H1 8112   2.491   2.904   1.590  0.9321  1.0440  0.6622
 2717TIP3    H2 8113   2.499   2.860   1.445  0.2084 -0.4420  1.0574
 2718TIP3   OH2 8114   3.591   6.656   3.289  0.1519 -0.3079 -0.3414
 2718TIP3    H1 8115   3.649   6.638   3.216  1.1820  1.3780  0.0508
 2718TIP3    H2 8116   3.548   6.738   3.267  0.3869  0.1568  0.8759
 2719TIP3   OH2 8117   3.100   2.947   1.921 -0.3913 -0.6680  0.5018
 2719TIP3    H1 8118   3.175   2.992   1.883 -0.0455 -1.5683  0.0891
 2719TIP3    H2 8119   3.119   2.854   1.908  0.0367 -1.0460  3.3983
 2720TIP3   OH2 8120   3.567   0.547   2.519 -0.2425  0.0043  0.0825
 2720TIP3    H1 8121   3.519   0.587   2.592 -2.1149 -0.9500 -0.5621
 2720TIP3    H2 8122   3.561   0.611   2.448  1.0823  0.6903  0.5902
 2721TIP3   OH2 8123   3.262   2.608   2.116  0.0187  0.1192 -0.1942
 2721TIP3    H1 8124   3.303   2.567   2.191 -1.8513 -1.0863  0.1797
 2721TIP3    H2 8125   3.290   2.700   2.121  1.2055 -0.2949  1.0330
 2722TIP3   OH2 8126   4.563   2.735   2.530  0.0722 -0.0467 -0.4771
 2722TIP3    H1 8127   4.643   2.785   2.547  1.1110 -1.9169  0.3036
 2722TIP3    H2 8128   4.499   2.772   2.590  0.9445  0.0703  0.4017
 2723TIP3   OH2 8129   1.261   6.433   4.442 -0.0949  0.2192 -0.2354
 2723TIP3    H1 8130   1.243   6.353   4.394 -0.3516 -0.8910  1.6568
 2723TIP3    H2 8131   1.175   6.474   4.452 -0.4026 -0.7881  1.3841
 2724TIP3   OH2 8132   5.264   1.089   0.996 -0.0337  0.2153  0.0881
 2724TIP3    H1 8133   5.347   1.137   0.998 -0.0851  0.2617  2.2177
 2724TIP3    H2 8134   5.197   1.157   0.986  0.1135  0.2794 -0.4496
 2725TIP3   OH2 8135   3.330   3.200   1.210 -0.6463 -0.5829  0.1412
 2725TIP3    H1 8136   3.425   3.197   1.206 -0.6411  0.7282 -0.8668
 2725TIP3    H2 8137   3.301   3.184   1.121 -1.4177 -2.0429  0.6331
 2726TIP3   OH2 8138   3.156   0.351   2.705  0.3660 -0.5105 -0.1996
 2726TIP3    H1 8139   3.201   0.433   2.727 -0.1055 -0.1189 -0.6716
 2726TIP3    H2 8140   3.218   0.304   2.649  0.5449 -0.3736 -0.1162
 2727TIP3   OH2 8141   4.735   2.743   2.138 -0.6872  0.5305 -0.1307
 2727TIP3    H1 8142   4.670   2.726   2.070  0.7681 -1.7010 -1.0179
 2727TIP3    H2 8143   4.705   2.693   2.214 -0.4621  0.1652 -0.2788
 2728TIP3   OH2 8144   3.264   2.154   1.274 -0.1200  0.1206 -0.1236
 2728TIP3    H1 8145   3.251   2.146   1.180  0.7120 -0.0837 -0.2243
 2728TIP3    H2 8146   3.199   2.096   1.312  0.1094 -0.4483 -0.5983
 2729TIP3   OH2 8147   5.708   1.210   2.636  0.8163 -0.1785 -0.4897
 2729TIP3    H1 8148   5.704   1.155   2.558  0.4277 -0.9345  0.0563
 2729TIP3    H2 8149   5.754   1.289   2.607  0.3365 -0.2868 -1.5761
 2730TIP3   OH2 8150   6.166   3.739   3.287  0.3302  0.0578 -0.0101
 2730TIP3    H1 8151   6.077   3.708   3.270  0.1360  1.4392 -1.6080
 2730TIP3    H2 8152   6.220   3.660   3.283 -0.5883 -0.5464 -0.8345
 2731TIP3   OH2 8153   4.478   4.483   3.100 -0.6442  0.2988 -0.5552
 2731TIP3    H1 8154   4.434   4.398   3.096 -0.5749  0.3197 -2.4026
 2731TIP3    H2 8155   4.439   4.533   3.028 -1.6232  2.3110  1.3363
 2732TIP3   OH2 8156   5.507   1.771   2.661 -0.4583 -0.4615 -0.2023
 2732TIP3    H1 8157   5.477   1.817   2.582  0.5996  0.7118  0.0711
 2732TIP3    H2 8158   5.535   1.685   2.628 -0.7677 -0.2799 -0.9739
 2733TIP3   OH2 8159   4.676   2.976   3.668 -0.4947 -0.7600  0.1037
 2733TIP3    H1 8160   4.589   3.008   3.644  0.1229  0.3552 -0.7089
 2733TIP3    H2 8161   4.699   2.914   3.599  0.0886  0.3031 -0.6842
 2734TIP3   OH2 8162   3.349   3.378   3.976 -0.2137  0.2314  0.2671
 2734TIP3    H1 8163   3.295   3.330   4.039  0.6803 -0.5423  0.4649
 2734TIP3    H2 8164   3.438   3.364   4.007  0.1823  0.4212 -0.7841
 2735TIP3   OH2 8165   4.360   4.683   2.919  0.1682  0.0464  0.3875
 2735TIP3    H1 8166   4.299   4.623   2.876 -0.3026 -1.0701  2.4884
 2735TIP3    H2 8167   4.328   4.770   2.898  0.2736 -0.4574 -1.9081
 2736TIP3   OH2 8168   4.930   3.343   1.135 -0.0963  0.1886  0.1265
 2736TIP3    H1 8169   4.949   3.317   1.045 -0.6309  1.8124 -0.4691
 2736TIP3    H2 8170   4.857   3.287   1.161  1.7898 -2.1867  0.5217
 2737TIP3   OH2 8171   5.153   3.149   3.433 -0.3853  0.2665 -0.2978
 2737TIP3    H1 8172   5.127   3.098   3.356 -1.3265 -0.5127  0.5330
 2737TIP3    H2 8173   5.167   3.237   3.399  3.5063 -0.9665 -2.1991
 2738TIP3   OH2 8174   3.203   3.643   3.461 -0.3635  0.0123  0.1548
 2738TIP3    H1 8175   3.238   3.728   3.433 -1.3582  0.3473 -0.1091
 2738TIP3    H2 8176   3.199   3.591   3.381  0.2801 -0.3029  0.3235
 2739TIP3   OH2 8177   2.880   0.422   3.201 -0.0014  0.1451 -0.3761
 2739TIP3    H1 8178   2.802   0.460   3.241 -0.0200 -0.0939 -0.1783
 2739TIP3    H2 8179   2.923   0.374   3.273  1.5549  2.1581  0.0962
 2740TIP3   OH2 8180   6.573   5.645   6.188  0.7795 -0.3397 -0.0211
 2740TIP3    H1 8181   6.551   5.552   6.176  0.6988 -0.6192  2.1127
 2740TIP3    H2 8182   6.669   5.647   6.190  0.7666 -0.4940  0.7775
 2741TIP3   OH2 8183   3.384   1.653   3.099 -0.0003  0.8770 -0.0215
 2741TIP3    H1 8184   3.368   1.627   3.190  1.0387  3.5349  0.9859
 2741TIP3    H2 8185   3.480   1.655   3.092 -0.0689  2.3152 -0.6566
 2742TIP3   OH2 8186   4.884   1.233   3.387 -0.0731 -0.0991 -0.3966
 2742TIP3    H1 8187   4.904   1.318   3.347 -0.1997  0.1187 -0.0057
 2742TIP3    H2 8188   4.895   1.170   3.316  0.5217  0.1866 -0.5607
 2743TIP3   OH2 8189   3.103   2.365   1.642  0.4594  1.0298  0.1374
 2743TIP3    H1 8190   3.035   2.299   1.627  0.4681  1.0106  0.1818
 2743TIP3    H2 8191   3.057   2.438   1.681  0.6488  0.5925  1.1864
 2744TIP3   OH2 8192   7.699   6.580   0.883  0.3580  0.3106 -0.2865
 2744TIP3    H1 8193   7.661   6.509   0.832 -0.0260 -0.0116  0.4426
 2744TIP3    H2 8194   7.754   6.537   0.948 -0.3089  0.6538  0.5126
 2745TIP3   OH2 8195   3.993   0.136   4.176  0.0408 -0.2910 -0.1127
 2745TIP3    H1 8196   4.036   0.054   4.153 -0.8434 -1.7377  3.1624
 2745TIP3    H2 8197   3.916   0.139   4.119  0.4848 -1.3618 -0.7917
 2746TIP3   OH2 8198   2.993   3.960   1.737 -0.3540 -0.6650  0.1159
 2746TIP3    H1 8199   3.014   4.045   1.698  0.5050 -0.4591  1.0349
 2746TIP3    H2 8200   2.897   3.956   1.735 -0.3649 -0.0924 -0.8030
 2747TIP3   OH2 8201   2.585   3.899   2.197 -0.3769 -0.4919  1.0038
 2747TIP3    H1 8202   2.594   3.805   2.185  1.8689 -0.3061  1.0399
 2747TIP3    H2 8203   2.577   3.935   2.108 -1.0412 -0.6854  0.9820
 2748TIP3   OH2 8204   5.973   1.557   4.036  0.1955  0.2758  0.0478
 2748TIP3    H1 8205   5.946   1.555   4.128 -1.1023 -1.6739 -0.3559
 2748TIP3    H2 8206   5.923   1.486   3.995  0.9253  0.9942 -2.1168
 2749TIP3   OH2 8207   1.670   2.690   1.544  0.0019  0.3532  0.0567
 2749TIP3    H1 8208   1.714   2.605   1.541  0.6395  0.6726  0.2988
 2749TIP3    H2 8209   1.577   2.668   1.553 -0.0179 -0.3452 -1.6634
 2750TIP3   OH2 8210   3.666   2.468   2.059 -0.0837  0.3677 -0.2804
 2750TIP3    H1 8211   3.653   2.433   1.971 -1.0538  1.1985 -0.4756
 2750TIP3    H2 8212   3.760   2.484   2.065  0.0710 -0.2592 -0.9408
 2751TIP3   OH2 8213   2.784   6.056   2.104 -0.0038 -0.6121  0.2341
 2751TIP3    H1 8214   2.776   5.961   2.107  0.5709 -0.7322 -1.5385
 2751TIP3    H2 8215   2.874   6.072   2.076  0.5729  0.4964  2.5632
 2752TIP3   OH2 8216   5.915   2.501   1.123 -0.6728  0.3094 -0.4402
 2752TIP3    H1 8217   5.825   2.520   1.148 -1.1387 -0.3310 -1.5840
 2752TIP3    H2 8218   5.924   2.538   1.035 -0.2749 -0.8780 -0.9177
 2753TIP3   OH2 8219   3.969   3.177   2.882  0.3182 -0.1183  0.5943
 2753TIP3    H1 8220   4.055   3.173   2.924 -0.5257 -0.7444  2.2954
 2753TIP3    H2 8221   3.912   3.215   2.948 -0.8248 -0.1596 -0.3576
 2754TIP3   OH2 8222   4.719   2.114   4.394  0.2279  0.2280  0.0154
 2754TIP3    H1 8223   4.676   2.142   4.312 -0.9215  0.1637  0.5899
 2754TIP3    H2 8224   4.650   2.118   4.460  1.5825  2.0302  1.3644
 2755TIP3   OH2 8225   3.397   2.208   2.844  0.8227 -0.0887  0.4845
 2755TIP3    H1 8226   3.440   2.144   2.787 -0.6096 -0.5662 -0.0972
 2755TIP3    H2 8227   3.424   2.293   2.811  0.6599 -0.3766 -0.3900
 2756TIP3   OH2 8228   3.144   0.352   1.025  0.7188 -0.0877  0.1844
 2756TIP3    H1 8229   3.121   0.327   0.936 -0.3314 -1.7698  0.9177
 2756TIP3    H2 8230   3.061   0.364   1.070  1.2441 -0.1774  1.2030
 2757TIP3   OH2 8231   4.789   1.243   4.042 -0.3486 -0.7652  0.0415
 2757TIP3    H1 8232   4.876   1.274   4.068 -1.1465  1.6055 -0.0125
 2757TIP3    H2 8233   4.806   1.164   3.991  1.7744 -0.3523  0.0588
 2758TIP3   OH2 8234   6.682   5.165   0.210 -0.0632 -0.2741  0.4035
 2758TIP3    H1 8235   6.736   5.244   0.218  0.7330 -0.4996 -2.3194
 2758TIP3    H2 8236   6.745   5.093   0.212 -0.5225 -0.6923 -0.1243
 2759TIP3   OH2 8237   6.384   2.077   2.542 -0.4387 -0.1567 -0.3364
 2759TIP3    H1 8238   6.349   2.156   2.500  1.0073  1.6867  1.8077
 2759TIP3    H2 8239   6.335   2.070   2.623  2.5227  1.2359  1.6746
 2760TIP3   OH2 8240   7.605   0.203   4.319  0.7152  0.1156  0.2571
 2760TIP3    H1 8241   7.677   0.146   4.348  0.8126 -0.3883 -0.9483
 2760TIP3    H2 8242   7.527   0.148   4.325  1.0352 -0.7349 -2.5212
 2761TIP3   OH2 8243   5.705   5.321   0.882 -0.6018  0.2309 -0.0848
 2761TIP3    H1 8244   5.746   5.323   0.795 -2.0569  0.3166 -0.7724
 2761TIP3    H2 8245   5.709   5.412   0.912  1.5191 -0.0892  0.7300
 2762TIP3   OH2 8246   7.491   2.201   2.391  0.6228  0.1806  0.1533
 2762TIP3    H1 8247   7.445   2.280   2.364  1.9808  1.0627  0.3975
 2762TIP3    H2 8248   7.544   2.228   2.466  0.1835 -1.2445  1.0137
 2763TIP3   OH2 8249   6.521   3.679   1.984 -0.4371  0.1080 -0.5643
 2763TIP3    H1 8250   6.528   3.632   2.067  0.4703 -0.6753 -1.0798
 2763TIP3    H2 8251   6.603   3.728   1.977 -0.2349 -0.3329 -1.3050
 2764TIP3   OH2 8252   6.267   1.650   3.299 -0.1135 -0.0462  0.3255
 2764TIP3    H1 8253   6.355   1.654   3.335 -0.2223  0.7232  0.5089
 2764TIP3    H2 8254   6.210   1.681   3.370 -0.6215 -1.4152  0.5246
 2765TIP3   OH2 8255   5.144   1.665   1.804 -0.5375 -0.0687 -0.1763
 2765TIP3    H1 8256   5.069   1.701   1.757 -0.4784 -0.3117 -0.4601
 2765TIP3    H2 8257   5.116   1.577   1.830 -0.5657  0.0623  0.2331
 2766TIP3   OH2 8258   4.194   2.039   2.077  0.1987 -0.3011  0.5606
 2766TIP3    H1 8259   4.277   1.993   2.095  0.2735 -0.1294  0.6573
 2766TIP3    H2 8260   4.134   1.970   2.051  0.5650 -0.3399 -0.1875
 2767TIP3   OH2 8261   4.823   1.946   3.662 -1.1844  0.4469 -0.0936
 2767TIP3    H1 8262   4.811   1.858   3.696 -1.8663  0.4922 -0.2076
 2767TIP3    H2 8263   4.845   1.934   3.570 -0.0721  0.3531  0.1747
 2768TIP3   OH2 8264   0.178   3.323   2.266  0.3774 -0.5608  0.1584
 2768TIP3    H1 8265   0.229   3.338   2.345 -1.2411  2.0170  0.7611
 2768TIP3    H2 8266   0.243   3.295   2.201  2.2625  0.7195  1.4312
 2769TIP3   OH2 8267   3.799   4.638   2.818 -0.0388 -0.8268  0.2549
 2769TIP3    H1 8268   3.711   4.673   2.829  0.1911  0.6899 -2.4226
 2769TIP3    H2 8269   3.787   4.544   2.810 -1.1854 -0.8528  2.0424
 2770TIP3   OH2 8270   5.432   1.291   0.423 -0.5560 -0.2835 -0.0988
 2770TIP3    H1 8271   5.396   1.207   0.392 -0.7972 -1.0426  2.1163
 2770TIP3    H2 8272   5.525   1.275   0.434 -0.4411  0.0347 -0.6129
 2771TIP3   OH2 8273   6.211   1.797   4.769 -0.2720 -0.1431  0.8638
 2771TIP3    H1 8274   6.200   1.833   4.856 -0.9674  0.3196  0.5865
 2771TIP3    H2 8275   6.201   1.702   4.781  0.6943 -0.1811  1.4478
 2772TIP3   OH2 8276   7.301   0.877   3.001 -0.1462  0.3068  0.3458
 2772TIP3    H1 8277   7.314   0.850   2.910 -0.5646 -1.1531  0.6946
 2772TIP3    H2 8278   7.375   0.934   3.020  0.9897 -0.8991 -0.3345
 2773TIP3   OH2 8279   6.596   3.532   1.698 -0.3743 -0.0067  0.1418
 2773TIP3    H1 8280   6.507   3.564   1.691  0.3413  1.6431 -1.8892
 2773TIP3    H2 8281   6.651   3.606   1.672  1.5271 -1.4346 -0.0845
 2774TIP3   OH2 8282   0.935   3.995   2.428  0.9051 -0.0474  0.4333
 2774TIP3    H1 8283   0.893   3.913   2.402  2.3554 -0.2646 -1.3031
 2774TIP3    H2 8284   0.985   3.971   2.506  1.0219 -0.7256  0.1565
 2775TIP3   OH2 8285   7.208   1.713   3.043  0.0692  0.0744  0.0756
 2775TIP3    H1 8286   7.215   1.630   2.996 -0.7691  0.0225  0.0197
 2775TIP3    H2 8287   7.292   1.756   3.030  0.2302 -0.4290 -0.5587
 2776TIP3   OH2 8288   4.593   1.738   0.449 -0.2387 -0.2769  0.1030
 2776TIP3    H1 8289   4.548   1.794   0.512  0.6318  0.4505  0.0959
 2776TIP3    H2 8290   4.677   1.717   0.491 -0.0669 -0.5980 -0.3971
 2777TIP3   OH2 8291   1.177   3.479   0.870  0.0060  0.0416  0.3719
 2777TIP3    H1 8292   1.257   3.532   0.863  1.5477 -2.6267 -3.2938
 2777TIP3    H2 8293   1.207   3.395   0.904 -0.8978 -1.5899 -2.7270
 2778TIP3   OH2 8294   7.722   1.952   1.545 -0.0797 -0.2479 -0.1648
 2778TIP3    H1 8295   7.702   2.022   1.607 -0.7727 -0.4998 -0.1003
 2778TIP3    H2 8296   7.639   1.907   1.531  0.5990 -1.8222  0.7342
 2779TIP3   OH2 8297   7.057   2.437   4.626  0.1497  0.3570 -0.0337
 2779TIP3    H1 8298   7.130   2.492   4.596  0.8281 -0.6802 -0.3324
 2779TIP3    H2 8299   6.983   2.463   4.572  0.3325  1.3187  0.1647
 2780TIP3   OH2 8300   7.669   2.282   2.569 -0.1368  0.1561 -0.2983
 2780TIP3    H1 8301   7.657   2.364   2.618  0.8471 -0.5868  1.2244
 2780TIP3    H2 8302   7.741   2.300   2.509 -0.2029  0.5289 -0.2704
 2781TIP3   OH2 8303   4.999   1.602   2.584 -0.3358 -0.5083 -0.9886
 2781TIP3    H1 8304   5.072   1.569   2.637 -0.3691  1.1172  0.1111
 2781TIP3    H2 8305   5.035   1.679   2.540 -1.6431  0.8614  0.3027
 2782TIP3   OH2 8306   7.287   2.072   3.229 -0.0447 -0.2938  0.3613
 2782TIP3    H1 8307   7.377   2.073   3.262  0.0735  1.4605  0.0128
 2782TIP3    H2 8308   7.233   2.087   3.306  0.0515  0.4768  0.2742
 2783TIP3   OH2 8309   7.087   2.242   4.102 -0.5180 -0.8263  0.0955
 2783TIP3    H1 8310   7.086   2.146   4.097  1.8637 -0.8807  0.2351
 2783TIP3    H2 8311   7.169   2.263   4.146 -0.6177  1.3196 -0.6864
 2784TIP3   OH2 8312   6.184   1.752   2.758  0.8183  0.4561 -0.4226
 2784TIP3    H1 8313   6.164   1.735   2.851 -0.5348  0.4829 -0.6928
 2784TIP3    H2 8314   6.196   1.847   2.753 -1.2311  0.7196 -0.6469
 2785TIP3   OH2 8315   0.061   2.411   0.320 -0.2584 -0.1720  0.1705
 2785TIP3    H1 8316   0.070   2.506   0.319  1.0344 -0.2532 -2.2088
 2785TIP3    H2 8317   0.150   2.379   0.335 -0.5490 -0.9980  0.1649
 2786TIP3   OH2 8318   6.679   1.131   3.102  0.2883  0.2962 -0.6044
 2786TIP3    H1 8319   6.585   1.149   3.102  0.2207 -0.0498 -0.6284
 2786TIP3    H2 8320   6.688   1.052   3.049  0.3787 -0.7405  0.9189
 2787TIP3   OH2 8321   6.301   0.462   4.008 -0.5095  0.1668  0.0843
 2787TIP3    H1 8322   6.286   0.417   4.091  1.2630  1.4902  1.1557
 2787TIP3    H2 8323   6.375   0.417   3.969 -0.7340  0.1625 -0.3443
 2788TIP3   OH2 8324   6.161   2.960   2.963  0.1909  0.4886 -0.1594
 2788TIP3    H1 8325   6.100   2.934   3.032  0.9716  0.4232  0.5168
 2788TIP3    H2 8326   6.160   2.887   2.901  1.5627 -0.7178  1.1821
 2789TIP3   OH2 8327   4.823   2.421   2.046  0.0535  0.2542 -0.0313
 2789TIP3    H1 8328   4.855   2.486   1.984  2.0885  0.7445  1.4965
 2789TIP3    H2 8329   4.808   2.342   1.993  0.0733  1.1732 -1.4291
 2790TIP3   OH2 8330   4.819   3.279   0.854 -0.0472  0.3242  0.0244
 2790TIP3    H1 8331   4.780   3.285   0.941 -0.3644  1.6550 -0.2119
 2790TIP3    H2 8332   4.753   3.233   0.801  0.3500 -0.9359  0.5883
 2791TIP3   OH2 8333   4.406   2.186   3.154 -0.2228  0.3803 -0.0013
 2791TIP3    H1 8334   4.476   2.202   3.092  0.6774 -0.8330  0.6727
 2791TIP3    H2 8335   4.447   2.194   3.240 -1.2279  1.0444  0.4282
 2792TIP3   OH2 8336   2.074   0.585   2.929 -0.7995 -0.5807 -0.1100
 2792TIP3    H1 8337   2.119   0.580   2.844  0.2995 -0.7131  0.4654
 2792TIP3    H2 8338   2.061   0.679   2.943 -2.2046 -0.6280 -1.0451
 2793TIP3   OH2 8339   7.589   4.306   2.219 -0.0804  0.1645 -0.3613
 2793TIP3    H1 8340   7.637   4.313   2.137 -0.6939 -2.2917 -0.9753
 2793TIP3    H2 8341   7.652   4.265   2.279 -0.1186  0.5926 -0.0291
 2794TIP3   OH2 8342   5.811   3.874   0.864  0.1878 -0.3036  0.2304
 2794TIP3    H1 8343   5.854   3.943   0.814  0.2119  0.2755  1.0294
 2794TIP3    H2 8344   5.753   3.831   0.802  0.1088  0.5004 -0.2568
 2795TIP3   OH2 8345   6.686   1.662   1.962 -0.1026 -0.1773 -0.5663
 2795TIP3    H1 8346   6.606   1.678   2.012  0.1584 -0.3791 -0.0768
 2795TIP3    H2 8347   6.747   1.729   1.993  0.4630 -1.0768  0.2978
 2796TIP3   OH2 8348   6.273   1.898   3.923  0.0630 -0.1240  0.0276
 2796TIP3    H1 8349   6.236   1.822   3.968 -1.6971  1.1618  0.8395
 2796TIP3    H2 8350   6.232   1.974   3.966  2.7120  1.3342  0.0548
 2797TIP3   OH2 8351   3.146   7.264   4.506 -0.8209 -1.0478  0.2281
 2797TIP3    H1 8352   3.174   7.315   4.583 -0.7642 -0.8951  0.1073
 2797TIP3    H2 8353   3.213   7.195   4.497  0.4755  0.3282 -1.0725
 2798TIP3   OH2 8354   5.403   2.377   3.702 -0.0609 -0.1461  0.6876
 2798TIP3    H1 8355   5.450   2.420   3.630 -0.5395  1.2582  1.1874
 2798TIP3    H2 8356   5.382   2.290   3.668  2.2686 -0.5622  0.1957
 2799TIP3   OH2 8357   5.584   1.860   3.141  0.1471  0.1213 -0.0969
 2799TIP3    H1 8358   5.579   1.800   3.216 -0.6568 -1.8422 -1.6746
 2799TIP3    H2 8359   5.678   1.872   3.126  0.3348 -1.2676 -0.1348
 2800TIP3   OH2 8360   7.753   1.176   2.715  0.3531 -0.7705 -0.8968
 2800TIP3    H1 8361   7.812   1.243   2.750 -0.1936 -0.4440 -0.6024
 2800TIP3    H2 8362   7.706   1.220   2.644 -2.3231  0.1399  1.3470
 2801TIP3   OH2 8363   7.214   1.483   2.880  0.4737  0.1851 -0.7517
 2801TIP3    H1 8364   7.247   1.393   2.886  2.3265  0.6600 -2.8780
 2801TIP3    H2 8365   7.153   1.481   2.806 -0.8558  0.3137  0.3218
 2802TIP3   OH2 8366   5.617   0.404   1.892 -0.5729  0.0546 -0.1564
 2802TIP3    H1 8367   5.701   0.366   1.917  0.3417  1.1345 -1.4994
 2802TIP3    H2 8368   5.591   0.357   1.814 -0.7155  0.4088 -0.3235
 2803TIP3   OH2 8369   4.961   2.961   0.044 -0.3634 -0.0567  0.1382
 2803TIP3    H1 8370   5.000   2.927  -0.037 -0.1546 -1.4696  0.8159
 2803TIP3    H2 8371   4.867   2.964   0.027 -0.3451 -0.6116 -0.0673
 2804TIP3   OH2 8372   6.170   4.107   0.278 -0.7765  0.6904  0.1868
 2804TIP3    H1 8373   6.125   4.056   0.344 -0.9586  0.4768 -0.1042
 2804TIP3    H2 8374   6.263   4.088   0.291 -0.9186 -0.6545 -0.7060
 2805TIP3   OH2 8375   4.978   3.944   1.062 -0.0439 -0.3496  0.0702
 2805TIP3    H1 8376   4.893   3.905   1.042 -0.4085  0.6729 -0.4081
 2805TIP3    H2 8377   4.958   4.016   1.122  0.3974  0.3575 -0.6226
 2806TIP3   OH2 8378   4.102   2.806   2.559 -0.5388 -0.2784 -0.3460
 2806TIP3    H1 8379   4.104   2.831   2.466 -1.6788  0.0383 -0.3026
 2806TIP3    H2 8380   4.009   2.797   2.579 -0.2368 -2.3525  0.2488
 2807TIP3   OH2 8381   1.309   4.086   1.559  0.1885  0.3871 -0.2116
 2807TIP3    H1 8382   1.320   4.146   1.633 -0.5411  2.2574 -1.5843
 2807TIP3    H2 8383   1.286   4.002   1.599  2.0129  0.7969  1.7807
 2808TIP3   OH2 8384   4.194   2.411   1.231 -0.3466  0.2135  0.6016
 2808TIP3    H1 8385   4.192   2.459   1.148 -2.0491 -1.6659 -0.4938
 2808TIP3    H2 8386   4.126   2.452   1.284 -1.2305 -0.3985 -0.0301
 2809TIP3   OH2 8387   6.545   4.181   2.033 -0.1556 -0.2313 -0.5493
 2809TIP3    H1 8388   6.507   4.206   1.948 -1.3754 -0.4668 -0.0877
 2809TIP3    H2 8389   6.474   4.134   2.077  0.4120  0.0651  0.6775
 2810TIP3   OH2 8390   7.500   1.928   2.340  0.2474 -0.0572 -0.0790
 2810TIP3    H1 8391   7.423   1.904   2.288 -0.8013  1.2226  0.8269
 2810TIP3    H2 8392   7.494   2.024   2.348  2.2426  0.1254 -0.4615
 2811TIP3   OH2 8393   1.871   5.990   5.791  0.1066 -0.3112 -0.3447
 2811TIP3    H1 8394   1.844   6.023   5.705 -0.1874  1.5815  0.4511
 2811TIP3    H2 8395   1.800   6.016   5.850  0.4388 -1.3517  0.5267
 2812TIP3   OH2 8396   6.475   0.671   2.231  0.7370  0.4943 -0.0889
 2812TIP3    H1 8397   6.548   0.697   2.176  1.1487 -1.0588 -0.3057
 2812TIP3    H2 8398   6.397   0.689   2.178  0.8333  3.6174  0.7413
 2813TIP3   OH2 8399   0.728   0.999   2.812  0.2645  0.0880 -0.3122
 2813TIP3    H1 8400   0.722   1.043   2.897  1.4612 -1.1216  0.4245
 2813TIP3    H2 8401   0.691   0.912   2.827 -0.2536  0.1514 -1.2295
 2814TIP3   OH2 8402   7.032   4.140   1.823  1.1406 -0.4396  0.4203
 2814TIP3    H1 8403   7.088   4.206   1.863 -0.5489 -0.1533  2.4195
 2814TIP3    H2 8404   7.056   4.059   1.867 -0.3697 -0.2121  1.7267
 2815TIP3   OH2 8405   6.796   2.227   2.859 -0.2817 -0.5852 -0.0825
 2815TIP3    H1 8406   6.850   2.149   2.873  0.5637  0.1968  1.1529
 2815TIP3    H2 8407   6.812   2.250   2.767  1.7492 -0.1981  0.3415
 2816TIP3   OH2 8408   7.736   0.356   2.687 -0.1521 -0.0968  0.2586
 2816TIP3    H1 8409   7.691   0.412   2.624 -0.0166 -0.6320 -0.3190
 2816TIP3    H2 8410   7.666   0.324   2.745 -0.3218  0.1307  0.1802
 2817TIP3   OH2 8411   6.500   2.487   3.765 -0.1390  0.6585 -0.0397
 2817TIP3    H1 8412   6.522   2.571   3.725  1.1648 -0.2258 -1.2326
 2817TIP3    H2 8413   6.584   2.452   3.796 -0.7483  0.0570  0.9440
 2818TIP3   OH2 8414   5.561   2.472   1.482 -0.0613  0.2816 -0.0043
 2818TIP3    H1 8415   5.606   2.541   1.531 -0.3008  0.5781 -0.2005
 2818TIP3    H2 8416   5.536   2.408   1.549 -2.9590  2.0654  0.7184
 2819TIP3   OH2 8417   6.124   2.342   2.688 -0.8721  0.6876 -0.0767
 2819TIP3    H1 8418   6.051   2.341   2.749 -0.6295 -0.3672  0.2196
 2819TIP3    H2 8419   6.202   2.351   2.743 -0.4160 -3.3534  0.0995
 2820TIP3   OH2 8420   4.130   3.226   1.848 -0.4333 -0.0629 -0.2789
 2820TIP3    H1 8421   4.056   3.266   1.894  0.0323  1.5285 -0.8707
 2820TIP3    H2 8422   4.126   3.133   1.871 -0.8416  0.5089  2.1012
 2821TIP3   OH2 8423   6.012   1.911   2.477  0.5897 -0.0377  0.2293
 2821TIP3    H1 8424   6.055   1.846   2.420  0.6877  0.1027  0.1435
 2821TIP3    H2 8425   5.923   1.879   2.487  1.1315 -1.1726  1.6739
 2822TIP3   OH2 8426   0.637   0.928   2.302  0.1934  0.2023 -0.4141
 2822TIP3    H1 8427   0.606   0.948   2.390 -0.4544 -1.3067 -0.2727
 2822TIP3    H2 8428   0.573   0.968   2.243  0.2166  0.5756 -0.1812
 2823TIP3   OH2 8429   4.791   2.885   2.507  0.1595 -0.1280 -0.0413
 2823TIP3    H1 8430   4.818   2.906   2.418 -1.7981 -1.1621 -0.9028
 2823TIP3    H2 8431   4.855   2.821   2.538  0.7023  0.0583 -0.7643
 2824TIP3   OH2 8432   4.361   1.261   3.974  0.2999 -0.1524  0.5228
 2824TIP3    H1 8433   4.420   1.327   4.010 -0.8915  0.5085  1.3007
 2824TIP3    H2 8434   4.298   1.245   4.044 -1.9338  0.9979 -1.1462
 2825TIP3   OH2 8435   6.454   2.782   3.020  0.1826 -0.1999 -0.1953
 2825TIP3    H1 8436   6.525   2.730   2.982  1.9545  1.1817  1.1009
 2825TIP3    H2 8437   6.431   2.844   2.951 -0.7321 -1.5662 -1.1207
 2826TIP3   OH2 8438   5.018   1.593   3.075  0.2232  0.9919  0.3676
 2826TIP3    H1 8439   5.107   1.575   3.044  0.9048  2.3345  1.4456
 2826TIP3    H2 8440   4.998   1.679   3.039  0.2162  1.6437  1.8865
 2827TIP3   OH2 8441   3.939   5.565   2.380  0.1411  0.1028 -0.8193
 2827TIP3    H1 8442   4.011   5.569   2.443  1.1672 -0.5291 -1.9395
 2827TIP3    H2 8443   3.890   5.487   2.405 -1.5455  1.8082  1.3977
 2828TIP3   OH2 8444   3.565   1.646   2.183 -0.5979 -0.1299  0.2515
 2828TIP3    H1 8445   3.629   1.633   2.253 -2.2429 -1.1759  1.6212
 2828TIP3    H2 8446   3.488   1.596   2.212 -1.3478 -0.4971 -2.2834
 2829TIP3   OH2 8447   5.659   1.412   3.468  0.5446 -0.3158 -0.4721
 2829TIP3    H1 8448   5.714   1.435   3.543  0.8860 -0.4015 -0.6974
 2829TIP3    H2 8449   5.619   1.328   3.492  0.7739 -0.4187 -0.4500
 2830TIP3   OH2 8450   5.882   0.632   4.466  0.3917 -0.6249  0.3799
 2830TIP3    H1 8451   5.954   0.694   4.475  1.1136 -1.3041 -0.5569
 2830TIP3    H2 8452   5.922   0.556   4.423 -0.8008 -1.1593  0.2036
 2831TIP3   OH2 8453   6.218   0.739   3.299 -0.4656 -0.4326 -0.2770
 2831TIP3    H1 8454   6.260   0.755   3.214  1.2237 -1.9950  0.2401
 2831TIP3    H2 8455   6.270   0.789   3.362 -0.9598 -0.2865  0.0226
 2832TIP3   OH2 8456   0.853   4.316   6.309  0.3794 -0.2374  0.4416
 2832TIP3    H1 8457   0.799   4.238   6.296  0.5096 -0.2957  0.2366
 2832TIP3    H2 8458   0.914   4.292   6.379  0.7937 -0.5179 -0.0166
 2833TIP3   OH2 8459   5.338   1.907   1.138  0.1466  0.5181 -0.3713
 2833TIP3    H1 8460   5.261   1.862   1.174  1.8874 -2.7729 -0.6027
 2833TIP3    H2 8461   5.391   1.929   1.214  0.7490 -0.6276 -0.4475
 2834TIP3   OH2 8462   4.369   2.756   2.267 -0.0820  0.8081 -0.1061
 2834TIP3    H1 8463   4.440   2.693   2.281 -0.0979  0.3106 -2.0197
 2834TIP3    H2 8464   4.408   2.841   2.288  1.2903  0.6036 -1.6991
 2835TIP3   OH2 8465   6.166   4.986   2.107  0.1539  0.3870 -0.6612
 2835TIP3    H1 8466   6.181   4.933   2.186 -2.2804 -1.3527 -1.2978
 2835TIP3    H2 8467   6.131   5.069   2.141  1.7533  0.7226  0.2176
 2836TIP3   OH2 8468   5.567   1.063   4.672 -0.6162 -0.0717  0.1857
 2836TIP3    H1 8469   5.516   1.037   4.749  1.2220  0.7674  1.7208
 2836TIP3    H2 8470   5.518   1.135   4.633 -1.1867 -0.0313  0.9706
 2837TIP3   OH2 8471   5.748   0.921   2.186  0.1191  0.5111 -0.1747
 2837TIP3    H1 8472   5.730   0.943   2.094 -1.0835  0.5591  0.0637
 2837TIP3    H2 8473   5.759   0.826   2.186  0.7597  0.5813 -0.4687
 2838TIP3   OH2 8474   2.761   7.025   1.006  0.0906 -0.0459 -0.0794
 2838TIP3    H1 8475   2.676   6.982   1.004 -0.9076  1.7265  2.0238
 2838TIP3    H2 8476   2.806   6.986   1.081 -0.1105  1.2401  0.7238
 2839TIP3   OH2 8477   4.243   3.224   4.233  0.4190 -0.4429  0.1570
 2839TIP3    H1 8478   4.148   3.240   4.230  0.7189  1.2327 -0.8949
 2839TIP3    H2 8479   4.253   3.134   4.202 -0.7601 -0.3671 -0.4612
 2840TIP3   OH2 8480   3.386   3.765   0.901  0.5687  0.2717  0.7437
 2840TIP3    H1 8481   3.438   3.698   0.946  1.2019 -1.2479 -2.1797
 2840TIP3    H2 8482   3.311   3.718   0.866  0.0214  1.4527  0.3094
 2841TIP3   OH2 8483   7.545   2.281   1.221  0.6184 -0.0200 -0.0617
 2841TIP3    H1 8484   7.459   2.268   1.181 -0.3458  1.8787  1.2951
 2841TIP3    H2 8485   7.571   2.194   1.252 -0.7664 -0.6335 -0.5916
 2842TIP3   OH2 8486   2.899   1.744   2.292 -0.2060 -0.1292 -0.0696
 2842TIP3    H1 8487   2.875   1.792   2.213 -3.9322 -0.9309  0.5004
 2842TIP3    H2 8488   2.872   1.801   2.364  0.6228 -0.6196  0.6408
 2843TIP3   OH2 8489  -0.004   2.885   2.508 -0.4166  0.0880  0.0707
 2843TIP3    H1 8490   0.072   2.862   2.561  0.3921  1.6874 -0.3761
 2843TIP3    H2 8491   0.034   2.917   2.426 -1.5505  1.9108  0.2514
 2844TIP3   OH2 8492   5.509   0.621   2.215 -0.0446 -0.5363 -0.0040
 2844TIP3    H1 8493   5.471   0.670   2.141  0.9788 -1.0938 -0.9207
 2844TIP3    H2 8494   5.602   0.644   2.213  0.0480 -0.8215  0.9184
 2845TIP3   OH2 8495   6.482   2.271   0.733 -0.3571  0.3483 -0.0118
 2845TIP3    H1 8496   6.461   2.218   0.810 -0.9109  0.0294 -0.3787
 2845TIP3    H2 8497   6.457   2.360   0.758  3.8422  1.1104  1.9166
 2846TIP3   OH2 8498   4.815   4.231   2.180 -0.0845  0.0785 -0.2517
 2846TIP3    H1 8499   4.768   4.303   2.139  0.1071 -0.4088 -1.3357
 2846TIP3    H2 8500   4.809   4.159   2.117 -0.0753 -0.7805  0.7144
 2847TIP3   OH2 8501   4.335   2.138   0.069 -0.0585  0.2204  0.6467
 2847TIP3    H1 8502   4.242   2.156   0.086  0.5301  1.2158  3.0414
 2847TIP3    H2 8503   4.382   2.203   0.122  2.0094  1.5005 -2.5876
 2848TIP3   OH2 8504   5.464   2.145   3.172  0.0335 -0.0834 -0.0652
 2848TIP3    H1 8505   5.543   2.119   3.125  0.4041 -0.1302  0.5841
 2848TIP3    H2 8506   5.433   2.064   3.213 -0.2002 -0.0127 -0.1026
 2849TIP3   OH2 8507   0.320   5.251   1.449 -0.1969 -0.6371  0.0071
 2849TIP3    H1 8508   0.280   5.204   1.376 -1.3558  1.0672 -0.4823
 2849TIP3    H2 8509   0.409   5.215   1.455 -1.2209 -3.2784  0.0331
 2850TIP3   OH2 8510   5.233   3.029   0.611  0.0337  0.2537  0.3252
 2850TIP3    H1 8511   5.198   3.113   0.581 -0.7947  0.3687  1.5723
 2850TIP3    H2 8512   5.168   2.964   0.584  1.1746 -0.1441 -1.5702
 2851TIP3   OH2 8513   0.499   2.097   1.274  0.1883 -0.4127 -0.2777
 2851TIP3    H1 8514   0.418   2.141   1.302  1.8297  2.4027  0.2665
 2851TIP3    H2 8515   0.516   2.033   1.343 -0.1784  0.8430  1.0205
 2852TIP3   OH2 8516   1.264   2.821   3.911  0.0139 -0.9465  0.4957
 2852TIP3    H1 8517   1.302   2.778   3.988 -0.2022 -1.4133  0.3431
 2852TIP3    H2 8518   1.171   2.797   3.913 -0.3240  0.3518  0.9783
 2853TIP3   OH2 8519   0.865   3.094   1.857 -0.0669  0.6477 -0.4010
 2853TIP3    H1 8520   0.892   3.182   1.883  0.5235  0.3766 -0.0693
 2853TIP3    H2 8521   0.943   3.057   1.815  0.3081 -0.3683  1.1370
 2854TIP3   OH2 8522   7.388   2.859   2.693 -0.1921 -0.2189 -0.2395
 2854TIP3    H1 8523   7.345   2.930   2.740  0.5071 -0.5573  0.9418
 2854TIP3    H2 8524   7.474   2.894   2.670 -0.5533 -0.0330 -1.3461
 2855TIP3   OH2 8525   4.085   1.943   1.774 -0.3066 -0.4896 -0.3767
 2855TIP3    H1 8526   4.174   1.937   1.738 -0.6080 -0.7288 -1.0858
 2855TIP3    H2 8527   4.085   1.881   1.848  0.0491 -0.6536 -0.5128
 2856TIP3   OH2 8528   4.854   0.401   1.310  0.2417  0.0316  0.0160
 2856TIP3    H1 8529   4.904   0.481   1.295  1.4474 -0.7020  0.0730
 2856TIP3    H2 8530   4.819   0.411   1.399  1.1488  0.1018  0.3739
 2857TIP3   OH2 8531   5.841   2.362   2.952  0.2981 -0.3484 -0.3523
 2857TIP3    H1 8532   5.905   2.358   3.023  0.3610 -2.5407 -0.4814
 2857TIP3    H2 8533   5.760   2.391   2.994  0.4885 -1.0427  0.5222
 2858TIP3   OH2 8534   6.041   5.106   0.009 -0.0445 -0.3394 -0.1937
 2858TIP3    H1 8535   6.089   5.058   0.077 -0.1175 -0.5787 -0.3132
 2858TIP3    H2 8536   6.062   5.060  -0.072 -1.1388 -0.9417 -0.1388
 2859TIP3   OH2 8537   5.024   3.725   2.252  0.1172 -0.0426  0.6158
 2859TIP3    H1 8538   5.028   3.697   2.161  0.3059  1.2400  0.2150
 2859TIP3    H2 8539   5.077   3.661   2.300  1.9864  0.6019 -0.5311
 2860TIP3   OH2 8540   7.268   3.915   1.185  0.5156  0.1643  0.1353
 2860TIP3    H1 8541   7.297   4.006   1.174  0.9109 -0.2025 -2.0783
 2860TIP3    H2 8542   7.178   3.923   1.216  1.1358  1.3082  1.7078
 2861TIP3   OH2 8543   7.782   3.500   0.561  0.2057  0.3462 -0.1465
 2861TIP3    H1 8544   7.744   3.568   0.506 -0.0386  0.1200 -0.2581
 2861TIP3    H2 8545   7.871   3.489   0.528 -0.4721 -0.9662 -1.5876
 2862TIP3   OH2 8546   7.402   4.092   2.242  0.2743  0.6747 -0.1055
 2862TIP3    H1 8547   7.476   4.148   2.218 -0.6269  2.5951  1.5335
 2862TIP3    H2 8548   7.335   4.152   2.275 -1.7500 -1.1005 -0.8328
 2863TIP3   OH2 8549   0.691   3.582   2.450 -0.3251 -0.7092 -0.2466
 2863TIP3    H1 8550   0.613   3.614   2.495  0.3888  0.3860  0.2310
 2863TIP3    H2 8551   0.711   3.499   2.493  0.4078  0.3643  1.5436
 2864TIP3   OH2 8552   5.626   4.234   1.913  0.4468 -0.1924  0.2225
 2864TIP3    H1 8553   5.686   4.237   1.987  0.7000 -1.1823  0.0653
 2864TIP3    H2 8554   5.593   4.144   1.912  0.2917 -0.1369 -0.7438
 2865TIP3   OH2 8555   4.531   1.706   0.928  0.8096 -0.3005  0.0334
 2865TIP3    H1 8556   4.564   1.629   0.974  2.4896 -0.1482 -0.8762
 2865TIP3    H2 8557   4.599   1.727   0.864 -1.0886 -0.0235 -1.9802
 2866TIP3   OH2 8558   5.134   3.276   0.492  0.1885 -0.2893 -0.1673
 2866TIP3    H1 8559   5.063   3.318   0.540  0.1296 -0.6617  0.0661
 2866TIP3    H2 8560   5.099   3.262   0.404  0.5703  1.1407 -0.5691
 2867TIP3   OH2 8561   4.742   4.452   2.023 -0.3365 -0.9969  0.3238
 2867TIP3    H1 8562   4.824   4.499   2.009 -0.6333 -0.7281 -0.5799
 2867TIP3    H2 8563   4.673   4.517   2.008 -0.7190 -1.1568  1.3186
 2868TIP3   OH2 8564   6.116   4.044   0.708  0.4521 -0.0851 -0.1699
 2868TIP3    H1 8565   6.150   3.995   0.783  0.0580  0.9607  0.7209
 2868TIP3    H2 8566   6.034   4.082   0.740  1.0576  1.6585 -0.6219
 2869TIP3   OH2 8567   2.870   2.492   2.225 -0.1924 -0.4144  0.4701
 2869TIP3    H1 8568   2.829   2.453   2.148 -0.3912 -2.1011  1.4085
 2869TIP3    H2 8569   2.813   2.567   2.247 -0.0335  0.1863 -1.0946
 2870TIP3   OH2 8570   6.265   0.639   1.729  0.0419  0.0059  0.1701
 2870TIP3    H1 8571   6.358   0.645   1.709 -0.4754  0.4541 -2.2555
 2870TIP3    H2 8572   6.238   0.729   1.747 -0.4509  0.3111 -1.8668
 2871TIP3   OH2 8573   3.758   0.946   6.043 -0.9608  0.2500  0.1024
 2871TIP3    H1 8574   3.791   0.861   6.073  0.0777  0.2367 -1.0292
 2871TIP3    H2 8575   3.728   0.929   5.953  3.0274  1.9397 -1.6586
 2872TIP3   OH2 8576   5.664   4.967   2.667 -0.6449  0.2725  0.2131
 2872TIP3    H1 8577   5.622   4.994   2.585  0.1775  1.2388  0.0958
 2872TIP3    H2 8578   5.597   4.983   2.734 -1.1740 -0.1255 -0.2121
 2873TIP3   OH2 8579   7.676   3.208   5.517  0.0080 -0.4722 -0.0443
 2873TIP3    H1 8580   7.679   3.174   5.607 -1.3871  0.4774  0.3905
 2873TIP3    H2 8581   7.747   3.163   5.472  2.0646  0.5166  2.0629
 2874TIP3   OH2 8582   7.264   1.724   1.286 -0.1372  0.2858 -0.6858
 2874TIP3    H1 8583   7.332   1.714   1.353  1.2947  0.1309 -2.1526
 2874TIP3    H2 8584   7.183   1.737   1.337  0.6093 -1.7196  1.1122
 2875TIP3   OH2 8585   4.809   1.795   2.958 -0.6141  0.0559 -0.0749
 2875TIP3    H1 8586   4.769   1.835   2.881 -0.0561  0.2440 -0.2701
 2875TIP3    H2 8587   4.745   1.731   2.988 -1.5061  1.0720  0.2222
 2876TIP3   OH2 8588   7.206   4.227   2.378 -0.4524  0.5226 -0.4382
 2876TIP3    H1 8589   7.256   4.259   2.453 -1.5613 -1.0526  1.0192
 2876TIP3    H2 8590   7.156   4.153   2.412 -2.4314  0.9526 -2.2794
 2877TIP3   OH2 8591   6.831   1.964   3.794  0.0363  0.2870  0.1608
 2877TIP3    H1 8592   6.906   1.980   3.852 -0.1332  2.4832 -0.2157
 2877TIP3    H2 8593   6.755   1.984   3.848 -0.1602  1.2351 -0.4618
 2878TIP3   OH2 8594   7.538   2.917   0.599  0.1765  0.0403 -0.5071
 2878TIP3    H1 8595   7.588   2.998   0.605 -1.3291  0.9314  0.1195
 2878TIP3    H2 8596   7.469   2.935   0.536  1.4734 -1.6614 -2.5081
 2879TIP3   OH2 8597   3.467   2.843   0.849 -0.5961 -0.1663 -0.1830
 2879TIP3    H1 8598   3.386   2.873   0.890 -0.7222  0.0944 -0.6144
 2879TIP3    H2 8599   3.456   2.749   0.839 -1.3686  0.0486 -1.3808
 2880TIP3   OH2 8600   4.788   0.407   1.600 -0.6365  0.2587  0.2157
 2880TIP3    H1 8601   4.775   0.408   1.695  0.0461 -1.4855  0.3373
 2880TIP3    H2 8602   4.700   0.397   1.564 -0.7656 -0.3688  0.7041
 2881TIP3   OH2 8603   0.164   2.137   0.048 -0.3944  0.8017 -0.0507
 2881TIP3    H1 8604   0.131   2.224   0.027  0.6096  0.9016 -1.2938
 2881TIP3    H2 8605   0.093   2.077   0.025 -0.4425  1.1645 -0.8585
 2882TIP3   OH2 8606   6.676   3.082   2.769  0.2171 -0.1243 -0.0626
 2882TIP3    H1 8607   6.634   3.167   2.758 -1.2361 -0.6846  0.9727
 2882TIP3    H2 8608   6.628   3.023   2.710 -1.2329 -1.0044  1.9248
 2883TIP3   OH2 8609   3.867   3.017   0.787 -0.5595  0.0922 -0.0673
 2883TIP3    H1 8610   3.841   2.965   0.712  0.1533 -0.5915  0.1463
 2883TIP3    H2 8611   3.793   3.013   0.847 -2.0372  2.4677 -1.6397
 2884TIP3   OH2 8612   4.506   1.652   2.423 -0.4855 -0.3368  0.2098
 2884TIP3    H1 8613   4.468   1.620   2.342 -1.7497 -0.5765  0.8848
 2884TIP3    H2 8614   4.580   1.594   2.441  0.2225  0.1357 -1.1132
 2885TIP3   OH2 8615   5.049   4.100   3.047  0.1521 -0.2070  0.8193
 2885TIP3    H1 8616   5.085   4.181   3.083 -0.1009  0.3294 -0.1388
 2885TIP3    H2 8617   5.102   4.031   3.088  0.1823  0.4111  1.8573
 2886TIP3   OH2 8618   6.377   5.191   6.271 -0.1788 -0.5522 -0.5967
 2886TIP3    H1 8619   6.446   5.139   6.315  0.1808  0.8156  0.4912
 2886TIP3    H2 8620   6.302   5.183   6.330 -0.4294 -0.6478 -0.9329
 2887TIP3   OH2 8621   6.722   1.577   2.531 -0.2411  0.5094  0.0222
 2887TIP3    H1 8622   6.799   1.529   2.562 -0.4241  0.1766 -0.0290
 2887TIP3    H2 8623   6.757   1.645   2.474  0.0865  1.0600  0.8780
 2888TIP3   OH2 8624   7.559   1.711   0.191  0.7489  0.0772  0.2137
 2888TIP3    H1 8625   7.609   1.695   0.271  0.7548 -2.0376 -0.1847
 2888TIP3    H2 8626   7.562   1.806   0.180  1.4166  0.3290  2.2826
 2889TIP3   OH2 8627   5.280   2.887   1.204 -0.0456  0.1347  0.0159
 2889TIP3    H1 8628   5.185   2.875   1.204  0.0267 -0.8288 -2.8141
 2889TIP3    H2 8629   5.315   2.801   1.228  0.1383 -0.1996 -1.4131
 2890TIP3   OH2 8630   5.228   2.642   2.859 -0.9332  0.0799  0.0872
 2890TIP3    H1 8631   5.289   2.682   2.921  1.6744  0.1875 -2.4663
 2890TIP3    H2 8632   5.203   2.713   2.800 -0.3551 -0.8383 -1.3030
 2891TIP3   OH2 8633   6.040   2.053   3.526  0.3179 -0.2369 -0.2795
 2891TIP3    H1 8634   6.045   2.034   3.619  1.2390  1.5629  0.0632
 2891TIP3    H2 8635   5.951   2.085   3.513  0.1538 -0.5904 -0.0536
 2892TIP3   OH2 8636   5.391   2.684   1.360  0.6327  0.4626 -0.0518
 2892TIP3    H1 8637   5.317   2.637   1.398  2.2462 -0.8706  1.5726
 2892TIP3    H2 8638   5.463   2.621   1.364  2.8545  3.0487  2.1285
 2893TIP3   OH2 8639   6.780   3.665   1.541 -0.7794 -0.2980  0.5239
 2893TIP3    H1 8640   6.841   3.692   1.472 -2.8548 -0.3095 -1.3726
 2893TIP3    H2 8641   6.745   3.581   1.511 -0.7275 -0.9685  2.2621
 2894TIP3   OH2 8642   6.840   6.484   6.296  0.2107 -0.5427 -0.8544
 2894TIP3    H1 8643   6.880   6.436   6.224  1.1025  0.6816 -1.1959
 2894TIP3    H2 8644   6.905   6.551   6.320 -0.7275  0.0722  0.0346
 2895TIP3   OH2 8645   4.436   1.698   1.773 -0.2257 -0.0800 -0.2568
 2895TIP3    H1 8646   4.400   1.621   1.816  1.3204  0.4201  2.0238
 2895TIP3    H2 8647   4.530   1.692   1.789  0.4141  0.2614 -3.4069
 2896TIP3   OH2 8648   4.911   1.948   3.388  0.0715  0.4038  0.4833
 2896TIP3    H1 8649   4.997   1.949   3.346 -0.1100 -0.0906  0.1031
 2896TIP3    H2 8650   4.854   1.992   3.325  0.2321  1.5918  1.1446
 2897TIP3   OH2 8651   5.447   1.001   1.477  0.7859  0.0882 -0.0583
 2897TIP3    H1 8652   5.510   0.939   1.439 -0.4246 -0.2689 -1.5414
 2897TIP3    H2 8653   5.390   1.024   1.404  0.2040  1.6791  0.8906
 2898TIP3   OH2 8654   0.158   3.071   3.176  0.5456  0.7416  0.5345
 2898TIP3    H1 8655   0.077   3.056   3.225  0.3056  0.6541  0.1133
 2898TIP3    H2 8656   0.219   3.106   3.241  0.9101 -1.4412  1.4140
 2899TIP3   OH2 8657   1.878   6.453   3.594  0.1418 -0.1437 -0.1918
 2899TIP3    H1 8658   1.788   6.420   3.586  0.3232 -0.4656 -0.9252
 2899TIP3    H2 8659   1.879   6.531   3.539  0.2395  0.0147  0.0340
 2900TIP3   OH2 8660   5.113   3.212   2.980 -0.4144  0.8721  0.4684
 2900TIP3    H1 8661   5.043   3.177   3.035 -0.4716  1.4403  0.7543
 2900TIP3    H2 8662   5.148   3.135   2.934  0.5316  0.1866  2.2942
 2901TIP3   OH2 8663   3.717   3.024   4.809 -0.1956 -0.6098 -0.6246
 2901TIP3    H1 8664   3.746   3.032   4.718 -0.9484  0.3790 -0.7880
 2901TIP3    H2 8665   3.695   2.931   4.819  0.0798 -0.7646 -1.3989
 2902TIP3   OH2 8666   6.422   2.544   1.631  0.3185  0.1701  0.0395
 2902TIP3    H1 8667   6.470   2.555   1.713 -0.4125  1.3071  0.3363
 2902TIP3    H2 8668   6.330   2.538   1.657  0.1825 -0.6165 -0.6143
 2903TIP3   OH2 8669   7.678   2.740   1.659  0.4409 -0.7778  0.0792
 2903TIP3    H1 8670   7.684   2.646   1.674  1.0601 -0.6797  0.4825
 2903TIP3    H2 8671   7.648   2.748   1.569  1.8734 -1.3642 -0.4642
 2904TIP3   OH2 8672   0.798   2.443   4.040  0.2851 -0.1338 -0.4446
 2904TIP3    H1 8673   0.711   2.407   4.026 -1.3074  3.2774  0.2667
 2904TIP3    H2 8674   0.817   2.426   4.132  0.0580 -0.1612 -0.4032
 2905TIP3   OH2 8675   7.202   2.839   3.309  0.2593 -0.3394 -0.4079
 2905TIP3    H1 8676   7.142   2.796   3.370  0.2289  1.1175  0.6185
 2905TIP3    H2 8677   7.284   2.848   3.358  0.3817  0.4049 -0.7389
 2906TIP3   OH2 8678   5.872   4.197   3.472 -0.2236  0.6733  0.4477
 2906TIP3    H1 8679   5.917   4.219   3.554  0.6517  0.5195  0.0209
 2906TIP3    H2 8680   5.926   4.128   3.434 -0.4862  0.9232 -0.3777
 2907TIP3   OH2 8681   0.626   1.436   2.270  0.4523 -0.0640  1.0354
 2907TIP3    H1 8682   0.598   1.371   2.334  0.0532 -1.3569 -0.4148
 2907TIP3    H2 8683   0.716   1.410   2.247  0.5769  0.3626  1.0336
 2908TIP3   OH2 8684   1.250   0.231   2.227 -0.5377  0.1433  0.1871
 2908TIP3    H1 8685   1.219   0.314   2.189  0.8241  0.1627 -0.9011
 2908TIP3    H2 8686   1.217   0.233   2.317 -1.7012  1.2264 -0.2388
 2909TIP3   OH2 8687   6.278   2.410   2.877 -0.4402  0.3612 -0.1643
 2909TIP3    H1 8688   6.324   2.453   2.949  0.0206  1.3905 -1.0627
 2909TIP3    H2 8689   6.340   2.344   2.846 -0.2363  0.6101 -0.2861
 2910TIP3   OH2 8690   6.538   7.111   3.336 -0.0759 -0.4096  0.1939
 2910TIP3    H1 8691   6.586   7.069   3.265 -1.0149  2.2696 -2.1328
 2910TIP3    H2 8692   6.448   7.082   3.325  0.0419 -1.1789  1.2294
 2911TIP3   OH2 8693   4.437   2.310   1.787 -0.0501  0.0663 -1.1003
 2911TIP3    H1 8694   4.453   2.261   1.707 -1.3959 -2.6002  0.2177
 2911TIP3    H2 8695   4.341   2.312   1.796  0.0772  0.2937  0.4313
 2912TIP3   OH2 8696   6.120   1.195   3.207 -0.4685  0.5788 -0.7871
 2912TIP3    H1 8697   6.088   1.123   3.152 -0.1708 -0.1196 -0.0606
 2912TIP3    H2 8698   6.131   1.156   3.293 -0.5406  1.5695 -0.3232
 2913TIP3   OH2 8699   5.173   2.404   0.491 -0.6576  0.0146 -0.1642
 2913TIP3    H1 8700   5.209   2.329   0.539 -1.2694 -1.1129 -1.4481
 2913TIP3    H2 8701   5.211   2.481   0.535 -0.2586 -1.0293  1.3478
 2914TIP3   OH2 8702   4.097   2.572   0.336 -0.3382 -0.2227  0.1983
 2914TIP3    H1 8703   4.190   2.589   0.352 -0.2927 -1.1454  0.9499
 2914TIP3    H2 8704   4.054   2.655   0.356  0.1465 -0.2725  1.5409
 2915TIP3   OH2 8705   4.160   4.945   1.084 -0.1752 -0.2524 -0.0908
 2915TIP3    H1 8706   4.158   4.914   0.994  0.8419 -1.8644  0.4052
 2915TIP3    H2 8707   4.108   4.881   1.133 -0.7115  0.5982  0.4587
 2916TIP3   OH2 8708   4.853   4.061   1.746 -0.4732  0.3432 -0.5732
 2916TIP3    H1 8709   4.790   4.131   1.762 -1.3783 -0.5648 -0.0447
 2916TIP3    H2 8710   4.845   4.004   1.823  1.0893  0.2915 -0.4460
 2917TIP3   OH2 8711   1.669   6.254   5.694 -0.0046  0.2813  0.0126
 2917TIP3    H1 8712   1.679   6.317   5.766 -0.4337  1.2754 -0.7791
 2917TIP3    H2 8713   1.575   6.240   5.687  0.1850 -1.9845  1.4523
 2918TIP3   OH2 8714   6.897   3.254   2.311  0.2485 -0.2485  0.3670
 2918TIP3    H1 8715   6.973   3.257   2.369  0.2605 -0.7311  0.3804
 2918TIP3    H2 8716   6.934   3.249   2.223  0.2331 -0.3581  0.3667
 2919TIP3   OH2 8717   6.266   2.958   3.254  0.2923  0.0680 -0.4800
 2919TIP3    H1 8718   6.224   2.872   3.256 -2.5326  1.4109 -0.0654
 2919TIP3    H2 8719   6.318   2.957   3.174  1.3466 -2.4743  0.1713
 2920TIP3   OH2 8720   1.066   3.853   1.822  0.0980  1.1048 -0.5710
 2920TIP3    H1 8721   0.992   3.879   1.767 -1.9715 -0.9490  1.1447
 2920TIP3    H2 8722   1.107   3.780   1.775 -1.6740 -0.6556  0.5765
 2921TIP3   OH2 8723   7.079   1.712   1.702  0.0773  0.8558  0.0232
 2921TIP3    H1 8724   7.098   1.805   1.688  1.1663  0.9077  1.6974
 2921TIP3    H2 8725   7.161   1.668   1.679  0.4288  0.5698  1.7255
 2922TIP3   OH2 8726   7.517   3.211   3.265  0.2576 -0.5303 -0.0360
 2922TIP3    H1 8727   7.438   3.224   3.213  0.8208  1.9172 -0.3377
 2922TIP3    H2 8728   7.549   3.125   3.239 -1.3053 -0.7690 -1.2457
 2923TIP3   OH2 8729   6.931   2.493   3.504  0.0752  0.2601  0.1579
 2923TIP3    H1 8730   6.923   2.432   3.578 -0.2842 -0.4124 -0.4299
 2923TIP3    H2 8731   6.853   2.476   3.451  0.2653  0.8391 -0.3029
 2924TIP3   OH2 8732   5.011   3.201   2.340 -0.9110 -0.5982  0.2683
 2924TIP3    H1 8733   5.099   3.198   2.303 -1.4228 -1.7954 -0.8894
 2924TIP3    H2 8734   5.025   3.197   2.434  0.2396 -2.0390  0.0606
 2925TIP3   OH2 8735   6.101   1.379   0.957 -0.5061 -0.9757 -0.5721
 2925TIP3    H1 8736   6.060   1.410   0.877 -2.3765  1.3318  1.2293
 2925TIP3    H2 8737   6.033   1.328   1.002  0.1980 -1.3669  0.0729
 2926TIP3   OH2 8738   1.577   2.364   3.242  0.4646 -0.3653 -0.0422
 2926TIP3    H1 8739   1.616   2.346   3.156 -1.4093  0.2314 -1.0384
 2926TIP3    H2 8740   1.544   2.279   3.271  1.0354 -0.5544  0.0728
 2927TIP3   OH2 8741   7.064   3.527   1.554  0.5037 -0.8864  0.0316
 2927TIP3    H1 8742   7.030   3.503   1.468 -1.1481 -1.4737  0.8320
 2927TIP3    H2 8743   7.029   3.460   1.614 -0.9616  1.2739  1.6638
 2928TIP3   OH2 8744   1.843   0.045   2.763 -0.2387  0.7804 -0.1169
 2928TIP3    H1 8745   1.903  -0.025   2.790  2.5553  2.9956 -0.3800
 2928TIP3    H2 8746   1.838   0.037   2.667 -1.1077  0.0774 -0.0301
 2929TIP3   OH2 8747   0.324   2.266   0.742  0.1159  0.0652  0.1971
 2929TIP3    H1 8748   0.418   2.259   0.726  0.1262  1.8984 -0.6822
 2929TIP3    H2 8749   0.317   2.287   0.835  0.6214  0.7525  0.0828
 2930TIP3   OH2 8750   5.539   2.378   2.436  0.3162 -0.6451  0.1839
 2930TIP3    H1 8751   5.529   2.298   2.383  0.5702 -1.8449  1.9245
 2930TIP3    H2 8752   5.609   2.426   2.392 -0.0423 -1.2222 -1.0658
 2931TIP3   OH2 8753   4.629   2.515   1.858  0.0379  0.6178  0.0388
 2931TIP3    H1 8754   4.649   2.489   1.948 -0.5062  0.1101  0.0173
 2931TIP3    H2 8755   4.574   2.444   1.825 -2.9681  2.6291  0.5534
 2932TIP3   OH2 8756   5.557   2.524   3.533  0.1299  0.2396  0.0397
 2932TIP3    H1 8757   5.533   2.499   3.444 -1.5125 -3.6211  1.4815
 2932TIP3    H2 8758   5.652   2.511   3.536 -0.1210 -1.8031 -0.4864
 2933TIP3   OH2 8759   0.937   1.824   2.421 -0.0708  0.3506 -0.0201
 2933TIP3    H1 8760   0.996   1.856   2.353  0.6519  1.6682  1.1970
 2933TIP3    H2 8761   0.994   1.786   2.487 -0.6866  0.1994  0.4295
 2934TIP3   OH2 8762   6.688   1.891   3.222 -0.2864 -0.1593 -0.2684
 2934TIP3    H1 8763   6.661   1.882   3.313  2.5544  0.5929  0.7209
 2934TIP3    H2 8764   6.690   1.801   3.189 -1.2406 -0.4459  0.4258
 2935TIP3   OH2 8765   1.457   3.194   3.971  0.6554  0.1146  0.2171
 2935TIP3    H1 8766   1.369   3.179   4.005  1.4547  0.5196  2.4962
 2935TIP3    H2 8767   1.444   3.200   3.876 -1.6597 -0.5762  0.4448
 2936TIP3   OH2 8768   7.409   0.699   2.156 -0.5724 -0.0456  0.6256
 2936TIP3    H1 8769   7.411   0.614   2.111  1.9957  0.3539 -0.1355
 2936TIP3    H2 8770   7.402   0.763   2.085 -2.3908  0.3857  1.1905
 2937TIP3   OH2 8771   6.845   2.527   5.318 -0.7673  0.0298 -0.6635
 2937TIP3    H1 8772   6.778   2.540   5.251  1.3827 -2.2934 -3.3936
 2937TIP3    H2 8773   6.887   2.612   5.326 -2.5707  0.9403 -0.5052
 2938TIP3   OH2 8774   5.368   1.929   3.392  0.2676 -0.4282 -0.5536
 2938TIP3    H1 8775   5.278   1.897   3.394  0.3707 -0.9053 -2.6360
 2938TIP3    H2 8776   5.422   1.852   3.408  0.3920 -0.6167 -1.8779
 2939TIP3   OH2 8777   5.301   6.906   3.357  0.3507 -0.5480  0.1932
 2939TIP3    H1 8778   5.286   6.994   3.321  0.0991 -0.8318 -0.4175
 2939TIP3    H2 8779   5.390   6.908   3.391  1.5870 -1.0440 -2.8363
 2940TIP3   OH2 8780   3.263   6.996   3.387 -0.0606 -0.1097 -0.6640
 2940TIP3    H1 8781   3.203   7.033   3.323  1.0254 -0.7912 -2.0923
 2940TIP3    H2 8782   3.297   7.072   3.435 -1.4655  0.3304 -0.3566
 2941TIP3   OH2 8783   3.666   2.465   1.468 -0.2797 -0.0382  0.7230
 2941TIP3    H1 8784   3.728   2.449   1.539 -0.4921  1.6248  1.2969
 2941TIP3    H2 8785   3.593   2.406   1.486 -0.6588  0.9056  2.3125
 2942TIP3   OH2 8786   0.267   3.281   0.460 -0.4713  0.4117  0.0371
 2942TIP3    H1 8787   0.300   3.218   0.524  0.5685 -0.0137 -0.8834
 2942TIP3    H2 8788   0.344   3.331   0.434 -0.5229 -0.5217 -2.0780
 2943TIP3   OH2 8789   1.772   2.707   2.268  0.1400 -0.1004 -0.3540
 2943TIP3    H1 8790   1.709   2.769   2.305 -0.7186 -1.7516  1.0207
 2943TIP3    H2 8791   1.813   2.666   2.344  1.9818  0.0376 -1.2441
 2944TIP3   OH2 8792   5.373   3.894   2.633  0.4690 -0.3219 -0.3653
 2944TIP3    H1 8793   5.356   3.852   2.717  0.1758  2.2112  0.8846
 2944TIP3    H2 8794   5.302   3.958   2.624 -0.8271 -2.1022 -3.6461
 2945TIP3   OH2 8795   5.324   3.046   1.684 -0.2520  0.4110  0.0621
 2945TIP3    H1 8796   5.371   2.988   1.624 -0.0449  1.0831 -0.4345
 2945TIP3    H2 8797   5.351   3.016   1.771  0.5970  0.3674 -0.2042
 2946TIP3   OH2 8798   6.441   2.735   0.619 -0.0155  0.4089 -0.3460
 2946TIP3    H1 8799   6.458   2.823   0.653 -0.5385  0.9546 -1.4698
 2946TIP3    H2 8800   6.370   2.747   0.556 -0.8422 -0.9950  0.3066
 2947TIP3   OH2 8801   7.014   1.892   3.328 -0.4393  0.0279  0.4455
 2947TIP3    H1 8802   7.026   1.873   3.421  2.7791 -1.5432 -0.2120
 2947TIP3    H2 8803   6.986   1.808   3.290  1.4091 -0.2171 -0.4547
 2948TIP3   OH2 8804   6.167   0.713   2.783  0.7559 -0.3291  0.7255
 2948TIP3    H1 8805   6.251   0.704   2.827  0.6669  0.5669  1.0889
 2948TIP3    H2 8806   6.104   0.727   2.854  0.2318 -1.4130  0.4916
 2949TIP3   OH2 8807   4.036   4.031   2.252 -0.6719 -0.1084  0.0645
 2949TIP3    H1 8808   4.102   3.979   2.298 -0.0933 -0.5084 -1.2016
 2949TIP3    H2 8809   4.016   3.980   2.173  0.2789  1.8201 -1.4495
 2950TIP3   OH2 8810   2.743   3.410   2.545  0.2939  0.3907 -0.2398
 2950TIP3    H1 8811   2.751   3.381   2.636 -1.7001  0.0763 -0.1340
 2950TIP3    H2 8812   2.753   3.505   2.549  0.2258  0.3747  0.3070
 2951TIP3   OH2 8813   4.361   2.997   1.175 -0.3520  0.2802 -0.3295
 2951TIP3    H1 8814   4.278   2.974   1.217 -0.0951  0.4236  0.2651
 2951TIP3    H2 8815   4.402   3.059   1.235 -0.1135  0.7191 -0.9405
 2952TIP3   OH2 8816   5.157   1.820   2.506  0.2449 -0.1681  0.1947
 2952TIP3    H1 8817   5.146   1.892   2.569  0.7799 -1.4039  1.7268
 2952TIP3    H2 8818   5.247   1.829   2.475 -0.0824  0.5633 -0.5679
 2953TIP3   OH2 8819   7.528   1.438   3.095 -0.3125  0.0630  0.2078
 2953TIP3    H1 8820   7.483   1.455   3.178 -0.1998 -0.0652  0.2942
 2953TIP3    H2 8821   7.501   1.510   3.038 -0.8696 -0.1740  0.1668
 2954TIP3   OH2 8822   5.586   4.056   2.279  0.0438  0.0974 -0.0578
 2954TIP3    H1 8823   5.496   4.067   2.308 -0.2049  0.0300 -0.7924
 2954TIP3    H2 8824   5.580   3.994   2.206  0.5405  0.9824 -0.8650
 2955TIP3   OH2 8825   4.350   2.790   0.869  0.3134 -0.2555  0.3513
 2955TIP3    H1 8826   4.425   2.780   0.927  0.0644 -0.6551  0.6042
 2955TIP3    H2 8827   4.335   2.885   0.865  0.4887 -0.2129  0.7339
 2956TIP3   OH2 8828   5.899   1.439   2.484 -0.0233  0.0968 -0.3918
 2956TIP3    H1 8829   5.902   1.520   2.534 -0.1134 -1.2317  1.8166
 2956TIP3    H2 8830   5.985   1.433   2.442  0.7702  0.2647  1.1841
 2957TIP3   OH2 8831   4.008   1.365   4.239 -0.4495  0.3877 -0.3099
 2957TIP3    H1 8832   3.950   1.336   4.310  0.4152  0.1365  0.2968
 2957TIP3    H2 8833   4.087   1.313   4.250 -0.4678  0.0403 -1.7286
 2958TIP3   OH2 8834   0.102   2.148   2.156 -0.3877  0.4481  0.4151
 2958TIP3    H1 8835   0.126   2.215   2.220 -0.3220  0.6781  0.1499
 2958TIP3    H2 8836   0.174   2.148   2.094 -0.1144 -0.2727  0.7319
 2959TIP3   OH2 8837   0.528   2.189   2.030 -0.0629  0.0117  0.1469
 2959TIP3    H1 8838   0.541   2.267   2.083  0.5180  0.8531 -1.2195
 2959TIP3    H2 8839   0.460   2.212   1.967  1.6205  0.1963 -1.6897
 2960TIP3   OH2 8840   7.524   1.431   3.578  0.3189  0.1640  0.1177
 2960TIP3    H1 8841   7.584   1.488   3.531  0.2303  0.8147  0.7922
 2960TIP3    H2 8842   7.440   1.477   3.575  0.5390  0.7021  1.7903
 2961TIP3   OH2 8843   4.072   2.467   3.210 -0.4636 -0.1302  0.3511
 2961TIP3    H1 8844   4.093   2.459   3.118  0.1939  0.5541  0.4369
 2961TIP3    H2 8845   4.049   2.378   3.238 -1.3758 -0.2136 -0.6321
 2962TIP3   OH2 8846   7.398   1.178   3.499 -0.3949 -0.0628  0.1636
 2962TIP3    H1 8847   7.356   1.232   3.432 -0.5391  0.0629  0.3550
 2962TIP3    H2 8848   7.372   1.217   3.582 -0.0295 -0.0825  0.2884
 2963TIP3   OH2 8849   4.758   0.796   2.612 -0.2124 -0.3824  0.0073
 2963TIP3    H1 8850   4.764   0.840   2.697 -3.1949  3.0015 -1.4369
 2963TIP3    H2 8851   4.844   0.810   2.572  1.0378 -1.5419  2.1505
 2964TIP3   OH2 8852   6.049   1.300   1.308 -0.0622  0.4565 -0.6792
 2964TIP3    H1 8853   6.013   1.385   1.335 -2.7293 -0.5502 -1.0132
 2964TIP3    H2 8854   6.004   1.279   1.227  1.6319 -0.6484 -1.3736
 2965TIP3   OH2 8855   5.535  -0.007   5.909 -0.1021 -0.4054  0.1733
 2965TIP3    H1 8856   5.476   0.030   5.843  2.2057  1.4283 -0.9581
 2965TIP3    H2 8857   5.480  -0.020   5.986 -2.3691 -0.4912 -1.3975
 2966TIP3   OH2 8858   5.573   1.609   1.218  0.0348 -0.1115 -0.0446
 2966TIP3    H1 8859   5.590   1.650   1.134  0.5477  2.8616  1.4384
 2966TIP3    H2 8860   5.484   1.575   1.211 -0.8141  2.2223 -1.0003
 2967TIP3   OH2 8861   7.679   2.971   3.254  0.3796 -0.1231  0.2006
 2967TIP3    H1 8862   7.675   2.947   3.161  0.7332  1.7672 -0.3362
 2967TIP3    H2 8863   7.615   2.914   3.296  0.0373 -0.8456 -1.2465
 2968TIP3   OH2 8864   6.752   2.049   1.566  0.1413  0.0388  0.2535
 2968TIP3    H1 8865   6.701   1.969   1.554  0.8867 -0.3824 -0.1674
 2968TIP3    H2 8866   6.715   2.090   1.644 -0.5961 -0.4438  0.1590
 2969TIP3   OH2 8867   3.254   7.078   6.106 -0.1151 -0.1611 -0.3931
 2969TIP3    H1 8868   3.173   7.074   6.056  0.5481  0.1165 -1.5120
 2969TIP3    H2 8869   3.246   7.009   6.171 -0.4994 -1.3053 -1.6298
 2970TIP3   OH2 8870   4.107   3.379   1.608 -0.3800 -0.2280 -0.1973
 2970TIP3    H1 8871   4.122   3.342   1.695  0.2715  2.0303  0.6942
 2970TIP3    H2 8872   4.122   3.307   1.547  0.2233 -1.5539  1.5107
 2971TIP3   OH2 8873   4.983   2.721   3.110  0.1720 -0.3684  0.5085
 2971TIP3    H1 8874   4.932   2.640   3.101  0.6288 -0.6824  0.6851
 2971TIP3    H2 8875   5.054   2.697   3.170  0.3025  0.1696  0.5657
 2972TIP3   OH2 8876   6.095   1.972   1.276 -0.0348 -0.9546  0.3926
 2972TIP3    H1 8877   6.139   2.055   1.256 -1.4652 -0.3266 -0.2160
 2972TIP3    H2 8878   6.034   1.994   1.347 -1.3782 -1.1603 -0.6716
 2973TIP3   OH2 8879   0.366   3.787   1.549 -0.2918  0.1302 -0.9991
 2973TIP3    H1 8880   0.398   3.876   1.535  0.3063  0.2299  0.8977
 2973TIP3    H2 8881   0.271   3.793   1.536 -0.4012  1.2935  0.2425
 2974TIP3   OH2 8882   4.757   4.603   2.420  0.1509 -0.0622  0.1230
 2974TIP3    H1 8883   4.784   4.558   2.500  2.5407  1.8194  0.4377
 2974TIP3    H2 8884   4.839   4.618   2.372 -0.8174  1.9980 -0.9755
 2975TIP3   OH2 8885   7.653   0.918   0.808 -0.4953  0.0034  0.5838
 2975TIP3    H1 8886   7.662   0.959   0.894 -1.3529  1.2364  0.0905
 2975TIP3    H2 8887   7.730   0.946   0.759  1.1437 -2.4761  1.6412
 2976TIP3   OH2 8888   7.204   3.021   3.851  0.2894  0.5536  0.2305
 2976TIP3    H1 8889   7.145   3.018   3.775  0.0891  2.6605  0.2880
 2976TIP3    H2 8890   7.149   2.994   3.925  0.4201 -1.2628 -0.2988
 2977TIP3   OH2 8891   0.763   0.072   2.304 -0.1747 -0.1224 -0.7977
 2977TIP3    H1 8892   0.693   0.058   2.368  0.1137  0.6381 -0.3069
 2977TIP3    H2 8893   0.816   0.141   2.342  1.0091 -0.8822 -1.0383
 2978TIP3   OH2 8894   0.115   2.307   2.861  0.0956 -0.0979  0.1286
 2978TIP3    H1 8895   0.176   2.324   2.933  0.4844  1.0462 -0.4386
 2978TIP3    H2 8896   0.166   2.256   2.798  0.2580  0.2644 -0.0363
 2979TIP3   OH2 8897   7.244   2.232   2.191 -0.2788 -0.4493  0.5877
 2979TIP3    H1 8898   7.218   2.141   2.202 -0.6418 -0.5254 -0.7240
 2979TIP3    H2 8899   7.217   2.275   2.272 -0.5397 -1.4198  1.0172
 2980TIP3   OH2 8900   5.517   3.255   3.553 -0.2298  0.6976  0.0820
 2980TIP3    H1 8901   5.437   3.254   3.605 -0.1499 -0.4804  0.1932
 2980TIP3    H2 8902   5.578   3.308   3.604 -0.1467 -0.4712  1.2082
 2981TIP3   OH2 8903   6.973   2.668   2.541 -0.0597 -0.4816 -0.2777
 2981TIP3    H1 8904   6.903   2.734   2.542 -0.4893 -0.9368 -0.4304
 2981TIP3    H2 8905   7.013   2.676   2.628 -0.3870 -0.3090 -0.1393
 2982TIP3   OH2 8906   6.933   5.408   1.591  0.3415 -0.4559 -0.1807
 2982TIP3    H1 8907   6.945   5.342   1.658  0.6277  1.4750  1.7093
 2982TIP3    H2 8908   7.017   5.414   1.547  0.2402 -1.5088 -0.5343
 2983TIP3   OH2 8909   6.813   3.072   1.723 -0.2490  0.6922  0.5701
 2983TIP3    H1 8910   6.784   3.037   1.639 -0.4909 -1.1500  1.4028
 2983TIP3    H2 8911   6.744   3.134   1.748 -1.3860 -0.5292  0.5319
 2984TIP3   OH2 8912   7.112   1.709   2.279  0.3455 -0.1331  0.0182
 2984TIP3    H1 8913   7.063   1.636   2.241 -1.2175  1.1646 -0.5353
 2984TIP3    H2 8914   7.048   1.756   2.332  1.6860  0.0288  1.5255
 2985TIP3   OH2 8915   6.846   5.354   0.305 -0.7530  0.3067 -0.5610
 2985TIP3    H1 8916   6.817   5.384   0.392 -1.1693  1.2982 -1.0358
 2985TIP3    H2 8917   6.814   5.421   0.245  2.3031  1.2969 -1.1595
 2986TIP3   OH2 8918   0.655   0.975   3.149  0.6801 -0.0941 -0.6495
 2986TIP3    H1 8919   0.602   1.044   3.188  2.0869 -0.0626  1.2682
 2986TIP3    H2 8920   0.592   0.905   3.130 -0.3033  0.5408  0.1798
 2987TIP3   OH2 8921   7.142   2.321   2.409  0.3245 -0.1545  0.1037
 2987TIP3    H1 8922   7.148   2.336   2.503 -1.1110  0.5735  0.0885
 2987TIP3    H2 8923   7.124   2.407   2.372  0.9720 -0.4220 -0.8603
 2988TIP3   OH2 8924   6.031   3.507   2.679  0.4287 -0.4806 -0.4048
 2988TIP3    H1 8925   6.004   3.423   2.717  0.0006 -0.4824 -0.7045
 2988TIP3    H2 8926   5.951   3.560   2.680  1.1488  0.5888  1.5359
 2989TIP3   OH2 8927   6.359   2.716   2.418  0.0564  0.2537 -0.0522
 2989TIP3    H1 8928   6.296   2.668   2.472  1.1710 -1.4925 -0.2634
 2989TIP3    H2 8929   6.380   2.794   2.469  2.1289 -2.0295  2.7383
 2990TIP3   OH2 8930   6.702   0.662   1.069  0.3927 -0.0323  0.0801
 2990TIP3    H1 8931   6.758   0.714   1.011 -0.0431 -0.3350 -0.6314
 2990TIP3    H2 8932   6.615   0.666   1.027  0.1859 -0.6618  0.4499
 2991TIP3   OH2 8933   6.410   3.759   1.260  0.3770 -0.1412 -0.6491
 2991TIP3    H1 8934   6.348   3.803   1.202  0.4977 -0.8644 -1.3408
 2991TIP3    H2 8935   6.496   3.784   1.225  0.4848  0.7396  0.2166
 2992TIP3   OH2 8936   0.048   1.340   3.566 -0.6941 -0.3424  0.3492
 2992TIP3    H1 8937   0.113   1.287   3.612 -1.0374 -0.9285  0.1558
 2992TIP3    H2 8938  -0.008   1.277   3.521 -0.0865  0.2192 -1.2705
 2993TIP3   OH2 8939   7.655   2.204   4.184 -0.2268 -0.3950  0.2755
 2993TIP3    H1 8940   7.561   2.213   4.197 -0.1196 -0.4077  1.0521
 2993TIP3    H2 8941   7.666   2.206   4.089 -0.7722  1.8227  0.2363
 2994TIP3   OH2 8942   0.431   6.733   5.498 -0.2838 -0.3241  0.0866
 2994TIP3    H1 8943   0.413   6.679   5.421 -0.9006 -1.0651  0.7509
 2994TIP3    H2 8944   0.345   6.763   5.527 -0.2623 -1.8594  1.8019
 2995TIP3   OH2 8945   5.569   2.693   2.834 -0.2276  0.7347  0.4717
 2995TIP3    H1 8946   5.589   2.779   2.798  0.0316  1.0515  1.3485
 2995TIP3    H2 8947   5.519   2.649   2.766 -3.6727  2.9281  1.4410
 2996TIP3   OH2 8948   6.557   2.594   1.897  0.2361 -0.2022  0.0030
 2996TIP3    H1 8949   6.528   2.636   1.978 -3.7378  1.1356 -1.9932
 2996TIP3    H2 8950   6.620   2.655   1.859  0.2652  0.3168  0.8740
 2997TIP3   OH2 8951   4.889   2.849   1.703  0.1328  0.0606  0.2548
 2997TIP3    H1 8952   4.957   2.855   1.637 -0.7784  0.4875 -0.6652
 2997TIP3    H2 8953   4.899   2.928   1.756  0.6430 -0.1027  0.3955
 2998TIP3   OH2 8954   0.527   4.935   2.140  0.1041  0.5129  0.2521
 2998TIP3    H1 8955   0.567   5.010   2.185  1.4938 -1.3870  2.2323
 2998TIP3    H2 8956   0.452   4.912   2.194 -0.1787  0.2962 -0.2284
 2999TIP3   OH2 8957   0.517   1.534   3.347 -0.3915 -1.1185  0.2037
 2999TIP3    H1 8958   0.581   1.602   3.366 -1.5627 -0.5730  2.3169
 2999TIP3    H2 8959   0.568   1.461   3.313  1.1657 -0.1277  0.4039
 3000TIP3   OH2 8960   7.412   2.444   4.206  0.4072  0.5823  0.8368
 3000TIP3    H1 8961   7.388   2.399   4.125 -1.1334  2.0242  0.4621
 3000TIP3    H2 8962   7.499   2.480   4.189 -0.0066  1.0814 -0.2853
 3001TIP3   OH2 8963   0.363   2.108   3.760  0.4393 -0.4548 -0.2689
 3001TIP3    H1 8964   0.368   2.166   3.685  0.1014 -0.8628 -0.6103
 3001TIP3    H2 8965   0.279   2.063   3.750  0.1590 -0.1341  0.6267
 3002TIP3   OH2 8966   5.104   4.732   1.055  0.0121 -0.0570 -0.2942
 3002TIP3    H1 8967   5.058   4.677   0.991 -0.9736  0.5126 -0.1022
 3002TIP3    H2 8968   5.176   4.772   1.006  0.4111 -1.1031 -0.5626
 3003TIP3   OH2 8969   5.887   4.022   1.813 -0.4270  0.1053  0.0850
 3003TIP3    H1 8970   5.896   4.117   1.817  2.5365 -0.1994  1.3105
 3003TIP3    H2 8971   5.905   4.001   1.722 -0.9555  0.6933 -0.1635
 3004TIP3   OH2 8972   0.565   0.152   1.500 -0.2635  0.4016  0.0554
 3004TIP3    H1 8973   0.498   0.176   1.436 -0.7937 -0.0278  0.4439
 3004TIP3    H2 8974   0.518   0.097   1.564  0.1301  1.2720  1.1041
 3005TIP3   OH2 8975   5.911   1.661   2.675  0.1737 -0.3530 -0.0978
 3005TIP3    H1 8976   5.992   1.698   2.708  0.3583 -0.7820 -0.0711
 3005TIP3    H2 8977   5.849   1.669   2.748 -0.4258  1.9138 -0.7941
 3006TIP3   OH2 8978   2.330   6.994   4.907  0.0197 -0.3735 -0.1625
 3006TIP3    H1 8979   2.367   7.048   4.837 -0.5985 -0.4133 -0.5245
 3006TIP3    H2 8980   2.398   6.928   4.923 -0.3282 -1.1191 -1.5992
 3007TIP3   OH2 8981   6.736   0.305   4.225 -0.0969 -0.1962  0.0280
 3007TIP3    H1 8982   6.740   0.381   4.167 -1.6214 -0.7393 -0.8102
 3007TIP3    H2 8983   6.825   0.294   4.257  0.6057  0.5729 -1.6388
 3008TIP3   OH2 8984   7.466   0.442   2.583  0.7379  0.3645 -0.1739
 3008TIP3    H1 8985   7.512   0.505   2.527 -0.3832 -0.4033 -2.0170
 3008TIP3    H2 8986   7.402   0.400   2.525  0.4150 -1.3874  1.3836
 3009TIP3   OH2 8987   0.500   4.203   1.420  0.1150  0.0868 -0.0399
 3009TIP3    H1 8988   0.411   4.176   1.444  0.0577  0.6070  0.3305
 3009TIP3    H2 8989   0.488   4.273   1.356  0.2464  1.1090  1.0397
 3010TIP3   OH2 8990   5.738   3.726   1.489 -0.2384 -0.3980 -0.9507
 3010TIP3    H1 8991   5.749   3.664   1.417  0.4197 -1.3619 -0.0330
 3010TIP3    H2 8992   5.797   3.694   1.557 -0.5046  0.7785 -0.1611
 3011TIP3   OH2 8993   0.435   2.909   1.761 -0.2909 -0.1094  0.0884
 3011TIP3    H1 8994   0.492   2.910   1.838 -0.4028  0.0041  0.1700
 3011TIP3    H2 8995   0.434   2.818   1.733  1.2363  0.1489 -0.8758
 3012TIP3   OH2 8996   7.044   3.341   0.733  0.0023 -0.1868  0.0859
 3012TIP3    H1 8997   7.078   3.354   0.644 -0.0275  1.7748  0.3418
 3012TIP3    H2 8998   7.044   3.246   0.744 -0.3887 -0.4916 -2.1599
 3013TIP3   OH2 8999   5.599   2.934   2.732  0.1470 -0.2691  0.2246
 3013TIP3    H1 9000   5.515   2.979   2.721  0.3358 -0.1978 -0.9996
 3013TIP3    H2 9001   5.662   2.990   2.685  0.4784 -1.5244 -0.8424
 3014TIP3   OH2 9002   0.623   5.721   2.272  0.6099  0.4419  0.4191
 3014TIP3    H1 9003   0.711   5.705   2.239  0.4438 -2.9262  1.4013
 3014TIP3    H2 9004   0.567   5.659   2.225 -0.7093  0.3657  2.0220
 3015TIP3   OH2 9005   0.679   5.819   3.457 -0.6777  0.3904 -0.3248
 3015TIP3    H1 9006   0.663   5.767   3.535 -2.7415  2.3117  0.6101
 3015TIP3    H2 9007   0.755   5.873   3.480  0.1704 -0.7247 -0.5201
 3016TIP3   OH2 9008   0.342   6.174   2.173 -0.1819 -0.5421 -0.0220
 3016TIP3    H1 9009   0.272   6.220   2.128 -0.3174  0.1939  0.9314
 3016TIP3    H2 9010   0.423   6.208   2.133 -0.3227 -0.6260 -0.3862
 3017TIP3   OH2 9011   0.875   3.943   3.631  0.5627  0.3414  0.0226
 3017TIP3    H1 9012   0.836   3.860   3.660 -0.7571  0.7172 -0.6062
 3017TIP3    H2 9013   0.938   3.966   3.699  0.7713 -1.0660  0.3138
 3018TIP3   OH2 9014   3.716   6.106   0.935  0.2642 -0.3747 -0.0421
 3018TIP3    H1 9015   3.626   6.087   0.908 -0.1033 -2.1151  2.2011
 3018TIP3    H2 9016   3.725   6.201   0.925 -2.7175  0.2076  2.1405
 3019TIP3   OH2 9017   7.539   4.172   2.747  0.6324  0.0575  0.2659
 3019TIP3    H1 9018   7.560   4.122   2.668  0.8258 -0.1116  0.4245
 3019TIP3    H2 9019   7.465   4.227   2.721 -0.7387 -1.6008  0.6034
 3020TIP3   OH2 9020   7.039   3.021   3.603 -0.1585 -0.0833  0.4298
 3020TIP3    H1 9021   7.042   2.936   3.559 -0.1374  0.2629 -0.2411
 3020TIP3    H2 9022   7.111   3.071   3.564  0.6114 -0.1781  1.7032
 3021TIP3   OH2 9023   7.537   3.137   4.547  0.3505 -0.1891  0.2560
 3021TIP3    H1 9024   7.586   3.169   4.623 -0.2115 -0.9954  0.9636
 3021TIP3    H2 9025   7.537   3.042   4.557 -0.2208 -0.2649 -0.4523
 3022TIP3   OH2 9026   1.518   6.009   3.058  0.1383  0.2172  0.5364
 3022TIP3    H1 9027   1.511   5.938   2.994  1.1014  0.0671  0.6013
 3022TIP3    H2 9028   1.527   5.964   3.142  0.6123  0.4230  0.5930
 3023TIP3   OH2 9029   7.725   3.393   3.303 -0.3033  0.1183  0.3216
 3023TIP3    H1 9030   7.733   3.394   3.208 -0.7451 -0.0278  0.2843
 3023TIP3    H2 9031   7.664   3.322   3.322  2.5536 -2.2948  0.9192
 3024TIP3   OH2 9032   1.609   3.422   2.028  0.5782 -0.7049 -0.1398
 3024TIP3    H1 9033   1.700   3.446   2.040  0.2614  0.0255  0.8675
 3024TIP3    H2 9034   1.561   3.479   2.088 -0.4987 -1.3689 -0.3570
 3025TIP3   OH2 9035   7.309   2.771   1.917 -0.4730  0.1956 -0.1069
 3025TIP3    H1 9036   7.312   2.702   1.984  0.3378  0.8411  0.5284
 3025TIP3    H2 9037   7.262   2.730   1.844 -0.4136 -0.8811  0.4348
 3026TIP3   OH2 9038   7.171   2.680   4.103 -0.0096 -0.5244  0.3301
 3026TIP3    H1 9039   7.258   2.672   4.062  0.0779 -2.2696  0.8281
 3026TIP3    H2 9040   7.182   2.751   4.166  0.3021  1.0961 -1.4639
 3027TIP3   OH2 9041   7.599   3.737   2.488  0.5723  0.5433 -0.2346
 3027TIP3    H1 9042   7.600   3.663   2.427 -0.5975  0.8836 -0.6755
 3027TIP3    H2 9043   7.630   3.699   2.571  1.2787 -0.1270 -0.7959
 3028TIP3   OH2 9044   0.689   3.537   4.855 -0.3427  0.2408  0.3238
 3028TIP3    H1 9045   0.746   3.580   4.791 -0.5667  1.9508  1.2228
 3028TIP3    H2 9046   0.734   3.456   4.877 -0.2681 -0.3799 -1.9911
 3029TIP3   OH2 9047   7.236   3.404   3.222 -0.0381  0.0901 -0.0796
 3029TIP3    H1 9048   7.156   3.452   3.202 -0.0065  0.1270 -0.1204
 3029TIP3    H2 9049   7.268   3.375   3.137 -0.3814 -0.5284 -0.0002
 3030TIP3   OH2 9050   2.377   2.837   3.949 -0.1373 -0.1563  0.1349
 3030TIP3    H1 9051   2.367   2.778   3.875 -1.8773 -0.2399  0.4235
 3030TIP3    H2 9052   2.400   2.780   4.022  1.7370 -0.0558 -0.3507
 3031TIP3   OH2 9053   0.447   3.601   2.088 -0.4625 -0.1791 -0.6895
 3031TIP3    H1 9054   0.359   3.623   2.117  0.2488  2.0850 -0.1245
 3031TIP3    H2 9055   0.474   3.528   2.143 -1.2194  0.4658  0.5426
 3032TIP3   OH2 9056   0.256   4.921   1.375  0.6823 -0.6027  0.2158
 3032TIP3    H1 9057   0.195   4.942   1.304 -0.6412 -0.0073  1.4850
 3032TIP3    H2 9058   0.323   4.867   1.334 -0.1648 -0.4394 -1.4391
 3033TIP3   OH2 9059   1.493   3.010   3.728 -0.2744  0.2376 -0.8806
 3033TIP3    H1 9060   1.574   2.997   3.678 -1.2729 -0.1265 -2.3989
 3033TIP3    H2 9061   1.483   3.106   3.731  1.0094  0.3615  0.6412
 3034TIP3   OH2 9062   6.640   2.249   4.503 -0.4498  0.7198  0.3762
 3034TIP3    H1 9063   6.718   2.244   4.558  0.4800 -1.7993 -1.0565
 3034TIP3    H2 9064   6.669   2.296   4.425 -0.9181  1.5845  0.7260
 3035TIP3   OH2 9065   1.972   4.030   3.499 -0.2777  0.1476  0.6058
 3035TIP3    H1 9066   1.885   4.030   3.458  0.7644 -1.8134 -1.7344
 3035TIP3    H2 9067   2.003   4.120   3.489 -1.9957  0.8620  1.4163
 3036TIP3   OH2 9068   7.372   6.240   5.116  0.3371 -0.2668  0.0873
 3036TIP3    H1 9069   7.451   6.220   5.166  0.6899 -1.2862 -0.8424
 3036TIP3    H2 9070   7.359   6.334   5.128  0.5097 -0.4588  1.9348
 3037TIP3   OH2 9071   1.714   4.827   4.892  0.6492 -0.0410 -0.0372
 3037TIP3    H1 9072   1.770   4.859   4.821 -0.5296  0.3808 -0.8033
 3037TIP3    H2 9073   1.723   4.732   4.888  0.1735 -0.0511 -1.1231
 3038TIP3   OH2 9074   2.586   4.539   6.012  0.4880  0.0355  0.3108
 3038TIP3    H1 9075   2.569   4.562   5.920 -1.2875  0.2196  0.6620
 3038TIP3    H2 9076   2.561   4.447   6.018 -1.6083  0.6330  1.1222
 3039TIP3   OH2 9077   3.023   1.390   2.109 -0.5980  0.3872  0.0900
 3039TIP3    H1 9078   3.113   1.362   2.094 -0.3770  0.5002  1.1888
 3039TIP3    H2 9079   3.018   1.476   2.069 -0.0970  0.5614  0.3995
 3040TIP3   OH2 9080   1.677   4.807   0.849 -0.2897 -0.1334 -0.6488
 3040TIP3    H1 9081   1.718   4.735   0.802  1.9742  0.5566  0.2310
 3040TIP3    H2 9082   1.713   4.886   0.808  0.0720  0.4795  0.8267
 3041TIP3   OH2 9083   0.178   3.378   1.016  0.3064 -0.3349  0.2645
 3041TIP3    H1 9084   0.118   3.439   1.058  1.4432  1.6114 -0.8447
 3041TIP3    H2 9085   0.144   3.368   0.927  0.0508 -1.4568  0.4730
 3042TIP3   OH2 9086   0.267   4.180   3.355 -0.0608 -0.6016  0.2721
 3042TIP3    H1 9087   0.265   4.210   3.264 -0.4424 -1.6381 -0.0581
 3042TIP3    H2 9088   0.355   4.144   3.366 -1.1914 -3.8566 -0.7866
 3043TIP3   OH2 9089   7.264   5.052   2.749 -0.0089 -0.7607 -0.4093
 3043TIP3    H1 9090   7.312   5.011   2.676  0.8736 -0.6367  0.0904
 3043TIP3    H2 9091   7.318   5.034   2.826 -0.1952  0.3537 -0.0059
 3044TIP3   OH2 9092   2.184   4.701   0.048 -0.3674  0.3109  0.8862
 3044TIP3    H1 9093   2.225   4.616   0.032  1.2685  1.2364 -0.1067
 3044TIP3    H2 9094   2.096   4.693   0.013  0.7027 -0.1110 -1.8734
 3045TIP3   OH2 9095   1.361   4.166   2.510 -0.1352 -0.0598 -0.0395
 3045TIP3    H1 9096   1.290   4.128   2.562  0.7511 -0.6084  0.7960
 3045TIP3    H2 9097   1.317   4.220   2.444 -1.2887  0.4069  1.0968
 3046TIP3   OH2 9098   1.958   3.230   3.245  0.1238  0.0150  0.2351
 3046TIP3    H1 9099   1.895   3.264   3.309  0.8223 -0.5497  1.2189
 3046TIP3    H2 9100   1.937   3.277   3.164  0.6406  2.3324  1.4111
 3047TIP3   OH2 9101   7.778   3.426   4.253 -0.0712  0.9219 -0.5018
 3047TIP3    H1 9102   7.712   3.366   4.218  0.4997  0.1929 -0.3251
 3047TIP3    H2 9103   7.862   3.383   4.235  0.3217  1.4905 -0.0447
 3048TIP3   OH2 9104   6.082   3.360   2.269  0.2151 -0.5921 -0.2330
 3048TIP3    H1 9105   6.162   3.413   2.273  1.0565 -1.8502 -0.0454
 3048TIP3    H2 9106   6.068   3.331   2.359 -0.8096  0.1224 -0.1544
 3049TIP3   OH2 9107   1.216   4.288   2.293  0.4359 -0.5630 -0.6184
 3049TIP3    H1 9108   1.147   4.285   2.359  1.8360  1.0805  0.9780
 3049TIP3    H2 9109   1.169   4.282   2.209 -1.7289  1.5218  0.3858
 3050TIP3   OH2 9110   7.627   1.022   3.967  0.2304 -0.0331  0.4644
 3050TIP3    H1 9111   7.648   1.099   3.915  0.3408  0.3639  1.0855
 3050TIP3    H2 9112   7.701   0.962   3.953  0.3414  0.1426  0.3054
 3051TIP3   OH2 9113   1.114   2.828   2.903 -0.2810 -0.2827 -0.2115
 3051TIP3    H1 9114   1.027   2.828   2.941 -0.5373 -0.5499 -0.7959
 3051TIP3    H2 9115   1.139   2.735   2.898  0.4219 -0.1601  0.8260
 3052TIP3   OH2 9116   7.392   3.416   2.264 -0.0952  0.8930 -0.1091
 3052TIP3    H1 9117   7.425   3.412   2.354 -0.7622  2.5229  0.2194
 3052TIP3    H2 9118   7.297   3.422   2.274 -0.1940  0.7433 -0.9339
 3053TIP3   OH2 9119   7.737   4.170   2.387 -0.7201  0.3160  0.5585
 3053TIP3    H1 9120   7.669   4.119   2.431 -1.4578  2.0617  1.4628
 3053TIP3    H2 9121   7.814   4.159   2.442 -1.1256  0.9159  1.2572
 3054TIP3   OH2 9122   7.436   4.593   3.025 -0.2037 -0.1030 -0.5329
 3054TIP3    H1 9123   7.496   4.601   3.099 -0.3429  1.6618 -0.6013
 3054TIP3    H2 9124   7.381   4.518   3.048 -0.9428  1.0539  1.6687
 3055TIP3   OH2 9125   0.491   5.169   1.070 -0.0804 -0.1704 -0.3132
 3055TIP3    H1 9126   0.521   5.169   1.161  0.0464 -0.0740 -0.3561
 3055TIP3    H2 9127   0.432   5.244   1.064  0.7365  0.4491 -0.5898
 3056TIP3   OH2 9128   7.628   4.367   2.894 -0.6022 -0.1555  0.1258
 3056TIP3    H1 9129   7.609   4.302   2.827 -0.3954 -0.8896  0.7651
 3056TIP3    H2 9130   7.610   4.451   2.852 -1.8656 -0.6643 -0.4042
 3057TIP3   OH2 9131   5.668   1.763   3.621 -0.5531 -0.1177  0.1511
 3057TIP3    H1 9132   5.583   1.770   3.665 -0.4482 -0.1198  0.3547
 3057TIP3    H2 9133   5.712   1.846   3.641 -0.6255  0.0093 -0.2044
 3058TIP3   OH2 9134   0.777   4.905   1.704  0.3789  0.2257  0.3650
 3058TIP3    H1 9135   0.716   4.976   1.725 -0.7647 -1.0587  1.4812
 3058TIP3    H2 9136   0.721   4.831   1.682  1.4956 -1.1338  1.9359
 3059TIP3   OH2 9137   0.596   5.186   2.274  0.7356  0.2696  0.2772
 3059TIP3    H1 9138   0.620   5.228   2.192  0.1867  0.1777  0.0657
 3059TIP3    H2 9139   0.679   5.159   2.313  0.9156 -1.1993 -1.0660
 3060TIP3   OH2 9140   2.024   2.835   4.890 -0.0592  0.1871  0.6081
 3060TIP3    H1 9141   2.091   2.899   4.915 -0.0336 -0.5845  2.5651
 3060TIP3    H2 9142   2.039   2.760   4.947 -1.8364 -0.4716  0.2472
 3061TIP3   OH2 9143   7.524   3.580   2.087 -0.0737 -0.3627 -0.5222
 3061TIP3    H1 9144   7.487   3.666   2.108 -1.8872 -0.9279 -1.2887
 3061TIP3    H2 9145   7.486   3.521   2.153 -0.1957 -0.8788 -1.0549
 3062TIP3   OH2 9146   1.351   5.235   1.125 -0.3037 -0.4086 -0.2644
 3062TIP3    H1 9147   1.389   5.322   1.136 -2.1306  0.4496 -0.5989
 3062TIP3    H2 9148   1.285   5.229   1.195 -0.7127 -1.2192 -0.7164
 3063TIP3   OH2 9149   0.800   4.218   2.502  0.0169  0.1036 -0.3733
 3063TIP3    H1 9150   0.843   4.138   2.472 -0.2198 -0.6524  1.2174
 3063TIP3    H2 9151   0.741   4.189   2.572  0.4315  1.7577  0.7075
 3064TIP3   OH2 9152   6.808   3.109   4.730  1.1227  0.4845 -0.0961
 3064TIP3    H1 9153   6.892   3.087   4.770  0.9749 -0.3481 -0.2374
 3064TIP3    H2 9154   6.826   3.111   4.636  0.7768 -0.6467 -0.1940
 3065TIP3   OH2 9155   1.772   1.255   5.153 -0.1006 -0.0373 -0.0735
 3065TIP3    H1 9156   1.764   1.321   5.084  1.2074 -0.1455 -0.3504
 3065TIP3    H2 9157   1.716   1.287   5.224 -1.8480 -0.1800 -1.3628
 3066TIP3   OH2 9158   1.330   2.970   3.287 -0.3121 -0.1732 -0.0720
 3066TIP3    H1 9159   1.399   3.034   3.305  1.7589 -2.3541 -0.0354
 3066TIP3    H2 9160   1.307   2.985   3.196  0.6362  0.1550 -0.2601
 3067TIP3   OH2 9161   1.018   4.365   2.493  0.7977  0.5588 -0.3290
 3067TIP3    H1 9162   1.066   4.351   2.574  1.8085  0.3261 -0.9703
 3067TIP3    H2 9163   0.931   4.328   2.510  1.0411  0.4177  0.6034
 3068TIP3   OH2 9164   1.005   2.091   2.562 -0.2605  0.3115 -0.1858
 3068TIP3    H1 9165   1.038   2.068   2.475  0.3748 -2.4674  0.7429
 3068TIP3    H2 9166   1.059   2.041   2.623 -1.3680  1.4191  1.7708
 3069TIP3   OH2 9167   0.862   3.068   5.104  0.7810  0.1796  0.5212
 3069TIP3    H1 9168   0.876   2.975   5.124  0.7606  0.2424  0.8213
 3069TIP3    H2 9169   0.944   3.111   5.128  0.2927  0.4584  1.7434
 3070TIP3   OH2 9170   1.251   1.989   3.427 -0.4921 -0.1888  0.1041
 3070TIP3    H1 9171   1.230   1.897   3.440  0.9383 -0.0533  3.7301
 3070TIP3    H2 9172   1.177   2.036   3.466 -0.0806  0.2093  0.4001
 3071TIP3   OH2 9173   6.888   3.093   0.459 -0.0364 -0.2929 -0.3535
 3071TIP3    H1 9174   6.871   3.171   0.405 -2.6840  0.5791  1.6123
 3071TIP3    H2 9175   6.983   3.090   0.468  0.0741  3.4165  0.4596
 3072TIP3   OH2 9176   0.426   3.393   5.520  0.1851 -0.0429  0.5166
 3072TIP3    H1 9177   0.472   3.470   5.488  0.3775 -0.9950 -1.5320
 3072TIP3    H2 9178   0.447   3.323   5.458  0.1667 -1.8285  2.4255
 3073TIP3   OH2 9179   7.391   3.064   4.139  0.5919  0.1474 -0.5436
 3073TIP3    H1 9180   7.312   3.044   4.188  0.2722  1.6880 -0.4040
 3073TIP3    H2 9181   7.371   3.036   4.050  0.2632 -0.4135 -0.2928
 3074TIP3   OH2 9182   6.672   0.888   0.391  0.6905  0.1894 -0.5869
 3074TIP3    H1 9183   6.645   0.854   0.305  0.8472  0.5166 -0.7671
 3074TIP3    H2 9184   6.726   0.818   0.427  0.0071 -0.2611 -0.4324
 3075TIP3   OH2 9185   5.870   2.933   3.206 -0.1554  0.0205  0.0311
 3075TIP3    H1 9186   5.875   3.027   3.189  1.0221  0.1125  0.8421
 3075TIP3    H2 9187   5.847   2.894   3.122  0.2915  0.9449 -0.5215
 3076TIP3   OH2 9188   1.613   3.159   5.351  0.2570 -0.4083 -0.2128
 3076TIP3    H1 9189   1.670   3.206   5.290 -0.2649 -0.4831 -0.7654
 3076TIP3    H2 9190   1.525   3.193   5.334  0.0507 -0.7201  0.2137
 3077TIP3   OH2 9191   2.669   4.844   1.137 -0.0903  0.2082  0.2884
 3077TIP3    H1 9192   2.731   4.869   1.205 -1.2052  0.5536  1.1841
 3077TIP3    H2 9193   2.584   4.844   1.180 -0.6769 -0.6699 -0.8249
 3078TIP3   OH2 9194   6.111   3.522   1.816 -0.1928  0.2560  0.2422
 3078TIP3    H1 9195   6.143   3.437   1.786 -0.2520 -0.1102  1.1890
 3078TIP3    H2 9196   6.189   3.578   1.815 -0.8827  1.2642 -4.0415
 3079TIP3   OH2 9197   6.290   3.151   2.284 -0.0807  0.1573  0.1883
 3079TIP3    H1 9198   6.300   3.085   2.215 -0.0218 -0.6998  0.9908
 3079TIP3    H2 9199   6.205   3.190   2.268 -0.7729 -1.1613  0.5658
 3080TIP3   OH2 9200   1.615   2.299   2.837 -0.4687 -0.0243  0.2925
 3080TIP3    H1 9201   1.618   2.393   2.817 -0.2605  0.0462  0.6291
 3080TIP3    H2 9202   1.685   2.287   2.901 -1.5429 -0.1122  1.4716
 3081TIP3   OH2 9203   1.615   3.558   4.706 -0.1483 -0.6020 -0.4762
 3081TIP3    H1 9204   1.633   3.520   4.620 -2.3514 -0.8198 -0.8799
 3081TIP3    H2 9205   1.652   3.646   4.701  1.0014 -1.1065 -1.1324
 3082TIP3   OH2 9206   7.145   4.822   4.479 -0.0913  0.3390  0.3867
 3082TIP3    H1 9207   7.217   4.880   4.503  0.1073 -0.2991  1.3518
 3082TIP3    H2 9208   7.176   4.776   4.401  0.3232  0.4730  0.4726
 3083TIP3   OH2 9209   0.417   6.350   3.503 -0.4393  0.3927 -0.3419
 3083TIP3    H1 9210   0.375   6.341   3.417  0.5747  0.4716 -0.8585
 3083TIP3    H2 9211   0.443   6.442   3.506  1.3100 -0.0608 -0.8061
 3084TIP3   OH2 9212   4.965   5.341   0.008  0.1267 -0.3552  0.1239
 3084TIP3    H1 9213   4.991   5.405   0.074 -0.8185 -0.9338  1.0767
 3084TIP3    H2 9214   4.877   5.370  -0.019  1.5212  1.3960 -2.8134
 3085TIP3   OH2 9215   2.386   2.042   3.731  0.8404  0.3631 -0.3814
 3085TIP3    H1 9216   2.324   2.114   3.719  0.1530 -0.0705  0.5700
 3085TIP3    H2 9217   2.332   1.964   3.743  1.4497  0.4903  3.9682
 3086TIP3   OH2 9218   2.500   4.389   2.059 -0.4891 -0.1084  0.6355
 3086TIP3    H1 9219   2.591   4.418   2.071 -0.3707  0.5533 -1.6583
 3086TIP3    H2 9220   2.506   4.316   1.998 -1.5374  0.1262  0.2464
 3087TIP3   OH2 9221   1.489   3.831   4.052 -0.2647 -0.0556  0.3517
 3087TIP3    H1 9222   1.513   3.749   4.095 -1.1403  0.2194  1.3926
 3087TIP3    H2 9223   1.532   3.827   3.966  1.0465 -0.8512  1.0339
 3088TIP3   OH2 9224   1.997   1.266   3.119 -0.4099 -0.3472 -0.1906
 3088TIP3    H1 9225   2.055   1.238   3.048  1.0373 -0.4783  1.0308
 3088TIP3    H2 9226   1.969   1.354   3.093 -0.3805 -0.6338 -1.2241
 3089TIP3   OH2 9227   0.871   4.606   5.560  0.9917 -0.1968  0.2771
 3089TIP3    H1 9228   0.841   4.674   5.500 -1.0055 -0.1703  1.2643
 3089TIP3    H2 9229   0.792   4.576   5.605  2.5501  0.6347  3.7894
 3090TIP3   OH2 9230   2.661   2.718   2.320  0.2444 -0.0316  0.3175
 3090TIP3    H1 9231   2.632   2.763   2.399  0.6997 -0.6139  0.8300
 3090TIP3    H2 9232   2.724   2.777   2.280  2.2383 -0.9592  1.9654
 3091TIP3   OH2 9233   7.110   5.424   3.045  0.0436 -0.2980 -0.0969
 3091TIP3    H1 9234   7.030   5.452   3.089  0.0067 -0.4073 -0.0950
 3091TIP3    H2 9235   7.090   5.338   3.010 -0.0282 -0.0878 -0.5840
 3092TIP3   OH2 9236   3.667   2.238   3.766 -0.0716  0.5090 -0.1548
 3092TIP3    H1 9237   3.671   2.323   3.721 -0.5111 -0.3529 -1.8446
 3092TIP3    H2 9238   3.748   2.194   3.742 -0.6203 -0.2326 -0.6545
 3093TIP3   OH2 9239   2.296   4.353   5.872  0.0821  0.2228 -0.1273
 3093TIP3    H1 9240   2.308   4.384   5.782 -1.0072  0.3142 -0.2553
 3093TIP3    H2 9241   2.209   4.385   5.897 -0.1407 -0.8517  0.5173
 3094TIP3   OH2 9242   6.822   0.990   0.600  0.3957  0.6668 -0.3380
 3094TIP3    H1 9243   6.812   1.082   0.623  0.8966  0.8763 -0.9113
 3094TIP3    H2 9244   6.761   0.976   0.528  0.3132  0.5549 -0.2449
 3095TIP3   OH2 9245   1.235   4.108   6.263  0.3571  0.5262  0.1133
 3095TIP3    H1 9246   1.168   4.046   6.234  1.0504 -0.5079  0.6844
 3095TIP3    H2 9247   1.306   4.099   6.199  0.7557  0.1955  0.5919
 3096TIP3   OH2 9248   1.111   3.318   2.877  0.4732 -0.3755 -0.0668
 3096TIP3    H1 9249   1.068   3.375   2.941  0.5698 -0.6710  0.2662
 3096TIP3    H2 9250   1.047   3.308   2.807 -0.2099 -1.2154  0.6609
 3097TIP3   OH2 9251   0.614   4.792   2.728  0.2749  0.5987 -0.2265
 3097TIP3    H1 9252   0.680   4.857   2.705  0.7360  0.2368  0.0700
 3097TIP3    H2 9253   0.619   4.727   2.658  1.4070 -0.2989  0.6648
 3098TIP3   OH2 9254   0.635   4.270   0.808  0.4844 -0.4541  0.5818
 3098TIP3    H1 9255   0.599   4.190   0.770  0.3976  0.3584 -1.1073
 3098TIP3    H2 9256   0.558   4.322   0.831  0.5390 -0.3359  0.5022
 3099TIP3   OH2 9257   7.341   4.931   1.453 -0.4669 -0.0506  0.2296
 3099TIP3    H1 9258   7.291   4.849   1.445 -2.6504  1.1905  0.7576
 3099TIP3    H2 9259   7.327   4.976   1.370 -2.5590  1.5559  1.4095
 3100TIP3   OH2 9260   5.127   1.489   1.365  0.3945 -0.4614 -0.3625
 3100TIP3    H1 9261   5.164   1.464   1.450 -0.4326 -2.9644 -0.7099
 3100TIP3    H2 9262   5.196   1.470   1.302  0.6583  0.5098 -0.3830
 3101TIP3   OH2 9263   6.004   4.524   4.076  0.4058  0.2735  0.2219
 3101TIP3    H1 9264   6.048   4.464   4.016 -0.1206  1.1231 -1.0292
 3101TIP3    H2 9265   5.959   4.587   4.019  0.2810  1.3718  1.5046
 3102TIP3   OH2 9266   1.213   4.614   2.597 -0.0264 -0.0528 -0.0527
 3102TIP3    H1 9267   1.181   4.541   2.650  2.5129 -0.2098  1.3695
 3102TIP3    H2 9268   1.223   4.577   2.510 -1.9926 -0.4593 -0.1200
 3103TIP3   OH2 9269   1.708   5.045   5.073  0.1821  0.0070  0.6974
 3103TIP3    H1 9270   1.670   5.034   5.160 -0.0519  1.2101  0.7537
 3103TIP3    H2 9271   1.698   4.960   5.031  0.7781 -0.7452  2.0367
 3104TIP3   OH2 9272   1.470   5.750   1.326 -0.1261 -0.1123 -0.1297
 3104TIP3    H1 9273   1.566   5.752   1.325 -0.1338  0.0893 -0.3638
 3104TIP3    H2 9274   1.447   5.760   1.419  0.0174  2.5736 -0.3699
 3105TIP3   OH2 9275   2.826   2.765   5.016  0.7195  0.0813 -0.2808
 3105TIP3    H1 9276   2.774   2.766   4.936  0.1014 -0.8068  0.0937
 3105TIP3    H2 9277   2.915   2.749   4.987  0.7155  1.1845 -0.8992
 3106TIP3   OH2 9278   0.491   1.005   6.247  0.5587  0.1794  0.0054
 3106TIP3    H1 9279   0.504   1.040   6.158  1.0324 -0.2613 -0.1033
 3106TIP3    H2 9280   0.580   0.997   6.282  0.3380  0.7806  0.6840
 3107TIP3   OH2 9281   0.138   1.476   0.983 -0.1359 -0.1901  0.0899
 3107TIP3    H1 9282   0.047   1.505   0.994 -0.1015  0.9727 -2.3851
 3107TIP3    H2 9283   0.131   1.384   0.957 -0.6258 -0.0486 -0.2946
 3108TIP3   OH2 9284   5.120   7.324   1.521  0.1447  0.1102 -0.2856
 3108TIP3    H1 9285   5.190   7.298   1.581  0.2001  0.0945 -0.3565
 3108TIP3    H2 9286   5.062   7.247   1.516 -0.3987  0.4679  0.5258
 3109TIP3   OH2 9287   7.043   2.271   1.052 -0.2083 -0.7658 -0.2942
 3109TIP3    H1 9288   7.045   2.366   1.040  2.1005 -0.6014  1.1280
 3109TIP3    H2 9289   6.950   2.249   1.049 -0.7529  1.4742 -1.0643
 3110TIP3   OH2 9290   0.108   5.755   2.047  0.1629 -0.2197 -0.2128
 3110TIP3    H1 9291   0.143   5.737   1.959  1.6104  0.2762  0.2476
 3110TIP3    H2 9292   0.063   5.675   2.072 -0.0339 -0.4592 -1.3016
 3111TIP3   OH2 9293  -0.008   2.151   4.589  0.6883 -0.0317  0.1300
 3111TIP3    H1 9294  -0.037   2.216   4.524  0.3603 -0.1695  0.1368
 3111TIP3    H2 9295   0.080   2.127   4.561  0.8442  0.4745  0.1700
 3112TIP3   OH2 9296   7.094   3.157   3.364 -0.0667 -0.0364 -0.1317
 3112TIP3    H1 9297   7.107   3.074   3.318  2.2026 -0.1576  0.6411
 3112TIP3    H2 9298   7.046   3.211   3.302 -0.7105 -1.5836 -1.0306
 3113TIP3   OH2 9299   0.770   4.283   1.070 -0.3605  0.2735  0.2511
 3113TIP3    H1 9300   0.772   4.301   0.976  0.8576  0.1878  0.2536
 3113TIP3    H2 9301   0.819   4.202   1.080  0.6766  0.9930  1.1145
 3114TIP3   OH2 9302   7.710   2.125   2.851 -0.1040 -0.4820 -0.5309
 3114TIP3    H1 9303   7.777   2.192   2.866  1.1549 -1.1959 -2.7058
 3114TIP3    H2 9304   7.671   2.148   2.767 -0.0511 -2.1588 -1.0360
 3115TIP3   OH2 9305   1.099   3.541   5.838  0.2955 -0.3614 -0.3237
 3115TIP3    H1 9306   1.119   3.541   5.932 -1.0278  0.7037 -0.0283
 3115TIP3    H2 9307   1.093   3.448   5.815 -1.9801 -0.6397  1.2330
 3116TIP3   OH2 9308   6.733   3.477   1.217  0.1752  0.3174 -0.4772
 3116TIP3    H1 9309   6.717   3.383   1.208  0.7540  0.0936  0.8555
 3116TIP3    H2 9310   6.662   3.517   1.166 -0.5568 -0.8179 -0.3758
 3117TIP3   OH2 9311   0.722   3.068   2.660  0.4284 -0.3772  0.1943
 3117TIP3    H1 9312   0.735   2.978   2.692 -1.6062 -0.4841  0.7519
 3117TIP3    H2 9313   0.656   3.059   2.592  0.6354  0.6248 -0.1297
 3118TIP3   OH2 9314   0.562   3.742   3.385 -0.5677  0.2136  0.0900
 3118TIP3    H1 9315   0.529   3.758   3.473 -1.2069 -0.7759  0.0382
 3118TIP3    H2 9316   0.499   3.787   3.328 -0.1735  0.8245  0.1371
 3119TIP3   OH2 9317   1.983   2.321   4.367  0.1145  0.4124 -0.2293
 3119TIP3    H1 9318   1.953   2.230   4.355  0.4449  0.5530 -2.2467
 3119TIP3    H2 9319   2.049   2.315   4.436 -0.0017 -0.8425 -0.2145
 3120TIP3   OH2 9320   0.405   4.595   2.234 -0.7625  0.3141 -0.0209
 3120TIP3    H1 9321   0.462   4.518   2.238 -0.2569  0.7145  0.5711
 3120TIP3    H2 9322   0.421   4.632   2.147 -0.0244  0.4991  0.1957
 3121TIP3   OH2 9323   0.682   0.383   2.462  0.0806  0.1161  0.0172
 3121TIP3    H1 9324   0.635   0.447   2.410  1.7593  0.4345 -1.1699
 3121TIP3    H2 9325   0.683   0.420   2.550  0.2129  1.2743 -0.4579
 3122TIP3   OH2 9326   0.170   1.754   3.798  0.0353 -0.4745  0.0437
 3122TIP3    H1 9327   0.209   1.724   3.716  2.3791 -0.5805  1.1530
 3122TIP3    H2 9328   0.170   1.676   3.854  0.0132 -0.0046  0.7028
 3123TIP3   OH2 9329   7.148   2.440   3.842 -0.0512 -0.0341  0.1010
 3123TIP3    H1 9330   7.110   2.367   3.792  0.0866 -0.0486  0.0140
 3123TIP3    H2 9331   7.081   2.508   3.841  0.6738  0.6938 -1.7327
 3124TIP3   OH2 9332   0.363   2.951   4.221  0.2644 -0.0982  0.0022
 3124TIP3    H1 9333   0.333   2.999   4.144  1.2683 -3.4811 -2.6105
 3124TIP3    H2 9334   0.455   2.973   4.229  0.1758  0.2023  0.1879
 3125TIP3   OH2 9335   7.711   5.224   0.770 -0.1285 -0.0517 -0.1349
 3125TIP3    H1 9336   7.629   5.248   0.812 -0.2100  0.5170 -0.6157
 3125TIP3    H2 9337   7.715   5.129   0.779 -0.8844 -0.0922 -0.1967
 3126TIP3   OH2 9338   2.066   2.761   5.301  0.1565 -0.1888  0.3364
 3126TIP3    H1 9339   2.050   2.718   5.385 -1.1188  0.1125  0.2688
 3126TIP3    H2 9340   1.995   2.825   5.293  1.0487  0.7278 -0.3480
 3127TIP3   OH2 9341   0.647   4.468   2.001  0.2454 -0.4954  0.4122
 3127TIP3    H1 9342   0.593   4.546   1.988 -0.4737 -0.9219  0.8310
 3127TIP3    H2 9343   0.634   4.416   1.922 -0.3160 -0.8160  0.7181
 3128TIP3   OH2 9344   1.758   2.797   1.313  0.3691 -0.4552  0.0059
 3128TIP3    H1 9345   1.672   2.766   1.287 -0.1005  0.1676  0.7942
 3128TIP3    H2 9346   1.771   2.763   1.402  0.8052 -0.3038  0.0058
 3129TIP3   OH2 9347   6.829   3.526   3.882 -0.7201 -0.0965  0.1041
 3129TIP3    H1 9348   6.827   3.610   3.929 -1.6736  0.6859 -1.2761
 3129TIP3    H2 9349   6.802   3.549   3.793 -0.2086 -1.7576 -0.4806
 3130TIP3   OH2 9350   1.250   3.558   3.872  0.2230  0.1308 -0.3502
 3130TIP3    H1 9351   1.334   3.575   3.830 -0.0209  0.4654 -0.7132
 3130TIP3    H2 9352   1.185   3.576   3.803 -0.1621  0.2461  0.0402
 3131TIP3   OH2 9353   5.452   2.259   5.246 -0.1608 -0.1552 -0.4502
 3131TIP3    H1 9354   5.460   2.327   5.178  3.8591  0.9408  0.9575
 3131TIP3    H2 9355   5.480   2.179   5.202 -1.5578 -0.2644 -1.1711
 3132TIP3   OH2 9356   0.056   4.911   3.648 -0.1817 -0.0815  0.3416
 3132TIP3    H1 9357   0.001   4.986   3.673 -1.0796 -0.6529  0.0940
 3132TIP3    H2 9358   0.073   4.924   3.555 -1.2585 -0.7629  0.0424
 3133TIP3   OH2 9359   1.069   5.206   5.136 -0.1034  0.3757 -0.1587
 3133TIP3    H1 9360   1.153   5.249   5.125 -0.0622  0.2721 -0.2634
 3133TIP3    H2 9361   1.010   5.254   5.078 -0.1036  0.4131 -0.1275
 3134TIP3   OH2 9362   1.440   2.714   3.621 -0.3153  0.0595  0.4309
 3134TIP3    H1 9363   1.424   2.622   3.641 -0.0227 -0.3205 -1.0193
 3134TIP3    H2 9364   1.517   2.713   3.564  1.2293  1.3901  2.4281
 3135TIP3   OH2 9365   0.889   4.019   4.249 -0.6440 -0.3866  0.2536
 3135TIP3    H1 9366   0.885   4.027   4.344  0.1622  1.5784  0.1491
 3135TIP3    H2 9367   0.801   4.043   4.219 -0.2737  1.1707  0.3853
 3136TIP3   OH2 9368   6.790   2.829   2.711  0.2245  0.0891 -0.6993
 3136TIP3    H1 9369   6.759   2.808   2.623  2.1938  0.9190 -1.6386
 3136TIP3    H2 9370   6.746   2.911   2.734 -1.5961 -1.0059 -0.1871
 3137TIP3   OH2 9371   0.224   4.466   5.265 -0.5755  0.0486 -0.3184
 3137TIP3    H1 9372   0.156   4.407   5.298  1.8997 -1.5018  2.3503
 3137TIP3    H2 9373   0.250   4.428   5.182 -0.4246 -1.5219  0.4186
 3138TIP3   OH2 9374   7.062   2.734   3.815  0.5522  0.2337  0.2852
 3138TIP3    H1 9375   7.034   2.782   3.893  1.0583  0.2086  0.4796
 3138TIP3    H2 9376   7.156   2.725   3.824  1.1858  3.3947 -2.0901
 3139TIP3   OH2 9377   0.471   3.219   6.030 -0.1016 -0.5977  0.0258
 3139TIP3    H1 9378   0.481   3.285   5.962 -1.5081 -0.4083 -0.0116
 3139TIP3    H2 9379   0.387   3.238   6.071 -0.1498 -1.8608  0.5631
 3140TIP3   OH2 9380   2.172   1.766   4.300  0.3068  0.1729 -0.6131
 3140TIP3    H1 9381   2.079   1.770   4.277 -0.9786  1.2933  4.2152
 3140TIP3    H2 9382   2.194   1.673   4.295 -1.4177 -0.2497 -0.6893
 3141TIP3   OH2 9383   0.676   2.462   2.380 -0.6144 -0.2894  0.2357
 3141TIP3    H1 9384   0.666   2.391   2.443 -0.4385 -0.4298  0.1038
 3141TIP3    H2 9385   0.633   2.537   2.422 -1.5612 -0.6938  0.0054
 3142TIP3   OH2 9386   1.269   4.624   5.054 -0.6387  0.0472  0.2420
 3142TIP3    H1 9387   1.290   4.605   5.145 -1.1287 -0.8424  0.1782
 3142TIP3    H2 9388   1.353   4.616   5.008 -0.4107  0.3895  0.5981
 3143TIP3   OH2 9389   1.101   2.778   3.649  0.0182 -0.4166 -0.2712
 3143TIP3    H1 9390   1.015   2.762   3.610  0.3133 -0.0062 -1.1102
 3143TIP3    H2 9391   1.082   2.806   3.739 -0.7197 -0.3435 -0.4483
 3144TIP3   OH2 9392   1.489   1.415   2.780  0.4134 -0.2772 -0.2520
 3144TIP3    H1 9393   1.545   1.478   2.735  0.4669  0.6297  1.0586
 3144TIP3    H2 9394   1.551   1.355   2.823  0.3837  0.2051  0.4726
 3145TIP3   OH2 9395   1.100   3.955   4.096  0.3335 -1.0131 -0.0500
 3145TIP3    H1 9396   1.023   3.990   4.141 -0.0307  1.3528 -2.3946
 3145TIP3    H2 9397   1.119   3.873   4.141 -2.3265 -0.6361  1.8697
 3146TIP3   OH2 9398   1.612   3.769   2.808 -0.7226 -0.2382 -0.1966
 3146TIP3    H1 9399   1.610   3.758   2.713 -1.5739  1.0962 -0.3426
 3146TIP3    H2 9400   1.550   3.840   2.826 -0.8895 -0.7611  1.3942
 3147TIP3   OH2 9401   1.352   3.407   2.402  0.2353 -0.2701 -0.2410
 3147TIP3    H1 9402   1.401   3.345   2.348 -1.2474 -0.0209 -1.9177
 3147TIP3    H2 9403   1.363   3.491   2.358 -0.7770 -0.0154 -0.0268
 3148TIP3   OH2 9404   1.472   2.112   3.288 -0.6018  0.4063 -0.4883
 3148TIP3    H1 9405   1.387   2.110   3.333  0.5613 -1.2390  1.7189
 3148TIP3    H2 9406   1.505   2.022   3.295  2.0741  1.3928  0.1772
 3149TIP3   OH2 9407   2.722   4.420   5.709 -0.2172 -0.1813  0.1744
 3149TIP3    H1 9408   2.704   4.326   5.712  0.5480 -0.4224 -1.8192
 3149TIP3    H2 9409   2.652   4.456   5.655 -0.6065  0.4468  1.0748
 3150TIP3   OH2 9410   1.174   5.310   1.470  0.4050  0.5284 -0.9027
 3150TIP3    H1 9411   1.261   5.337   1.440  0.5014  0.8883 -0.3063
 3150TIP3    H2 9412   1.183   5.217   1.490  0.7724  0.6668 -0.4142
 3151TIP3   OH2 9413   0.234   4.806   2.843  0.1630  0.1743 -0.0964
 3151TIP3    H1 9414   0.186   4.832   2.922 -0.9130  0.4143 -0.8290
 3151TIP3    H2 9415   0.326   4.825   2.864  0.1890 -2.1369  2.0472
 3152TIP3   OH2 9416   2.941   4.191   3.395  0.2565 -0.4945 -0.1587
 3152TIP3    H1 9417   2.864   4.235   3.430  0.7821 -0.8213  1.4115
 3152TIP3    H2 9418   2.945   4.108   3.442  2.0598 -0.0986  0.4006
 3153TIP3   OH2 9419   0.541   2.704   2.461 -0.3391 -0.0332 -0.7835
 3153TIP3    H1 9420   0.461   2.708   2.514  0.0914  0.3832 -0.1561
 3153TIP3    H2 9421   0.512   2.727   2.373 -0.6493  1.7728 -0.2497
 3154TIP3   OH2 9422   2.238   4.411   4.196 -0.4417 -0.3712  0.2684
 3154TIP3    H1 9423   2.299   4.385   4.127  0.0751 -1.2223  1.0318
 3154TIP3    H2 9424   2.154   4.377   4.167 -0.8968  2.1485 -1.5550
 3155TIP3   OH2 9425   2.252   4.442   2.169  0.4794 -0.3538 -0.3090
 3155TIP3    H1 9426   2.331   4.450   2.116 -1.0864  2.6755 -2.3421
 3155TIP3    H2 9427   2.183   4.416   2.107 -1.2612  2.6809  0.2558
 3156TIP3   OH2 9428   0.606   3.237   3.579 -0.3019 -0.1321  0.1083
 3156TIP3    H1 9429   0.586   3.309   3.638 -2.2624 -1.2929  0.9256
 3156TIP3    H2 9430   0.601   3.159   3.634  0.6027 -0.9968 -1.0128
 3157TIP3   OH2 9431   1.690   2.102   2.376  0.0361 -0.0778  0.3827
 3157TIP3    H1 9432   1.759   2.157   2.412  0.4381 -0.0344 -0.4399
 3157TIP3    H2 9433   1.733   2.052   2.306 -0.7587 -0.0600 -0.1273
 3158TIP3   OH2 9434   0.989   2.838   3.892  0.5774 -0.1256 -0.4410
 3158TIP3    H1 9435   0.979   2.870   3.982 -0.8641 -0.5711 -0.4364
 3158TIP3    H2 9436   0.907   2.793   3.873  1.3583 -1.1104 -1.5503
 3159TIP3   OH2 9437   1.223   3.643   2.015  0.0926  0.2914  0.2642
 3159TIP3    H1 9438   1.151   3.676   1.962  0.5251  0.0766 -0.4678
 3159TIP3    H2 9439   1.181   3.598   2.089 -0.5235 -0.0310 -0.2794
 3160TIP3   OH2 9440   0.245   2.953   6.074 -0.4915  0.4399  0.1835
 3160TIP3    H1 9441   0.274   3.004   6.150 -0.5167 -0.4698  0.8081
 3160TIP3    H2 9442   0.193   3.015   6.023 -1.4414  0.7400  1.4890
 3161TIP3   OH2 9443   2.043   3.241   5.286 -0.0238  0.5990 -0.4749
 3161TIP3    H1 9444   2.134   3.243   5.316 -0.0494  1.0242 -0.4297
 3161TIP3    H2 9445   1.997   3.191   5.353  0.4014 -0.6672 -1.1078
 3162TIP3   OH2 9446   3.963   0.798   1.486 -0.7731 -0.3036 -0.2242
 3162TIP3    H1 9447   3.977   0.798   1.580  0.6481  0.5616 -0.4280
 3162TIP3    H2 9448   3.881   0.750   1.474 -1.6672  0.7631  1.5433
 3163TIP3   OH2 9449   0.329   4.415   2.010 -0.4384  0.3471  0.0048
 3163TIP3    H1 9450   0.320   4.449   1.921 -2.2799 -0.0445  0.0271
 3163TIP3    H2 9451   0.294   4.485   2.066  0.8216  0.6424  0.4354
 3164TIP3   OH2 9452   1.705   3.580   4.453 -0.2468 -0.3686 -0.2566
 3164TIP3    H1 9453   1.797   3.605   4.448  0.0812 -1.6705 -0.9440
 3164TIP3    H2 9454   1.658   3.657   4.419  0.3773  1.3364  2.5499
 3165TIP3   OH2 9455   0.467   4.704   1.993  0.0273 -0.2531  0.6433
 3165TIP3    H1 9456   0.516   4.773   2.038 -0.9466  0.2419  0.9494
 3165TIP3    H2 9457   0.471   4.728   1.901  0.6272 -0.3905  0.6274
 3166TIP3   OH2 9458   0.453   3.197   3.829  0.3418 -0.1891  0.1052
 3166TIP3    H1 9459   0.396   3.131   3.868 -0.0630 -0.6749 -1.2795
 3166TIP3    H2 9460   0.393   3.258   3.785  0.9039 -1.1918 -2.1058
 3167TIP3   OH2 9461   2.132   2.136   2.782 -0.1543  0.1897 -0.2261
 3167TIP3    H1 9462   2.051   2.159   2.738  0.1853 -0.7494 -1.3392
 3167TIP3    H2 9463   2.181   2.219   2.786 -0.8273  0.5881 -0.2488
 3168TIP3   OH2 9464   6.297   3.936   2.642  0.2302 -0.4105 -0.1510
 3168TIP3    H1 9465   6.363   3.889   2.693 -0.0433 -0.1832  0.4213
 3168TIP3    H2 9466   6.251   3.869   2.593  1.0303 -0.5506 -0.7246
 3169TIP3   OH2 9467   3.093   2.777   5.911 -1.0219  0.6518 -0.0994
 3169TIP3    H1 9468   3.185   2.788   5.935 -0.4786 -1.0753 -1.3118
 3169TIP3    H2 9469   3.045   2.788   5.993  0.3863 -0.0073  0.8258
 3170TIP3   OH2 9470   6.271   6.627   3.661 -0.4113 -0.1581 -0.1416
 3170TIP3    H1 9471   6.310   6.556   3.610  2.8675  0.3585  1.5076
 3170TIP3    H2 9472   6.201   6.584   3.712 -0.2767 -1.6429 -1.1812
 3171TIP3   OH2 9473   0.563   2.761   3.398  0.2195  0.0350  0.3454
 3171TIP3    H1 9474   0.488   2.724   3.352  0.8059 -0.3478 -0.3030
 3171TIP3    H2 9475   0.619   2.796   3.329  1.2268 -0.7563  0.7414
 3172TIP3   OH2 9476   7.467   4.610   3.909  0.3471  0.1521  0.1172
 3172TIP3    H1 9477   7.413   4.684   3.881  1.0742  0.0579 -1.5476
 3172TIP3    H2 9478   7.472   4.553   3.833  0.7764 -1.0506  1.0244
 3173TIP3   OH2 9479   7.378   3.641   3.264  0.5308  0.0145 -0.1754
 3173TIP3    H1 9480   7.458   3.657   3.315  0.0246  0.5894  0.4437
 3173TIP3    H2 9481   7.343   3.559   3.299 -0.1309  0.7074  0.8235
 3174TIP3   OH2 9482   2.172   4.924   4.862  0.1411  0.5343  0.2159
 3174TIP3    H1 9483   2.092   4.955   4.905 -0.2412 -2.6571  2.0141
 3174TIP3    H2 9484   2.148   4.915   4.770 -1.6888 -0.5390  0.7642
 3175TIP3   OH2 9485   2.622   3.733   2.536 -0.5572 -0.2940 -0.6000
 3175TIP3    H1 9486   2.572   3.733   2.617  0.8684  1.6985  0.3178
 3175TIP3    H2 9487   2.557   3.747   2.467 -1.6022 -0.6883  0.3031
 3176TIP3   OH2 9488   0.274   4.755   0.970  0.0131  0.1740  0.0381
 3176TIP3    H1 9489   0.283   4.837   0.921 -2.1800  0.1096 -0.5283
 3176TIP3    H2 9490   0.184   4.757   1.002  0.4982 -1.2076  1.5193
 3177TIP3   OH2 9491   0.567   3.333   3.310 -0.3050 -0.5502  0.0158
 3177TIP3    H1 9492   0.602   3.295   3.391 -0.7888 -0.7302  0.1422
 3177TIP3    H2 9493   0.613   3.416   3.301 -0.6865 -0.2484  0.8018
 3178TIP3   OH2 9494   1.538   3.699   2.545  0.5151  0.0117 -0.0489
 3178TIP3    H1 9495   1.589   3.622   2.521 -0.6659 -0.2614 -1.7642
 3178TIP3    H2 9496   1.529   3.748   2.464 -1.8638  0.1019  0.2378
 3179TIP3   OH2 9497   0.766   5.641   1.800 -0.0316 -0.0350  0.3621
 3179TIP3    H1 9498   0.813   5.697   1.738  0.1422  0.4592  0.9432
 3179TIP3    H2 9499   0.762   5.556   1.756  0.1449  0.2967 -0.3043
 3180TIP3   OH2 9500   2.645   0.510   3.371  0.0152 -0.3069 -0.0037
 3180TIP3    H1 9501   2.649   0.433   3.427  0.2106 -0.4835 -0.2583
 3180TIP3    H2 9502   2.551   0.528   3.361 -0.0702 -1.2035 -0.8896
 3181TIP3   OH2 9503   7.360   2.700   1.333  0.1170 -0.0988  1.0252
 3181TIP3    H1 9504   7.354   2.658   1.247  0.2889  0.4525  0.7374
 3181TIP3    H2 9505   7.316   2.784   1.322 -1.9868 -1.0244  2.1472
 3182TIP3   OH2 9506   2.634   2.257   1.304  0.0499  0.3332 -0.0025
 3182TIP3    H1 9507   2.604   2.196   1.236  2.7450 -2.2040  0.9871
 3182TIP3    H2 9508   2.571   2.246   1.375 -2.4035  2.5227 -1.7131
 3183TIP3   OH2 9509   1.670   2.181   1.666 -0.9539 -0.0219  0.0681
 3183TIP3    H1 9510   1.680   2.129   1.745 -0.3194  0.5990  0.4005
 3183TIP3    H2 9511   1.743   2.154   1.610 -0.9685  0.0741  0.0027
 3184TIP3   OH2 9512   7.698   1.740   2.355 -0.5730 -0.6804 -0.5175
 3184TIP3    H1 9513   7.637   1.811   2.374 -0.9690 -0.8943 -0.9760
 3184TIP3    H2 9514   7.667   1.667   2.409 -2.1795 -1.5386 -2.5309
 3185TIP3   OH2 9515   6.968   1.787   5.316 -0.0947 -0.4219 -0.2841
 3185TIP3    H1 9516   6.882   1.747   5.326  0.3501 -1.1939  0.5678
 3185TIP3    H2 9517   7.028   1.713   5.310  0.3266  0.0868 -2.7520
 3186TIP3   OH2 9518   1.697   2.702   3.052  0.0829 -0.1691 -0.2095
 3186TIP3    H1 9519   1.732   2.618   3.023 -0.3740 -0.2871 -0.4410
 3186TIP3    H2 9520   1.706   2.760   2.976  0.2863 -0.0436 -0.0903
 3187TIP3   OH2 9521   0.171   2.494   5.329  0.0477  0.3903 -0.0043
 3187TIP3    H1 9522   0.120   2.414   5.325  0.4378  0.1520 -0.2303
 3187TIP3    H2 9523   0.159   2.526   5.418  0.3343 -0.2079  0.2487
 3188TIP3   OH2 9524   1.713   0.403   2.701 -0.3900  0.6387  0.8455
 3188TIP3    H1 9525   1.782   0.360   2.752 -0.4996  1.1632  1.4303
 3188TIP3    H2 9526   1.735   0.382   2.610 -0.2002 -0.2984  1.1025
 3189TIP3   OH2 9527   0.822   4.471   1.466 -0.0215 -0.1241  0.7356
 3189TIP3    H1 9528   0.817   4.387   1.421 -0.2968  0.7699 -0.9549
 3189TIP3    H2 9529   0.916   4.486   1.479 -0.0091 -1.0129  1.6605
 3190TIP3   OH2 9530   0.451   4.925   2.920  0.4051 -0.5628  0.2878
 3190TIP3    H1 9531   0.513   4.892   2.855 -0.9339 -2.0572 -0.2709
 3190TIP3    H2 9532   0.478   4.885   3.002  0.4327 -0.8798  0.1229
 3191TIP3   OH2 9533   6.562   3.299   3.717  0.0792  0.8791  0.5189
 3191TIP3    H1 9534   6.549   3.247   3.796 -1.4178  0.8812  0.2851
 3191TIP3    H2 9535   6.550   3.390   3.746  1.7146  1.0492  0.7249
 3192TIP3   OH2 9536   1.555   4.625   6.268  0.0763 -0.1956  0.0966
 3192TIP3    H1 9537   1.600   4.540   6.273 -0.8150 -0.7029 -0.3191
 3192TIP3    H2 9538   1.623   4.687   6.244  0.1113 -1.3847 -3.2146
 3193TIP3   OH2 9539   0.105   2.575   5.571 -0.3401 -0.0989  0.2025
 3193TIP3    H1 9540   0.040   2.644   5.585  1.2715  1.6760 -0.9560
 3193TIP3    H2 9541   0.106   2.527   5.654 -2.0392  0.7601  0.7522
 3194TIP3   OH2 9542   5.393   3.618   3.157  0.2449 -0.5728 -0.0509
 3194TIP3    H1 9543   5.448   3.693   3.134 -0.2025 -0.5086 -0.9157
 3194TIP3    H2 9544   5.304   3.651   3.149  0.0460 -1.2338 -0.5334
 3195TIP3   OH2 9545   6.769   4.177   5.560  0.0674  0.6472 -0.1040
 3195TIP3    H1 9546   6.805   4.266   5.555 -0.6115  0.8581 -1.4960
 3195TIP3    H2 9547   6.676   4.189   5.576  0.0580  0.1737  0.2018
 3196TIP3   OH2 9548   1.922   5.374   3.909 -0.2762 -0.1614  0.1953
 3196TIP3    H1 9549   1.922   5.290   3.863 -0.7932 -0.3351  0.5059
 3196TIP3    H2 9550   1.917   5.440   3.839 -1.3347 -0.4320 -0.0010
 3197TIP3   OH2 9551   3.061   5.563   0.670 -0.1085  0.4549 -0.0039
 3197TIP3    H1 9552   3.094   5.552   0.760  1.7706  0.7242 -0.6511
 3197TIP3    H2 9553   3.042   5.657   0.663 -2.4389  0.0805  0.8303
 3198TIP3   OH2 9554   3.493   4.003   1.804 -0.3591  0.3616  0.2850
 3198TIP3    H1 9555   3.471   4.004   1.711 -0.8942  0.4346  0.4117
 3198TIP3    H2 9556   3.581   3.965   1.808 -0.6119 -0.2683 -0.1920
 3199TIP3   OH2 9557   2.976   4.086   0.747 -0.0315  0.5897  0.2522
 3199TIP3    H1 9558   3.024   4.090   0.664 -1.1753  2.2927 -0.3388
 3199TIP3    H2 9559   3.008   4.162   0.796 -0.0262  0.0956  1.0235
 3200TIP3   OH2 9560   0.514   2.389   3.383  0.4620 -0.1694  0.3109
 3200TIP3    H1 9561   0.602   2.410   3.414  0.4445  0.6258 -0.1608
 3200TIP3    H2 9562   0.509   2.429   3.296 -0.3745 -0.1720  0.3521
 3201TIP3   OH2 9563   1.007   4.531   3.941 -0.0492 -0.3063 -0.5801
 3201TIP3    H1 9564   1.012   4.556   3.849  0.2690  1.4545 -0.1097
 3201TIP3    H2 9565   1.026   4.612   3.989 -1.2567 -0.9594  1.0398
 3202TIP3   OH2 9566   3.351   4.294   0.481 -0.5008 -0.2104  0.0062
 3202TIP3    H1 9567   3.320   4.363   0.422 -1.0648  0.9538  1.6412
 3202TIP3    H2 9568   3.272   4.249   0.509 -0.3798  0.2317  1.0765
 3203TIP3   OH2 9569   2.661   2.027   1.636 -0.3373  1.2185 -0.0299
 3203TIP3    H1 9570   2.613   1.959   1.587  2.4515  0.5967 -2.0301
 3203TIP3    H2 9571   2.599   2.100   1.642 -1.7033  0.2944 -2.1587
 3204TIP3   OH2 9572   3.779   5.015   0.900  0.7156 -0.2957  0.0408
 3204TIP3    H1 9573   3.827   5.016   0.817 -0.7176  1.3024 -0.8009
 3204TIP3    H2 9574   3.733   4.931   0.900  1.5418 -0.7554 -0.2892
 3205TIP3   OH2 9575   1.430   2.116   2.762 -0.2138  0.1745  0.1074
 3205TIP3    H1 9576   1.474   2.052   2.706 -0.6457  1.5222 -1.8382
 3205TIP3    H2 9577   1.499   2.175   2.790 -0.4056  1.0367 -1.1919
 3206TIP3   OH2 9578   1.308   2.818   2.318 -0.7405 -0.1872 -0.5149
 3206TIP3    H1 9579   1.320   2.723   2.328  0.2603  0.1157  1.4131
 3206TIP3    H2 9580   1.221   2.827   2.279 -0.0647 -1.9569 -2.5133
 3207TIP3   OH2 9581   3.050   4.375   4.148  0.1366 -0.0213  0.1967
 3207TIP3    H1 9582   3.106   4.451   4.134  1.1659 -1.2389 -2.6309
 3207TIP3    H2 9583   2.972   4.392   4.095 -0.4214 -0.1300  0.9776
 3208TIP3   OH2 9584   2.097   2.560   3.111 -0.0467 -0.2964 -0.0809
 3208TIP3    H1 9585   2.175   2.582   3.162 -1.2430  2.1705  0.7784
 3208TIP3    H2 9586   2.125   2.566   3.020  1.0636 -0.6348  0.2313
 3209TIP3   OH2 9587   1.030   4.839   2.613 -0.5005  0.6510  0.0967
 3209TIP3    H1 9588   1.078   4.905   2.664 -1.3576  0.0923  1.6546
 3209TIP3    H2 9589   1.089   4.764   2.612 -0.6202  0.5456  0.5755
 3210TIP3   OH2 9590   1.970   4.036   2.736  0.0370 -0.2186  0.3652
 3210TIP3    H1 9591   2.057   4.071   2.757  0.1513  0.4885 -1.2011
 3210TIP3    H2 9592   1.979   3.941   2.743  0.9266 -0.1429  0.2565
 3211TIP3   OH2 9593   1.942   4.047   3.902  0.1931 -0.6025 -0.0615
 3211TIP3    H1 9594   1.893   4.128   3.896 -0.7333 -1.2230 -1.0970
 3211TIP3    H2 9595   2.019   4.069   3.954  0.0938  1.0005 -0.5617
 3212TIP3   OH2 9596   1.183   5.010   2.758 -0.2579  0.0013  0.5033
 3212TIP3    H1 9597   1.185   5.095   2.800  0.8388 -0.6814  1.8725
 3212TIP3    H2 9598   1.236   4.954   2.815 -0.8495 -1.5522 -0.4478
 3213TIP3   OH2 9599   4.821   6.575   5.968  0.0737 -0.1665  0.4621
 3213TIP3    H1 9600   4.913   6.582   5.994 -0.4342 -0.4423  2.4204
 3213TIP3    H2 9601   4.814   6.488   5.929  0.8286  0.2005 -0.5223
 3214TIP3   OH2 9602   3.958   3.412   2.259 -0.4368 -0.8352 -0.3844
 3214TIP3    H1 9603   3.927   3.464   2.333  0.7090 -1.0102  0.2221
 3214TIP3    H2 9604   3.973   3.325   2.296  0.8660 -0.7303 -0.6459
 3215TIP3   OH2 9605   1.932   2.798   1.093 -0.2924  0.5145 -0.2195
 3215TIP3    H1 9606   1.945   2.891   1.071 -2.9998  0.8490 -0.6271
 3215TIP3    H2 9607   1.860   2.799   1.156 -0.8589 -1.3724 -0.8059
 3216TIP3   OH2 9608   1.953   2.621   1.466  0.5258 -0.4612  0.3562
 3216TIP3    H1 9609   1.973   2.566   1.390  0.1197 -0.3256  0.1455
 3216TIP3    H2 9610   1.889   2.571   1.516  1.0563 -0.7021  0.7947
 3217TIP3   OH2 9611   1.363   2.434   3.614 -0.1829 -0.1002  0.2833
 3217TIP3    H1 9612   1.348   2.371   3.684 -0.8376 -1.1742 -0.8180
 3217TIP3    H2 9613   1.276   2.455   3.581  0.0637  1.0100  0.2934
 3218TIP3   OH2 9614   1.244   5.248   4.150 -0.2388 -0.1545 -0.0336
 3218TIP3    H1 9615   1.331   5.218   4.175 -0.0952 -0.5680 -0.9931
 3218TIP3    H2 9616   1.257   5.295   4.068 -0.8575  0.1554  0.0413
 3219TIP3   OH2 9617   2.845   2.765   3.213 -0.1185 -0.0696 -0.0039
 3219TIP3    H1 9618   2.938   2.784   3.221 -0.5308  1.5872  1.0943
 3219TIP3    H2 9619   2.808   2.838   3.164 -0.9018 -0.5116 -0.0945
 3220TIP3   OH2 9620   3.947   2.202   3.820  0.1346 -0.1381 -0.4102
 3220TIP3    H1 9621   3.992   2.254   3.753  0.4788  0.6095  0.3851
 3220TIP3    H2 9622   3.908   2.267   3.879  1.8315 -0.7362  1.4513
 3221TIP3   OH2 9623   0.420   5.532   5.123 -0.3342 -0.4621  0.2855
 3221TIP3    H1 9624   0.475   5.608   5.142 -0.6312 -0.3802  0.8297
 3221TIP3    H2 9625   0.478   5.471   5.077 -0.5281  0.7803 -1.6729
 3222TIP3   OH2 9626   2.077   4.996   3.521  0.0067 -0.8941 -0.0897
 3222TIP3    H1 9627   2.011   4.933   3.492  0.2956 -0.8205 -0.8905
 3222TIP3    H2 9628   2.058   5.076   3.473 -0.2506 -0.4120  0.7990
 3223TIP3   OH2 9629   3.595   3.581   0.512  0.3165  0.1936 -0.2332
 3223TIP3    H1 9630   3.560   3.494   0.491  2.2533 -0.0933 -2.4403
 3223TIP3    H2 9631   3.521   3.640   0.498 -0.1948 -0.7621 -1.7685
 3224TIP3   OH2 9632   1.584   5.707   3.704 -0.2779 -0.4678 -0.3702
 3224TIP3    H1 9633   1.580   5.802   3.699 -0.8052 -0.4434  0.3533
 3224TIP3    H2 9634   1.632   5.680   3.626  2.2713  0.5640  0.7851
 3225TIP3   OH2 9635   1.060   1.196   2.225 -0.1576 -0.3773  0.4365
 3225TIP3    H1 9636   1.078   1.243   2.306  0.6552 -0.0729  0.0869
 3225TIP3    H2 9637   0.991   1.133   2.248 -0.4279  0.1842  1.1857
 3226TIP3   OH2 9638   4.708   6.070   3.147  0.2500 -0.3338 -0.3229
 3226TIP3    H1 9639   4.782   6.009   3.139 -0.8321 -1.7640  0.3304
 3226TIP3    H2 9640   4.738   6.137   3.208  1.4383 -0.2337 -1.0003
 3227TIP3   OH2 9641   0.871   4.227   2.829 -0.6530 -0.1813 -0.2981
 3227TIP3    H1 9642   0.798   4.174   2.796  0.2367 -1.2479 -0.6029
 3227TIP3    H2 9643   0.927   4.163   2.873  0.3117  0.5604 -0.4503
 3228TIP3   OH2 9644   2.604   3.132   3.860 -0.0403  0.3091  0.5316
 3228TIP3    H1 9645   2.593   3.223   3.834  1.1433  0.6824  1.3061
 3228TIP3    H2 9646   2.614   3.085   3.777 -0.3920  0.9209  0.1421
 3229TIP3   OH2 9647   1.433   0.451   0.194  0.4198  0.3007  0.1533
 3229TIP3    H1 9648   1.485   0.530   0.211  0.5575  0.2154  0.1253
 3229TIP3    H2 9649   1.358   0.482   0.144  1.2509  0.1848 -1.1830
 3230TIP3   OH2 9650   3.056   1.947   2.736 -0.6000  0.4636 -0.2260
 3230TIP3    H1 9651   2.990   2.016   2.742  1.3432  2.3875 -0.2868
 3230TIP3    H2 9652   3.073   1.922   2.827 -0.9436  0.4226 -0.1730
 3231TIP3   OH2 9653   4.173   1.869   3.732 -0.2960 -0.4260  0.2865
 3231TIP3    H1 9654   4.220   1.949   3.707 -2.0465  0.1201 -1.4113
 3231TIP3    H2 9655   4.132   1.890   3.815 -0.3991  0.2956  0.0570
 3232TIP3   OH2 9656   3.020   3.910   2.883 -0.0941 -0.3838 -0.3426
 3232TIP3    H1 9657   3.055   3.995   2.856 -0.3033 -0.2221 -0.1066
 3232TIP3    H2 9658   2.949   3.893   2.822 -0.8758  0.2014  0.3846
 3233TIP3   OH2 9659   1.343   4.628   4.015 -0.0171 -0.6335  0.0163
 3233TIP3    H1 9660   1.351   4.534   3.998  0.7538 -0.4373 -0.7216
 3233TIP3    H2 9661   1.376   4.670   3.936 -0.2977  0.2635  0.3712
 3234TIP3   OH2 9662   1.511   1.889   1.969 -0.0944 -0.7544  0.9252
 3234TIP3    H1 9663   1.448   1.818   1.954 -0.1933 -0.5451  0.3251
 3234TIP3    H2 9664   1.543   1.874   2.058  1.1332 -2.5323  0.2157
 3235TIP3   OH2 9665   1.425   3.270   3.721  0.0976 -0.5910  0.1095
 3235TIP3    H1 9666   1.496   3.326   3.689  0.2756 -1.3346 -0.8087
 3235TIP3    H2 9667   1.357   3.332   3.747  1.1927  0.1396  1.2776
 3236TIP3   OH2 9668   2.819   2.907   1.489  0.1306  0.2113 -0.0308
 3236TIP3    H1 9669   2.832   2.933   1.580  0.9534 -1.3895  0.3333
 3236TIP3    H2 9670   2.725   2.893   1.481 -0.2799  2.9111 -0.1552
 3237TIP3   OH2 9671   2.459   3.217   2.104  0.0437  0.3621  0.8378
 3237TIP3    H1 9672   2.480   3.264   2.023  1.1871 -1.2959  0.1398
 3237TIP3    H2 9673   2.364   3.208   2.103  0.2583 -2.8024 -2.1967
 3238TIP3   OH2 9674   1.392   1.630   1.963  0.7915  0.8283  0.1372
 3238TIP3    H1 9675   1.351   1.612   1.879  1.0663  1.2132 -0.0837
 3238TIP3    H2 9676   1.483   1.600   1.953  0.8430  0.9331  0.2735
 3239TIP3   OH2 9677   2.134   4.675   0.888  0.4616  0.1285 -0.1738
 3239TIP3    H1 9678   2.169   4.717   0.967 -0.1940 -1.2543  0.8686
 3239TIP3    H2 9679   2.137   4.744   0.821 -0.6562  1.8659  1.5142
 3240TIP3   OH2 9680   2.179   4.892   1.670 -0.0318 -0.2985  0.5139
 3240TIP3    H1 9681   2.235   4.828   1.626 -0.2576 -0.3116  0.2423
 3240TIP3    H2 9682   2.100   4.842   1.693 -0.9733  0.3096 -1.2998
 3241TIP3   OH2 9683   3.697   4.180   5.288  0.2178  0.0407  0.2864
 3241TIP3    H1 9684   3.779   4.137   5.265  0.0681  0.4743 -1.0814
 3241TIP3    H2 9685   3.721   4.271   5.306  0.3975 -0.3780  2.2981
 3242TIP3   OH2 9686   1.636   3.056   1.386 -0.0984 -0.0744 -0.0146
 3242TIP3    H1 9687   1.712   2.998   1.394  0.2079  0.2329 -0.6181
 3242TIP3    H2 9688   1.565   2.998   1.359  0.1431 -0.2210 -0.3523
 3243TIP3   OH2 9689   4.365   3.681   1.001  0.0776  0.0145  0.5874
 3243TIP3    H1 9690   4.338   3.619   0.933  0.5000 -0.0658  0.4949
 3243TIP3    H2 9691   4.398   3.627   1.072  0.3969  0.1346  0.5283
 3244TIP3   OH2 9692   2.580   0.979   4.107 -0.2042 -0.2567  0.4985
 3244TIP3    H1 9693   2.571   0.888   4.076  0.9452 -1.4783  3.5718
 3244TIP3    H2 9694   2.652   1.015   4.055  0.3379 -1.5811  0.3027
 3245TIP3   OH2 9695   2.854   4.826   1.402  0.1457  0.5118  0.3598
 3245TIP3    H1 9696   2.825   4.914   1.380 -0.3030  0.1891 -0.3638
 3245TIP3    H2 9697   2.890   4.833   1.491 -0.4911  1.2829  0.5536
 3246TIP3   OH2 9698   2.399   4.957   1.966  0.5515 -0.9664  0.2196
 3246TIP3    H1 9699   2.369   5.015   1.897  2.4570  0.1093  0.2743
 3246TIP3    H2 9700   2.397   5.010   2.046 -2.9914 -2.5979  1.3181
 3247TIP3   OH2 9701   1.646   4.964   0.229 -0.4455 -0.1674 -0.3283
 3247TIP3    H1 9702   1.621   5.056   0.231 -0.3610 -0.1833  1.6563
 3247TIP3    H2 9703   1.730   4.963   0.182  0.0841  0.8959  0.5824
 3248TIP3   OH2 9704   1.884   3.688   1.255 -0.3812  0.1857 -0.2140
 3248TIP3    H1 9705   1.793   3.717   1.247  0.1615  1.7180 -0.8992
 3248TIP3    H2 9706   1.936   3.765   1.235  1.0838 -0.6191  0.4212
 3249TIP3   OH2 9707   4.161   4.183   3.430 -0.1835  0.0560  0.3546
 3249TIP3    H1 9708   4.178   4.098   3.390  0.2227 -0.6607  2.0163
 3249TIP3    H2 9709   4.118   4.162   3.513 -3.1523  1.5961 -0.7126
 3250TIP3   OH2 9710   2.309   4.356   4.452  0.1901 -0.1099 -0.2489
 3250TIP3    H1 9711   2.275   4.270   4.476 -1.9306  0.8783  0.3572
 3250TIP3    H2 9712   2.274   4.371   4.364  1.7295 -0.4502 -0.9430
 3251TIP3   OH2 9713   3.551   4.252   3.744  0.4095  0.7905 -0.2849
 3251TIP3    H1 9714   3.633   4.301   3.735  1.1070 -0.3157 -0.0876
 3251TIP3    H2 9715   3.532   4.220   3.656  0.6595  0.3069 -0.1630
 3252TIP3   OH2 9716   3.320   2.674   3.541 -0.2858 -0.5385  0.7026
 3252TIP3    H1 9717   3.411   2.682   3.514 -0.3013  2.8186  1.3825
 3252TIP3    H2 9718   3.307   2.581   3.556  3.1184 -1.0299  0.9371
 3253TIP3   OH2 9719   3.821   2.841   2.618 -0.2479  0.1578 -0.1771
 3253TIP3    H1 9720   3.824   2.746   2.622 -1.5068  0.0906 -0.4002
 3253TIP3    H2 9721   3.729   2.862   2.637 -0.0760  1.3011 -0.5915
 3254TIP3   OH2 9722   2.564   2.523   1.268 -0.4631  0.6616  0.3412
 3254TIP3    H1 9723   2.629   2.471   1.314 -0.3830  2.2490  2.0904
 3254TIP3    H2 9724   2.491   2.463   1.253 -0.7109  0.2168  3.0527
 3255TIP3   OH2 9725   1.891   1.951   1.306  0.3139  0.0654  0.0880
 3255TIP3    H1 9726   1.925   1.920   1.222  0.8410 -1.0626  0.7161
 3255TIP3    H2 9727   1.799   1.924   1.306  0.4120 -0.2681  0.0339
 3256TIP3   OH2 9728   7.783   5.239   2.721  0.2674  0.1004  0.1630
 3256TIP3    H1 9729   7.805   5.151   2.690  0.7419  0.5215 -0.7146
 3256TIP3    H2 9730   7.691   5.232   2.747  0.6151 -0.9305  1.1479
 3257TIP3   OH2 9731   1.630   2.652   2.706 -0.8679  0.5993  0.3797
 3257TIP3    H1 9732   1.693   2.611   2.766 -0.8599 -1.3440 -0.8886
 3257TIP3    H2 9733   1.655   2.744   2.704  3.3347 -0.4087 -1.6366
 3258TIP3   OH2 9734   2.536   4.081   1.450  0.3724 -0.2461  0.1876
 3258TIP3    H1 9735   2.606   4.147   1.456  0.6611 -0.5422  0.1102
 3258TIP3    H2 9736   2.565   4.023   1.380 -0.5382  0.3199 -0.6835
 3259TIP3   OH2 9737   4.420   3.096   2.744 -0.6427 -0.7930  0.5521
 3259TIP3    H1 9738   4.507   3.136   2.732 -1.5656  0.2691 -3.4142
 3259TIP3    H2 9739   4.366   3.167   2.777 -0.5346 -0.8167  0.7804
 3260TIP3   OH2 9740   2.545   2.316   1.601 -0.3935 -0.0398 -0.0068
 3260TIP3    H1 9741   2.469   2.274   1.562 -0.5910  0.3322 -0.0312
 3260TIP3    H2 9742   2.526   2.410   1.594  0.2906  0.0672 -0.4606
 3261TIP3   OH2 9743   0.767   4.133   2.128 -0.1927  0.1556 -0.1122
 3261TIP3    H1 9744   0.765   4.066   2.197 -0.1901  1.5859  1.3047
 3261TIP3    H2 9745   0.725   4.091   2.053  0.5627 -1.7305  0.4707
 3262TIP3   OH2 9746   1.084   1.714   1.507 -0.1625  0.0304  0.0308
 3262TIP3    H1 9747   1.007   1.767   1.484  0.0814  0.8046  1.0142
 3262TIP3    H2 9748   1.048   1.626   1.521 -0.6788  0.0963 -0.8291
 3263TIP3   OH2 9749   1.528   1.966   1.097  0.2934  0.0147  0.3666
 3263TIP3    H1 9750   1.510   1.896   1.034  1.0158  0.0667  0.0939
 3263TIP3    H2 9751   1.448   2.017   1.100  0.6694  0.7654 -1.4881
 3264TIP3   OH2 9752   7.569   6.208   3.016  0.3818  0.0257  0.0761
 3264TIP3    H1 9753   7.603   6.129   3.059 -1.3146 -0.7369  0.0929
 3264TIP3    H2 9754   7.632   6.227   2.946  1.1728 -0.9487  0.5131
 3265TIP3   OH2 9755   2.700   2.564   5.420  0.2538 -0.4894 -0.3799
 3265TIP3    H1 9756   2.723   2.539   5.330  0.8669  0.9794 -0.6477
 3265TIP3    H2 9757   2.777   2.541   5.472 -0.6687 -2.7215  0.0388
 3266TIP3   OH2 9758   0.351   4.240   2.335 -0.0455 -0.8194  0.3723
 3266TIP3    H1 9759   0.323   4.192   2.257 -2.1156 -0.2474  0.7376
 3266TIP3    H2 9760   0.288   4.311   2.343  0.5897 -0.4435  2.1620
 3267TIP3   OH2 9761   1.818   1.920   2.683  0.1151 -0.0928  0.0069
 3267TIP3    H1 9762   1.808   1.863   2.607  0.4486  0.4332 -0.4357
 3267TIP3    H2 9763   1.908   1.908   2.711 -0.7705 -2.4121  2.0496
 3268TIP3   OH2 9764   3.417   4.236   1.479  0.0843 -0.2474  0.3035
 3268TIP3    H1 9765   3.423   4.141   1.469  0.2247 -0.1702 -0.3964
 3268TIP3    H2 9766   3.352   4.263   1.414  0.9405  0.2658 -0.3687
 3269TIP3   OH2 9767   1.886   1.951   1.594  0.7083 -0.6147 -0.2320
 3269TIP3    H1 9768   1.838   1.871   1.575 -0.9260  0.7016 -1.7783
 3269TIP3    H2 9769   1.921   1.979   1.509  1.4918  0.1798  0.3426
 3270TIP3   OH2 9770   2.286   3.291   3.477  0.3327  0.0350 -0.2225
 3270TIP3    H1 9771   2.368   3.264   3.435  0.0272  0.2342 -0.9608
 3270TIP3    H2 9772   2.242   3.209   3.500  1.0012 -0.0668  0.6923
 3271TIP3   OH2 9773   3.106   4.982   4.680  0.2862  0.1378 -0.4925
 3271TIP3    H1 9774   3.168   4.910   4.681  0.1081 -0.0098  0.9991
 3271TIP3    H2 9775   3.021   4.941   4.698 -0.3581  0.2587 -3.0256
 3272TIP3   OH2 9776   1.409   4.941   5.803 -0.5308  0.8071  0.7292
 3272TIP3    H1 9777   1.447   5.025   5.781  1.9818 -0.2827  0.7496
 3272TIP3    H2 9778   1.431   4.927   5.895 -2.3587  0.8275  1.2055
 3273TIP3   OH2 9779   0.983   4.595   3.660  0.5178 -0.4265  0.3345
 3273TIP3    H1 9780   0.972   4.521   3.599  0.8757  1.1408 -1.6858
 3273TIP3    H2 9781   1.065   4.636   3.633 -0.9334  2.2189 -0.2439
 3274TIP3   OH2 9782   1.227   3.533   3.246 -0.0844 -0.0381 -0.2750
 3274TIP3    H1 9783   1.298   3.502   3.190 -0.8766  0.3417 -1.5088
 3274TIP3    H2 9784   1.193   3.453   3.287  0.2447 -0.3705 -0.6412
 3275TIP3   OH2 9785   0.486   3.713   2.578  0.0217  0.0255 -0.0233
 3275TIP3    H1 9786   0.431   3.680   2.649 -0.8984  0.8858 -0.3222
 3275TIP3    H2 9787   0.450   3.800   2.558  0.7692  0.1211 -0.9969
 3276TIP3   OH2 9788   1.712   3.741   1.924  0.0591 -0.3062 -0.1148
 3276TIP3    H1 9789   1.637   3.685   1.943  0.2616 -0.8269 -0.8344
 3276TIP3    H2 9790   1.711   3.752   1.829 -0.5272  1.6859  0.0922
 3277TIP3   OH2 9791   3.721   2.759   3.206 -0.2438  0.4259 -0.3763
 3277TIP3    H1 9792   3.723   2.797   3.118 -0.2619  0.0249 -0.5501
 3277TIP3    H2 9793   3.762   2.825   3.262 -0.2060  0.6682 -0.6909
 3278TIP3   OH2 9794   2.572   5.087   3.313 -0.4602  0.3840  0.5043
 3278TIP3    H1 9795   2.600   5.082   3.404 -1.1357 -0.3566  0.6736
 3278TIP3    H2 9796   2.647   5.056   3.263 -0.3435  0.1147  0.8479
 3279TIP3   OH2 9797   0.836   4.795   1.315  0.4988 -0.4498  0.1625
 3279TIP3    H1 9798   0.840   4.720   1.256 -0.9881 -0.3147 -0.1317
 3279TIP3    H2 9799   0.926   4.828   1.318  0.7539 -0.9605 -1.3883
 3280TIP3   OH2 9800   7.637   2.727   1.374  0.4768  0.5094 -0.3584
 3280TIP3    H1 9801   7.653   2.813   1.335 -0.4609  0.4565 -0.8734
 3280TIP3    H2 9802   7.545   2.709   1.355  0.2772  0.0339  1.0124
 3281TIP3   OH2 9803   3.498   5.294   2.225  0.0120 -0.4572  0.6137
 3281TIP3    H1 9804   3.583   5.337   2.223 -0.5482  0.8754  3.2007
 3281TIP3    H2 9805   3.436   5.362   2.199 -0.2525 -1.5002 -1.5524
 3282TIP3   OH2 9806   3.204   3.895   3.356 -0.6256 -0.0096  0.6575
 3282TIP3    H1 9807   3.153   3.873   3.278 -0.3973 -1.7308  0.9765
 3282TIP3    H2 9808   3.274   3.953   3.324 -1.5351  0.6720 -0.1200
 3283TIP3   OH2 9809   1.871   4.808   3.453  0.6654  0.6456 -0.8232
 3283TIP3    H1 9810   1.810   4.879   3.433  2.1822  1.6515 -2.0100
 3283TIP3    H2 9811   1.859   4.745   3.383  0.9247  0.8182 -1.0266
 3284TIP3   OH2 9812   1.239   5.597   3.038  0.1558 -0.0615 -0.0255
 3284TIP3    H1 9813   1.230   5.651   3.117  0.7157  0.1450 -0.0981
 3284TIP3    H2 9814   1.163   5.620   2.985  0.7076  1.1259 -0.3269
 3285TIP3   OH2 9815   3.056   4.222   1.150 -0.4026  0.1091 -1.1231
 3285TIP3    H1 9816   2.964   4.242   1.134 -0.2165  0.8573 -1.2802
 3285TIP3    H2 9817   3.054   4.159   1.222 -0.9764  1.2490 -0.1093
 3286TIP3   OH2 9818   3.433   4.879   4.122  0.2685 -0.7619  0.2752
 3286TIP3    H1 9819   3.525   4.869   4.143  0.3862 -0.0137  0.1411
 3286TIP3    H2 9820   3.390   4.891   4.206  0.6482  1.5358  0.1668
 3287TIP3   OH2 9821   1.744   3.899   1.659 -0.3899 -0.5113 -0.0380
 3287TIP3    H1 9822   1.722   3.953   1.734  0.7309 -1.8455  1.2881
 3287TIP3    H2 9823   1.834   3.922   1.638 -0.2246 -1.1475 -0.0595
 3288TIP3   OH2 9824   4.189   2.355   1.988 -0.0386 -0.0489  0.2360
 3288TIP3    H1 9825   4.282   2.364   2.009  0.1736 -1.0984 -0.2145
 3288TIP3    H2 9826   4.160   2.444   1.968  1.0790  0.1704 -0.4609
 3289TIP3   OH2 9827   2.759   5.357   0.883 -0.2219 -0.0372 -0.2426
 3289TIP3    H1 9828   2.759   5.320   0.795  0.1488  1.7721 -1.0231
 3289TIP3    H2 9829   2.732   5.449   0.870  2.5513  1.0171  1.1921
 3290TIP3   OH2 9830   6.814   5.809   3.104 -0.3107  0.4587  0.0839
 3290TIP3    H1 9831   6.739   5.866   3.121 -0.7512  0.1147 -0.6786
 3290TIP3    H2 9832   6.779   5.738   3.050  0.4616  0.0380  0.1246
 3291TIP3   OH2 9833   2.112   3.612   3.058  0.3367  0.0972  0.4816
 3291TIP3    H1 9834   2.034   3.557   3.064 -0.6086  1.3972  0.2003
 3291TIP3    H2 9835   2.167   3.582   3.131 -0.4623 -0.7666  0.7428
 3292TIP3   OH2 9836   3.235   4.764   4.865  0.3091 -0.4152 -0.2445
 3292TIP3    H1 9837   3.160   4.708   4.885  0.3510 -0.0455  0.9992
 3292TIP3    H2 9838   3.261   4.801   4.950  2.2963 -1.0193 -0.5587
 3293TIP3   OH2 9839   1.584   2.083   3.594 -0.6203  0.2882 -0.1225
 3293TIP3    H1 9840   1.627   2.103   3.677 -0.2716  0.1425 -0.2642
 3293TIP3    H2 9841   1.642   2.119   3.528 -0.2264 -0.7584 -0.3583
 3294TIP3   OH2 9842   1.585   4.109   2.674 -0.4636 -0.2377 -0.3980
 3294TIP3    H1 9843   1.673   4.081   2.648 -0.7425 -0.5806 -0.9625
 3294TIP3    H2 9844   1.537   4.117   2.592 -0.7294  0.7520 -0.1529
 3295TIP3   OH2 9845   1.860   3.527   2.041 -0.1988 -0.7274 -0.6015
 3295TIP3    H1 9846   1.833   3.616   2.018  3.0960  0.6645  0.5501
 3295TIP3    H2 9847   1.883   3.486   1.958 -0.4631 -0.0424 -1.0123
 3296TIP3   OH2 9848   4.155   4.766   4.172 -0.0900 -0.1582  0.0854
 3296TIP3    H1 9849   4.090   4.831   4.145  1.6013  0.6992 -2.0743
 3296TIP3    H2 9850   4.140   4.692   4.114  1.0127  0.1592 -0.6239
 3297TIP3   OH2 9851   1.884   3.235   3.911  0.1982  0.0336  0.0740
 3297TIP3    H1 9852   1.863   3.324   3.938 -0.1809 -0.3737  1.1576
 3297TIP3    H2 9853   1.885   3.238   3.816  2.0132  1.5995  0.1259
 3298TIP3   OH2 9854   2.838   2.495   3.110 -0.5260  0.2609  0.3188
 3298TIP3    H1 9855   2.866   2.579   3.146 -0.7670  0.2092  0.6384
 3298TIP3    H2 9856   2.743   2.506   3.097  0.2054  1.8988 -4.6990
 3299TIP3   OH2 9857   3.595   4.392   1.715 -0.0868  0.0002 -0.1733
 3299TIP3    H1 9858   3.503   4.416   1.704  0.9051  2.5810 -4.1826
 3299TIP3    H2 9859   3.607   4.319   1.654  0.3108 -1.0429  1.1381
 3300TIP3   OH2 9860   1.355   3.557   4.723 -0.1363 -0.3295 -0.3070
 3300TIP3    H1 9861   1.449   3.546   4.739  0.4966  4.4762 -0.1846
 3300TIP3    H2 9862   1.349   3.578   4.630 -1.1290 -0.8454 -0.3621
 3301TIP3   OH2 9863   0.470   1.292   2.450 -0.3115 -0.0230  0.2731
 3301TIP3    H1 9864   0.391   1.320   2.496 -0.9077 -1.3389  0.0836
 3301TIP3    H2 9865   0.440   1.224   2.390  0.7087  0.6119 -0.9732
 3302TIP3   OH2 9866   2.359   2.183   2.271  0.3286 -0.3240  0.2375
 3302TIP3    H1 9867   2.444   2.194   2.230  0.2917 -0.6491  0.0673
 3302TIP3    H2 9868   2.331   2.095   2.245 -0.7679  0.3631 -1.0303
 3303TIP3   OH2 9869   3.461   1.036   0.043  0.6130  0.3696  0.3850
 3303TIP3    H1 9870   3.379   0.999   0.009 -0.1572  0.7848  1.7678
 3303TIP3    H2 9871   3.529   1.001  -0.015 -0.7244  1.5993 -1.9977
 3304TIP3   OH2 9872   3.379   1.297   3.173 -0.1293 -0.3558 -0.3304
 3304TIP3    H1 9873   3.284   1.289   3.167 -0.4514  1.5657  1.5171
 3304TIP3    H2 9874   3.405   1.229   3.235  0.0239 -2.4037 -2.5548
 3305TIP3   OH2 9875   4.019   3.165   3.901  0.5445  0.2964  0.1278
 3305TIP3    H1 9876   3.989   3.222   3.830 -0.4172  0.3670  0.5819
 3305TIP3    H2 9877   4.112   3.153   3.884  0.0675 -0.8324 -1.9421
 3306TIP3   OH2 9878   1.413   3.989   2.845 -0.0822 -0.3297  0.2038
 3306TIP3    H1 9879   1.326   4.027   2.834 -0.3229 -0.1055  2.6480
 3306TIP3    H2 9880   1.467   4.032   2.778 -1.3602  1.0933  0.0659
 3307TIP3   OH2 9881   2.240   2.645   1.470 -0.2937  0.1122 -0.2831
 3307TIP3    H1 9882   2.221   2.562   1.426  0.6652  0.0864 -0.6713
 3307TIP3    H2 9883   2.160   2.667   1.516 -0.8198 -0.6329 -0.8279
 3308TIP3   OH2 9884   0.799   2.457   3.459  0.1758  0.6555 -0.4035
 3308TIP3    H1 9885   0.835   2.507   3.386  1.6672 -0.4618 -0.4573
 3308TIP3    H2 9886   0.876   2.422   3.504 -0.8201 -1.6580 -0.4290
 3309TIP3   OH2 9887   2.435   4.378   2.681 -0.1969  0.1624 -0.1009
 3309TIP3    H1 9888   2.421   4.357   2.589 -3.1289 -0.0195  0.3487
 3309TIP3    H2 9889   2.370   4.326   2.728  0.1740  1.4936  1.9510
 3310TIP3   OH2 9890   0.929   3.728   2.391  0.2764  0.3582 -0.6396
 3310TIP3    H1 9891   0.976   3.677   2.457 -0.4391 -0.1550 -0.5157
 3310TIP3    H2 9892   0.837   3.702   2.402  0.2535 -0.3778 -2.3871
 3311TIP3   OH2 9893   2.543   2.066   2.863 -0.0349  0.2325  0.6848
 3311TIP3    H1 9894   2.577   1.995   2.809  0.3715  1.3737 -0.5774
 3311TIP3    H2 9895   2.482   2.113   2.806  0.9738  1.9110  0.9328
 3312TIP3   OH2 9896   1.679   3.514   2.407  0.2468  0.5380  0.4961
 3312TIP3    H1 9897   1.632   3.475   2.334  1.4886  2.9243 -1.6754
 3312TIP3    H2 9898   1.751   3.454   2.425  0.0571  0.0403 -0.3944
 3313TIP3   OH2 9899   2.859   4.020   1.969 -0.1271 -0.0060  0.4465
 3313TIP3    H1 9900   2.825   4.077   1.900 -1.6864  0.8997  1.9282
 3313TIP3    H2 9901   2.930   3.972   1.927 -1.5048  0.0056 -1.9970
 3314TIP3   OH2 9902   2.625   3.025   0.839  0.5030  0.2276 -0.1551
 3314TIP3    H1 9903   2.703   3.017   0.894 -0.9851 -1.7596  1.7674
 3314TIP3    H2 9904   2.562   2.963   0.877 -2.6602  3.0216 -0.5187
 3315TIP3   OH2 9905   2.026   2.899   2.290  0.0928  0.2678 -0.2925
 3315TIP3    H1 9906   1.992   2.978   2.333  0.3476  0.2925 -0.1304
 3315TIP3    H2 9907   1.953   2.837   2.292  0.5717 -0.2861  1.6118
 3316TIP3   OH2 9908   2.809   3.948   3.749  0.3297  0.6506  0.2296
 3316TIP3    H1 9909   2.757   4.021   3.716 -0.5432  0.0188  0.1675
 3316TIP3    H2 9910   2.872   3.929   3.680 -1.3100 -0.4924 -0.9749
 3317TIP3   OH2 9911   0.870   3.846   2.831 -0.0822  0.2858 -0.4790
 3317TIP3    H1 9912   0.829   3.761   2.819 -1.8906  1.2652 -1.3819
 3317TIP3    H2 9913   0.887   3.852   2.925 -2.0937 -0.1075 -0.0812
 3318TIP3   OH2 9914   0.546   3.907   2.099  0.3830 -0.0365  0.1438
 3318TIP3    H1 9915   0.506   3.986   2.063 -0.3296  1.0239  3.0815
 3318TIP3    H2 9916   0.497   3.835   2.059 -1.1252  1.1124 -0.1079
 3319TIP3   OH2 9917   2.325   4.657   3.407 -0.1101 -0.1189  0.2738
 3319TIP3    H1 9918   2.239   4.633   3.441 -0.2571  1.1441  0.8264
 3319TIP3    H2 9919   2.326   4.753   3.409  0.5250 -0.0604 -1.6682
 3320TIP3   OH2 9920   0.251   4.696   2.593  0.0837  0.3849  0.2037
 3320TIP3    H1 9921   0.251   4.703   2.689 -2.5642 -0.6382  0.3027
 3320TIP3    H2 9922   0.253   4.602   2.576  1.2289  0.5767 -0.7724
 3321TIP3   OH2 9923   1.826   4.287   3.896  0.5236  0.2959  0.1670
 3321TIP3    H1 9924   1.880   4.355   3.855  0.4657  0.9347  1.1366
 3321TIP3    H2 9925   1.743   4.331   3.916 -0.2766 -0.6135 -1.0685
 3322TIP3   OH2 9926   3.492   4.058   4.599 -0.0547 -0.9967  0.8612
 3322TIP3    H1 9927   3.487   4.009   4.681  0.1251 -1.2543  0.7194
 3322TIP3    H2 9928   3.585   4.056   4.575 -0.1452 -1.1396  0.5182
 3323TIP3   OH2 9929   2.982   3.303   2.270  0.0126 -0.9917  0.7232
 3323TIP3    H1 9930   2.969   3.295   2.175  0.2106  3.7981  0.1708
 3323TIP3    H2 9931   3.077   3.318   2.279  0.1166 -2.2464  1.7760
 3324TIP3   OH2 9932   7.294   3.344   4.699  0.1142 -0.5165 -0.3147
 3324TIP3    H1 9933   7.351   3.318   4.771 -0.4548  0.4537  0.4941
 3324TIP3    H2 9934   7.310   3.438   4.688  0.4046 -0.7103 -1.6391
 3325TIP3   OH2 9935   6.926   3.372   3.234  0.5113 -0.7250  0.5763
 3325TIP3    H1 9936   6.865   3.443   3.253 -0.8549 -1.7297  0.0756
 3325TIP3    H2 9937   6.923   3.363   3.139  0.9344 -1.2231  0.6068
 3326TIP3   OH2 9938   1.903   3.457   2.619 -0.2711 -0.6659  0.0090
 3326TIP3    H1 9939   1.817   3.441   2.660 -0.4719 -0.4820 -0.3427
 3326TIP3    H2 9940   1.922   3.549   2.639 -0.4023 -0.5553 -0.3716
 3327TIP3   OH2 9941   3.498   3.947   1.474  0.6505  0.2117 -0.2322
 3327TIP3    H1 9942   3.579   3.900   1.494  0.9159  0.5403 -0.5182
 3327TIP3    H2 9943   3.466   3.907   1.393  0.0388 -0.5371  0.3859
 3328TIP3   OH2 9944   2.595   3.635   2.187  0.3424 -0.2837  0.2034
 3328TIP3    H1 9945   2.687   3.619   2.164  0.7568  0.9142  1.0248
 3328TIP3    H2 9946   2.572   3.562   2.244  2.0109  1.4966  3.3143
 3329TIP3   OH2 9947   2.632   5.649   4.134 -0.1707  0.4567 -0.8404
 3329TIP3    H1 9948   2.575   5.654   4.211  1.3516 -0.8211  0.4188
 3329TIP3    H2 9949   2.668   5.737   4.125  1.1780  0.1443  1.1621
 3330TIP3   OH2 9950   0.547   4.758   2.420 -0.0125 -0.1272  0.2135
 3330TIP3    H1 9951   0.637   4.745   2.390 -0.1068  0.9079 -0.5588
 3330TIP3    H2 9952   0.500   4.682   2.387  0.0862  0.5200 -1.5028
 3331TIP3   OH2 9953   1.482   4.627   5.942  0.0588  0.1002 -0.1541
 3331TIP3    H1 9954   1.457   4.568   6.013  0.4615  1.3250  1.0391
 3331TIP3    H2 9955   1.522   4.570   5.876 -0.0045 -1.0172  0.7587
 3332TIP3   OH2 9956   2.678   3.959   0.911  0.6898  0.3784 -0.4396
 3332TIP3    H1 9957   2.629   3.936   0.989 -0.0146  2.2342 -0.3068
 3332TIP3    H2 9958   2.680   4.055   0.911  0.9823  0.4021 -2.5065
 3333TIP3   OH2 9959   1.770   3.788   5.579 -0.1143 -0.4238 -0.0254
 3333TIP3    H1 9960   1.703   3.834   5.529 -1.2414 -2.0708 -0.0500
 3333TIP3    H2 9961   1.767   3.827   5.666  0.6875  1.2748 -0.7242
 3334TIP3   OH2 9962   1.412   0.367   4.545 -0.3714 -0.0688 -0.3916
 3334TIP3    H1 9963   1.506   0.381   4.545 -0.7153  2.5858 -1.4819
 3334TIP3    H2 9964   1.401   0.272   4.544  2.2724 -0.3936  0.1175
 3335TIP3   OH2 9965   3.817   6.315   5.146 -0.2789  0.1343 -0.0118
 3335TIP3    H1 9966   3.747   6.261   5.181 -0.7283 -0.1330 -1.3438
 3335TIP3    H2 9967   3.896   6.260   5.154 -0.3282  0.1608  0.7750
 3336TIP3   OH2 9968   1.215   4.774   3.535 -0.2645  0.8014  0.4781
 3336TIP3    H1 9969   1.254   4.858   3.512  0.0604  0.6148  0.3261
 3336TIP3    H2 9970   1.141   4.764   3.476  0.6945  0.2285 -0.6602
 3337TIP3   OH2 9971   2.890   3.798   1.332 -0.2001 -0.5616  0.1954
 3337TIP3    H1 9972   2.808   3.796   1.282 -0.7965  0.8333  1.0791
 3337TIP3    H2 9973   2.874   3.740   1.406  0.3013 -1.7788 -0.6298
 3338TIP3   OH2 9974   3.944   4.987   0.689  0.0472 -0.1555  0.2310
 3338TIP3    H1 9975   4.030   5.007   0.653  0.4245 -0.6462  0.8612
 3338TIP3    H2 9976   3.928   4.896   0.665  0.8761 -0.9012  2.4206
 3339TIP3   OH2 9977   0.231   2.502   4.496  0.1056  0.1040 -0.3478
 3339TIP3    H1 9978   0.272   2.556   4.564 -0.3718  0.1987 -0.1372
 3339TIP3    H2 9979   0.305   2.459   4.453  0.3735 -0.4368  0.6423
 3340TIP3   OH2 9980   1.065   3.929   2.661 -0.4950 -0.2225 -0.0912
 3340TIP3    H1 9981   1.116   3.849   2.670  0.5865  0.5278  0.5061
 3340TIP3    H2 9982   0.987   3.914   2.713  0.4552 -0.2734  1.3335
 3341TIP3   OH2 9983   2.989   2.319   3.252  0.5425 -0.1658 -0.3935
 3341TIP3    H1 9984   3.066   2.373   3.267  0.9584 -0.2376 -2.1370
 3341TIP3    H2 9985   2.946   2.360   3.177 -0.0256 -1.2904 -0.6871
 3342TIP3   OH2 9986   2.234   4.692   4.612  0.3222  0.3069  0.0640
 3342TIP3    H1 9987   2.144   4.662   4.605  0.4202  0.0474 -0.1103
 3342TIP3    H2 9988   2.273   4.673   4.526  1.8745 -4.0490  1.5897
 3343TIP3   OH2 9989   0.756   4.286   4.113  0.5678 -0.0605 -0.0668
 3343TIP3    H1 9990   0.763   4.352   4.181  0.2047 -1.4547  1.3505
 3343TIP3    H2 9991   0.721   4.333   4.037 -2.6840  0.7480  1.8419
 3344TIP3   OH2 9992   2.657   1.781   2.728 -0.1208 -0.1410 -0.0805
 3344TIP3    H1 9993   2.703   1.721   2.670  0.1709  0.2218 -0.2285
 3344TIP3    H2 9994   2.607   1.838   2.670  1.1953  1.0680 -0.0552
 3345TIP3   OH2 9995   3.676   3.540   5.077 -0.2887 -0.2588  0.2593
 3345TIP3    H1 9996   3.660   3.557   5.169  0.9774  0.2648  0.3766
 3345TIP3    H2 9997   3.733   3.463   5.076 -0.8822 -0.7013 -0.1093
 3346TIP3   OH2 9998   4.609   4.094   5.486  0.3740 -0.1886 -0.2048
 3346TIP3    H1 9999   4.659   4.082   5.567  1.1766  0.2149 -0.6288
 3346TIP3    H210000   4.523   4.125   5.515  1.3938  2.1465  0.3858
 3347TIP3   OH210001   0.421   4.681   1.281  0.6284 -0.5957 -0.0776
 3347TIP3    H110002   0.497   4.684   1.338 -0.1560  0.1392  0.9500
 3347TIP3    H210003   0.457   4.688   1.192  1.7451 -0.1987  0.4000
 3348TIP3   OH210004   1.821   4.553   1.275  0.1997  0.4293  0.5028
 3348TIP3    H110005   1.768   4.576   1.351 -0.2887  3.4395 -0.6687
 3348TIP3    H210006   1.899   4.511   1.311  0.7325  3.2648  2.7710
 3349TIP3   OH210007   0.954   6.820   4.982  0.4130  0.1305  0.1307
 3349TIP3    H110008   1.044   6.790   4.992  0.6705  1.3119  1.4881
 3349TIP3    H210009   0.920   6.769   4.908  2.3279  0.0033 -0.6970
 3350TIP3   OH210010   7.406   2.974   1.700 -0.1478  0.3130 -0.1725
 3350TIP3    H110011   7.423   2.895   1.751  1.5492  0.2236 -0.8400
 3350TIP3    H210012   7.486   3.025   1.707 -0.7652  1.3919 -0.7907
 3351TIP3   OH210013   0.973   4.096   1.455 -0.9671  0.1005  0.1758
 3351TIP3    H110014   0.911   4.148   1.403 -0.8431  0.8786  0.7963
 3351TIP3    H210015   0.932   4.009   1.461 -0.1239 -0.5598 -2.7771
 3352TIP3   OH210016   4.466   5.610   2.262  0.0595 -0.6022 -0.4928
 3352TIP3    H110017   4.557   5.631   2.285 -0.2725  0.8369 -0.4251
 3352TIP3    H210018   4.424   5.695   2.253 -1.8816 -1.2528  1.8089
 3353TIP3   OH210019   3.694   6.907   2.728 -0.0880  0.3801  0.4755
 3353TIP3    H110020   3.604   6.881   2.708 -0.1891 -0.1201  1.5279
 3353TIP3    H210021   3.746   6.828   2.718  0.3415  0.8112 -0.7359
 3354TIP3   OH210022   3.617   3.204   1.273 -0.0851 -0.9010  0.0443
 3354TIP3    H110023   3.610   3.263   1.349  0.3974 -1.0326  0.1967
 3354TIP3    H210024   3.697   3.233   1.229 -0.5767 -0.5730 -0.6363
 3355TIP3   OH210025   3.027   4.867   1.616 -1.0408  0.2453 -0.7503
 3355TIP3    H110026   3.053   4.933   1.679 -1.9385  0.7524 -0.9036
 3355TIP3    H210027   3.107   4.815   1.601 -0.3859  1.1659 -0.4918
 3356TIP3   OH210028   2.085   4.196   2.470  0.0907  0.4586  0.2482
 3356TIP3    H110029   2.144   4.148   2.529 -0.9863 -0.9410  0.2275
 3356TIP3    H210030   2.063   4.132   2.402  0.8577  1.8858 -1.3526
 3357TIP3   OH210031   2.109   4.933   3.808  0.6503  0.9732  0.2131
 3357TIP3    H110032   2.204   4.926   3.811  0.7401  2.2951  0.8867
 3357TIP3    H210033   2.088   4.929   3.714  1.4156  1.1666  0.0292
 3358TIP3   OH210034   2.574   2.244   0.962 -0.1218  0.1918  0.0665
 3358TIP3    H110035   2.490   2.246   1.008 -0.0951  0.9534  0.0799
 3358TIP3    H210036   2.577   2.156   0.923 -2.4498  1.2793 -2.7252
 3359TIP3   OH210037   5.428   4.903   3.702 -0.1551  0.0190 -0.3475
 3359TIP3    H110038   5.337   4.911   3.674 -0.4573  0.9800  0.8755
 3359TIP3    H210039   5.477   4.959   3.640 -0.1825 -1.6725 -1.9341
 3360TIP3   OH210040   3.568   2.924   1.738 -0.2987 -0.1673 -0.2718
 3360TIP3    H110041   3.570   2.963   1.651  1.1906 -0.1278 -0.2413
 3360TIP3    H210042   3.593   2.995   1.797  1.4774 -0.8911 -0.1217
 3361TIP3   OH210043   1.689   3.673   5.039  0.0305 -0.4146  0.0558
 3361TIP3    H110044   1.749   3.641   5.106  2.3812  2.2697 -0.6688
 3361TIP3    H210045   1.627   3.728   5.086  1.4907  1.2194  0.1088
 3362TIP3   OH210046   3.821   4.363   2.779  0.6801  0.8335 -0.4172
 3362TIP3    H110047   3.855   4.401   2.699  0.7535 -0.4479 -1.0146
 3362TIP3    H210048   3.899   4.330   2.825  0.3587 -1.5683 -1.5036
 3363TIP3   OH210049   1.714   4.733   4.085 -0.4989 -0.2992 -0.1518
 3363TIP3    H110050   1.663   4.784   4.022  0.6505  2.8847  1.4104
 3363TIP3    H210051   1.802   4.730   4.048 -1.0844 -3.3372 -1.4300
 3364TIP3   OH210052   2.338   2.186   1.095 -0.4171  0.2537  0.5389
 3364TIP3    H110053   2.246   2.190   1.068 -0.1731 -0.7510 -0.4659
 3364TIP3    H210054   2.350   2.097   1.128 -0.1097  0.7582  1.8076
 3365TIP3   OH210055   3.339   0.991   3.807  0.3053  0.1289  0.0750
 3365TIP3    H110056   3.289   1.071   3.794 -2.0867 -1.3949 -0.2899
 3365TIP3    H210057   3.358   0.989   3.901  0.3546  1.0783  0.0956
 3366TIP3   OH210058   3.214   4.529   2.496 -0.0433  0.2275 -0.2215
 3366TIP3    H110059   3.277   4.489   2.436 -0.1124 -1.7706  1.0271
 3366TIP3    H210060   3.242   4.501   2.583 -1.4218  1.0652  0.5036
 3367TIP3   OH210061   1.680   3.115   4.122  0.5255 -0.2798 -0.5034
 3367TIP3    H110062   1.598   3.134   4.077  1.0915  2.0759 -0.6302
 3367TIP3    H210063   1.654   3.070   4.203 -0.7626 -0.9097 -1.2685
 3368TIP3   OH210064   0.695   3.963   4.894 -0.2939 -0.4966  0.0187
 3368TIP3    H110065   0.690   3.972   4.799  0.6254 -1.2392 -0.1138
 3368TIP3    H210066   0.682   3.870   4.911  0.1883 -0.4740  0.5639
 3369TIP3   OH210067   2.847   2.838   4.038 -0.2655  0.5463  0.0891
 3369TIP3    H110068   2.779   2.819   4.103  0.6415 -0.9230  0.6188
 3369TIP3    H210069   2.799   2.844   3.955 -1.3053  1.5251  0.7428
 3370TIP3   OH210070   1.926   3.664   1.545 -0.4981  0.0623  0.0437
 3370TIP3    H110071   1.955   3.637   1.458 -1.1228 -0.7872  0.0977
 3370TIP3    H210072   1.931   3.760   1.543  3.3306 -0.0510  0.4131
 3371TIP3   OH210073   2.131   4.146   3.209  0.0062 -0.2728  0.0683
 3371TIP3    H110074   2.200   4.089   3.241 -0.1565  0.1243  1.1281
 3371TIP3    H210075   2.135   4.223   3.265  0.3506  0.8509 -1.4793
 3372TIP3   OH210076   1.961   2.181   3.911  0.2932 -0.0049 -0.1186
 3372TIP3    H110077   1.968   2.243   3.984 -0.6715 -0.5316  0.4422
 3372TIP3    H210078   2.009   2.104   3.941 -0.6464 -0.4624  0.2372
 3373TIP3   OH210079   2.863   5.649   0.929  0.9857 -0.0336  0.2365
 3373TIP3    H110080   2.772   5.626   0.910  1.0053  1.4809 -1.9300
 3373TIP3    H210081   2.870   5.646   1.024 -0.3736 -3.6119  0.2793
 3374TIP3   OH210082   1.479   4.594   2.934  0.5167 -0.0253 -0.6640
 3374TIP3    H110083   1.494   4.562   3.023 -0.0959  1.7374  0.0875
 3374TIP3    H210084   1.481   4.515   2.880  1.0306 -1.1029  0.8871
 3375TIP3   OH210085   1.331   5.260   3.209  0.0377  0.1405 -0.4928
 3375TIP3    H110086   1.267   5.282   3.277 -0.1839 -0.8011 -0.3948
 3375TIP3    H210087   1.402   5.323   3.223 -0.5687  0.7688 -0.1916
 3376TIP3   OH210088   0.451   2.417   5.296  0.3879  0.0102  0.2772
 3376TIP3    H110089   0.476   2.336   5.340  0.8383 -0.2220 -0.4012
 3376TIP3    H210090   0.357   2.427   5.315  0.6939  0.2138  1.7617
 3377TIP3   OH210091   1.652   4.341   4.173 -0.1320 -0.5521 -0.2001
 3377TIP3    H110092   1.715   4.271   4.192  0.4804 -0.1573 -0.7568
 3377TIP3    H210093   1.575   4.318   4.225 -0.4277 -2.3509 -1.3723
 3378TIP3   OH210094   2.627   4.702   3.650  0.0229  0.3518  0.1824
 3378TIP3    H110095   2.646   4.676   3.560  0.7375 -0.2182  0.4975
 3378TIP3    H210096   2.690   4.654   3.703  0.6765  1.9264  0.8557
 3379TIP3   OH210097   3.427   4.078   3.349  0.1313  0.1444  0.2391
 3379TIP3    H110098   3.369   4.130   3.405  0.4834 -0.2424  0.9761
 3379TIP3    H210099   3.506   4.066   3.401  0.1917 -0.8366 -0.0598
 3380TIP3   OH210100   2.126   5.293   3.381 -0.7323  0.2818  0.5892
 3380TIP3    H110101   2.144   5.383   3.355  0.8768 -0.7118 -1.8762
 3380TIP3    H210102   2.111   5.247   3.298 -1.5022 -1.7302  1.8181
 3381TIP3   OH210103   3.537   2.318   3.348  0.3007  0.2128 -0.1753
 3381TIP3    H110104   3.568   2.354   3.265  1.4946 -0.3084  0.0322
 3381TIP3    H210105   3.568   2.227   3.348  0.4329  0.2504  0.9001
 3382TIP3   OH210106   0.877   4.399   2.122 -0.7495 -0.4117 -0.4146
 3382TIP3    H110107   0.807   4.439   2.070  0.1872  0.2265 -1.1962
 3382TIP3    H210108   0.836   4.322   2.162 -1.8524 -0.1404 -1.0014
 3383TIP3   OH210109   4.822   5.576   2.773  0.4680 -0.6890  0.1371
 3383TIP3    H110110   4.848   5.629   2.698  0.0834  0.3824  0.7428
 3383TIP3    H210111   4.889   5.594   2.839 -1.1395  1.2138  1.3073
 3384TIP3   OH210112   5.580   5.968   2.878 -0.6648  0.3671 -0.0206
 3384TIP3    H110113   5.554   5.904   2.944  1.7793  1.8244  2.4412
 3384TIP3    H210114   5.503   6.025   2.868 -1.2005 -0.0999  1.2762
 3385TIP3   OH210115   1.606   3.515   3.227  0.1875  0.3434  0.0294
 3385TIP3    H110116   1.670   3.466   3.175  1.3072  0.3790  1.3539
 3385TIP3    H210117   1.602   3.601   3.184 -0.5054 -0.3214 -1.2751
 3386TIP3   OH210118   2.568   4.485   1.625  0.6172  0.5994  0.0809
 3386TIP3    H110119   2.625   4.411   1.644 -0.3410 -0.4430 -1.0772
 3386TIP3    H210120   2.587   4.508   1.534  0.5115  1.4440  0.2612
 3387TIP3   OH210121   2.134   3.084   3.594 -0.3902  0.1899  0.4886
 3387TIP3    H110122   2.133   2.996   3.558  0.3630  0.7006 -0.8042
 3387TIP3    H210123   2.201   3.082   3.662 -1.3909 -0.6078  1.4807
 3388TIP3   OH210124   0.615   4.340   3.882  0.5340  0.0732 -0.2122
 3388TIP3    H110125   0.541   4.369   3.935 -0.0239 -0.6728 -0.5549
 3388TIP3    H210126   0.648   4.419   3.840 -1.6347  0.1131 -1.9783
 3389TIP3   OH210127   1.030   2.979   2.087  0.7198 -0.3278 -0.4149
 3389TIP3    H110128   1.027   2.928   2.168  0.1504  0.7494  0.2532
 3389TIP3    H210129   1.068   3.063   2.112 -2.0951  1.0793 -0.6356
 3390TIP3   OH210130   1.451   3.637   1.895  0.3234 -0.6886  0.9621
 3390TIP3    H110131   1.436   3.550   1.859  0.0529 -0.5341  0.6993
 3390TIP3    H210132   1.375   3.654   1.950 -1.4141  0.8394 -1.8190
 3391TIP3   OH210133   3.743   5.247   2.858  0.3507 -0.2919 -0.1079
 3391TIP3    H110134   3.817   5.299   2.828 -0.9050  1.4553 -0.2294
 3391TIP3    H210135   3.743   5.171   2.800  2.0889 -0.3647 -0.0443
 3392TIP3   OH210136   1.770   2.461   3.798 -0.1925 -0.4512  0.4823
 3392TIP3    H110137   1.695   2.466   3.739  0.7765  0.6735 -0.6834
 3392TIP3    H210138   1.732   2.443   3.884 -1.5369 -3.0035 -0.6197
 3393TIP3   OH210139   4.630   2.712   1.677 -0.4181 -0.3327  0.4310
 3393TIP3    H110140   4.722   2.731   1.691 -1.0322  3.0873  0.2037
 3393TIP3    H210141   4.613   2.634   1.730  2.3776 -0.4816  1.1546
 3394TIP3   OH210142   3.304   1.481   0.957 -0.4966 -0.4606  0.7422
 3394TIP3    H110143   3.255   1.449   0.881  0.0443 -0.5363  0.4220
 3394TIP3    H210144   3.245   1.467   1.031 -1.7087  1.2221  0.1133
 3395TIP3   OH210145   2.799   1.443   1.196 -0.0414  0.2230  0.3423
 3395TIP3    H110146   2.720   1.392   1.180  0.0948  0.6215 -1.7425
 3395TIP3    H210147   2.837   1.457   1.109  2.4257 -0.1197  1.3134
 3396TIP3   OH210148   0.467   4.191   2.025 -0.1949 -0.4623 -0.3076
 3396TIP3    H110149   0.548   4.214   2.071  0.3352 -1.0425 -0.9436
 3396TIP3    H210150   0.419   4.274   2.017 -0.7464 -0.5003  2.1348
 3397TIP3   OH210151   1.891   2.198   2.667 -0.2418  0.7296  0.4148
 3397TIP3    H110152   1.869   2.244   2.586  0.0894  0.9603  0.4584
 3397TIP3    H210153   1.832   2.122   2.668 -0.0179  0.5437 -0.2107
 3398TIP3   OH210154   2.192   1.037   1.868  0.0114 -0.2202 -0.4486
 3398TIP3    H110155   2.282   1.043   1.837 -0.6566 -0.4229 -2.4701
 3398TIP3    H210156   2.195   0.971   1.937  1.2309 -1.0088 -1.2444
 3399TIP3   OH210157   0.381   4.281   0.098  0.0822  0.0365 -0.1685
 3399TIP3    H110158   0.391   4.373   0.123 -1.4880  0.3994 -0.7771
 3399TIP3    H210159   0.398   4.280   0.003 -0.2343 -0.2440 -0.2228
 3400TIP3   OH210160   3.304   5.163   2.746 -0.5688 -0.0212 -0.5288
 3400TIP3    H110161   3.324   5.256   2.756 -2.2372  0.3514 -0.4250
 3400TIP3    H210162   3.251   5.159   2.666 -0.7641 -0.8376 -0.3618
 3401TIP3   OH210163   2.027   4.682   2.736  0.2283 -0.2748  0.2185
 3401TIP3    H110164   2.057   4.598   2.702 -1.4920  0.0270 -2.1918
 3401TIP3    H210165   1.932   4.673   2.741  0.1731  0.9434  1.5623
 3402TIP3   OH210166   1.303   5.059   4.513 -0.4081 -0.0677  0.1741
 3402TIP3    H110167   1.285   5.000   4.440 -0.7620  1.0054 -0.6249
 3402TIP3    H210168   1.397   5.076   4.509 -0.1616 -1.2405  0.9220
 3403TIP3   OH210169   7.107   6.503   1.111 -0.3013  0.0284 -0.0374
 3403TIP3    H110170   7.196   6.467   1.117  0.8362  2.5703 -1.0248
 3403TIP3    H210171   7.077   6.505   1.202  0.0580 -2.2494  0.1597
 3404TIP3   OH210172   2.544   3.823   3.034  0.1058 -0.7135 -0.0220
 3404TIP3    H110173   2.450   3.835   3.024  0.0536 -1.6373 -0.7568
 3404TIP3    H210174   2.577   3.910   3.058 -0.9572 -0.4388  0.4928
 3405TIP3   OH210175   2.991   3.971   3.556 -0.4979  0.3848 -0.9884
 3405TIP3    H110176   3.054   3.932   3.495 -0.8463  0.1718 -1.2165
 3405TIP3    H210177   3.045   4.015   3.622 -0.1070 -0.0952 -0.9871
 3406TIP3   OH210178   0.391   0.329   6.259 -0.6370  0.5653  0.5118
 3406TIP3    H110179   0.318   0.348   6.318 -1.1821 -0.4687  0.1866
 3406TIP3    H210180   0.447   0.407   6.264 -2.1312  1.6807  0.1961
 3407TIP3   OH210181   4.531   4.070   1.977  0.0319 -0.6868 -0.2008
 3407TIP3    H110182   4.453   4.106   2.019 -0.1438 -1.0033 -0.2592
 3407TIP3    H210183   4.562   4.141   1.921  1.0891  0.2717  1.5321
 3408TIP3   OH210184   4.517   6.217   1.878  0.0604 -0.1474 -0.1677
 3408TIP3    H110185   4.581   6.279   1.842  0.6674 -1.1868 -0.9084
 3408TIP3    H210186   4.524   6.140   1.822 -0.1043 -1.2013  1.2252
 3409TIP3   OH210187   5.478   2.707   2.190 -0.2445 -0.1217 -0.0305
 3409TIP3    H110188   5.403   2.752   2.150  0.4579  0.5080 -0.6527
 3409TIP3    H210189   5.539   2.778   2.213  0.5631 -0.7030 -0.3748
 3410TIP3   OH210190   4.363   6.939   2.845  0.1637  0.4315 -0.1774
 3410TIP3    H110191   4.380   6.845   2.836 -1.6677 -0.0125  0.6668
 3410TIP3    H210192   4.387   6.959   2.936  0.1218  0.6744 -0.2202
 3411TIP3   OH210193   2.758   4.213   1.482 -0.2398  0.2921  0.0057
 3411TIP3    H110194   2.825   4.168   1.430  1.6609  1.1311  1.6413
 3411TIP3    H210195   2.743   4.295   1.435  0.6188  0.5323  0.1423
 3412TIP3   OH210196   2.438   6.490   1.097 -0.0959 -0.0269  0.0835
 3412TIP3    H110197   2.352   6.471   1.133 -0.3297  0.4264 -0.2312
 3412TIP3    H210198   2.496   6.426   1.138 -0.5445 -0.1982  0.4514
 3413TIP3   OH210199   4.481   4.679   2.428 -0.7074  0.0197 -0.2009
 3413TIP3    H110200   4.450   4.769   2.437  0.6101  0.4157  0.6840
 3413TIP3    H210201   4.576   4.688   2.416 -0.3970 -1.2933  1.1361
 3414TIP3   OH210202   3.797   6.709   2.284  0.1587  0.4201 -0.5567
 3414TIP3    H110203   3.732   6.746   2.343  1.6530  1.5415  0.4232
 3414TIP3    H210204   3.757   6.628   2.252 -0.4806 -0.5024  2.4409
 3415TIP3   OH210205   5.178   4.891   3.598  0.0596 -0.5300  0.5146
 3415TIP3    H110206   5.133   4.976   3.595 -0.3585 -0.7928 -1.7345
 3415TIP3    H210207   5.114   4.832   3.637 -0.1272 -0.0816  0.8957
 3416TIP3   OH210208   3.157   5.348   3.051 -0.4013  0.4054 -0.0749
 3416TIP3    H110209   3.181   5.440   3.065  0.1030  0.4733 -1.3168
 3416TIP3    H210210   3.205   5.300   3.118  0.7963  0.8669 -0.5887
 3417TIP3   OH210211   3.852   1.050   1.947  0.1440  0.5345 -0.8539
 3417TIP3    H110212   3.881   1.016   2.031 -1.4361 -0.7490 -0.8066
 3417TIP3    H210213   3.757   1.057   1.955 -0.1530 -0.6602 -2.8827
 3418TIP3   OH210214   5.048   4.799   2.560 -0.2017 -0.7094 -0.0558
 3418TIP3    H110215   4.996   4.837   2.489 -0.9262  0.3340  0.9938
 3418TIP3    H210216   5.078   4.875   2.611  0.6289 -1.4134  0.5181
 3419TIP3   OH210217   3.464   4.947   4.427  0.6410  0.0769 -0.2164
 3419TIP3    H110218   3.460   4.894   4.506  0.3507 -1.5063 -1.2717
 3419TIP3    H210219   3.373   4.953   4.398  0.6717  1.1527 -0.1106
 3420TIP3   OH210220   3.566   3.297   0.440 -0.0187  0.6042 -0.1275
 3420TIP3    H110221   3.481   3.282   0.399  0.1208 -0.0384 -0.1833
 3420TIP3    H210222   3.558   3.260   0.528  1.2606 -2.4940 -1.2511
 3421TIP3   OH210223   6.263   4.475   2.469  0.1715 -0.1822 -0.1442
 3421TIP3    H110224   6.258   4.384   2.500 -0.8295 -0.0674  0.0591
 3421TIP3    H210225   6.172   4.503   2.462  0.4736  1.2351  1.0952
 3422TIP3   OH210226   3.326   5.538   4.313 -0.0170 -0.8887  0.7303
 3422TIP3    H110227   3.267   5.487   4.258 -1.3507  0.3701  0.9486
 3422TIP3    H210228   3.303   5.514   4.403 -0.6443  0.0440  0.8345
 3423TIP3   OH210229   4.381   3.900   2.749  0.5579 -0.0645  0.0126
 3423TIP3    H110230   4.294   3.933   2.729  0.1216  0.2210  2.2593
 3423TIP3    H210231   4.402   3.841   2.677 -1.0978  0.6029 -1.0228
 3424TIP3   OH210232   2.616   4.598   3.382  0.4216  0.0362 -0.3817
 3424TIP3    H110233   2.522   4.614   3.394  0.3664  0.1586 -0.9461
 3424TIP3    H210234   2.630   4.608   3.288  1.0164  0.0900 -0.2900
 3425TIP3   OH210235   5.480   5.843   3.116  0.1514  0.0752  0.5243
 3425TIP3    H110236   5.502   5.762   3.162  0.4097  0.4884  1.1386
 3425TIP3    H210237   5.385   5.848   3.123  0.1394 -0.1404  0.5385
 3426TIP3   OH210238   5.470   5.702   1.279 -0.1961  0.7006 -0.0047
 3426TIP3    H110239   5.535   5.656   1.332 -0.6162  0.3950  0.2518
 3426TIP3    H210240   5.520   5.745   1.210  0.2611  0.3665  0.1215
 3427TIP3   OH210241   2.759   3.337   3.341 -0.0526  0.1524  0.0712
 3427TIP3    H110242   2.795   3.264   3.390 -1.5779 -1.8867 -1.7837
 3427TIP3    H210243   2.836   3.382   3.305  0.8481 -1.0572  0.4562
 3428TIP3   OH210244   3.188   5.999   1.252 -0.5437  0.5327 -0.1883
 3428TIP3    H110245   3.157   6.082   1.288 -2.5738  0.2661 -1.2291
 3428TIP3    H210246   3.121   5.936   1.276  0.9897 -0.8149  0.5887
 3429TIP3   OH210247   4.824   5.191   3.041  0.0724 -0.0041  0.0783
 3429TIP3    H110248   4.852   5.212   2.952 -3.0642  1.2098 -0.6725
 3429TIP3    H210249   4.876   5.250   3.096  1.6367 -0.3776 -0.9609
 3430TIP3   OH210250   1.888   5.474   1.444 -0.5700 -0.5122  0.7376
 3430TIP3    H110251   1.902   5.472   1.538 -0.6861 -0.9470  0.7449
 3430TIP3    H210252   1.951   5.411   1.409 -0.6383 -0.4705  0.5386
 3431TIP3   OH210253   3.825   2.125   1.065 -0.3325 -0.1891 -0.3040
 3431TIP3    H110254   3.823   2.189   1.136  0.2397 -0.1072 -0.3603
 3431TIP3    H210255   3.911   2.136   1.025 -1.4412  1.2416 -2.3924
 3432TIP3   OH210256   4.945   4.511   3.232  0.4353 -0.4863  0.0338
 3432TIP3    H110257   4.867   4.564   3.214 -0.2775 -1.3918  0.4259
 3432TIP3    H210258   4.919   4.454   3.304  1.5875 -0.5357  0.4164
 3433TIP3   OH210259   2.230   3.735   2.602 -0.4475  0.0864 -0.1697
 3433TIP3    H110260   2.311   3.685   2.594 -0.7822 -0.8086  1.7303
 3433TIP3    H210261   2.255   3.816   2.647 -0.4892  0.1257 -0.2164
 3434TIP3   OH210262   1.433   0.034   6.153 -0.1717 -0.3504  1.0631
 3434TIP3    H110263   1.509   0.034   6.211  0.0507 -1.2390  0.7752
 3434TIP3    H210264   1.404   0.125   6.151  1.9467  0.3300 -0.2144
 3435TIP3   OH210265   4.676   4.207   0.426 -0.5272 -0.4877 -0.3169
 3435TIP3    H110266   4.652   4.155   0.503  2.2936 -2.6633 -0.8417
 3435TIP3    H210267   4.693   4.295   0.462 -0.0126 -1.2778  1.4253
 3436TIP3   OH210268   3.735   4.405   2.432  0.6121  0.9780 -0.3680
 3436TIP3    H110269   3.802   4.459   2.391 -0.9771  1.6969 -2.0445
 3436TIP3    H210270   3.773   4.317   2.431  2.4009  1.7060  0.6334
 3437TIP3   OH210271   2.025  -0.023   5.878 -0.0386 -0.1151  0.0589
 3437TIP3    H110272   1.933   0.001   5.877 -0.2058 -0.4960  2.5832
 3437TIP3    H210273   2.066   0.042   5.935  0.5520 -2.1738  2.0520
 3438TIP3   OH210274   3.753   4.132   4.616 -0.0424 -0.0435 -0.3602
 3438TIP3    H110275   3.746   4.218   4.575 -0.5711  0.4764  0.8181
 3438TIP3    H210276   3.761   4.150   4.710 -0.4070 -1.2911 -0.0803
 3439TIP3   OH210277   4.068   3.954   1.593 -0.3670  0.0733 -0.0054
 3439TIP3    H110278   4.052   4.019   1.661  0.2198  1.4098 -1.1188
 3439TIP3    H210279   4.077   3.871   1.640  2.3018  1.3041  1.7428
 3440TIP3   OH210280   2.431   4.271   2.410  0.2444  0.2008 -0.1056
 3440TIP3    H110281   2.381   4.336   2.361 -1.9096  0.1216  1.8386
 3440TIP3    H210282   2.414   4.188   2.365 -0.3672  0.3716 -0.1941
 3441TIP3   OH210283   4.535   0.651   1.165 -0.0114  0.1875  0.5709
 3441TIP3    H110284   4.507   0.566   1.132 -0.2712  0.3258  0.4399
 3441TIP3    H210285   4.627   0.658   1.138  0.0893 -0.1686  0.8176
 3442TIP3   OH210286   3.869   5.314   1.740  0.0426 -0.0163  0.6348
 3442TIP3    H110287   3.830   5.370   1.673  0.7397 -0.0037  0.2355
 3442TIP3    H210288   3.803   5.247   1.757 -0.7719  0.8771  1.0680
 3443TIP3   OH210289   1.797   4.135   2.516 -0.2304 -0.2452 -0.1962
 3443TIP3    H110290   1.877   4.106   2.560 -1.4929 -0.8207  1.7548
 3443TIP3    H210291   1.819   4.223   2.483  1.0642 -0.2082  0.7159
 3444TIP3   OH210292   0.633   3.464   3.729 -0.2506  0.1427 -0.1215
 3444TIP3    H110293   0.562   3.519   3.763 -0.9556 -1.6958  1.4342
 3444TIP3    H210294   0.702   3.471   3.794 -0.6041 -1.3484  0.4248
 3445TIP3   OH210295   4.788   4.065   3.182 -0.3351  0.0396 -0.5311
 3445TIP3    H110296   4.865   4.067   3.125 -0.3630  2.7552 -0.5443
 3445TIP3    H210297   4.722   4.016   3.132  0.5527 -0.0586 -1.6119
 3446TIP3   OH210298   4.260   5.771   2.311 -0.1345  0.3827 -0.2768
 3446TIP3    H110299   4.256   5.858   2.353 -0.4866 -0.7984  2.2297
 3446TIP3    H210300   4.179   5.765   2.261 -0.0889  1.5231 -0.5028
 3447TIP3   OH210301   4.545   3.603   1.211 -0.0517 -0.0344 -0.9213
 3447TIP3    H110302   4.513   3.658   1.282  0.4603  0.0671 -0.7657
 3447TIP3    H210303   4.640   3.610   1.216  0.0345 -1.1893 -0.6929
 3448TIP3   OH210304   3.726   2.675   2.932  0.0239  0.2460  0.2290
 3448TIP3    H110305   3.733   2.590   2.975  0.7393 -1.0199 -2.3062
 3448TIP3    H210306   3.718   2.655   2.839  0.0383  2.9541 -0.4100
 3449TIP3   OH210307   3.159   3.735   1.231  0.0134 -0.0081 -0.0380
 3449TIP3    H110308   3.169   3.649   1.192  1.4687  0.3069 -0.3961
 3449TIP3    H210309   3.065   3.745   1.244 -0.3462 -0.7902 -1.9250
 3450TIP3   OH210310   1.562   4.468   3.179 -0.0384  0.0556 -0.2449
 3450TIP3    H110311   1.624   4.402   3.148  1.0271  0.7716  0.3233
 3450TIP3    H210312   1.569   4.465   3.274 -2.0319 -0.9395 -0.0992
 3451TIP3   OH210313   3.029   4.915   4.075  0.7047 -0.1382  0.6283
 3451TIP3    H110314   2.992   4.831   4.104  2.1496 -1.8332 -2.1463
 3451TIP3    H210315   3.118   4.915   4.110  0.6934  0.2235  0.6527
 3452TIP3   OH210316   3.127   7.176   4.227 -0.5694 -0.0905  0.3216
 3452TIP3    H110317   3.140   7.211   4.315 -0.8038  1.6920 -0.3413
 3452TIP3    H210318   3.212   7.187   4.184 -1.0030  0.8461 -0.3000
 3453TIP3   OH210319   6.227   3.961   1.178  0.2161  0.1358 -0.2799
 3453TIP3    H110320   6.139   3.996   1.164  1.4194  2.1158 -3.5354
 3453TIP3    H210321   6.265   4.016   1.247 -0.1962  0.9667 -0.7187
 3454TIP3   OH210322   3.168   5.485   3.932 -0.1565  0.5072 -0.2623
 3454TIP3    H110323   3.160   5.389   3.924 -1.5131  0.7377 -1.9854
 3454TIP3    H210324   3.114   5.507   4.008  1.3482 -0.2293  1.0564
 3455TIP3   OH210325   3.189   3.778   1.671  0.3186  0.9249 -0.0569
 3455TIP3    H110326   3.139   3.855   1.697 -2.4354 -0.2738 -1.5651
 3455TIP3    H210327   3.144   3.704   1.712  2.1161 -0.0224  0.2745
 3456TIP3   OH210328   1.106   1.511   6.196  0.1702 -0.3002  0.1147
 3456TIP3    H110329   1.160   1.546   6.267 -1.1175  1.0197  0.4732
 3456TIP3    H210330   1.118   1.573   6.124  0.6486 -1.0728 -0.4904
 3457TIP3   OH210331   3.387   3.393   0.784 -0.2582 -0.0478  0.1021
 3457TIP3    H110332   3.339   3.472   0.809 -1.1585 -0.7134  0.5012
 3457TIP3    H210333   3.358   3.374   0.695 -0.1981 -0.0487  0.0825
 3458TIP3   OH210334   5.190   4.570   2.612  0.6288 -0.0166  0.2232
 3458TIP3    H110335   5.277   4.606   2.628  0.6120  1.3268 -2.4620
 3458TIP3    H210336   5.135   4.646   2.593 -0.4734 -1.0789 -0.9528
 3459TIP3   OH210337   3.355   4.167   1.974  0.1637  0.0601 -0.3720
 3459TIP3    H110338   3.373   4.085   1.927  2.2602 -0.0915  0.6107
 3459TIP3    H210339   3.351   4.234   1.905  1.1336 -0.4780 -0.9683
 3460TIP3   OH210340   5.208   4.466   2.349 -0.1692  0.4591  0.2098
 3460TIP3    H110341   5.133   4.409   2.333  0.2293 -0.2683  0.8947
 3460TIP3    H210342   5.191   4.503   2.436  0.1337  0.4955  0.2532
 3461TIP3   OH210343   4.908   3.293   2.113 -0.6301 -0.0034 -0.7945
 3461TIP3    H110344   4.941   3.284   2.203 -2.4424  0.4041 -0.0657
 3461TIP3    H210345   4.976   3.342   2.067 -0.8212  2.0829  1.0480
 3462TIP3   OH210346   4.103   2.737   1.215  0.3920 -0.0004  0.2955
 3462TIP3    H110347   4.139   2.678   1.149  2.7983  0.0681  1.4619
 3462TIP3    H210348   4.015   2.705   1.232 -0.2969  0.0208 -2.9554
 3463TIP3   OH210349   4.313   4.260   1.806 -0.0368 -0.4901 -0.4193
 3463TIP3    H110350   4.321   4.243   1.900 -1.3494  0.4132 -0.1363
 3463TIP3    H210351   4.382   4.207   1.767  0.8086 -0.5434  1.0890
 3464TIP3   OH210352   3.721   2.908   2.183 -0.1229  0.1055  0.0135
 3464TIP3    H110353   3.813   2.887   2.171 -0.2044  0.4944 -1.3123
 3464TIP3    H210354   3.674   2.841   2.132 -0.5432  0.5439 -0.1770
 3465TIP3   OH210355   5.046   4.879   1.939  0.3553  0.3867  0.1543
 3465TIP3    H110356   4.963   4.925   1.951 -0.7655 -1.9365  1.7417
 3465TIP3    H210357   5.094   4.932   1.875 -2.9491  1.0150 -1.9348
 3466TIP3   OH210358   2.380   4.941   4.618 -0.3927 -1.0031  0.3555
 3466TIP3    H110359   2.348   4.851   4.626 -1.7490 -0.5153  0.5950
 3466TIP3    H210360   2.326   4.980   4.550  0.2064 -0.3688  0.2328
 3467TIP3   OH210361   3.968   3.631   1.701  0.2574 -0.4646 -0.2252
 3467TIP3    H110362   3.874   3.614   1.706  0.2410 -0.6892 -1.2584
 3467TIP3    H210363   4.004   3.559   1.649  0.7254  0.5938 -1.3954
 3468TIP3   OH210364   2.823   4.554   3.770 -0.1514 -0.4965  0.6869
 3468TIP3    H110365   2.888   4.619   3.796 -0.3508 -0.1663  0.3672
 3468TIP3    H210366   2.873   4.473   3.757  0.6473  0.4270 -2.3466
 3469TIP3   OH210367   3.902   2.371   0.511 -0.8934 -0.1754 -0.0401
 3469TIP3    H110368   3.936   2.282   0.502 -0.6060  0.0279 -0.9797
 3469TIP3    H210369   3.979   2.426   0.499 -0.5060  0.1519  3.2501
 3470TIP3   OH210370   3.524   3.200   2.867  0.7951 -0.7174  0.0052
 3470TIP3    H110371   3.574   3.121   2.889  0.3589 -0.9783  0.0825
 3470TIP3    H210372   3.480   3.223   2.949  1.3295 -0.0907  0.1151
 3471TIP3   OH210373   5.191   6.296   6.015  0.0696 -0.0676  0.4202
 3471TIP3    H110374   5.250   6.256   6.079  0.0760  1.1550  1.1798
 3471TIP3    H210375   5.249   6.339   5.952  0.0008  1.8110  1.6039
 3472TIP3   OH210376   3.277   3.343   2.325  0.2103 -0.8607  0.7440
 3472TIP3    H110377   3.296   3.397   2.249  0.4264 -0.2457  1.2376
 3472TIP3    H210378   3.309   3.393   2.400 -0.0389 -1.4413  1.2481
 3473TIP3   OH210379   2.412   4.391   3.998 -0.5662  0.0001 -0.1408
 3473TIP3    H110380   2.401   4.424   3.909  2.4625  1.4677 -0.0122
 3473TIP3    H210381   2.493   4.341   3.996 -0.4307  0.0811  1.8032
 3474TIP3   OH210382   5.054   3.706   1.231  0.4462  0.3641  0.6083
 3474TIP3    H110383   5.138   3.677   1.196 -0.2199  0.7476 -1.4033
 3474TIP3    H210384   5.052   3.800   1.214  0.5879  0.7799  2.7791
 3475TIP3   OH210385   3.897   4.890   2.794 -0.0692 -1.0001 -0.8955
 3475TIP3    H110386   3.892   4.915   2.886 -1.9890  1.1339 -1.5336
 3475TIP3    H210387   3.845   4.810   2.788 -0.5859 -0.7152 -0.2617
 3476TIP3   OH210388   2.526   3.088   0.323 -0.7645 -0.0373  0.1987
 3476TIP3    H110389   2.446   3.055   0.364 -1.5824  1.2913 -0.2750
 3476TIP3    H210390   2.593   3.081   0.390 -1.6905  0.5024  1.1907
 3477TIP3   OH210391   5.044   2.425   1.486 -0.5484  0.2053  0.5539
 3477TIP3    H110392   5.129   2.435   1.530 -0.4193  1.1216  0.1069
 3477TIP3    H210393   4.980   2.429   1.557 -0.2425 -0.1753  0.8589
 3478TIP3   OH210394   2.395   4.686   0.560  0.1286  0.1791 -0.6671
 3478TIP3    H110395   2.462   4.656   0.621 -0.8361 -0.5530  0.0327
 3478TIP3    H210396   2.398   4.622   0.488  0.6151  0.5122 -0.9495
 3479TIP3   OH210397   5.493   6.589   3.069  0.4386 -0.4325  0.1106
 3479TIP3    H110398   5.433   6.592   2.995  1.6030  1.1149 -0.7853
 3479TIP3    H210399   5.580   6.580   3.030  1.2844  2.6108  1.1398
 3480TIP3   OH210400   3.887   4.938   2.240 -0.0910  0.2809 -0.3326
 3480TIP3    H110401   3.848   5.008   2.187 -1.6988 -0.6540 -0.4068
 3480TIP3    H210402   3.870   4.964   2.330  0.3994  0.5914 -0.3257
 3481TIP3   OH210403   4.292   2.139   2.363 -0.1270 -0.6644 -0.5191
 3481TIP3    H110404   4.234   2.067   2.388 -1.0193 -0.0880 -0.9207
 3481TIP3    H210405   4.356   2.144   2.435 -0.3602 -1.5175 -0.2442
 3482TIP3   OH210406   2.067   2.079   2.065  0.2748  0.2939 -0.3216
 3482TIP3    H110407   2.050   2.029   1.986  1.5796  1.6467 -1.5027
 3482TIP3    H210408   2.162   2.087   2.068  0.2345  0.2098  1.4206
 3483TIP3   OH210409   3.599   4.818   1.776  0.8040  0.0156 -0.1459
 3483TIP3    H110410   3.609   4.906   1.812  0.2246  0.2184 -0.4679
 3483TIP3    H210411   3.553   4.769   1.844 -3.0476  1.2110 -1.7239
 3484TIP3   OH210412   3.541   6.437   1.974 -0.4254  0.2011 -0.1416
 3484TIP3    H110413   3.567   6.506   2.035  1.8756 -2.8201  2.4593
 3484TIP3    H210414   3.586   6.458   1.892  1.0256  1.2283  0.9104
 3485TIP3   OH210415   4.646   5.447   3.708 -0.5575  0.8657 -0.3526
 3485TIP3    H110416   4.690   5.396   3.641 -1.1120 -0.6922  0.4455
 3485TIP3    H210417   4.703   5.522   3.723  0.4527  0.2858 -1.2654
 3486TIP3   OH210418   2.616   4.136   3.702 -0.2573  0.5138 -0.1348
 3486TIP3    H110419   2.613   4.189   3.782  1.9449 -0.8178  0.8773
 3486TIP3    H210420   2.524   4.122   3.680 -0.8980  3.5090  0.3857
 3487TIP3   OH210421   4.733   5.839   2.189 -0.7879  0.3813  0.2899
 3487TIP3    H110422   4.742   5.761   2.244 -0.8323  0.3536  0.2584
 3487TIP3    H210423   4.737   5.806   2.099 -0.3538  0.4661  0.2783
 3488TIP3   OH210424   3.271   1.966   1.672 -0.6694 -0.4707  0.3619
 3488TIP3    H110425   3.204   1.926   1.616 -1.1781 -1.0886  1.4028
 3488TIP3    H210426   3.351   1.917   1.652 -0.7098 -0.2859 -0.2666
 3489TIP3   OH210427   3.526   3.408   3.576 -0.3185 -0.2425 -0.4594
 3489TIP3    H110428   3.516   3.331   3.521 -1.4615  0.4611 -1.2460
 3489TIP3    H210429   3.600   3.387   3.633  0.4733 -1.2379 -1.8205
 3490TIP3   OH210430   4.838   2.799   0.864 -0.7487 -0.0732  0.3462
 3490TIP3    H110431   4.746   2.792   0.840 -0.4418 -0.4777 -0.7546
 3490TIP3    H210432   4.885   2.765   0.788  0.2683 -1.1742  1.4614
 3491TIP3   OH210433   2.799   5.253   2.030  0.1681 -0.3856 -0.3435
 3491TIP3    H110434   2.782   5.301   2.111 -0.1294 -0.3667 -0.4174
 3491TIP3    H210435   2.798   5.320   1.962 -0.6895 -0.5528 -0.5048
 3492TIP3   OH210436   3.194   4.997   3.667 -0.3968 -0.3376 -0.0395
 3492TIP3    H110437   3.229   5.069   3.613  0.2587 -1.7465 -1.5399
 3492TIP3    H210438   3.266   4.973   3.724 -0.2341 -0.5432 -0.3264
 3493TIP3   OH210439   3.744   3.806   1.180 -0.2397  0.3159  0.6086
 3493TIP3    H110440   3.722   3.859   1.104  0.8118  0.5106  0.4315
 3493TIP3    H210441   3.661   3.769   1.209 -0.9760  1.9645  0.6568
 3494TIP3   OH210442   4.805   5.247   1.499 -0.6013 -0.1278 -0.1394
 3494TIP3    H110443   4.856   5.283   1.572 -0.9087 -0.2447  0.1363
 3494TIP3    H210444   4.869   5.232   1.430  0.0691 -1.9962  0.8393
 3495TIP3   OH210445   4.825   6.459   2.334 -0.2384  0.3644  0.1673
 3495TIP3    H110446   4.872   6.458   2.251  0.3793 -0.1280  0.5239
 3495TIP3    H210447   4.742   6.414   2.315  0.6775 -1.4092  0.2681
 3496TIP3   OH210448   4.902   5.277   1.015 -0.3573  0.4153 -0.4149
 3496TIP3    H110449   4.854   5.337   1.072 -1.1412 -0.7794  0.2112
 3496TIP3    H210450   4.843   5.263   0.940 -1.1972 -1.3940  0.5630
 3497TIP3   OH210451   0.509   0.077   3.940  0.1126  0.1081 -0.1198
 3497TIP3    H110452   0.586   0.040   3.897  0.3965 -0.9081  1.2132
 3497TIP3    H210453   0.440   0.012   3.927 -0.5457  1.0467 -1.3676
 3498TIP3   OH210454   5.351   3.844   1.657 -0.0757  0.3815  0.3202
 3498TIP3    H110455   5.291   3.913   1.630  1.1164  1.7966  1.2058
 3498TIP3    H210456   5.405   3.829   1.579  1.0992  2.0270  0.7876
 3499TIP3   OH210457   1.481   3.438   1.646 -0.0896  0.5418 -0.2432
 3499TIP3    H110458   1.538   3.372   1.685  0.7446  0.7347 -1.1139
 3499TIP3    H210459   1.540   3.501   1.606 -0.8990  1.2372 -0.3768
 3500TIP3   OH210460   1.331   2.789   1.479 -0.1454  0.6286  0.4246
 3500TIP3    H110461   1.381   2.814   1.401 -0.2971  0.6701  0.3413
 3500TIP3    H210462   1.297   2.702   1.459 -1.7667  1.4149 -0.3127
 3501TIP3   OH210463   3.939   5.591   3.028  0.5314  0.8393  0.5798
 3501TIP3    H110464   3.915   5.531   2.957  1.1797 -0.4351  1.4195
 3501TIP3    H210465   4.035   5.586   3.033  0.6815  2.6700  0.0473
 3502TIP3   OH210466   2.468   4.634   2.413 -0.0126 -0.0151 -0.0084
 3502TIP3    H110467   2.526   4.679   2.474  0.6644  1.7513 -1.8988
 3502TIP3    H210468   2.398   4.598   2.468  2.2447 -1.2376  2.1772
 3503TIP3   OH210469   5.104   5.328   1.922  0.0969 -0.5511 -0.2845
 3503TIP3    H110470   5.134   5.317   2.012  0.5607  0.2463 -0.3328
 3503TIP3    H210471   5.181   5.308   1.868  0.3547  0.7802 -0.4340
 3504TIP3   OH210472   4.548   5.325   0.923 -0.4756 -0.2493  0.1608
 3504TIP3    H110473   4.589   5.297   1.005 -0.3942 -1.1223 -0.1771
 3504TIP3    H210474   4.481   5.388   0.950  2.4519  2.8376  0.5971
 3505TIP3   OH210475   4.225   5.601   1.538  0.0665  0.5794  0.1252
 3505TIP3    H110476   4.183   5.686   1.553 -0.7091  0.0466  1.0365
 3505TIP3    H210477   4.158   5.537   1.561  0.3810 -0.2919 -1.3163
 3506TIP3   OH210478   3.626   1.815   6.358 -0.3543  0.3114 -0.2025
 3506TIP3    H110479   3.695   1.834   6.421 -1.1634 -0.5400  0.9561
 3506TIP3    H210480   3.603   1.900   6.321  0.7039  0.7049  0.0425
 3507TIP3   OH210481   3.835   2.970   3.423 -0.2787  0.3854 -0.5733
 3507TIP3    H110482   3.917   2.944   3.380 -0.2368 -0.5224  0.0457
 3507TIP3    H210483   3.860   2.984   3.515 -0.5012  1.6765 -0.7021
 3508TIP3   OH210484   2.019   0.859   6.240 -0.4238  0.1695 -1.0244
 3508TIP3    H110485   2.113   0.873   6.251 -0.5917  0.1885  0.5524
 3508TIP3    H210486   2.001   0.884   6.150  0.9412  0.9950 -1.0784
 3509TIP3   OH210487   2.912   5.124   2.730 -0.3502  0.1942  0.5422
 3509TIP3    H110488   2.957   5.201   2.765 -0.3986  0.4723  0.0078
 3509TIP3    H210489   2.876   5.080   2.806  0.3718  0.2596  0.9280
 3510TIP3   OH210490   3.065   5.455   0.395  0.1717 -0.2147 -0.4308
 3510TIP3    H110491   3.061   5.482   0.486  1.8344 -0.5094 -0.2706
 3510TIP3    H210492   3.145   5.404   0.388  0.7950  0.9814 -2.3774
 3511TIP3   OH210493   3.075   3.592   1.838 -0.3710  0.1941  0.8269
 3511TIP3    H110494   3.099   3.646   1.913  1.0324 -1.0639  1.3108
 3511TIP3    H210495   3.006   3.534   1.871  0.6512 -0.7550  1.3238
 3512TIP3   OH210496   4.440   4.415   2.353  0.5862  0.3571 -0.1636
 3512TIP3    H110497   4.431   4.508   2.373  1.0427  0.2771  0.4236
 3512TIP3    H210498   4.534   4.402   2.341  0.4200  0.1944 -1.3882
 3513TIP3   OH210499   2.696   5.005   2.040  0.4727 -0.1039 -0.7851
 3513TIP3    H110500   2.737   5.091   2.030  0.8859  0.0642  2.0411
 3513TIP3    H210501   2.605   5.024   2.065  0.6483 -0.4689  0.1564
 3514TIP3   OH210502   4.821   2.230   0.630 -0.3254  0.4574 -0.2398
 3514TIP3    H110503   4.861   2.233   0.543 -0.5145  1.3531 -0.2984
 3514TIP3    H210504   4.863   2.300   0.679  0.1522 -0.3790  0.5628
 3515TIP3   OH210505   7.609   2.360   5.902 -0.1490 -0.3372  0.0330
 3515TIP3    H110506   7.546   2.378   5.832  1.5672  0.0707 -1.4502
 3515TIP3    H210507   7.641   2.272   5.882  1.0625  0.1687 -0.2640
 3516TIP3   OH210508   1.656   3.091   2.702 -0.4389 -0.2441 -0.2027
 3516TIP3    H110509   1.717   3.085   2.628 -1.0956 -1.6732 -0.6570
 3516TIP3    H210510   1.572   3.114   2.662 -0.4646  0.5399  0.2873
 3517TIP3   OH210511   5.164   2.763   2.571  0.1475 -0.1611  0.0164
 3517TIP3    H110512   5.259   2.757   2.560  0.4542  3.7581 -0.0006
 3517TIP3    H210513   5.134   2.812   2.495 -2.0242 -1.8583 -0.2789
 3518TIP3   OH210514   3.877   5.201   2.160 -0.2083 -0.2444 -0.3109
 3518TIP3    H110515   3.967   5.235   2.156  0.0282 -0.5317  2.0022
 3518TIP3    H210516   3.824   5.271   2.122  1.0257 -0.2349 -2.0866
 3519TIP3   OH210517   0.410   0.750   6.212 -0.3495 -0.0126  0.0882
 3519TIP3    H110518   0.430   0.709   6.296  0.5854  0.5195  0.1229
 3519TIP3    H210519   0.435   0.842   6.223  1.4181 -0.2927 -1.3287
 3520TIP3   OH210520   4.007   4.538   2.640  0.5169 -0.0186  0.2642
 3520TIP3    H110521   3.952   4.553   2.563  0.8061  0.5228  0.1589
 3520TIP3    H210522   4.039   4.625   2.663  0.6773 -0.2246  0.8115
 3521TIP3   OH210523   4.966   4.943   2.988  0.6613 -0.5216  0.2098
 3521TIP3    H110524   4.903   4.891   3.037  0.8106  0.0034  0.9621
 3521TIP3    H210525   4.919   5.023   2.965  1.3027  0.2475  1.5134
 3522TIP3   OH210526   3.556   5.700   2.057  0.3221  0.0233 -0.7782
 3522TIP3    H110527   3.522   5.784   2.090 -1.4314 -1.3426  0.9633
 3522TIP3    H210528   3.524   5.695   1.968  1.5864  1.8193 -1.3798
 3523TIP3   OH210529   2.881   1.472   0.892  0.6687  0.2701  0.3821
 3523TIP3    H110530   2.887   1.566   0.907  1.1125  0.5197 -1.3425
 3523TIP3    H210531   2.817   1.463   0.822  0.5859 -0.7220  0.5807
 3524TIP3   OH210532   2.401   3.014   4.383  0.3146  0.0061 -0.0811
 3524TIP3    H110533   2.424   2.937   4.435 -1.2975 -1.2861 -1.2014
 3524TIP3    H210534   2.431   2.992   4.294  0.3250  0.9068 -0.3027
 3525TIP3   OH210535   4.962   6.520   1.356  0.2507  0.1171  0.0869
 3525TIP3    H110536   4.997   6.450   1.412 -0.6424  0.4927  1.1442
 3525TIP3    H210537   5.039   6.566   1.324  0.7583  0.3296  1.5776
 3526TIP3   OH210538   2.995   3.108   3.247  0.1463 -0.1308  0.7067
 3526TIP3    H110539   2.932   3.101   3.319  1.4158  0.6142  1.9013
 3526TIP3    H210540   2.949   3.070   3.172 -1.8906  0.7972  1.4459
 3527TIP3   OH210541   2.042   3.167   2.892  0.3511 -0.7206 -0.6390
 3527TIP3    H110542   1.991   3.240   2.926  2.2195  0.5374 -0.4312
 3527TIP3    H210543   2.125   3.207   2.863  0.8889 -2.5568 -1.7418
 3528TIP3   OH210544   3.886   4.819   1.740 -0.1147  0.7063 -0.3983
 3528TIP3    H110545   3.872   4.829   1.646  0.2649  1.2928 -0.3972
 3528TIP3    H210546   3.798   4.807   1.776 -0.2040 -0.1125 -0.8939
 3529TIP3   OH210547   2.289   3.892   3.300 -0.1554  0.2434  0.2898
 3529TIP3    H110548   2.322   3.890   3.209 -0.7294  0.1283  0.0848
 3529TIP3    H210549   2.217   3.830   3.301  0.6245 -0.6694  1.1402
 3530TIP3   OH210550   5.832   0.415   2.940 -0.1850 -0.4099 -0.4969
 3530TIP3    H110551   5.834   0.340   2.882 -1.4505 -1.1839  0.4346
 3530TIP3    H210552   5.893   0.393   3.010 -1.1993 -0.9493  0.2229
 3531TIP3   OH210553   4.130   4.761   2.730 -0.1894 -0.2832 -0.0738
 3531TIP3    H110554   4.046   4.802   2.749 -0.2049 -0.9420  1.3170
 3531TIP3    H210555   4.190   4.797   2.796  0.7126  0.4032 -1.2203
 3532TIP3   OH210556   6.962   0.828   3.406  0.4737  0.5145 -0.5232
 3532TIP3    H110557   7.008   0.832   3.322  0.3194 -0.2051 -0.6430
 3532TIP3    H210558   6.928   0.739   3.411  1.9266  0.0322  1.0957
 3533TIP3   OH210559   2.390   6.046   1.996 -0.0510 -0.1747  0.0406
 3533TIP3    H110560   2.319   6.053   1.933 -0.2744  0.4868  0.3605
 3533TIP3    H210561   2.351   6.004   2.072  0.0439 -0.3297  0.0042
 3534TIP3   OH210562   5.797   5.327   6.148 -0.2271 -0.6369  0.9102
 3534TIP3    H110563   5.857   5.313   6.074  0.6390  1.8833  1.1167
 3534TIP3    H210564   5.710   5.307   6.112  0.3568 -0.9800 -0.3471
 3535TIP3   OH210565   4.695   4.333   3.016 -0.2193 -0.2917  0.0609
 3535TIP3    H110566   4.697   4.271   3.089 -0.9065 -1.2865 -0.7660
 3535TIP3    H210567   4.637   4.403   3.045 -1.3270 -1.2029  0.0602
 3536TIP3   OH210568   3.837   5.588   1.577  0.2995 -0.5556 -0.0017
 3536TIP3    H110569   3.901   5.534   1.531 -0.4667 -1.7680  0.3241
 3536TIP3    H210570   3.846   5.675   1.538  1.4182 -0.9561 -0.6660
 3537TIP3   OH210571   5.939   4.561   1.946 -0.7333 -0.2321  0.6713
 3537TIP3    H110572   5.911   4.544   2.036 -0.1235 -1.8103  0.5733
 3537TIP3    H210573   5.893   4.642   1.922 -0.0617  0.7937  2.7536
 3538TIP3   OH210574   3.924   6.397   2.394 -0.2151 -0.1443 -0.3631
 3538TIP3    H110575   3.963   6.330   2.339  0.5196 -0.3413  0.3940
 3538TIP3    H210576   3.929   6.362   2.483  3.0315  2.2090  0.4743
 3539TIP3   OH210577   3.232   2.705   1.845 -0.1848  0.4725  0.1188
 3539TIP3    H110578   3.217   2.611   1.853  2.3213  0.0948  0.7070
 3539TIP3    H210579   3.284   2.728   1.921 -0.5672  2.3177 -0.1391
 3540TIP3   OH210580   5.458   4.502   1.870 -1.1979 -0.5186  0.1063
 3540TIP3    H110581   5.433   4.528   1.781 -1.3212  0.4878  0.4389
 3540TIP3    H210582   5.543   4.459   1.859 -0.4632  0.9918 -0.2997
 3541TIP3   OH210583   4.559   3.974   0.301  0.2487 -0.5010  0.0432
 3541TIP3    H110584   4.543   4.042   0.235 -0.7835 -1.9577 -1.2459
 3541TIP3    H210585   4.594   4.022   0.377 -2.2625  1.7351 -0.1255
 3542TIP3   OH210586   5.730   3.640   2.388 -0.0762 -0.2347 -0.5449
 3542TIP3    H110587   5.780   3.612   2.465  0.2024 -0.2622 -0.7314
 3542TIP3    H210588   5.639   3.642   2.417 -0.1591 -1.7718 -0.6503
 3543TIP3   OH210589   3.024   4.799   2.894 -0.4346  0.5753  0.3980
 3543TIP3    H110590   3.091   4.766   2.954 -1.1850  0.1401  1.0075
 3543TIP3    H210591   3.069   4.862   2.839  0.4880  0.2426  0.7749
 3544TIP3   OH210592   2.366   5.982   3.138 -0.3173 -0.0708 -0.7109
 3544TIP3    H110593   2.406   5.989   3.225 -0.6127  0.0507 -0.5846
 3544TIP3    H210594   2.282   6.026   3.147  0.0597  0.7810 -1.3247
 3545TIP3   OH210595   2.007   3.316   3.687 -0.3922 -0.3593 -0.0941
 3545TIP3    H110596   2.080   3.372   3.714 -0.5517 -0.2448  0.0949
 3545TIP3    H210597   2.049   3.237   3.653 -0.1913 -0.4594  0.3895
 3546TIP3   OH210598   7.349   3.206   6.105 -0.2882  0.1594 -0.0885
 3546TIP3    H110599   7.319   3.230   6.193 -0.5155 -0.6360  0.0521
 3546TIP3    H210600   7.411   3.275   6.082 -1.3704  1.2025  0.0744
 3547TIP3   OH210601   3.975   2.425   0.869 -0.0389 -0.2435  0.0183
 3547TIP3    H110602   3.941   2.344   0.832 -1.4228  0.3377  0.0042
 3547TIP3    H210603   3.898   2.480   0.881  1.0669  1.6958 -1.5180
 3548TIP3   OH210604   4.439   4.848   4.641 -0.3083 -0.2358 -0.1208
 3548TIP3    H110605   4.474   4.921   4.590 -1.4986  0.3725 -0.0884
 3548TIP3    H210606   4.455   4.873   4.732 -0.0905 -0.3427 -0.1288
 3549TIP3   OH210607   3.624   4.028   2.332 -0.6140 -0.1786  0.1053
 3549TIP3    H110608   3.667   4.092   2.388 -0.5528 -0.0586 -0.0795
 3549TIP3    H210609   3.530   4.047   2.342 -0.5346  0.8565 -1.0442
 3550TIP3   OH210610   5.021   2.433   3.147 -0.2023 -0.2551 -0.5826
 3550TIP3    H110611   5.101   2.391   3.116 -0.0047 -0.4038  0.1138
 3550TIP3    H210612   5.000   2.386   3.228 -1.0268 -0.2547 -0.7928
 3551TIP3   OH210613   4.508   4.582   4.793  0.0433  0.0797 -0.2437
 3551TIP3    H110614   4.426   4.605   4.749 -0.3191  1.3563  1.0463
 3551TIP3    H210615   4.481   4.526   4.865  0.1578  1.3483  0.8140
 3552TIP3   OH210616   3.613   3.339   4.363  0.2954 -0.2530  0.2821
 3552TIP3    H110617   3.698   3.295   4.375  0.3398 -0.4784 -0.8235
 3552TIP3    H210618   3.564   3.317   4.442  0.3055 -2.3208 -0.2549
 3553TIP3   OH210619   4.729   3.535   3.154  0.0508  0.4659  0.2556
 3553TIP3    H110620   4.693   3.611   3.199  0.7096  1.0005 -0.1065
 3553TIP3    H210621   4.778   3.488   3.221  0.9946  1.2375  0.1221
 3554TIP3   OH210622   3.185   3.442   3.746  0.1598  0.3241 -0.6586
 3554TIP3    H110623   3.234   3.438   3.828 -1.0401  0.6105  0.0809
 3554TIP3    H210624   3.108   3.387   3.761  0.5484 -0.6339 -2.0255
 3555TIP3   OH210625   2.365   3.610   3.918 -0.1625 -0.4783  0.0020
 3555TIP3    H110626   2.381   3.690   3.967  0.0283  0.3200 -1.3482
 3555TIP3    H210627   2.358   3.638   3.827  0.7973 -2.0949 -0.5991
 3556TIP3   OH210628   4.746   4.031   2.385 -0.1684  0.5255  0.2995
 3556TIP3    H110629   4.784   4.102   2.334 -1.1091  0.0368 -1.1117
 3556TIP3    H210630   4.775   3.951   2.341 -0.2195  0.0735  1.0750
 3557TIP3   OH210631   0.630   0.425   5.835 -0.7229 -0.7811 -0.6968
 3557TIP3    H110632   0.701   0.456   5.779 -0.8519 -1.5778 -1.3027
 3557TIP3    H210633   0.557   0.407   5.775 -1.2961 -0.3725 -0.1259
 3558TIP3   OH210634   1.805   4.816   1.445 -0.1123 -0.3840  0.0095
 3558TIP3    H110635   1.840   4.904   1.451  1.8370 -1.1399  0.1878
 3558TIP3    H210636   1.752   4.816   1.365  1.5037  0.4005 -1.0740
 3559TIP3   OH210637   3.045   3.896   2.333 -0.3245 -0.5697 -0.0640
 3559TIP3    H110638   3.093   3.973   2.305  0.3597 -1.3854 -1.1898
 3559TIP3    H210639   3.087   3.869   2.414 -0.4122  0.0840  0.2038
 3560TIP3   OH210640   3.325   4.833   3.485  0.0852 -0.3378  0.6502
 3560TIP3    H110641   3.419   4.825   3.474 -0.0289  0.4024 -1.0612
 3560TIP3    H210642   3.313   4.863   3.575  1.5309  0.6220  0.5254
 3561TIP3   OH210643   7.291   7.185   5.667 -0.0293  0.8228  0.3939
 3561TIP3    H110644   7.328   7.100   5.692 -0.3960  0.8667  1.0795
 3561TIP3    H210645   7.286   7.234   5.748 -2.4293  0.4955  0.4919
 3562TIP3   OH210646   7.318   0.735   3.679  0.1560  0.0186  0.2142
 3562TIP3    H110647   7.287   0.809   3.627  0.2681  1.2649  1.8687
 3562TIP3    H210648   7.346   0.774   3.762  2.3678 -1.6044  0.2725
 3563TIP3   OH210649   3.129   4.061   2.100 -0.4353  0.0529 -0.3481
 3563TIP3    H110650   3.189   4.120   2.055  0.3080  0.1304  0.7303
 3563TIP3    H210651   3.043   4.101   2.089  0.0504  1.2788  0.2861
 3564TIP3   OH210652   4.265   3.918   1.826  0.2277 -0.1056 -0.8984
 3564TIP3    H110653   4.338   3.971   1.793  1.3450  0.8437  2.8088
 3564TIP3    H210654   4.274   3.834   1.780  2.9042  0.4280 -1.4638
 3565TIP3   OH210655   6.400   4.695   1.911 -0.0296  0.4521 -0.6033
 3565TIP3    H110656   6.402   4.631   1.982  1.5319  0.7903 -0.3197
 3565TIP3    H210657   6.479   4.676   1.860 -0.0009  1.6047 -0.9974
 3566TIP3   OH210658   6.686   6.918   2.839  0.2530 -0.0850  0.0462
 3566TIP3    H110659   6.744   6.879   2.774  0.5057  0.3654  0.0033
 3566TIP3    H210660   6.712   7.010   2.843 -0.5996  0.1723 -0.1316
 3567TIP3   OH210661   3.966   6.340   1.750  0.5831 -0.2402  0.1810
 3567TIP3    H110662   4.008   6.399   1.812 -0.4477  0.7834 -0.0610
 3567TIP3    H210663   4.030   6.327   1.681  0.2949  1.8360 -0.5208
 3568TIP3   OH210664   4.986   4.923   2.301 -0.0805 -0.0764  0.0606
 3568TIP3    H110665   4.981   4.832   2.272  3.2230 -0.1165 -0.6549
 3568TIP3    H210666   4.944   4.973   2.231 -1.2459 -0.9674  0.1062
 3569TIP3   OH210667   3.828   5.857   1.443  0.2551 -0.5605  0.5379
 3569TIP3    H110668   3.846   5.894   1.357 -0.7893  1.6176  1.2214
 3569TIP3    H210669   3.733   5.849   1.446 -0.0825  3.3743  3.0388
 3570TIP3   OH210670   6.164   3.901   0.471  0.6393 -0.3740  0.5607
 3570TIP3    H110671   6.136   3.930   0.558  1.7040 -2.2051  1.5394
 3570TIP3    H210672   6.087   3.860   0.433  0.3572 -0.1583  0.8960
 3571TIP3   OH210673   3.163   4.049   3.099 -0.3878 -0.1017 -0.2024
 3571TIP3    H110674   3.105   4.001   3.040 -0.7323 -2.8312  2.2264
 3571TIP3    H210675   3.113   4.126   3.124 -1.3496 -0.3536 -1.2857
 3572TIP3   OH210676   4.578   6.572   4.045 -0.0752  0.6586  0.7312
 3572TIP3    H110677   4.606   6.633   3.976  1.4876 -0.0677  0.7065
 3572TIP3    H210678   4.523   6.625   4.103 -2.0696  1.0793 -1.4908
 3573TIP3   OH210679   6.791   3.743   2.746 -0.1277  0.0451 -0.5051
 3573TIP3    H110680   6.788   3.670   2.808 -0.6363  0.3775 -0.1280
 3573TIP3    H210681   6.881   3.774   2.750  0.6148 -1.8065 -2.1463
 3574TIP3   OH210682   5.649   1.680   3.357  0.3364  0.0062 -0.0936
 3574TIP3    H110683   5.659   1.739   3.432 -3.5707  0.3177  0.2751
 3574TIP3    H210684   5.644   1.593   3.396  0.8924 -0.0821 -0.2166
 3575TIP3   OH210685   5.467   4.589   2.330  0.1306  0.3222 -0.3035
 3575TIP3    H110686   5.430   4.672   2.362  1.0541 -0.2992  2.5668
 3575TIP3    H210687   5.399   4.524   2.349  0.0010  0.1876 -1.2072
 3576TIP3   OH210688   4.664   5.181   1.796 -0.2270  0.2753 -0.2688
 3576TIP3    H110689   4.744   5.131   1.779 -1.0688 -0.6746 -1.5090
 3576TIP3    H210690   4.593   5.117   1.786 -1.3977  1.8871 -2.7348
 3577TIP3   OH210691   5.443   6.329   1.438  0.3299  0.9089 -0.2001
 3577TIP3    H110692   5.522   6.353   1.389  0.5145 -0.6268 -0.6789
 3577TIP3    H210693   5.400   6.264   1.383 -0.1193  0.0816  1.1168
 3578TIP3   OH210694   5.934   4.613   0.375 -0.2916  0.0686 -0.3602
 3578TIP3    H110695   6.014   4.582   0.332 -1.0935 -0.8011 -1.2212
 3578TIP3    H210696   5.918   4.550   0.446 -1.4571 -1.0351 -1.5910
 3579TIP3   OH210697   2.777   3.174   2.414  0.0076  0.0809  0.1281
 3579TIP3    H110698   2.846   3.194   2.352 -0.8007 -1.3323 -1.2549
 3579TIP3    H210699   2.782   3.245   2.479  3.1074 -0.3127  0.3933
 3580TIP3   OH210700   0.955   4.226   3.311  0.1559 -0.1140 -1.1718
 3580TIP3    H110701   0.987   4.236   3.401  0.2065  1.1254 -1.3110
 3580TIP3    H210702   1.020   4.171   3.268 -0.1465 -1.1625 -0.3164
 3581TIP3   OH210703   5.280   3.770   2.956 -0.1812  0.0600 -0.1199
 3581TIP3    H110704   5.246   3.825   3.027  0.0638  1.5836 -1.1439
 3581TIP3    H210705   5.201   3.735   2.914 -0.3622  0.0940  0.1856
 3582TIP3   OH210706   3.129   1.270   5.658 -0.1177 -0.5106  0.2873
 3582TIP3    H110707   3.101   1.326   5.586 -3.4027 -0.7029  1.3695
 3582TIP3    H210708   3.197   1.214   5.619  0.8284  1.8759 -1.6461
 3583TIP3   OH210709   3.057   3.741   3.088 -0.1012 -0.0786  0.2541
 3583TIP3    H110710   3.121   3.674   3.063  0.5014  0.2364  0.9317
 3583TIP3    H210711   3.054   3.799   3.012 -0.8178 -1.0133 -0.4357
 3584TIP3   OH210712   3.307   2.783   1.348  0.1080  0.1652  0.0716
 3584TIP3    H110713   3.323   2.743   1.433  1.8141 -1.5988 -1.0298
 3584TIP3    H210714   3.212   2.794   1.343  0.0908  1.3001  2.6279
 3585TIP3   OH210715   2.935   3.262   2.001 -0.5817  0.1593  0.1173
 3585TIP3    H110716   2.861   3.201   2.007 -0.5478 -0.2178 -2.7250
 3585TIP3    H210717   2.908   3.326   1.935  1.6033  0.0488 -0.9051
 3586TIP3   OH210718   2.298   4.045   2.592 -0.4866 -0.2560  0.2620
 3586TIP3    H110719   2.378   4.043   2.645 -0.2967 -0.6303 -0.0372
 3586TIP3    H210720   2.327   4.024   2.503 -1.0319 -1.2336  0.3030
 3587TIP3   OH210721   3.971   5.335   3.422  0.1328 -0.3747  0.7684
 3587TIP3    H110722   4.054   5.364   3.384 -1.3773  2.0499 -0.7526
 3587TIP3    H210723   3.977   5.360   3.514  1.2446 -0.6176  0.7674
 3588TIP3   OH210724   5.589   6.431   3.322 -0.1850 -0.2260  0.7498
 3588TIP3    H110725   5.530   6.487   3.272  1.1510  0.2248 -0.3593
 3588TIP3    H210726   5.565   6.342   3.297 -0.1873 -0.0323  0.0589
 3589TIP3   OH210727   3.702   6.662   3.814  0.1390 -0.5955  1.0673
 3589TIP3    H110728   3.696   6.727   3.744 -1.4709 -0.5084  1.2754
 3589TIP3    H210729   3.796   6.649   3.827  0.4532  0.3592 -0.2066
 3590TIP3   OH210730   4.144   3.350   0.233 -0.2623  0.1847 -0.3164
 3590TIP3    H110731   4.227   3.394   0.251  0.2319 -1.1927  0.9030
 3590TIP3    H210732   4.136   3.349   0.138  1.3704 -0.1425 -0.4477
 3591TIP3   OH210733   3.020   5.196   2.317  0.4823  0.0071 -0.1144
 3591TIP3    H110734   3.039   5.205   2.224  1.2149  0.0811  0.0411
 3591TIP3    H210735   2.958   5.265   2.336  0.2364 -0.0840 -0.5753
 3592TIP3   OH210736   3.004   7.185   2.240  0.4184  0.4185  0.0746
 3592TIP3    H110737   3.082   7.227   2.204 -0.4775 -0.1309 -2.6116
 3592TIP3    H210738   2.938   7.195   2.171 -0.7287 -2.6004  0.6615
 3593TIP3   OH210739   4.437   5.680   1.203 -0.2564 -0.4414  0.1396
 3593TIP3    H110740   4.437   5.733   1.123 -0.4110 -1.5148 -0.5915
 3593TIP3    H210741   4.467   5.739   1.272  1.0021  0.1826 -0.9298
 3594TIP3   OH210742   7.533   0.372   1.138  0.0538 -0.7681  0.1200
 3594TIP3    H110743   7.477   0.447   1.121  0.6810 -0.7706 -2.0900
 3594TIP3    H210744   7.475   0.296   1.133 -0.2124 -0.5851  0.4202
 3595TIP3   OH210745   3.313   6.678   2.245 -0.3555  0.0773  0.0956
 3595TIP3    H110746   3.305   6.626   2.326 -1.0432 -1.8289 -1.1661
 3595TIP3    H210747   3.404   6.707   2.245 -0.4083  0.3154  1.6880
 3596TIP3   OH210748   3.543   5.947   2.198  0.0159 -0.2073  0.4155
 3596TIP3    H110749   3.553   6.022   2.140 -2.3347  1.2705  1.8438
 3596TIP3    H210750   3.632   5.928   2.228  0.9770  0.2538 -2.0696
 3597TIP3   OH210751   3.545   5.105   2.019  0.3324 -0.0657 -0.0069
 3597TIP3    H110752   3.504   5.164   2.082  1.5420  0.9265 -0.1087
 3597TIP3    H210753   3.562   5.025   2.069 -0.4202  0.0290  0.4091
 3598TIP3   OH210754   2.953   4.619   0.814  0.8742  0.0848 -0.2894
 3598TIP3    H110755   2.880   4.659   0.861 -0.3267 -0.0050 -2.0114
 3598TIP3    H210756   3.024   4.683   0.822  0.6610  0.1244  1.5017
 3599TIP3   OH210757   2.847   3.821   2.676 -0.0284 -0.1267  0.1588
 3599TIP3    H110758   2.789   3.793   2.605  1.2899 -0.6925 -0.7263
 3599TIP3    H210759   2.863   3.742   2.727 -1.6161  0.4472  1.5846
 3600TIP3   OH210760   4.305   4.361   0.518 -0.0794  0.3062 -1.0615
 3600TIP3    H110761   4.216   4.393   0.534  0.4820  1.7866 -0.8242
 3600TIP3    H210762   4.300   4.317   0.433 -1.3283 -0.8050 -0.4442
 3601TIP3   OH210763   2.849   3.639   0.554  0.3222 -0.1582  0.6160
 3601TIP3    H110764   2.814   3.717   0.599  0.5834  0.4747 -0.2776
 3601TIP3    H210765   2.771   3.586   0.536 -0.0317  0.6085 -0.1387
 3602TIP3   OH210766   4.588   2.601   1.098  0.1682 -0.0075  0.0095
 3602TIP3    H110767   4.589   2.696   1.088 -0.7411 -0.2169 -2.4148
 3602TIP3    H210768   4.498   2.581   1.126  0.3072 -0.1759  0.3407
 3603TIP3   OH210769   3.571   2.869   2.710  0.7377 -0.2058  0.0966
 3603TIP3    H110770   3.532   2.790   2.746 -0.6230  0.0254 -0.8299
 3603TIP3    H210771   3.497   2.926   2.691  1.4907  0.2101 -1.7432
 3604TIP3   OH210772   3.623   3.791   2.822  0.2338  0.0010 -0.0620
 3604TIP3    H110773   3.553   3.773   2.759  0.2766  0.4309 -0.2337
 3604TIP3    H210774   3.641   3.706   2.863  0.7817 -0.4490 -1.2194
 3605TIP3   OH210775   4.402   4.678   0.858 -0.4177  0.4647  0.2714
 3605TIP3    H110776   4.338   4.613   0.886 -1.1354  0.9941 -0.1140
 3605TIP3    H210777   4.350   4.757   0.842  0.4067  1.0546  0.4867
 3606TIP3   OH210778   4.454   2.780   0.215  0.4585  0.2901 -0.1637
 3606TIP3    H110779   4.485   2.745   0.131 -0.1883  1.3189 -0.8426
 3606TIP3    H210780   4.438   2.702   0.269  0.2828 -0.4048 -1.2028
 3607TIP3   OH210781   2.627   4.500   0.077 -0.2576 -0.3115  0.0839
 3607TIP3    H110782   2.631   4.534   0.166  0.3462 -0.4866  0.1288
 3607TIP3    H210783   2.708   4.450   0.067 -0.1592 -0.0068 -0.6777
 3608TIP3   OH210784   3.310   2.155   0.988 -0.0140  0.3093 -0.2647
 3608TIP3    H110785   3.394   2.151   1.034 -0.1372  0.5117 -0.0186
 3608TIP3    H210786   3.319   2.230   0.929  0.7434 -0.9382 -1.7740
 3609TIP3   OH210787   2.888   3.648   3.289 -0.4293  0.5914  0.4796
 3609TIP3    H110788   2.952   3.691   3.232  0.4338 -0.4435  0.6548
 3609TIP3    H210789   2.817   3.622   3.230  0.8294 -1.2105 -0.2979
 3610TIP3   OH210790   5.517   3.840   2.116 -0.3071 -0.1241  0.1079
 3610TIP3    H110791   5.591   3.779   2.113 -0.4098 -0.1944 -1.2125
 3610TIP3    H210792   5.521   3.887   2.033 -2.2328 -0.7056 -0.3436
 3611TIP3   OH210793   3.422   6.553   3.065  0.3757 -0.2364 -0.2974
 3611TIP3    H110794   3.452   6.523   3.151  0.9624  0.1278 -0.3718
 3611TIP3    H210795   3.422   6.474   3.011 -0.8479 -0.6321  0.2713
 3612TIP3   OH210796   5.421   2.890   1.875 -0.1205 -0.3030  0.2292
 3612TIP3    H110797   5.502   2.864   1.919  0.1508  0.5271  0.2421
 3612TIP3    H210798   5.353   2.837   1.916  0.3673 -0.7487  0.4700
 3613TIP3   OH210799   3.241   3.296   4.430 -0.0460 -0.1826 -0.3808
 3613TIP3    H110800   3.233   3.264   4.340 -0.7676  1.5166 -0.9368
 3613TIP3    H210801   3.259   3.217   4.481  0.6942 -1.1365 -2.0409
 3614TIP3   OH210802   0.151   2.116   6.326 -0.0059 -0.4009 -0.0352
 3614TIP3    H110803   0.143   2.144   6.235 -2.2676 -1.8374 -0.3012
 3614TIP3    H210804   0.084   2.165   6.373 -1.0851 -2.1014  0.2495
 3615TIP3   OH210805   2.952   3.074   2.808  0.4968 -0.6679 -0.2290
 3615TIP3    H110806   3.040   3.043   2.829  0.4379  0.2743  1.5198
 3615TIP3    H210807   2.966   3.155   2.759  0.6193  0.2677  1.3189
 3616TIP3   OH210808   3.403   6.361   2.866 -0.4143 -0.3893  0.0705
 3616TIP3    H110809   3.386   6.268   2.852 -2.9446 -0.1865  1.4893
 3616TIP3    H210810   3.359   6.405   2.794  0.1738 -0.2378 -0.2006
 3617TIP3   OH210811   3.711   2.714   0.336 -0.0901 -0.3832  0.5692
 3617TIP3    H110812   3.754   2.697   0.253 -1.0702 -0.0646 -0.0142
 3617TIP3    H210813   3.781   2.748   0.393  0.4734 -0.1065 -0.2805
 3618TIP3   OH210814   6.074   5.698   1.562  0.3594  0.1377  0.2110
 3618TIP3    H110815   6.144   5.640   1.592  1.1090 -0.0635 -1.8509
 3618TIP3    H210816   5.999   5.640   1.549  0.7531 -0.1888 -0.6584
 3619TIP3   OH210817   5.185   4.273   3.232  0.0629  0.1880  0.1758
 3619TIP3    H110818   5.112   4.334   3.238 -1.3815 -1.5631  0.9366
 3619TIP3    H210819   5.192   4.235   3.320  1.3022 -0.3160 -0.1298
 3620TIP3   OH210820   4.514   7.299   0.649 -0.6154 -0.2439 -0.5130
 3620TIP3    H110821   4.561   7.310   0.566  1.3174 -1.9993  0.2904
 3620TIP3    H210822   4.580   7.316   0.716 -1.7473 -0.4117  0.6555
 3621TIP3   OH210823   7.224   1.968   2.167 -0.6276 -0.5924  0.1751
 3621TIP3    H110824   7.214   1.975   2.072  2.2444 -0.0859 -0.1329
 3621TIP3    H210825   7.159   1.903   2.193 -0.6416 -1.6224 -2.3010
 3622TIP3   OH210826   5.609   5.613   1.504 -0.0985  0.0621  0.1324
 3622TIP3    H110827   5.664   5.569   1.569  0.1482  0.8061  0.4291
 3622TIP3    H210828   5.668   5.677   1.463 -0.9989  1.5150  1.0972
 3623TIP3   OH210829   1.138   0.136   4.845  0.1505 -0.0031 -0.1439
 3623TIP3    H110830   1.054   0.166   4.811  1.0570  0.0474 -2.4438
 3623TIP3    H210831   1.176   0.213   4.887 -1.3230 -0.2602  1.7363
 3624TIP3   OH210832   4.153   5.195   1.038  0.0888 -0.0371 -0.4994
 3624TIP3    H110833   4.159   5.100   1.045 -1.3077 -0.0601  0.4796
 3624TIP3    H210834   4.170   5.213   0.945  1.8293 -1.0981 -0.4103
 3625TIP3   OH210835   4.715   5.908   0.645 -0.5221 -0.1160  0.0714
 3625TIP3    H110836   4.719   5.813   0.634 -0.6901 -0.1467  0.2956
 3625TIP3    H210837   4.750   5.924   0.732  0.3394  0.0986 -0.3098
 3626TIP3   OH210838   1.846   6.168   1.516  0.3858  1.1538 -0.5487
 3626TIP3    H110839   1.902   6.231   1.559 -0.1783  1.2451  0.0542
 3626TIP3    H210840   1.762   6.173   1.563  1.0791 -1.8277  1.1729
 3627TIP3   OH210841   6.525   4.590   0.154 -0.0312 -1.2727  0.6688
 3627TIP3    H110842   6.487   4.660   0.101  0.0952 -1.7800 -0.0980
 3627TIP3    H210843   6.451   4.555   0.204  0.1592  0.3175  2.0953
 3628TIP3   OH210844   3.589   4.680   1.133  0.4342 -0.4258  0.0254
 3628TIP3    H110845   3.661   4.706   1.191  1.5611 -1.3174 -0.9461
 3628TIP3    H210846   3.511   4.688   1.187  1.0928  1.8725  0.7072
 3629TIP3   OH210847   7.708   3.986   3.095 -0.2378  0.0809 -0.1556
 3629TIP3    H110848   7.758   3.995   3.176 -0.6467 -0.9307  0.2276
 3629TIP3    H210849   7.644   3.916   3.114 -1.1603  0.6938 -0.9416
 3630TIP3   OH210850   4.740   6.554   0.498  0.4094  0.1041 -0.1064
 3630TIP3    H110851   4.673   6.528   0.435  1.3348  1.7961 -1.8447
 3630TIP3    H210852   4.748   6.649   0.486  1.8040  0.1961  1.3946
 3631TIP3   OH210853   6.679   3.959   1.528 -0.3584  0.2354  0.3448
 3631TIP3    H110854   6.769   3.986   1.547 -0.3463 -0.2560  1.0000
 3631TIP3    H210855   6.684   3.864   1.520 -0.7561  0.2415  0.0385
 3632TIP3   OH210856   5.904   3.824   2.254 -0.2792  0.3874 -0.1345
 3632TIP3    H110857   5.931   3.741   2.215  2.3485  0.9847  0.3241
 3632TIP3    H210858   5.852   3.799   2.331  1.1911 -0.8410  0.4724
 3633TIP3   OH210859   5.224   2.677   0.357  0.4196  0.0511 -0.5480
 3633TIP3    H110860   5.174   2.703   0.434  2.6045  1.0997  0.5432
 3633TIP3    H210861   5.178   2.599   0.325 -0.8712 -0.0509  1.4407
 3634TIP3   OH210862   5.779   3.232   0.616  0.1250 -0.1945 -0.2717
 3634TIP3    H110863   5.853   3.252   0.558  0.6123  1.2416  0.8043
 3634TIP3    H210864   5.701   3.256   0.565  0.5742  1.6151 -0.1473
 3635TIP3   OH210865   2.077   1.355   5.579  0.1060 -0.4230  0.3356
 3635TIP3    H110866   2.111   1.364   5.668 -1.4125 -1.9795  1.1032
 3635TIP3    H210867   2.016   1.428   5.568  2.0806  1.1687 -0.3122
 3636TIP3   OH210868   6.965   3.993   1.563 -0.0681  1.1322 -0.0295
 3636TIP3    H110869   7.015   4.060   1.609 -0.5050  0.3361  1.6354
 3636TIP3    H210870   6.989   3.911   1.606 -2.5057  0.6842  0.5481
 3637TIP3   OH210871   4.263   4.848   1.520 -0.5062  0.2937  0.5722
 3637TIP3    H110872   4.231   4.765   1.555 -2.9915  1.2769  0.7083
 3637TIP3    H210873   4.296   4.827   1.433 -1.9089 -0.6747  0.2794
 3638TIP3   OH210874   6.631   0.204   2.166 -0.1753 -0.2053 -0.0398
 3638TIP3    H110875   6.586   0.253   2.235 -2.4445 -2.6080  0.2913
 3638TIP3    H210876   6.722   0.200   2.195 -0.7337  0.4001  1.8918
 3639TIP3   OH210877   3.687   6.500   1.740 -0.1502 -0.0029 -0.1641
 3639TIP3    H110878   3.777   6.467   1.733 -0.5181 -1.8234  2.7580
 3639TIP3    H210879   3.633   6.434   1.697 -0.2602  0.1180 -0.2138
 3640TIP3   OH210880   5.589   5.837   1.954  0.2030 -0.0955  0.6734
 3640TIP3    H110881   5.606   5.915   1.902 -0.7629 -0.1207  0.3104
 3640TIP3    H210882   5.675   5.796   1.965  0.4862  0.1615 -0.4999
 3641TIP3   OH210883   4.400   3.193   2.489 -0.4793 -0.0256 -0.2071
 3641TIP3    H110884   4.390   3.137   2.413 -0.4182 -0.9115  0.4319
 3641TIP3    H210885   4.420   3.133   2.561 -2.6080  0.5866  0.9275
 3642TIP3   OH210886   6.561   4.190   0.681 -0.1328  0.0470 -0.5084
 3642TIP3    H110887   6.475   4.222   0.657 -0.4552 -0.5266 -0.1323
 3642TIP3    H210888   6.544   4.116   0.739  0.6024 -0.5196 -1.0023
 3643TIP3   OH210889   6.572   4.515   2.494 -0.0652 -0.0160 -0.3449
 3643TIP3    H110890   6.504   4.454   2.522  0.4818  0.0324  1.1030
 3643TIP3    H210891   6.556   4.526   2.400 -1.8914 -0.2087 -0.0805
 3644TIP3   OH210892   6.189   2.311   1.647  0.4413 -0.0170  0.0286
 3644TIP3    H110893   6.138   2.311   1.728 -0.2318  1.0181 -0.3775
 3644TIP3    H210894   6.151   2.241   1.595  1.4825 -1.3127  0.9572
 3645TIP3   OH210895   7.681   2.978   1.264  0.1726  0.0152  0.0225
 3645TIP3    H110896   7.681   3.063   1.309  0.3164 -0.4557  0.9322
 3645TIP3    H210897   7.602   2.979   1.210 -0.7530  0.0636  1.3345
 3646TIP3   OH210898   7.259   3.155   1.023  0.3488  0.1761  0.4043
 3646TIP3    H110899   7.176   3.150   0.976 -0.4924  0.5909  1.7940
 3646TIP3    H210900   7.249   3.230   1.081  1.7726  0.3383  0.4566
 3647TIP3   OH210901   5.712   4.513   2.451  0.0793  0.7014 -0.0829
 3647TIP3    H110902   5.617   4.523   2.445  0.2500  1.1760 -2.9775
 3647TIP3    H210903   5.725   4.424   2.482 -1.3221  0.3643 -0.4136
 3648TIP3   OH210904   1.268   2.185   5.623 -0.0258  0.1332 -0.2726
 3648TIP3    H110905   1.281   2.090   5.627  1.0365  0.2150 -1.4852
 3648TIP3    H210906   1.309   2.218   5.703  0.4837 -0.3406 -0.3306
 3649TIP3   OH210907   3.516   4.460   2.095  0.5650  0.2251  0.6291
 3649TIP3    H110908   3.585   4.504   2.144 -0.0455  1.2286  0.5894
 3649TIP3    H210909   3.527   4.367   2.117  2.4939  0.2587 -0.0855
 3650TIP3   OH210910   0.329   5.441   1.695  0.3376  0.1167  0.8102
 3650TIP3    H110911   0.421   5.422   1.713  0.1507 -0.5259  1.0953
 3650TIP3    H210912   0.313   5.405   1.608  1.1618  2.9573 -0.5672
 3651TIP3   OH210913   5.979   5.907   2.150 -0.4004  0.0165 -0.3163
 3651TIP3    H110914   5.955   5.997   2.171 -0.1994 -0.1731  0.7651
 3651TIP3    H210915   6.065   5.895   2.191 -1.0838 -1.1162  0.8397
 3652TIP3   OH210916   4.712   4.774   1.207  0.0668 -0.2545 -0.2079
 3652TIP3    H110917   4.785   4.823   1.170  0.1341 -0.4222 -0.2944
 3652TIP3    H210918   4.641   4.838   1.212  0.4847  0.1543  0.7237
 3653TIP3   OH210919   6.323   4.730   2.601 -0.5903  0.4852 -0.0094
 3653TIP3    H110920   6.308   4.651   2.548  0.5640 -0.0381  0.4143
 3653TIP3    H210921   6.296   4.802   2.544 -0.3876 -0.1378 -0.9174
 3654TIP3   OH210922   4.725   0.983   6.181  0.7210  0.7061  0.6707
 3654TIP3    H110923   4.732   1.039   6.104 -2.5473  0.2923 -0.0046
 3654TIP3    H210924   4.798   0.922   6.173 -0.5616 -0.4819 -3.1003
 3655TIP3   OH210925   4.638   6.720   0.878 -0.5838 -0.3010  0.1666
 3655TIP3    H110926   4.544   6.731   0.861 -0.5518 -0.5176 -0.1460
 3655TIP3    H210927   4.655   6.627   0.863  0.0748  0.1060 -1.7287
 3656TIP3   OH210928   5.103   4.271   1.523 -0.1781  0.8897 -0.1288
 3656TIP3    H110929   5.123   4.356   1.561 -0.5595  1.0438 -0.2705
 3656TIP3    H210930   5.062   4.291   1.439 -1.5961  0.6041  0.4728
 3657TIP3   OH210931   4.139   5.977   1.294 -0.5451  0.8562 -0.3784
 3657TIP3    H110932   4.066   5.915   1.296 -0.1392  0.3639 -0.6655
 3657TIP3    H210933   4.107   6.049   1.239 -0.8945  0.7479 -0.3231
 3658TIP3   OH210934   4.164   5.334   0.615 -0.2372  0.2900  0.2477
 3658TIP3    H110935   4.209   5.417   0.602  0.4024 -0.2073 -0.7504
 3658TIP3    H210936   4.233   5.268   0.608 -0.8300 -0.3581  0.4912
 3659TIP3   OH210937   3.378   4.761   0.722  0.2624  0.2776  0.2107
 3659TIP3    H110938   3.387   4.680   0.671 -0.2187 -0.3299  1.0824
 3659TIP3    H210939   3.353   4.827   0.657  0.6119 -0.2806 -0.4998
 3660TIP3   OH210940   2.932   1.352   6.352 -0.1356 -0.1266 -0.0150
 3660TIP3    H110941   2.978   1.331   6.271  1.3280  2.2729  0.1259
 3660TIP3    H210942   2.889   1.271   6.378  1.0825 -1.4661 -2.0935
 3661TIP3   OH210943   4.974   5.465   1.389  0.1808  0.9949 -0.1516
 3661TIP3    H110944   4.960   5.512   1.306 -2.1195 -0.6129 -0.7497
 3661TIP3    H210945   5.008   5.531   1.449  1.6396  2.2557 -2.3084
 3662TIP3   OH210946   5.077   4.980   1.356 -0.5369 -0.0492 -0.3385
 3662TIP3    H110947   5.009   4.941   1.412  0.0386 -0.0696  0.3483
 3662TIP3    H210948   5.039   5.062   1.326 -0.1817  0.7866  1.4694
 3663TIP3   OH210949   7.148   5.807   1.810  0.2785  0.5616  0.4879
 3663TIP3    H110950   7.194   5.750   1.749 -0.9236 -0.0426  0.1566
 3663TIP3    H210951   7.167   5.770   1.896 -1.5198 -1.0808  0.1970
 3664TIP3   OH210952   4.829   5.348   2.370 -0.0263 -0.2405  0.4550
 3664TIP3    H110953   4.779   5.304   2.301 -0.1841 -0.3955  0.6624
 3664TIP3    H210954   4.824   5.287   2.444  2.4847 -1.3684 -0.2563
 3665TIP3   OH210955   5.411   4.633   3.118  0.4089 -0.0942  0.1177
 3665TIP3    H110956   5.451   4.720   3.120 -0.8627  0.5391 -0.8458
 3665TIP3    H210957   5.468   4.579   3.171 -0.1620  1.9586  2.9531
 3666TIP3   OH210958   6.796   4.740   4.373 -0.1397 -0.1211 -0.6051
 3666TIP3    H110959   6.723   4.677   4.368 -0.2322 -0.0214 -0.5286
 3666TIP3    H210960   6.833   4.726   4.460  0.6507 -0.9617 -1.0733
 3667TIP3   OH210961   4.661   5.844   0.259 -0.1757  0.6486  0.6906
 3667TIP3    H110962   4.619   5.928   0.280 -2.8688 -0.6536  0.6529
 3667TIP3    H210963   4.664   5.842   0.163 -1.6195  0.0008  0.6482
 3668TIP3   OH210964   2.055   2.640   5.065  0.7387 -0.3753 -0.2694
 3668TIP3    H110965   2.039   2.688   5.146 -1.5914 -2.3235  0.4900
 3668TIP3    H210966   2.146   2.611   5.071  0.3343 -1.2692  2.0837
 3669TIP3   OH210967   4.744   3.586   1.550  0.1633 -0.4310 -0.1385
 3669TIP3    H110968   4.676   3.521   1.531 -0.4463  0.7521 -2.2496
 3669TIP3    H210969   4.773   3.615   1.464  2.0805  0.4059  0.7660
 3670TIP3   OH210970   0.639   6.592   5.119 -0.7324 -0.0262  0.5505
 3670TIP3    H110971   0.707   6.553   5.064 -1.9890 -1.7897  0.2117
 3670TIP3    H210972   0.680   6.601   5.205 -0.0271 -0.9807  0.3245
 3671TIP3   OH210973   1.581   5.901   3.341  0.1974 -0.3180  0.5844
 3671TIP3    H110974   1.547   5.943   3.420  1.1095  0.9987  0.2909
 3671TIP3    H210975   1.639   5.833   3.373  1.3189  0.8443  1.0572
 3672TIP3   OH210976   4.575   3.165   1.642 -0.0213  0.3479 -0.6300
 3672TIP3    H110977   4.600   3.256   1.629  0.3746  0.2927 -0.2549
 3672TIP3    H210978   4.526   3.165   1.724 -0.3267  0.2814 -0.8121
 3673TIP3   OH210979   4.875   4.429   2.663 -0.3622 -0.2495 -0.0782
 3673TIP3    H110980   4.963   4.431   2.627 -1.0946 -1.4355 -2.0734
 3673TIP3    H210981   4.855   4.336   2.672 -1.4142  0.0013  0.2985
 3674TIP3   OH210982   5.904   3.651   1.684 -0.3981  0.6884  0.0340
 3674TIP3    H110983   5.994   3.626   1.705 -0.6266  0.4975  0.7903
 3674TIP3    H210984   5.856   3.568   1.679 -0.2423  0.6859 -1.7841
 3675TIP3   OH210985   7.670   3.136   2.139  0.4604 -0.1904  0.2125
 3675TIP3    H110986   7.606   3.165   2.204 -0.7197  1.1223 -1.4827
 3675TIP3    H210987   7.617   3.092   2.072  1.6007 -1.0939 -0.1011
 3676TIP3   OH210988   4.733   3.915   0.968 -0.0644  0.3131  0.2132
 3676TIP3    H110989   4.661   3.976   0.961 -0.1589  0.1661 -0.1027
 3676TIP3    H210990   4.695   3.830   0.947  0.1046  0.1719  0.4708
 3677TIP3   OH210991   5.923   4.700   1.631 -0.1477 -0.1332 -0.1600
 3677TIP3    H110992   5.951   4.721   1.542  1.9752 -0.9823  0.2779
 3677TIP3    H210993   6.003   4.701   1.683 -1.4219  0.9278  1.8814
 3678TIP3   OH210994   5.541   5.241   2.071 -0.6122 -1.0197  0.8339
 3678TIP3    H110995   5.541   5.207   1.982  1.8843 -0.3061  0.5302
 3678TIP3    H210996   5.481   5.316   2.069 -0.3579 -0.8487 -0.2900
 3679TIP3   OH210997   5.184   4.466   1.965 -0.5751 -0.0737  0.1467
 3679TIP3    H110998   5.176   4.372   1.980 -0.7784  0.3745  3.0855
 3679TIP3    H210999   5.278   4.483   1.963 -0.5411 -0.1121  1.2403
 3680TIP3   OH211000   6.991   1.458   2.566 -0.1265  0.0401 -0.3337
 3680TIP3    H111001   7.078   1.482   2.532  0.1504 -0.9836 -0.3712
 3680TIP3    H211002   7.002   1.367   2.596 -1.7131 -0.8099 -2.2169
 3681TIP3   OH211003   5.093   5.480   2.568 -0.1980  0.4623  0.3091
 3681TIP3    H111004   5.023   5.414   2.561  1.5696 -1.5478  1.1284
 3681TIP3    H211005   5.127   5.488   2.479  0.0761 -0.2966  0.3435
 3682TIP3   OH211006   4.116   4.813   2.254  0.0711 -0.0892 -0.0222
 3682TIP3    H111007   4.091   4.767   2.174  0.3819  0.0308 -0.1908
 3682TIP3    H211008   4.050   4.881   2.264 -0.7577 -0.9887  0.5862
 3683TIP3   OH211009   6.851   4.883   1.411  0.1469 -0.1022  0.2615
 3683TIP3    H111010   6.890   4.899   1.325 -0.5983 -0.8993 -0.2265
 3683TIP3    H211011   6.773   4.938   1.411  0.3669  0.2119  0.5915
 3684TIP3   OH211012   6.279   3.153   1.651  0.3273  0.0405 -0.3592
 3684TIP3    H111013   6.355   3.175   1.597  0.7742  0.5787  0.4746
 3684TIP3    H211014   6.222   3.102   1.593  0.9105  0.3989 -1.2580
 3685TIP3   OH211015   6.481   4.670   1.497  0.0979  0.0095  0.3567
 3685TIP3    H111016   6.551   4.606   1.490  0.6115  0.7157 -1.3217
 3685TIP3    H211017   6.401   4.621   1.478  0.3331 -0.4411  0.5361
 3686TIP3   OH211018   5.369   4.786   2.715  0.3485 -0.2684 -0.9033
 3686TIP3    H111019   5.341   4.811   2.803 -0.5820  0.5706 -1.4254
 3686TIP3    H211020   5.461   4.764   2.725 -0.4162 -2.9217  0.8141
 3687TIP3   OH211021   6.120   2.722   2.835 -0.7963  0.0960 -0.1706
 3687TIP3    H111022   6.150   2.635   2.859  1.3738  0.6158 -0.9543
 3687TIP3    H211023   6.087   2.713   2.746  1.6268  0.5613 -1.1328
 3688TIP3   OH211024   4.881   2.991   0.342 -0.4437 -0.1148 -0.4310
 3688TIP3    H111025   4.833   3.073   0.329 -0.6601 -0.3396 -1.0653
 3688TIP3    H211026   4.911   2.967   0.254 -0.1403 -0.5669 -0.2012
 3689TIP3   OH211027   5.221   4.545   0.684  0.2944  0.5462  0.0552
 3689TIP3    H111028   5.300   4.589   0.716  0.1133  0.7791  0.1861
 3689TIP3    H211029   5.253   4.470   0.635  0.5645 -0.1989  1.3565
 3690TIP3   OH211030   7.253   4.116   0.679 -1.0365 -0.1491 -0.0984
 3690TIP3    H111031   7.281   4.090   0.592  1.0565 -2.2029  1.1345
 3690TIP3    H211032   7.252   4.035   0.730 -2.0319  1.0317  1.8591
 3691TIP3   OH211033   0.716   2.567   1.574 -0.1498 -0.4012  0.2258
 3691TIP3    H111034   0.748   2.578   1.663  1.1290 -0.8993 -0.1579
 3691TIP3    H211035   0.658   2.491   1.579 -1.9454  0.9997  1.0863
 3692TIP3   OH211036   5.977   4.302   1.907  0.3122 -0.3638  0.0479
 3692TIP3    H111037   5.956   4.267   1.993  1.4330 -0.0357  0.4515
 3692TIP3    H211038   5.932   4.386   1.903  0.9117 -0.0167  0.6184
 3693TIP3   OH211039   6.845   5.973   1.808  0.4809 -0.4889  0.0230
 3693TIP3    H111040   6.892   6.029   1.747 -1.7200  1.4811  0.0400
 3693TIP3    H211041   6.895   5.979   1.889  0.2237  1.6346  0.0760
 3694TIP3   OH211042   5.764   3.276   1.869 -0.4949 -0.4041 -0.2940
 3694TIP3    H111043   5.722   3.355   1.906  1.6922  0.0933  1.2196
 3694TIP3    H211044   5.799   3.305   1.785 -1.0506 -0.1821 -0.4541
 3695TIP3   OH211045   2.095   6.738   6.092  0.1152  0.3455 -0.0979
 3695TIP3    H111046   2.055   6.819   6.122  2.1785  1.5712 -0.5396
 3695TIP3    H211047   2.164   6.720   6.156 -0.7821 -1.4929  0.4147
 3696TIP3   OH211048   5.565   4.278   1.656  0.4147  0.0685 -0.5613
 3696TIP3    H111049   5.577   4.275   1.751  0.2398  1.2398 -0.4997
 3696TIP3    H211050   5.653   4.293   1.622  0.3846  0.2639 -0.5521
 3697TIP3   OH211051   6.535   4.853   2.253  0.3097 -0.0217  0.3378
 3697TIP3    H111052   6.539   4.764   2.219 -1.5888 -0.0104  0.0353
 3697TIP3    H211053   6.502   4.905   2.180  1.6735  0.9901  0.4252
 3698TIP3   OH211054   4.939   6.683   5.246 -0.3638  0.0801 -0.0222
 3698TIP3    H111055   5.007   6.630   5.288 -2.4594 -1.5137  1.4893
 3698TIP3    H211056   4.900   6.733   5.318 -0.9845  0.7650 -0.8268
 3699TIP3   OH211057   5.840   6.628   1.696  0.0765 -0.4929 -0.0668
 3699TIP3    H111058   5.847   6.675   1.779  0.4819 -3.4286  1.6100
 3699TIP3    H211059   5.919   6.652   1.648  0.2614  0.5440  0.7389
 3700TIP3   OH211060   6.602   2.681   1.297  0.0340  0.3318 -0.5790
 3700TIP3    H111061   6.638   2.615   1.357 -0.7523  1.0544  0.7148
 3700TIP3    H211062   6.537   2.634   1.246 -0.5406  0.0941  0.3576
 3701TIP3   OH211063   5.758   4.778   1.277 -0.9570  1.2967 -0.0193
 3701TIP3    H111064   5.730   4.866   1.300 -2.3999  1.3586 -1.9345
 3701TIP3    H211065   5.682   4.738   1.235 -0.2256 -0.7583  0.5179
 3702TIP3   OH211066   5.245   4.655   1.608 -0.5441  0.0819 -0.1412
 3702TIP3    H111067   5.294   4.586   1.563  0.0294  0.6907 -0.4645
 3702TIP3    H211068   5.179   4.609   1.659  0.9468 -0.8090  1.0234
 3703TIP3   OH211069   1.196   1.939   6.248  0.7995 -0.2454 -0.5547
 3703TIP3    H111070   1.239   1.982   6.322 -0.5190  0.4411 -0.1686
 3703TIP3    H211071   1.106   1.928   6.276  0.7065 -1.6390 -1.3629
 3704TIP3   OH211072   4.317   4.607   1.201  1.2961  0.0241 -0.0121
 3704TIP3    H111073   4.304   4.558   1.120  1.8221  1.1500 -0.7945
 3704TIP3    H211074   4.262   4.563   1.266  0.4331 -0.5357 -1.1275
 3705TIP3   OH211075   5.038   2.766   1.064 -0.4968 -0.1346 -0.1260
 3705TIP3    H111076   4.978   2.772   0.989 -0.8411  2.3875  0.3377
 3705TIP3    H211077   4.980   2.757   1.140 -0.2417  0.5685  0.1524
 3706TIP3   OH211078   4.771   3.820   2.215  0.2532  0.8771 -0.0432
 3706TIP3    H111079   4.756   3.754   2.147 -2.0096  0.0824  1.2009
 3706TIP3    H211080   4.848   3.788   2.262 -1.0442 -1.1286  0.7908
 3707TIP3   OH211081   3.306   5.973   2.311 -0.0125  0.2307 -0.0837
 3707TIP3    H111082   3.255   5.996   2.233 -0.2331 -2.2144 -0.6830
 3707TIP3    H211083   3.397   5.982   2.284 -0.0675  2.7945  0.4443
 3708TIP3   OH211084   0.496   5.887   0.408  0.2569  0.6897  0.3138
 3708TIP3    H111085   0.585   5.858   0.386 -0.1673  0.0299 -0.5691
 3708TIP3    H211086   0.473   5.839   0.487 -0.6044 -1.7859 -1.3752
 3709TIP3   OH211087   7.650   6.046   2.012  0.5933  0.0284 -0.0728
 3709TIP3    H111088   7.613   6.052   2.100  0.7437  1.0449 -0.0662
 3709TIP3    H211089   7.718   6.114   2.010  1.0107 -0.4029 -0.7679
 3710TIP3   OH211090   7.114   5.816   1.253  0.3276 -0.3820  0.1715
 3710TIP3    H111091   7.128   5.722   1.258 -0.9175 -0.5691  0.1582
 3710TIP3    H211092   7.082   5.841   1.340  2.1723  0.2923  0.6806
 3711TIP3   OH211093   6.938   5.648   0.786  0.4247 -0.2797  0.2066
 3711TIP3    H111094   6.969   5.642   0.695  2.0922 -0.8231  0.7815
 3711TIP3    H211095   6.909   5.738   0.796 -1.3644 -0.6431 -1.3449
 3712TIP3   OH211096   1.690   0.076   6.301  0.1357 -0.3438 -0.1373
 3712TIP3    H111097   1.775   0.116   6.322 -0.5909  0.8740  0.5369
 3712TIP3    H211098   1.667   0.027   6.380 -0.0299 -0.2627 -0.1361
 3713TIP3   OH211099   3.817   2.714   0.070 -0.2503  0.8096  0.1679
 3713TIP3    H111100   3.864   2.795   0.089  1.1608  0.0102  0.0888
 3713TIP3    H211101   3.873   2.667   0.009 -0.0927 -1.1607  1.7970
 3714TIP3   OH211102   3.585   0.117   5.821 -0.4871 -0.4527 -0.2517
 3714TIP3    H111103   3.512   0.162   5.863 -0.5987 -0.8502 -0.0169
 3714TIP3    H211104   3.547   0.037   5.786 -0.7718  0.6813 -2.6505
 3715TIP3   OH211105   4.346   3.436   1.302 -0.8430  0.2272 -0.1343
 3715TIP3    H111106   4.414   3.462   1.240 -0.1530  0.7783  0.8359
 3715TIP3    H211107   4.296   3.516   1.318 -1.1684  0.0300 -0.1594
 3716TIP3   OH211108   3.683   5.157   0.186  0.1359  0.0629  0.3915
 3716TIP3    H111109   3.682   5.215   0.262 -1.0617 -0.4436  0.7820
 3716TIP3    H211110   3.776   5.146   0.165  0.3566  3.6333 -0.8915
 3717TIP3   OH211111   6.563   6.402   1.774  0.8263 -0.0169 -0.3476
 3717TIP3    H111112   6.621   6.434   1.705  1.3207 -0.0591  0.0476
 3717TIP3    H211113   6.619   6.395   1.852  0.4630 -0.7684 -0.1464
 3718TIP3   OH211114   5.518   4.814   1.062 -0.1266 -0.4128  0.6753
 3718TIP3    H111115   5.436   4.844   1.022 -0.7912 -1.5575  1.1733
 3718TIP3    H211116   5.554   4.892   1.103 -1.3644 -0.0668  1.1264
 3719TIP3   OH211117   0.370   0.213   1.312  0.1565 -0.4899 -0.2183
 3719TIP3    H111118   0.364   0.281   1.244  0.0157 -0.4061 -0.1226
 3719TIP3    H211119   0.305   0.148   1.286 -0.6819  0.0828  0.4434
 3720TIP3   OH211120   5.468   5.057   0.826  0.3380  0.6227  0.1840
 3720TIP3    H111121   5.467   5.121   0.755  0.1916 -0.3693 -0.7297
 3720TIP3    H211122   5.512   5.101   0.899  2.3740  0.9141 -1.2098
 3721TIP3   OH211123   3.288   3.705   2.956 -0.3183  0.2812 -0.0169
 3721TIP3    H111124   3.288   3.671   2.866  2.2924  1.4983 -0.5241
 3721TIP3    H211125   3.343   3.784   2.952  0.6783 -0.2035  2.8394
 3722TIP3   OH211126   4.415   5.380   1.641  0.0572 -0.1508  0.6089
 3722TIP3    H111127   4.328   5.339   1.639  0.2790 -0.5955 -0.7503
 3722TIP3    H211128   4.471   5.320   1.593  1.1146  0.1762  1.4146
 3723TIP3   OH211129   3.790   6.347   0.910  0.6098 -0.3577 -0.0507
 3723TIP3    H111130   3.874   6.385   0.934  0.2785 -0.1880  0.8658
 3723TIP3    H211131   3.772   6.380   0.822  0.0890  2.0090  0.9244
 3724TIP3   OH211132   2.256   1.278   6.100  0.5452  0.5014 -0.1140
 3724TIP3    H111133   2.280   1.332   6.175  1.0194 -1.3513  1.0910
 3724TIP3    H211134   2.338   1.261   6.055  0.6041 -0.3938  0.3196
 3725TIP3   OH211135   4.825   5.022   2.067 -0.2943  0.5669 -0.4790
 3725TIP3    H111136   4.780   5.106   2.062 -1.5717 -0.1657 -2.1149
 3725TIP3    H211137   4.756   4.959   2.087 -0.2442 -0.7045 -3.9502
 3726TIP3   OH211138   5.637   1.819   2.204  0.2767 -0.0426  0.3423
 3726TIP3    H111139   5.699   1.886   2.234  0.5352 -0.4858  0.7916
 3726TIP3    H211140   5.683   1.775   2.133 -0.4212  1.1560 -0.8892
 3727TIP3   OH211141   5.866   3.242   1.142 -0.1456 -0.5170 -0.5165
 3727TIP3    H111142   5.858   3.165   1.198 -0.1692  0.7172  1.1951
 3727TIP3    H211143   5.783   3.288   1.152  1.2175  1.6418  1.3739
 3728TIP3   OH211144   0.312   3.288   1.666 -0.0102  0.7558  0.1142
 3728TIP3    H111145   0.260   3.368   1.671  0.7395  1.1981  0.9991
 3728TIP3    H211146   0.326   3.262   1.757 -0.7693 -0.7428 -0.1800
 3729TIP3   OH211147   6.029   6.085   1.109 -0.4506 -0.1181  0.4391
 3729TIP3    H111148   6.010   5.991   1.111  1.1492 -0.4532  0.4505
 3729TIP3    H211149   6.083   6.100   1.186 -0.0970  0.6778  0.0435
 3730TIP3   OH211150   3.503   2.893   0.254  0.2565  0.4763 -0.2989
 3730TIP3    H111151   3.570   2.828   0.275 -0.2051 -0.2047 -0.9255
 3730TIP3    H211152   3.509   2.905   0.160  0.6270  1.6756 -0.1319
 3731TIP3   OH211153   5.934   1.898   3.137 -0.1042 -0.2185 -0.1093
 3731TIP3    H111154   5.991   1.960   3.182 -3.0495  1.4498  1.4964
 3731TIP3    H211155   5.915   1.831   3.202 -1.7065  0.4102  0.0873
 3732TIP3   OH211156   3.863   3.484   0.529  0.7074 -0.1275 -0.1251
 3732TIP3    H111157   3.865   3.400   0.575 -1.0978  0.2369  0.6784
 3732TIP3    H211158   3.776   3.520   0.549  1.0182  1.3956 -1.4107
 3733TIP3   OH211159   4.495   3.755   1.416  0.2048  0.2314 -0.0329
 3733TIP3    H111160   4.403   3.766   1.442  0.1272 -0.0213 -0.1971
 3733TIP3    H211161   4.545   3.800   1.484 -0.0924  1.2910 -0.5015
 3734TIP3   OH211162   5.146   4.040   1.688  0.2612 -0.0057  0.5189
 3734TIP3    H111163   5.052   4.041   1.704  0.1813  0.0988  0.0546
 3734TIP3    H211164   5.160   4.111   1.626  0.7897  0.6267  1.3641
 3735TIP3   OH211165   5.970   3.579   2.081 -0.4283  0.3786 -0.0003
 3735TIP3    H111166   5.999   3.578   1.989  1.0426  0.8360  0.4423
 3735TIP3    H211167   6.017   3.506   2.121 -0.7901  0.4076  0.4714
 3736TIP3   OH211168   5.799   3.087   4.109 -0.1926  0.3686  0.1362
 3736TIP3    H111169   5.760   3.021   4.052 -3.0583  1.1023  1.1741
 3736TIP3    H211170   5.872   3.122   4.058 -0.6266 -1.3403 -1.7204
 3737TIP3   OH211171   3.814   4.599   2.095  0.0002  0.0559 -0.0883
 3737TIP3    H111172   3.805   4.512   2.057  0.8166  0.0693 -0.3220
 3737TIP3    H211173   3.904   4.624   2.077 -0.1544  0.8476  0.2008
 3738TIP3   OH211174   7.793   0.917   5.852  0.4593  0.5175  0.0117
 3738TIP3    H111175   7.739   0.885   5.925  0.8318  0.1308  0.1213
 3738TIP3    H211176   7.754   0.876   5.774  1.5745 -1.0614  0.2623
 3739TIP3   OH211177   3.723   3.738   1.509  0.6012  0.1322 -0.2070
 3739TIP3    H111178   3.800   3.702   1.464  0.0694 -0.2539 -0.8236
 3739TIP3    H211179   3.714   3.685   1.588  1.3912  0.6454  0.2326
 3740TIP3   OH211180   4.390   0.829   5.699  0.5357  0.0892 -0.3328
 3740TIP3    H111181   4.434   0.900   5.745  0.3442 -1.1457  1.8259
 3740TIP3    H211182   4.298   0.837   5.725  0.5634 -1.1092  0.1486
 3741TIP3   OH211183   2.139   4.079   2.933 -0.3313  0.8360  0.5783
 3741TIP3    H111184   2.231   4.099   2.922 -0.2145  0.1577  0.3081
 3741TIP3    H211185   2.121   4.098   3.026 -0.0528  1.4575  0.5081
 3742TIP3   OH211186   4.322   5.410   2.342  0.3108 -0.5226 -0.1548
 3742TIP3    H111187   4.257   5.441   2.405  0.5232  0.5198 -0.4483
 3742TIP3    H211188   4.371   5.488   2.317  0.8420 -1.0917 -0.9073
 3743TIP3   OH211189   3.577   0.878   5.795  0.4603 -0.0040 -0.6155
 3743TIP3    H111190   3.547   0.820   5.725  0.8019 -0.2190 -0.5888
 3743TIP3    H211191   3.516   0.861   5.868  0.9455 -0.8114 -0.3879
 3744TIP3   OH211192   4.969   0.970   5.415 -0.2065 -0.1671  0.0690
 3744TIP3    H111193   5.057   0.992   5.384 -0.5294  0.3221 -0.5031
 3744TIP3    H211194   4.923   0.938   5.337 -0.7187  0.1390  0.2442
 3745TIP3   OH211195   4.999   4.304   2.382  0.2760  0.2250 -0.1240
 3745TIP3    H111196   5.044   4.220   2.391  0.5020  0.4518  0.9263
 3745TIP3    H211197   4.942   4.293   2.306  1.3710 -0.3925 -0.8804
 3746TIP3   OH211198   7.695   4.255   1.135  0.6123  0.5406  0.6798
 3746TIP3    H111199   7.689   4.273   1.229 -0.7246  1.6022  0.3990
 3746TIP3    H211200   7.682   4.161   1.127  0.5478  0.4754  1.5453
 3747TIP3   OH211201   4.023   1.035   5.985 -0.2852 -0.4136 -0.7739
 3747TIP3    H111202   3.970   0.973   6.035  0.3014  1.3281  2.0930
 3747TIP3    H211203   3.976   1.118   5.991  0.6847  0.2219 -1.6962
 3748TIP3   OH211204   6.890   4.186   0.040  1.0124  0.2155 -0.3451
 3748TIP3    H111205   6.962   4.202  -0.020  0.1417 -0.6840 -1.6458
 3748TIP3    H211206   6.812   4.189  -0.014  0.3606 -2.4313  0.3835
 3749TIP3   OH211207   6.001   5.189   2.244  0.4619 -0.5770 -0.5927
 3749TIP3    H111208   5.920   5.167   2.198 -0.3895  0.7841  0.2344
 3749TIP3    H211209   5.972   5.217   2.331  1.7909  0.4666 -0.4790
 3750TIP3   OH211210   7.735   3.480   2.408  0.0542  0.5398 -0.1446
 3750TIP3    H111211   7.775   3.415   2.349 -1.8645 -0.2982 -0.5564
 3750TIP3    H211212   7.687   3.428   2.472 -1.4881  1.5477 -0.4696
 3751TIP3   OH211213   6.467   5.678   1.682  0.1305  0.0857  0.0420
 3751TIP3    H111214   6.457   5.594   1.637 -0.2917  0.2007 -0.0871
 3751TIP3    H211215   6.396   5.679   1.746 -0.0171  0.4511 -0.1283
 3752TIP3   OH211216   5.447   4.585   4.045 -0.0141 -0.1689  0.2161
 3752TIP3    H111217   5.492   4.502   4.030  1.4106  0.7172 -0.5369
 3752TIP3    H211218   5.376   4.586   3.980  0.2605 -0.5738 -0.0933
 3753TIP3   OH211219   5.919   5.163   0.454 -0.0373 -0.6221 -0.2386
 3753TIP3    H111220   5.920   5.084   0.399 -0.2252 -0.4727 -0.4558
 3753TIP3    H211221   5.871   5.228   0.402 -0.5428 -0.5959  0.2579
 3754TIP3   OH211222   4.745   4.508   1.339  0.4833  0.0432  0.1546
 3754TIP3    H111223   4.710   4.436   1.286  1.3354  0.1744 -0.5889
 3754TIP3    H211224   4.720   4.587   1.291  0.9020  0.1789  0.1606
 3755TIP3   OH211225   6.521   3.963   0.840 -0.1154 -0.0589 -0.0978
 3755TIP3    H111226   6.427   3.941   0.838 -0.0274 -0.9456  2.9739
 3755TIP3    H211227   6.564   3.878   0.846  0.8173  0.4286  0.0542
 3756TIP3   OH211228   5.428   3.140   2.049 -0.1353  0.0752 -0.5835
 3756TIP3    H111229   5.461   3.067   1.996 -0.5197 -0.5559  0.0497
 3756TIP3    H211230   5.333   3.129   2.049 -0.3398  1.5896 -1.9527
 3757TIP3   OH211231   7.213   2.651   0.305  0.4803  0.4178  0.2991
 3757TIP3    H111232   7.238   2.581   0.246  0.6223  1.4512 -0.8845
 3757TIP3    H211233   7.126   2.627   0.336  0.8567 -0.6731  0.5368
 3758TIP3   OH211234   5.606   5.828   1.001  0.1890 -0.1946  0.0162
 3758TIP3    H111235   5.545   5.772   0.954  0.5440 -1.7498  1.3882
 3758TIP3    H211236   5.687   5.778   1.006  0.4376  0.3330  1.4776
 3759TIP3   OH211237   7.020   5.115   2.475  0.1597  0.1745  0.3373
 3759TIP3    H111238   6.945   5.066   2.442  0.3067 -0.5146  0.9919
 3759TIP3    H211239   7.032   5.187   2.413 -2.0815  1.2823  1.1508
 3760TIP3   OH211240   0.970   5.925   2.587  0.6846  0.6228 -0.5902
 3760TIP3    H111241   1.023   6.000   2.563  0.7277  0.7429 -0.1250
 3760TIP3    H211242   0.881   5.948   2.559  0.5663  1.1518  0.2025
 3761TIP3   OH211243   5.884   3.828   2.599  0.4008  0.1119  0.3314
 3761TIP3    H111244   5.810   3.884   2.575 -0.3080 -0.7286  0.5598
 3761TIP3    H211245   5.850   3.771   2.668  1.0272 -0.8209 -0.1239
 3762TIP3   OH211246   0.872   3.304   3.331  0.7751 -0.7662 -0.1988
 3762TIP3    H111247   0.964   3.325   3.311 -0.1336  3.1207 -0.6347
 3762TIP3    H211248   0.838   3.269   3.249  1.0726  0.7969 -1.0191
 3763TIP3   OH211249   6.818   3.652   2.494 -0.6470 -0.5586  0.0175
 3763TIP3    H111250   6.761   3.576   2.492 -0.6613 -0.5839  1.2572
 3763TIP3    H211251   6.801   3.693   2.579 -0.1654  0.4581 -0.3724
 3764TIP3   OH211252   7.008   3.385   1.277 -0.2003 -0.3270 -0.0977
 3764TIP3    H111253   6.961   3.369   1.195  0.0940 -1.1947 -0.0989
 3764TIP3    H211254   7.039   3.299   1.304  1.6983  0.2739 -0.2701
 3765TIP3   OH211255   4.148   1.326   6.113  0.1580 -0.0435  0.5141
 3765TIP3    H111256   4.119   1.290   6.029 -0.0902 -0.0274  0.5929
 3765TIP3    H211257   4.106   1.412   6.118  1.3396  0.5825 -0.0176
 3766TIP3   OH211258   5.882   3.637   3.254 -0.9305 -0.0077  0.5415
 3766TIP3    H111259   5.813   3.702   3.264  1.1533  2.4995 -0.9612
 3766TIP3    H211260   5.909   3.643   3.163  1.5382 -0.6732  1.1856
 3767TIP3   OH211261   5.959   3.715   1.024  0.4068  0.2083 -0.1929
 3767TIP3    H111262   5.966   3.779   1.095  0.8712  0.3014 -0.3194
 3767TIP3    H211263   5.937   3.767   0.946 -1.5704 -0.0685  0.1721
 3768TIP3   OH211264   3.917   5.029   2.527 -0.2687  0.2834  0.8680
 3768TIP3    H111265   3.998   4.990   2.559 -0.7730 -0.4275  1.2741
 3768TIP3    H211266   3.853   5.011   2.595 -1.1322 -0.4723 -0.1366
 3769TIP3   OH211267   5.393   3.173   0.801 -0.3495  0.1621 -0.2004
 3769TIP3    H111268   5.409   3.258   0.759  2.4785 -0.3310 -0.2069
 3769TIP3    H211269   5.341   3.124   0.738 -0.7776  1.3586 -0.8014
 3770TIP3   OH211270   6.473   4.300   1.394 -0.3194 -0.3792  0.0836
 3770TIP3    H111271   6.515   4.233   1.340 -1.2837 -1.2733  0.4379
 3770TIP3    H211272   6.437   4.362   1.332  1.4049  0.3409 -0.2364
 3771TIP3   OH211273   1.169   1.323   5.204  0.1558 -0.0215  0.3475
 3771TIP3    H111274   1.170   1.281   5.118  2.8283 -0.3759  0.5104
 3771TIP3    H211275   1.184   1.416   5.186 -0.6082  0.0980  0.3346
 3772TIP3   OH211276   2.218   4.856   0.684 -0.4951  0.4720  0.0965
 3772TIP3    H111277   2.300   4.817   0.654 -1.0862 -0.4507 -0.3475
 3772TIP3    H211278   2.164   4.862   0.604 -1.3586 -0.2025  0.6173
 3773TIP3   OH211279   2.660   5.918   2.536  0.3809 -0.5677 -0.4003
 3773TIP3    H111280   2.700   5.917   2.623 -0.6553 -0.3210  0.0777
 3773TIP3    H211281   2.693   5.999   2.496 -0.1362 -0.0387  0.2277
 3774TIP3   OH211282   5.783   5.642   2.547 -0.4830  0.0840 -0.7457
 3774TIP3    H111283   5.859   5.613   2.596 -0.4975 -0.8270 -1.2466
 3774TIP3    H211284   5.721   5.570   2.554 -0.6695  0.1417 -1.6871
 3775TIP3   OH211285   7.621   3.693   1.258  0.2102 -0.1153 -0.5312
 3775TIP3    H111286   7.698   3.693   1.202 -0.4820 -2.4691 -1.5321
 3775TIP3    H211287   7.547   3.689   1.197 -0.5945 -1.3393  0.5162
 3776TIP3   OH211288   7.038   5.021   1.917  0.1485 -0.3595 -0.3365
 3776TIP3    H111289   7.133   5.029   1.919  0.0141  1.1781  0.3566
 3776TIP3    H211290   7.017   4.964   1.991  0.4765 -0.2041 -0.1233
 3777TIP3   OH211291   4.000   5.324   3.705  0.4871 -1.1192  0.0338
 3777TIP3    H111292   4.065   5.321   3.775  0.3153  1.4498  0.3461
 3777TIP3    H211293   3.916   5.311   3.750  0.4685 -0.5948  0.1510
 3778TIP3   OH211294   7.382   4.972   2.111 -0.2811 -0.1518 -0.0087
 3778TIP3    H111295   7.316   4.909   2.141 -0.5699  0.1838  0.0667
 3778TIP3    H211296   7.345   5.008   2.030 -0.0753 -0.1454 -0.0996
 3779TIP3   OH211297   7.103   4.629   2.908 -0.5261 -0.7931  0.0467
 3779TIP3    H111298   7.042   4.678   2.964  0.6696  0.0603  0.6236
 3779TIP3    H211299   7.188   4.636   2.953  0.3423 -0.5389 -1.6043
 3780TIP3   OH211300   6.015   4.755   1.386  0.1906 -0.3325  0.0341
 3780TIP3    H111301   6.060   4.683   1.342  2.8048  0.8748  0.5875
 3780TIP3    H211302   5.950   4.785   1.323  1.2127 -1.1607 -1.4394
 3781TIP3   OH211303   4.918   6.334   0.333 -0.7264 -0.6999 -0.0729
 3781TIP3    H111304   4.888   6.286   0.410 -1.2884 -2.7862 -1.5366
 3781TIP3    H211305   4.839   6.345   0.280 -0.2783  0.4073 -0.5279
 3782TIP3   OH211306   0.510   4.495   5.258 -0.1078  0.2262  0.0549
 3782TIP3    H111307   0.416   4.483   5.243  0.1896 -1.0317 -0.8401
 3782TIP3    H211308   0.515   4.547   5.338 -1.5638 -0.0574  0.3337
 3783TIP3   OH211309   2.927   0.234   5.927  0.0464 -0.2703 -0.3363
 3783TIP3    H111310   2.838   0.260   5.905 -0.5314  0.2889  2.4492
 3783TIP3    H211311   2.983   0.306   5.899 -0.9314  1.5212  2.1436
 3784TIP3   OH211312   7.021   4.296   1.589  0.0670 -0.1539  0.1096
 3784TIP3    H111313   7.003   4.387   1.613  1.0949 -0.0156  0.3576
 3784TIP3    H211314   7.019   4.249   1.672  1.3041 -0.0610  0.1961
 3785TIP3   OH211315   4.072   4.381   1.741  0.0976  0.3580 -0.1316
 3785TIP3    H111316   4.049   4.290   1.758  1.6069  0.0779  0.4516
 3785TIP3    H211317   4.168   4.383   1.744  0.1219  1.7156 -1.4133
 3786TIP3   OH211318   5.023   6.454   1.087 -0.0008 -0.4102  0.0027
 3786TIP3    H111319   5.036   6.544   1.057  2.0365 -0.8379 -0.5320
 3786TIP3    H211320   4.955   6.459   1.154 -2.1393  1.0754 -2.1969
 3787TIP3   OH211321   4.130   5.087   1.460 -0.2054  0.4262 -0.2594
 3787TIP3    H111322   4.172   5.001   1.450 -0.3431  0.3629 -0.2924
 3787TIP3    H211323   4.170   5.141   1.392 -0.3422  0.3015 -0.4395
 3788TIP3   OH211324   7.174   3.781   0.274 -0.4335 -0.0338 -0.6669
 3788TIP3    H111325   7.128   3.704   0.241  0.7047 -0.4251 -1.3657
 3788TIP3    H211326   7.107   3.851   0.273 -1.3744 -0.9172 -0.3406
 3789TIP3   OH211327   6.536   2.767   0.066  0.5159  0.5040 -0.0561
 3789TIP3    H111328   6.555   2.859   0.048  1.9415  0.2039 -0.1555
 3789TIP3    H211329   6.603   2.740   0.128 -0.1005 -0.3863  0.2397
 3790TIP3   OH211330   7.503   3.817   3.075  0.5547 -0.2896  0.1591
 3790TIP3    H111331   7.470   3.739   3.121  1.1823 -0.0163  1.0847
 3790TIP3    H211332   7.498   3.794   2.982 -0.1869 -1.0686  0.3838
 3791TIP3   OH211333   7.273   1.939   1.121 -0.1274 -0.2231  0.0477
 3791TIP3    H111334   7.181   1.951   1.098 -0.1414 -3.1179 -1.6344
 3791TIP3    H211335   7.273   1.865   1.181  1.1005 -0.2058  0.0751
 3792TIP3   OH211336   6.080   2.790   1.974 -0.1307  0.1788 -0.2362
 3792TIP3    H111337   6.152   2.767   1.916  1.2602  2.6368  0.4505
 3792TIP3    H211338   6.054   2.878   1.947 -2.0318 -0.1753  0.3658
 3793TIP3   OH211339   0.517   4.087   3.367  0.2069 -0.4406  0.3516
 3793TIP3    H111340   0.573   4.128   3.433 -0.3466  0.6923  0.1334
 3793TIP3    H211341   0.578   4.058   3.299  0.5991  0.1016  0.4692
 3794TIP3   OH211342   7.226   3.567  -0.025  0.1182 -0.3615 -0.2190
 3794TIP3    H111343   7.247   3.495   0.034 -0.4306  0.0537  0.4887
 3794TIP3    H211344   7.150   3.609   0.015  0.7842  0.9605 -0.3395
 3795TIP3   OH211345   6.410   4.433   1.171  0.4653  0.2030  0.2485
 3795TIP3    H111346   6.319   4.460   1.176  0.5875  0.3664  1.9237
 3795TIP3    H211347   6.454   4.503   1.123 -0.3953 -0.2058 -1.1685
 3796TIP3   OH211348   5.405   3.942   3.284  0.3430  0.4070  0.1280
 3796TIP3    H111349   5.395   4.037   3.290 -0.0350  0.3565  0.2802
 3796TIP3    H211350   5.317   3.910   3.265  0.4026  0.0555  0.4419
 3797TIP3   OH211351   5.735   4.783   3.053 -0.1269  0.5078  0.1871
 3797TIP3    H111352   5.774   4.777   3.141 -0.6040 -1.7925  0.2799
 3797TIP3    H211353   5.669   4.852   3.061 -0.5650 -0.0721  1.8193
 3798TIP3   OH211354   1.040   7.092   5.936 -0.3051 -0.1497  0.5348
 3798TIP3    H111355   1.056   7.160   5.871 -0.4438  0.1298  0.7924
 3798TIP3    H211356   0.951   7.109   5.967 -0.2354 -0.2705  0.8052
 3799TIP3   OH211357   6.706   4.691   2.643 -0.2848 -0.1805 -0.1496
 3799TIP3    H111358   6.626   4.673   2.595 -1.2662  0.7551  1.0939
 3799TIP3    H211359   6.746   4.605   2.656 -2.3625 -0.9608  1.3773
 3800TIP3   OH211360   6.718   4.386   2.114  0.1930  0.3072  0.5232
 3800TIP3    H111361   6.663   4.308   2.115  0.9176 -0.2178 -0.3998
 3800TIP3    H211362   6.755   4.389   2.025 -0.6193  2.2440  0.2273
 3801TIP3   OH211363   3.693   0.797   0.885 -0.2298  0.2206  0.1161
 3801TIP3    H111364   3.716   0.855   0.957  1.3305  1.1570 -1.0870
 3801TIP3    H211365   3.729   0.712   0.911  1.6644  0.8888 -0.1746
 3802TIP3   OH211366   5.754   4.518   1.710 -0.0149  0.4200  0.2661
 3802TIP3    H111367   5.794   4.495   1.794 -1.9018 -1.4225  0.6797
 3802TIP3    H211368   5.808   4.591   1.678  1.0890  0.7719  2.7756
 3803TIP3   OH211369   6.153   6.501   2.186  0.5242  0.0498  0.1536
 3803TIP3    H111370   6.180   6.411   2.204  0.4455 -0.2190 -1.0325
 3803TIP3    H211371   6.069   6.511   2.230  0.0542 -0.7850 -0.5329
 3804TIP3   OH211372   7.067   3.768   2.815  0.2611  0.5185 -0.5690
 3804TIP3    H111373   7.118   3.849   2.818  0.4582  0.3747 -0.0480
 3804TIP3    H211374   7.116   3.712   2.755  1.4091 -0.0824  0.8830
 3805TIP3   OH211375   5.067   4.476   1.706  0.1759  0.2184  0.9897
 3805TIP3    H111376   5.043   4.454   1.796  0.0294  0.2448  0.9572
 3805TIP3    H211377   4.984   4.485   1.660  0.2307  1.3108  1.1123
 3806TIP3   OH211378   7.562   5.470   1.011  0.0358  0.5075 -0.2924
 3806TIP3    H111379   7.607   5.513   0.939  0.7930 -0.3750 -0.3517
 3806TIP3    H211380   7.481   5.437   0.972 -0.1003  1.0290 -0.4646
 3807TIP3   OH211381   4.962   2.877   2.037  0.0633 -0.1455  0.1160
 3807TIP3    H111382   4.920   2.924   1.966 -0.3313  1.8465  1.6065
 3807TIP3    H211383   4.916   2.794   2.043  0.5099 -0.5838 -2.3214
 3808TIP3   OH211384   4.578   5.659   3.459  0.0534 -0.1914  0.1242
 3808TIP3    H111385   4.625   5.730   3.416  0.1834 -0.5371 -0.3056
 3808TIP3    H211386   4.562   5.691   3.548  1.1687 -0.1028  0.2944
 3809TIP3   OH211387   5.305   3.275   2.291  0.4528 -0.3902 -0.1362
 3809TIP3    H111388   5.336   3.256   2.203  1.1797 -3.0915  0.6610
 3809TIP3    H211389   5.384   3.274   2.345  0.3239  3.3671  0.3071
 3810TIP3   OH211390   2.560   0.060   0.693 -0.2116  0.4210  0.1467
 3810TIP3    H111391   2.647   0.054   0.734  0.0061 -0.2595 -0.4110
 3810TIP3    H211392   2.541  -0.029   0.663 -1.1997  0.5219  0.4573
 3811TIP3   OH211393   5.410   4.041   1.881  0.3516  0.9406  0.1997
 3811TIP3    H111394   5.402   3.996   1.797 -1.4239  0.8909  0.3700
 3811TIP3    H211395   5.337   4.103   1.882 -0.3049  0.1772  2.1461
 3812TIP3   OH211396   6.059   6.907   4.511  0.1518 -0.0383 -0.1404
 3812TIP3    H111397   6.073   7.002   4.514 -0.0066  0.0025 -0.5345
 3812TIP3    H211398   6.136   6.870   4.553  0.4099  0.2534 -0.3502
 3813TIP3   OH211399   2.769   5.783   2.071 -0.1449 -0.3839 -0.1422
 3813TIP3    H111400   2.702   5.753   2.011 -0.0521 -0.2565 -0.3111
 3813TIP3    H211401   2.831   5.710   2.077 -0.6283 -0.7410  0.5068
 3814TIP3   OH211402   4.937   5.380   1.699  0.6903  0.2164 -0.4774
 3814TIP3    H111403   4.998   5.367   1.771  1.1842  1.2483 -0.7052
 3814TIP3    H211404   4.853   5.396   1.742  1.3345  2.6899 -0.0656
 3815TIP3   OH211405   6.099   4.205   3.256 -0.2512 -0.0362  0.2976
 3815TIP3    H111406   6.050   4.123   3.254  0.4679 -0.4523 -0.7232
 3815TIP3    H211407   6.168   4.193   3.190 -0.8992  1.8646 -0.7529
 3816TIP3   OH211408   0.028   2.704   2.119  0.1142 -0.3120 -0.1933
 3816TIP3    H111409  -0.011   2.646   2.054 -1.4327 -1.7183  1.8972
 3816TIP3    H211410  -0.015   2.679   2.201  3.1259  0.3649  1.6378
 3817TIP3   OH211411   6.672   3.843   1.159  0.4883 -0.5131  0.3258
 3817TIP3    H111412   6.735   3.812   1.224  2.2780 -1.3974 -1.8190
 3817TIP3    H211413   6.680   3.782   1.086 -1.0400  0.8585 -1.0199
 3818TIP3   OH211414   0.345   7.035   6.245 -0.1384 -0.4010  0.3170
 3818TIP3    H111415   0.375   7.059   6.157  1.5557  2.5987  1.6612
 3818TIP3    H211416   0.405   6.965   6.272  0.1740 -0.4066 -0.3666
 3819TIP3   OH211417   5.708   2.097   2.992  0.1103 -0.2789  0.5159
 3819TIP3    H111418   5.726   2.181   2.948 -0.7769 -0.2303  0.2422
 3819TIP3    H211419   5.795   2.065   3.019  0.4044  1.0308  1.1799
 3820TIP3   OH211420   4.422   3.755   3.251  0.3810 -0.4555  0.0107
 3820TIP3    H111421   4.408   3.747   3.157  1.0492  0.4578 -0.1704
 3820TIP3    H211422   4.507   3.714   3.266 -0.2206 -1.6138  0.3988
 3821TIP3   OH211423   3.904   3.188   1.238  0.0429 -0.4868 -0.2735
 3821TIP3    H111424   3.992   3.209   1.269 -0.3744  0.0960  0.5408
 3821TIP3    H211425   3.900   3.092   1.236  1.1390 -0.5203 -1.6195
 3822TIP3   OH211426   6.454   3.348   0.406 -0.2993 -0.0494  0.2040
 3822TIP3    H111427   6.427   3.270   0.357  0.2036 -0.1813  0.1410
 3822TIP3    H211428   6.371   3.387   0.434 -0.5866 -0.1391 -0.4896
 3823TIP3   OH211429   4.968   5.158   0.297  0.9706 -0.3829  0.0452
 3823TIP3    H111430   5.013   5.073   0.299  1.1507 -0.2901  0.0451
 3823TIP3    H211431   5.038   5.221   0.279  1.0630 -0.0985  1.2985
 3824TIP3   OH211432   3.689   2.329   1.211  0.2766  0.3486 -0.1830
 3824TIP3    H111433   3.621   2.335   1.144  1.2496  0.3896 -1.1897
 3824TIP3    H211434   3.650   2.368   1.289 -0.3994  1.5600 -1.1087
 3825TIP3   OH211435   5.592   2.795   1.150 -0.0952 -0.1966 -0.3798
 3825TIP3    H111436   5.608   2.701   1.153  0.3348 -0.0974  0.4120
 3825TIP3    H211437   5.524   2.805   1.084 -0.2329 -1.0736 -0.3780
 3826TIP3   OH211438   6.175   5.280   0.415  0.4377  0.1271 -0.2452
 3826TIP3    H111439   6.105   5.214   0.418  0.3679  0.1919 -0.4558
 3826TIP3    H211440   6.238   5.250   0.481 -0.8130  1.2239  1.4899
 3827TIP3   OH211441   4.593   2.743   0.735  0.1252 -0.0717 -0.3158
 3827TIP3    H111442   4.611   2.775   0.647  2.2619  3.4083  1.2796
 3827TIP3    H211443   4.498   2.751   0.746 -0.1686 -0.6452 -2.2772
 3828TIP3   OH211444   6.516   2.088   3.943  0.5678  0.0807  0.2197
 3828TIP3    H111445   6.498   1.995   3.930  0.6811 -0.1122  1.3904
 3828TIP3    H211446   6.429   2.128   3.951  0.5072  0.1512 -0.7636
 3829TIP3   OH211447   6.554   2.893   3.532  0.5742  0.3761 -0.6309
 3829TIP3    H111448   6.621   2.911   3.466  1.7024  0.3888  0.5014
 3829TIP3    H211449   6.562   2.800   3.551  0.0816  0.3179 -0.6897
 3830TIP3   OH211450   4.502   3.302   2.193  0.5899 -0.0830  0.2571
 3830TIP3    H111451   4.523   3.367   2.260 -0.8401  0.7355 -0.0637
 3830TIP3    H211452   4.495   3.353   2.112 -1.2763 -0.5075  0.1265
 3831TIP3   OH211453   7.731   3.308   2.687  0.2107 -0.0942 -0.0244
 3831TIP3    H111454   7.648   3.303   2.639 -0.1003 -1.9698  0.7114
 3831TIP3    H211455   7.719   3.381   2.748 -0.9695 -0.5115  0.2441
 3832TIP3   OH211456   7.131   6.305   2.171  0.3893  0.1228  0.4395
 3832TIP3    H111457   7.118   6.347   2.086  1.1328 -0.2548  0.1385
 3832TIP3    H211458   7.176   6.223   2.151 -0.1633 -0.3545  1.1202
 3833TIP3   OH211459   0.037   4.232   0.889  0.6345 -0.3335  0.2650
 3833TIP3    H111460  -0.029   4.168   0.863 -0.2277  1.3598 -1.8557
 3833TIP3    H211461  -0.001   4.278   0.964 -1.9841  2.6858 -2.7907
 3834TIP3   OH211462   6.213   6.117   2.096 -0.4245  0.5598  0.4977
 3834TIP3    H111463   6.180   6.165   2.172  1.8699  3.0539  0.0141
 3834TIP3    H211464   6.252   6.185   2.040  1.9502 -1.7445 -0.7710
 3835TIP3   OH211465   5.495   3.851   1.334 -0.3414  0.0230 -0.3310
 3835TIP3    H111466   5.509   3.926   1.276  1.7228 -0.3440 -0.3400
 3835TIP3    H211467   5.583   3.816   1.350 -1.3727 -3.2120 -1.4026
 3836TIP3   OH211468   4.313   3.574   1.626  0.2841  0.2028  0.2109
 3836TIP3    H111469   4.241   3.515   1.603 -0.6283  1.3898  0.0068
 3836TIP3    H211470   4.304   3.587   1.721 -0.6738  1.5121 -0.0430
 3837TIP3   OH211471   0.258   3.756   0.798 -0.0525  0.9004  0.3573
 3837TIP3    H111472   0.258   3.758   0.893  1.2041 -0.5628  0.4017
 3837TIP3    H211473   0.329   3.815   0.772  0.1885  0.6184  0.3641
 3838TIP3   OH211474   0.247   4.877   2.299 -0.1395 -0.1049 -0.1284
 3838TIP3    H111475   0.178   4.920   2.249  1.5154  0.1793 -2.1923
 3838TIP3    H211476   0.219   4.785   2.304  0.3289 -0.4306 -2.7968
 3839TIP3   OH211477   6.162   4.598   1.765  0.0630 -0.2597  0.3755
 3839TIP3    H111478   6.239   4.653   1.783  0.6913 -1.2918  0.8932
 3839TIP3    H211479   6.109   4.605   1.844 -0.6794  0.9291 -0.2150
 3840TIP3   OH211480   5.667   0.047   5.663 -0.0962  0.4661 -0.3205
 3840TIP3    H111481   5.659   0.030   5.757 -0.3246  0.4124 -0.3482
 3840TIP3    H211482   5.639  -0.035   5.622 -1.7941  1.0854 -0.4648
 3841TIP3   OH211483   1.017   5.183   1.719 -0.0870  0.0233  0.1138
 3841TIP3    H111484   1.047   5.092   1.715 -2.0128 -0.6045 -0.6634
 3841TIP3    H211485   0.995   5.197   1.811  1.2073  0.0411  0.4251
 3842TIP3   OH211486   0.089   5.998   2.345  0.1792  0.1280 -0.4348
 3842TIP3    H111487   0.157   6.065   2.335  1.7934 -1.1872  1.2619
 3842TIP3    H211488   0.136   5.915   2.336 -1.0868 -0.8237  1.4255
 3843TIP3   OH211489   6.847   5.154   1.095 -0.1751 -1.0882 -0.3610
 3843TIP3    H111490   6.887   5.227   1.143  0.2959 -1.1503 -0.6617
 3843TIP3    H211491   6.816   5.194   1.013 -3.2419 -0.4331  1.0417
 3844TIP3   OH211492   6.686   5.461   0.533 -0.1731  0.0633 -0.6407
 3844TIP3    H111493   6.677   5.409   0.613  0.9006 -0.6575 -0.9699
 3844TIP3    H211494   6.621   5.531   0.541 -1.3982 -1.1479 -0.0471
 3845TIP3   OH211495   0.309   5.004   0.841 -0.0301  0.1071  0.1385
 3845TIP3    H111496   0.295   5.061   0.765  1.5389 -1.3562 -1.2763
 3845TIP3    H211497   0.370   5.053   0.896  3.2098 -1.1040 -2.1964
 3846TIP3   OH211498   6.117   5.770   6.072 -0.2519  0.1141 -0.1173
 3846TIP3    H111499   6.110   5.716   6.151 -1.5744 -0.3693 -0.5505
 3846TIP3    H211500   6.208   5.801   6.071 -0.0506 -0.4284  1.2297
 3847TIP3   OH211501   0.859   6.231   3.249  0.1609  0.4817 -0.3832
 3847TIP3    H111502   0.791   6.283   3.292  0.7433  1.1273 -0.2318
 3847TIP3    H211503   0.924   6.216   3.317  0.8050  1.0076 -0.8692
 3848TIP3   OH211504   0.470   3.140   1.299 -0.2814 -0.6732  0.2455
 3848TIP3    H111505   0.413   3.217   1.296 -0.8194 -1.0775 -0.0320
 3848TIP3    H211506   0.557   3.174   1.283 -0.4073 -0.0128  0.9203
 3849TIP3   OH211507   3.994   2.170   6.170  0.0972 -0.4403  0.1598
 3849TIP3    H111508   4.024   2.175   6.080 -1.5781 -0.7473 -0.4331
 3849TIP3    H211509   3.963   2.258   6.191 -2.0115 -0.9967 -0.4833
 3850TIP3   OH211510   1.114   7.246   1.810 -0.4464  0.1604 -0.2024
 3850TIP3    H111511   1.144   7.202   1.731  0.0461  0.2342 -0.0594
 3850TIP3    H211512   1.026   7.210   1.826 -0.4167 -0.0883 -0.5983
 3851TIP3   OH211513   4.274   2.174   6.211  0.0742 -0.1456  0.0126
 3851TIP3    H111514   4.181   2.154   6.215 -0.4585  1.5249 -2.7865
 3851TIP3    H211515   4.293   2.220   6.294 -1.9686  1.0220 -0.1486
 3852TIP3   OH211516   7.528   3.544   0.853 -0.0087 -0.7313 -0.6624
 3852TIP3    H111517   7.474   3.586   0.920  1.7152 -2.1101  1.6603
 3852TIP3    H211518   7.611   3.592   0.856  0.0604 -0.7625 -1.8626
 3853TIP3   OH211519   0.110   5.728   2.676 -0.0686 -0.2568 -0.2095
 3853TIP3    H111520   0.021   5.734   2.641  0.5992  1.0936 -1.7610
 3853TIP3    H211521   0.136   5.637   2.660 -0.7786 -0.3715 -0.7420
 3854TIP3   OH211522   6.117   5.545   0.320  0.3914 -0.3991 -0.1831
 3854TIP3    H111523   6.153   5.460   0.344 -1.3880 -0.7822  1.2820
 3854TIP3    H211524   6.032   5.526   0.280  0.0349  0.6632  0.0340
 3855TIP3   OH211525   6.419   4.819   0.357  0.2358  0.0275 -0.2461
 3855TIP3    H111526   6.503   4.798   0.397  0.0686  0.1422  0.1641
 3855TIP3    H211527   6.383   4.734   0.331  0.0729 -0.0999  0.3902
 3856TIP3   OH211528   7.700   5.279   1.529 -0.1770  0.2559  0.3487
 3856TIP3    H111529   7.763   5.327   1.476  0.5335 -2.0459 -0.9513
 3856TIP3    H211530   7.640   5.240   1.466  0.1182 -1.7299  1.2430
 3857TIP3   OH211531   7.474   3.022   2.000  0.3052  0.7091  0.2411
 3857TIP3    H111532   7.411   3.090   1.978  1.7485  1.5259 -1.4235
 3857TIP3    H211533   7.454   2.950   1.940  0.7671  0.8667 -0.1074
 3858TIP3   OH211534   7.541   2.564   2.606  0.1491  0.4140 -0.2315
 3858TIP3    H111535   7.604   2.562   2.678 -1.6100 -1.2504  1.3161
 3858TIP3    H211536   7.463   2.603   2.643 -0.6067  0.0523 -1.4096
 3859TIP3   OH211537   5.936   5.176   1.277  0.0371  0.0270 -0.6309
 3859TIP3    H111538   6.002   5.173   1.208  0.5017 -1.0994 -0.1532
 3859TIP3    H211539   5.866   5.119   1.244  0.9519 -1.8187  0.4974
 3860TIP3   OH211540   1.516   2.337   1.026 -0.3699  0.6457  0.4501
 3860TIP3    H111541   1.437   2.308   1.072  0.7350 -1.0234  1.3549
 3860TIP3    H211542   1.497   2.322   0.934 -0.9279 -0.2614  0.7042
 3861TIP3   OH211543   6.920   6.878   3.578  0.3543  0.2820 -0.5545
 3861TIP3    H111544   6.872   6.800   3.551  0.7974  0.6829 -2.6112
 3861TIP3    H211545   7.004   6.844   3.610 -0.1729 -0.2133  0.3110
 3862TIP3   OH211546   7.824   3.981   1.564  0.0495 -0.2042  0.0251
 3862TIP3    H111547   7.763   3.908   1.563  0.5127 -0.5813 -0.6542
 3862TIP3    H211548   7.769   4.058   1.583 -0.4182 -0.7275  0.8301
 3863TIP3   OH211549   5.544   5.167   1.057 -0.2351 -0.2790  0.6594
 3863TIP3    H111550   5.591   5.238   1.014  0.4569 -0.1670  1.5686
 3863TIP3    H211551   5.498   5.210   1.130 -2.2580 -0.2874 -0.5763
 3864TIP3   OH211552   0.881   3.104   0.774 -0.0298 -0.3342 -0.3009
 3864TIP3    H111553   0.821   3.146   0.835 -0.7460  3.8781 -3.6431
 3864TIP3    H211554   0.828   3.040   0.728 -0.7508 -0.0646  0.1512
 3865TIP3   OH211555   0.233   5.404   1.965 -0.4141  0.5018  0.0953
 3865TIP3    H111556   0.267   5.406   1.875  1.2848  0.9910  0.7345
 3865TIP3    H211557   0.172   5.477   1.970 -1.1674 -0.0385 -0.8987
 3866TIP3   OH211558   5.343   5.045   1.393  0.1291 -0.4769  0.5662
 3866TIP3    H111559   5.252   5.015   1.397 -0.3265  0.4147 -2.2681
 3866TIP3    H211560   5.338   5.129   1.346  2.6006 -1.1641 -0.9827
 3867TIP3   OH211561   7.061   2.628   1.017  0.5317  0.4717 -0.0559
 3867TIP3    H111562   7.047   2.659   1.106 -1.3555  1.1765 -0.5698
 3867TIP3    H211563   6.975   2.634   0.976  1.8701  2.6766 -2.6999
 3868TIP3   OH211564   6.219   3.605   1.011  0.3737  0.3410 -0.3097
 3868TIP3    H111565   6.196   3.521   0.970 -0.1474  0.0058  0.6301
 3868TIP3    H211566   6.135   3.649   1.024  0.2103 -0.7297  2.8067
 3869TIP3   OH211567   0.834   6.107   3.004  0.5765  0.6099  0.3280
 3869TIP3    H111568   0.813   6.148   3.088  0.9144  2.4445 -0.4504
 3869TIP3    H211569   0.750   6.076   2.971  0.4437 -0.1443  1.3466
 3870TIP3   OH211570   6.325   2.089   0.903 -0.2462  0.0948 -0.3046
 3870TIP3    H111571   6.242   2.117   0.864 -0.7774 -0.9614  0.0484
 3870TIP3    H211572   6.300   2.024   0.969  0.7477  0.8851  0.8774
 3871TIP3   OH211573   2.013   4.438   1.968  0.2398 -0.2129 -0.1504
 3871TIP3    H111574   1.935   4.484   2.000  0.7466 -0.6032  1.7171
 3871TIP3    H211575   1.981   4.384   1.896 -2.0623 -3.3237  3.0046
 3872TIP3   OH211576   7.552   4.134   0.812  0.2585 -0.0652  0.1416
 3872TIP3    H111577   7.554   4.048   0.770 -1.2076 -0.3675  0.6777
 3872TIP3    H211578   7.535   4.195   0.740 -3.2862 -0.6752  0.3766
 3873TIP3   OH211579   0.365   5.018   3.415 -0.7953  0.5768  0.1984
 3873TIP3    H111580   0.414   5.078   3.358 -1.7996  1.0103 -0.2159
 3873TIP3    H211581   0.421   5.007   3.492  1.1602 -0.9705 -1.3698
 3874TIP3   OH211582   6.979   4.541   1.690 -0.1788 -0.3825  0.1946
 3874TIP3    H111583   6.948   4.630   1.672 -0.6629 -0.5979 -0.0433
 3874TIP3    H211584   6.961   4.527   1.783  2.2629  0.7124  0.8902
 3875TIP3   OH211585   6.915   3.734   4.796  0.1588 -0.2495  0.8269
 3875TIP3    H111586   6.876   3.730   4.709  0.9399  0.6059  0.4264
 3875TIP3    H211587   7.006   3.757   4.781  0.1205  0.6835  1.9030
 3876TIP3   OH211588   0.401   4.390   0.903 -0.2063 -0.6871  0.1461
 3876TIP3    H111589   0.410   4.392   0.998 -2.0364  0.3231  0.3344
 3876TIP3    H211590   0.343   4.464   0.883 -0.5608 -1.4234 -1.6592
 3877TIP3   OH211591   0.405   6.481   2.625  0.5895  0.4106  0.2368
 3877TIP3    H111592   0.452   6.536   2.563  0.6822  1.8924  1.5715
 3877TIP3    H211593   0.440   6.393   2.612  3.5712  1.4152  1.0211
 3878TIP3   OH211594   6.869   4.130   1.158 -0.2825  0.7923  0.3183
 3878TIP3    H111595   6.794   4.129   1.217  1.3504  0.8833  2.4750
 3878TIP3    H211596   6.929   4.065   1.194  0.5198  0.4401 -1.5816
 3879TIP3   OH211597   5.849   6.095   3.769  0.1527  0.2517 -0.0982
 3879TIP3    H111598   5.775   6.048   3.731 -0.2646  0.7381  0.1019
 3879TIP3    H211599   5.832   6.187   3.748 -1.0102  0.7510  2.7641
 3880TIP3   OH211600   5.288   4.882   0.322  0.0065  0.9803  0.2093
 3880TIP3    H111601   5.256   4.854   0.408  0.7212  0.8567  0.4423
 3880TIP3    H211602   5.300   4.800   0.273 -1.2193  1.1088 -0.2996
 3881TIP3   OH211603   5.617   2.254   5.497 -0.5443  0.8431 -0.4974
 3881TIP3    H111604   5.712   2.253   5.482 -0.2894 -1.4267  1.0987
 3881TIP3    H211605   5.579   2.258   5.410  0.9946  0.2009 -1.2116
 3882TIP3   OH211606   0.083   5.030   2.159  0.1487 -0.2620  0.1987
 3882TIP3    H111607   0.086   5.114   2.206 -0.0068  0.3636 -0.9036
 3882TIP3    H211608   0.008   5.037   2.101  0.2199 -1.1173 -0.0062
 3883TIP3   OH211609   0.058   5.230   0.546 -0.4079 -0.3462 -0.4964
 3883TIP3    H111610   0.000   5.223   0.622 -0.8270  0.5147 -0.7326
 3883TIP3    H211611  -0.000   5.249   0.473  0.2101  0.8997 -0.6741
 3884TIP3   OH211612   3.147   7.071   4.966  0.5181 -0.1413  0.0341
 3884TIP3    H111613   3.175   6.987   5.001  0.9348  0.4860  1.2281
 3884TIP3    H211614   3.208   7.134   5.004 -0.5938  0.8587  0.1646
 3885TIP3   OH211615   0.791   4.575   1.122 -0.9287 -0.5968  0.0548
 3885TIP3    H111616   0.802   4.482   1.103 -1.2897 -0.6332  0.0258
 3885TIP3    H211617   0.701   4.595   1.095 -1.0880 -0.4019  0.7326
 3886TIP3   OH211618   6.997   3.053   0.854  0.4943 -0.0370  0.1422
 3886TIP3    H111619   7.014   3.036   0.761  0.0835 -1.4560  0.3138
 3886TIP3    H211620   6.908   3.090   0.855  0.5972  0.2202 -0.0459
 3887TIP3   OH211621   4.811   1.681   6.332 -0.2295  0.1268 -0.6961
 3887TIP3    H111622   4.721   1.702   6.305 -0.2907 -0.4188 -0.9377
 3887TIP3    H211623   4.808   1.679   6.427 -0.8842 -1.5556 -0.7261
 3888TIP3   OH211624   7.347   3.451   1.486 -0.4825 -0.8405  0.3429
 3888TIP3    H111625   7.264   3.459   1.533 -0.8997 -3.6385  0.1601
 3888TIP3    H211626   7.323   3.418   1.400  0.8258 -1.8187  0.3471
 3889TIP3   OH211627   7.455   1.890   2.615  0.2875  0.2503  0.3101
 3889TIP3    H111628   7.453   1.917   2.523  2.4305  1.3172  0.5342
 3889TIP3    H211629   7.366   1.905   2.646 -0.2541  0.6780 -1.3796
 3890TIP3   OH211630   6.044   4.726   0.722  0.4056  0.0649  0.6269
 3890TIP3    H111631   6.087   4.728   0.808  0.1658  0.5047  0.7369
 3890TIP3    H211632   5.962   4.773   0.736 -0.4287 -1.3494  0.5908
 3891TIP3   OH211633   4.950   5.963   1.864 -0.5136 -0.0344 -0.1455
 3891TIP3    H111634   4.946   6.048   1.819  0.1383  0.1784  0.1947
 3891TIP3    H211635   4.911   5.902   1.801 -1.0809  0.5263 -0.3529
 3892TIP3   OH211636   7.402   4.450   1.978  0.1369  0.8913 -0.3956
 3892TIP3    H111637   7.462   4.380   2.003 -0.8102  1.2171  2.9327
 3892TIP3    H211638   7.452   4.531   1.991 -0.1370  1.0314 -0.2179
 3893TIP3   OH211639   0.068   5.232   1.025  0.5109 -0.0302 -0.3836
 3893TIP3    H111640   0.059   5.233   0.930 -0.2398  1.6769 -0.3093
 3893TIP3    H211641   0.059   5.324   1.051  0.2846 -0.5353  1.3781
 3894TIP3   OH211642   7.376   6.451   2.707 -0.6420  0.0843 -0.1102
 3894TIP3    H111643   7.359   6.393   2.632  0.7178  0.2425 -0.5506
 3894TIP3    H211644   7.444   6.510   2.676  0.2902 -0.1716  1.4248
 3895TIP3   OH211645   0.710   5.327   1.583 -0.3223  0.1089 -0.2446
 3895TIP3    H111646   0.650   5.325   1.658 -2.5357 -0.3670 -2.0024
 3895TIP3    H211647   0.677   5.397   1.527  0.4031 -0.5603 -1.5246
 3896TIP3   OH211648   4.721   0.497   6.335  0.2396  0.5184 -0.2283
 3896TIP3    H111649   4.683   0.576   6.295  0.8041  0.4436 -0.9330
 3896TIP3    H211650   4.720   0.515   6.429 -2.6408  0.0347 -0.1135
 3897TIP3   OH211651   0.474   3.468   0.447  0.0256  0.3275 -0.7373
 3897TIP3    H111652   0.492   3.443   0.356  2.0119 -1.4579  0.0945
 3897TIP3    H211653   0.546   3.526   0.471 -1.2227  1.8800 -0.7086
 3898TIP3   OH211654   7.525   3.876   0.748  0.1691  0.0978  0.5191
 3898TIP3    H111655   7.471   3.833   0.681  1.4007 -1.2378  0.3507
 3898TIP3    H211656   7.612   3.838   0.736  0.8106  1.1449  1.7465
 3899TIP3   OH211657   1.112   2.878   1.241 -0.4498  0.0599  0.1049
 3899TIP3    H111658   1.181   2.902   1.303 -0.0351  0.6632 -0.5845
 3899TIP3    H211659   1.050   2.827   1.293  0.7497 -0.8989  0.6172
 3900TIP3   OH211660   0.724   5.384   3.025  0.6628  0.3463  0.1382
 3900TIP3    H111661   0.810   5.374   2.986  0.5941  0.3379 -0.0129
 3900TIP3    H211662   0.718   5.314   3.090  0.0116 -0.8998 -1.2220
 3901TIP3   OH211663   0.066   6.698   2.966  0.6597  0.0793 -0.3801
 3901TIP3    H111664  -0.028   6.702   2.984  0.5796  2.9605 -1.1739
 3901TIP3    H211665   0.104   6.665   3.047 -0.9232  0.1134  0.4001
 3902TIP3   OH211666   5.111   0.151   5.530  0.0236 -0.5983 -0.1418
 3902TIP3    H111667   5.016   0.141   5.519  0.1941 -0.2157 -2.1145
 3902TIP3    H211668   5.124   0.246   5.530  0.3185 -0.6280  1.1015
 3903TIP3   OH211669   0.358   5.175   2.089  0.0097 -0.7594 -0.0285
 3903TIP3    H111670   0.292   5.244   2.077 -1.1765 -1.6291  1.1770
 3903TIP3    H211671   0.367   5.168   2.184  3.0451  0.4187 -0.1730
 3904TIP3   OH211672   5.096   3.371   1.916 -0.2548  0.5031  0.7267
 3904TIP3    H111673   5.069   3.326   1.836  0.6297 -2.1044  1.8237
 3904TIP3    H211674   5.168   3.428   1.890  0.7410 -1.1336 -0.1738
 3905TIP3   OH211675   3.709   4.325   0.407 -0.2114 -0.7080  0.5781
 3905TIP3    H111676   3.761   4.253   0.371 -0.7640 -0.7095 -0.2228
 3905TIP3    H211677   3.630   4.326   0.355  0.6045  1.7032 -0.6779
 3906TIP3   OH211678   5.233   4.326   5.674 -0.7311  0.0872  0.1762
 3906TIP3    H111679   5.233   4.319   5.769 -0.5118 -1.6905  0.0518
 3906TIP3    H211680   5.301   4.265   5.645  0.5441  2.0162 -1.0298
 3907TIP3   OH211681   5.925   3.966   2.917 -0.4110  0.1096  0.2688
 3907TIP3    H111682   5.920   3.999   3.007  1.1758 -0.6191  0.6361
 3907TIP3    H211683   5.841   3.991   2.878 -1.4041 -0.2065  2.1545
 3908TIP3   OH211684   0.238   3.325   3.721 -0.5213 -0.1391 -0.0069
 3908TIP3    H111685   0.158   3.294   3.762 -0.7986  0.6214  0.0251
 3908TIP3    H211686   0.211   3.356   3.635 -0.5085  1.4913  0.5624
 3909TIP3   OH211687   7.371   3.771   1.784  0.5297  0.2304  0.1425
 3909TIP3    H111688   7.297   3.807   1.735  0.2218 -1.7807 -0.9249
 3909TIP3    H211689   7.331   3.723   1.857  0.7883 -0.3894 -0.1184
 3910TIP3   OH211690   6.937   3.796   0.853  0.4481  0.4102  0.4071
 3910TIP3    H111691   6.893   3.878   0.834  1.9828  1.0945 -0.3454
 3910TIP3    H211692   6.884   3.729   0.809 -1.2065  0.9015  1.6481
 3911TIP3   OH211693   6.694   3.009   1.504 -0.5222 -0.0109  0.2650
 3911TIP3    H111694   6.604   2.979   1.495 -0.1738 -0.9792 -0.1115
 3911TIP3    H211695   6.739   2.972   1.428  0.1301  0.7087  0.2930
 3912TIP3   OH211696   1.898   6.313   6.210  0.5222 -0.4121  0.8907
 3912TIP3    H111697   1.891   6.405   6.183  0.6609 -0.8580 -0.7161
 3912TIP3    H211698   1.837   6.305   6.284 -0.0058  0.8095  0.6045
 3913TIP3   OH211699   4.510   7.100   2.413  0.2756 -0.5167  0.6962
 3913TIP3    H111700   4.552   7.067   2.493  1.5485  0.6871  0.5362
 3913TIP3    H211701   4.454   7.171   2.444  0.0764 -0.6424  0.6244
 3914TIP3   OH211702   6.194   5.803   3.165  0.3825 -0.2300 -0.2010
 3914TIP3    H111703   6.126   5.831   3.225  0.6625 -1.8954  0.9158
 3914TIP3    H211704   6.227   5.885   3.126 -1.3939  0.6717  0.1344
 3915TIP3   OH211705   0.553   6.063   2.339  0.2330  0.5184  0.1492
 3915TIP3    H111706   0.576   5.977   2.304  0.8025  0.0149  1.7232
 3915TIP3    H211707   0.460   6.074   2.316  0.1637 -0.4992 -0.0932
 3916TIP3   OH211708   4.303   4.638   0.472  0.1640  0.2336 -0.1083
 3916TIP3    H111709   4.335   4.568   0.529 -3.3061 -1.2295  0.1604
 3916TIP3    H211710   4.283   4.710   0.532  1.7205  0.7449 -0.1594
 3917TIP3   OH211711   7.101   6.420   1.925 -0.0523  0.3264 -0.6744
 3917TIP3    H111712   7.016   6.425   1.881 -0.2243 -1.7465 -0.6508
 3917TIP3    H211713   7.165   6.418   1.854 -0.0340  1.4679 -0.7010
 3918TIP3   OH211714   0.893   6.204   3.730  0.3306 -0.2512 -0.3586
 3918TIP3    H111715   0.831   6.271   3.757  2.8894  1.0322  2.4654
 3918TIP3    H211716   0.932   6.172   3.811  1.5322 -2.8875 -1.8932
 3919TIP3   OH211717   6.389   4.928   0.840  0.1330  0.6942 -0.2859
 3919TIP3    H111718   6.431   4.972   0.766 -2.4909  1.5327 -1.3445
 3919TIP3    H211719   6.405   4.986   0.915  1.8579  0.3947 -0.4161
 3920TIP3   OH211720   7.261   3.657   2.655 -0.2059 -0.1039  0.2354
 3920TIP3    H111721   7.276   3.706   2.574 -1.4907 -0.4713 -0.2330
 3920TIP3    H211722   7.310   3.576   2.643 -0.2842 -0.0997 -0.1115
 3921TIP3   OH211723   6.293   6.298   0.073  0.7031  0.1536 -0.1734
 3921TIP3    H111724   6.385   6.323   0.077  1.6197 -2.9433 -0.7395
 3921TIP3    H211725   6.277   6.281  -0.020 -0.2210 -0.1006  0.0228
 3922TIP3   OH211726   4.849   3.189   3.633  0.6418  0.1333  0.1627
 3922TIP3    H111727   4.802   3.273   3.629 -0.3463 -0.3520  1.2372
 3922TIP3    H211728   4.784   3.124   3.608  1.2685 -0.3726 -0.1644
 3923TIP3   OH211729   4.027   1.584   6.183  0.4038  0.1588 -0.4176
 3923TIP3    H111730   4.019   1.672   6.146 -0.3129  0.2242 -0.1218
 3923TIP3    H211731   3.945   1.571   6.230  0.0872 -1.0580 -1.2888
 3924TIP3   OH211732   6.834   6.055   0.454 -0.2790 -0.7180 -0.0139
 3924TIP3    H111733   6.754   6.062   0.506 -0.9933  0.0593 -1.1846
 3924TIP3    H211734   6.845   5.962   0.438 -0.7241 -0.8616  0.5274
 3925TIP3   OH211735   5.081   0.554   5.358 -0.1337 -0.2858  0.2295
 3925TIP3    H111736   5.038   0.520   5.279 -1.0138  2.8845 -0.7204
 3925TIP3    H211737   5.112   0.641   5.333  0.5806  0.3247  3.0600
 3926TIP3   OH211738   1.432   3.844   2.258 -0.0709 -0.0857 -0.5111
 3926TIP3    H111739   1.342   3.848   2.227 -0.5784  0.3809  0.9691
 3926TIP3    H211740   1.458   3.936   2.270  0.4406 -0.2275 -0.5166
 3927TIP3   OH211741   6.449   3.733   5.736  0.2510  0.0305 -0.4526
 3927TIP3    H111742   6.487   3.785   5.664 -0.0652 -1.2604 -1.5688
 3927TIP3    H211743   6.359   3.763   5.742  0.1020 -0.3132 -1.0122
 3928TIP3   OH211744   0.694   6.105   1.825 -0.2551 -0.7564  0.1479
 3928TIP3    H111745   0.714   6.134   1.913  0.3226 -1.4257  0.2415
 3928TIP3    H211746   0.618   6.047   1.836 -0.9020  0.0567  0.0575
 3929TIP3   OH211747   1.046   6.046   1.938 -0.2450  0.4616  0.4052
 3929TIP3    H111748   1.117   6.020   1.996  0.3354 -1.1013 -0.9912
 3929TIP3    H211749   1.064   6.001   1.855 -0.8926  2.8731 -1.1010
 3930TIP3   OH211750   1.412   6.663   2.581  0.6499 -0.3392 -0.2047
 3930TIP3    H111751   1.404   6.711   2.664  0.4877 -1.0205  0.1870
 3930TIP3    H211752   1.333   6.686   2.532  1.9876  2.1011 -1.2788
 3931TIP3   OH211753   0.817   5.110   2.473 -0.2289  0.6459 -0.2394
 3931TIP3    H111754   0.817   5.203   2.495  0.6906  0.5996 -0.0537
 3931TIP3    H211755   0.806   5.066   2.557  0.6542  0.5505 -0.1699
 3932TIP3   OH211756   7.306   6.047   4.502 -0.0713  0.6329 -0.3425
 3932TIP3    H111757   7.290   6.005   4.418 -0.4148 -0.2663  0.1688
 3932TIP3    H211758   7.219   6.053   4.543 -0.1050  2.2705 -0.6049
 3933TIP3   OH211759   2.739   0.907   6.190  0.6386  0.4988  0.1174
 3933TIP3    H111760   2.747   0.813   6.199  2.0417  0.8400  2.8925
 3933TIP3    H211761   2.806   0.931   6.125  0.1964 -0.4026 -0.6815
 3934TIP3   OH211762   0.145   3.203   2.540 -0.0477  0.2044  0.1711
 3934TIP3    H111763   0.077   3.225   2.603  0.7317 -0.5953  1.3309
 3934TIP3    H211764   0.195   3.133   2.583  2.2861  1.6652 -0.0999
 3935TIP3   OH211765   7.508   5.522   2.948 -0.1087 -0.3711 -0.2261
 3935TIP3    H111766   7.420   5.486   2.959 -0.0585 -0.3919  0.1068
 3935TIP3    H211767   7.502   5.611   2.983 -0.3097  0.0631 -1.3156
 3936TIP3   OH211768   1.056   3.933   6.152 -0.4103 -0.2649  0.4145
 3936TIP3    H111769   1.089   3.959   6.066  0.8710  0.7806  1.2013
 3936TIP3    H211770   1.098   3.849   6.170 -1.1568 -0.7854 -0.2318
 3937TIP3   OH211771   0.178   6.907   1.074  0.4562  0.0894 -0.3882
 3937TIP3    H111772   0.118   6.900   1.001 -0.9918 -0.8116  0.8658
 3937TIP3    H211773   0.149   6.984   1.122  1.5455  0.8168 -0.8687
 3938TIP3   OH211774   7.617   4.822   2.155  0.0389 -0.2888 -0.2284
 3938TIP3    H111775   7.620   4.772   2.074  0.3226  1.4480 -1.3097
 3938TIP3    H211776   7.546   4.884   2.143 -0.1731 -0.2700  1.0160
 3939TIP3   OH211777   1.042   2.342   2.699  0.4610 -0.1787 -0.0349
 3939TIP3    H111778   1.018   2.259   2.658 -3.0303  0.3236  0.8167
 3939TIP3    H211779   1.070   2.319   2.787 -1.0828 -0.4649  0.4048
 3940TIP3   OH211780   4.665   1.775   4.087 -0.5591 -0.2563  0.0429
 3940TIP3    H111781   4.593   1.734   4.135 -0.3197 -1.1997 -0.3946
 3940TIP3    H211782   4.630   1.791   4.000 -1.2348  2.1448  0.7247
 3941TIP3   OH211783   0.566   7.041   1.623  0.0554  0.3001  0.8668
 3941TIP3    H111784   0.534   7.050   1.534  2.6926 -1.0059 -0.2609
 3941TIP3    H211785   0.578   7.131   1.654  1.4067  0.7705 -0.9690
 3942TIP3   OH211786   1.969   4.746   3.956 -0.2757 -0.4373 -0.0964
 3942TIP3    H111787   1.982   4.819   3.896 -0.9162 -0.0922  0.1724
 3942TIP3    H211788   1.998   4.669   3.907  2.2717  0.2155  0.3337
 3943TIP3   OH211789   6.407   5.795   2.474 -0.0778 -0.1446 -0.3812
 3943TIP3    H111790   6.317   5.774   2.500 -0.0059 -2.5409 -1.9465
 3943TIP3    H211791   6.455   5.803   2.556 -0.8483 -2.9640  0.3946
 3944TIP3   OH211792   0.664   5.804   2.540  0.3153  0.0861  0.0357
 3944TIP3    H111793   0.648   5.758   2.458  1.2376 -1.1178  0.5102
 3944TIP3    H211794   0.591   5.778   2.596 -0.8869  1.7369 -0.7192
 3945TIP3   OH211795   0.663   4.538   2.596 -0.2416  0.2588  0.0138
 3945TIP3    H111796   0.723   4.598   2.551  1.2658 -0.7748  0.6216
 3945TIP3    H211797   0.647   4.468   2.533 -3.8006  2.3263 -1.5766
 3946TIP3   OH211798   4.079   0.463   2.844  0.1221  0.3086 -0.0562
 3946TIP3    H111799   4.021   0.488   2.773  0.9759  0.5497 -0.6819
 3946TIP3    H211800   4.107   0.373   2.823  0.0592  0.2325  0.1810
 3947TIP3   OH211801   7.182   5.318   4.388 -0.6198 -0.0154  0.5539
 3947TIP3    H111802   7.264   5.294   4.432  0.0576  1.3907  0.0820
 3947TIP3    H211803   7.180   5.264   4.309  0.7567  1.2908 -0.3701
 3948TIP3   OH211804   1.430   6.130   5.566 -0.1146  0.4609 -0.1801
 3948TIP3    H111805   1.502   6.137   5.504 -0.9403  2.2830 -0.9637
 3948TIP3    H211806   1.402   6.038   5.560  1.2325  0.0869 -0.8793
 3949TIP3   OH211807   1.562   5.492   3.170  0.5346  0.0001 -0.1605
 3949TIP3    H111808   1.528   5.547   3.098 -0.6766  0.3148  0.6476
 3949TIP3    H211809   1.511   5.518   3.246  0.4201 -1.7971  0.3878
 3950TIP3   OH211810   1.815   2.302   3.034  0.1254  0.5008 -0.4515
 3950TIP3    H111811   1.862   2.335   3.111 -0.1613  0.7167 -0.3693
 3950TIP3    H211812   1.795   2.210   3.055  1.1212  0.2081 -0.7737
 3951TIP3   OH211813   1.446   4.625   0.503  0.2382  0.3474  0.0018
 3951TIP3    H111814   1.507   4.696   0.480 -1.2464  1.7483  0.3214
 3951TIP3    H211815   1.427   4.638   0.596  0.1135 -0.5974  0.1140
 3952TIP3   OH211816   0.658   4.790   4.190 -0.1992  0.2640 -0.7414
 3952TIP3    H111817   0.716   4.858   4.156  0.4714  0.1915  0.2265
 3952TIP3    H211818   0.582   4.792   4.132  0.0517  1.4796 -1.0519
 3953TIP3   OH211819   1.454   0.512   0.946  0.0831 -0.6966  0.0012
 3953TIP3    H111820   1.499   0.476   1.022 -0.0136 -1.4326 -0.2797
 3953TIP3    H211821   1.399   0.440   0.914 -1.0758  0.1008  0.1655
 3954TIP3   OH211822   7.280   4.737   5.141 -0.0657  0.0911 -0.4272
 3954TIP3    H111823   7.318   4.819   5.173  2.0299 -1.4356  1.1846
 3954TIP3    H211824   7.204   4.722   5.197  0.1895  0.3711 -0.0026
 3955TIP3   OH211825   0.176   2.715   4.300  0.1659 -0.9173 -0.5041
 3955TIP3    H111826   0.186   2.742   4.392  1.3723 -0.1354 -0.8536
 3955TIP3    H211827   0.199   2.793   4.250 -1.0514 -1.1708 -1.4765
 3956TIP3   OH211828   0.247   4.558   1.785 -0.4756  0.8644 -0.8361
 3956TIP3    H111829   0.227   4.637   1.836  0.2864  1.4623 -1.4601
 3956TIP3    H211830   0.332   4.576   1.746  0.7893 -1.2044  0.8692
 3957TIP3   OH211831   1.352   4.630   5.373  0.3708  0.2568 -0.0028
 3957TIP3    H111832   1.376   4.658   5.461  1.1718 -0.1574 -0.0897
 3957TIP3    H211833   1.263   4.663   5.361  0.4294  0.7092  0.7887
 3958TIP3   OH211834   7.701   3.482   1.762  0.0581  0.3587 -0.0947
 3958TIP3    H111835   7.651   3.562   1.779  0.8954  0.3631  2.5882
 3958TIP3    H211836   7.702   3.473   1.667  0.7655  4.0694 -0.4885
 3959TIP3   OH211837   1.269   4.664   1.762  0.4606 -0.1473  0.0313
 3959TIP3    H111838   1.220   4.582   1.760 -2.3022  1.4214  1.3441
 3959TIP3    H211839   1.308   4.666   1.850  1.1630 -0.3768 -0.2666
 3960TIP3   OH211840   2.302   6.153   5.033 -0.3960 -0.2203 -0.1650
 3960TIP3    H111841   2.315   6.105   4.951 -0.3208 -0.6315  0.0847
 3960TIP3    H211842   2.253   6.231   5.008 -0.6758 -0.5187 -0.5544
 3961TIP3   OH211843   2.634   4.649   3.114 -0.0568  0.1537 -0.5482
 3961TIP3    H111844   2.567   4.718   3.111 -0.5528 -0.3201 -0.4213
 3961TIP3    H211845   2.694   4.671   3.043 -0.4597  0.4727 -0.7918
 3962TIP3   OH211846   0.796   4.499   2.843  0.5117  0.1811  0.5587
 3962TIP3    H111847   0.809   4.410   2.876  0.7355 -0.0763 -0.1999
 3962TIP3    H211848   0.734   4.489   2.771  2.3500  0.2935 -1.0850
 3963TIP3   OH211849   1.401   3.623   0.870 -0.0345  0.0188  0.3462
 3963TIP3    H111850   1.493   3.612   0.895  0.1878  0.7758 -0.1338
 3963TIP3    H211851   1.380   3.713   0.894 -0.9749 -0.4794  1.4602
 3964TIP3   OH211852   7.283   4.764   2.284 -0.4040 -0.4303 -0.1021
 3964TIP3    H111853   7.349   4.696   2.295 -1.3321 -1.1541  1.1618
 3964TIP3    H211854   7.286   4.814   2.366  1.2377  1.9574 -1.5507
 3965TIP3   OH211855   7.550   4.587   3.266  0.2055 -0.2775  0.0148
 3965TIP3    H111856   7.618   4.648   3.295  0.7951 -0.8186 -0.1988
 3965TIP3    H211857   7.475   4.606   3.322  0.5782  0.2475  0.3406
 3966TIP3   OH211858   7.771   3.714   2.049 -0.3614  0.4683 -0.0301
 3966TIP3    H111859   7.694   3.657   2.050 -0.4147  0.5364 -0.3009
 3966TIP3    H211860   7.776   3.747   1.959  0.5741 -0.3539 -0.2933
 3967TIP3   OH211861   1.099   5.853   4.843  0.0494 -0.1940 -0.2805
 3967TIP3    H111862   1.079   5.941   4.811 -0.1736 -1.1327 -2.8364
 3967TIP3    H211863   1.188   5.836   4.812  0.6729 -0.3118  1.5114
 3968TIP3   OH211864   2.203   5.904   3.450 -0.2442  0.4241 -0.4079
 3968TIP3    H111865   2.200   5.999   3.437 -0.3388  0.3142 -1.2137
 3968TIP3    H211866   2.230   5.893   3.541  1.3726  1.2083 -0.7823
 3969TIP3   OH211867   0.378   5.432   3.179  0.3294  0.6434  0.5481
 3969TIP3    H111868   0.403   5.414   3.269  0.2333  0.1714  0.4813
 3969TIP3    H211869   0.381   5.347   3.135 -0.7133  0.6793  0.3782
 3970TIP3   OH211870   0.451   3.884   2.927 -0.1024  0.5387  0.3141
 3970TIP3    H111871   0.486   3.860   2.841  0.2056 -1.2554  0.9302
 3970TIP3    H211872   0.497   3.965   2.949  1.9484 -0.5107  0.0424
 3971TIP3   OH211873   0.529   6.302   2.013  0.1421  0.6391 -0.1105
 3971TIP3    H111874   0.611   6.306   1.964 -0.3841  1.6236 -0.9235
 3971TIP3    H211875   0.482   6.381   1.988 -0.3449  0.9257  1.6300
 3972TIP3   OH211876   2.224   5.368   3.097  0.0197 -0.5056 -0.5332
 3972TIP3    H111877   2.238   5.455   3.133 -1.2346 -0.3959 -0.2940
 3972TIP3    H211878   2.214   5.382   3.003  0.4976 -0.4725 -0.5796
 3973TIP3   OH211879   0.717   4.837   3.479  0.6338 -0.6831 -0.4741
 3973TIP3    H111880   0.674   4.908   3.432 -1.2478 -1.2073  0.4372
 3973TIP3    H211881   0.797   4.877   3.514  1.9067 -0.2100 -3.7868
 3974TIP3   OH211882   1.058   7.067   1.466 -0.0722 -0.1623 -0.6065
 3974TIP3    H111883   1.011   7.122   1.403 -2.1121  0.4026  1.3552
 3974TIP3    H211884   1.136   7.117   1.489 -1.0969  1.2145 -0.0648
 3975TIP3   OH211885   6.551   6.610   2.663  0.4874  0.2337  0.5041
 3975TIP3    H111886   6.622   6.548   2.647 -0.2218 -0.4480  0.0173
 3975TIP3    H211887   6.595   6.687   2.699  1.2053 -1.1205  2.6308
 3976TIP3   OH211888   0.197   4.824   0.583 -0.1349  0.3067  0.4439
 3976TIP3    H111889   0.202   4.915   0.613 -1.4279  1.1108 -1.6601
 3976TIP3    H211890   0.171   4.775   0.661  1.6806  1.5599  1.8728
 3977TIP3   OH211891   1.884   6.178   3.375  0.0650 -0.4640  0.1226
 3977TIP3    H111892   1.867   6.125   3.453  1.8435 -0.8089  0.2871
 3977TIP3    H211893   1.808   6.236   3.368  0.3377  0.2305  2.6497
 3978TIP3   OH211894   7.787   6.481   2.372  0.2372 -0.1278 -0.0739
 3978TIP3    H111895   7.730   6.543   2.329 -1.0985 -1.6723 -0.5904
 3978TIP3    H211896   7.836   6.533   2.436 -1.5439  1.2654  0.1953
 3979TIP3   OH211897   7.775   5.919   3.440 -0.0950  0.3390 -0.1884
 3979TIP3    H111898   7.838   5.893   3.507 -0.6795 -1.5922 -0.3462
 3979TIP3    H211899   7.703   5.857   3.450 -0.4199  0.3357 -2.2688
 3980TIP3   OH211900   1.398   4.610   4.615 -0.5654 -0.4754  0.0009
 3980TIP3    H111901   1.316   4.659   4.606 -0.5695 -0.5913 -0.5583
 3980TIP3    H211902   1.415   4.573   4.529  0.6363  0.4250 -0.1716
 3981TIP3   OH211903   7.412   4.457   2.583  0.3911  0.1105  0.5838
 3981TIP3    H111904   7.460   4.489   2.659  1.7321 -1.2368  0.3392
 3981TIP3    H211905   7.355   4.388   2.617  0.7197 -0.2371  0.4384
 3982TIP3   OH211906   7.785   5.508   2.070  0.1756  0.1404 -0.4564
 3982TIP3    H111907   7.699   5.491   2.109  0.4441  1.9807  1.0495
 3982TIP3    H211908   7.783   5.464   1.985 -2.5325  0.8038 -0.7584
 3983TIP3   OH211909   6.141   4.482   1.251 -0.4922 -0.2002  0.2578
 3983TIP3    H111910   6.176   4.477   1.341  0.7994  1.8222 -0.0906
 3983TIP3    H211911   6.051   4.512   1.262  0.2887  2.0172  0.8044
 3984TIP3   OH211912   1.497   5.999   1.789 -0.0193 -0.0220  0.0985
 3984TIP3    H111913   1.546   6.079   1.769  0.8866 -0.1263  1.8580
 3984TIP3    H211914   1.412   6.012   1.747  0.3645  1.5548 -0.2171
 3985TIP3   OH211915   1.839   3.383   3.439  0.3044 -0.2395 -0.1510
 3985TIP3    H111916   1.871   3.355   3.525 -2.2600  0.4363  1.0771
 3985TIP3    H211917   1.844   3.479   3.442  1.7106 -0.2621 -1.3738
 3986TIP3   OH211918   2.192   4.659   5.293 -0.3051  0.0600  0.4891
 3986TIP3    H111919   2.235   4.716   5.229 -1.5390  0.2752 -0.1602
 3986TIP3    H211920   2.243   4.578   5.291  0.9041  0.7989  0.7513
 3987TIP3   OH211921   7.617   5.757   4.695  0.0223  0.4485  0.1495
 3987TIP3    H111922   7.644   5.743   4.605  0.5320 -1.9060  0.6360
 3987TIP3    H211923   7.525   5.782   4.689  0.0766  0.3749 -1.0145
 3988TIP3   OH211924   6.690   3.591   5.377 -0.3135  0.4219 -0.1047
 3988TIP3    H111925   6.703   3.530   5.304 -0.5078 -0.0709  0.2754
 3988TIP3    H211926   6.621   3.650   5.346  0.2698  0.8056 -0.6946
 3989TIP3   OH211927   0.457   0.124   5.444  1.0528 -0.1984 -0.6662
 3989TIP3    H111928   0.471   0.189   5.513 -0.1130 -0.2565 -0.3612
 3989TIP3    H211929   0.528   0.061   5.454  2.2441  1.0684 -1.0146
 3990TIP3   OH211930   0.099   6.482   3.840 -0.2919  0.2004 -0.1517
 3990TIP3    H111931   0.143   6.536   3.774 -0.7531 -0.7101 -1.2086
 3990TIP3    H211932   0.171   6.435   3.883 -0.1066 -0.4086 -1.0946
 3991TIP3   OH211933   2.667   4.412   2.844  0.5239  0.0775 -0.2419
 3991TIP3    H111934   2.723   4.475   2.800  0.1972  0.6160  0.1158
 3991TIP3    H211935   2.592   4.401   2.786  1.2202 -1.0235 -0.9657
 3992TIP3   OH211936   5.842   6.618   5.161  0.6839 -0.0676 -0.4805
 3992TIP3    H111937   5.804   6.657   5.082 -0.3009 -1.1210 -0.5347
 3992TIP3    H211938   5.867   6.529   5.135  1.1970 -0.1165  0.1528
 3993TIP3   OH211939   3.955   5.645   1.826  0.4465 -0.6121  0.1234
 3993TIP3    H111940   4.000   5.719   1.785 -0.8053  0.7326  1.1314
 3993TIP3    H211941   3.894   5.614   1.759  0.9932 -0.7516 -0.3129
 3994TIP3   OH211942   2.124   4.035   3.712 -0.0569  0.3471  0.3106
 3994TIP3    H111943   2.076   4.025   3.630  0.2810  0.6686  0.0759
 3994TIP3    H211944   2.055   4.048   3.778 -0.3344 -0.0641  0.1069
 3995TIP3   OH211945   6.804   5.099   3.761 -0.1475 -0.2718  0.0014
 3995TIP3    H111946   6.774   5.186   3.788 -1.3823  0.4354 -3.3672
 3995TIP3    H211947   6.724   5.051   3.742  0.5507  0.1570 -4.6768
 3996TIP3   OH211948   0.380   4.248   4.694  0.4021 -0.2389 -0.6319
 3996TIP3    H111949   0.422   4.293   4.767  0.7204 -0.3746 -0.7315
 3996TIP3    H211950   0.386   4.155   4.716  0.9246 -0.3057 -1.0586
 3997TIP3   OH211951   7.519   6.478   5.176  0.0309  0.2692 -0.1033
 3997TIP3    H111952   7.606   6.471   5.213 -0.2298  1.7633  0.8238
 3997TIP3    H211953   7.469   6.529   5.240 -0.5659  2.4427 -2.2136
 3998TIP3   OH211954   2.402   4.688   4.424  0.0118 -0.0619  0.4153
 3998TIP3    H111955   2.402   4.635   4.345 -0.0028 -0.4977  0.7064
 3998TIP3    H211956   2.452   4.767   4.400  1.4478 -0.9311  0.4540
 3999TIP3   OH211957   1.676   4.350   5.892 -0.2237 -0.0598  0.0365
 3999TIP3    H111958   1.746   4.293   5.861 -0.1673 -0.1715  0.3711
 3999TIP3    H211959   1.637   4.386   5.812  0.5837  0.4437 -0.1329
 4000TIP3   OH211960   0.471   6.106   3.169 -0.0071  0.1530  0.4366
 4000TIP3    H111961   0.403   6.169   3.145 -1.5486 -1.8821 -0.6323
 4000TIP3    H211962   0.510   6.080   3.086 -0.4961 -1.5274  0.7255
 4001TIP3   OH211963   5.871   6.834   5.376  0.2495 -0.4424 -0.5280
 4001TIP3    H111964   5.829   6.915   5.346  1.3843 -0.0518 -1.1119
 4001TIP3    H211965   5.839   6.766   5.317  0.0101 -0.2455 -0.6226
 4002TIP3   OH211966   2.276   3.828   3.023  0.2602 -0.0210  0.1699
 4002TIP3    H111967   2.228   3.865   2.949  0.1799 -1.1507 -0.3486
 4002TIP3    H211968   2.227   3.749   3.046  0.9426 -0.2985  0.6813
 4003TIP3   OH211969   3.368   0.822   1.514 -0.2372 -0.1192  0.6140
 4003TIP3    H111970   3.273   0.829   1.509 -0.1987  2.7020  2.2394
 4003TIP3    H211971   3.386   0.810   1.607  1.0403  0.4229  0.4467
 4004TIP3   OH211972   0.200   4.769   3.872  0.5015 -0.5739 -0.6332
 4004TIP3    H111973   0.218   4.687   3.826  2.4402 -0.2204 -0.5452
 4004TIP3    H211974   0.159   4.825   3.806  1.7913 -0.6326 -1.5111
 4005TIP3   OH211975   1.888   6.026   1.845  0.7027  0.4849  0.5494
 4005TIP3    H111976   1.882   6.069   1.931 -0.4833 -0.4225  0.9306
 4005TIP3    H211977   1.813   5.967   1.843  0.9977  0.1567 -0.9315
 4006TIP3   OH211978   0.550   5.331   1.807  0.9766  0.1640 -0.2370
 4006TIP3    H111979   0.524   5.239   1.819  1.5457  0.0206 -0.0863
 4006TIP3    H211980   0.574   5.360   1.895 -2.2900  1.4271  0.2979
 4007TIP3   OH211981   3.653   5.379   3.502  0.2517 -0.2038  0.6456
 4007TIP3    H111982   3.729   5.433   3.525 -0.3901  1.0529 -0.1269
 4007TIP3    H211983   3.578   5.436   3.519 -0.4834 -1.1596  0.6204
 4008TIP3   OH211984   0.379   6.420   5.359  0.0435  0.0211 -0.1629
 4008TIP3    H111985   0.393   6.506   5.320  0.6788 -1.0066 -2.2788
 4008TIP3    H211986   0.285   6.404   5.351  0.3621 -0.7978 -2.6921
 4009TIP3   OH211987   7.421   5.688   1.309  0.1847 -0.6546 -0.6905
 4009TIP3    H111988   7.479   5.683   1.233  0.5452 -1.7928 -0.3465
 4009TIP3    H211989   7.339   5.648   1.279 -0.2742  0.5024 -1.0204
 4010TIP3   OH211990   0.533   5.023   1.826 -0.3733  0.1049 -0.2524
 4010TIP3    H111991   0.578   5.053   1.906 -0.7784  0.5598 -0.1898
 4010TIP3    H211992   0.445   5.001   1.856 -0.0196 -1.3487 -0.2681
 4011TIP3   OH211993   1.164   5.748   2.647  0.2491 -0.0426 -0.4066
 4011TIP3    H111994   1.105   5.822   2.637  0.6456  0.6320  1.8982
 4011TIP3    H211995   1.248   5.779   2.613  0.2698  0.3566  0.0182
 4012TIP3   OH211996   1.336   5.310   3.880 -0.2546 -0.3756  0.0003
 4012TIP3    H111997   1.364   5.226   3.843  0.1667  0.2057 -1.0454
 4012TIP3    H211998   1.403   5.372   3.851 -1.4640  0.6284 -0.6938
 4013TIP3   OH211999   7.724   3.408   1.276 -0.2317  0.2405  0.0973
 4013TIP3    H112000   7.744   3.481   1.216  0.5322 -1.2230 -1.4851
 4013TIP3    H212001   7.794   3.345   1.260 -1.6750 -1.4690  0.4025
 4014TIP3   OH212002   7.016   5.662   2.183 -0.0914  0.4050  0.0439
 4014TIP3    H112003   7.010   5.628   2.093  1.8444 -0.0292  0.0575
 4014TIP3    H212004   6.953   5.733   2.186 -0.3318  0.2821 -1.6113
 4015TIP3   OH212005   3.533   4.738   2.851  0.2359  0.0758  0.4089
 4015TIP3    H112006   3.507   4.821   2.890  0.7341  0.9611 -1.0681
 4015TIP3    H212007   3.461   4.716   2.792  0.4703 -0.1176  0.1911
 4016TIP3   OH212008   7.741   4.437   4.213 -0.2927 -0.2722 -0.3159
 4016TIP3    H112009   7.693   4.476   4.141 -1.2527  0.5853  0.7585
 4016TIP3    H212010   7.813   4.498   4.231 -0.9539  0.3060  0.4299
 4017TIP3   OH212011   1.244   6.055   5.336 -0.4823  0.1987  0.5743
 4017TIP3    H112012   1.182   6.092   5.399  0.0597  0.1029  1.1643
 4017TIP3    H212013   1.268   6.130   5.280 -3.3813 -0.3894 -1.5418
 4018TIP3   OH212014   1.622   4.179   4.807  0.2965 -0.6365 -0.8047
 4018TIP3    H112015   1.568   4.220   4.874 -0.1997 -0.4877 -1.2941
 4018TIP3    H212016   1.617   4.085   4.826 -1.1487 -0.7351 -1.5852
 4019TIP3   OH212017   2.051   3.971   4.902 -0.0222 -0.1564 -0.3033
 4019TIP3    H112018   1.996   4.039   4.863 -1.1697 -0.2134  1.1532
 4019TIP3    H212019   2.080   4.009   4.985  1.6927 -0.3569 -0.7950
 4020TIP3   OH212020   0.903   4.030   5.586  0.2496  0.3452 -0.4740
 4020TIP3    H112021   0.872   3.946   5.553 -0.3584  0.5341 -0.3800
 4020TIP3    H212022   0.864   4.095   5.528 -0.2394  0.6318  0.1705
 4021TIP3   OH212023   5.804   0.320   6.389 -0.8409  0.2484 -0.2984
 4021TIP3    H112024   5.799   0.340   6.296  0.0600 -0.1803 -0.4418
 4021TIP3    H212025   5.819   0.226   6.393  0.7915  0.5152  0.2304
 4022TIP3   OH212026   6.523   6.417   1.015 -0.0176  0.5853 -0.0083
 4022TIP3    H112027   6.509   6.357   1.088 -0.4784 -0.2634 -0.7754
 4022TIP3    H212028   6.615   6.442   1.022 -0.0735  0.5584  0.8963
 4023TIP3   OH212029   1.246   4.377   1.712 -0.4458  0.0082 -0.1707
 4023TIP3    H112030   1.249   4.408   1.622 -0.7714 -3.1201 -1.3399
 4023TIP3    H212031   1.175   4.313   1.713 -1.7853  1.4422  2.8310
 4024TIP3   OH212032   1.260   6.183   3.836  0.4766  0.0531  0.4975
 4024TIP3    H112033   1.352   6.161   3.818  0.4237  0.3190 -0.1170
 4024TIP3    H212034   1.253   6.276   3.813  0.0419  0.0180  0.4920
 4025TIP3   OH212035   7.809   3.024   4.043 -0.6192 -0.0493  0.7378
 4025TIP3    H112036   7.773   3.110   4.064 -3.0804 -0.6571 -0.7498
 4025TIP3    H212037   7.759   2.964   4.098  1.1515 -0.5503  1.8425
 4026TIP3   OH212038   0.724   4.913   4.662  0.1578  0.6622 -0.6128
 4026TIP3    H112039   0.676   4.916   4.745 -1.4995 -0.8676 -1.4681
 4026TIP3    H212040   0.744   5.005   4.643 -1.6837  1.2754  0.2277
 4027TIP3   OH212041   2.636   5.521   1.614 -0.5548  0.5139 -0.7436
 4027TIP3    H112042   2.650   5.463   1.539 -0.8300  0.8377 -1.0469
 4027TIP3    H212043   2.558   5.572   1.591 -2.4198 -1.4280  1.0173
 4028TIP3   OH212044   1.111   5.038   2.096  0.2848  0.0614 -0.1215
 4028TIP3    H112045   1.030   5.021   2.145 -1.4013 -1.8234 -3.3553
 4028TIP3    H212046   1.095   5.121   2.051  0.7996  0.5030  0.5104
 4029TIP3   OH212047   0.446   4.439   4.095 -0.3461  0.3373  0.3515
 4029TIP3    H112048   0.483   4.439   4.183  1.4977  0.7685 -0.3869
 4029TIP3    H212049   0.351   4.441   4.108 -0.1718 -2.2320  2.3326
 4030TIP3   OH212050   7.052   6.938   2.791  0.1797 -0.0006  0.4696
 4030TIP3    H112051   7.036   6.871   2.724 -0.3163  0.2809  0.3070
 4030TIP3    H212052   7.054   6.889   2.873 -1.8426 -0.0194  0.5397
 4031TIP3   OH212053   6.643   4.920   1.814 -0.5557  0.2537  0.3997
 4031TIP3    H112054   6.613   4.908   1.724  0.0012 -0.0718  0.2577
 4031TIP3    H212055   6.562   4.933   1.864 -0.7874  1.7413 -0.3372
 4032TIP3   OH212056   0.532   5.843   1.598 -0.0680  0.2190  0.3743
 4032TIP3    H112057   0.576   5.909   1.653  2.1656  0.4642 -1.6273
 4032TIP3    H212058   0.498   5.893   1.524 -2.6063 -0.1878  1.2364
 4033TIP3   OH212059   5.797   0.742   1.123  0.1471  0.5145 -0.0198
 4033TIP3    H112060   5.723   0.779   1.076 -0.0365  0.0062 -0.1356
 4033TIP3    H212061   5.848   0.696   1.056 -0.1725 -0.2991  0.2847
 4034TIP3   OH212062   7.240   3.824   2.461 -0.2690  0.5378 -0.0462
 4034TIP3    H112063   7.170   3.887   2.482 -1.3993 -0.2984 -1.1837
 4034TIP3    H212064   7.215   3.789   2.376 -0.0585 -1.9958  0.8859
 4035TIP3   OH212065   0.132   6.037   1.948 -0.0660  0.2495  0.3000
 4035TIP3    H112066   0.148   6.094   2.023  0.3687  1.0161 -0.3588
 4035TIP3    H212067   0.076   5.967   1.982  0.1632  0.5596  1.3412
 4036TIP3   OH212068   1.975   4.412   4.103 -0.3839  0.1844  0.3982
 4036TIP3    H112069   1.915   4.347   4.067  0.7753 -1.1859  0.8835
 4036TIP3    H212070   1.926   4.453   4.175 -0.6272 -1.1735  1.0273
 4037TIP3   OH212071   2.818   4.339   1.111  0.2664  0.4077 -0.0708
 4037TIP3    H112072   2.816   4.432   1.089  1.8240  0.3069 -0.6843
 4037TIP3    H212073   2.752   4.299   1.054  1.3120  0.7786 -1.5594
 4038TIP3   OH212074   1.246   5.015   5.232 -0.1583  0.5855  0.5152
 4038TIP3    H112075   1.165   5.066   5.236 -1.0595 -0.7515 -0.0729
 4038TIP3    H212076   1.241   4.971   5.147  0.6366 -0.3961  0.9676
 4039TIP3   OH212077   1.603   4.006   0.769 -0.0694 -0.3948 -0.6055
 4039TIP3    H112078   1.636   4.091   0.740  0.7586 -0.6851 -0.5060
 4039TIP3    H212079   1.543   3.979   0.699  0.0249  0.0544 -0.8619
 4040TIP3   OH212080   1.100   4.833   3.090  0.1724 -0.6017 -0.1785
 4040TIP3    H112081   1.121   4.772   3.019  0.2405 -1.3256  0.4528
 4040TIP3    H212082   1.160   4.906   3.078  1.1995 -1.4003  0.0034
 4041TIP3   OH212083   7.400   5.242   4.541 -0.0605 -0.1705  0.0833
 4041TIP3    H112084   7.473   5.295   4.508  0.4159 -1.2716 -0.6728
 4041TIP3    H212085   7.415   5.236   4.636  1.3215 -1.0974 -0.1818
 4042TIP3   OH212086   7.528   6.760   1.030  0.3808  0.5836 -0.0357
 4042TIP3    H112087   7.437   6.743   1.004  0.0649  1.2158  0.6543
 4042TIP3    H212088   7.578   6.690   0.987 -0.2808  0.9115 -1.3673
 4043TIP3   OH212089   1.930   3.096   2.610  0.0390  0.3438 -0.6647
 4043TIP3    H112090   1.911   3.162   2.677 -1.2099 -0.0285 -0.6365
 4043TIP3    H212091   1.970   3.023   2.658 -1.4985 -0.2126 -0.1916
 4044TIP3   OH212092   3.181   5.247   4.736  0.1137 -0.0095  0.0144
 4044TIP3    H112093   3.159   5.154   4.738 -0.7813  0.2305  2.3610
 4044TIP3    H212094   3.099   5.291   4.757  1.0263  1.2253  1.0098
 4045TIP3   OH212095   1.639   4.974   2.937 -0.5010 -0.4147  0.2697
 4045TIP3    H112096   1.721   4.952   2.981  0.0854  2.1754  0.5872
 4045TIP3    H212097   1.581   5.001   3.008 -1.0153 -0.5001 -0.1218
 4046TIP3   OH212098   0.226   4.338   1.402  0.2656 -0.1587 -0.4270
 4046TIP3    H112099   0.145   4.375   1.366  0.2252 -0.6080 -0.8005
 4046TIP3    H212100   0.259   4.406   1.461  0.7046  0.8647 -1.8432
 4047TIP3   OH212101   0.054   7.323   4.864  0.1376  0.8114 -0.5996
 4047TIP3    H112102  -0.026   7.298   4.910  0.1965 -0.2383 -1.0685
 4047TIP3    H212103   0.118   7.340   4.934  0.3672 -1.2408 -0.2931
 4048TIP3   OH212104   2.534   6.261   5.131  0.1303  0.4087 -0.4799
 4048TIP3    H112105   2.453   6.219   5.104 -1.1641  0.9680  2.3571
 4048TIP3    H212106   2.592   6.189   5.155 -0.7290  0.1093  0.7170
 4049TIP3   OH212107   0.666   4.093   2.714  0.3425  0.6597 -0.1550
 4049TIP3    H112108   0.710   4.009   2.722  0.5214  0.7214 -0.4862
 4049TIP3    H212109   0.597   4.078   2.650  0.9082  0.9821 -0.8461
 4050TIP3   OH212110   5.208   0.169   3.363  0.1459 -0.3969 -0.2937
 4050TIP3    H112111   5.247   0.254   3.342 -1.0253  0.2542  0.1037
 4050TIP3    H212112   5.272   0.105   3.332  0.4364  0.6114 -1.8103
 4051TIP3   OH212113   1.151   6.481   2.908  0.1796 -0.1693 -0.0662
 4051TIP3    H112114   1.123   6.405   2.857 -0.3592 -0.5128  0.7175
 4051TIP3    H212115   1.104   6.472   2.991 -1.1846  1.9217 -0.5703
 4052TIP3   OH212116   2.877   5.508   4.040 -0.6106 -0.2325 -0.2544
 4052TIP3    H112117   2.880   5.453   3.961 -1.2844 -0.6219 -0.0121
 4052TIP3    H212118   2.784   5.514   4.062 -0.6898  2.2027 -1.0907
 4053TIP3   OH212119   0.112   3.582   0.231 -0.2802 -0.3782  0.3299
 4053TIP3    H112120   0.058   3.598   0.153  0.8613  1.3702 -0.1319
 4053TIP3    H212121   0.202   3.593   0.200  0.1543  1.3839  2.1151
 4054TIP3   OH212122   1.250   5.606   3.604 -0.1715  0.2047 -0.3369
 4054TIP3    H112123   1.258   5.699   3.624 -1.5712  0.7630 -2.2056
 4054TIP3    H212124   1.159   5.584   3.624  0.4409 -1.0811  1.2162
 4055TIP3   OH212125   1.556   0.670   2.743 -0.1489  0.3002 -0.2094
 4055TIP3    H112126   1.586   0.718   2.821  1.0763 -0.4156 -0.2296
 4055TIP3    H212127   1.615   0.595   2.737 -1.2710 -0.5371 -0.9022
 4056TIP3   OH212128   2.852   6.583   4.107 -0.7287 -0.1069  0.1815
 4056TIP3    H112129   2.925   6.530   4.075  0.1893 -0.3016  2.4698
 4056TIP3    H212130   2.840   6.555   4.198 -1.6838  2.0401  0.7519
 4057TIP3   OH212131   0.814   3.847   1.915 -0.4193  0.7628  0.2596
 4057TIP3    H112132   0.796   3.797   1.836 -1.5678  1.6867 -0.0838
 4057TIP3    H212133   0.872   3.791   1.967  0.0947  0.0239 -1.0924
 4058TIP3   OH212134   2.202   4.298   3.797  0.0772  0.3622  0.3153
 4058TIP3    H112135   2.228   4.227   3.738  2.7307  0.1344  1.6968
 4058TIP3    H212136   2.211   4.261   3.885 -0.0879  1.9049  1.0006
 4059TIP3   OH212137   4.433   4.847   3.479 -0.7288  0.0733 -0.2251
 4059TIP3    H112138   4.350   4.815   3.443 -0.9349 -0.5012  0.7271
 4059TIP3    H212139   4.474   4.768   3.515 -0.3078  0.5592  0.3523
 4060TIP3   OH212140   0.294   6.674   0.435  0.3428 -0.0545  0.1559
 4060TIP3    H112141   0.314   6.731   0.361  2.7217  1.4588  1.9090
 4060TIP3    H212142   0.272   6.734   0.507 -1.1379 -1.4723  0.9313
 4061TIP3   OH212143   1.517   5.012   0.926  0.1440  0.0941  0.3973
 4061TIP3    H112144   1.559   4.945   0.872 -1.0090 -0.9914  0.8364
 4061TIP3    H212145   1.552   5.095   0.892  0.2583 -0.6267 -1.2918
 4062TIP3   OH212146   1.062   5.191   1.194  0.2063  0.4314  0.1481
 4062TIP3    H112147   1.066   5.203   1.099  0.6693  0.0143  0.1061
 4062TIP3    H212148   0.985   5.239   1.222  1.0967  2.1079 -0.1959
 4063TIP3   OH212149   1.040   6.477   1.287 -0.8705 -0.0321 -0.1753
 4063TIP3    H112150   0.991   6.431   1.219 -0.9397 -0.5525  0.2254
 4063TIP3    H212151   1.132   6.467   1.262 -0.8828 -0.4424 -0.0524
 4064TIP3   OH212152   5.337   0.673   6.023 -0.4988  0.0932 -0.0615
 4064TIP3    H112153   5.279   0.736   5.981  0.8919  0.1046 -2.0230
 4064TIP3    H212154   5.332   0.594   5.969  3.2024  0.9257 -1.8124
 4065TIP3   OH212155   0.970   5.340   2.847 -0.1209  0.1730  0.4406
 4065TIP3    H112156   1.019   5.419   2.869  0.8022 -0.2830  0.0453
 4065TIP3    H212157   1.035   5.270   2.848 -0.7082 -0.3962 -0.3473
 4066TIP3   OH212158   3.854   5.157   4.436 -0.6160  0.2776 -0.1823
 4066TIP3    H112159   3.928   5.098   4.446 -0.1858  0.3838 -2.3928
 4066TIP3    H212160   3.823   5.172   4.525  0.9525 -1.1145  0.6324
 4067TIP3   OH212161   0.471   5.663   1.865 -0.0822 -0.0154  0.0127
 4067TIP3    H112162   0.560   5.681   1.835 -0.0095 -1.5303 -0.7291
 4067TIP3    H212163   0.420   5.651   1.784 -0.8775  0.4555  0.4351
 4068TIP3   OH212164   2.476   4.769   5.618 -0.2460 -0.9518 -0.1924
 4068TIP3    H112165   2.507   4.800   5.534 -0.8256 -0.9885 -0.4255
 4068TIP3    H212166   2.543   4.796   5.681 -0.0113 -0.5705 -0.6067
 4069TIP3   OH212167   3.161   3.873   2.561 -0.4812  0.2324  0.0429
 4069TIP3    H112168   3.251   3.848   2.540 -0.2362 -0.2487  1.5816
 4069TIP3    H212169   3.170   3.943   2.626 -1.2254  0.3020  0.0765
 4070TIP3   OH212170   1.887   6.505   2.583  0.5047  0.2859 -0.9032
 4070TIP3    H112171   1.809   6.516   2.529  0.1838  0.6664 -0.3749
 4070TIP3    H212172   1.881   6.415   2.616 -0.1022  0.5598 -0.2641
 4071TIP3   OH212173   2.062   5.766   3.684 -0.8352 -0.0669 -0.4409
 4071TIP3    H112174   2.155   5.742   3.674 -0.9403 -1.9721  2.6583
 4071TIP3    H212175   2.062   5.839   3.745 -1.4668 -0.9785  0.6553
 4072TIP3   OH212176   2.664   4.789   1.617 -0.0549  0.1445 -0.3163
 4072TIP3    H112177   2.663   4.883   1.632 -0.2978  0.4532 -2.1330
 4072TIP3    H212178   2.705   4.779   1.531 -0.2830 -1.3841 -0.2605
 4073TIP3   OH212179   0.678   5.660   3.675 -0.0740  0.1309  0.6020
 4073TIP3    H112180   0.723   5.695   3.752 -2.7382  2.1306  1.3327
 4073TIP3    H212181   0.608   5.606   3.711  0.6609 -1.5670 -0.4872
 4074TIP3   OH212182   0.393   2.248   6.309  0.0222 -0.3618  0.6814
 4074TIP3    H112183   0.367   2.283   6.394 -0.8890  1.0972 -0.1827
 4074TIP3    H212184   0.338   2.171   6.297  0.2331 -0.6433  1.4438
 4075TIP3   OH212185   2.948   6.438   4.729  0.1388 -0.2971  0.8420
 4075TIP3    H112186   3.007   6.389   4.671  1.0408 -0.3895  1.8305
 4075TIP3    H212187   2.879   6.376   4.751  0.2019 -0.4995  0.4820
 4076TIP3   OH212188   3.134   3.794   2.036  0.2668  0.2581  0.3209
 4076TIP3    H112189   3.085   3.729   2.085  0.6129 -0.4021 -0.1908
 4076TIP3    H212190   3.124   3.875   2.086  0.5741 -0.3867  1.4382
 4077TIP3   OH212191   1.959   4.392   4.366  0.1016  0.3773  0.5863
 4077TIP3    H112192   1.882   4.335   4.367 -0.4748  1.1038 -0.6247
 4077TIP3    H212193   2.017   4.356   4.433 -1.0015 -0.5847  1.0398
 4078TIP3   OH212194   5.947   0.752   1.496 -0.1896 -0.1883  0.1773
 4078TIP3    H112195   5.880   0.721   1.557 -0.1073  0.4388  0.5918
 4078TIP3    H212196   6.030   0.727   1.537 -0.1234  0.5598  0.5077
 4079TIP3   OH212197   7.516   6.269   3.314  0.0449  0.3930  0.8034
 4079TIP3    H112198   7.508   6.243   3.222  1.8390  0.0353  0.7220
 4079TIP3    H212199   7.552   6.358   3.310  0.9490  0.0497  1.1580
 4080TIP3   OH212200   4.049   0.275   3.247  0.1482 -0.2032  0.5646
 4080TIP3    H112201   4.098   0.308   3.322  0.5438  0.3612  0.0660
 4080TIP3    H212202   3.998   0.350   3.217  2.0469  0.3674 -1.3696
 4081TIP3   OH212203   1.894   6.717   4.601  0.0631 -0.2130 -0.3919
 4081TIP3    H112204   1.952   6.791   4.619 -0.9074  0.5888 -0.5174
 4081TIP3    H212205   1.828   6.752   4.542 -0.4415 -1.1675 -0.4022
 4082TIP3   OH212206   2.031   0.423   5.326 -0.3255 -0.5060 -0.1301
 4082TIP3    H112207   2.024   0.330   5.348  0.2021 -0.0952  1.8782
 4082TIP3    H212208   2.124   0.443   5.335 -0.4479  0.2297 -0.4603
 4083TIP3   OH212209   5.510   0.875   6.105  0.8283  0.1606 -0.4252
 4083TIP3    H112210   5.531   0.895   6.014 -2.0951  0.8025 -1.0264
 4083TIP3    H212211   5.443   0.806   6.100  0.2616  0.5504  1.2082
 4084TIP3   OH212212   3.580   0.133   1.165  0.7859 -0.2388  0.3092
 4084TIP3    H112213   3.637   0.202   1.197 -1.4098  1.1160  1.4580
 4084TIP3    H212214   3.592   0.133   1.070  0.2165  2.2897  0.2132
 4085TIP3   OH212215   1.657   5.782   0.925 -0.4955  0.3650 -0.1934
 4085TIP3    H112216   1.692   5.850   0.868  1.8432  1.2861  2.2279
 4085TIP3    H212217   1.660   5.820   1.013  2.1881 -3.3124  1.4357
 4086TIP3   OH212218   4.508   4.498   1.641 -0.6935 -0.2632  0.8085
 4086TIP3    H112219   4.576   4.462   1.585 -0.4143  0.5746  0.6042
 4086TIP3    H212220   4.429   4.498   1.587 -0.8499 -1.1986  1.0340
 4087TIP3   OH212221   3.232   4.581   4.054  0.3306  0.1733  0.2646
 4087TIP3    H112222   3.296   4.536   4.000  1.1477 -2.5687  3.3437
 4087TIP3    H212223   3.282   4.612   4.130 -1.4493  0.5946  1.3061
 4088TIP3   OH212224   1.764   5.367   4.861  0.0887 -0.4864 -0.0449
 4088TIP3    H112225   1.858   5.351   4.870  0.2974 -1.2869 -3.0052
 4088TIP3    H212226   1.758   5.460   4.840  0.3304 -0.6923 -1.0489
 4089TIP3   OH212227   2.177   5.085   2.848 -0.3650 -0.1210 -0.0086
 4089TIP3    H112228   2.171   5.010   2.789  1.0266 -0.4503  0.2376
 4089TIP3    H212229   2.254   5.067   2.902 -0.5793  1.0242  0.7075
 4090TIP3   OH212230   1.620   4.238   3.015  0.1039  0.3960 -0.2213
 4090TIP3    H112231   1.689   4.172   3.004  0.2158  0.4791 -0.0310
 4090TIP3    H212232   1.600   4.267   2.926  0.0756  0.1262 -0.3032
 4091TIP3   OH212233   3.562   5.097   3.648  0.1714  0.2409 -0.0267
 4091TIP3    H112234   3.596   5.024   3.701  0.6153  0.2973 -0.2261
 4091TIP3    H212235   3.627   5.108   3.578 -1.7241 -1.5643 -2.1492
 4092TIP3   OH212236   3.168   4.155   3.993  0.0943  0.1718 -0.5543
 4092TIP3    H112237   3.115   4.191   4.065  1.7984  0.4752  0.5773
 4092TIP3    H212238   3.235   4.103   4.037  0.7624 -0.1690 -1.9673
 4093TIP3   OH212239   2.514   4.171   1.843 -0.0270 -0.8444  0.2309
 4093TIP3    H112240   2.496   4.097   1.902  0.4356 -1.3819 -0.2924
 4093TIP3    H212241   2.592   4.144   1.795 -0.7253 -0.6611 -1.0320
 4094TIP3   OH212242   2.410   3.375   4.043  0.2405  0.2466 -0.3941
 4094TIP3    H112243   2.395   3.465   4.014 -0.2267 -0.2859 -1.8253
 4094TIP3    H212244   2.371   3.321   3.975 -0.3822 -1.0391  0.9674
 4095TIP3   OH212245   5.042   3.796   6.063  0.5407  0.3712  0.4612
 4095TIP3    H112246   5.090   3.759   6.136  0.9518  0.3468  0.1789
 4095TIP3    H212247   4.950   3.797   6.092  0.6548  0.0233  0.8308
 4096TIP3   OH212248   1.770   3.492   3.957 -0.8583  0.0570 -0.0241
 4096TIP3    H112249   1.746   3.432   4.028 -0.2468 -0.3707 -0.1796
 4096TIP3    H212250   1.802   3.570   4.001 -0.2727 -0.2920  0.1682
 4097TIP3   OH212251   2.215   6.430   5.968  0.3068 -0.2348 -0.0581
 4097TIP3    H112252   2.134   6.396   5.931 -0.7841  0.1505  1.8641
 4097TIP3    H212253   2.222   6.519   5.934 -1.3733  0.5793  1.6153
 4098TIP3   OH212254   1.874   5.855   1.619  0.1894  0.0086  0.2395
 4098TIP3    H112255   1.834   5.789   1.675 -0.5900  1.0390  0.9144
 4098TIP3    H212256   1.875   5.935   1.672 -1.4801  1.2585 -1.5290
 4099TIP3   OH212257   2.255   4.529   1.879 -0.1092 -0.2268  0.1490
 4099TIP3    H112258   2.195   4.455   1.880 -0.3306 -0.0475  0.2219
 4099TIP3    H212259   2.332   4.497   1.832 -0.1365 -0.5540  0.3268
 4100TIP3   OH212260   7.291   5.585   3.225  0.3781 -0.1734 -0.1593
 4100TIP3    H112261   7.320   5.514   3.283 -0.5542 -0.7888 -0.4381
 4100TIP3    H212262   7.248   5.541   3.152 -0.8693  0.7080  0.0268
 4101TIP3   OH212263   1.095   6.073   3.050  0.1925  0.4013 -0.3817
 4101TIP3    H112264   1.112   6.000   3.109 -0.6798  1.4314  1.1773
 4101TIP3    H212265   0.999   6.079   3.047  0.2635  2.1768  0.4023
 4102TIP3   OH212266   7.554   6.707   4.534  0.0288 -0.2567  0.3861
 4102TIP3    H112267   7.581   6.702   4.625  3.4629 -1.3588 -0.6369
 4102TIP3    H212268   7.593   6.787   4.500  0.7703 -1.0586 -0.7119
 4103TIP3   OH212269   0.412   7.220   3.887  0.5295  0.2753 -0.6286
 4103TIP3    H112270   0.323   7.223   3.922  0.6279 -0.2300 -0.3218
 4103TIP3    H212271   0.463   7.275   3.946  0.0717  2.0492 -1.8660
 4104TIP3   OH212272   1.486   4.213   1.096  0.6089  0.1421 -0.0232
 4104TIP3    H112273   1.412   4.262   1.059  0.6596  0.8890  0.8451
 4104TIP3    H212274   1.558   4.275   1.094  0.5440  0.2745  1.5693
 4105TIP3   OH212275   1.368   5.919   1.141  0.0298 -0.3987 -0.3619
 4105TIP3    H112276   1.427   5.871   1.199 -1.6842 -0.8898  1.0139
 4105TIP3    H212277   1.332   5.852   1.082  2.3079  0.2053 -2.5280
 4106TIP3   OH212278   0.469   5.004   4.472 -0.4730  0.1546 -0.3227
 4106TIP3    H112279   0.528   5.044   4.409  0.6546 -0.2418  0.4450
 4106TIP3    H212280   0.418   4.940   4.422  0.7977 -0.5480 -0.7375
 4107TIP3   OH212281   2.833   5.988   3.878 -0.7836  0.1318 -0.7732
 4107TIP3    H112282   2.749   5.953   3.849  0.3928 -1.4050 -2.4459
 4107TIP3    H212283   2.887   5.989   3.799  1.2587 -0.3607  0.5870
 4108TIP3   OH212284   0.791   6.782   2.495  0.2336 -0.5388  0.3416
 4108TIP3    H112285   0.817   6.690   2.484 -1.3945 -1.0908  0.9618
 4108TIP3    H212286   0.760   6.787   2.586 -0.9186  0.2995 -0.0870
 4109TIP3   OH212287   1.766   6.642   2.006  0.3787  0.4494 -0.3084
 4109TIP3    H112288   1.692   6.587   1.980  0.6529  0.8792 -2.0648
 4109TIP3    H212289   1.829   6.633   1.934  1.4917  1.0955  0.5629
 4110TIP3   OH212290   6.007   2.476   3.725  0.0079 -0.5324 -0.2101
 4110TIP3    H112291   5.966   2.400   3.766  0.1810 -0.4621  0.0964
 4110TIP3    H212292   6.101   2.456   3.725 -0.0794 -0.9445 -1.4302
 4111TIP3   OH212293   3.342   6.031   3.179  0.0571  0.1890  0.2953
 4111TIP3    H112294   3.338   5.936   3.193 -0.3360 -0.0491 -1.3282
 4111TIP3    H212295   3.427   6.044   3.136 -0.6948  0.3203 -1.1908
 4112TIP3   OH212296   2.167   3.877   1.227 -0.5536  0.2749 -0.6750
 4112TIP3    H112297   2.144   3.924   1.147 -1.7335  0.5633 -0.1677
 4112TIP3    H212298   2.223   3.938   1.275 -1.9831  1.1336 -0.0725
 4113TIP3   OH212299   2.051   4.475   1.075  0.5085  0.2410 -0.1832
 4113TIP3    H112300   2.051   4.401   1.015  0.1352 -1.0362  1.3557
 4113TIP3    H212301   2.024   4.550   1.022  0.5117 -0.7929 -1.6606
 4114TIP3   OH212302   2.004   6.031   1.332  0.3410  0.0952  0.6339
 4114TIP3    H112303   1.955   6.065   1.407 -1.1692 -0.4873 -0.0643
 4114TIP3    H212304   1.956   5.953   1.306  1.5487 -0.3845 -0.2025
 4115TIP3   OH212305   2.332   4.545   3.072  0.2866 -0.0158  0.4369
 4115TIP3    H112306   2.406   4.600   3.098  0.1908 -0.3048  1.3298
 4115TIP3    H212307   2.343   4.464   3.122 -1.7663  0.7216  2.1965
 4116TIP3   OH212308   0.540   4.005   4.381  0.3080 -0.0926  0.2135
 4116TIP3    H112309   0.525   4.089   4.425  1.9777  0.0999  0.4460
 4116TIP3    H212310   0.573   4.029   4.295  2.4847 -0.5159  0.9157
 4117TIP3   OH212311   2.623   4.938   4.038  1.1419 -0.4150 -0.6389
 4117TIP3    H112312   2.596   4.991   4.113  0.8072  1.5517 -2.1115
 4117TIP3    H212313   2.550   4.878   4.024 -0.4412  1.6653 -1.6302
 4118TIP3   OH212314   1.165   5.406   4.691 -1.0393  0.7289  0.1234
 4118TIP3    H112315   1.209   5.418   4.606 -1.9268  0.7070 -0.3386
 4118TIP3    H212316   1.176   5.313   4.711 -0.1147  0.8969  0.4316
 4119TIP3   OH212317   0.257   2.685   1.558 -0.3856 -0.6597  0.5239
 4119TIP3    H112318   0.303   2.617   1.607 -2.0017 -0.6272  2.1307
 4119TIP3    H212319   0.229   2.747   1.625  2.1113  2.2588 -1.0266
 4120TIP3   OH212320   2.984   6.129   1.914 -0.4734 -0.3590 -0.1162
 4120TIP3    H112321   2.937   6.198   1.866  0.4699  1.1277  1.0801
 4120TIP3    H212322   3.040   6.088   1.848  0.6785  1.5500 -0.3593
 4121TIP3   OH212323   1.480   5.221   2.828  0.0128 -0.1118  1.1561
 4121TIP3    H112324   1.558   5.170   2.851  0.8043  0.2064 -0.7737
 4121TIP3    H212325   1.486   5.234   2.734 -2.4773 -0.2067  0.9446
 4122TIP3   OH212326   3.438   6.285   3.850  0.1458  0.1911 -0.1858
 4122TIP3    H112327   3.385   6.356   3.813 -0.3888 -0.5624 -0.8640
 4122TIP3    H212328   3.527   6.318   3.847  0.3886 -0.6124 -3.9891
 4123TIP3   OH212329   5.677   0.699   4.944  0.7136 -0.3106  0.3908
 4123TIP3    H112330   5.650   0.645   4.869  0.2776  0.2734  0.1294
 4123TIP3    H212331   5.761   0.735   4.918  0.1787  0.5490 -0.1537
 4124TIP3   OH212332   3.604   5.650   3.226  0.6013  0.3148  0.1751
 4124TIP3    H112333   3.623   5.695   3.308  1.9041  3.1453 -1.6116
 4124TIP3    H212334   3.676   5.588   3.216  0.9755  0.6659  0.6601
 4125TIP3   OH212335   4.678   5.313   3.377 -0.1411 -0.4818 -0.2636
 4125TIP3    H112336   4.687   5.352   3.290  1.2161 -1.6965 -0.6867
 4125TIP3    H212337   4.614   5.243   3.365 -0.3479 -0.3158 -0.1487
 4126TIP3   OH212338   3.476   5.574   1.025  0.2389 -0.3091 -0.4322
 4126TIP3    H112339   3.522   5.658   1.030  0.2237 -0.3718  0.8699
 4126TIP3    H212340   3.507   5.524   1.101 -0.7522 -0.9603 -0.4377
 4127TIP3   OH212341   4.014   6.061   2.013  0.0535  0.2820  0.3945
 4127TIP3    H112342   3.959   5.985   2.030 -0.6916  0.6207 -0.4356
 4127TIP3    H212343   4.022   6.104   2.098  1.3560 -1.2798  1.0853
 4128TIP3   OH212344   1.587   6.461   2.893 -0.1438 -0.1974  0.0817
 4128TIP3    H112345   1.522   6.443   2.825 -1.5804 -0.3641  1.4688
 4128TIP3    H212346   1.631   6.541   2.864 -1.3230  0.2073 -0.6239
 4129TIP3   OH212347   1.587   5.100   4.473 -0.2307 -0.5500  0.0732
 4129TIP3    H112348   1.660   5.107   4.534 -1.6306 -0.9907  1.8412
 4129TIP3    H212349   1.615   5.035   4.409  1.2684 -0.0753  0.2390
 4130TIP3   OH212350   3.627   5.021   2.659 -0.1575  0.9807  0.1738
 4130TIP3    H112351   3.558   4.968   2.699 -0.6930  2.1700  0.8702
 4130TIP3    H212352   3.596   5.036   2.569  0.9195 -1.4680 -0.6301
 4131TIP3   OH212353   2.596   5.507   3.782 -0.2131 -0.3007 -0.2529
 4131TIP3    H112354   2.625   5.425   3.823  1.0285  0.0987 -0.3276
 4131TIP3    H212355   2.533   5.479   3.716 -0.6761 -1.1083  0.5133
 4132TIP3   OH212356   0.894   5.385   2.565  0.1825  0.1842  0.5185
 4132TIP3    H112357   0.951   5.447   2.519  0.1944  0.1739  0.5190
 4132TIP3    H212358   0.927   5.385   2.655  0.7829 -0.5513  0.2986
 4133TIP3   OH212359   5.861   3.108   6.131 -0.4732 -0.1717 -0.2231
 4133TIP3    H112360   5.935   3.168   6.125  0.4198 -1.4269 -2.2669
 4133TIP3    H212361   5.896   3.031   6.174 -0.8244 -0.4168 -0.3724
 4134TIP3   OH212362   3.954   6.066   0.721  0.0976 -0.1675 -0.0858
 4134TIP3    H112363   3.935   6.015   0.800  1.8116  3.0199  2.5026
 4134TIP3    H212364   3.876   6.120   0.709  0.0762 -0.2313 -0.2259
 4135TIP3   OH212365   1.596   6.896   3.702  0.1909  0.3694 -0.3804
 4135TIP3    H112366   1.521   6.877   3.759  0.4176  0.6546  0.0176
 4135TIP3    H212367   1.599   6.992   3.696  0.9743  0.3896  0.2175
 4136TIP3   OH212368   0.937   1.161   6.260 -0.6090  0.4226  0.4756
 4136TIP3    H112369   0.987   1.086   6.229  0.4672  0.9081  1.0248
 4136TIP3    H212370   0.854   1.124   6.290 -1.3398 -0.1528 -2.1587
 4137TIP3   OH212371   0.811   3.772   3.342 -0.7488 -0.1136  0.0899
 4137TIP3    H112372   0.720   3.745   3.350 -1.5072  2.2467 -0.2136
 4137TIP3    H212373   0.825   3.833   3.415  1.1832 -1.9905  1.3363
 4138TIP3   OH212374   5.198   0.164   1.966  0.7549  0.2238  0.0841
 4138TIP3    H112375   5.112   0.145   2.003  0.2041  0.1188 -1.1940
 4138TIP3    H212376   5.238   0.227   2.026 -1.0217  1.7899 -0.3474
 4139TIP3   OH212377   7.107   5.133   4.182 -0.2454  0.4356  0.1064
 4139TIP3    H112378   7.093   5.061   4.121  1.0122 -0.9280  1.3753
 4139TIP3    H212379   7.023   5.143   4.227 -1.4125  1.9680 -2.3518
 4140TIP3   OH212380   0.180   4.985   2.649 -0.0206 -0.3036 -0.3305
 4140TIP3    H112381   0.105   4.978   2.591  1.0289 -0.0270 -1.7716
 4140TIP3    H212382   0.163   4.923   2.719 -1.8579  0.1943 -0.3180
 4141TIP3   OH212383   2.199   5.725   2.978  0.1941  0.4832 -0.5726
 4141TIP3    H112384   2.154   5.714   3.061  0.8305 -0.2319 -0.3187
 4141TIP3    H212385   2.197   5.820   2.962 -1.4184  0.4509 -0.5898
 4142TIP3   OH212386   0.284   6.354   1.759 -0.0531  0.0991 -0.5553
 4142TIP3    H112387   0.324   6.440   1.752  0.3362 -0.2207 -2.4994
 4142TIP3    H212388   0.294   6.315   1.672 -2.0279 -1.1108 -0.2772
 4143TIP3   OH212389   3.361   2.852   2.086  0.2804  0.5276 -0.7995
 4143TIP3    H112390   3.341   2.926   2.143  1.6925 -1.1219  1.9618
 4143TIP3    H212391   3.457   2.850   2.083  0.2954 -1.9610  0.2623
 4144TIP3   OH212392   2.442   5.314   1.306  0.5871 -0.3506 -0.2133
 4144TIP3    H112393   2.380   5.360   1.248 -0.1272 -1.0025  0.0254
 4144TIP3    H212394   2.519   5.300   1.252  0.7603  1.0094 -0.3331
 4145TIP3   OH212395   2.813   1.091   1.567  0.1403 -0.0957 -0.2113
 4145TIP3    H112396   2.868   1.142   1.507 -1.0226  1.1855 -0.2293
 4145TIP3    H212397   2.774   1.023   1.512  2.5668 -1.7180  0.0384
 4146TIP3   OH212398   0.536   5.961   4.009 -0.1045 -0.4917  0.6712
 4146TIP3    H112399   0.557   5.993   4.096  2.4924 -0.0616 -0.0832
 4146TIP3    H212400   0.603   5.998   3.952 -0.7599 -2.1379 -1.2454
 4147TIP3   OH212401   2.106   5.990   2.963  0.0089 -0.4040 -0.6031
 4147TIP3    H112402   2.045   6.012   2.893 -0.0569  0.4574 -0.2862
 4147TIP3    H212403   2.086   6.052   3.033  1.1358 -0.2217 -0.4277
 4148TIP3   OH212404   3.078   4.206   1.640  0.1746  0.1776  0.1183
 4148TIP3    H112405   3.012   4.265   1.675 -1.5152 -1.5153 -0.1857
 4148TIP3    H212406   3.080   4.225   1.546 -0.2867 -0.1680  0.0388
 4149TIP3   OH212407   3.133   5.828   0.799 -0.5203 -0.0094 -0.4271
 4149TIP3    H112408   3.210   5.856   0.750  0.0349 -1.3733 -0.3386
 4149TIP3    H212409   3.160   5.747   0.842 -1.2373  0.7698  1.5258
 4150TIP3   OH212410   1.173   3.084   3.048 -0.4616 -0.3091  0.5426
 4150TIP3    H112411   1.141   3.162   3.002  0.9285  0.3959  0.7145
 4150TIP3    H212412   1.184   3.019   2.979  1.1774  0.6028 -0.0879
 4151TIP3   OH212413   2.720   5.803   4.970 -0.0513  0.3275  0.2197
 4151TIP3    H112414   2.744   5.849   4.890 -0.4076 -0.7069 -0.4836
 4151TIP3    H212415   2.631   5.833   4.989  0.4655  1.4806  0.9006
 4152TIP3   OH212416   3.023   5.981   4.548 -0.5948  0.5708  0.2243
 4152TIP3    H112417   3.044   5.898   4.507 -5.9616  0.4299 -2.7185
 4152TIP3    H212418   3.095   6.039   4.525 -0.0385 -1.4720 -3.4497
 4153TIP3   OH212419   2.593   5.385   0.035 -0.3713 -0.5788 -0.5267
 4153TIP3    H112420   2.605   5.454   0.100  0.1785 -0.6900 -0.5066
 4153TIP3    H212421   2.528   5.421  -0.026 -0.2460 -0.1244 -0.3981
 4154TIP3   OH212422   2.344   4.288   1.695 -0.0458  0.1901  0.1620
 4154TIP3    H112423   2.413   4.347   1.665 -1.1947  1.3312 -0.3003
 4154TIP3    H212424   2.385   4.234   1.763  1.8698 -0.5841 -1.5466
 4155TIP3   OH212425   0.727   6.849   0.509 -0.0102  0.2732 -0.0318
 4155TIP3    H112426   0.685   6.765   0.492 -0.4418  0.6743 -1.0295
 4155TIP3    H212427   0.821   6.830   0.510 -0.1729 -0.4727  1.2824
 4156TIP3   OH212428   1.716   6.217   3.035  0.7711 -0.5773 -0.5609
 4156TIP3    H112429   1.655   6.143   3.039 -0.7755  0.6897 -0.5725
 4156TIP3    H212430   1.677   6.278   2.973  2.5466 -0.1646 -1.3218
 4157TIP3   OH212431   3.198   5.777   1.767 -0.4159  0.1121  0.4416
 4157TIP3    H112432   3.133   5.757   1.834 -0.5048  0.9440  0.6084
 4157TIP3    H212433   3.179   5.867   1.741 -0.1013 -0.0585 -0.3870
 4158TIP3   OH212434   0.419   3.736   4.293  0.1966  0.2848 -0.2107
 4158TIP3    H112435   0.453   3.826   4.301 -0.8945  0.6777  0.1663
 4158TIP3    H212436   0.424   3.717   4.199  0.8185  0.5831 -0.2442
 4159TIP3   OH212437   2.227   5.081   0.849  0.5131  0.1458 -0.1970
 4159TIP3    H112438   2.238   5.002   0.797 -0.2206  0.0556 -0.2146
 4159TIP3    H212439   2.317   5.111   0.865  0.7725 -0.3072 -0.7645
 4160TIP3   OH212440   2.452   5.431   5.427  0.7370 -0.0063  0.4997
 4160TIP3    H112441   2.481   5.426   5.518 -0.1081  0.1656  0.7810
 4160TIP3    H212442   2.519   5.484   5.383  2.3209 -1.9264  0.5252
 4161TIP3   OH212443   1.757   4.688   2.857  0.2963  0.3062 -0.3542
 4161TIP3    H112444   1.686   4.630   2.830 -1.1363  1.5776  0.6423
 4161TIP3    H212445   1.723   4.734   2.934  1.9483  1.4163 -0.2604
 4162TIP3   OH212446   1.656   4.963   4.246 -0.2547 -0.0900  0.1325
 4162TIP3    H112447   1.681   4.872   4.231  1.4159  0.4202 -0.2721
 4162TIP3    H212448   1.730   5.014   4.212 -1.5377  1.4443 -0.4334
 4163TIP3   OH212449   0.851   5.043   5.270 -0.3421  0.0565 -0.2933
 4163TIP3    H112450   0.763   5.059   5.236 -0.6525 -0.7274  0.1469
 4163TIP3    H212451   0.909   5.087   5.207 -0.8619 -1.8036 -2.1382
 4164TIP3   OH212452   2.365   4.615   3.746 -0.6087 -0.1839  0.3907
 4164TIP3    H112453   2.439   4.658   3.701 -1.0769 -0.7434 -0.9525
 4164TIP3    H212454   2.296   4.613   3.680 -1.3930 -0.8379  1.2291
 4165TIP3   OH212455   1.454   5.745   2.234 -0.2205  0.1379 -0.2266
 4165TIP3    H112456   1.527   5.805   2.248 -1.4208  1.5495  0.1018
 4165TIP3    H212457   1.422   5.766   2.147 -0.2795 -0.4209 -0.3376
 4166TIP3   OH212458   5.830   7.233   4.457  0.0929  0.2455  0.7891
 4166TIP3    H112459   5.866   7.321   4.447 -0.4985  0.4129  0.0058
 4166TIP3    H212460   5.840   7.193   4.370  0.0436 -0.3386  1.0472
 4167TIP3   OH212461   1.407   4.699   3.735  0.6826 -0.1314 -0.4093
 4167TIP3    H112462   1.482   4.754   3.712  0.3669 -0.1450 -1.5277
 4167TIP3    H212463   1.340   4.721   3.669  0.7111 -2.1693 -1.1422
 4168TIP3   OH212464   7.639   4.509   1.062 -0.4262  0.2257  0.3320
 4168TIP3    H112465   7.566   4.522   1.002  1.2746  1.1175 -1.5729
 4168TIP3    H212466   7.657   4.415   1.058  0.3182  0.4288 -1.3251
 4169TIP3   OH212467   2.348   5.103   1.744 -0.1442  0.9560  0.3970
 4169TIP3    H112468   2.298   5.026   1.717  2.4865 -0.4675 -0.5453
 4169TIP3    H212469   2.317   5.172   1.686 -0.0861 -0.2189 -1.0557
 4170TIP3   OH212470   1.226   5.372   2.599  0.2497 -0.5058 -0.8947
 4170TIP3    H112471   1.220   5.281   2.570  1.3338 -0.2845 -1.8665
 4170TIP3    H212472   1.177   5.422   2.532 -0.2455 -0.3622 -0.4270
 4171TIP3   OH212473   5.484   0.485   3.957  0.0707 -0.1709  0.2518
 4171TIP3    H112474   5.458   0.459   3.869 -0.9150 -1.9092  1.0205
 4171TIP3    H212475   5.429   0.431   4.015  1.3219  0.2960  1.9135
 4172TIP3   OH212476   0.820   4.706   2.423  0.3370  0.3078 -0.0980
 4172TIP3    H112477   0.884   4.752   2.476  0.9351  1.5239 -1.8465
 4172TIP3    H212478   0.872   4.658   2.358 -0.3531 -1.5911  0.7074
 4173TIP3   OH212479   0.548   4.686   1.018 -0.2119 -0.0199 -0.6030
 4173TIP3    H112480   0.608   4.699   0.944 -0.5793 -0.7482 -1.0317
 4173TIP3    H212481   0.461   4.705   0.983 -0.4765 -1.1703 -0.5777
 4174TIP3   OH212482   2.526   5.914   3.392 -0.2824  0.4598  0.2507
 4174TIP3    H112483   2.504   5.970   3.466 -0.0212  1.2662 -0.2723
 4174TIP3    H212484   2.621   5.908   3.394 -0.3755 -0.8910  0.9703
 4175TIP3   OH212485   1.884   7.129   4.139  0.0069 -0.3341  0.3263
 4175TIP3    H112486   1.929   7.049   4.115  0.2579  0.1362 -0.7973
 4175TIP3    H212487   1.953   7.187   4.172 -0.0475 -0.2685  0.3248
 4176TIP3   OH212488   1.523   6.202   5.076 -0.0173 -0.1092 -0.3901
 4176TIP3    H112489   1.464   6.243   5.138  0.5577  0.3829 -0.1617
 4176TIP3    H212490   1.610   6.208   5.117 -0.0559 -2.4856  0.1185
 4177TIP3   OH212491   0.341   5.229   2.781  0.0410  0.3192 -0.2676
 4177TIP3    H112492   0.309   5.142   2.756  0.3831  0.4482 -1.1566
 4177TIP3    H212493   0.437   5.223   2.771 -0.0357  1.2203 -1.6937
 4178TIP3   OH212494   1.529   5.149   3.601 -0.1799  0.2859  0.2097
 4178TIP3    H112495   1.542   5.069   3.549 -1.0429  0.6850 -0.6243
 4178TIP3    H212496   1.477   5.206   3.545  2.1249  2.2520 -0.0199
 4179TIP3   OH212497   1.002   6.987   2.386 -0.7730 -0.5941  1.0043
 4179TIP3    H112498   0.985   6.899   2.420 -0.5576 -0.8951  0.3323
 4179TIP3    H212499   0.924   7.037   2.408 -2.0563 -1.6642 -1.0326
 4180TIP3   OH212500   1.442   6.036   4.830  0.5392  0.1197 -0.4453
 4180TIP3    H112501   1.460   6.095   4.904  0.8080 -0.5464  0.0255
 4180TIP3    H212502   1.467   5.949   4.862  1.4757 -0.0557 -1.6074
 4181TIP3   OH212503   2.372   5.908   2.469 -0.4161  1.1846  0.0380
 4181TIP3    H112504   2.355   5.884   2.560  0.3336 -0.1778 -0.1646
 4181TIP3    H212505   2.467   5.920   2.465 -0.0805 -1.4318 -1.1412
 4182TIP3   OH212506   0.778   5.752   2.860  0.1828  0.1627 -0.5480
 4182TIP3    H112507   0.721   5.695   2.808 -1.2711 -0.7576  1.9145
 4182TIP3    H212508   0.751   5.840   2.836 -0.1770 -0.2333 -1.6426
 4183TIP3   OH212509   0.900   4.961   2.237 -0.4791  0.2444  0.0187
 4183TIP3    H112510   0.883   4.982   2.329 -1.5988  1.5495 -0.4584
 4183TIP3    H212511   0.867   4.872   2.226  0.5979 -0.3038  1.1181
 4184TIP3   OH212512   2.925   5.136   4.190  0.4463  0.2205 -0.3863
 4184TIP3    H112513   2.956   5.062   4.138  0.3961  0.2059 -0.3966
 4184TIP3    H212514   2.954   5.117   4.279 -0.1943 -0.1750 -0.2520
 4185TIP3   OH212515   3.369   7.099   2.025  0.4414 -0.3214 -0.3283
 4185TIP3    H112516   3.403   7.179   2.066  1.2330 -0.7816 -0.0592
 4185TIP3    H212517   3.443   7.037   2.030 -0.2071 -1.1069 -0.4016
 4186TIP3   OH212518   7.757   6.242   2.814  0.2794 -0.4885  0.5974
 4186TIP3    H112519   7.848   6.223   2.791 -0.4551 -1.7928 -1.4655
 4186TIP3    H212520   7.746   6.335   2.794  0.5919 -0.8262 -1.2948
 4187TIP3   OH212521   2.256   7.237   2.998  0.2075 -0.1896 -0.0254
 4187TIP3    H112522   2.333   7.196   2.959 -0.9361 -0.1719 -2.4084
 4187TIP3    H212523   2.211   7.166   3.044 -0.4944 -1.1417 -2.1169
 4188TIP3   OH212524   1.621   6.891   1.411  0.5241 -0.3077 -0.2559
 4188TIP3    H112525   1.533   6.860   1.431  1.1427 -0.3853  2.5940
 4188TIP3    H212526   1.613   6.986   1.410  0.3776 -0.3172 -0.1000
 4189TIP3   OH212527   3.766   7.162   5.611  0.4200  0.2501  0.3129
 4189TIP3    H112528   3.735   7.251   5.592 -0.3175 -0.6424 -2.8393
 4189TIP3    H212529   3.781   7.123   5.525  0.1943 -2.8872  1.6537
 4190TIP3   OH212530   5.208   0.800   5.257 -0.2882 -0.4154  0.0310
 4190TIP3    H112531   5.257   0.743   5.198  0.2430  2.6838 -2.6702
 4190TIP3    H212532   5.274   0.861   5.291 -0.9873 -0.8429  2.2214
 4191TIP3   OH212533   2.202   7.115   1.064  0.7529  0.0452  0.1874
 4191TIP3    H112534   2.146   7.040   1.084  1.2935 -0.9375 -1.8551
 4191TIP3    H212535   2.154   7.190   1.097 -0.8271 -0.9935  0.2964
 4192TIP3   OH212536   4.777   4.968   4.445  0.1442  0.6622  0.0212
 4192TIP3    H112537   4.813   4.982   4.357  1.5012 -0.8053  0.3264
 4192TIP3    H212538   4.825   4.892   4.479  0.4796  1.9464  2.5104
 4193TIP3   OH212539   2.835   5.990   4.785 -0.1473  0.3090 -0.1998
 4193TIP3    H112540   2.831   6.085   4.794  1.2627  0.3405  0.1447
 4193TIP3    H212541   2.866   5.975   4.696 -0.1658  0.1685 -0.1835
 4194TIP3   OH212542   2.111   6.521   4.520  0.3017  0.2701 -0.1998
 4194TIP3    H112543   2.065   6.593   4.563 -0.0186 -1.1318  1.8816
 4194TIP3    H212544   2.059   6.503   4.442  0.2975  2.1809 -0.6502
 4195TIP3   OH212545   1.827   1.909   5.591  0.0737  0.1636  0.0624
 4195TIP3    H112546   1.820   1.971   5.664 -0.4752 -0.6704  0.7363
 4195TIP3    H212547   1.736   1.888   5.570  0.2675 -1.2764  0.6009
 4196TIP3   OH212548   2.669   5.981   1.788 -0.1133 -0.2900 -0.0134
 4196TIP3    H112549   2.723   5.996   1.865  1.0535 -0.1784 -0.8327
 4196TIP3    H212550   2.717   5.916   1.737 -2.2559 -2.5000  0.6877
 4197TIP3   OH212551   1.063   5.385   3.869 -0.3680  0.0225 -0.1164
 4197TIP3    H112552   1.045   5.471   3.831  0.8460  0.9777  1.4308
 4197TIP3    H212553   1.154   5.389   3.896 -1.1732 -0.6553  2.8472
 4198TIP3   OH212554   3.349   4.861   3.843  0.0361 -0.2053 -0.3781
 4198TIP3    H112555   3.377   4.845   3.934 -1.8270  0.3911  0.3306
 4198TIP3    H212556   3.329   4.774   3.809  2.0971 -0.5807 -0.7058
 4199TIP3   OH212557   1.966   5.555   3.498 -0.1715  0.5334  0.3709
 4199TIP3    H112558   1.963   5.467   3.535 -0.2455  0.8095  1.0388
 4199TIP3    H212559   2.021   5.605   3.559 -0.6596  1.1080  0.3490
 4200TIP3   OH212560   3.204   4.785   1.892 -0.5081  0.0656  0.2323
 4200TIP3    H112561   3.144   4.745   1.955  0.3940  0.1395  1.1412
 4200TIP3    H212562   3.287   4.741   1.906  0.0415  1.0278  0.0130
 4201TIP3   OH212563   3.995   4.594   3.345 -0.1985 -0.2184  0.0429
 4201TIP3    H112564   4.062   4.605   3.413  1.5880 -3.3695 -1.0703
 4201TIP3    H212565   4.041   4.611   3.263 -1.5242  0.4500 -0.5769
 4202TIP3   OH212566   4.820   4.994   0.643 -0.3309  0.0170 -0.1835
 4202TIP3    H112567   4.820   5.008   0.549 -0.3578  0.8358 -0.0674
 4202TIP3    H212568   4.780   5.074   0.679 -1.9120 -1.0196  0.4048
 4203TIP3   OH212569   1.420   5.403   2.102 -0.3156 -0.1393  0.0352
 4203TIP3    H112570   1.414   5.348   2.024 -1.6199 -0.6644  0.4825
 4203TIP3    H212571   1.491   5.364   2.153 -0.3825 -0.6366 -0.2429
 4204TIP3   OH212572   1.964   3.728   2.617 -0.0343  0.4205 -0.1745
 4204TIP3    H112573   2.057   3.703   2.610 -0.4800 -1.2797 -0.1463
 4204TIP3    H212574   1.949   3.737   2.711 -0.1516 -0.3344 -0.1151
 4205TIP3   OH212575   2.925   5.696   4.244  0.2760  0.7878 -0.2315
 4205TIP3    H112576   2.857   5.755   4.209 -0.1160  0.2582 -0.3764
 4205TIP3    H212577   2.911   5.614   4.196 -1.3207 -0.4847  2.3148
 4206TIP3   OH212578   0.980   5.871   0.339  0.5097 -0.0546  0.7901
 4206TIP3    H112579   1.045   5.831   0.280 -0.9658 -0.4732 -0.5948
 4206TIP3    H212580   0.991   5.965   0.325  0.9333 -0.1161  0.6821
 4207TIP3   OH212581   7.750   4.079   1.950  0.3818 -0.7500  0.0278
 4207TIP3    H112582   7.706   3.996   1.930  0.7805 -0.2708 -3.0943
 4207TIP3    H212583   7.821   4.055   2.009 -2.3225 -1.9246  2.9072
 4208TIP3   OH212584   0.234   6.857   2.811  0.2082 -0.2484  0.2500
 4208TIP3    H112585   0.323   6.843   2.842  0.5396 -1.6732 -1.2671
 4208TIP3    H212586   0.185   6.782   2.845  0.0984 -0.6599 -0.7888
 4209TIP3   OH212587   3.808   4.559   4.099  0.1433  0.2180  0.8697
 4209TIP3    H112588   3.755   4.495   4.147  2.3468 -1.3379  1.3396
 4209TIP3    H212589   3.790   4.642   4.142 -3.1194  0.0506 -0.0147
 4210TIP3   OH212590   2.127   5.710   0.286 -0.1689  0.4317 -0.2607
 4210TIP3    H112591   2.152   5.800   0.265 -2.1749  0.8814 -0.8073
 4210TIP3    H212592   2.046   5.719   0.336  0.5923 -1.0057  1.2743
 4211TIP3   OH212593   7.326   5.869   3.280  0.5195  0.0614  0.6479
 4211TIP3    H112594   7.304   5.782   3.246  0.4447  0.0630  0.6909
 4211TIP3    H212595   7.320   5.927   3.204  0.8306 -0.0152  0.5657
 4212TIP3   OH212596   1.632   5.371   2.288  0.5484 -0.6027 -0.0235
 4212TIP3    H112597   1.564   5.383   2.354  0.8163  0.7934  0.0139
 4212TIP3    H212598   1.712   5.358   2.339  0.4676 -1.2917 -0.0703
 4213TIP3   OH212599   1.568   4.975   2.434  0.4657  0.0122 -0.0702
 4213TIP3    H112600   1.479   4.942   2.447  1.0811 -1.7986 -0.3901
 4213TIP3    H212601   1.607   4.972   2.521  0.8173 -0.9540 -0.2658
 4214TIP3   OH212602   0.783   6.412   1.931  0.2465  0.5964 -0.3066
 4214TIP3    H112603   0.848   6.410   1.861  1.1386  2.0686  0.4604
 4214TIP3    H212604   0.797   6.496   1.974 -0.0960 -0.4051  1.8184
 4215TIP3   OH212605   1.317   5.684   4.128 -0.4981  0.2924  0.0260
 4215TIP3    H112606   1.298   5.718   4.216 -2.0802  0.4813 -0.3718
 4215TIP3    H212607   1.373   5.608   4.143 -1.8098 -0.4492  1.2803
 4216TIP3   OH212608   2.187   6.670   5.480  0.2485  0.0126 -0.3098
 4216TIP3    H112609   2.263   6.713   5.519 -0.2508  0.2702  0.3997
 4216TIP3    H212610   2.129   6.742   5.455 -0.5983 -0.2407  0.8964
 4217TIP3   OH212611   2.600   5.595   1.250 -0.7213  0.0822 -0.1272
 4217TIP3    H112612   2.679   5.542   1.246 -0.9299 -0.3807  1.4686
 4217TIP3    H212613   2.622   5.675   1.202 -0.1235 -1.0767 -1.8229
 4218TIP3   OH212614   1.637   3.837   3.490 -0.2260 -0.0261  0.3668
 4218TIP3    H112615   1.686   3.850   3.409  0.6705 -0.6264  0.8036
 4218TIP3    H212616   1.556   3.793   3.463 -0.9410  1.7414 -0.4648
 4219TIP3   OH212617   1.798   6.776   4.189 -0.1611  0.0227 -0.4157
 4219TIP3    H112618   1.779   6.696   4.139 -0.2515 -0.1194 -0.1540
 4219TIP3    H212619   1.747   6.767   4.269  1.0080 -0.3873  0.3109
 4220TIP3   OH212620   0.672   6.978   2.363  0.3162 -0.3067 -0.1749
 4220TIP3    H112621   0.685   6.887   2.388  0.8590 -0.2525 -0.2460
 4220TIP3    H212622   0.728   7.028   2.422  1.1766 -0.1402 -1.1043
 4221TIP3   OH212623   2.016   4.940   5.229  0.9670 -0.1021  0.1945
 4221TIP3    H112624   1.981   4.958   5.142 -0.0923  0.0941  0.6559
 4221TIP3    H212625   2.075   5.014   5.246  1.4682 -0.3391 -0.5107
 4222TIP3   OH212626   0.850   7.191   5.091  0.3742 -0.2644  0.0413
 4222TIP3    H112627   0.818   7.104   5.068  0.0832  0.6187 -3.1596
 4222TIP3    H212628   0.944   7.179   5.105  0.2508 -1.1711  0.1411
 4223TIP3   OH212629   2.253   6.357   1.610  0.0112 -0.0737 -0.4247
 4223TIP3    H112630   2.344   6.375   1.585  0.1058 -0.4460 -0.3469
 4223TIP3    H212631   2.242   6.263   1.598 -0.5740  0.0725 -1.0968
 4224TIP3   OH212632   7.309   6.557   1.421  1.2571 -0.2809  0.2366
 4224TIP3    H112633   7.276   6.572   1.509  0.9341  1.4313 -0.1507
 4224TIP3    H212634   7.288   6.466   1.402  1.7313 -0.7874  2.0934
 4225TIP3   OH212635   1.216   6.861   3.215 -0.8165 -0.1816 -0.3555
 4225TIP3    H112636   1.298   6.860   3.265 -1.0969 -0.1032  0.1145
 4225TIP3    H212637   1.240   6.897   3.130 -0.0646 -1.6466 -0.7633
 4226TIP3   OH212638   7.075   0.513   2.730  0.0053  0.1943 -0.4248
 4226TIP3    H112639   7.100   0.600   2.698  0.6100  0.2692  0.2413
 4226TIP3    H212640   7.157   0.475   2.763 -0.1974 -0.7531 -0.9968
 4227TIP3   OH212641   1.528   3.877   3.757 -0.1837  0.1170  0.0806
 4227TIP3    H112642   1.442   3.885   3.714  0.0527  0.4331 -0.3386
 4227TIP3    H212643   1.587   3.852   3.686  0.1365  0.2379  0.3076
 4228TIP3   OH212644   1.140   3.727   4.262  0.9161 -0.2777 -0.2072
 4228TIP3    H112645   1.171   3.656   4.318  0.1905 -0.7846 -0.4402
 4228TIP3    H212646   1.066   3.690   4.214  0.9578  0.4246 -0.8394
 4229TIP3   OH212647   1.608   4.481   3.927  0.3807  0.0290  0.1494
 4229TIP3    H112648   1.632   4.508   4.015  1.1492 -0.2630  0.0405
 4229TIP3    H212649   1.526   4.432   3.937  1.8517 -2.3424  1.0800
 4230TIP3   OH212650   1.800   5.172   3.333 -1.0564  0.3391  0.1999
 4230TIP3    H112651   1.821   5.265   3.318 -1.9625  0.4558 -0.3837
 4230TIP3    H212652   1.832   5.128   3.254  0.7278 -0.0709  1.1183
 4231TIP3   OH212653   2.107   5.214   2.412  0.0530  0.2879  0.9465
 4231TIP3    H112654   2.115   5.215   2.317  1.1808  2.7458  1.0308
 4231TIP3    H212655   2.194   5.188   2.443 -0.3095 -0.5098  1.3053
 4232TIP3   OH212656   1.112   2.286   1.210  0.3577  0.3956  0.8381
 4232TIP3    H112657   1.045   2.328   1.265  1.0507  0.6704  1.4797
 4232TIP3    H212658   1.154   2.359   1.164  0.4253  0.2493  0.6683
 4233TIP3   OH212659   1.957   4.984   2.445  0.5896  0.2198 -0.3527
 4233TIP3    H112660   1.996   5.071   2.440 -0.2039  0.5188 -1.5066
 4233TIP3    H212661   1.886   4.992   2.509  2.3924 -0.3284  1.7615
 4234TIP3   OH212662   1.168   5.071   3.451  0.0230  0.2563  0.2844
 4234TIP3    H112663   1.231   5.142   3.462  1.5998 -1.0527 -0.1204
 4234TIP3    H212664   1.135   5.054   3.539 -0.2433  1.3481  0.4097
 4235TIP3   OH212665   0.879   6.687   4.154  0.1203  0.3458  0.0372
 4235TIP3    H112666   0.925   6.653   4.078 -1.0915 -1.7591  0.2046
 4235TIP3    H212667   0.845   6.772   4.125 -0.6109 -0.5653 -1.8978
 4236TIP3   OH212668   0.008   6.104   0.774 -0.0827  0.2207  0.2827
 4236TIP3    H112669   0.063   6.044   0.825  0.2972  1.1317  0.9573
 4236TIP3    H212670  -0.020   6.170   0.837  1.6003  2.2042 -1.0078
 4237TIP3   OH212671   1.775   5.313   2.700  0.0125 -0.3123 -0.0041
 4237TIP3    H112672   1.781   5.306   2.605 -1.1112  1.0097 -0.1737
 4237TIP3    H212673   1.747   5.403   2.716 -0.7285 -0.8060  1.5357
 4238TIP3   OH212674   2.167   6.240   0.458  0.1735  0.2561 -0.2370
 4238TIP3    H112675   2.231   6.281   0.516  0.6464 -0.4797 -0.2323
 4238TIP3    H212676   2.219   6.187   0.398 -0.3028  1.1090 -1.4267
 4239TIP3   OH212677   4.548   0.639   2.570  0.0018  0.1180  0.2049
 4239TIP3    H112678   4.550   0.609   2.479 -0.8262  1.3735 -0.2250
 4239TIP3    H212679   4.628   0.690   2.580  0.2417 -0.2633  0.2828
 4240TIP3   OH212680   1.127   4.843   5.055  0.3220  0.4376  0.0045
 4240TIP3    H112681   1.184   4.768   5.068 -2.0263 -1.2398  1.0914
 4240TIP3    H212682   1.071   4.818   4.982 -0.0151  1.4334 -0.0925
 4241TIP3   OH212683   0.766   5.763   4.707 -0.1332 -0.0232 -0.3027
 4241TIP3    H112684   0.701   5.753   4.637  1.0481 -1.2859 -1.2468
 4241TIP3    H212685   0.841   5.711   4.678  0.5169 -0.2669  1.7341
 4242TIP3   OH212686   1.451   6.094   2.290 -0.0257  0.2737  0.0047
 4242TIP3    H112687   1.536   6.051   2.285 -0.9951 -1.6312 -0.4725
 4242TIP3    H212688   1.449   6.132   2.378  1.3379  0.3942 -0.0019
 4243TIP3   OH212689   3.203   6.125   2.088 -0.5588  0.1407 -0.3652
 4243TIP3    H112690   3.112   6.117   2.060 -1.1834  0.4114  1.5202
 4243TIP3    H212691   3.243   6.183   2.024 -1.7636  0.1730 -1.1058
 4244TIP3   OH212692   4.558   6.302   3.543  0.5084  0.6460 -0.5463
 4244TIP3    H112693   4.463   6.292   3.546  0.3497  2.4203  1.4007
 4244TIP3    H212694   4.592   6.213   3.549 -0.9958  0.1511  0.8920
 4245TIP3   OH212695   3.171   4.898   2.667 -0.5146  0.0362  0.8083
 4245TIP3    H112696   3.159   4.984   2.626 -1.3032 -0.4507 -0.0074
 4245TIP3    H212697   3.266   4.884   2.665 -0.6006 -0.3520 -1.6493
 4246TIP3   OH212698   6.572   6.403   0.550 -0.1439 -0.2133 -0.2788
 4246TIP3    H112699   6.486   6.388   0.511 -0.1435 -1.9070  0.3220
 4246TIP3    H212700   6.582   6.332   0.614  1.1949  0.6615  0.5049
 4247TIP3   OH212701   5.176   4.942   4.977 -0.1518  0.1570 -0.0919
 4247TIP3    H112702   5.212   4.854   4.984 -0.3618  0.1042  0.3351
 4247TIP3    H212703   5.228   4.984   4.908  1.5239  0.4784  1.3187
 4248TIP3   OH212704   5.535   5.959   2.232 -0.1318 -0.3274 -0.1261
 4248TIP3    H112705   5.603   5.919   2.286  0.0144 -1.4144 -1.0902
 4248TIP3    H212706   5.526   5.900   2.158 -1.6042  0.2085 -0.3862
 4249TIP3   OH212707   3.787   5.214   1.385 -0.1967  0.0977 -0.4832
 4249TIP3    H112708   3.814   5.195   1.296  1.4559  0.1481 -0.0141
 4249TIP3    H212709   3.693   5.231   1.379 -0.1461 -0.1634 -2.1570
 4250TIP3   OH212710   2.721   6.166   3.002  0.7022  0.3366 -0.4570
 4250TIP3    H112711   2.706   6.168   3.097 -1.5941  0.8312 -0.7985
 4250TIP3    H212712   2.711   6.256   2.974 -0.0281 -0.0177 -1.3711
 4251TIP3   OH212713   5.839   5.679   3.095  0.3384  0.0022 -0.2828
 4251TIP3    H112714   5.799   5.713   3.015  0.3195  2.2753  0.6556
 4251TIP3    H212715   5.848   5.755   3.152  1.0799 -1.4369  1.5926
 4252TIP3   OH212716   1.745   6.335   4.428 -0.0772  0.0792 -0.3240
 4252TIP3    H112717   1.797   6.396   4.481  0.1781 -0.9961  0.6866
 4252TIP3    H212718   1.806   6.304   4.361  0.5321 -1.0067  0.7222
 4253TIP3   OH212719   5.066   6.913   2.781 -0.3132 -0.3269  0.3633
 4253TIP3    H112720   5.155   6.947   2.773 -0.2061 -1.0433 -1.5947
 4253TIP3    H212721   5.012   6.976   2.733 -0.7375 -0.4127  0.7264
 4254TIP3   OH212722   1.643   1.776   5.932  0.1983  0.0949 -0.0973
 4254TIP3    H112723   1.707   1.844   5.951 -0.0008 -0.0450  1.1240
 4254TIP3    H212724   1.561   1.824   5.918  0.1951  0.1438  0.0962
 4255TIP3   OH212725   3.431   3.826   1.252 -0.1205  0.3667 -0.1156
 4255TIP3    H112726   3.346   3.788   1.231  0.7446 -1.8154  0.1907
 4255TIP3    H212727   3.486   3.751   1.274  1.8462  1.7503 -0.1706
 4256TIP3   OH212728   3.224   6.969   2.222  0.1107 -0.8037 -0.4853
 4256TIP3    H112729   3.263   6.881   2.218 -1.2552 -1.4405 -0.1077
 4256TIP3    H212730   3.242   7.007   2.136 -0.3610 -1.9390 -1.0974
 4257TIP3   OH212731   7.697   1.222   5.788  0.2201  0.7855 -0.0475
 4257TIP3    H112732   7.714   1.132   5.816  2.4252  1.3591  0.5632
 4257TIP3    H212733   7.696   1.217   5.692  0.8857  0.2028 -0.0305
 4258TIP3   OH212734   1.021   5.991   0.843 -0.5506  0.1988  0.0617
 4258TIP3    H112735   1.032   5.897   0.861  2.4679  0.4485 -0.1344
 4258TIP3    H212736   0.957   5.995   0.773  0.1084 -1.8117 -0.6877
 4259TIP3   OH212737   5.661   5.430   2.261  0.1246  0.4135  0.0775
 4259TIP3    H112738   5.755   5.437   2.246  0.1264 -0.2379 -0.2424
 4259TIP3    H212739   5.631   5.368   2.195 -0.9405  2.4899 -1.4541
 4260TIP3   OH212740   3.703   5.496   2.196 -0.5936  0.4563 -0.1560
 4260TIP3    H112741   3.685   5.578   2.148 -0.6814  0.7784  0.4237
 4260TIP3    H212742   3.799   5.491   2.200 -0.5287 -0.6865 -2.2629
 4261TIP3   OH212743   4.243   4.902   0.554  0.2699 -0.1162 -0.4647
 4261TIP3    H112744   4.208   4.900   0.465  2.0995  1.1463 -1.2443
 4261TIP3    H212745   4.324   4.952   0.546  0.8661 -0.7009  1.7749
 4262TIP3   OH212746   4.091   4.412   2.870 -0.4089 -0.2618  0.4300
 4262TIP3    H112747   4.062   4.480   2.930 -1.7133  0.1596 -0.6566
 4262TIP3    H212748   4.111   4.459   2.789  0.5399 -0.9300  0.2618
 4263TIP3   OH212749   2.345   5.544   1.094  0.4838  0.1499 -0.1189
 4263TIP3    H112750   2.317   5.606   1.162 -0.6594  1.5047 -1.7831
 4263TIP3    H212751   2.439   5.535   1.108  0.3683  0.8851  1.2661
 4264TIP3   OH212752   2.647   7.003   1.913  0.5878  0.6278  0.5241
 4264TIP3    H112753   2.657   6.945   1.838  0.4897 -0.4110  1.3153
 4264TIP3    H212754   2.571   7.058   1.891 -0.4133 -0.7365  0.5558
 4265TIP3   OH212755   2.393   7.166   0.686  0.8038  0.1402  0.4733
 4265TIP3    H112756   2.407   7.072   0.672  0.7395  0.4667 -2.0255
 4265TIP3    H212757   2.456   7.190   0.754  0.5917 -1.7708  1.3742
 4266TIP3   OH212758   2.438   5.942   0.347 -0.7577 -0.1805 -0.1557
 4266TIP3    H112759   2.391   5.934   0.430 -0.5308  1.8841  0.1838
 4266TIP3    H212760   2.375   5.912   0.281 -2.1149  1.3067  0.4360
 4267TIP3   OH212761   4.414   6.394   3.894 -0.2845  0.8206  0.5610
 4267TIP3    H112762   4.451   6.437   3.817  1.0230 -1.2932 -0.0173
 4267TIP3    H212763   4.443   6.448   3.967  2.1953  0.4087 -0.0736
 4268TIP3   OH212764   2.167  -0.011   6.321 -0.7557 -0.1106  0.0720
 4268TIP3    H112765   2.072  -0.014   6.309 -0.8881 -1.9181  1.3369
 4268TIP3    H212766   2.178   0.026   6.409 -0.3592 -1.1759  0.4829
 4269TIP3   OH212767   4.253   2.621   3.378  0.2352  0.4403 -0.3984
 4269TIP3    H112768   4.190   2.563   3.335  0.0286 -1.4749  2.3675
 4269TIP3    H212769   4.199   2.687   3.422  0.2229 -0.1925  0.5465
 4270TIP3   OH212770   2.625   6.249   1.407 -0.1623  0.3551 -0.1577
 4270TIP3    H112771   2.558   6.313   1.431  0.1564  0.2049  1.1590
 4270TIP3    H212772   2.597   6.217   1.321 -0.9840  1.3658 -0.2809
 4271TIP3   OH212773   3.395   5.752   3.583  0.2327 -0.1665 -0.1154
 4271TIP3    H112774   3.454   5.826   3.570  0.2032 -0.0192  0.5609
 4271TIP3    H212775   3.338   5.780   3.655 -0.2729 -0.5420 -0.3706
 4272TIP3   OH212776   4.234   5.401   2.827 -0.1734  0.3797 -0.4709
 4272TIP3    H112777   4.326   5.376   2.821 -0.4350 -0.6761 -0.1253
 4272TIP3    H212778   4.223   5.434   2.916 -0.9112 -2.7816  0.6877
 4273TIP3   OH212779   3.074   6.386   2.182  0.2464  0.4654  0.7738
 4273TIP3    H112780   3.050   6.394   2.090 -0.7837  1.0920  1.0931
 4273TIP3    H212781   3.147   6.324   2.182  0.3620  0.5843 -0.4766
 4274TIP3   OH212782   3.210   4.619   4.344  0.5585  0.3552  0.6843
 4274TIP3    H112783   3.175   4.569   4.418 -0.7834  0.9975  0.4961
 4274TIP3    H212784   3.299   4.585   4.332  0.8262  0.3105  2.6491
 4275TIP3   OH212785   3.090   6.217   1.363  0.7108 -0.1528 -0.3075
 4275TIP3    H112786   3.078   6.239   1.455  0.3512 -0.0038 -0.3909
 4275TIP3    H212787   3.006   6.235   1.322  1.0317  0.3082 -0.7725
 4276TIP3   OH212788   4.859   7.345   5.423 -0.1148  0.1789 -0.1459
 4276TIP3    H112789   4.839   7.313   5.511 -1.4312 -0.9315 -0.8335
 4276TIP3    H212790   4.870   7.266   5.370  1.1817  0.8274 -0.8936
 4277TIP3   OH212791   4.909   6.736   1.068 -0.0085  0.6343  0.5143
 4277TIP3    H112792   4.819   6.732   1.034  0.4436 -1.2885 -0.5221
 4277TIP3    H212793   4.908   6.810   1.130 -1.5262  2.5110 -1.6770
 4278TIP3   OH212794   3.550   2.971   1.457  0.2132  0.3263 -0.0588
 4278TIP3    H112795   3.607   2.994   1.384  0.3655  1.8566  0.5254
 4278TIP3    H212796   3.484   2.913   1.419  0.1070  1.3583 -1.4593
 4279TIP3   OH212797   4.354   4.497   2.669  0.1392 -0.0688  0.9166
 4279TIP3    H112798   4.383   4.562   2.605  0.1592 -2.0030 -1.1101
 4279TIP3    H212799   4.435   4.467   2.710  0.5879 -1.6985 -1.0490
 4280TIP3   OH212800   5.874   0.485   3.714  0.5081 -0.0749 -0.2545
 4280TIP3    H112801   5.820   0.488   3.635  0.9307 -0.9890 -0.5878
 4280TIP3    H212802   5.819   0.439   3.778  0.1203  0.7707  0.0241
 4281TIP3   OH212803   6.971   0.169   2.893 -0.3633  0.6656 -0.0622
 4281TIP3    H112804   7.061   0.182   2.865 -0.0188 -0.9495  0.2472
 4281TIP3    H212805   6.918   0.191   2.816  0.4040 -0.4871 -0.9321
 4282TIP3   OH212806   2.070   6.307   4.020  0.0849 -0.3287  0.0087
 4282TIP3    H112807   2.038   6.322   3.931 -1.7104  0.0846  0.7060
 4282TIP3    H212808   2.164   6.294   4.009  0.2119  1.7507 -1.7115
 4283TIP3   OH212809   5.114   2.035   2.168 -0.6899  0.3278 -0.0924
 4283TIP3    H112810   5.148   1.945   2.161 -0.3935  0.5019 -0.9356
 4283TIP3    H212811   5.067   2.048   2.086 -0.6769  0.9665  0.0054
 4284TIP3   OH212812   3.113   6.035   1.691  0.7740 -0.0343 -0.1036
 4284TIP3    H112813   3.048   6.101   1.664  0.0123 -0.7076  0.0656
 4284TIP3    H212814   3.195   6.067   1.655  0.3319  0.7843 -0.4102
 4285TIP3   OH212815   2.780   6.076   3.353  0.2397  0.6746 -0.2960
 4285TIP3    H112816   2.730   6.121   3.421  1.2753  0.3532  0.6966
 4285TIP3    H212817   2.835   6.014   3.400  0.3064 -0.2125 -1.5054
 4286TIP3   OH212818   3.735   6.247   3.608  0.2622  0.1031  0.0609
 4286TIP3    H112819   3.734   6.185   3.535  0.6088  1.8446 -1.4605
 4286TIP3    H212820   3.657   6.301   3.594 -0.3586 -0.3302  1.7013
 4287TIP3   OH212821   2.744   1.412   6.132  0.0185 -0.1702 -0.0022
 4287TIP3    H112822   2.748   1.499   6.093  1.1227 -0.0040  0.4466
 4287TIP3    H212823   2.831   1.375   6.118  0.2491 -0.3341  1.7711
 4288TIP3   OH212824   7.541   2.145   6.342  0.6487  0.1267 -0.0802
 4288TIP3    H112825   7.483   2.190   6.280 -0.2375  0.4439  0.9644
 4288TIP3    H212826   7.542   2.054   6.312 -1.9794 -0.3046  1.0137
 4289TIP3   OH212827   6.444   2.485   5.973  0.2025  0.3877 -0.6392
 4289TIP3    H112828   6.376   2.550   5.957 -0.2196  0.0093 -0.4175
 4289TIP3    H212829   6.502   2.491   5.897  1.4474  2.5713  0.4397
 4290TIP3   OH212830   3.156   5.050   1.841  0.0051  0.1496 -0.1154
 4290TIP3    H112831   3.150   4.964   1.882  0.5129 -0.2669 -0.8962
 4290TIP3    H212832   3.230   5.042   1.780  1.3362  1.7235  1.2289
 4291TIP3   OH212833   3.314   6.272   0.190  0.3882 -0.7074 -0.0410
 4291TIP3    H112834   3.243   6.273   0.126  0.2382 -0.7768  0.1269
 4291TIP3    H212835   3.280   6.223   0.264  0.9608 -1.5880 -0.3568
 4292TIP3   OH212836   2.380   0.572   3.345 -0.0695  0.3396  0.0006
 4292TIP3    H112837   2.348   0.652   3.303 -0.4521  0.2036  0.0353
 4292TIP3    H212838   2.317   0.554   3.414 -0.5153 -0.5324 -0.6289
 4293TIP3   OH212839   4.295   6.982   4.212 -0.0631  0.2462 -0.5042
 4293TIP3    H112840   4.367   7.044   4.212 -0.1653  0.4097  1.9026
 4293TIP3    H212841   4.234   7.017   4.146  0.0354  2.5054  0.5550
 4294TIP3   OH212842   3.837   5.964   1.153 -0.7083 -0.5896  0.2622
 4294TIP3    H112843   3.868   5.921   1.074 -1.2790  1.7257 -1.2585
 4294TIP3    H212844   3.788   6.041   1.122 -0.1613  0.8760  2.8472
 4295TIP3   OH212845   4.550   0.104   0.736 -0.1958  0.2139 -0.3161
 4295TIP3    H112846   4.635   0.064   0.756  0.7650  1.3188 -2.1054
 4295TIP3    H212847   4.533   0.080   0.646 -0.6905  1.8866 -0.6900
 4296TIP3   OH212848   3.329   6.754   2.885  0.5983 -0.3449 -0.3144
 4296TIP3    H112849   3.290   6.832   2.925 -0.4416 -1.4096  0.8077
 4296TIP3    H212850   3.358   6.702   2.960  1.0737 -1.1381 -1.0510
 4297TIP3   OH212851   2.836   6.515   2.974 -0.1370 -0.2744  0.0711
 4297TIP3    H112852   2.926   6.488   2.994  0.2515  1.8388  1.3388
 4297TIP3    H212853   2.847   6.589   2.915 -1.1381 -1.5930 -1.8120
 4298TIP3   OH212854   7.593   0.771   6.316  0.4581  0.2970  0.1876
 4298TIP3    H112855   7.670   0.774   6.373  1.1095  1.3183 -0.7382
 4298TIP3    H212856   7.629   0.775   6.227 -0.5939 -0.5402 -0.2766
 4299TIP3   OH212857   3.052   4.345   0.807 -0.1387  0.5749 -0.0457
 4299TIP3    H112858   3.135   4.312   0.842  0.0617  0.8742 -0.2346
 4299TIP3    H212859   3.058   4.440   0.818  0.1556  0.7221 -1.3990
 4300TIP3   OH212860   2.518   5.318   3.050 -0.2233 -0.2381 -0.3805
 4300TIP3    H112861   2.519   5.380   2.977  1.2887  1.8153  1.3532
 4300TIP3    H212862   2.457   5.355   3.113  1.8012  0.2892  1.3129
 4301TIP3   OH212863   5.152   6.882   1.634 -0.4203  0.0685  0.7193
 4301TIP3    H112864   5.210   6.890   1.557  0.2693  0.1320  1.2367
 4301TIP3    H212865   5.073   6.929   1.609 -0.4745 -0.5029 -0.2185
 4302TIP3   OH212866   1.219   0.432   5.447 -0.3930  0.4345 -0.6083
 4302TIP3    H112867   1.296   0.383   5.420  0.8987  1.3787  1.2440
 4302TIP3    H212868   1.147   0.369   5.441  1.1188 -1.5411  1.1311
 4303TIP3   OH212869   2.561   5.301   2.354  0.0081 -0.3109  0.4303
 4303TIP3    H112870   2.563   5.396   2.371 -1.0645 -0.8264  3.8315
 4303TIP3    H212871   2.615   5.263   2.424 -2.8038 -2.4709  1.5241
 4304TIP3   OH212872   2.657   4.811   2.542  0.5575 -0.1974 -0.4451
 4304TIP3    H112873   2.741   4.798   2.500  0.2368 -0.5151 -0.9951
 4304TIP3    H212874   2.650   4.906   2.555  0.1642  0.0191 -2.1420
 4305TIP3   OH212875   3.994   3.563   1.345  0.1441  0.3072 -0.2811
 4305TIP3    H112876   3.965   3.648   1.313 -1.9357 -0.3999 -0.4161
 4305TIP3    H212877   4.084   3.554   1.314  0.8609  3.0085  0.9106
 4306TIP3   OH212878   5.521   0.706   1.935 -0.2692 -0.3408  0.7730
 4306TIP3    H112879   5.432   0.707   1.898 -0.3455 -1.8816  0.8868
 4306TIP3    H212880   5.546   0.614   1.934  0.5774 -0.1455  2.5316
 4307TIP3   OH212881   2.387   4.203   2.896  0.2592  1.0510  0.2515
 4307TIP3    H112882   2.454   4.161   2.842 -0.0857  1.2471 -0.3391
 4307TIP3    H212883   2.431   4.278   2.936  0.3309  1.3320 -0.3423
 4308TIP3   OH212884   3.507   5.902   2.852  0.2730  0.2354 -0.3961
 4308TIP3    H112885   3.425   5.858   2.832 -0.3373  0.9443  0.5641
 4308TIP3    H212886   3.572   5.832   2.854 -0.3283 -0.3437 -0.9701
 4309TIP3   OH212887   7.423   0.579   6.357 -0.3323 -0.0727 -0.0306
 4309TIP3    H112888   7.488   0.649   6.365 -0.5247 -0.0346  1.2404
 4309TIP3    H212889   7.427   0.553   6.265  0.7305  0.6560 -0.1945
 4310TIP3   OH212890   1.519   5.802   2.850 -0.0274 -0.0167  0.3626
 4310TIP3    H112891   1.498   5.709   2.838 -0.6710  0.1703 -0.0291
 4310TIP3    H212892   1.561   5.828   2.769 -2.0577  0.6215 -0.5231
 4311TIP3   OH212893   1.677   5.925   1.171 -0.5053 -0.3589  0.1811
 4311TIP3    H112894   1.678   5.924   1.267  1.3432  1.7573  0.2347
 4311TIP3    H212895   1.628   6.004   1.148 -0.9095 -0.8358 -0.6406
 4312TIP3   OH212896   5.077   6.603   3.603  0.4046  0.2546 -0.3657
 4312TIP3    H112897   5.061   6.696   3.616  0.9618  0.4410 -1.0032
 4312TIP3    H212898   5.093   6.594   3.509  1.0988 -0.3673 -0.1914
 4313TIP3   OH212899   3.686   5.096   3.094 -0.3605  0.0697  0.6211
 4313TIP3    H112900   3.719   5.158   3.029 -0.7112 -1.2711 -0.8720
 4313TIP3    H212901   3.744   5.020   3.086 -0.6450 -0.2621  1.6257
 4314TIP3   OH212902   4.209   4.304   2.492 -0.0558 -0.3283 -0.0335
 4314TIP3    H112903   4.196   4.369   2.561  0.4393 -0.9190  0.6191
 4314TIP3    H212904   4.289   4.332   2.448  0.6430 -0.9721  0.8026
 4315TIP3   OH212905   3.618   5.174   1.779  0.5101  0.2852  0.4369
 4315TIP3    H112906   3.614   5.149   1.871 -2.4826  2.7195  1.0650
 4315TIP3    H212907   3.597   5.268   1.779  1.6051  0.5986 -2.6258
 4316TIP3   OH212908   3.566   5.104   1.017  0.2821 -0.2204 -0.1202
 4316TIP3    H112909   3.637   5.048   0.985  0.9582  1.0188 -0.8192
 4316TIP3    H212910   3.567   5.179   0.958 -0.1122  0.8967  1.2791
 4317TIP3   OH212911   4.066   3.617   3.428 -0.0690  0.0797 -0.2441
 4317TIP3    H112912   4.160   3.613   3.443 -0.2806 -0.6414  0.8950
 4317TIP3    H212913   4.055   3.581   3.339  0.6161 -0.8696  0.0429
 4318TIP3   OH212914   0.360   1.718   2.611 -0.1299 -0.4847 -0.3356
 4318TIP3    H112915   0.339   1.794   2.558  0.5313  0.9084  1.3511
 4318TIP3    H212916   0.437   1.680   2.568 -0.2052  0.0400 -0.9410
 4319TIP3   OH212917   5.161   5.236   3.528  0.0567  0.2782  0.2641
 4319TIP3    H112918   5.069   5.258   3.512 -0.7487 -1.3918  2.2381
 4319TIP3    H212919   5.206   5.257   3.447 -2.2848  0.0640 -1.1349
 4320TIP3   OH212920   2.991   6.295   0.972  0.2271 -0.2145 -0.3983
 4320TIP3    H112921   2.942   6.268   1.050  1.7859  0.6800  0.9300
 4320TIP3    H212922   3.040   6.218   0.946  0.1430 -0.3558 -0.1375
 4321TIP3   OH212923   4.592   4.447   2.785  0.5849 -0.0485  0.2055
 4321TIP3    H112924   4.668   4.454   2.727  0.4058  0.2886  0.0128
 4321TIP3    H212925   4.630   4.432   2.872  0.8505 -0.7325 -0.0198
 4322TIP3   OH212926   4.171   6.334   2.776  0.4409  0.3426  0.4162
 4322TIP3    H112927   4.219   6.307   2.855  1.3737  1.9318  0.4345
 4322TIP3    H212928   4.094   6.380   2.810 -0.0861 -0.5158  0.3905
 4323TIP3   OH212929   4.992   6.310   0.040 -0.6460  0.0559  0.0417
 4323TIP3    H112930   4.962   6.372  -0.027 -1.8933 -0.6171 -0.0602
 4323TIP3    H212931   4.913   6.262   0.064  0.1349 -0.8909  0.7545
 4324TIP3   OH212932   3.653   7.361   2.726 -0.0387  0.4340 -0.0424
 4324TIP3    H112933   3.714   7.397   2.791  0.8206  0.9548 -1.1324
 4324TIP3    H212934   3.695   7.281   2.696  0.3463  1.0305 -1.1290
 4325TIP3   OH212935   4.489   4.080   0.577  0.4304  1.1418  0.0138
 4325TIP3    H112936   4.451   4.024   0.644  0.0048  1.4412  0.0217
 4325TIP3    H212937   4.429   4.154   0.570  0.3000  0.9591 -0.9140
 4326TIP3   OH212938   5.720   0.660   5.219  0.3309 -0.0243  0.3605
 4326TIP3    H112939   5.704   0.687   5.129 -2.9840  0.8252  1.0977
 4326TIP3    H212940   5.797   0.710   5.246  0.5173  0.7713 -1.5634
 4327TIP3   OH212941   3.741   5.387   0.479 -0.0679  0.1618  0.2131
 4327TIP3    H112942   3.788   5.467   0.504  1.0843  0.4879 -2.7394
 4327TIP3    H212943   3.800   5.316   0.501  0.2861  0.3477 -0.1323
 4328TIP3   OH212944   0.060   5.505   4.415 -0.1633  0.0546 -0.4313
 4328TIP3    H112945   0.083   5.595   4.393 -0.0932 -0.5942 -3.2229
 4328TIP3    H212946   0.130   5.452   4.377 -1.0447 -1.2993 -0.2185
 4329TIP3   OH212947   3.169   6.222   3.580  0.5474  0.9201 -0.3632
 4329TIP3    H112948   3.197   6.255   3.665  0.6523 -0.1011  0.0027
 4329TIP3    H212949   3.094   6.276   3.556  1.0974  1.8236 -0.0524
 4330TIP3   OH212950   2.416   6.018   4.459 -0.1375  0.6037  0.0774
 4330TIP3    H112951   2.493   6.057   4.417  0.8565 -0.9606  0.3790
 4330TIP3    H212952   2.451   5.973   4.536 -1.5212  0.7963  0.8425
 4331TIP3   OH212953   5.490   5.642   2.762 -0.3087 -0.1848 -1.1712
 4331TIP3    H112954   5.399   5.658   2.789  0.6628  0.9200  1.5039
 4331TIP3    H212955   5.495   5.681   2.675 -2.1838  0.4232 -1.0396
 4332TIP3   OH212956   4.009   7.187   4.453 -0.2678  0.0465 -0.4822
 4332TIP3    H112957   4.070   7.248   4.412 -0.3232 -0.2463 -1.0059
 4332TIP3    H212958   3.980   7.131   4.382  0.1767 -0.9281  0.0912
 4333TIP3   OH212959   3.509   2.185   5.606  0.3863 -0.0099 -0.0890
 4333TIP3    H112960   3.419   2.179   5.573  0.4263 -1.6749  0.0844
 4333TIP3    H212961   3.524   2.279   5.615 -1.5819  0.2723  0.5640
 4334TIP3   OH212962   3.331   6.800   4.379 -0.2547 -0.0388  0.5988
 4334TIP3    H112963   3.404   6.757   4.424 -1.1170 -1.8912  0.2693
 4334TIP3    H212964   3.252   6.762   4.419 -1.0403 -0.7192 -1.4911
 4335TIP3   OH212965   4.376   6.865   2.311  0.3989 -0.0622  0.1359
 4335TIP3    H112966   4.301   6.902   2.358 -0.1414  0.1661 -0.8928
 4335TIP3    H212967   4.452   6.904   2.355 -0.0009 -1.6115  2.2998
 4336TIP3   OH212968   4.782   6.594   2.579 -0.1998 -0.4702 -0.1923
 4336TIP3    H112969   4.795   6.542   2.500 -1.5410  0.5531 -1.1128
 4336TIP3    H212970   4.805   6.535   2.651  0.4188 -1.6167 -1.3052
 4337TIP3   OH212971   3.539   5.461   1.255  0.3464 -0.2634 -0.1436
 4337TIP3    H112972   3.530   5.505   1.340  0.6992 -1.1283  0.3441
 4337TIP3    H212973   3.514   5.370   1.272  2.4678 -0.9439 -0.4891
 4338TIP3   OH212974   7.669   0.454   5.746 -0.6149 -0.3135  0.1745
 4338TIP3    H112975   7.694   0.362   5.755  1.2702  0.1511 -0.0441
 4338TIP3    H212976   7.649   0.482   5.835  0.2226 -0.5748  0.4568
 4339TIP3   OH212977   7.007   3.346   5.347  0.0577 -0.8817 -0.0795
 4339TIP3    H112978   6.939   3.315   5.287  0.9753 -0.4242 -1.3791
 4339TIP3    H212979   7.078   3.283   5.338 -0.0441 -1.1702  1.0177
 4340TIP3   OH212980   1.752   6.993   2.900  0.8926  0.2845 -0.0155
 4340TIP3    H112981   1.701   6.958   2.827 -0.0803  1.5632  0.0300
 4340TIP3    H212982   1.833   6.942   2.900 -0.1381 -1.3648 -0.4577
 4341TIP3   OH212983   6.753   2.159   6.148  0.0938 -0.1020 -0.0671
 4341TIP3    H112984   6.720   2.155   6.238  2.0708  0.1434  0.7133
 4341TIP3    H212985   6.785   2.071   6.130 -2.0813 -0.6839 -1.2817
 4342TIP3   OH212986   3.540   6.496   2.534  0.4110 -0.0260 -0.0625
 4342TIP3    H112987   3.458   6.449   2.527  0.0930  0.7593 -1.9611
 4342TIP3    H212988   3.517   6.579   2.576  0.2469  0.1399 -0.4781
 4343TIP3   OH212989   3.555   6.949   0.831  0.5183 -0.2575  0.2008
 4343TIP3    H112990   3.504   6.887   0.779 -0.3491  0.3693  0.2764
 4343TIP3    H212991   3.645   6.917   0.828  0.3630 -0.5612 -1.1721
 4344TIP3   OH212992   5.100   0.472   3.476 -0.0139  0.2513  0.1419
 4344TIP3    H112993   5.142   0.410   3.535 -0.0939 -0.6174 -0.7117
 4344TIP3    H212994   5.006   0.465   3.496 -0.2517 -1.6179 -1.5814
 4345TIP3   OH212995   1.313   6.163   0.194 -0.5938 -0.4556 -0.3020
 4345TIP3    H112996   1.395   6.119   0.172 -0.8800  0.0910 -2.6602
 4345TIP3    H212997   1.259   6.153   0.115 -2.7712 -0.7217  1.1615
 4346TIP3   OH212998   3.518   6.072   4.305 -0.7154 -0.0953 -0.3973
 4346TIP3    H112999   3.555   6.068   4.217 -0.2619  0.0022 -0.2131
 4346TIP3    H213000   3.423   6.068   4.292 -0.6423 -0.2438 -0.8792
 4347TIP3   OH213001   2.824   5.890   1.458 -0.4290  0.3057 -0.5206
 4347TIP3    H113002   2.855   5.961   1.515 -0.1311 -0.0526 -0.2331
 4347TIP3    H213003   2.887   5.820   1.471 -1.0629 -0.2372 -0.3395
 4348TIP3   OH213004   5.351   0.144   3.605  0.1755  0.0898  0.1685
 4348TIP3    H113005   5.404   0.079   3.559  1.3562 -0.9761  2.9199
 4348TIP3    H213006   5.261   0.118   3.587  0.6040 -0.6822 -0.9544
 4349TIP3   OH213007   3.493   0.663   1.325  0.3172  0.3789  0.3578
 4349TIP3    H113008   3.436   0.589   1.305  0.3376  0.6296 -0.6798
 4349TIP3    H213009   3.435   0.739   1.329  0.4918  0.5424 -0.1176
 4350TIP3   OH213010   1.459   4.835   1.500  0.4280 -0.6105 -0.6552
 4350TIP3    H113011   1.444   4.763   1.562  0.4190  1.7827  2.1834
 4350TIP3    H213012   1.549   4.863   1.516 -0.2424  1.3820 -0.2308
 4351TIP3   OH213013   2.116   5.460   0.991  0.1668 -0.5077 -0.0438
 4351TIP3    H113014   2.046   5.510   1.033  1.6512  0.3788  1.4355
 4351TIP3    H213015   2.196   5.505   1.017  1.4572 -2.9333  0.3104
 4352TIP3   OH213016   6.070   6.523   2.739 -0.1813  0.3034  0.3932
 4352TIP3    H113017   6.070   6.428   2.728 -2.1749  0.4306 -0.8851
 4352TIP3    H213018   6.147   6.553   2.690 -0.5847 -0.4847 -0.7184
 4353TIP3   OH213019   2.163   4.474   1.408 -0.4135  0.2218 -0.0631
 4353TIP3    H113020   2.216   4.535   1.356 -0.9167  0.7108 -0.0111
 4353TIP3    H213021   2.108   4.531   1.462 -0.2097 -0.2835  0.6848
 4354TIP3   OH213022   1.233   3.051   6.137 -0.0525  0.1724  0.4305
 4354TIP3    H113023   1.312   3.001   6.119  0.3370  0.7567  0.4972
 4354TIP3    H213024   1.175   3.032   6.064 -0.7124 -1.9919  1.4779
 4355TIP3   OH213025   2.717   3.595   3.008  0.0874 -0.3619 -0.5296
 4355TIP3    H113026   2.661   3.673   3.015  2.3404  1.3189 -0.4844
 4355TIP3    H213027   2.795   3.627   2.963  0.5578 -2.9133 -1.5854
 4356TIP3   OH213028   4.656   6.817   2.680  0.0815 -0.3158 -0.0499
 4356TIP3    H113029   4.700   6.736   2.655  1.9888  0.6219  0.1333
 4356TIP3    H213030   4.709   6.851   2.753  0.4354  2.0083 -1.3408
 4357TIP3   OH213031   3.393   3.986   2.815  0.4763  0.0562 -0.6328
 4357TIP3    H113032   3.468   4.044   2.817  0.0774  0.5960 -1.0718
 4357TIP3    H213033   3.349   4.006   2.732 -0.6840  0.4431  0.0515
 4358TIP3   OH213034   5.682   0.212   1.560  0.6081  0.1431 -0.1349
 4358TIP3    H113035   5.601   0.251   1.525  0.7543 -0.1530 -0.8167
 4358TIP3    H213036   5.705   0.145   1.496  1.7740  0.6865 -0.2981
 4359TIP3   OH213037   3.799   1.508   0.308  0.2376  0.1639  0.2411
 4359TIP3    H113038   3.808   1.417   0.279 -0.6498  0.2159 -0.2193
 4359TIP3    H213039   3.771   1.501   0.399  2.3118 -0.0018  0.8963
 4360TIP3   OH213040   0.232   5.833   5.159 -0.4129 -0.6150 -0.2197
 4360TIP3    H113041   0.198   5.799   5.076 -0.3213  1.5505 -1.1869
 4360TIP3    H213042   0.217   5.927   5.154  2.3489 -0.0644  0.9152
 4361TIP3   OH213043   2.030   2.799   1.760  0.0106 -0.0366 -0.6493
 4361TIP3    H113044   1.980   2.787   1.841 -0.4761 -1.1904 -1.1079
 4361TIP3    H213045   1.970   2.771   1.691  0.4923  0.7568 -1.3931
 4362TIP3   OH213046   1.927   6.618   1.771 -0.3800 -0.4359 -0.1084
 4362TIP3    H113047   1.938   6.538   1.720  0.5173 -0.4479  0.0980
 4362TIP3    H213048   1.890   6.681   1.708 -1.0453 -0.9897 -0.2778
 4363TIP3   OH213049   3.572   6.476   3.490 -0.7814  0.0384 -0.2537
 4363TIP3    H113050   3.543   6.546   3.432 -0.2173 -0.0683 -0.6619
 4363TIP3    H213051   3.609   6.522   3.566 -0.1572  0.1872 -0.6448
 4364TIP3   OH213052   1.853   4.900   3.077 -0.3025  0.0868  0.2795
 4364TIP3    H113053   1.838   4.837   3.147  1.6509  1.7197  2.2138
 4364TIP3    H213054   1.936   4.873   3.038  0.1004  0.9559  0.5348
 4365TIP3   OH213055   1.280   6.390   0.710 -0.4627 -0.1614  0.1478
 4365TIP3    H113056   1.342   6.439   0.765  2.1441 -0.3620 -2.5346
 4365TIP3    H213057   1.262   6.448   0.637 -0.1734 -1.7726 -1.2192
 4366TIP3   OH213058   1.952   5.061   4.975  0.0842 -0.0210  0.0475
 4366TIP3    H113059   1.958   5.155   4.955  0.7691  0.1494  1.0500
 4366TIP3    H213060   1.861   5.049   5.003  0.5760  0.7781  2.0684
 4367TIP3   OH213061   3.791   7.248   3.389  0.2023  0.2300 -0.2872
 4367TIP3    H113062   3.878   7.233   3.352  0.8630 -0.3318  1.4529
 4367TIP3    H213063   3.732   7.248   3.313  1.6138 -0.1664 -1.3972
 4368TIP3   OH213064   7.218   0.477   1.472  0.5885 -0.3304  0.4936
 4368TIP3    H113065   7.136   0.516   1.441  0.7743 -0.3542 -0.0225
 4368TIP3    H213066   7.214   0.386   1.442 -0.3685 -1.0462  2.6782
 4369TIP3   OH213067   3.861   7.011   3.983  0.0030  0.4312  0.0034
 4369TIP3    H113068   3.776   7.053   3.971  1.7420  3.9169 -0.7973
 4369TIP3    H213069   3.902   7.014   3.897  1.0499 -0.9326  0.4443
 4370TIP3   OH213070   5.574   4.082   2.994 -0.0103 -0.2794 -0.8339
 4370TIP3    H113071   5.606   4.083   2.903 -0.3991  0.2403 -0.9674
 4370TIP3    H213072   5.490   4.127   2.990  0.6373  1.0360  0.0451
 4371TIP3   OH213073   2.225   6.173   2.551 -0.0424 -0.5072 -0.0171
 4371TIP3    H113074   2.246   6.126   2.631 -0.4171 -0.3782  0.1570
 4371TIP3    H213075   2.309   6.180   2.505  0.1847 -0.5240  0.3923
 4372TIP3   OH213076   2.935   6.546   1.615  0.0831 -0.4589  0.8321
 4372TIP3    H113077   2.861   6.603   1.633 -0.8748 -1.8923  1.6123
 4372TIP3    H213078   3.008   6.605   1.596 -0.6895  1.0224  2.3522
 4373TIP3   OH213079   5.443   7.023   3.058  0.0738 -0.5806 -0.0619
 4373TIP3    H113080   5.358   7.053   3.091  1.1672  0.4755  1.8792
 4373TIP3    H213081   5.465   6.947   3.112  1.4126  0.5632  1.0761
 4374TIP3   OH213082   0.655   2.123   4.939 -0.4591  0.3904  0.3906
 4374TIP3    H113083   0.654   2.045   4.882 -1.4586  0.2258  0.6258
 4374TIP3    H213084   0.744   2.158   4.930 -0.4109 -0.0090 -0.7661
 4375TIP3   OH213085   2.805   6.786   1.702 -0.2388  0.1571  0.6131
 4375TIP3    H113086   2.758   6.862   1.668  0.1985  0.1522 -0.0205
 4375TIP3    H213087   2.743   6.743   1.761 -0.7793  0.5372  0.3242
 4376TIP3   OH213088   2.857   5.853   3.478 -0.0371  0.4697  0.1753
 4376TIP3    H113089   2.820   5.831   3.564 -0.6255 -0.3648 -0.2798
 4376TIP3    H213090   2.898   5.772   3.448  0.0745  0.7301 -0.3852
 4377TIP3   OH213091   3.254   5.778   3.819  0.0476  0.5688  0.2615
 4377TIP3    H113092   3.196   5.808   3.888 -0.4216  2.7175 -1.0106
 4377TIP3    H213093   3.337   5.760   3.863 -0.8837 -0.2298  1.7135
 4378TIP3   OH213094   3.395   5.626   2.867 -0.2414 -0.0669 -0.2608
 4378TIP3    H113095   3.338   5.604   2.940  1.3248 -1.2565  0.6522
 4378TIP3    H213096   3.457   5.553   2.863  0.9215  0.9645 -1.4948
 4379TIP3   OH213097   2.591   4.253   0.365  0.3990  0.2514  0.0611
 4379TIP3    H113098   2.577   4.196   0.289 -1.4882  1.7315 -0.7348
 4379TIP3    H213099   2.672   4.299   0.346  0.3955 -0.0299 -0.6333
 4380TIP3   OH213100   7.277   1.243   3.719 -0.0011  0.4556  0.0392
 4380TIP3    H113101   7.317   1.322   3.755  1.3138 -0.6562  1.1097
 4380TIP3    H213102   7.183   1.260   3.723  0.2359  1.6840  0.9105
 4381TIP3   OH213103   2.426   5.041   1.408  0.3267 -0.2289 -0.2160
 4381TIP3    H113104   2.509   5.014   1.370 -0.0208  0.9165 -1.8547
 4381TIP3    H213105   2.410   5.128   1.372 -0.3139  0.6664  2.1337
 4382TIP3   OH213106   4.600   7.260   3.238 -0.2321 -0.0010 -0.0772
 4382TIP3    H113107   4.640   7.173   3.250  0.5443  0.6272  2.3327
 4382TIP3    H213108   4.554   7.276   3.321  0.3319  2.2267 -0.1660
 4383TIP3   OH213109   4.760   5.749   3.144  0.1656  0.4984  0.0497
 4383TIP3    H113110   4.668   5.731   3.122  0.2845  0.8037 -0.7131
 4383TIP3    H213111   4.757   5.782   3.234 -0.2453 -1.5659  0.8070
 4384TIP3   OH213112   3.656   6.035   2.632  0.6377 -0.1838  0.2211
 4384TIP3    H113113   3.579   5.977   2.628  0.4672 -0.1659  2.5760
 4384TIP3    H213114   3.727   5.984   2.593  0.3677 -1.8199  1.7966
 4385TIP3   OH213115   3.550   6.604   4.031  0.4172 -0.8074 -0.0232
 4385TIP3    H113116   3.570   6.649   3.948  1.2493 -0.9685  0.0816
 4385TIP3    H213117   3.627   6.549   4.046  0.9977  0.4371  1.6778
 4386TIP3   OH213118   1.909   5.114   3.818 -0.0641  0.3679  0.0424
 4386TIP3    H113119   1.985   5.057   3.809  0.2441  0.5711  1.2977
 4386TIP3    H213120   1.888   5.140   3.729 -0.9955 -2.7443 -0.7069
 4387TIP3   OH213121   2.492   6.303   2.260  0.0264  0.3403 -0.2678
 4387TIP3    H113122   2.500   6.261   2.175 -0.1581 -1.5200  0.6062
 4387TIP3    H213123   2.398   6.318   2.270 -0.0908 -0.6826  0.1859
 4388TIP3   OH213124   1.706   5.827   5.043  0.1764 -0.5159 -0.1485
 4388TIP3    H113125   1.673   5.749   5.088 -1.0058 -0.4115 -0.8214
 4388TIP3    H213126   1.790   5.799   5.007 -0.2514 -1.5000 -0.4107
 4389TIP3   OH213127   2.461   5.640   4.355  0.1071 -0.0264 -0.1844
 4389TIP3    H113128   2.378   5.675   4.385 -0.3851 -1.8417  0.6685
 4389TIP3    H213129   2.524   5.664   4.423  0.2186  1.0993 -0.6888
 4390TIP3   OH213130   4.028   6.963   2.733 -0.1205  0.5358 -0.4346
 4390TIP3    H113131   4.120   6.935   2.724  0.0458  0.6570  0.8961
 4390TIP3    H213132   3.978   6.883   2.719  0.2770 -0.0004  1.1458
 4391TIP3   OH213133   6.290   3.973   2.009  0.5443 -0.7742 -0.1265
 4391TIP3    H113134   6.202   3.946   2.035  1.0501 -3.0896 -0.7345
 4391TIP3    H213135   6.343   3.895   2.019  1.9263 -0.2062 -2.5690
 4392TIP3   OH213136   4.605   4.873   3.972 -0.1008 -0.1803 -0.4634
 4392TIP3    H113137   4.551   4.802   4.006  1.7408 -0.9983  0.7755
 4392TIP3    H213138   4.547   4.949   3.973 -2.0964 -1.6350 -1.8071
 4393TIP3   OH213139   3.679   5.063   5.715  0.5481 -0.4376  0.0186
 4393TIP3    H113140   3.719   5.058   5.802 -0.9135 -1.9717  0.6480
 4393TIP3    H213141   3.693   4.976   5.677  0.2952 -0.0981 -0.8691
 4394TIP3   OH213142   4.567   5.548   2.809  0.3917 -0.0215  0.6866
 4394TIP3    H113143   4.659   5.542   2.781  0.1946  0.0652  0.0100
 4394TIP3    H213144   4.533   5.460   2.796  0.4412 -0.1107  1.1624
 4395TIP3   OH213145   3.412   4.587   1.851  0.3163 -0.2201 -0.6362
 4395TIP3    H113146   3.447   4.559   1.935 -1.3740 -1.3705 -0.2851
 4395TIP3    H213147   3.354   4.516   1.824  0.3788  0.4064 -2.4884
 4396TIP3   OH213148   3.868   0.148   1.730  0.3062  0.3323  0.2657
 4396TIP3    H113149   3.818   0.068   1.744 -0.6588  0.5580 -1.6504
 4396TIP3    H213150   3.880   0.152   1.635  2.3257  1.2821  0.5347
 4397TIP3   OH213151   2.644   5.828   1.089 -0.2155 -0.2708 -0.3352
 4397TIP3    H113152   2.718   5.887   1.105 -1.3795  1.1333 -0.0250
 4397TIP3    H213153   2.571   5.886   1.067 -1.5964 -1.5422  0.7546
 4398TIP3   OH213154   2.466   6.509   0.816  0.1426  0.6504 -0.0008
 4398TIP3    H113155   2.557   6.526   0.792  0.7804 -1.3028  0.8493
 4398TIP3    H213156   2.463   6.523   0.911  0.0452 -1.1406  0.2781
 4399TIP3   OH213157   3.604   7.078   2.424  0.6037 -1.0848 -0.1577
 4399TIP3    H113158   3.671   7.097   2.490  1.1171  1.5242 -1.3480
 4399TIP3    H213159   3.543   7.151   2.431 -0.2447 -1.6626 -1.4181
 4400TIP3   OH213160   1.212   6.010   1.362  0.2090 -0.7362  0.2747
 4400TIP3    H113161   1.271   5.998   1.288  0.3654  0.5724  0.1656
 4400TIP3    H213162   1.124   6.015   1.322  0.5047  2.3277 -0.0989
 4401TIP3   OH213163   5.013   6.672   2.285 -0.2199  0.0611  0.1612
 4401TIP3    H113164   5.104   6.652   2.308  0.2242  0.4842 -1.1387
 4401TIP3    H213165   4.961   6.607   2.333  0.7467 -0.0323  1.1068
 4402TIP3   OH213166   1.210   4.509   5.785 -0.2342  0.2232  0.3927
 4402TIP3    H113167   1.129   4.491   5.736  0.3988 -0.9716 -0.2187
 4402TIP3    H213168   1.182   4.509   5.876 -0.7183 -1.4087  0.2588
 4403TIP3   OH213169   2.100   4.761   3.030 -0.1304 -0.0184  0.0594
 4403TIP3    H113170   2.181   4.726   3.067  0.8223  0.4754 -1.5327
 4403TIP3    H213171   2.095   4.722   2.943 -1.1480  0.6652 -0.1876
 4404TIP3   OH213172   4.254   6.327   1.803  0.0101  0.3118  0.2750
 4404TIP3    H113173   4.215   6.332   1.890  1.7016  1.2216  1.0027
 4404TIP3    H213174   4.345   6.304   1.818  0.6377  1.7490 -1.1606
 4405TIP3   OH213175   3.869   5.151   1.121  0.1594 -0.5065  0.1873
 4405TIP3    H113176   3.821   5.095   1.061 -2.2996 -0.6827  2.2378
 4405TIP3    H213177   3.958   5.152   1.087 -0.9433 -1.3559 -2.8846
 4406TIP3   OH213178   5.493   6.929   5.994  0.3962 -0.4201 -0.5706
 4406TIP3    H113179   5.422   6.990   5.976  0.1422  0.1454  2.1751
 4406TIP3    H213180   5.569   6.967   5.950  0.0173  1.4140  0.2907
 4407TIP3   OH213181   3.474   5.067   0.021  0.7048  0.4865  0.3151
 4407TIP3    H113182   3.556   5.112   0.041  1.0142 -0.6944  1.7941
 4407TIP3    H213183   3.501   4.986  -0.022  0.3275  0.1368  0.7245
 4408TIP3   OH213184   3.101   7.303   0.854 -0.4183  0.0834  0.1004
 4408TIP3    H113185   3.029   7.280   0.796 -0.7351  0.8067  0.2088
 4408TIP3    H213186   3.096   7.239   0.925 -1.3895  0.5679  0.4724
 4409TIP3   OH213187   2.240   5.530   2.765  0.1391 -0.1625  0.0346
 4409TIP3    H113188   2.234   5.590   2.839 -0.2109 -1.9606  1.5040
 4409TIP3    H213189   2.167   5.469   2.778  0.1814 -0.6086 -1.7012
 4410TIP3   OH213190   6.543   0.686   4.018  0.4627  0.0137 -0.5133
 4410TIP3    H113191   6.450   0.664   4.025  0.4491 -0.5965 -2.2620
 4410TIP3    H213192   6.544   0.772   3.975  0.7025  0.0234 -0.4889
 4411TIP3   OH213193   7.256   6.055   1.880 -0.4136  0.0027  0.4022
 4411TIP3    H113194   7.252   6.062   1.975 -0.1913 -0.5363  0.4523
 4411TIP3    H213195   7.230   5.965   1.861  1.0005 -0.3490  0.0588
 4412TIP3   OH213196   4.628   3.646   0.867  0.4258  0.7259 -0.1343
 4412TIP3    H113197   4.649   3.555   0.849  2.9270  1.0672  0.7431
 4412TIP3    H213198   4.551   3.643   0.923 -0.3732 -0.7717 -1.2789
 4413TIP3   OH213199   2.088   2.043   5.777 -0.4143  0.0235 -0.5271
 4413TIP3    H113200   2.069   1.951   5.757  0.5605 -0.2577 -0.1772
 4413TIP3    H213201   2.058   2.091   5.699 -1.8028 -0.4806 -0.3109
 4414TIP3   OH213202   7.113   0.022   2.132 -0.1654  0.1565  0.5320
 4414TIP3    H113203   7.018   0.035   2.128  0.0349  1.4292 -0.4354
 4414TIP3    H213204   7.148   0.084   2.068  1.1563 -2.2490 -1.1462
 4415TIP3   OH213205   3.492   6.895   3.294  0.2187  0.0279 -0.0057
 4415TIP3    H113206   3.421   6.928   3.349 -1.7211 -1.2607 -1.6499
 4415TIP3    H213207   3.515   6.968   3.237  0.4055  0.5285  0.7026
 4416TIP3   OH213208   2.330   6.061   4.754  0.2412  0.3044 -0.8883
 4416TIP3    H113209   2.351   6.153   4.735  1.1259 -0.1095 -1.9703
 4416TIP3    H213210   2.411   6.014   4.737 -0.5432 -0.8344 -1.5297
 4417TIP3   OH213211   5.041   6.659   1.765 -0.1811  0.0200  0.3729
 4417TIP3    H113212   5.098   6.710   1.707 -1.2797  1.2319  0.3321
 4417TIP3    H213213   5.061   6.692   1.853  1.2307 -1.5693  0.6520
 4418TIP3   OH213214   5.075   5.739   2.104 -0.2974 -0.1519  0.2375
 4418TIP3    H113215   5.154   5.747   2.051 -1.6517 -0.3974 -1.8645
 4418TIP3    H213216   5.017   5.682   2.053 -1.8674  0.0649  1.7157
 4419TIP3   OH213217   2.475   3.831   2.763 -0.2096  0.1554  0.2025
 4419TIP3    H113218   2.534   3.905   2.758  0.3941 -0.2794  0.8889
 4419TIP3    H213219   2.483   3.799   2.853 -1.3909  0.0177  0.2693
 4420TIP3   OH213220   4.928   5.542   2.000  0.1892 -0.2305 -0.6688
 4420TIP3    H113221   4.999   5.491   2.038  1.3459  0.6302 -1.6646
 4420TIP3    H213222   4.868   5.476   1.965  1.3971 -0.9315 -1.4635
 4421TIP3   OH213223   3.037   3.007   3.913  0.4159 -0.5276  0.1208
 4421TIP3    H113224   3.114   2.952   3.902 -0.4974 -2.1867  1.7485
 4421TIP3    H213225   2.972   2.950   3.954 -1.2631  1.1890 -0.0595
 4422TIP3   OH213226   0.987   0.380   6.291 -0.0123  0.3289 -0.3472
 4422TIP3    H113227   0.932   0.302   6.295 -0.2360  0.4639 -0.7628
 4422TIP3    H213228   1.075   0.347   6.310 -0.0447 -0.0957 -0.9099
 4423TIP3   OH213229   2.947   4.260   2.359 -0.5654 -0.5353  0.2907
 4423TIP3    H113230   2.944   4.254   2.454  1.3547 -0.5759  0.3841
 4423TIP3    H213231   2.893   4.187   2.328  0.4987 -1.8087  1.3628
 4424TIP3   OH213232   3.809   7.235   1.671  0.4513 -0.5362  0.2382
 4424TIP3    H113233   3.817   7.280   1.755 -0.2281 -0.1724  0.1085
 4424TIP3    H213234   3.883   7.267   1.619  1.0145 -0.9485  0.7800
 4425TIP3   OH213235   2.092   5.218   2.111  0.1464  0.3349 -0.0157
 4425TIP3    H113236   2.102   5.294   2.053 -3.1415  1.7998  1.1969
 4425TIP3    H213237   2.069   5.146   2.052  1.3319  0.7203 -0.9794
 4426TIP3   OH213238   2.425   6.283   3.779  0.0475 -0.5011  0.3047
 4426TIP3    H113239   2.377   6.316   3.703  2.4503  0.1473 -0.9677
 4426TIP3    H213240   2.445   6.360   3.831  0.7820 -0.6179  0.1988
 4427TIP3   OH213241   3.237   6.239   3.301  0.1570 -0.6143 -0.1354
 4427TIP3    H113242   3.267   6.155   3.266  1.6664 -0.3515  0.4629
 4427TIP3    H213243   3.212   6.220   3.391  1.4651 -0.2389  0.3168
 4428TIP3   OH213244   4.301   7.215   2.760  0.1642 -0.6538 -0.0113
 4428TIP3    H113245   4.282   7.124   2.785 -0.1554 -0.0445  2.0935
 4428TIP3    H213246   4.305   7.262   2.843  0.5238  1.2353 -1.0673
 4429TIP3   OH213247   0.630   1.959   1.880  0.4408 -0.4128 -0.8917
 4429TIP3    H113248   0.578   2.023   1.927 -1.9694 -3.2857  0.5398
 4429TIP3    H213249   0.711   1.950   1.931 -0.2214 -0.2242  0.1857
 4430TIP3   OH213250   0.841   0.114   3.550 -0.5959 -0.5368 -0.7692
 4430TIP3    H113251   0.914   0.110   3.612 -0.3778 -2.2677 -1.1304
 4430TIP3    H213252   0.867   0.180   3.486 -0.2385  0.2942  0.2221
 4431TIP3   OH213253   1.733   5.045   2.645 -0.0337  0.0460  0.0812
 4431TIP3    H113254   1.762   5.121   2.696  0.9053 -0.8960  0.9751
 4431TIP3    H213255   1.664   5.005   2.698  0.0515 -0.2035  0.0042
 4432TIP3   OH213256   4.803   2.400   1.630 -0.0566 -0.3027  0.0267
 4432TIP3    H113257   4.795   2.463   1.702 -0.2234 -1.0070  0.6236
 4432TIP3    H213258   4.750   2.437   1.560 -0.1417  0.2298  0.3710
 4433TIP3   OH213259   4.729   6.810   2.941 -0.6328  0.7242 -0.6649
 4433TIP3    H113260   4.732   6.851   3.027  0.8115  1.2797 -0.9640
 4433TIP3    H213261   4.810   6.760   2.935 -0.3013  1.3965 -2.0252
 4434TIP3   OH213262   3.975   6.912   3.307  0.4085  0.5991  0.1338
 4434TIP3    H113263   3.932   6.887   3.225  0.2562  0.7693  0.1624
 4434TIP3    H213264   4.035   6.982   3.281  0.6894  0.3423  0.0887
 4435TIP3   OH213265   5.137   0.840   4.339  0.4706  0.0822  0.3124
 4435TIP3    H113266   5.161   0.885   4.420 -0.3514 -2.1054  1.8215
 4435TIP3    H213267   5.067   0.780   4.365 -2.2728  1.8075 -2.7262
 4436TIP3   OH213268   6.008   2.937   6.325 -0.2223  0.6097  0.0101
 4436TIP3    H113269   5.992   3.006   6.389 -0.3737  0.8003 -0.2296
 4436TIP3    H213270   5.945   2.869   6.347  1.7558 -0.6411  1.9579
 4437TIP3   OH213271   3.580   7.174   1.446 -0.2567  0.4043 -0.4876
 4437TIP3    H113272   3.641   7.146   1.515 -1.2294  1.2786  0.7363
 4437TIP3    H213273   3.625   7.246   1.402 -0.1327  0.6182 -0.0097
 4438TIP3   OH213274   5.026   0.008   2.155  0.5275  0.3246 -0.5644
 4438TIP3    H113275   4.966   0.080   2.177  1.4326  1.1507 -0.7423
 4438TIP3    H213276   4.971  -0.070   2.155 -0.7899  1.2263 -1.8706
 4439TIP3   OH213277   4.225   5.825   2.957 -0.4593  0.1339  0.4414
 4439TIP3    H113278   4.185   5.907   2.930  0.6149  0.3955 -0.4506
 4439TIP3    H213279   4.294   5.810   2.891 -0.2056 -1.1291  0.9751
 4440TIP3   OH213280   4.026   4.684   0.907 -0.6584  0.0494 -0.0865
 4440TIP3    H113281   3.940   4.653   0.936 -1.3315 -0.7453 -2.8122
 4440TIP3    H213282   4.030   4.775   0.938 -2.4781  0.0875  0.0863
 4441TIP3   OH213283   2.596   6.230   0.352  0.5195 -0.0511 -0.4709
 4441TIP3    H113284   2.642   6.295   0.299 -4.0477  3.7343 -0.2141
 4441TIP3    H213285   2.544   6.180   0.290  0.8415 -0.6258 -0.2767
 4442TIP3   OH213286   3.919   3.993   1.327  0.0413  0.1085 -0.2318
 4442TIP3    H113287   3.863   3.917   1.309 -0.6841  0.5875 -0.0247
 4442TIP3    H213288   3.876   4.037   1.400  2.7144 -1.5795  2.4899
 4443TIP3   OH213289   1.827   5.427   3.267  0.2697  0.6898 -0.6790
 4443TIP3    H113290   1.875   5.495   3.315  0.3260 -0.4746  0.9556
 4443TIP3    H213291   1.740   5.465   3.253  1.1054  2.1219 -2.0986
 4444TIP3   OH213292   3.978   5.407   1.990 -0.0487 -0.5090  0.2248
 4444TIP3    H113293   3.931   5.365   1.919 -0.7050 -0.4484  0.6236
 4444TIP3    H213294   3.965   5.501   1.975 -0.2211 -0.4965  0.4448
 4445TIP3   OH213295   3.376   6.254   1.410  0.5451 -0.5287  0.2992
 4445TIP3    H113296   3.371   6.228   1.502 -0.0852 -2.2260 -0.1960
 4445TIP3    H213297   3.284   6.260   1.382  0.7601 -3.3594 -1.1163
 4446TIP3   OH213298   3.366   4.024   1.062 -0.2895 -0.4820  0.1621
 4446TIP3    H113299   3.388   3.975   1.141 -1.2642  0.5024  1.0444
 4446TIP3    H213300   3.339   3.956   0.999 -0.6592 -1.1774  1.0580
 4447TIP3   OH213301   5.374   0.704   5.627  0.9073  0.2260  0.1493
 4447TIP3    H113302   5.453   0.719   5.574  0.6097  2.6043  0.3461
 4447TIP3    H213303   5.307   0.758   5.585 -0.0763 -0.1384  1.2419
 4448TIP3   OH213304   3.801   3.835   0.798  0.4288 -0.0354 -0.3445
 4448TIP3    H113305   3.713   3.869   0.813  0.0498 -1.6015  1.2216
 4448TIP3    H213306   3.802   3.751   0.844  1.0884 -2.5002 -4.6093
 4449TIP3   OH213307   2.925   2.800   0.507  0.1755 -0.4465 -0.1546
 4449TIP3    H113308   2.936   2.895   0.510  1.0704 -0.4693 -2.1816
 4449TIP3    H213309   2.834   2.786   0.535  0.4479  0.8888  1.4616
 4450TIP3   OH213310   5.149   1.987   1.742  0.1218 -0.8181 -0.1218
 4450TIP3    H113311   5.207   1.933   1.689 -0.3169 -0.7939 -0.6267
 4450TIP3    H213312   5.075   1.929   1.764 -0.9034 -0.1113 -1.6014
 4451TIP3   OH213313   1.908   3.042   6.026  0.2879  0.5145 -0.1818
 4451TIP3    H113314   1.842   3.004   5.968  0.8326 -1.1900  0.3113
 4451TIP3    H213315   1.991   3.026   5.981  0.8620 -2.1939  1.7828
 4452TIP3   OH213316   3.641   4.830   2.084  0.0592  0.6926  0.0041
 4452TIP3    H113317   3.726   4.842   2.127  1.1515  1.5718 -2.3057
 4452TIP3    H213318   3.638   4.736   2.063  0.4686  0.6489  0.1259
 4453TIP3   OH213319   3.672   6.141   4.592 -0.0797 -0.2831  0.1049
 4453TIP3    H113320   3.742   6.204   4.574  1.0146 -1.4363  0.2824
 4453TIP3    H213321   3.597   6.174   4.543  0.7090  0.7286 -0.4352
 4454TIP3   OH213322   0.944   1.786   6.172 -0.0677  0.4131 -0.3582
 4454TIP3    H113323   1.010   1.765   6.106  0.0330  0.5258 -0.2918
 4454TIP3    H213324   0.978   1.750   6.253 -0.3577 -0.0407 -0.4341
 4455TIP3   OH213325   3.591   5.328   0.832  0.6424 -0.1807 -0.2582
 4455TIP3    H113326   3.581   5.420   0.857  0.7262 -0.8889  2.6195
 4455TIP3    H213327   3.681   5.321   0.801  0.5465  0.7551 -0.7577
 4456TIP3   OH213328   7.124   0.963   2.792  0.6843  0.4933 -0.0653
 4456TIP3    H113329   7.149   0.888   2.739  1.9812  0.6083  0.3472
 4456TIP3    H213330   7.100   0.926   2.877  1.3334  0.5324  0.1415
 4457TIP3   OH213331   5.197   6.129   1.603  0.7692  0.1895  0.2571
 4457TIP3    H113332   5.179   6.221   1.625 -0.4480  0.6415 -2.4072
 4457TIP3    H213333   5.255   6.134   1.528  0.2924 -1.2395 -0.2100
 4458TIP3   OH213334   2.611   5.086   3.583  0.1805 -0.0098  0.5741
 4458TIP3    H113335   2.666   5.155   3.620  0.9727 -0.4044  0.1447
 4458TIP3    H213336   2.639   5.006   3.627  1.4163 -0.5458 -1.1513
 4459TIP3   OH213337   2.503   5.449   2.792  0.5204  0.0818  0.1836
 4459TIP3    H113338   2.414   5.468   2.761  0.9029  1.1360 -0.2922
 4459TIP3    H213339   2.555   5.523   2.762  1.2091  0.3998  2.0873
 4460TIP3   OH213340   5.178   5.420   0.558 -0.8490 -0.0416  0.2723
 4460TIP3    H113341   5.171   5.377   0.644 -1.0350  0.7666  0.6697
 4460TIP3    H213342   5.113   5.376   0.504  0.1095 -1.3759  0.1956
 4461TIP3   OH213343   2.468   6.136   3.534  0.1724  0.1951 -0.4707
 4461TIP3    H113344   2.428   6.181   3.459 -0.1366  0.7640  0.0326
 4461TIP3    H213345   2.424   6.174   3.610  2.0633  1.2470  0.1344
 4462TIP3   OH213346   4.830   0.059   0.834  0.1279  0.7197 -0.2197
 4462TIP3    H113347   4.911   0.086   0.878  1.1446 -1.9331 -0.3672
 4462TIP3    H213348   4.774   0.027   0.904 -0.5373  1.8961 -0.2032
 4463TIP3   OH213349   3.565   3.063   2.416  0.1734  0.4602 -0.4417
 4463TIP3    H113350   3.603   3.104   2.339  0.6111  0.9613  0.0311
 4463TIP3    H213351   3.632   3.002   2.446 -0.7382 -1.1027 -1.5224
 4464TIP3   OH213352   5.881   6.496   2.336  0.5873  0.4487 -0.2729
 4464TIP3    H113353   5.906   6.578   2.378  1.1264  0.7288 -1.1404
 4464TIP3    H213354   5.797   6.515   2.294  1.0626  0.7548 -1.0774
 4465TIP3   OH213355   4.354   7.066   0.782  0.5519 -0.0092 -0.0732
 4465TIP3    H113356   4.443   7.075   0.750  0.0608  0.7844 -1.2415
 4465TIP3    H213357   4.300   7.111   0.718 -0.7777 -1.1692  0.1903
 4466TIP3   OH213358   1.491   0.974   1.185  0.9711 -0.2327 -0.0554
 4466TIP3    H113359   1.481   0.991   1.279 -2.4166  1.3287 -0.6502
 4466TIP3    H213360   1.482   0.879   1.177 -2.0909 -0.0621  0.8715
 4467TIP3   OH213361   6.558   6.394   0.112  0.1411  0.5504 -0.1787
 4467TIP3    H113362   6.571   6.449   0.189 -0.4080  2.1897 -1.2282
 4467TIP3    H213363   6.647   6.368   0.087  0.4899  1.7203 -0.2026
 4468TIP3   OH213364   2.758   1.665   6.002  0.1351 -0.0184 -0.3929
 4468TIP3    H113365   2.835   1.663   5.946 -0.3750 -1.4889 -1.0719
 4468TIP3    H213366   2.684   1.672   5.942 -0.3430 -0.1687  0.1679
 4469TIP3   OH213367   4.835   2.788   5.608 -0.0957  0.6557  0.4023
 4469TIP3    H113368   4.843   2.816   5.699  2.8013  0.7861  0.1259
 4469TIP3    H213369   4.831   2.870   5.558 -0.8032  0.5806  0.3298
 4470TIP3   OH213370   5.638   6.539   2.183  0.2479 -0.0818 -0.0483
 4470TIP3    H113371   5.655   6.445   2.179 -0.6909 -0.2171 -1.0544
 4470TIP3    H213372   5.617   6.564   2.093  0.8445  1.1684  0.1401
 4471TIP3   OH213373   7.425   5.235   1.475 -0.3554 -0.7256  0.1715
 4471TIP3    H113374   7.467   5.249   1.390 -0.8952  0.9611  0.1700
 4471TIP3    H213375   7.428   5.140   1.487 -2.5221 -1.2481 -2.9013
 4472TIP3   OH213376   5.981   5.303   1.530 -0.8317 -0.7285 -0.7195
 4472TIP3    H113377   5.981   5.261   1.444  0.0695 -2.0049 -0.1233
 4472TIP3    H213378   6.067   5.343   1.538 -0.8285 -0.8062 -0.3263
 4473TIP3   OH213379   6.287   1.393   3.210 -0.4455 -0.0086 -0.0065
 4473TIP3    H113380   6.263   1.484   3.229  1.0516  0.3899  0.0436
 4473TIP3    H213381   6.208   1.343   3.231 -0.8829  1.1408  1.2095
 4474TIP3   OH213382   3.514   5.403   2.943 -0.1293  0.1317  0.4708
 4474TIP3    H113383   3.595   5.375   2.901 -1.9554 -2.0495 -1.7712
 4474TIP3    H213384   3.522   5.372   3.034  0.7323 -1.8490 -0.2418
 4475TIP3   OH213385   1.986   6.188   3.123 -0.0174 -0.1344  0.1045
 4475TIP3    H113386   1.899   6.222   3.099 -0.2752 -0.0764  1.0699
 4475TIP3    H213387   1.981   6.178   3.218  1.6521  1.5989  0.4040
 4476TIP3   OH213388   1.035   6.800   1.510 -0.2644  0.7014 -0.1488
 4476TIP3    H113389   1.001   6.889   1.510 -1.0580  0.4052 -1.4685
 4476TIP3    H213390   0.961   6.747   1.541 -0.1510  0.3798 -0.4272
 4477TIP3   OH213391   7.200   0.733   2.625 -0.2260 -0.5124 -0.5530
 4477TIP3    H113392   7.275   0.759   2.678  0.1462 -1.7987 -0.4255
 4477TIP3    H213393   7.237   0.707   2.541 -0.6470 -0.0366 -0.8886
 4478TIP3   OH213394   3.368   6.109   2.771  0.6936 -0.4333 -0.7124
 4478TIP3    H113395   3.294   6.074   2.820  1.2127 -0.6679 -0.0824
 4478TIP3    H213396   3.439   6.046   2.787  1.2131  0.1355 -0.7775
 4479TIP3   OH213397   3.294   6.474   0.606 -0.5236 -0.2629 -0.0679
 4479TIP3    H113398   3.244   6.485   0.686  0.4114 -1.1112  0.6497
 4479TIP3    H213399   3.239   6.511   0.537 -0.4568  2.3756  1.2438
 4480TIP3   OH213400   3.870   4.831   0.381  0.0911  0.2554  0.7877
 4480TIP3    H113401   3.908   4.811   0.466  0.6817  0.1145  0.4956
 4480TIP3    H213402   3.844   4.747   0.345 -0.2278  0.3224  0.8565
 4481TIP3   OH213403   2.313   5.832   0.565  0.2659  0.1396 -0.3665
 4481TIP3    H113404   2.282   5.753   0.610 -0.2794  0.6553  0.1613
 4481TIP3    H213405   2.264   5.903   0.605 -0.1161  0.6196 -1.6734
 4482TIP3   OH213406   2.865   5.934   0.884 -0.7748 -0.0282 -0.1151
 4482TIP3    H113407   2.861   5.845   0.918 -1.5884  1.0122  2.7149
 4482TIP3    H213408   2.945   5.937   0.832 -0.4284 -2.2305  0.2505
 4483TIP3   OH213409   6.176   6.145   1.338  0.4816 -0.1865  0.1924
 4483TIP3    H113410   6.209   6.062   1.374 -0.0341 -0.1744  0.6899
 4483TIP3    H213411   6.114   6.176   1.403 -1.5500 -0.8755 -1.3687
 4484TIP3   OH213412   2.530   2.074   3.966 -0.1771  0.1167 -0.5543
 4484TIP3    H113413   2.484   2.054   3.884 -2.7129 -1.1701  1.0880
 4484TIP3    H213414   2.485   2.151   4.000  0.8649  0.6438 -0.3646
 4485TIP3   OH213415   2.050   0.344   0.952  0.1178  0.2374  0.1186
 4485TIP3    H113416   2.108   0.373   1.022 -1.0994  3.1819  0.0050
 4485TIP3    H213417   2.102   0.356   0.872  1.0316 -1.8328  0.3752
 4486TIP3   OH213418   1.223   0.028   5.704  0.2149  0.2094  0.7468
 4486TIP3    H113419   1.152  -0.009   5.756  0.2123 -0.1407  0.4925
 4486TIP3    H213420   1.188   0.035   5.616  0.2148  0.8209  0.7950
 4487TIP3   OH213421   3.236   2.437   3.260 -0.1770  0.0008 -0.0251
 4487TIP3    H113422   3.301   2.419   3.328  0.9722 -1.1026 -1.3762
 4487TIP3    H213423   3.289   2.459   3.183 -1.3910 -1.5856 -1.3394
 4488TIP3   OH213424   5.851   5.756   1.970 -0.4517  0.0612  0.2279
 4488TIP3    H113425   5.903   5.791   1.898 -1.1020 -0.0242 -0.2874
 4488TIP3    H213426   5.884   5.801   2.048  2.3869 -2.1301  0.3438
 4489TIP3   OH213427   4.600   4.611   1.027 -0.2946 -0.5431 -0.0748
 4489TIP3    H113428   4.529   4.656   0.981  0.6324  0.6882 -0.3187
 4489TIP3    H213429   4.642   4.679   1.080 -0.4183 -1.6387  1.4779
 4490TIP3   OH213430   5.356   6.077   2.687  0.3528  0.0815 -0.7695
 4490TIP3    H113431   5.403   6.095   2.606  2.0405  0.9453  0.3707
 4490TIP3    H213432   5.344   6.162   2.728  0.0716 -0.4046  0.1857
 4491TIP3   OH213433   2.173   5.810   0.972 -0.8775 -0.4215  0.1317
 4491TIP3    H113434   2.266   5.823   0.951 -0.9069  0.4783  0.5315
 4491TIP3    H213435   2.170   5.804   1.067 -1.1799 -0.8826  0.0937
 4492TIP3   OH213436   5.091   0.339   3.726 -0.5314 -0.3144 -0.0460
 4492TIP3    H113437   5.088   0.243   3.718  0.1790 -0.4721  1.5202
 4492TIP3    H213438   5.009   0.361   3.769 -0.6801 -0.2065 -0.3806
 4493TIP3   OH213439   6.630   0.258   0.518  0.1972  0.2982  0.4903
 4493TIP3    H113440   6.667   0.315   0.585 -1.1937  1.5492  0.2170
 4493TIP3    H213441   6.696   0.256   0.448  0.2969  1.5106  0.5412
 4494TIP3   OH213442   7.330   5.280   2.198 -0.5218  0.4391 -0.4515
 4494TIP3    H113443   7.350   5.228   2.120  0.5503 -0.2176  0.2567
 4494TIP3    H213444   7.409   5.334   2.211 -0.7494  0.6338  0.1109
 4495TIP3   OH213445   1.275   3.301   6.271 -0.1561 -0.0519 -0.4479
 4495TIP3    H113446   1.233   3.220   6.241 -1.1117  0.0783  0.5026
 4495TIP3    H213447   1.365   3.294   6.242 -0.0017 -1.8835  0.4237
 4496TIP3   OH213448   5.956   5.819   0.792  0.0591 -0.0840 -0.1170
 4496TIP3    H113449   5.953   5.768   0.712 -0.1827 -2.8096  1.5524
 4496TIP3    H213450   6.049   5.830   0.811  0.1135  0.3908 -0.6607
 4497TIP3   OH213451   3.821   5.790   2.058  0.4088 -0.4519 -0.1990
 4497TIP3    H113452   3.728   5.773   2.040 -0.1822  0.4642  1.9058
 4497TIP3    H213453   3.867   5.751   1.983 -1.6719 -0.7439 -1.3666
 4498TIP3   OH213454   4.617   7.121   2.153 -0.6698 -0.1409 -0.0681
 4498TIP3    H113455   4.593   7.111   2.245 -0.9010 -0.8303 -0.2002
 4498TIP3    H213456   4.575   7.203   2.126  1.4924  1.4260  1.1029
 4499TIP3   OH213457   6.685   0.167   2.975 -0.4848  0.1530 -0.0618
 4499TIP3    H113458   6.686   0.222   2.897 -0.9650  1.2569  0.7052
 4499TIP3    H213459   6.777   0.156   2.998 -0.2235 -1.5604 -1.7220
 4500TIP3   OH213460   6.567   4.280   1.682  0.5455 -0.9484 -0.4426
 4500TIP3    H113461   6.496   4.217   1.698  0.1565 -1.0747 -2.5310
 4500TIP3    H213462   6.552   4.311   1.593  1.1566  1.5953  0.2983
 4501TIP3   OH213463   3.091   5.221   2.046 -0.8544 -0.0414 -0.0964
 4501TIP3    H113464   2.996   5.231   2.050 -0.8188  0.5268 -0.5184
 4501TIP3    H213465   3.107   5.168   1.969 -0.8021  0.3531 -0.3612
 4502TIP3   OH213466   5.344   4.169   2.389  0.1025 -0.5344 -0.0124
 4502TIP3    H113467   5.288   4.157   2.466  0.2832  0.9356  0.3641
 4502TIP3    H213468   5.322   4.257   2.357  0.4482 -0.9028 -1.3102
 4503TIP3   OH213469   5.909   6.301   2.995  0.3164 -0.1609 -0.3084
 4503TIP3    H113470   5.920   6.207   2.979 -2.1081 -1.0214  2.5768
 4503TIP3    H213471   5.984   6.324   3.051 -0.3082 -0.9475  0.8879
 4504TIP3   OH213472   6.102   6.045   3.686 -0.1125 -0.0782  0.1930
 4504TIP3    H113473   6.012   6.052   3.718  0.3654  2.9498  1.0177
 4504TIP3    H213474   6.154   6.029   3.765  0.1824 -1.0297 -0.1831
 4505TIP3   OH213475   0.098   0.916   3.997  0.1645 -0.0111 -0.5611
 4505TIP3    H113476   0.059   0.985   4.050 -1.7067 -0.8096 -0.8341
 4505TIP3    H213477   0.185   0.902   4.035 -0.0616  1.3641  0.4950
 4506TIP3   OH213478   4.256   5.900   0.057 -0.4387 -0.0552  0.4101
 4506TIP3    H113479   4.238   5.858   0.142 -0.0595  1.1035  1.0677
 4506TIP3    H213480   4.304   5.833   0.008 -3.2526 -1.8706 -0.0416
 4507TIP3   OH213481   4.378   5.763   2.736  0.0527  0.0594 -0.0597
 4507TIP3    H113482   4.420   5.790   2.654  1.0610  1.5331  0.9252
 4507TIP3    H213483   4.446   5.712   2.781 -0.2277 -0.0824  0.2004
 4508TIP3   OH213484   5.039   7.317   1.961  0.5270 -0.6069  0.3118
 4508TIP3    H113485   5.006   7.301   2.049 -1.5472 -2.6947 -0.7839
 4508TIP3    H213486   5.115   7.259   1.952 -0.1826 -1.5238  0.2062
 4509TIP3   OH213487   7.287   4.829   3.122 -0.4430 -0.3999  0.1874
 4509TIP3    H113488   7.299   4.902   3.061 -0.1330  1.2397  2.1258
 4509TIP3    H213489   7.362   4.772   3.106  1.7106  1.9044  1.5211
 4510TIP3   OH213490   5.213   5.614   1.286 -0.1277 -0.0563 -0.6700
 4510TIP3    H113491   5.208   5.607   1.381 -1.1013  1.7732 -0.5718
 4510TIP3    H213492   5.294   5.663   1.270  1.2458 -2.3179 -0.9149
 4511TIP3   OH213493   6.287   4.689   0.911  0.2748 -0.5496  0.0788
 4511TIP3    H113494   6.322   4.768   0.870 -1.3195  0.3739  0.4779
 4511TIP3    H213495   6.352   4.621   0.892  2.1735  1.0738  0.6093
 4512TIP3   OH213496   5.155   6.911   2.445  0.3149  0.5295 -0.2422
 4512TIP3    H113497   5.140   6.824   2.481  0.1542 -0.2172 -2.0742
 4512TIP3    H213498   5.069   6.951   2.441  0.0708 -0.0948 -1.5367
 4513TIP3   OH213499   6.055   5.895   1.782  0.2597  0.2154 -0.2983
 4513TIP3    H113500   6.079   5.880   1.691 -0.1392  0.9977 -0.5364
 4513TIP3    H213501   6.110   5.834   1.832  0.8758  0.1715 -1.0225
 4514TIP3   OH213502   4.742   2.235   1.200 -0.3309  0.4642 -0.1034
 4514TIP3    H113503   4.656   2.243   1.241 -0.9972 -0.3464 -1.3202
 4514TIP3    H213504   4.733   2.277   1.115  0.0628 -0.8498 -0.8149
 4515TIP3   OH213505   3.569   6.942   3.696  0.8481 -0.0540 -0.0763
 4515TIP3    H113506   3.478   6.947   3.667  1.0164 -0.1390 -0.6345
 4515TIP3    H213507   3.620   6.958   3.616  1.3208  2.5960  0.7238
 4516TIP3   OH213508   2.258   6.055   1.257 -0.4023  0.4941  0.4807
 4516TIP3    H113509   2.177   6.035   1.303 -0.2581 -0.3420  0.3691
 4516TIP3    H213510   2.262   6.151   1.257 -0.9018  0.5159  1.3199
 4517TIP3   OH213511   3.391   2.418   5.960  0.5920  0.6047 -0.4619
 4517TIP3    H113512   3.346   2.346   6.005  0.9159  0.1425 -0.8771
 4517TIP3    H213513   3.346   2.425   5.875  1.3646  0.0801 -0.9185
 4518TIP3   OH213514   4.903   7.388   5.090  0.1971  0.5541  0.0973
 4518TIP3    H113515   4.851   7.316   5.052 -0.9578  1.1788  0.4647
 4518TIP3    H213516   4.941   7.350   5.169  1.4715 -0.3368 -0.9221
 4519TIP3   OH213517   3.146   7.013   0.664  0.5479 -0.3065 -0.2110
 4519TIP3    H113518   3.237   7.042   0.659  0.9175 -1.4658 -0.5783
 4519TIP3    H213519   3.105   7.049   0.585  1.2107 -1.4359 -1.1075
 4520TIP3   OH213520   3.788   6.153   1.836 -0.6014  0.5575 -0.1282
 4520TIP3    H113521   3.844   6.104   1.896 -0.3854  0.6007 -0.2927
 4520TIP3    H213522   3.844   6.224   1.804 -0.2071 -0.4203 -1.6358
 4521TIP3   OH213523   6.168   4.939   1.573 -0.1241  0.2058 -0.7162
 4521TIP3    H113524   6.153   4.884   1.650 -0.3137  1.6274  0.2838
 4521TIP3    H213525   6.080   4.965   1.545 -0.1580 -1.6337 -2.4243
 4522TIP3   OH213526   4.479   6.009   3.340  0.1876  0.6325  0.1751
 4522TIP3    H113527   4.543   5.970   3.401  0.7296  0.1112 -0.7129
 4522TIP3    H213528   4.526   6.015   3.257 -0.1500  2.4904  0.0982
 4523TIP3   OH213529   3.737   6.312   2.632  0.9298 -0.0008  0.2275
 4523TIP3    H113530   3.682   6.377   2.587 -0.0037  0.2558  1.7241
 4523TIP3    H213531   3.696   6.228   2.610  0.0234  0.1795  1.2192
 4524TIP3   OH213532   7.621   6.266   1.759  0.0854 -0.0741 -0.8475
 4524TIP3    H113533   7.568   6.189   1.735  1.5434 -1.1897 -0.5204
 4524TIP3    H213534   7.711   6.239   1.744  0.6762  1.2699  0.1811
 4525TIP3   OH213535   6.583   0.491   2.845  0.6646 -0.0423 -0.6503
 4525TIP3    H113536   6.668   0.532   2.830 -0.0922  2.7106  1.9871
 4525TIP3    H213537   6.585   0.464   2.936 -1.3380  0.2466 -0.4959
 4526TIP3   OH213538   0.568   1.901   6.046  0.3175 -0.0389 -1.1563
 4526TIP3    H113539   0.611   1.987   6.046  1.3254 -0.4898  0.9837
 4526TIP3    H213540   0.477   1.920   6.026  0.5858  1.5234 -1.0094
 4527TIP3   OH213541   3.366   6.196   0.618 -0.1254 -0.1706  0.0008
 4527TIP3    H113542   3.389   6.189   0.711 -1.9101 -1.2676  0.3990
 4527TIP3    H213543   3.373   6.289   0.598 -1.1146  0.2849  1.6400
 4528TIP3   OH213544   4.055   6.519   1.955 -0.2555  0.3635 -0.1359
 4528TIP3    H113545   4.015   6.543   2.038  1.0227 -2.8790  1.5162
 4528TIP3    H213546   4.136   6.570   1.951  0.3229 -0.4224  1.2647
 4529TIP3   OH213547   5.523   5.133   0.551 -0.7119 -0.0806 -0.0486
 4529TIP3    H113548   5.498   5.042   0.563  1.5797 -0.8361 -0.7047
 4529TIP3    H213549   5.520   5.146   0.456 -2.1448  0.8937  0.1032
 4530TIP3   OH213550   6.457   4.471   3.319  0.4265  0.8049  0.3926
 4530TIP3    H113551   6.400   4.398   3.343 -2.2415  2.9942  0.9338
 4530TIP3    H213552   6.545   4.440   3.337 -0.4968 -2.9450 -1.1305
 4531TIP3   OH213553   3.861   6.698   2.760 -0.3205 -0.2587 -0.4273
 4531TIP3    H113554   3.822   6.638   2.823 -0.9864  0.0352 -0.5536
 4531TIP3    H213555   3.941   6.654   2.730  0.4720 -0.0303  1.2648
 4532TIP3   OH213556   3.786   6.950   1.680 -0.0183  0.2918 -0.4959
 4532TIP3    H113557   3.807   7.042   1.666  0.1597  0.1700 -1.0382
 4532TIP3    H213558   3.832   6.904   1.610 -1.4954 -0.0418 -1.2677
 4533TIP3   OH213559   2.118   1.788   5.679  0.5080 -0.2352  0.2901
 4533TIP3    H113560   2.179   1.726   5.718  0.9963 -0.5400 -0.9339
 4533TIP3    H213561   2.040   1.737   5.658 -0.2661  0.1913  2.0225
 4534TIP3   OH213562   4.385   6.421   0.656 -0.2639  0.3059 -0.0300
 4534TIP3    H113563   4.337   6.365   0.715 -0.2507  1.1149  0.7603
 4534TIP3    H213564   4.477   6.405   0.676 -0.2102 -0.7676 -1.0984
 4535TIP3   OH213565   5.730   6.007   0.760  0.1254  0.5243 -0.0426
 4535TIP3    H113566   5.807   5.952   0.767 -0.3393 -0.1312 -0.0026
 4535TIP3    H213567   5.732   6.062   0.838 -0.5814 -0.9580  1.0411
 4536TIP3   OH213568   5.767   5.821   1.372  0.0428  0.0537 -0.1443
 4536TIP3    H113569   5.738   5.911   1.388  0.6296  0.3641 -0.8035
 4536TIP3    H213570   5.855   5.830   1.336  0.1846 -0.7971 -0.0333
 4537TIP3   OH213571   4.143   3.633   0.558  0.0073 -0.1715  0.6016
 4537TIP3    H113572   4.048   3.644   0.563  0.4832  5.1635  0.2177
 4537TIP3    H213573   4.156   3.574   0.483 -2.9165 -0.1766  0.0226
 4538TIP3   OH213574   5.541   6.640   1.953  0.6210  0.2651 -0.2468
 4538TIP3    H113575   5.487   6.704   1.906 -0.4700  0.5230  1.3210
 4538TIP3    H213576   5.631   6.665   1.932  0.1675  0.6346 -1.8421
 4539TIP3   OH213577   7.150   5.373   1.853  0.1744  0.2985 -0.5855
 4539TIP3    H113578   7.104   5.317   1.914  0.1336 -0.9657 -1.7461
 4539TIP3    H213579   7.108   5.459   1.861  0.0402  0.0910  0.9752
 4540TIP3   OH213580   4.581   4.843   2.937 -0.1672 -0.2490 -0.2058
 4540TIP3    H113581   4.502   4.800   2.905  1.4834 -2.2313 -1.6948
 4540TIP3    H213582   4.653   4.798   2.893  1.8602  0.8767  1.8450
 4541TIP3   OH213583   7.718   0.121   1.240 -0.7894  0.1709 -0.4907
 4541TIP3    H113584   7.684   0.211   1.248 -0.7637  0.0520  1.0023
 4541TIP3    H213585   7.714   0.086   1.329  1.4162 -0.5227 -0.6478
 4542TIP3   OH213586   5.348   5.472   3.082 -0.4122  0.5733 -0.4292
 4542TIP3    H113587   5.284   5.493   3.149  1.3826  0.2111  1.4401
 4542TIP3    H213588   5.310   5.396   3.036 -1.0947  0.0450  0.9768
 4543TIP3   OH213589   4.077   6.189   2.253 -0.3017 -0.3455 -0.4523
 4543TIP3    H113590   4.132   6.236   2.191 -0.8557  0.4237 -0.3665
 4543TIP3    H213591   4.123   6.196   2.336 -0.9050  0.9892 -0.2113
 4544TIP3   OH213592   7.655   0.673   2.883  0.0410 -0.2909  0.2830
 4544TIP3    H113593   7.719   0.722   2.831  0.1501 -0.5637  0.1623
 4544TIP3    H213594   7.664   0.709   2.971 -0.8698  0.9018 -0.0952
 4545TIP3   OH213595   4.948   3.650   1.730 -0.1212  0.1274  0.1231
 4545TIP3    H113596   4.988   3.723   1.683 -1.4706 -0.3093 -1.7963
 4545TIP3    H213597   4.878   3.621   1.672  0.9101 -3.2331  0.4707
 4546TIP3   OH213598   6.942   3.142   2.738 -0.5813 -0.0607  0.0680
 4546TIP3    H113599   6.971   3.069   2.792 -0.2732  0.1928  0.2488
 4546TIP3    H213600   6.849   3.126   2.723 -0.4553 -0.6231 -0.1087
 4547TIP3   OH213601   4.952   1.390   5.798  0.0619 -0.1131 -0.1033
 4547TIP3    H113602   5.030   1.362   5.751  0.8539 -1.6286  2.0363
 4547TIP3    H213603   4.909   1.452   5.739  2.6418  0.4045 -1.4887
 4548TIP3   OH213604   5.736   5.151   1.564  0.0483 -0.0189 -0.2124
 4548TIP3    H113605   5.798   5.224   1.569  0.5617 -0.3160 -1.9142
 4548TIP3    H213606   5.767   5.089   1.629  0.4724  0.6323  0.2152
 4549TIP3   OH213607   1.885   2.603   6.140 -0.0315  0.1038  0.7618
 4549TIP3    H113608   1.960   2.651   6.176  0.8971 -1.3678  0.8308
 4549TIP3    H213609   1.842   2.566   6.217  1.3625 -2.1834  0.4940
 4550TIP3   OH213610   3.470   2.869   5.144  0.5135 -0.1603  0.7729
 4550TIP3    H113611   3.390   2.910   5.113  0.8369  0.1420  0.3338
 4550TIP3    H213612   3.523   2.856   5.065  0.8707 -0.4093  1.0523
 4551TIP3   OH213613   4.414   5.977   1.184  0.1406 -0.7900 -0.1023
 4551TIP3    H113614   4.333   5.985   1.234  0.7935 -0.5538  0.9235
 4551TIP3    H213615   4.455   6.063   1.191  1.2986 -1.4044  0.8045
 4552TIP3   OH213616   6.310   0.073   2.386 -0.4247  0.2785  0.2844
 4552TIP3    H113617   6.344   0.158   2.413  1.6406 -0.3367 -0.2549
 4552TIP3    H213618   6.261   0.041   2.462 -0.2113  1.4352  0.9197
 4553TIP3   OH213619   7.001   6.865   1.997 -0.1914 -0.1570 -0.0449
 4553TIP3    H113620   6.997   6.821   1.912  0.4271 -1.6805  0.6958
 4553TIP3    H213621   7.018   6.957   1.976 -0.3469 -0.4670 -1.5783
 4554TIP3   OH213622   7.201   6.016   2.447 -0.6299 -0.1747  0.4979
 4554TIP3    H113623   7.129   5.974   2.495 -0.4202  0.1606  1.1130
 4554TIP3    H213624   7.278   5.963   2.469 -0.5472 -0.0726  0.4544
 4555TIP3   OH213625   3.625   6.787   1.801 -0.7811  0.0974  0.8668
 4555TIP3    H113626   3.671   6.709   1.771 -1.3543  0.3046 -0.5783
 4555TIP3    H213627   3.682   6.860   1.777 -2.8741  0.5525 -3.1627
 4556TIP3   OH213628   5.690   7.112   1.906  0.6126 -0.4658 -0.0162
 4556TIP3    H113629   5.668   7.187   1.961 -0.1303  0.1602 -1.1571
 4556TIP3    H213630   5.619   7.106   1.843  0.6858 -2.1094  0.0316
 4557TIP3   OH213631   6.547   0.047   1.474  0.1622 -0.4254 -0.6789
 4557TIP3    H113632   6.574   0.132   1.509 -2.0732  0.9500 -2.1376
 4557TIP3    H213633   6.626  -0.006   1.475  1.3515  1.3317  1.2737
 4558TIP3   OH213634   2.840   2.177   4.880 -0.0212 -0.3383 -0.4580
 4558TIP3    H113635   2.821   2.244   4.946 -4.1400  2.2423 -4.0488
 4558TIP3    H213636   2.780   2.105   4.900 -0.6112  0.0483 -0.8392
 4559TIP3   OH213637   1.301   2.820   5.912  0.2536  0.3964  0.3092
 4559TIP3    H113638   1.340   2.837   5.826 -0.6293  0.5357 -0.0639
 4559TIP3    H213639   1.214   2.860   5.908  0.6180  1.3507  1.6487
 4560TIP3   OH213640   2.594   5.585   0.928  0.2313  0.9773  0.1380
 4560TIP3    H113641   2.544   5.648   0.979 -1.1284 -0.6835  0.9376
 4560TIP3    H213642   2.528   5.522   0.897  1.5077  0.0867 -0.8277
 4561TIP3   OH213643   2.232   6.327   1.277 -0.2929 -0.0919 -0.3721
 4561TIP3    H113644   2.192   6.368   1.354  0.2268 -0.3979  0.0685
 4561TIP3    H213645   2.172   6.346   1.206 -0.2149  1.1860 -0.1143
 4562TIP3   OH213646   4.100   4.329   0.004  0.3547 -0.4725 -0.2201
 4562TIP3    H113647   4.142   4.251   0.039 -3.2215 -1.5029  2.0718
 4562TIP3    H213648   4.104   4.393   0.076 -0.1812  0.0787 -0.6681
 4563TIP3   OH213649   2.931   1.499   3.621 -0.2382 -0.3977  0.4451
 4563TIP3    H113650   2.846   1.542   3.620 -0.3998 -0.6958 -1.4487
 4563TIP3    H213651   2.914   1.414   3.661 -0.7798 -0.3411  0.3405
 4564TIP3   OH213652   3.332   4.696   0.017  0.0277 -0.5503  0.2831
 4564TIP3    H113653   3.384   4.623   0.050 -0.9224 -1.2996  0.1565
 4564TIP3    H213654   3.291   4.733   0.095 -0.4193 -0.8987  0.2185
 4565TIP3   OH213655   5.654   6.396   1.259 -0.5276 -0.0167 -0.4907
 4565TIP3    H113656   5.749   6.401   1.268 -0.7772  1.1493  1.6584
 4565TIP3    H213657   5.634   6.446   1.180  0.5054  1.2092  0.0115
 4566TIP3   OH213658   2.671   1.953   4.896  0.0783  0.2121  0.3891
 4566TIP3    H113659   2.604   2.018   4.917  0.7398  1.5131 -1.4122
 4566TIP3    H213660   2.637   1.907   4.819  0.2177 -0.6883  0.8611
 4567TIP3   OH213661   2.755   2.800   6.270 -0.4017 -0.1112  0.3686
 4567TIP3    H113662   2.734   2.762   6.356  1.0074 -0.6633  0.4820
 4567TIP3    H213663   2.850   2.804   6.269 -0.3561 -1.2859 -1.6941
 4568TIP3   OH213664   4.483   4.931   0.216  0.0759  0.3940  0.4298
 4568TIP3    H113665   4.485   4.886   0.131 -2.5418 -0.2002  0.6458
 4568TIP3    H213666   4.527   4.870   0.275 -1.2233 -0.7724  0.2098
 4569TIP3   OH213667   6.876   6.478   1.341 -0.0346 -0.3251 -0.6056
 4569TIP3    H113668   6.908   6.388   1.346  0.4777 -0.1490 -0.7342
 4569TIP3    H213669   6.833   6.493   1.426  0.1520 -0.5849 -0.4657
 4570TIP3   OH213670   6.655   7.200   0.993  0.4979  0.2707 -0.2785
 4570TIP3    H113671   6.636   7.158   0.909 -1.8641  2.9662 -1.1502
 4570TIP3    H213672   6.659   7.294   0.972  2.5561  0.7633  2.1616
 4571TIP3   OH213673   4.763   6.854   5.899 -0.0847 -0.1036  0.2120
 4571TIP3    H113674   4.685   6.891   5.940 -2.5392 -0.1988 -4.0511
 4571TIP3    H213675   4.757   6.760   5.916 -0.8511 -0.0876  0.0390
 4572TIP3   OH213676   6.548   4.943   1.541  0.1574 -0.0995 -0.2056
 4572TIP3    H113677   6.601   4.982   1.471 -0.0246  0.1945 -0.1811
 4572TIP3    H213678   6.526   4.856   1.508  0.0828  0.0342 -0.5121
 4573TIP3   OH213679   4.953   7.068   1.561  0.1260  0.8403  0.4746
 4573TIP3    H113680   4.934   7.058   1.467  3.0467 -0.0629 -0.0765
 4573TIP3    H213681   4.867   7.070   1.603 -1.2491  1.5058 -2.2415
 4574TIP3   OH213682   3.729   4.810   1.340 -0.0840  0.2035  0.3851
 4574TIP3    H113683   3.643   4.844   1.365 -0.4340 -0.0489 -0.4619
 4574TIP3    H213684   3.792   4.866   1.386 -0.6973  0.5299  0.8249
 4575TIP3   OH213685   1.597   6.196   1.606 -0.5386 -0.2737  0.0216
 4575TIP3    H113686   1.520   6.159   1.564 -0.0291 -1.1233 -0.1591
 4575TIP3    H213687   1.572   6.287   1.625 -0.6442  0.2449 -2.4507
 4576TIP3   OH213688   6.730   1.263   4.628 -0.3964 -0.1815  0.7624
 4576TIP3    H113689   6.704   1.335   4.686  1.2477 -0.5965  2.0591
 4576TIP3    H213690   6.815   1.291   4.592 -1.6108  0.2758 -1.8306
 4577TIP3   OH213691   5.309   7.107   1.715 -0.0884 -0.2302  0.4858
 4577TIP3    H113692   5.270   7.032   1.669 -1.8349  0.4812  0.7530
 4577TIP3    H213693   5.402   7.103   1.693 -0.4748 -1.3865 -1.0371
 4578TIP3   OH213694   0.106   0.815   4.350  0.1398  0.3526  0.0520
 4578TIP3    H113695   0.125   0.724   4.375  0.7712  0.6277  0.5801
 4578TIP3    H213696   0.190   0.850   4.321  0.0232  0.9452  0.4144
 4579TIP3   OH213697   3.553   7.129   3.166  0.3205  0.5181 -0.0671
 4579TIP3    H113698   3.584   7.129   3.075 -0.8619  0.2379 -0.4751
 4579TIP3    H213699   3.501   7.209   3.173  1.5823  1.2925  0.7861
 4580TIP3   OH213700   6.144   4.929   0.199  0.8330 -0.7581  0.3371
 4580TIP3    H113701   6.146   4.912   0.293  0.0211 -1.0195  0.3147
 4580TIP3    H213702   6.229   4.901   0.167  1.4416  0.1554  1.1375
 4581TIP3   OH213703   5.378   6.234   0.427 -0.1487  0.3326 -0.3055
 4581TIP3    H113704   5.319   6.307   0.445 -2.5927 -1.5725 -0.3438
 4581TIP3    H213705   5.384   6.186   0.509 -1.9020 -1.7158 -1.3094
 4582TIP3   OH213706   4.283   6.531   0.977 -0.3833  0.5125  0.2638
 4582TIP3    H113707   4.289   6.543   0.882  1.8380 -3.3428 -0.1821
 4582TIP3    H213708   4.313   6.615   1.013  2.1305  0.8597 -2.4463
 4583TIP3   OH213709   3.012   5.404   2.824 -0.3667  0.5608 -0.1423
 4583TIP3    H113710   2.966   5.483   2.852 -0.5825  0.4957 -0.3173
 4583TIP3    H213711   3.067   5.381   2.900 -1.1346  0.2504  0.3212
 4584TIP3   OH213712   7.671   5.386   1.824  0.2143  0.0447  0.2852
 4584TIP3    H113713   7.710   5.363   1.740 -0.2379  0.9786 -0.1878
 4584TIP3    H213714   7.589   5.337   1.827 -0.0068  0.3972 -0.0362
 4585TIP3   OH213715   6.477   6.659   1.515  0.3399  0.4620 -0.3470
 4585TIP3    H113716   6.415   6.703   1.457  1.9850  1.3298 -1.4860
 4585TIP3    H213717   6.451   6.686   1.603 -1.1349  0.4859 -0.7934
 4586TIP3   OH213718   0.337   2.002   2.484 -0.4702  0.3644  0.2256
 4586TIP3    H113719   0.408   2.019   2.421  0.8889  0.1095  1.6682
 4586TIP3    H213720   0.263   1.975   2.429  0.4789  0.7895 -1.3163
 4587TIP3   OH213721   7.028   0.618   2.380 -0.3923 -0.3411  0.4864
 4587TIP3    H113722   7.028   0.647   2.288 -2.8334 -0.9989  0.2371
 4587TIP3    H213723   7.108   0.656   2.417 -0.2183  1.3284 -1.4817
 4588TIP3   OH213724   4.813   6.796   2.104  0.4204  0.1291  0.2931
 4588TIP3    H113725   4.764   6.851   2.164 -0.8528 -2.0339  1.2556
 4588TIP3    H213726   4.861   6.735   2.160  0.0668 -1.1980 -0.8156
 4589TIP3   OH213727   3.303   0.798   6.338  0.3640 -0.4472 -0.2441
 4589TIP3    H113728   3.268   0.851   6.410  0.7134  0.7023 -0.9112
 4589TIP3    H213729   3.397   0.814   6.341  0.6475 -2.1735  0.4514
 4590TIP3   OH213730   6.376   6.788   1.234 -0.7353 -0.4765  0.1591
 4590TIP3    H113731   6.299   6.837   1.262 -1.7611 -0.8514 -1.9022
 4590TIP3    H213732   6.347   6.697   1.229 -0.4890 -0.4885 -1.6260
 4591TIP3   OH213733   5.933   5.242   2.498  0.2073 -0.2248  0.2618
 4591TIP3    H113734   5.999   5.242   2.567  0.2646  0.0106  0.2061
 4591TIP3    H213735   5.850   5.258   2.543  0.3609  0.8962  0.1604
 4592TIP3   OH213736   5.514   5.099   1.822  0.1616 -0.8079 -0.3425
 4592TIP3    H113737   5.455   5.026   1.802  1.3460 -2.3704  1.7730
 4592TIP3    H213738   5.582   5.094   1.755  0.2114 -1.6330 -0.2378
 4593TIP3   OH213739   7.424   5.021   2.968 -0.1641 -0.7915 -0.3247
 4593TIP3    H113740   7.429   5.114   2.990 -0.1947 -0.5422 -1.3092
 4593TIP3    H213741   7.501   4.982   3.010 -1.1966 -0.6751  1.6918
 4594TIP3   OH213742   6.138   6.973   1.685 -0.0749 -0.1897 -0.1564
 4594TIP3    H113743   6.077   7.041   1.716  0.0084 -1.1766  2.2739
 4594TIP3    H213744   6.084   6.915   1.632 -0.8019  0.1049  0.2486
 4595TIP3   OH213745   3.472   4.851   2.333  0.5675  0.2054  0.6793
 4595TIP3    H113746   3.505   4.815   2.250 -1.4716  0.4307 -0.2640
 4595TIP3    H213747   3.534   4.921   2.354  1.0087  0.2748 -0.7645
 4596TIP3   OH213748   7.237   7.030  -0.034  0.1723  0.4004  0.0713
 4596TIP3    H113749   7.178   7.103  -0.015 -3.3331 -2.1877 -0.2729
 4596TIP3    H213750   7.278   7.010   0.050  1.0790  2.6400  0.1856
 4597TIP3   OH213751   6.016   5.927   2.786 -0.1664 -0.1206  0.3637
 4597TIP3    H113752   6.068   5.988   2.838 -0.3384 -2.0902  2.9475
 4597TIP3    H213753   5.925   5.951   2.805 -0.2424  1.3777 -1.7819
 4598TIP3   OH213754   5.630   6.822   1.186  0.2145 -0.3829  0.1516
 4598TIP3    H113755   5.554   6.803   1.242 -0.6577  1.2087 -0.4410
 4598TIP3    H213756   5.660   6.908   1.216  1.3006 -0.6484 -0.1625
 4599TIP3   OH213757   6.582   5.624   2.330  0.3103 -0.2270  0.2188
 4599TIP3    H113758   6.526   5.684   2.378  1.8001 -0.6210  2.5285
 4599TIP3    H213759   6.543   5.620   2.243 -0.1194  3.6688  0.1295
 4600TIP3   OH213760   5.086   6.048   2.167  0.3983  0.6878 -0.5933
 4600TIP3    H113761   5.067   5.960   2.134 -2.3087  2.0852 -2.9368
 4600TIP3    H213762   5.015   6.103   2.134  1.2223  3.5254  2.0499
 4601TIP3   OH213763   4.632   4.797   1.638 -0.6019  0.2792 -0.4979
 4601TIP3    H113764   4.582   4.721   1.608  1.5438 -1.4144  0.0908
 4601TIP3    H213765   4.600   4.813   1.727 -1.7338  0.6757 -0.9713
 4602TIP3   OH213766   2.956   7.278   1.803 -0.0807  0.8159  0.5969
 4602TIP3    H113767   2.882   7.270   1.742  1.3877 -0.2006 -1.1216
 4602TIP3    H213768   2.985   7.368   1.793  0.3898  0.5574 -0.5548
 4603TIP3   OH213769   4.158   5.960   2.531 -0.0427  0.0063 -0.1564
 4603TIP3    H113770   4.194   6.048   2.522  1.8009 -0.7371 -0.0953
 4603TIP3    H213771   4.204   5.922   2.606 -1.8391 -0.5370  0.7177
 4604TIP3   OH213772   5.500   6.709   0.803  0.4974  0.0543  0.3125
 4604TIP3    H113773   5.505   6.718   0.708  0.4285 -2.2184  0.0771
 4604TIP3    H213774   5.526   6.795   0.836 -1.8375  1.6497 -1.7753
 4605TIP3   OH213775   5.769   6.165   1.041 -0.4218  0.1204 -0.1037
 4605TIP3    H113776   5.860   6.144   1.062 -0.0452  0.2506 -1.5404
 4605TIP3    H213777   5.775   6.246   0.989 -1.1975 -0.8234 -1.7149
 4606TIP3   OH213778   0.153   5.881   3.649 -0.0704 -0.7212 -0.0696
 4606TIP3    H113779   0.210   5.936   3.597 -4.2012  2.0863 -1.8944
 4606TIP3    H213780   0.152   5.921   3.736 -0.7280  0.3685 -0.5717
 4607TIP3   OH213781   3.719   6.703   0.839 -0.8585 -0.1994  0.4151
 4607TIP3    H113782   3.709   6.675   0.930  0.1962  0.2008  0.6645
 4607TIP3    H213783   3.749   6.625   0.793 -3.6128 -1.0294 -0.0654
 4608TIP3   OH213784   6.093   6.879   0.704  0.6051 -0.4532 -0.3237
 4608TIP3    H113785   6.060   6.920   0.624  0.5636 -1.1317 -0.6638
 4608TIP3    H213786   6.143   6.947   0.748 -0.9237  0.4710 -0.0004
 4609TIP3   OH213787   5.886   7.256   2.117  0.2149  0.3097  0.2103
 4609TIP3    H113788   5.798   7.292   2.103  0.1849  0.1528 -0.0015
 4609TIP3    H213789   5.927   7.317   2.179  0.0242  0.4887  0.1624
 4610TIP3   OH213790   6.096   5.007   0.860 -0.0373  0.0092 -0.5266
 4610TIP3    H113791   6.152   4.956   0.802 -1.0674 -0.4293 -1.1624
 4610TIP3    H213792   6.011   5.010   0.815 -0.5742  0.5184  0.4823
 4611TIP3   OH213793   5.905   6.939   2.128  0.0947  0.2698 -0.3268
 4611TIP3    H113794   5.831   6.913   2.183  0.5259 -0.2085  0.0338
 4611TIP3    H213795   5.897   7.034   2.119  0.2347  0.4022  0.8720
 4612TIP3   OH213796   4.127   1.182   6.345 -0.2881  0.1692 -0.7877
 4612TIP3    H113797   4.144   1.109   6.286 -0.4894  0.4135 -1.1465
 4612TIP3    H213798   4.117   1.258   6.287 -0.6185  0.3839 -0.4511
 4613TIP3   OH213799   6.083   0.109   2.232  0.5630  0.7965  0.5140
 4613TIP3    H113800   6.082   0.204   2.220 -0.0506  0.8737  1.1686
 4613TIP3    H213801   6.168   0.090   2.271  1.0086  0.9790 -0.3448
 4614TIP3   OH213802   1.269   6.988   0.860 -0.5843 -0.1099  0.2150
 4614TIP3    H113803   1.199   6.944   0.811 -1.1489  0.4495  0.5149
 4614TIP3    H213804   1.327   7.024   0.793 -1.7464  1.2859 -0.0539
 4615TIP3   OH213805   6.725   4.898   0.778 -0.3589 -0.1346 -0.5347
 4615TIP3    H113806   6.643   4.946   0.790 -1.2740 -1.4746 -1.2803
 4615TIP3    H213807   6.757   4.925   0.692 -0.4856 -0.2945 -0.6319
 4616TIP3   OH213808   5.806   4.254   1.051  0.5497  0.0095 -0.2545
 4616TIP3    H113809   5.889   4.299   1.062  0.9694 -1.3025  2.3977
 4616TIP3    H213810   5.752   4.283   1.125 -0.1495 -1.6545 -0.0709
 4617TIP3   OH213811   3.294   5.679   0.449  0.4178 -0.1201 -0.1757
 4617TIP3    H113812   3.232   5.615   0.484  1.3484 -0.6524  0.4927
 4617TIP3    H213813   3.355   5.696   0.521  1.9345 -0.7079 -1.3052
 4618TIP3   OH213814   6.734   6.217   2.235  0.2645  0.5084 -0.3951
 4618TIP3    H113815   6.693   6.279   2.296  0.4955  0.2325  0.0461
 4618TIP3    H213816   6.816   6.193   2.279 -0.1997 -0.7204 -0.2011
 4619TIP3   OH213817   4.865   5.974   2.715 -0.1705  0.6301  0.4425
 4619TIP3    H113818   4.895   6.056   2.675 -0.2820  0.5786  0.2544
 4619TIP3    H213819   4.945   5.931   2.745 -0.2359  1.6529  2.1768
 4620TIP3   OH213820   3.783   5.937   0.291 -0.2249  0.1616  0.4396
 4620TIP3    H113821   3.698   5.974   0.314  0.3125  0.1726  2.5740
 4620TIP3    H213822   3.821   6.000   0.230 -1.3156  0.6915  0.2954
 4621TIP3   OH213823   0.771   6.277   5.112 -0.1575  0.0708  0.2143
 4621TIP3    H113824   0.681   6.295   5.084 -0.4549 -0.1744  1.0083
 4621TIP3    H213825   0.819   6.356   5.088 -0.8545  0.7298  0.9623
 4622TIP3   OH213826   6.827   0.610   2.817 -0.5144  0.2685 -0.3457
 4622TIP3    H113827   6.845   0.658   2.898 -2.5746 -1.0487  0.9414
 4622TIP3    H213828   6.912   0.576   2.790  0.0940  0.1270  1.6675
 4623TIP3   OH213829   3.680   6.913   1.324  0.5387  0.2653 -0.2795
 4623TIP3    H113830   3.608   6.938   1.266  0.3220  0.9872  0.2945
 4623TIP3    H213831   3.642   6.914   1.411  0.2320 -3.0865 -0.2932
 4624TIP3   OH213832   3.307   6.327   1.906  0.1772  0.3640 -0.6247
 4624TIP3    H113833   3.257   6.399   1.867  0.8643  1.0918 -0.1784
 4624TIP3    H213834   3.384   6.369   1.944  0.9506 -0.7069 -0.9902
 4625TIP3   OH213835   5.357   4.280   0.877 -0.9912 -0.5889  0.1898
 4625TIP3    H113836   5.340   4.186   0.874 -0.3751 -0.6931 -0.2109
 4625TIP3    H213837   5.295   4.317   0.814 -0.1965 -0.8926 -0.7784
 4626TIP3   OH213838   4.620   6.024   2.383  0.5089  0.7610 -0.0229
 4626TIP3    H113839   4.618   6.110   2.342  0.2343  0.2710 -1.0588
 4626TIP3    H213840   4.673   5.970   2.323 -0.5562 -0.1608 -0.1466
 4627TIP3   OH213841   7.350   3.047   1.443  0.1767 -0.8287 -0.7817
 4627TIP3    H113842   7.436   3.085   1.426 -0.2061  0.0410 -0.8097
 4627TIP3    H213843   7.353   3.022   1.536 -0.3078  1.2657 -0.1782
 4628TIP3   OH213844   5.954   4.584   2.540  0.3982  0.0205  0.4702
 4628TIP3    H113845   5.859   4.569   2.537  0.4225  0.1171 -2.4555
 4628TIP3    H213846   5.963   4.679   2.546  0.3106 -0.0975  2.5809
 4629TIP3   OH213847   4.570   0.397   3.459 -0.0278  0.4631 -0.4547
 4629TIP3    H113848   4.492   0.435   3.420 -0.4827  1.0286  0.9535
 4629TIP3    H213849   4.538   0.353   3.538  0.7591 -1.2093 -1.0347
 4630TIP3   OH213850   6.809   0.777   1.388 -0.6276 -0.2658 -0.2986
 4630TIP3    H113851   6.785   0.822   1.469  0.0167 -0.6702  0.1172
 4630TIP3    H213852   6.793   0.841   1.319 -0.1487  0.4453  0.2470
 4631TIP3   OH213853   3.506   6.562   1.371  0.2423  0.8396 -0.1839
 4631TIP3    H113854   3.560   6.497   1.326  0.4307  0.5839  0.4041
 4631TIP3    H213855   3.416   6.536   1.351  0.3137  0.2516  0.2495
 4632TIP3   OH213856   6.642   1.998   2.408 -0.3171  0.4097  0.0459
 4632TIP3    H113857   6.670   1.994   2.499 -0.7901  1.6702  0.2652
 4632TIP3    H213858   6.567   2.058   2.409  0.5256  1.5246 -1.3775
 4633TIP3   OH213859   6.915   5.253   0.805 -0.4770  0.3216 -0.2268
 4633TIP3    H113860   6.973   5.257   0.729 -0.6148 -2.0578 -0.4983
 4633TIP3    H213861   6.828   5.241   0.769 -0.4698 -1.4778  0.2807
 4634TIP3   OH213862   6.355   1.169   2.134  0.2633 -0.2390 -0.3171
 4634TIP3    H113863   6.440   1.136   2.105 -0.8208 -3.5488  0.0749
 4634TIP3    H213864   6.319   1.099   2.187 -2.4204  1.4180  0.1357
 4635TIP3   OH213865   6.815   0.755   2.497  0.4659  0.1301  0.2650
 4635TIP3    H113866   6.867   0.699   2.439  0.6941 -0.5666  1.1390
 4635TIP3    H213867   6.878   0.813   2.538  0.0910  1.8161 -1.5061
 4636TIP3   OH213868   0.661   0.705   2.538 -0.2190  0.2496  0.3021
 4636TIP3    H113869   0.684   0.759   2.462 -0.2410 -1.5971 -1.0525
 4636TIP3    H213870   0.742   0.697   2.588  0.0089  0.7717  0.0145
 4637TIP3   OH213871   7.372   0.012   4.019  0.4763  0.0742 -0.3806
 4637TIP3    H113872   7.426   0.086   3.992  3.5950 -1.4719  1.3154
 4637TIP3    H213873   7.313  -0.004   3.945  1.2068  2.8745 -1.6099
 4638TIP3   OH213874   7.317   2.219   1.683  0.4795  0.0529  0.4021
 4638TIP3    H113875   7.390   2.257   1.731  0.4926  1.1647 -0.4730
 4638TIP3    H213876   7.239   2.263   1.717  0.2773 -0.7315  0.9467
 4639TIP3   OH213877   2.637   6.523   1.790  0.5093  0.5339  0.5866
 4639TIP3    H113878   2.646   6.587   1.860  0.1654  1.6833 -0.4072
 4639TIP3    H213879   2.550   6.484   1.804  0.4916  0.6764  0.8696
 4640TIP3   OH213880   5.048   0.433   1.584 -0.1285 -0.2543 -0.0139
 4640TIP3    H113881   4.953   0.424   1.592 -0.3418  1.5518 -0.3247
 4640TIP3    H213882   5.060   0.508   1.527  1.5081  0.0871  0.7584
 4641TIP3   OH213883   5.213   7.104   1.964 -0.2014  0.1107  0.2627
 4641TIP3    H113884   5.174   7.016   1.970  0.0764 -0.0635 -0.3981
 4641TIP3    H213885   5.242   7.110   1.873 -1.4638  1.4118 -0.0682
 4642TIP3   OH213886   3.499   5.702   0.641 -0.0776 -0.4970 -0.2090
 4642TIP3    H113887   3.499   5.608   0.624 -0.3616 -0.6450  0.5596
 4642TIP3    H213888   3.584   5.719   0.681  0.1742 -0.3383 -0.8134
 4643TIP3   OH213889   4.831   5.587   1.160  0.2522 -0.1506 -0.3306
 4643TIP3    H113890   4.912   5.624   1.125  0.0178  1.2951  0.5656
 4643TIP3    H213891   4.770   5.588   1.087  0.1484  1.6311 -0.2570
 4644TIP3   OH213892   4.413   6.374   1.523  0.0019 -0.0387 -0.0524
 4644TIP3    H113893   4.407   6.467   1.545  1.9032 -0.3968  2.2509
 4644TIP3    H213894   4.409   6.371   1.428 -1.4128  2.2811 -0.1039
 4645TIP3   OH213895   6.527   7.032   1.778  0.1466 -0.0311 -0.1007
 4645TIP3    H113896   6.553   7.048   1.687 -0.4111  0.1884 -0.2211
 4645TIP3    H213897   6.481   6.949   1.776 -0.9103  0.5462 -0.2219
 4646TIP3   OH213898   5.058   6.013   0.600  0.0582 -0.4421 -0.6128
 4646TIP3    H113899   5.048   5.918   0.601  0.0648 -0.4494 -1.1963
 4646TIP3    H213900   4.977   6.045   0.560 -0.5123 -0.1225  0.7516
 4647TIP3   OH213901   1.729   1.598   5.748 -0.6376 -0.8895 -0.1606
 4647TIP3    H113902   1.680   1.667   5.793  0.6618 -1.3479  2.0518
 4647TIP3    H213903   1.683   1.517   5.772  1.0565 -1.3065  1.8195
 4648TIP3   OH213904   5.028   6.826   0.170  0.2628 -0.1680 -0.7784
 4648TIP3    H113905   5.116   6.838   0.136 -0.0880 -0.5798 -1.8818
 4648TIP3    H213906   5.013   6.731   0.167  0.0297 -0.1610  0.0408
 4649TIP3   OH213907   6.982   4.821   1.634 -0.2841  0.0083 -0.1210
 4649TIP3    H113908   6.947   4.843   1.547 -1.0155 -1.1310 -0.1311
 4649TIP3    H213909   6.934   4.878   1.694 -1.0239 -0.4223 -0.2965
 4650TIP3   OH213910   2.595   7.249   0.904  0.2588 -0.0348  0.3293
 4650TIP3    H113911   2.664   7.303   0.864  0.3762  0.6580  1.4383
 4650TIP3    H213912   2.642   7.179   0.949  0.2721  0.6986  1.4713
 4651TIP3   OH213913   4.242   2.068   3.391  0.3217 -0.5755  0.3732
 4651TIP3    H113914   4.270   2.093   3.479  0.7555 -1.5701  0.5237
 4651TIP3    H213915   4.319   2.028   3.352  0.8049  1.8382 -1.2670
 4652TIP3   OH213916   4.709   1.214   5.779 -0.1032  0.2266 -0.1869
 4652TIP3    H113917   4.669   1.171   5.704 -1.1674 -1.9738  1.5685
 4652TIP3    H213918   4.652   1.289   5.797 -0.4233  0.1664 -0.9567
 4653TIP3   OH213919   4.870   7.206   2.153  0.2281 -0.3861 -0.0167
 4653TIP3    H113920   4.799   7.151   2.119 -0.2244 -0.8850  1.6913
 4653TIP3    H213921   4.849   7.219   2.245  0.4994  2.4206 -0.2979
 4654TIP3   OH213922   6.246   4.472   1.522  0.0825 -0.0306  0.1895
 4654TIP3    H113923   6.215   4.533   1.588  0.0834 -0.4136  0.5435
 4654TIP3    H213924   6.307   4.415   1.568  0.2805 -0.1342 -0.1980
 4655TIP3   OH213925   0.552   2.636   5.794 -0.2143 -0.3637  0.3092
 4655TIP3    H113926   0.545   2.696   5.720 -0.6047 -1.3991 -0.5082
 4655TIP3    H213927   0.497   2.674   5.862 -0.4005  0.2330 -0.1786
 4656TIP3   OH213928   5.945   4.827   2.857  0.5139 -0.0369 -0.6380
 4656TIP3    H113929   5.892   4.805   2.781  0.8899 -1.3417 -0.5442
 4656TIP3    H213930   5.882   4.843   2.927  0.2109 -0.3885 -0.8292
 4657TIP3   OH213931   5.433   6.663   1.610 -0.0542  0.1078 -0.1124
 4657TIP3    H113932   5.412   6.584   1.660  1.4811 -0.5781 -0.5071
 4657TIP3    H213933   5.421   6.734   1.673 -0.4095 -0.5398  0.5629
 4658TIP3   OH213934   0.767   4.218   1.331  0.4142 -0.3281  0.8132
 4658TIP3    H113935   0.679   4.202   1.364  1.2378  0.0175  3.2932
 4658TIP3    H213936   0.753   4.267   1.249 -1.6785  0.2939  1.5007
 4659TIP3   OH213937   6.211   6.274   0.875  0.4055  0.6072  0.1882
 4659TIP3    H113938   6.203   6.351   0.818 -2.5919  0.4654  0.3308
 4659TIP3    H213939   6.188   6.307   0.962  1.5091  0.0493  0.7047
 4660TIP3   OH213940   1.343   1.571   2.257 -0.7022 -0.5231  0.0714
 4660TIP3    H113941   1.425   1.535   2.292 -0.4318  1.5596  1.7286
 4660TIP3    H213942   1.362   1.592   2.166  1.2654  1.7107  0.9352
 4661TIP3   OH213943   4.842   1.691   5.910 -0.0300  0.4864  0.3562
 4661TIP3    H113944   4.890   1.773   5.914 -1.1893  1.1263  1.7071
 4661TIP3    H213945   4.810   1.686   5.820  2.5786  0.0019 -0.5823
 4662TIP3   OH213946   6.515   5.567   0.898 -0.0800 -0.2116 -0.2024
 4662TIP3    H113947   6.471   5.604   0.822 -0.5949 -0.3482  0.0290
 4662TIP3    H213948   6.495   5.627   0.969 -0.1207 -0.4208 -0.0369
 4663TIP3   OH213949   2.243   6.221   0.172 -0.2153  0.1115 -0.1356
 4663TIP3    H113950   2.177   6.291   0.176 -0.7997 -0.3049 -1.9384
 4663TIP3    H213951   2.315   6.259   0.123 -0.6544 -0.6289 -1.3734
 4664TIP3   OH213952   0.837   6.292   1.412  0.4590  0.4891  0.3542
 4664TIP3    H113953   0.769   6.357   1.430 -0.8252 -1.5215  3.1710
 4664TIP3    H213954   0.873   6.271   1.498  2.3853 -0.9160 -0.7484
 4665TIP3   OH213955   7.161   5.975   0.662  0.2832 -0.8368  0.1318
 4665TIP3    H113956   7.076   5.938   0.686  0.8685 -1.0609  1.9544
 4665TIP3    H213957   7.156   6.066   0.692  0.7181 -0.8868  0.3663
 4666TIP3   OH213958   0.864   5.062   1.434 -0.0842 -0.1868 -0.5523
 4666TIP3    H113959   0.841   4.990   1.493  1.6796 -0.4655 -0.2013
 4666TIP3    H213960   0.837   5.031   1.347  0.2086 -1.0725 -0.3353
 4667TIP3   OH213961   2.305   0.347   0.464  0.0777 -0.1975 -0.2227
 4667TIP3    H113962   2.262   0.420   0.419 -1.5064  0.3890  2.1494
 4667TIP3    H213963   2.392   0.380   0.486  0.0641  0.2802 -0.8631
 4668TIP3   OH213964   0.192   5.828   3.222 -0.0734  0.2103 -0.0862
 4668TIP3    H113965   0.180   5.741   3.183  0.3965  0.2004 -0.2111
 4668TIP3    H213966   0.110   5.845   3.268 -0.0517 -0.4411  0.1974
 4669TIP3   OH213967   5.007   6.933   1.926  0.0355 -0.1034  0.1788
 4669TIP3    H113968   4.922   6.957   1.964 -0.3156  0.3397 -0.8615
 4669TIP3    H213969   5.033   7.011   1.876  0.2043 -0.8943 -0.9698
 4670TIP3   OH213970   4.958   6.567   3.190  0.3142  0.2031 -1.0191
 4670TIP3    H113971   4.972   6.585   3.097  0.4805  2.1004 -0.6576
 4670TIP3    H213972   5.001   6.640   3.235  1.9556 -1.7402  0.6291
 4671TIP3   OH213973   7.624   5.304   3.492 -0.1444  0.1157  0.0880
 4671TIP3    H113974   7.620   5.378   3.553 -0.3811 -0.6834  1.0651
 4671TIP3    H213975   7.691   5.246   3.529 -1.5721 -1.2437  0.6016
 4672TIP3   OH213976   7.740   6.351   0.664 -0.3810 -0.4308  0.1345
 4672TIP3    H113977   7.688   6.375   0.588  0.8188 -0.7035 -0.7942
 4672TIP3    H213978   7.726   6.257   0.674  0.2111 -0.5724 -0.3391
 4673TIP3   OH213979   1.511   5.766   2.554  0.4203 -0.1662 -0.3695
 4673TIP3    H113980   1.437   5.828   2.556  1.1408  0.6948 -0.2853
 4673TIP3    H213981   1.574   5.807   2.495  0.2341 -1.5960 -1.5887
 4674TIP3   OH213982   6.932   4.886   2.159  0.1060 -0.3374 -0.5752
 4674TIP3    H113983   6.911   4.904   2.251  0.1643  1.8789 -0.9879
 4674TIP3    H213984   6.862   4.828   2.130 -0.1818 -0.6766  0.7322
 4675TIP3   OH213985   3.511   3.105   3.638  0.0547 -0.3122  0.6366
 4675TIP3    H113986   3.581   3.040   3.630  0.2527 -0.1244  0.8361
 4675TIP3    H213987   3.510   3.128   3.731  0.8189  0.8923  0.3559
 4676TIP3   OH213988   3.193   0.072   1.137 -0.2813  0.1104 -0.0903
 4676TIP3    H113989   3.141   0.151   1.149  0.4732  0.6101 -0.0787
 4676TIP3    H213990   3.129   0.001   1.137 -1.1275  0.8410 -1.5441
 4677TIP3   OH213991   5.674   6.073   1.429  0.6756  0.3702 -1.3471
 4677TIP3    H113992   5.724   6.152   1.446  0.8089  0.1918 -0.9138
 4677TIP3    H213993   5.620   6.094   1.352 -0.0853  1.2353 -0.5873
 4678TIP3   OH213994   0.529   5.568   0.487 -0.5553 -0.0141 -0.3959
 4678TIP3    H113995   0.515   5.569   0.393  0.4677 -0.9374 -0.5686
 4678TIP3    H213996   0.558   5.479   0.506 -1.0503  0.0753  0.8377
 4679TIP3   OH213997   6.785   4.869   2.382  0.0598 -0.2925  0.0023
 4679TIP3    H113998   6.799   4.828   2.468  0.3231  1.8759  1.0210
 4679TIP3    H213999   6.690   4.868   2.370  0.1001 -1.8224 -0.3160
 4680TIP3   OH214000   4.859   5.987   0.868  0.2101 -0.2659 -0.3676
 4680TIP3    H114001   4.912   6.067   0.875 -0.1607  0.0194 -0.8044
 4680TIP3    H214002   4.854   5.954   0.958 -1.0623  1.1209  0.0921
 4681TIP3   OH214003   2.025   0.586   4.603 -0.2668  0.1474 -0.0898
 4681TIP3    H114004   1.978   0.605   4.685 -0.6837 -1.5055  0.0819
 4681TIP3    H214005   2.098   0.531   4.630 -0.3234 -0.2880 -0.8120
 4682TIP3   OH214006   5.265   7.046   0.530 -0.1436  0.2252 -0.1197
 4682TIP3    H114007   5.303   7.123   0.487  0.8461 -0.2245 -0.0468
 4682TIP3    H214008   5.267   7.067   0.623  1.6817 -0.5727  0.0365
 4683TIP3   OH214009   4.543   6.090   0.760  0.3010 -0.1610  0.2433
 4683TIP3    H114010   4.598   6.142   0.817  0.2336  1.6486 -1.3011
 4683TIP3    H214011   4.602   6.025   0.721  1.5933  2.2355 -1.9893
 4684TIP3   OH214012   6.976   7.221   1.521  0.3767 -0.2936  0.2122
 4684TIP3    H114013   7.055   7.169   1.510  2.6529  2.5389  2.4694
 4684TIP3    H214014   6.945   7.200   1.610 -1.3036 -1.1861 -0.5530
 4685TIP3   OH214015   6.253   4.539   2.796  0.5703 -0.0531  0.5802
 4685TIP3    H114016   6.266   4.574   2.885 -0.3225  0.3122  0.5740
 4685TIP3    H214017   6.280   4.610   2.739  2.8133 -0.9081  0.5361
 4686TIP3   OH214018   2.997   5.329   1.580  0.5226  0.3925 -0.2029
 4686TIP3    H114019   3.054   5.379   1.521  1.0226  0.0641 -0.0002
 4686TIP3    H214020   3.057   5.288   1.642  0.3135 -2.2602 -1.6652
 4687TIP3   OH214021   0.148   5.880   2.909  0.6381  0.1397 -0.7862
 4687TIP3    H114022   0.228   5.840   2.943 -0.0058 -1.4662 -1.0815
 4687TIP3    H214023   0.126   5.827   2.832 -0.5584  0.7241 -0.8580
 4688TIP3   OH214024   7.352   5.354   3.408  0.0606 -0.2546  0.2120
 4688TIP3    H114025   7.444   5.332   3.425 -0.1653  0.5958  2.6639
 4688TIP3    H214026   7.303   5.279   3.442 -0.2647  0.1826  0.6961
 4689TIP3   OH214027   6.656   6.835   1.256  0.0114  0.7829  0.9321
 4689TIP3    H114028   6.705   6.767   1.209  0.6709  2.4484 -0.8489
 4689TIP3    H214029   6.565   6.806   1.251  0.2930 -0.0189  0.2597
 4690TIP3   OH214030   7.655   6.027   0.464 -0.1793  0.0632  0.3546
 4690TIP3    H114031   7.616   6.001   0.381  0.8752 -2.5256  0.6216
 4690TIP3    H214032   7.583   6.067   0.514 -1.4583 -0.8058 -0.7709
 4691TIP3   OH214033   4.206   0.835   5.418 -0.1242  0.2166  0.1549
 4691TIP3    H114034   4.278   0.860   5.476  1.2688 -0.1218 -1.3921
 4691TIP3    H214035   4.132   0.886   5.450  0.9642  1.1091  1.3493
 4692TIP3   OH214036   6.059   6.344   1.095 -1.3501  0.3008 -0.5513
 4692TIP3    H114037   6.037   6.370   1.185  0.4847 -0.5160  0.1668
 4692TIP3    H214038   6.045   6.250   1.093  0.2700  0.0412 -0.5869
 4693TIP3   OH214039   4.015   0.611   3.072 -0.5079  0.5511  0.0132
 4693TIP3    H114040   4.047   0.574   2.990 -0.4168  1.2347 -0.2628
 4693TIP3    H214041   4.085   0.670   3.102 -0.6755  0.5513  0.4144
 4694TIP3   OH214042   6.131   6.957   1.275 -0.0824 -0.1731 -0.3150
 4694TIP3    H114043   6.123   6.904   1.195  0.2227 -1.5310  0.5491
 4694TIP3    H214044   6.170   7.039   1.245 -0.0167 -0.6490 -1.5696
 4695TIP3   OH214045   2.262   1.740   2.008 -0.4550  0.0205  0.4395
 4695TIP3    H114046   2.229   1.706   2.091  0.2440 -0.5278  0.5013
 4695TIP3    H214047   2.222   1.683   1.941  0.1810 -0.5060  0.5010
 4696TIP3   OH214048   6.314   4.139   1.714 -0.1999  0.5382 -0.6412
 4696TIP3    H114049   6.289   4.172   1.800  1.9498  1.0938 -0.1910
 4696TIP3    H214050   6.248   4.074   1.692 -0.1351 -0.4534  1.9578
 4697TIP3   OH214051   1.129   4.289   2.039  0.4640  0.6543  0.3530
 4697TIP3    H114052   1.137   4.232   1.962 -1.7072 -0.0927  0.6424
 4697TIP3    H214053   1.042   4.328   2.030  0.4807  1.0958  2.0862
 4698TIP3   OH214054   6.648   5.810   1.915  0.0383  0.1022 -0.1665
 4698TIP3    H114055   6.640   5.866   1.993  1.5677 -0.6654  0.5553
 4698TIP3    H214056   6.722   5.846   1.867 -0.9696  0.6424 -1.3532
 4699TIP3   OH214057   6.858   5.912   0.731 -0.8074 -0.1740 -0.3261
 4699TIP3    H114058   6.841   5.991   0.783 -3.0319 -1.4454  0.9767
 4699TIP3    H214059   6.773   5.891   0.692  0.0171 -1.3026 -1.5321
 4700TIP3   OH214060   7.641   4.978   0.333 -0.3558  0.4223  0.7235
 4700TIP3    H114061   7.697   4.900   0.335 -0.3094  0.4053 -0.7169
 4700TIP3    H214062   7.566   4.952   0.279 -1.1004  0.8775  1.5359
 4701TIP3   OH214063   4.618   4.710   5.982 -0.5028  0.0875  0.1839
 4701TIP3    H114064   4.540   4.656   5.993 -0.8976  0.9511  1.7288
 4701TIP3    H214065   4.587   4.787   5.934 -0.3583 -0.0930 -0.2040
 4702TIP3   OH214066   2.788   2.289   6.061  0.0607 -0.8340  0.2162
 4702TIP3    H114067   2.799   2.223   6.129 -0.4807  0.3845  1.4933
 4702TIP3    H214068   2.847   2.360   6.086 -3.0116  1.3558  1.6326
 4703TIP3   OH214069   2.911   3.107   5.517 -0.1970  0.0733  0.4193
 4703TIP3    H114070   2.867   3.023   5.523 -0.3572  0.1653  0.5314
 4703TIP3    H214071   3.004   3.085   5.512 -0.2451 -0.1135  0.3396
 4704TIP3   OH214072   5.136   5.320   2.225  0.0379 -0.6895  0.1075
 4704TIP3    H114073   5.174   5.396   2.269 -2.0610 -0.0330  0.8640
 4704TIP3    H214074   5.041   5.332   2.235 -0.4329 -1.5333 -2.9344
 4705TIP3   OH214075   0.436   0.994   2.520  0.8864  0.3795  0.4570
 4705TIP3    H114076   0.444   0.900   2.536  0.1835 -0.0094 -1.3674
 4705TIP3    H214077   0.354   1.019   2.564 -0.7611 -0.5805 -1.9472
 4706TIP3   OH214078   7.246   0.104   2.395 -0.0620  0.3415  0.0850
 4706TIP3    H114079   7.180   0.100   2.465  0.0342  1.8710  0.2988
 4706TIP3    H214080   7.200   0.073   2.317  0.5717 -3.9019  1.2761
 4707TIP3   OH214081   4.447   2.679   6.146 -0.4172 -0.0773 -0.4807
 4707TIP3    H114082   4.504   2.615   6.189  0.5152  0.8893 -0.2449
 4707TIP3    H214083   4.507   2.748   6.117 -1.5298  1.2066  0.2119
 4708TIP3   OH214084   6.982   5.741   4.135 -0.4919 -0.2304  0.1437
 4708TIP3    H114085   7.018   5.654   4.152  2.0822  0.9358  0.9601
 4708TIP3    H214086   6.983   5.749   4.040 -0.0733 -0.8266  0.0912
 4709TIP3   OH214087   5.798   4.332   2.125 -0.2016  0.5127 -0.0515
 4709TIP3    H114088   5.734   4.402   2.114 -1.0220 -0.2104 -0.0109
 4709TIP3    H214089   5.790   4.307   2.217  0.5394  0.7978  0.0873
 4710TIP3   OH214090   6.187   5.651   2.147  0.3108  0.7587  0.1701
 4710TIP3    H114091   6.230   5.592   2.209  0.1094  0.3590 -0.0723
 4710TIP3    H214092   6.170   5.730   2.197 -0.8810  0.0266  0.9520
 4711TIP3   OH214093   3.688   0.314   1.598  0.0058 -0.3068  0.0904
 4711TIP3    H114094   3.739   0.247   1.643  0.4919  0.8829  1.3244
 4711TIP3    H214095   3.735   0.327   1.515  0.0384 -1.3000 -0.0620
 4712TIP3   OH214096   0.221   7.078   4.112  0.2419  0.5386  0.1350
 4712TIP3    H114097   0.227   6.984   4.130  0.2936  0.6728  0.8401
 4712TIP3    H214098   0.243   7.086   4.019  1.7581  0.0106  0.4315
 4713TIP3   OH214099   0.170   4.823   1.631  0.4733 -0.3861 -0.7054
 4713TIP3    H114100   0.177   4.858   1.542  0.8632 -0.2685 -0.6313
 4713TIP3    H214101   0.218   4.886   1.685 -1.0633  0.3688 -0.1822
 4714TIP3   OH214102   2.292   1.929   2.194 -0.2937  0.2995  0.1836
 4714TIP3    H114103   2.365   1.892   2.243 -0.0012 -0.1759 -0.5940
 4714TIP3    H214104   2.287   1.875   2.115 -0.4975  1.3057 -0.4940
 4715TIP3   OH214105   1.309   4.644   1.064  0.3841 -0.2264  0.3499
 4715TIP3    H114106   1.322   4.726   1.112 -1.8541  2.0779 -2.8421
 4715TIP3    H214107   1.396   4.624   1.029  0.5298  1.9202 -0.5873
 4716TIP3   OH214108   6.387   2.127   0.256  0.2894 -0.1595 -0.6717
 4716TIP3    H114109   6.294   2.147   0.248  0.1646 -0.8382 -0.9062
 4716TIP3    H214110   6.403   2.058   0.191  0.8356 -0.4377 -0.2471
 4717TIP3   OH214111   0.708   6.286   0.361 -0.0656  0.6948  0.3822
 4717TIP3    H114112   0.769   6.276   0.434  0.0966  1.9322  0.4242
 4717TIP3    H214113   0.633   6.332   0.397 -0.7344 -0.1907  0.1577
 4718TIP3   OH214114   0.822   6.170   2.076 -0.0573 -0.2952 -0.1042
 4718TIP3    H114115   0.815   6.253   2.030 -2.7152 -1.5527 -2.0891
 4718TIP3    H214116   0.894   6.125   2.034 -1.0626 -0.5307 -1.6037
 4719TIP3   OH214117   6.142   6.411   4.522  0.1935  0.1937  0.0365
 4719TIP3    H114118   6.146   6.356   4.600  0.3677 -0.4180 -0.3969
 4719TIP3    H214119   6.233   6.437   4.506  0.4610 -1.4116 -1.1691
 4720TIP3   OH214120   1.574   4.468   1.097 -0.4042 -0.2261 -0.2835
 4720TIP3    H114121   1.515   4.470   1.172 -1.4744  0.6855 -1.1255
 4720TIP3    H214122   1.651   4.516   1.126 -0.4131 -0.7091  0.5533
 4721TIP3   OH214123   7.425   5.836   3.688  0.5391 -0.1347 -0.4575
 4721TIP3    H114124   7.485   5.806   3.757 -1.5741 -1.6730  0.7785
 4721TIP3    H214125   7.391   5.755   3.649 -0.0789  0.7220 -1.7222
 4722TIP3   OH214126   1.198   6.375   1.719  0.2430  0.0375  0.2158
 4722TIP3    H114127   1.119   6.427   1.735 -0.0036  0.6839 -2.7688
 4722TIP3    H214128   1.250   6.385   1.799 -3.4939 -1.9745  3.0245
 4723TIP3   OH214129   2.571   5.672   2.257 -0.6573  0.4311  0.3135
 4723TIP3    H114130   2.621   5.754   2.256  1.6866 -0.9852 -0.2126
 4723TIP3    H214131   2.594   5.631   2.341 -0.8797 -0.2751  0.0319
 4724TIP3   OH214132   7.551   6.525   1.698  0.3846 -0.4491  0.2342
 4724TIP3    H114133   7.564   6.435   1.726 -1.1041 -0.5220  0.7534
 4724TIP3    H214134   7.522   6.518   1.607 -1.4028 -0.6278  0.7833
 4725TIP3   OH214135   7.236   6.769   2.183  0.3934 -0.0247  0.0534
 4725TIP3    H114136   7.200   6.822   2.112 -1.1111  1.3884  1.8267
 4725TIP3    H214137   7.325   6.749   2.155 -0.5862 -0.6057 -2.8193
 4726TIP3   OH214138   0.042   5.923   5.392  0.4138  0.1608  0.0056
 4726TIP3    H114139   0.101   5.898   5.320  0.2806  1.1555 -0.4448
 4726TIP3    H214140   0.047   6.018   5.395 -1.0409  0.2409  0.0837
 4727TIP3   OH214141   2.975   5.693   2.900 -0.3120  0.1221 -0.0649
 4727TIP3    H114142   3.027   5.737   2.833  0.8035  0.9272  1.2939
 4727TIP3    H214143   2.945   5.764   2.958 -0.4606 -0.6561  0.8319
 4728TIP3   OH214144   3.165   0.272   1.832 -0.1645  0.0038  0.0290
 4728TIP3    H114145   3.200   0.240   1.915  0.3315  2.2138  0.7184
 4728TIP3    H214146   3.231   0.247   1.767 -0.7288 -2.0453  0.2315
 4729TIP3   OH214147   1.574   6.235   0.565 -0.4237  0.0914  0.0726
 4729TIP3    H114148   1.640   6.189   0.513 -0.2988  0.2666  0.0775
 4729TIP3    H214149   1.522   6.165   0.604 -1.1202 -0.0326 -1.0643
 4730TIP3   OH214150   3.075   6.831   1.613  0.4363 -0.3115 -0.2252
 4730TIP3    H114151   2.988   6.819   1.650  1.7902 -1.7745  2.7359
 4730TIP3    H214152   3.111   6.907   1.659  2.2352 -2.2869  1.7902
 4731TIP3   OH214153   3.733   0.427   3.764  0.0637  0.3338  0.7378
 4731TIP3    H114154   3.800   0.380   3.714  0.1636  0.1463  1.0458
 4731TIP3    H214155   3.678   0.468   3.697  0.3986  0.3681  0.4806
 4732TIP3   OH214156   0.579   6.798   3.224 -0.1652  0.0099 -0.0740
 4732TIP3    H114157   0.571   6.710   3.188 -1.0637 -0.1364  0.4744
 4732TIP3    H214158   0.504   6.846   3.188  0.9775  0.8899 -1.3214
 4733TIP3   OH214159   3.416   0.110   3.673 -0.4592 -0.9157 -0.3072
 4733TIP3    H114160   3.321   0.105   3.662 -0.6499 -1.6806  1.4839
 4733TIP3    H214161   3.445   0.165   3.601 -2.4502  0.6501  0.0193
 4734TIP3   OH214162   2.542   5.873   2.945 -0.3089  0.2164 -0.8763
 4734TIP3    H114163   2.459   5.886   2.991  1.7235  0.8489  2.7780
 4734TIP3    H214164   2.591   5.814   3.002  2.3841  1.1421 -2.1954
 4735TIP3   OH214165   3.089   5.885   2.446 -0.0779  0.3556  0.0373
 4735TIP3    H114166   3.172   5.869   2.401  0.5154  1.1257  0.8524
 4735TIP3    H214167   3.068   5.976   2.426 -0.4469  0.3290  0.3023
 4736TIP3   OH214168   2.741   4.355   3.475 -0.1043  0.1519 -0.3724
 4736TIP3    H114169   2.727   4.450   3.469 -1.5355 -0.0564 -0.3490
 4736TIP3    H214170   2.666   4.317   3.430 -0.1276 -0.9978  0.6284
 4737TIP3   OH214171   3.319   7.073   4.746  0.2202 -0.0570 -0.0893
 4737TIP3    H114172   3.317   7.164   4.718  0.4133  0.3474  1.1875
 4737TIP3    H214173   3.236   7.061   4.793 -0.0885 -0.7184 -0.7880
 4738TIP3   OH214174   2.888   5.692   0.367 -0.0397  0.0409 -0.1292
 4738TIP3    H114175   2.959   5.717   0.308 -1.5157  2.2774 -1.0049
 4738TIP3    H214176   2.890   5.596   0.367  0.5397  0.0059 -3.1263
 4739TIP3   OH214177   2.464   6.989   4.620 -0.1462  0.1058  0.2380
 4739TIP3    H114178   2.539   6.929   4.615  0.6567  0.9657  1.3450
 4739TIP3    H214179   2.415   6.975   4.539  0.6628 -1.2055 -0.0335
 4740TIP3   OH214180   3.249   0.267   2.112  0.3059  0.5430 -0.8215
 4740TIP3    H114181   3.187   0.194   2.120 -0.3651  1.0705 -1.1256
 4740TIP3    H214182   3.229   0.324   2.187 -0.4740  1.3738 -1.6427
 4741TIP3   OH214183   4.513   0.417   2.765  0.3198  0.3486  0.5635
 4741TIP3    H114184   4.505   0.356   2.691 -1.2775  1.1533  0.0610
 4741TIP3    H214185   4.527   0.503   2.724 -1.6187  0.9653  1.1409
 4742TIP3   OH214186   4.517   0.042   3.713 -0.4605 -0.5152  0.3290
 4742TIP3    H114187   4.498  -0.018   3.641 -0.2718 -0.3580  0.1479
 4742TIP3    H214188   4.609   0.025   3.734 -0.7317 -1.1032  1.0404
 4743TIP3   OH214189   0.668   5.656   0.688 -0.5686 -0.0632  0.0014
 4743TIP3    H114190   0.608   5.636   0.616  1.3711  0.5016 -1.8314
 4743TIP3    H214191   0.680   5.751   0.684  0.6677 -0.1995  0.1491
 4744TIP3   OH214192   1.153   6.475   2.120 -0.1483 -0.2029 -0.1949
 4744TIP3    H114193   1.183   6.436   2.202  1.4783  0.5460 -0.4193
 4744TIP3    H214194   1.214   6.547   2.104 -0.6025 -0.1934 -1.9443
 4745TIP3   OH214195   1.520   4.386   2.758  0.1877 -0.1110  0.2215
 4745TIP3    H114196   1.450   4.379   2.693  0.9353 -2.0727 -0.4007
 4745TIP3    H214197   1.570   4.305   2.749  1.9287  0.7956  1.3825
 4746TIP3   OH214198   0.452   6.345   0.450 -0.3439  0.1574  0.1623
 4746TIP3    H114199   0.421   6.304   0.369 -0.6840  0.0086  0.3620
 4746TIP3    H214200   0.372   6.381   0.490  0.0651  1.7121 -0.4033
 4747TIP3   OH214201   7.358   5.786   2.698 -0.6679  0.3071  0.1824
 4747TIP3    H114202   7.317   5.709   2.736 -2.1651  0.4250 -1.1468
 4747TIP3    H214203   7.379   5.842   2.773 -3.9309  0.7409  0.8583
 4748TIP3   OH214204   0.461   5.977   1.912  0.4870 -0.3292 -0.0733
 4748TIP3    H114205   0.438   6.057   1.958  0.9546 -0.4296  0.3351
 4748TIP3    H214206   0.380   5.925   1.913  0.4697 -0.2891  0.5394
 4749TIP3   OH214207   3.005   5.632   1.924  0.1512 -0.4550 -0.2311
 4749TIP3    H114208   2.928   5.577   1.909 -0.4936  0.6125 -0.8818
 4749TIP3    H214209   3.024   5.622   2.017 -1.5991  0.3426  0.2356
 4750TIP3   OH214210   2.110   0.579   2.302 -0.3558 -0.4915  0.2498
 4750TIP3    H114211   2.201   0.603   2.286 -0.7387  0.8806  0.0356
 4750TIP3    H214212   2.113   0.523   2.380  0.3967  1.8599  1.9526
 4751TIP3   OH214213   1.556   1.519   1.616  0.0176 -0.2023 -0.1017
 4751TIP3    H114214   1.563   1.487   1.706  1.9738 -0.1707 -0.2316
 4751TIP3    H214215   1.469   1.490   1.588 -0.8156  0.1864  1.9332
 4752TIP3   OH214216   4.377   5.406   3.581 -0.3489 -0.0691  0.0307
 4752TIP3    H114217   4.469   5.406   3.608 -1.3580  0.2200  3.7703
 4752TIP3    H214218   4.359   5.314   3.559  0.7864 -0.1524 -0.5914
 4753TIP3   OH214219   1.510   6.984   4.365 -0.2861  0.3644  0.3058
 4753TIP3    H114220   1.561   7.036   4.303  0.4880 -0.3632  0.3174
 4753TIP3    H214221   1.427   6.967   4.320 -0.8002  2.1616  0.5736
 4754TIP3   OH214222   2.414   1.130   3.002 -0.9727 -0.3867  0.3070
 4754TIP3    H114223   2.485   1.188   3.031  0.0379 -0.5597 -1.7683
 4754TIP3    H214224   2.447   1.042   3.018 -2.0215 -0.4475  2.3106
 4755TIP3   OH214225   1.786   6.830   0.627  0.2171 -0.5676 -0.7990
 4755TIP3    H114226   1.857   6.816   0.565  1.8506  0.9932  0.6909
 4755TIP3    H214227   1.815   6.787   0.707  0.2301  1.4850  0.3237
 4756TIP3   OH214228   0.658   7.104   1.171  0.1367 -0.1158  0.1596
 4756TIP3    H114229   0.617   7.102   1.084 -0.1471 -3.0158  0.3022
 4756TIP3    H214230   0.750   7.121   1.154 -0.4455  2.7751 -0.4250
 4757TIP3   OH214231   6.359   2.411   6.349 -0.2619 -0.0931  0.0516
 4757TIP3    H114232   6.315   2.327   6.364  0.5492 -0.5580 -0.1096
 4757TIP3    H214233   6.394   2.404   6.261 -1.1986  0.8855 -0.3974
 4758TIP3   OH214234   2.048   6.129   0.798  0.1849 -0.1266 -0.0176
 4758TIP3    H114235   2.025   6.100   0.887  1.5616 -0.9506  0.0891
 4758TIP3    H214236   2.104   6.206   0.812 -0.0165  0.0489 -0.1829
 4759TIP3   OH214237   2.247   6.864   2.418 -0.2826  0.1410 -0.6758
 4759TIP3    H114238   2.152   6.865   2.435 -0.3531 -1.0370 -0.9236
 4759TIP3    H214239   2.269   6.955   2.401 -1.4714  0.3687 -1.0952
 4760TIP3   OH214240   0.975   6.946   2.971 -0.4895  0.6248 -0.0967
 4760TIP3    H114241   0.904   6.994   3.014  0.2465  1.3147  0.3723
 4760TIP3    H214242   0.959   6.854   2.992 -2.4559  0.5518 -1.7964
 4761TIP3   OH214243   0.337   7.082   2.665  0.4608  0.1714 -0.0123
 4761TIP3    H114244   0.304   6.995   2.688 -0.4503  0.5899  0.2841
 4761TIP3    H214245   0.329   7.132   2.746 -0.7648  1.0500 -0.6553
 4762TIP3   OH214246   7.492   5.959   1.037 -0.2107 -0.4553  0.0984
 4762TIP3    H114247   7.571   5.909   1.059 -0.4635 -1.0446 -0.3236
 4762TIP3    H214248   7.518   6.012   0.961  0.5340  1.2619  1.5177
 4763TIP3   OH214249   4.362   2.852   1.748 -0.2557 -0.6981 -0.1073
 4763TIP3    H114250   4.381   2.848   1.842 -1.0914  0.1701  0.1093
 4763TIP3    H214251   4.448   2.847   1.706  0.4039  1.7643  0.8107
 4764TIP3   OH214252   3.132   7.085   1.733  0.1328 -0.1968  0.0795
 4764TIP3    H114253   3.059   7.136   1.770 -0.0847 -0.2065 -0.3395
 4764TIP3    H214254   3.190   7.150   1.695 -1.3576 -0.4021 -2.6508
 4765TIP3   OH214255   3.268   0.911   0.266  0.1870 -0.0285 -0.2230
 4765TIP3    H114256   3.340   0.849   0.276 -1.1412 -1.7119 -0.9295
 4765TIP3    H214257   3.258   0.922   0.171 -0.3196  0.4128 -0.1216
 4766TIP3   OH214258   7.717   3.205   6.182 -0.1784 -0.4750  0.0490
 4766TIP3    H114259   7.703   3.110   6.186 -0.5634 -0.4199  0.0147
 4766TIP3    H214260   7.703   3.235   6.271 -2.6644 -0.0952 -0.4119
 4767TIP3   OH214261   2.424   6.522   3.916 -0.5233  0.4974  0.0192
 4767TIP3    H114262   2.456   6.583   3.850 -0.5092  1.3032  0.7621
 4767TIP3    H214263   2.334   6.550   3.932  0.3436  2.1059  2.3828
 4768TIP3   OH214264   1.814   5.983   0.213  0.4248 -0.4934 -0.2935
 4768TIP3    H114265   1.804   5.891   0.191  0.6875 -0.4064 -0.7817
 4768TIP3    H214266   1.859   6.021   0.138 -0.8002  0.2883 -0.6557
 4769TIP3   OH214267   1.424   6.356   3.386 -0.7427 -0.2103 -0.2226
 4769TIP3    H114268   1.431   6.376   3.292  0.8828  1.1938  0.1646
 4769TIP3    H214269   1.380   6.432   3.424 -1.9714 -1.0557  0.0833
 4770TIP3   OH214270   4.240   1.254   2.031  0.3876  0.1388 -0.0605
 4770TIP3    H114271   4.263   1.255   2.124 -0.2436 -1.7736  0.1410
 4770TIP3    H214272   4.154   1.295   2.027  0.5358  0.4681  0.1720
 4771TIP3   OH214273   0.159   6.982   4.405 -0.1394  0.0002 -0.5612
 4771TIP3    H114274   0.176   7.057   4.348 -2.9679  0.4150 -0.9568
 4771TIP3    H214275   0.220   6.992   4.477  0.4245  1.9696 -1.2738
 4772TIP3   OH214276   3.557   5.519   4.139  0.6203 -0.0459 -0.2877
 4772TIP3    H114277   3.486   5.514   4.203  0.0056 -0.7137 -1.0162
 4772TIP3    H214278   3.627   5.465   4.176 -0.8010 -2.7720 -1.5333
 4773TIP3   OH214279   7.272   2.875   6.096 -0.7549 -0.2766 -0.2578
 4773TIP3    H114280   7.345   2.936   6.105  0.5636 -2.1091  2.0904
 4773TIP3    H214281   7.198   2.930   6.071  1.1420  1.7791 -1.5709
 4774TIP3   OH214282   3.298   4.614   3.766 -0.2028 -0.1233  0.1684
 4774TIP3    H114283   3.321   4.588   3.676  1.0437 -2.9668  1.2416
 4774TIP3    H214284   3.225   4.557   3.789 -0.2402  0.2947  1.0915
 4775TIP3   OH214285   6.299   0.662   4.503  0.0565 -0.0287 -0.5255
 4775TIP3    H114286   6.247   0.582   4.515  1.9406 -1.0561  1.1053
 4775TIP3    H214287   6.341   0.650   4.418 -1.4304  0.2668 -1.3126
 4776TIP3   OH214288   0.726   7.343   0.795 -0.1065 -0.1281 -0.7771
 4776TIP3    H114289   0.650   7.287   0.813 -0.2521  1.0832  2.8642
 4776TIP3    H214290   0.802   7.285   0.804 -0.3377 -0.1284  1.4763
 4777TIP3   OH214291   3.802   6.874   3.081 -0.5351  0.1070 -0.3032
 4777TIP3    H114292   3.808   6.781   3.059 -0.5617 -0.4200  1.8230
 4777TIP3    H214293   3.712   6.898   3.059  0.2838  0.3931 -3.5827
 4778TIP3   OH214294   2.717   5.746   3.721 -0.0913 -0.1798 -0.3160
 4778TIP3    H114295   2.806   5.715   3.738 -0.3339 -0.9228 -0.3738
 4778TIP3    H214296   2.662   5.668   3.734 -0.7322  0.2826 -0.2527
 4779TIP3   OH214297   7.217   3.196   5.281 -0.2686  0.3721 -0.3682
 4779TIP3    H114298   7.248   3.174   5.193  1.2695  0.0077  0.2477
 4779TIP3    H214299   7.285   3.253   5.317 -1.4498  1.4818  0.1672
 4780TIP3   OH214300   3.290   7.262   1.277  0.0041  0.5632  0.3498
 4780TIP3    H114301   3.363   7.261   1.340 -0.2432  1.8491  0.6741
 4780TIP3    H214302   3.266   7.170   1.267  1.1912  0.1896  0.8094
 4781TIP3   OH214303   0.295   4.110   5.894  0.8474 -0.0852 -0.0562
 4781TIP3    H114304   0.325   4.123   5.984 -0.4556 -1.4887  0.6099
 4781TIP3    H214305   0.341   4.031   5.864 -1.6105 -1.8970  0.7622
 4782TIP3   OH214306   3.960   0.343   2.052  0.3390 -0.4220 -0.1791
 4782TIP3    H114307   3.932   0.254   2.068 -0.0336 -0.2343  0.2111
 4782TIP3    H214308   3.882   0.396   2.066  0.6879  0.0205  0.1254
 4783TIP3   OH214309   0.886   6.677   3.059 -0.7165  0.4421 -0.1556
 4783TIP3    H114310   0.795   6.649   3.059 -0.2553 -1.1264  0.1802
 4783TIP3    H214311   0.936   6.599   3.036  0.6133  1.0181  0.6658
 4784TIP3   OH214312   2.497   6.178   0.879 -0.0709 -0.1800 -0.0030
 4784TIP3    H114313   2.544   6.134   0.808 -1.3776  0.2196 -1.1512
 4784TIP3    H214314   2.435   6.236   0.834  0.1335  1.2261  1.4761
 4785TIP3   OH214315   2.237   5.933   2.210 -0.0525 -0.1174  0.2837
 4785TIP3    H114316   2.147   5.908   2.228  0.5239 -1.0375  2.0247
 4785TIP3    H214317   2.279   5.937   2.296  1.1060  2.1700 -0.3284
 4786TIP3   OH214318   2.365   6.775   2.053 -0.0517  0.1040  0.0713
 4786TIP3    H114319   2.401   6.726   1.979 -1.1970 -0.6424 -0.0066
 4786TIP3    H214320   2.271   6.780   2.035  0.0606  2.5037 -0.0044
 4787TIP3   OH214321   2.443   7.290   3.226  0.0118  0.1749  0.6564
 4787TIP3    H114322   2.379   7.352   3.191  0.7336  0.5747  0.0120
 4787TIP3    H214323   2.505   7.344   3.274  0.1340 -0.1548  0.8729
 4788TIP3   OH214324   3.041   3.592   2.538 -0.3100 -0.4505  0.0174
 4788TIP3    H114325   3.013   3.623   2.452 -1.8168 -1.3239  0.1700
 4788TIP3    H214326   3.058   3.672   2.588  1.6010  0.0504 -1.4052
 4789TIP3   OH214327   3.647   0.655   0.622 -0.0005  0.0825 -0.0138
 4789TIP3    H114328   3.587   0.586   0.596  0.6426 -0.9590  1.2144
 4789TIP3    H214329   3.598   0.708   0.684  0.4007 -0.8576  1.1074
 4790TIP3   OH214330   6.663   6.414   2.433  0.1384  0.1089  0.3059
 4790TIP3    H114331   6.698   6.476   2.369 -1.1123  0.3683 -0.1487
 4790TIP3    H214332   6.700   6.441   2.516  2.0460 -0.4245 -0.3484
 4791TIP3   OH214333   3.430   5.469   3.896  0.7085 -0.3539  0.1714
 4791TIP3    H114334   3.477   5.485   3.978 -0.3981  2.9696  0.2030
 4791TIP3    H214335   3.338   5.484   3.918  0.3522  0.0548 -1.5417
 4792TIP3   OH214336   1.784   6.932   2.039 -0.1751 -0.4112 -0.5105
 4792TIP3    H114337   1.778   6.837   2.030 -0.9383 -0.2847 -1.4465
 4792TIP3    H214338   1.700   6.965   2.005 -0.6077  0.4980  1.3738
 4793TIP3   OH214339   1.448   5.621   0.794  0.1019 -0.0818 -0.0083
 4793TIP3    H114340   1.494   5.537   0.799 -0.3114 -0.2609  0.7899
 4793TIP3    H214341   1.517   5.687   0.801  0.8058 -0.3111 -3.6497
 4794TIP3   OH214342   4.144   0.069   4.638  0.1903  0.4446  0.0513
 4794TIP3    H114343   4.225   0.074   4.587 -0.6195 -0.0790 -1.3245
 4794TIP3    H214344   4.086   0.135   4.599 -1.9991 -2.8776 -2.6433
 4795TIP3   OH214345   6.059   3.662   6.248  0.7922  0.1838  0.1088
 4795TIP3    H114346   6.047   3.643   6.341 -3.1706  2.0083  0.0510
 4795TIP3    H214347   6.015   3.590   6.203  0.4433  0.6730 -0.3299
 4796TIP3   OH214348   1.533   5.125   1.593 -0.1831  0.6370  1.0075
 4796TIP3    H114349   1.520   5.051   1.652 -2.7012  1.1340  1.1235
 4796TIP3    H214350   1.613   5.167   1.625 -0.6239 -0.0503  3.0600
 4797TIP3   OH214351   3.256   6.028   4.783  0.0484  0.4061  0.0913
 4797TIP3    H114352   3.196   6.101   4.798 -0.2697  0.1743 -0.0459
 4797TIP3    H214353   3.214   5.953   4.825 -1.4998 -0.5433 -3.0202
 4798TIP3   OH214354   2.673   7.312   2.273  0.2268 -0.0127  0.5107
 4798TIP3    H114355   2.590   7.331   2.229  0.2049  0.7399  0.8619
 4798TIP3    H214356   2.718   7.251   2.214 -1.2802 -1.7583  1.1244
 4799TIP3   OH214357   2.590   6.232   1.996  0.2140  0.2277 -0.2248
 4799TIP3    H114358   2.530   6.158   1.990 -2.8239  2.5606 -0.0036
 4799TIP3    H214359   2.662   6.201   2.051 -1.7981 -2.0401  1.1987
 4800TIP3   OH214360   3.732   0.087   0.845  0.2546 -0.0622 -0.8700
 4800TIP3    H114361   3.638   0.102   0.837  0.2489  0.2372 -0.2777
 4800TIP3    H214362   3.739  -0.008   0.859 -0.1946  0.3044  2.2177
 4801TIP3   OH214363   1.221   7.383   1.487  0.4071  0.3581 -0.0225
 4801TIP3    H114364   1.242   7.373   1.394  1.3392  1.9769  0.0011
 4801TIP3    H214365   1.243   7.298   1.525 -0.5448 -0.5121 -1.3739
 4802TIP3   OH214366   0.902   6.486   4.317  0.3674 -0.3541 -0.1921
 4802TIP3    H114367   0.928   6.524   4.401  1.1124 -0.6487 -0.2894
 4802TIP3    H214368   0.886   6.562   4.260  0.0182 -0.1589  0.1622
 4803TIP3   OH214369   7.547   6.798   5.490 -0.3169 -0.2186 -0.1868
 4803TIP3    H114370   7.570   6.868   5.551  4.2090  0.0402 -1.9839
 4803TIP3    H214371   7.514   6.845   5.413  0.9824 -0.1049 -0.6916
 4804TIP3   OH214372   6.464   0.039   4.912  0.1234 -0.0557 -0.2990
 4804TIP3    H114373   6.380  -0.003   4.892  1.1595 -2.1030 -0.4365
 4804TIP3    H214374   6.439   0.126   4.945 -1.9471  0.1975 -2.3868
 4805TIP3   OH214375   1.568   3.304   6.249  0.4252  0.4882 -0.1239
 4805TIP3    H114376   1.655   3.266   6.237  0.3074  0.8648 -2.5261
 4805TIP3    H214377   1.583   3.398   6.253 -0.0336  0.7877 -3.3688
 4806TIP3   OH214378   1.588   5.430   6.223  0.3062  0.6108  0.5520
 4806TIP3    H114379   1.517   5.425   6.286 -0.7694 -0.8657 -0.7489
 4806TIP3    H214380   1.658   5.376   6.260  0.1972  0.8481  1.1074
 4807TIP3   OH214381   4.271   1.988   0.460 -0.6929  0.1415  0.2130
 4807TIP3    H114382   4.337   1.940   0.510 -0.4460  0.6739  0.4013
 4807TIP3    H214383   4.276   1.950   0.372 -0.9742 -0.6437  0.5294
 4808TIP3   OH214384   0.343   1.965   0.923 -0.0731  0.0765 -0.0883
 4808TIP3    H114385   0.339   1.875   0.890 -2.6693  0.6806 -1.5243
 4808TIP3    H214386   0.321   1.958   1.016 -0.7235 -0.7128 -0.3007
 4809TIP3   OH214387   4.376   6.283   3.294 -0.0233 -0.5932 -0.3070
 4809TIP3    H114388   4.353   6.282   3.387  2.0610 -1.7172  0.2310
 4809TIP3    H214389   4.427   6.203   3.281 -0.0376 -0.2989 -2.3652
 4810TIP3   OH214390   3.395   7.137   0.664  0.5691  0.1230  0.1200
 4810TIP3    H114391   3.465   7.100   0.717  0.0180  1.7407  2.0681
 4810TIP3    H214392   3.370   7.217   0.711 -0.9893  0.7853 -1.7841
 4811TIP3   OH214393   4.550   5.941   2.945  0.6129  0.1451  0.1135
 4811TIP3    H114394   4.559   6.027   2.984 -0.5535  1.0511 -1.5268
 4811TIP3    H214395   4.582   5.952   2.855  1.2472 -1.3452  0.1427
 4812TIP3   OH214396   5.979   0.582   0.988  0.6079 -0.3421  0.0326
 4812TIP3    H114397   6.026   0.608   1.067  3.3149 -1.2441 -1.1839
 4812TIP3    H214398   5.927   0.506   1.015 -1.0728  1.3464  1.6760
 4813TIP3   OH214399   4.207   0.287   1.573  0.6758 -0.2364  0.8190
 4813TIP3    H114400   4.181   0.326   1.656 -0.8814 -0.0853  0.2712
 4813TIP3    H214401   4.140   0.315   1.511  1.5937 -0.6940 -0.3977
 4814TIP3   OH214402   6.028   0.690   2.183 -0.0912  0.4153 -0.0756
 4814TIP3    H114403   6.065   0.713   2.268  0.3388  1.4032 -0.5385
 4814TIP3    H214404   6.100   0.699   2.121  0.0405 -1.9189 -0.3132
 4815TIP3   OH214405   2.507   7.115   2.574 -0.0653  0.3077  0.4758
 4815TIP3    H114406   2.601   7.101   2.582  0.0892  1.1186  0.1308
 4815TIP3    H214407   2.469   7.060   2.643  0.5757 -0.9224 -0.1334
 4816TIP3   OH214408   2.690   5.655   2.777 -0.0693 -0.8308 -0.3188
 4816TIP3    H114409   2.648   5.737   2.805  0.0487 -0.5992 -0.8111
 4816TIP3    H214410   2.772   5.652   2.826  0.3762 -0.1744 -1.0011
 4817TIP3   OH214411   5.773   0.393   2.658  0.3314  0.1440 -0.3037
 4817TIP3    H114412   5.780   0.485   2.682  1.2995  0.1278 -0.5051
 4817TIP3    H214413   5.744   0.394   2.567 -1.4460  0.2225  0.2460
 4818TIP3   OH214414   1.416   3.705   3.380  0.3281  0.1973 -0.8783
 4818TIP3    H114415   1.443   3.710   3.288 -0.3387 -0.3997 -1.1123
 4818TIP3    H214416   1.343   3.643   3.380 -1.1520  1.8589 -0.3106
 4819TIP3   OH214417   3.721   7.080   2.192 -0.3280 -0.1563  0.1394
 4819TIP3    H114418   3.791   7.145   2.198  0.9683 -1.2754 -2.1623
 4819TIP3    H214419   3.686   7.075   2.281  0.9914  2.0795  0.8396
 4820TIP3   OH214420   6.958   2.029   2.931  0.4833  0.7117  0.4136
 4820TIP3    H114421   6.942   2.048   3.023 -1.1551  0.3738  0.2109
 4820TIP3    H214422   6.978   1.936   2.928  1.2304  0.8624  0.4979
 4821TIP3   OH214423   3.462   7.207   0.941 -0.6582  0.4167  0.0587
 4821TIP3    H114424   3.479   7.196   1.035  1.6185 -0.4958 -0.4107
 4821TIP3    H214425   3.507   7.133   0.900 -0.0923  1.7809 -1.8753
 4822TIP3   OH214426   6.046   1.415   2.773  0.1967  0.4017 -0.3087
 4822TIP3    H114427   6.127   1.444   2.815  1.4360 -0.4959 -2.0415
 4822TIP3    H214428   5.986   1.489   2.786  0.8942  0.6015  2.0140
 4823TIP3   OH214429   0.888   3.018   5.976 -0.0586 -0.0431 -0.1173
 4823TIP3    H114430   0.906   3.109   5.998 -0.7594  0.5997 -2.0776
 4823TIP3    H214431   0.797   3.005   6.001  0.0960 -0.2624  0.3327
 4824TIP3   OH214432   4.645   1.278   4.824 -0.3739  0.1345 -0.0096
 4824TIP3    H114433   4.641   1.190   4.787  2.9123 -0.3738  0.6561
 4824TIP3    H214434   4.687   1.330   4.756 -1.1214  0.8986  0.1098
 4825TIP3   OH214435   7.268   5.883   4.872 -0.1353  0.0838  0.2329
 4825TIP3    H114436   7.212   5.917   4.941 -0.4300 -2.2773  1.1796
 4825TIP3    H214437   7.243   5.791   4.863  1.3929 -0.1962 -1.5139
 4826TIP3   OH214438   4.897   0.568   2.019  0.0529 -0.1949 -0.2317
 4826TIP3    H114439   4.893   0.658   2.051  1.8159  0.4871 -1.8520
 4826TIP3    H214440   4.980   0.534   2.053 -0.5351 -1.1690  0.2470
 4827TIP3   OH214441   5.025   0.760   1.454  0.5076  0.0343 -0.7010
 4827TIP3    H114442   4.953   0.822   1.444  0.1058 -0.3056  0.0503
 4827TIP3    H214443   5.081   0.798   1.522  1.0160  0.2691 -1.2396
 4828TIP3   OH214444   3.362   5.424   6.046  0.1722 -0.5294 -0.1532
 4828TIP3    H114445   3.359   5.329   6.041  0.1687 -0.6094  1.3677
 4828TIP3    H214446   3.323   5.445   6.131  2.2198  0.7256  0.4886
 4829TIP3   OH214447   2.171   5.453   1.994 -0.4920  0.0617 -0.4057
 4829TIP3    H114448   2.220   5.493   1.922 -1.4453  1.6327 -0.1986
 4829TIP3    H214449   2.189   5.509   2.070 -0.6879 -0.7323  0.2384
 4830TIP3   OH214450   1.077   5.132   0.711 -0.2796 -0.3800 -0.1516
 4830TIP3    H114451   1.032   5.158   0.630 -2.3470 -0.4908  0.9307
 4830TIP3    H214452   1.148   5.074   0.681 -0.2797  0.5300 -1.9670
 4831TIP3   OH214453   4.183   0.645   1.730  0.0472  0.3256 -0.2139
 4831TIP3    H114454   4.250   0.679   1.790  0.6074 -0.7044 -0.2468
 4831TIP3    H214455   4.157   0.561   1.768  0.9235 -0.6771 -1.7840
 4832TIP3   OH214456   0.628   6.852   1.284  0.1115 -0.1446 -0.5774
 4832TIP3    H114457   0.682   6.804   1.221  0.1325  1.3055 -1.6937
 4832TIP3    H214458   0.619   6.939   1.247 -1.8551  0.0576  0.2808
 4833TIP3   OH214459   4.257   5.981   4.364 -0.0613  0.0929  0.5160
 4833TIP3    H114460   4.220   5.907   4.413 -2.3889  2.1666  1.9864
 4833TIP3    H214461   4.215   5.976   4.278  1.2938 -1.4123 -0.0986
 4834TIP3   OH214462   2.527   5.955   1.541  0.2606 -0.4370 -0.2981
 4834TIP3    H114463   2.535   6.001   1.624  0.3544  0.3786 -0.7493
 4834TIP3    H214464   2.617   5.938   1.513  0.2099 -1.5617  0.2323
 4835TIP3   OH214465   4.044   0.798   0.589 -0.4974  0.4274  0.2780
 4835TIP3    H114466   4.038   0.892   0.577 -1.5060  0.2522 -0.6652
 4835TIP3    H214467   4.136   0.777   0.576 -0.4690  1.1310 -0.6278
 4836TIP3   OH214468   7.001   0.013   2.542 -0.4271 -0.1807 -0.4647
 4836TIP3    H114469   7.049   0.082   2.589 -3.7299  3.4658 -2.1653
 4836TIP3    H214470   6.966  -0.043   2.611  0.3389  1.1937  1.0756
 4837TIP3   OH214471   1.106   2.854   4.359  0.4368 -0.5321 -0.2127
 4837TIP3    H114472   1.146   2.770   4.380  0.0598 -0.4747  0.7647
 4837TIP3    H214473   1.164   2.919   4.399 -0.1830 -0.4098  0.4915
 4838TIP3   OH214474   2.054   5.346   2.820  0.2371 -0.1987  0.4640
 4838TIP3    H114475   1.966   5.329   2.789  1.1977 -0.9738 -1.9848
 4838TIP3    H214476   2.092   5.259   2.836  0.6917  0.1097  1.1045
 4839TIP3   OH214477   6.284   4.901   1.288 -0.0328  0.3489  0.6491
 4839TIP3    H114478   6.207   4.898   1.231 -0.0939 -0.5334  0.7723
 4839TIP3    H214479   6.256   4.858   1.369  1.2570 -2.0046 -0.1244
 4840TIP3   OH214480   3.024   6.436   1.928 -0.0180  0.4589 -0.6125
 4840TIP3    H114481   3.050   6.507   1.870 -2.5334  3.5028  1.8278
 4840TIP3    H214482   2.941   6.405   1.893  0.6097 -0.7064 -1.1168
 4841TIP3   OH214483   5.897   1.235   1.076 -0.1768 -0.5709 -0.1171
 4841TIP3    H114484   5.954   1.163   1.048 -1.3687 -1.8362  0.6253
 4841TIP3    H214485   5.808   1.201   1.063 -0.7531  0.8180  0.1469
 4842TIP3   OH214486   6.704   3.628   5.732 -0.2979  0.3518 -0.4764
 4842TIP3    H114487   6.688   3.614   5.639 -0.8372  0.3133 -0.3778
 4842TIP3    H214488   6.619   3.652   5.768 -0.2349 -0.3103  0.1295
 4843TIP3   OH214489   1.631   4.513   1.534 -0.3523 -0.0985 -0.4593
 4843TIP3    H114490   1.596   4.536   1.620  1.0712  0.1475  0.0666
 4843TIP3    H214491   1.676   4.430   1.548  0.8224  0.4926 -0.7247
 4844TIP3   OH214492   5.702   0.398   2.364 -0.5635 -0.2612  0.3071
 4844TIP3    H114493   5.717   0.448   2.284 -1.3809  0.8498  0.8420
 4844TIP3    H214494   5.734   0.310   2.343 -0.4206  0.1111 -1.1081
 4845TIP3   OH214495   2.535   7.273   1.833 -0.4271  0.1452  0.4314
 4845TIP3    H114496   2.570   7.328   1.903 -1.6989  0.8282  0.5374
 4845TIP3    H214497   2.588   7.295   1.756 -0.0862  0.5617  0.7861
 4846TIP3   OH214498   0.278   0.598   1.417 -0.1279 -0.3699  0.2350
 4846TIP3    H114499   0.236   0.596   1.503 -1.5717  1.4700 -0.4085
 4846TIP3    H214500   0.270   0.508   1.385 -0.8187 -0.7472  1.4211
 4847TIP3   OH214501   1.085   6.166   2.394 -0.4618  0.4919  0.1318
 4847TIP3    H114502   1.157   6.129   2.343 -0.4174  0.7552  0.0024
 4847TIP3    H214503   1.006   6.134   2.351 -0.4274 -1.2318  1.3186
 4848TIP3   OH214504   6.100   2.722   4.939 -0.4532 -0.1609  0.3778
 4848TIP3    H114505   6.085   2.739   4.846 -1.1034 -1.7288  0.1782
 4848TIP3    H214506   6.037   2.777   4.985 -0.9579 -0.2898 -0.1633
 4849TIP3   OH214507   3.930   6.554   5.103 -0.4324  0.3406 -0.2485
 4849TIP3    H114508   3.950   6.597   5.186  1.4843 -0.8005 -0.0969
 4849TIP3    H214509   3.866   6.487   5.125 -1.2453  1.2012  0.0128
 4850TIP3   OH214510   4.694   3.249   3.022  0.3001  0.0004 -0.3330
 4850TIP3    H114511   4.671   3.236   2.930  0.2661 -1.2244 -0.1586
 4850TIP3    H214512   4.669   3.339   3.041  2.7271  1.1298 -2.2497
 4851TIP3   OH214513   2.477   6.488   1.497  0.2763 -0.5203 -0.3502
 4851TIP3    H114514   2.557   6.519   1.539  1.0629 -1.4593 -1.1110
 4851TIP3    H214515   2.456   6.555   1.432  0.9032 -0.6590 -0.6992
 4852TIP3   OH214516   2.059   6.960   3.386  0.7647  0.5134 -0.2852
 4852TIP3    H114517   2.101   6.965   3.472  0.3778  0.3778 -0.0861
 4852TIP3    H214518   1.982   7.016   3.394  1.3961  1.4785 -0.9321
 4853TIP3   OH214519   5.438   1.308   5.245 -0.4759 -0.2992  0.1053
 4853TIP3    H114520   5.462   1.358   5.323  2.0894 -0.1991 -0.6978
 4853TIP3    H214521   5.498   1.234   5.244 -1.9526 -1.5087 -0.5955
 4854TIP3   OH214522   3.257   7.173   3.752 -0.1987 -0.3904 -0.4109
 4854TIP3    H114523   3.302   7.240   3.700  0.8272 -1.4181 -0.8746
 4854TIP3    H214524   3.294   7.182   3.839 -0.0586 -0.3519 -0.4737
 4855TIP3   OH214525   1.959   6.019   3.809 -0.5860 -0.3218 -0.4789
 4855TIP3    H114526   1.971   6.113   3.821  1.2708 -0.5615 -0.4010
 4855TIP3    H214527   1.927   5.989   3.894 -1.7670  0.3108 -0.6801
 4856TIP3   OH214528   5.486   0.476   1.608  0.5668 -0.1179  0.5003
 4856TIP3    H114529   5.416   0.462   1.671  2.2858 -0.5462  2.3692
 4856TIP3    H214530   5.484   0.399   1.551  1.1138 -1.3739  2.1309
 4857TIP3   OH214531   2.324   5.657   4.932  0.7312  0.2113  0.4773
 4857TIP3    H114532   2.305   5.581   4.876  0.4227  0.3515  0.3890
 4857TIP3    H214533   2.247   5.714   4.922  1.2709  0.8674 -0.0114
 4858TIP3   OH214534   4.186   0.366   3.463 -0.2864  0.0331 -0.6222
 4858TIP3    H114535   4.237   0.440   3.430 -0.6226  1.2988  1.5776
 4858TIP3    H214536   4.245   0.291   3.456  0.0949  0.4847 -2.7850
 4859TIP3   OH214537   7.111   1.235   1.028  0.2887  0.5592  0.1036
 4859TIP3    H114538   7.129   1.201   0.941 -0.3175 -0.0385  0.2120
 4859TIP3    H214539   7.099   1.329   1.015 -3.1677  0.0366 -1.0026
 4860TIP3   OH214540   6.614   2.253   1.324  0.6357 -0.3194 -0.5507
 4860TIP3    H114541   6.658   2.169   1.313  0.4780 -0.2217 -1.9848
 4860TIP3    H214542   6.575   2.272   1.238 -0.1010  0.7772  0.0070
 4861TIP3   OH214543   3.299   7.277   1.635 -0.6435  0.1094  0.0784
 4861TIP3    H114544   3.224   7.329   1.608 -1.3563 -1.8744 -1.9025
 4861TIP3    H214545   3.317   7.219   1.560  1.0561 -1.4289  1.6124
 4862TIP3   OH214546   5.096   0.150   2.914 -0.1548 -0.4631  0.0437
 4862TIP3    H114547   5.086   0.245   2.906 -1.0254 -0.4754  0.8539
 4862TIP3    H214548   5.044   0.114   2.843 -1.4291 -0.3778  0.9187
 4863TIP3   OH214549   6.730   0.290   4.739  0.6399 -0.0930 -0.4406
 4863TIP3    H114550   6.684   0.228   4.796 -1.2317  1.8995  0.2793
 4863TIP3    H214551   6.662   0.327   4.683  1.3964  2.4510  0.2254
 4864TIP3   OH214552   6.543   0.613   4.322 -0.1001  0.1303 -0.0874
 4864TIP3    H114553   6.612   0.599   4.258  0.4915  0.7150  0.4151
 4864TIP3    H214554   6.534   0.708   4.327  0.4598  0.1260  1.3220
 4865TIP3   OH214555   6.891   1.830   2.084 -0.6771  0.0063 -0.1887
 4865TIP3    H114556   6.850   1.916   2.095  0.0194  0.6185 -2.2198
 4865TIP3    H214557   6.953   1.842   2.013  1.2935 -1.5297  1.2197
 4866TIP3   OH214558   5.052   2.096   3.638  0.5114  0.3418  0.4541
 4866TIP3    H114559   5.071   2.139   3.721 -0.4203  0.6492  0.5122
 4866TIP3    H214560   4.967   2.055   3.650  0.6535 -0.1478 -0.1442
 4867TIP3   OH214561   5.309   2.249   2.110 -0.6955  0.2830 -0.0012
 4867TIP3    H114562   5.243   2.199   2.159 -0.3312  0.5241  0.7384
 4867TIP3    H214563   5.285   2.340   2.124  0.6095  0.4208  1.4346
 4868TIP3   OH214564   3.646   6.368   0.158 -0.3238 -0.4935 -0.5277
 4868TIP3    H114565   3.696   6.287   0.169 -0.5461 -0.3825  1.4077
 4868TIP3    H214566   3.685   6.430   0.219 -1.4174  0.2535 -0.5589
 4869TIP3   OH214567   1.848   7.048   1.732  0.2203 -0.2512 -0.2906
 4869TIP3    H114568   1.789   7.119   1.706  0.1484 -0.1985  0.0179
 4869TIP3    H214569   1.870   7.067   1.823  0.7528 -0.2434 -0.4196
 4870TIP3   OH214570   5.317   0.017   2.546  0.3093  0.4751 -0.3357
 4870TIP3    H114571   5.282  -0.002   2.459 -0.6176 -0.1513  0.1638
 4870TIP3    H214572   5.240   0.043   2.597  0.7435  0.1840  0.4741
 4871TIP3   OH214573   7.122   0.074   4.333 -0.0322  0.0723  0.0717
 4871TIP3    H114574   7.053   0.032   4.384 -0.7675  2.9461  1.5342
 4871TIP3    H214575   7.119   0.166   4.359  3.1987  0.5935 -1.1396
 4872TIP3   OH214576   0.248   0.890   1.379  0.7889  0.4903  0.5619
 4872TIP3    H114577   0.245   0.815   1.320  4.0817 -0.3312  1.3119
 4872TIP3    H214578   0.255   0.851   1.467  2.8699  1.5947  0.9336
 4873TIP3   OH214579   6.597   0.603   3.735 -0.3357  0.2982 -0.0909
 4873TIP3    H114580   6.512   0.645   3.722 -1.6594 -2.0480  0.6808
 4873TIP3    H214581   6.613   0.613   3.829  0.0307  0.3278 -0.1573
 4874TIP3   OH214582   6.479   0.446   0.876  0.2195 -0.3081  0.9491
 4874TIP3    H114583   6.429   0.364   0.873 -0.5582  0.1352  1.6930
 4874TIP3    H214584   6.561   0.425   0.831 -0.5001 -1.1338 -0.0233
 4875TIP3   OH214585   4.946   0.386   2.576 -0.0601  0.0060 -0.1342
 4875TIP3    H114586   5.009   0.429   2.518 -0.0818 -1.0683 -0.9716
 4875TIP3    H214587   4.972   0.413   2.664  0.6431  0.7799 -0.5710
 4876TIP3   OH214588   1.652   5.917   1.447 -0.1593 -0.0610 -0.2005
 4876TIP3    H114589   1.636   6.012   1.442 -0.1283 -0.0834 -0.7187
 4876TIP3    H214590   1.730   5.909   1.503  0.8133  0.3177 -1.4715
 4877TIP3   OH214591   4.128  -0.022   0.978  0.2675  0.7184 -0.4015
 4877TIP3    H114592   4.215  -0.042   0.943  1.2470  0.5113  2.1048
 4877TIP3    H214593   4.120   0.073   0.970  1.0202  0.8180  0.0263
 4878TIP3   OH214594   6.966   0.294   3.674  0.0881  0.4022 -0.2256
 4878TIP3    H114595   6.888   0.288   3.619  0.3451 -0.8210 -0.4823
 4878TIP3    H214596   6.932   0.304   3.763 -0.3447  0.9711 -0.4518
 4879TIP3   OH214597   7.513   1.905   6.204 -0.0563 -0.6000 -0.3094
 4879TIP3    H114598   7.496   1.867   6.118 -2.4749  0.4404 -0.3421
 4879TIP3    H214599   7.480   1.840   6.266 -0.1238 -0.4866 -0.2272
 4880TIP3   OH214600   2.878   7.258   0.681 -0.2478  0.5981 -0.1745
 4880TIP3    H114601   2.803   7.202   0.660  0.7802 -1.1569  0.7640
 4880TIP3    H214602   2.841   7.346   0.689 -2.4068 -0.4487  1.5569
 4881TIP3   OH214603   3.212   5.488   1.789  0.2834  0.3158 -0.2464
 4881TIP3    H114604   3.137   5.546   1.800  0.1603  0.1179 -0.0099
 4881TIP3    H214605   3.227   5.453   1.877 -0.8705 -1.5127 -0.7459
 4882TIP3   OH214606   2.670   6.086   4.288 -0.0613 -0.0879 -0.8717
 4882TIP3    H114607   2.739   6.053   4.230 -0.4003 -0.6685 -0.9519
 4882TIP3    H214608   2.690   6.179   4.298 -0.0697  0.0557 -2.0320
 4883TIP3   OH214609   3.116   5.867   2.715  0.1146  0.2204 -0.0244
 4883TIP3    H114610   3.090   5.886   2.625  0.0613  1.6841  0.3018
 4883TIP3    H214611   3.098   5.947   2.763 -0.0142 -0.6121  1.3337
 4884TIP3   OH214612   4.117   0.445   5.159 -0.0484  0.1113  0.1758
 4884TIP3    H114613   4.100   0.352   5.173 -1.4800  0.4086  0.5611
 4884TIP3    H214614   4.146   0.478   5.244 -2.2040  0.5483  0.7844
 4885TIP3   OH214615   1.500   1.029   2.093 -0.4126 -0.0315  0.5620
 4885TIP3    H114616   1.405   1.043   2.083 -0.5182 -0.8884  0.2614
 4885TIP3    H214617   1.513   0.939   2.062  0.6305  0.3874 -0.2274
 4886TIP3   OH214618   3.459   3.961   0.248 -0.4495  0.4504  0.5947
 4886TIP3    H114619   3.473   3.946   0.154 -0.5316  1.8582  0.3472
 4886TIP3    H214620   3.545   3.953   0.287 -0.4403 -0.3161  0.4285
 4887TIP3   OH214621   3.110   6.340   3.101 -0.1583 -0.1623  0.0284
 4887TIP3    H114622   3.131   6.303   3.186  0.0040 -1.2555 -0.4748
 4887TIP3    H214623   3.142   6.429   3.105 -0.2755 -0.1614  1.1568
 4888TIP3   OH214624   6.096   0.381   2.183  0.3324 -0.5609  0.0082
 4888TIP3    H114625   6.151   0.417   2.114  0.4506 -0.8643 -0.0605
 4888TIP3    H214626   6.055   0.457   2.224  1.3403 -0.2747  0.5116
 4889TIP3   OH214627   5.208   6.619   2.529 -0.3170  0.3360 -0.0362
 4889TIP3    H114628   5.295   6.656   2.538 -0.6743  2.0970 -2.9297
 4889TIP3    H214629   5.222   6.527   2.506  0.8191  0.8205 -1.3214
 4890TIP3   OH214630   3.458   6.738   2.641 -0.3300 -0.1223 -0.0207
 4890TIP3    H114631   3.400   6.804   2.603 -1.0903 -0.2377  0.9326
 4890TIP3    H214632   3.436   6.737   2.734 -1.0081 -2.4038 -0.1665
 4891TIP3   OH214633   6.363   6.800   1.724  0.2290  0.4364 -0.2429
 4891TIP3    H114634   6.289   6.860   1.719 -0.6273 -0.4934  0.7586
 4891TIP3    H214635   6.339   6.740   1.796  1.1461 -0.9462 -1.0726
 4892TIP3   OH214636   5.570   7.039   1.657  0.5415  0.2701 -0.2202
 4892TIP3    H114637   5.613   6.962   1.618 -0.7667 -0.7748  0.3380
 4892TIP3    H214638   5.568   7.104   1.587  1.9126 -0.1043 -0.6225
 4893TIP3   OH214639   6.137   1.163   4.283  0.0255  0.6874  0.1542
 4893TIP3    H114640   6.151   1.075   4.247 -0.6806  0.9096 -0.6763
 4893TIP3    H214641   6.070   1.201   4.227 -0.6661  1.2606  1.3567
 4894TIP3   OH214642   4.909   1.128   5.966  0.3382 -0.3983 -0.4709
 4894TIP3    H114643   4.864   1.146   5.883 -1.0600 -1.6799 -0.0040
 4894TIP3    H214644   4.929   1.215   6.001 -2.7707  0.2451 -0.1497
 4895TIP3   OH214645   5.652   1.034   2.404  0.0445  0.1237 -0.0723
 4895TIP3    H114646   5.627   0.954   2.450  1.0737  0.4914  1.1623
 4895TIP3    H214647   5.694   1.003   2.323  0.9206 -0.6127  0.6484
 4896TIP3   OH214648   3.209   6.549   0.250  0.3912  0.1382 -0.2928
 4896TIP3    H114649   3.173   6.633   0.223 -0.1825  0.3040  0.9566
 4896TIP3    H214650   3.133   6.492   0.259  0.6509 -0.1327  0.2026
 4897TIP3   OH214651   2.784   3.896   5.246 -0.1732  0.0583 -0.2513
 4897TIP3    H114652   2.755   3.987   5.258 -0.5956 -0.2004  0.7395
 4897TIP3    H214653   2.703   3.846   5.238  0.0474 -0.3490  0.0769
 4898TIP3   OH214654   6.709   0.806   2.090 -0.4691 -0.0722  0.9144
 4898TIP3    H114655   6.701   0.744   2.018 -0.5921  1.1678 -0.1586
 4898TIP3    H214656   6.795   0.787   2.129 -0.4888 -0.8799  0.5648
 4899TIP3   OH214657   7.189   1.417   1.355 -0.4740 -0.4950 -0.1822
 4899TIP3    H114658   7.232   1.387   1.274  0.0312  1.2138 -0.5581
 4899TIP3    H214659   7.104   1.449   1.327 -0.5306 -0.4421  0.0468
 4900TIP3   OH214660   3.396   6.141   1.665  0.9142 -0.3310 -0.0103
 4900TIP3    H114661   3.487   6.148   1.635  0.6840  0.0313 -0.6426
 4900TIP3    H214662   3.401   6.153   1.760  1.3518  1.4490 -0.2343
 4901TIP3   OH214663   6.413   6.762   0.689  0.0438 -0.6210 -0.0253
 4901TIP3    H114664   6.498   6.717   0.686 -0.4979 -1.6993  0.2887
 4901TIP3    H214665   6.376   6.737   0.774 -0.2478  0.4868  0.1776
 4902TIP3   OH214666   1.320   2.067   3.730 -0.5053  0.4864 -0.0393
 4902TIP3    H114667   1.393   2.058   3.669 -0.0058  0.0217  0.6276
 4902TIP3    H214668   1.246   2.093   3.674 -0.0404  0.1340 -0.8318
 4903TIP3   OH214669   6.560   0.355   1.947 -0.6552  0.4139 -0.4463
 4903TIP3    H114670   6.605   0.323   2.025 -1.0418  0.8504 -0.0371
 4903TIP3    H214671   6.522   0.276   1.908 -0.2713  0.1619 -0.3164
 4904TIP3   OH214672   1.893   2.441   5.710 -0.1222  0.5070  0.1816
 4904TIP3    H114673   1.880   2.421   5.803  0.9651 -2.1883 -0.1924
 4904TIP3    H214674   1.805   2.438   5.673 -0.5294  1.2816  1.0606
 4905TIP3   OH214675   5.625   0.439   0.944 -0.3328 -0.0100 -0.3577
 4905TIP3    H114676   5.669   0.447   0.859  0.6183 -1.2507  0.0055
 4905TIP3    H214677   5.695   0.424   1.006 -1.4274 -5.0305 -0.1693
 4906TIP3   OH214678   3.306   6.942   2.500  0.4405 -0.7234  0.0809
 4906TIP3    H114679   3.303   6.934   2.405 -0.6631 -0.5000  0.0874
 4906TIP3    H214680   3.217   6.968   2.525  0.2382 -2.4741  1.3187
 4907TIP3   OH214681   5.900   0.778   3.873 -0.3536 -0.3921 -0.0176
 4907TIP3    H114682   5.916   0.702   3.817 -0.8546 -0.6671  0.2030
 4907TIP3    H214683   5.814   0.810   3.846 -0.0225  0.2623 -0.2926
 4908TIP3   OH214684   6.865   6.900   1.094 -0.4677 -0.2587  0.0019
 4908TIP3    H114685   6.875   6.808   1.118 -1.1121 -0.8173 -1.8224
 4908TIP3    H214686   6.802   6.935   1.157  0.4153 -0.8270  1.2359
 4909TIP3   OH214687   2.280   3.193   6.160 -0.4426 -0.1546 -0.3171
 4909TIP3    H114688   2.322   3.118   6.202  0.0858 -0.3260 -1.1253
 4909TIP3    H214689   2.307   3.187   6.068  0.9609  1.9576 -0.0776
 4910TIP3   OH214690   6.147   6.528   1.531 -0.6438  0.5105 -0.0188
 4910TIP3    H114691   6.236   6.552   1.559 -0.1877 -0.6849 -0.4278
 4910TIP3    H214692   6.129   6.446   1.575 -0.8882 -0.1207 -1.2732
 4911TIP3   OH214693   5.656   7.163   2.992 -0.1257  0.6368 -0.0093
 4911TIP3    H114694   5.574   7.121   3.018  0.3279 -0.7053 -0.6926
 4911TIP3    H214695   5.657   7.247   3.038 -1.2467  0.0650  1.0460
 4912TIP3   OH214696   6.451   0.096   0.362 -0.2946 -0.0402 -0.3217
 4912TIP3    H114697   6.371   0.100   0.415  0.4589 -0.2479  0.8581
 4912TIP3    H214698   6.497   0.178   0.383  0.3380 -0.4490 -0.1197
 4913TIP3   OH214699   6.465   7.139   0.484 -0.0113  0.4084  0.4845
 4913TIP3    H114700   6.467   7.234   0.500 -1.3108  0.3658  0.9734
 4913TIP3    H214701   6.555   7.111   0.499  0.7425  1.7914 -1.1719
 4914TIP3   OH214702   5.938   0.038   0.748  0.4180 -0.2673 -0.4257
 4914TIP3    H114703   5.946   0.121   0.795  1.3635 -0.4625 -0.2353
 4914TIP3    H214704   5.854   0.003   0.777  0.8385 -0.2216  0.8594
 4915TIP3   OH214705   6.563   0.233   2.560  0.4160  0.6107  0.3556
 4915TIP3    H114706   6.489   0.278   2.601  0.5393  0.2332  0.9991
 4915TIP3    H214707   6.594   0.295   2.494 -2.4191 -0.4734 -2.1270
 4916TIP3   OH214708   2.215   6.726   0.780 -0.5732  0.0552  0.4274
 4916TIP3    H114709   2.237   6.710   0.871  2.8399  0.9120 -0.1571
 4916TIP3    H214710   2.213   6.639   0.740  0.7111 -0.1568  0.7845
 4917TIP3   OH214711   3.444   3.322   6.281 -0.4827 -0.2561 -0.0466
 4917TIP3    H114712   3.512   3.313   6.348  1.3036  0.3231 -1.7129
 4917TIP3    H214713   3.365   3.343   6.329  0.7378  0.0424  1.8830
 4918TIP3   OH214714   7.674   0.922   2.676 -0.0130  0.0982  0.1138
 4918TIP3    H114715   7.726   0.881   2.607 -0.2945 -2.3740  1.2963
 4918TIP3    H214716   7.708   1.011   2.682  2.5444 -0.7716 -0.6805
 4919TIP3   OH214717   6.796   1.946   2.683 -0.2542  0.5210 -0.0704
 4919TIP3    H114718   6.704   1.949   2.711 -0.3551 -0.2462 -0.3205
 4919TIP3    H214719   6.845   1.934   2.765 -0.3701  0.9204  0.0620
 4920TIP3   OH214720   6.829   1.682   0.982 -0.2673  0.2698  0.4042
 4920TIP3    H114721   6.836   1.759   0.925 -1.1714  1.4031  1.8003
 4920TIP3    H214722   6.825   1.608   0.921  4.5751  0.9342 -0.9279
 4921TIP3   OH214723   2.114   0.742   3.282  0.3365 -0.4649 -0.4923
 4921TIP3    H114724   2.061   0.678   3.330  2.9254 -1.1586  1.5107
 4921TIP3    H214725   2.090   0.827   3.320  0.0816 -0.6918 -0.1436
 4922TIP3   OH214726   1.203   1.939   2.662 -0.5312  0.4178  0.1429
 4922TIP3    H114727   1.282   1.985   2.690  0.3204 -1.5222  1.0509
 4922TIP3    H214728   1.229   1.847   2.658 -2.4486 -0.1188 -0.6465
 4923TIP3   OH214729   5.544   7.294   1.139 -0.0950 -0.7389 -0.0894
 4923TIP3    H114730   5.586   7.277   1.055 -1.1044  0.5656 -0.8760
 4923TIP3    H214731   5.612   7.334   1.192  0.2686 -0.6233 -0.6329
 4924TIP3   OH214732   6.630   0.532   0.399  0.3735 -0.1302 -0.3950
 4924TIP3    H114733   6.719   0.535   0.364  0.4516  0.2828 -0.1688
 4924TIP3    H214734   6.631   0.461   0.463  0.6695  0.1858 -0.0476
 4925TIP3   OH214735   0.605   3.111   1.648  0.2752 -0.3234  0.0427
 4925TIP3    H114736   0.556   3.175   1.700  1.3379  0.7199 -0.2260
 4925TIP3    H214737   0.547   3.035   1.645 -1.7534  1.2080 -1.0808
 4926TIP3   OH214738   2.152   6.085   4.332  0.2825  0.0273  0.1006
 4926TIP3    H114739   2.125   6.058   4.420  2.3996 -1.7711  0.2359
 4926TIP3    H214740   2.246   6.072   4.330  0.1114 -1.2419 -2.8597
 4927TIP3   OH214741   0.917   0.262   2.430 -0.1534  0.1950  0.1824
 4927TIP3    H114742   0.949   0.328   2.368  0.3410 -0.8394 -0.6816
 4927TIP3    H214743   0.827   0.288   2.448  0.5607  2.0633  1.1686
 4928TIP3   OH214744   1.065   6.485   0.443  0.7423 -0.2054 -0.2106
 4928TIP3    H114745   1.070   6.510   0.536  1.1748 -0.7608 -0.0851
 4928TIP3    H214746   1.083   6.391   0.443 -0.4467 -0.4394 -0.7273
 4929TIP3   OH214747   5.073   1.012   2.230 -0.7088  0.3396  0.3520
 4929TIP3    H114748   5.096   0.961   2.307  0.4752  0.3329  0.0044
 4929TIP3    H214749   5.156   1.048   2.199 -0.9961 -0.6733 -1.6512
 4930TIP3   OH214750   5.309   6.524   0.511 -0.3588  0.1175 -0.4354
 4930TIP3    H114751   5.276   6.518   0.600 -0.2747 -0.3248 -0.4323
 4930TIP3    H214752   5.251   6.587   0.467 -2.0730 -1.6892 -0.8210
 4931TIP3   OH214753   6.476   0.016   2.892 -0.2791 -0.8324 -0.8497
 4931TIP3    H114754   6.540   0.074   2.933 -1.0258 -2.5425  2.8652
 4931TIP3    H214755   6.516  -0.070   2.894 -0.8989 -1.2027 -2.6016
 4932TIP3   OH214756   0.233   0.514   3.160  0.1257 -0.7982  0.1915
 4932TIP3    H114757   0.168   0.583   3.146  2.6053  1.1186 -2.3700
 4932TIP3    H214758   0.191   0.435   3.127 -0.9977  0.3695 -1.2436
 4933TIP3   OH214759   5.087   6.552   0.239 -0.2021  0.5437 -0.0280
 4933TIP3    H114760   5.151   6.520   0.175 -0.5225  0.5375 -0.3452
 4933TIP3    H214761   5.036   6.475   0.263 -0.0216  0.5283  0.3039
 4934TIP3   OH214762   4.043   5.829   1.624  0.1557 -0.1508 -0.3178
 4934TIP3    H114763   3.985   5.860   1.555  1.7211  0.1264 -1.5520
 4934TIP3    H214764   4.085   5.909   1.658  1.8605 -0.5952 -1.3436
 4935TIP3   OH214765   2.808   4.987   2.948  0.0823  0.7060  0.1386
 4935TIP3    H114766   2.882   4.927   2.955 -0.3643 -0.1055 -1.7774
 4935TIP3    H214767   2.737   4.934   2.912 -0.8847  1.9222  0.2237
 4936TIP3   OH214768   7.727   1.570   3.474 -0.0080 -0.2520 -0.1027
 4936TIP3    H114769   7.772   1.491   3.505  0.4622  0.2422  0.4971
 4936TIP3    H214770   7.750   1.575   3.381  0.1870 -0.6726 -0.0807
 4937TIP3   OH214771   2.525   4.053   5.417 -0.1456  0.1133  0.6278
 4937TIP3    H114772   2.572   4.125   5.376  0.5061 -1.4694 -1.5226
 4937TIP3    H214773   2.583   4.022   5.486  0.7160 -0.0044 -0.1475
 4938TIP3   OH214774   5.092   0.589   1.258 -0.5596  0.1094 -0.1874
 4938TIP3    H114775   5.185   0.565   1.262 -0.2998  1.0182 -0.5342
 4938TIP3    H214776   5.087   0.673   1.303 -1.2651 -0.0632  0.0653
 4939TIP3   OH214777   5.861   7.007   1.014  0.3908 -0.2366  0.5822
 4939TIP3    H114778   5.843   6.917   0.988 -0.3120 -0.1242  0.6803
 4939TIP3    H214779   5.949   7.025   0.980 -0.1601 -0.3825 -0.9531
 4940TIP3   OH214780   2.961   6.768   2.422  0.1645 -0.2713 -0.2454
 4940TIP3    H114781   2.977   6.680   2.388 -0.0379 -0.9168  1.3153
 4940TIP3    H214782   2.871   6.766   2.454 -0.1744  0.8007 -1.0647
 4941TIP3   OH214783   5.123   6.382   1.666  0.0754  1.4293  0.5946
 4941TIP3    H114784   5.053   6.448   1.676 -0.0212  1.1830  1.5826
 4941TIP3    H214785   5.202   6.426   1.697 -0.3434  0.4453  3.1529
 4942TIP3   OH214786   3.123   2.050   0.203  0.0769  0.0184  0.2043
 4942TIP3    H114787   3.163   2.102   0.133 -0.5497 -0.5010 -0.5424
 4942TIP3    H214788   3.175   2.071   0.281  1.6728 -0.5041 -0.7101
 4943TIP3   OH214789   2.639   1.324   5.685 -0.1792 -0.4574  0.7933
 4943TIP3    H114790   2.724   1.296   5.718 -0.0200  0.4141  1.1362
 4943TIP3    H214791   2.660   1.382   5.611 -0.4158  0.8780  1.7410
 4944TIP3   OH214792   1.280   1.085   3.111  0.0538 -0.0496  0.2344
 4944TIP3    H114793   1.226   1.026   3.164 -1.0910  1.0504  0.3173
 4944TIP3    H214794   1.248   1.072   3.021  1.8039 -1.7076 -0.1868
 4945TIP3   OH214795   2.318   2.186   5.409 -0.5195 -0.2281 -0.0673
 4945TIP3    H114796   2.355   2.222   5.329 -2.8144 -2.1316 -2.0498
 4945TIP3    H214797   2.279   2.103   5.383 -1.5261 -0.7911  2.9792
 4946TIP3   OH214798   4.391   6.755   6.193  0.4300 -0.3941  0.5128
 4946TIP3    H114799   4.394   6.748   6.097 -0.7212  4.0771  0.0119
 4946TIP3    H214800   4.482   6.764   6.219  0.6727 -0.5429 -0.2676
 4947TIP3   OH214801   6.410   7.050   4.837 -0.2740 -0.0655  0.3842
 4947TIP3    H114802   6.485   7.004   4.875  0.6232  0.9212 -0.1631
 4947TIP3    H214803   6.375   7.102   4.909  0.5941  0.7545  0.2209
 4948TIP3   OH214804   6.084   6.003   5.928  0.1261  0.1535  0.1906
 4948TIP3    H114805   6.104   5.937   5.995 -0.0281  1.6379  1.7236
 4948TIP3    H214806   5.989   6.012   5.931  0.1467  0.4488 -0.0266
 4949TIP3   OH214807   5.650   2.081   0.154 -0.2004 -0.3783  0.2055
 4949TIP3    H114808   5.681   2.107   0.067  1.3025  0.7664  1.0628
 4949TIP3    H214809   5.682   1.992   0.165  0.3354 -0.2224 -0.0795
 4950TIP3   OH214810   3.376   3.523   0.303 -0.0780  0.1179  0.2735
 4950TIP3    H114811   3.449   3.480   0.260  1.1390  4.3046 -2.1069
 4950TIP3    H214812   3.300   3.503   0.249 -0.2020 -1.8637  1.1515
 4951TIP3   OH214813   1.029   0.028   2.968  0.4449 -0.0875  0.4545
 4951TIP3    H114814   1.100   0.079   3.008  0.6928  0.7751 -1.0615
 4951TIP3    H214815   1.017   0.066   2.881 -1.2996 -0.7939  0.3602
 4952TIP3   OH214816   0.162   4.931   4.765 -0.1407 -0.6972 -1.1062
 4952TIP3    H114817   0.202   4.857   4.810 -1.4435 -1.5312 -1.3094
 4952TIP3    H214818   0.175   5.005   4.825 -1.7772 -1.7731  0.6093
 4953TIP3   OH214819   1.728   0.304   4.530 -0.3756 -0.6612  0.5951
 4953TIP3    H114820   1.802   0.288   4.472  0.8618  3.1200  0.9709
 4953TIP3    H214821   1.763   0.289   4.618  0.1326  1.5405  0.8003
 4954TIP3   OH214822   5.034   7.253   6.155  0.1908  0.0876  0.0020
 4954TIP3    H114823   5.066   7.217   6.237 -1.5176  0.8796  1.0462
 4954TIP3    H214824   4.951   7.208   6.140  0.5398 -0.1304 -1.3562
 4955TIP3   OH214825   7.700   5.654   5.359 -0.4758 -0.4599 -0.3092
 4955TIP3    H114826   7.693   5.629   5.451 -0.0860  0.3391 -0.0562
 4955TIP3    H214827   7.735   5.743   5.361  1.1068 -1.0441 -1.2812
 4956TIP3   OH214828   2.091   0.115   4.039  0.3589 -0.3547  0.0466
 4956TIP3    H114829   2.118   0.058   4.111  0.2069  0.6727  0.9308
 4956TIP3    H214830   2.073   0.199   4.081 -0.7777 -0.0454 -1.0393
 4957TIP3   OH214831   3.347   3.229   0.302 -0.1209 -0.0656 -0.1769
 4957TIP3    H114832   3.397   3.177   0.239  0.2304 -1.0657  0.9007
 4957TIP3    H214833   3.316   3.304   0.252  0.8640 -0.4068 -1.3279
 4958TIP3   OH214834   0.448   2.134   4.695  0.6385 -0.1214  1.1008
 4958TIP3    H114835   0.429   2.098   4.781 -2.1398 -0.5131  0.3479
 4958TIP3    H214836   0.448   2.229   4.707 -0.4034 -0.1631  1.3891
 4959TIP3   OH214837   3.234   7.009   1.167  0.2842  0.1092 -0.0284
 4959TIP3    H114838   3.194   6.982   1.084  0.4448  1.4761 -0.5579
 4959TIP3    H214839   3.320   6.967   1.167 -0.0225 -0.5353 -0.1822
 4960TIP3   OH214840   0.804   1.286   5.598  0.5972 -0.0060  0.3778
 4960TIP3    H114841   0.855   1.268   5.519  0.2462  1.4599 -0.1959
 4960TIP3    H214842   0.805   1.381   5.606 -1.8305  0.0394  0.4868
 4961TIP3   OH214843   5.902   7.208   6.228  0.6076 -0.0077 -0.4010
 4961TIP3    H114844   5.946   7.185   6.146 -0.5590 -2.2367 -0.4201
 4961TIP3    H214845   5.866   7.295   6.212  0.2546 -0.4861 -2.3107
 4962TIP3   OH214846   0.647   1.891   4.792  0.4433  0.5859 -0.0124
 4962TIP3    H114847   0.601   1.890   4.708 -0.7611 -1.6165  0.6348
 4962TIP3    H214848   0.734   1.858   4.773 -0.3907 -1.6128 -0.1146
 4963TIP3   OH214849   6.523   6.501   4.753  0.1181 -0.7380 -0.1413
 4963TIP3    H114850   6.563   6.588   4.754  0.2598 -0.7917 -1.1204
 4963TIP3    H214851   6.505   6.482   4.845 -0.4910  0.6006  0.0290
 4964TIP3   OH214852   0.077   6.391   5.566  0.2133 -0.3172  0.0466
 4964TIP3    H114853   0.046   6.340   5.641 -1.2218 -0.4400 -0.6146
 4964TIP3    H214854   0.072   6.331   5.492 -1.9156  0.8813 -0.8203
 4965TIP3   OH214855   1.564   1.135   3.880 -0.0101  0.2918  0.0656
 4965TIP3    H114856   1.527   1.077   3.813 -1.7585  0.1294  1.1233
 4965TIP3    H214857   1.502   1.207   3.886  2.0871  2.2659 -1.1409
 4966TIP3   OH214858   2.492   2.755   4.607  0.2676  0.1807 -0.2914
 4966TIP3    H114859   2.555   2.695   4.647  0.2386 -2.0758 -3.3386
 4966TIP3    H214860   2.424   2.697   4.572 -2.6923  2.4411  1.4840
 4967TIP3   OH214861   7.464   1.050   4.227 -0.2480 -0.4061  0.5665
 4967TIP3    H114862   7.523   1.057   4.152  0.6896 -1.7294  1.1677
 4967TIP3    H214863   7.522   1.037   4.302 -1.2428 -0.3928  1.3490
 4968TIP3   OH214864   4.891   7.082   4.044 -0.8561  0.2288 -0.0441
 4968TIP3    H114865   4.884   7.074   3.949 -1.0556  2.1774 -0.2030
 4968TIP3    H214866   4.875   7.175   4.062 -1.5537 -0.2597  1.9658
 4969TIP3   OH214867   6.913   7.135   4.300 -0.2718  0.5888 -0.0504
 4969TIP3    H114868   6.878   7.195   4.366 -0.6033 -0.4034  0.6870
 4969TIP3    H214869   6.841   7.123   4.237 -0.7629 -0.2922  0.6708
 4970TIP3   OH214870   1.028   0.911   6.182  0.0104 -0.6013  0.7685
 4970TIP3    H114871   0.966   0.940   6.115 -0.1940  0.6034  1.4635
 4970TIP3    H214872   1.096   0.864   6.134  0.0732  0.5888 -0.3196
 4971TIP3   OH214873   0.063   6.875   5.485 -0.2512 -0.3358 -0.1131
 4971TIP3    H114874   0.072   6.780   5.495  0.1600 -0.3484 -0.6139
 4971TIP3    H214875   0.128   6.912   5.546 -2.4216 -0.3360  2.2586
 4972TIP3   OH214876   6.751   6.386   5.496  0.1800 -0.9846 -0.5543
 4972TIP3    H114877   6.769   6.298   5.463 -1.1307 -1.0607 -1.0976
 4972TIP3    H214878   6.689   6.373   5.568 -1.1599 -0.4319 -1.5653
 4973TIP3   OH214879   2.089   6.632   3.676  0.0489 -0.4868 -0.1462
 4973TIP3    H114880   1.997   6.640   3.701 -0.2922  0.9432 -1.7882
 4973TIP3    H214881   2.094   6.548   3.630 -0.4343 -0.5849 -0.0278
 4974TIP3   OH214882   3.242   3.076   0.665 -0.3329  0.5138  0.2681
 4974TIP3    H114883   3.237   3.163   0.625 -1.9986  0.2538 -0.1087
 4974TIP3    H214884   3.323   3.038   0.630  0.2431  1.8011  0.2084
 4975TIP3   OH214885   2.788   1.058   4.992  0.4161 -0.2475  0.1337
 4975TIP3    H114886   2.708   1.094   4.953  1.3320  1.1368 -0.5160
 4975TIP3    H214887   2.771   0.964   4.998 -1.6551  0.1361  0.9639
 4976TIP3   OH214888   5.542   4.395   0.139 -0.1289  0.0634  0.3354
 4976TIP3    H114889   5.561   4.410   0.046  0.2709 -0.1910  0.3765
 4976TIP3    H214890   5.609   4.445   0.186  0.6728 -1.1282  0.4778
 4977TIP3   OH214891   6.288   6.704   4.960 -0.5584 -0.2041 -0.1609
 4977TIP3    H114892   6.219   6.752   5.006 -0.8308 -0.7667  0.0218
 4977TIP3    H214893   6.324   6.645   5.026  0.5834  0.5806 -0.0601
 4978TIP3   OH214894   0.802   2.051   3.093  0.5871  0.3184  0.6338
 4978TIP3    H114895   0.821   2.051   2.999 -3.4868  2.2068 -0.2728
 4978TIP3    H214896   0.840   2.133   3.125 -0.1701  0.8753  0.1250
 4979TIP3   OH214897   2.188   0.416   4.755  0.1091  0.2664 -0.0074
 4979TIP3    H114898   2.188   0.451   4.844  1.7512 -0.3333  0.2575
 4979TIP3    H214899   2.176   0.321   4.767 -2.3099  0.4599 -0.5970
 4980TIP3   OH214900   1.025   7.029   3.733  0.6939  0.3357 -0.6418
 4980TIP3    H114901   0.988   7.024   3.645 -1.4322 -0.1729  0.2394
 4980TIP3    H214902   0.994   7.113   3.767 -0.7551 -0.6560  0.5622
 4981TIP3   OH214903   3.465   1.045   3.275 -0.2309  0.2875  0.8207
 4981TIP3    H114904   3.418   0.964   3.254  0.0504  0.4246 -0.3663
 4981TIP3    H214905   3.508   1.026   3.359 -0.5431 -0.6309  0.7822
 4982TIP3   OH214906   0.593   1.552   3.900 -0.3866  0.3264 -0.2912
 4982TIP3    H114907   0.628   1.633   3.937  1.1780 -0.3364 -0.3173
 4982TIP3    H214908   0.513   1.536   3.951 -1.6404  2.7514 -1.3914
 4983TIP3   OH214909   5.564   6.908   5.325  0.2769  0.1840  0.2239
 4983TIP3    H114910   5.587   6.818   5.347  1.1846 -0.0867 -1.6649
 4983TIP3    H214911   5.472   6.904   5.299  0.9166 -0.6711 -2.0656
 4984TIP3   OH214912   3.299   3.380   0.076  0.0912  0.8531 -0.3888
 4984TIP3    H114913   3.300   3.439  -0.000  0.2742 -0.8206 -1.7084
 4984TIP3    H214914   3.391   3.377   0.104  0.2047  0.6067 -0.7846
 4985TIP3   OH214915   7.325   0.242   5.167 -0.1465  0.4461 -0.0570
 4985TIP3    H114916   7.266   0.184   5.216 -0.9809  0.3483 -1.1600
 4985TIP3    H214917   7.405   0.190   5.155 -1.0495 -0.6474 -1.4335
 4986TIP3   OH214918   7.214   6.437   5.260 -0.2043 -0.2596  0.3712
 4986TIP3    H114919   7.246   6.379   5.330  0.4719 -1.4883 -0.9453
 4986TIP3    H214920   7.252   6.522   5.281  0.0458 -0.6305  1.4752
 4987TIP3   OH214921   0.516   0.199   5.182 -0.1936 -0.3301  0.2816
 4987TIP3    H114922   0.485   0.177   5.270 -1.0749  0.0734  0.0770
 4987TIP3    H214923   0.464   0.275   5.157  1.7023  1.0570  0.3683
 4988TIP3   OH214924   0.465   1.440   5.844  0.5012 -0.3579 -0.7984
 4988TIP3    H114925   0.548   1.392   5.843  0.2545 -0.8839  1.1504
 4988TIP3    H214926   0.402   1.377   5.880 -0.2212  0.8429  0.0495
 4989TIP3   OH214927   7.577   7.160   3.548  0.0717  0.3861 -0.3444
 4989TIP3    H114928   7.529   7.241   3.564 -0.9042  0.0261 -1.3448
 4989TIP3    H214929   7.509   7.096   3.527  0.8904 -0.4955 -0.3446
 4990TIP3   OH214930   3.883   4.087   0.354  0.2090 -0.3734 -0.1673
 4990TIP3    H114931   3.973   4.081   0.386 -0.4823 -1.1643  1.7352
 4990TIP3    H214932   3.884   4.159   0.292  2.2515 -0.6646 -0.5008
 4991TIP3   OH214933   6.999   4.911   1.121  0.6890  0.0085  0.0571
 4991TIP3    H114934   6.949   4.991   1.139  1.3054  0.3718  0.1929
 4991TIP3    H214935   7.002   4.907   1.025  0.5617  0.0961  0.0493
 4992TIP3   OH214936   0.440   1.395   4.342  0.2608  0.1253 -0.4867
 4992TIP3    H114937   0.510   1.429   4.398 -0.2964 -0.4231  0.5643
 4992TIP3    H214938   0.360   1.430   4.380 -0.0490  0.7579 -1.6909
 4993TIP3   OH214939   1.596   1.367   5.847 -0.0312 -0.5193  0.4560
 4993TIP3    H114940   1.654   1.372   5.923  1.3792 -1.0105 -0.5580
 4993TIP3    H214941   1.627   1.290   5.798 -0.1620  0.4695 -1.2130
 4994TIP3   OH214942   1.300   0.270   3.889 -0.0952 -0.0186 -0.6055
 4994TIP3    H114943   1.358   0.340   3.917 -2.2210  1.2764  0.6738
 4994TIP3    H214944   1.265   0.299   3.805 -0.0283 -0.0899 -0.6573
 4995TIP3   OH214945   2.261   2.562   4.063 -0.0874 -0.6854 -0.4247
 4995TIP3    H114946   2.270   2.625   3.991 -0.7179 -1.1905 -0.9460
 4995TIP3    H214947   2.317   2.598   4.132 -1.7447  1.3434 -0.0923
 4996TIP3   OH214948   2.889   3.415   0.226  0.7593 -0.1114  0.1519
 4996TIP3    H114949   2.919   3.407   0.135  1.9051  1.2660  0.3852
 4996TIP3    H214950   2.796   3.390   0.223  0.9680 -0.7443 -1.2741
 4997TIP3   OH214951   3.127   1.799   4.913 -0.4621  0.7931 -0.2933
 4997TIP3    H114952   3.096   1.883   4.878 -1.1331  0.0772 -1.4315
 4997TIP3    H214953   3.209   1.783   4.868 -2.0441 -0.8494 -2.7278
 4998TIP3   OH214954   4.586   3.847   0.009  0.0586 -0.2675 -0.6552
 4998TIP3    H114955   4.605   3.859   0.103 -1.5258  0.2452 -0.3974
 4998TIP3    H214956   4.663   3.883  -0.035 -0.0472  1.3084  0.4123
 4999TIP3   OH214957   0.971   1.154   5.779  0.2853 -0.4196 -0.3088
 4999TIP3    H114958   1.041   1.097   5.745  1.2577  1.2944 -1.2661
 4999TIP3    H214959   0.909   1.160   5.707  0.0391 -0.4996 -0.1021
 5000TIP3   OH214960   5.688   3.809   0.468 -0.0511 -0.5497 -0.3136
 5000TIP3    H114961   5.632   3.885   0.448 -0.8616 -0.8351  0.8259
 5000TIP3    H214962   5.631   3.734   0.455  0.6959 -0.9615 -1.2336
 5001TIP3   OH214963   1.223   1.320   4.399  0.1350 -0.4609 -0.2747
 5001TIP3    H114964   1.240   1.226   4.384  0.1457 -0.4145 -0.5680
 5001TIP3    H214965   1.282   1.344   4.470  0.8788 -0.4370 -0.8946
 5002TIP3   OH214966   1.961   0.145   5.363 -0.1636 -0.2879 -0.2673
 5002TIP3    H114967   1.923   0.153   5.451  0.5934  0.0413  0.0372
 5002TIP3    H214968   1.944   0.055   5.337  0.7764 -0.7723  0.7691
 5003TIP3   OH214969   6.129   2.457   0.196 -0.3597  0.8049 -0.4904
 5003TIP3    H114970   6.159   2.544   0.172 -1.0911  0.8842 -1.1564
 5003TIP3    H214971   6.062   2.436   0.130 -1.0669  0.2495  0.3858
 5004TIP3   OH214972   5.677   6.888   4.746 -0.2629 -0.0036  0.4169
 5004TIP3    H114973   5.612   6.957   4.733  1.0449  1.2904  0.5532
 5004TIP3    H214974   5.726   6.886   4.663 -1.1663 -1.7233 -0.0893
 5005TIP3   OH214975   2.212   0.087   5.613  0.2642  0.1723 -0.3425
 5005TIP3    H114976   2.158   0.161   5.641 -1.7278  0.0850 -3.6749
 5005TIP3    H214977   2.169   0.010   5.651 -0.0214  0.3812 -0.2416
 5006TIP3   OH214978   6.608   6.550   5.791 -0.2651 -0.1380 -0.1198
 5006TIP3    H114979   6.698   6.580   5.806 -0.3126 -0.6219  1.2568
 5006TIP3    H214980   6.607   6.461   5.827 -0.7695 -0.8747 -1.9433
 5007TIP3   OH214981   6.016   7.200   5.582 -0.6900 -0.3545 -0.7388
 5007TIP3    H114982   6.038   7.236   5.496  0.5869  1.7181  0.4396
 5007TIP3    H214983   6.088   7.140   5.602 -1.2048 -1.1665 -1.2863
 5008TIP3   OH214984   5.493   7.269   5.455  0.3724  0.1669 -0.1310
 5008TIP3    H114985   5.510   7.360   5.428  1.0110 -0.1075 -0.6371
 5008TIP3    H214986   5.578   7.235   5.482  0.2183 -0.4501 -0.4229
 5009TIP3   OH214987   3.195   3.947   0.122  0.0422 -0.5510 -0.2309
 5009TIP3    H114988   3.208   3.873   0.062 -0.0485 -0.7535 -0.0028
 5009TIP3    H214989   3.279   3.958   0.166  0.1479 -0.3172 -0.4881
 5010TIP3   OH214990   1.712   1.639   3.061  0.2329  0.0724 -0.3488
 5010TIP3    H114991   1.632   1.585   3.056 -0.1782  0.6605 -0.1809
 5010TIP3    H214992   1.695   1.700   3.132  1.0249 -0.0999 -0.0128
 5011TIP3   OH214993   2.596   3.054   0.057 -0.3278  0.2036  0.2721
 5011TIP3    H114994   2.565   2.969   0.026 -1.0874  0.5398  0.0679
 5011TIP3    H214995   2.541   3.073   0.133 -0.2619  0.5647  0.2325
 5012TIP3   OH214996   4.081   6.297   0.249 -0.6520 -0.0050 -0.1066
 5012TIP3    H114997   4.125   6.359   0.308 -1.1163  0.7312 -0.5327
 5012TIP3    H214998   4.147   6.277   0.182  0.4622 -2.1331  1.5576
 5013TIP3   OH214999   1.371   1.451   4.596 -0.2476 -0.1233  0.0870
 5013TIP3    H115000   1.447   1.422   4.547 -0.2635 -0.1221  0.0616
 5013TIP3    H215001   1.386   1.544   4.612 -0.6386  0.0674 -0.6387
 5014TIP3   OH215002   0.958   1.664   5.600 -0.2198 -0.7790 -0.0840
 5014TIP3    H115003   1.038   1.616   5.576 -0.1151 -1.3584  1.3581
 5014TIP3    H215004   0.919   1.611   5.670 -1.3808 -0.0051 -0.1344
 5015TIP3   OH215005   1.097   2.374   5.034  0.1147  0.1668  0.5171
 5015TIP3    H115006   1.050   2.292   5.016  0.9807  0.0552 -1.3840
 5015TIP3    H215007   1.183   2.362   4.995 -0.3264  2.6091 -1.3843
 5016TIP3   OH215008   3.141   1.113   6.166 -0.6965  0.1852 -0.0787
 5016TIP3    H115009   3.084   1.108   6.243  0.3312 -0.5066  0.6504
 5016TIP3    H215010   3.211   1.050   6.184  0.3855  1.1339 -0.8846
 5017TIP3   OH215011   1.380   0.823   5.497 -0.1074  0.8029  0.2086
 5017TIP3    H115012   1.405   0.912   5.520 -1.0401  1.0367  0.3358
 5017TIP3    H215013   1.450   0.768   5.531  1.1963  1.6051 -1.1440
 5018TIP3   OH215014   2.354   2.299   2.757  0.0388  0.6084  0.5845
 5018TIP3    H115015   2.394   2.268   2.675 -2.8059 -0.5842 -0.4178
 5018TIP3    H215016   2.373   2.393   2.758  1.9189  0.2680 -0.3707
 5019TIP3   OH215017   1.963   6.915   5.677 -0.0016 -0.4267  0.0942
 5019TIP3    H115018   2.029   6.985   5.680 -0.7448  0.4587 -2.7185
 5019TIP3    H215019   1.916   6.923   5.759  1.9971  0.3218  1.2051
 5020TIP3   OH215020   5.007   1.137   2.958  0.0055  0.4586 -0.1933
 5020TIP3    H115021   5.089   1.178   2.929 -0.6313  1.7190 -0.2673
 5020TIP3    H215022   4.943   1.163   2.891 -0.4561 -0.5195 -0.1352
 5021TIP3   OH215023   7.079   4.480   0.131 -0.1166 -0.5773  0.4731
 5021TIP3    H115024   7.138   4.492   0.057  1.2876  1.5268  1.9092
 5021TIP3    H215025   7.114   4.403   0.177  1.0587  0.2136  0.9031
 5022TIP3   OH215026   7.273   7.043   3.614 -0.1724 -0.1511 -0.1254
 5022TIP3    H115027   7.270   6.948   3.603 -2.0160 -0.2557  0.9904
 5022TIP3    H215028   7.225   7.060   3.696  0.8645  1.6718  0.1459
 5023TIP3   OH215029   6.242   3.882   0.913 -0.4749  0.1513  0.2748
 5023TIP3    H115030   6.221   3.790   0.928 -0.8895  0.2287  0.1732
 5023TIP3    H215031   6.242   3.921   1.001 -1.0376  0.2099  0.2494
 5024TIP3   OH215032   1.671   1.993   5.147  0.7823 -0.0188  0.0322
 5024TIP3    H115033   1.763   1.967   5.141  0.7669  0.1884 -1.0967
 5024TIP3    H215034   1.629   1.949   5.074 -0.0288 -0.1308  0.5632
 5025TIP3   OH215035   6.550   4.986   5.527  0.3268  0.0641  0.2483
 5025TIP3    H115036   6.591   4.902   5.551 -2.0809 -1.4524 -0.7720
 5025TIP3    H215037   6.492   5.006   5.601 -1.5702 -0.8712 -0.9583
 5026TIP3   OH215038   3.939   2.010   5.579 -0.1533 -0.3539 -0.1832
 5026TIP3    H115039   3.971   1.930   5.621  0.5984  0.0908  0.0927
 5026TIP3    H215040   3.941   2.076   5.648  1.5393  0.5006 -1.0212
 5027TIP3   OH215041   2.170   0.754   3.664  0.2905  0.0498  0.1082
 5027TIP3    H115042   2.223   0.680   3.692  0.8374  0.5150  0.3050
 5027TIP3    H215043   2.206   0.829   3.711  0.4607  0.6335 -0.9181
 5028TIP3   OH215044   4.067   0.201   5.302  0.1862  0.3764  0.1246
 5028TIP3    H115045   3.998   0.180   5.239  1.8683 -1.7269 -1.1151
 5028TIP3    H215046   4.073   0.122   5.357  1.0072  0.8957  0.7909
 5029TIP3   OH215047   6.125   5.179   1.074  0.1335  0.1029  0.4943
 5029TIP3    H115048   6.219   5.169   1.084 -0.1477 -2.3101  1.1493
 5029TIP3    H215049   6.101   5.112   1.010 -1.1225  0.8321  0.1796
 5030TIP3   OH215050   3.864   0.145   5.099 -0.1693 -0.0850 -0.1420
 5030TIP3    H115051   3.842   0.119   5.009  2.1897 -0.7117 -0.6035
 5030TIP3    H215052   3.788   0.120   5.151 -0.8179 -1.4599 -1.6930
 5031TIP3   OH215053   0.991   6.069   4.756 -0.0301  0.1318 -0.3378
 5031TIP3    H115054   0.982   6.134   4.686  1.3600  0.7537  0.0425
 5031TIP3    H215055   0.906   6.071   4.801 -1.7174 -1.8057 -3.2507
 5032TIP3   OH215056   1.534   5.192   4.139  0.4489  0.0499 -0.3687
 5032TIP3    H115057   1.552   5.202   4.046  1.5964  0.8529 -0.0687
 5032TIP3    H215058   1.587   5.118   4.166  1.0953  0.6088 -0.0914
 5033TIP3   OH215059   6.227   7.296   5.890  0.0645 -0.5347  0.3258
 5033TIP3    H115060   6.157   7.350   5.854 -0.3176 -0.2119  1.5073
 5033TIP3    H215061   6.277   7.357   5.945  1.3518 -0.7295 -0.5970
 5034TIP3   OH215062   7.373   6.942   5.768  0.1180 -0.5892  0.3316
 5034TIP3    H115063   7.329   6.875   5.715  0.5069 -0.6221  0.0487
 5034TIP3    H215064   7.452   6.899   5.801  0.3572 -0.2773  0.1683
 5035TIP3   OH215065   2.484   6.688   5.198  0.0477 -0.5768  0.1263
 5035TIP3    H115066   2.540   6.761   5.224  0.3838 -0.9053  0.3368
 5035TIP3    H215067   2.512   6.666   5.109 -2.4288  1.8280 -1.3372
 5036TIP3   OH215068   2.306   1.604   5.411  0.2474  0.6384 -0.5979
 5036TIP3    H115069   2.238   1.545   5.444 -0.9693  1.9347 -0.7263
 5036TIP3    H215070   2.384   1.549   5.402 -0.7189 -0.8168 -0.2031
 5037TIP3   OH215071   7.048   7.133   5.558 -0.7446  0.3130  0.4588
 5037TIP3    H115072   7.008   7.218   5.578 -0.8802 -0.0670  1.8852
 5037TIP3    H215073   7.133   7.135   5.602  0.3490  0.6741 -1.6182
 5038TIP3   OH215074   5.695   6.981   5.831 -0.1343 -0.0698 -0.0631
 5038TIP3    H115075   5.786   6.959   5.812 -0.6634 -0.6167 -2.0702
 5038TIP3    H215076   5.655   6.993   5.745 -2.6004 -2.4774  0.6930
 5039TIP3   OH215077   4.594   7.185   5.793  0.3254  0.1955  0.5178
 5039TIP3    H115078   4.549   7.101   5.798  0.3760  0.1749  0.6256
 5039TIP3    H215079   4.531   7.248   5.829  0.4180  0.1528  0.7567
 5040TIP3   OH215080   2.157   1.036   5.959 -0.7284  0.2933  0.3382
 5040TIP3    H115081   2.245   1.011   5.930 -1.1499 -2.9976  1.6666
 5040TIP3    H215082   2.169   1.122   5.999  1.6343  0.4627 -0.6326
 5041TIP3   OH215083   4.021   0.196   6.161 -0.5042  0.1374  0.4827
 5041TIP3    H115084   4.054   0.258   6.095  0.1318  0.6783  1.2968
 5041TIP3    H215085   3.929   0.183   6.138  0.2693 -1.4075 -1.8352
 5042TIP3   OH215086   3.132   1.438   4.992 -0.1213  0.1815 -0.3812
 5042TIP3    H115087   3.123   1.512   5.053 -0.7305  0.9982 -1.4420
 5042TIP3    H215088   3.155   1.364   5.048 -2.2460  0.5581  1.0437
 5043TIP3   OH215089   7.579   5.292   1.214 -0.0311 -0.4733  0.2797
 5043TIP3    H115090   7.644   5.249   1.158 -0.2806  0.2403 -0.5644
 5043TIP3    H215091   7.546   5.364   1.161  0.9387  1.2518  1.9752
 5044TIP3   OH215092   4.731   5.878   1.148  0.3793 -0.5791  0.4567
 5044TIP3    H115093   4.811   5.825   1.154 -0.2902 -1.5520  1.0872
 5044TIP3    H215094   4.733   5.932   1.227 -0.3240 -1.6860  1.2438
 5045TIP3   OH215095   7.443   5.177   5.133  0.1680  0.2780 -0.0692
 5045TIP3    H115096   7.403   5.262   5.152  1.5993  0.5066  2.0893
 5045TIP3    H215097   7.390   5.114   5.181  0.3348  0.1973  0.0118
 5046TIP3   OH215098   4.249   0.234   2.779 -0.2266  0.5184 -0.0278
 5046TIP3    H115099   4.325   0.239   2.721  0.7621 -1.4120  1.0490
 5046TIP3    H215100   4.231   0.141   2.787 -1.1540  0.8260  1.7412
 5047TIP3   OH215101   3.990   0.682   4.407 -0.0748 -0.4560  0.2976
 5047TIP3    H115102   3.945   0.614   4.357 -1.0524  0.2933  0.1479
 5047TIP3    H215103   3.925   0.712   4.471  0.0455  0.9352 -0.2006
 5048TIP3   OH215104   7.604   7.143   3.257  0.3238 -0.5493  0.0276
 5048TIP3    H115105   7.600   7.131   3.352 -2.5842 -1.4629 -0.1518
 5048TIP3    H215106   7.657   7.069   3.227  2.3530  0.4588  1.0111
 5049TIP3   OH215107   2.510   1.172   4.818 -0.2820 -0.0202 -0.0323
 5049TIP3    H115108   2.474   1.236   4.879 -0.1631 -1.6362  1.7748
 5049TIP3    H215109   2.491   1.209   4.731 -1.9985  1.4717  0.9315
 5050TIP3   OH215110   2.988   0.714   6.228  0.4144 -0.3001  0.0949
 5050TIP3    H115111   3.059   0.650   6.233  0.9231  0.1377 -1.4274
 5050TIP3    H215112   3.011   0.769   6.153 -2.5227 -1.3203 -1.6185
 5051TIP3   OH215113   6.869   6.501   4.655 -0.2570  0.2984  0.2747
 5051TIP3    H115114   6.843   6.584   4.615 -0.9679 -0.6483 -1.2843
 5051TIP3    H215115   6.812   6.436   4.614  2.4461 -1.4056 -0.9428
 5052TIP3   OH215116   3.334   1.779   0.099  0.0816 -0.4683 -0.5057
 5052TIP3    H115117   3.357   1.858   0.049 -1.8265 -0.0318 -0.7305
 5052TIP3    H215118   3.242   1.791   0.120  0.3215 -1.6927  1.2520
 5053TIP3   OH215119   6.937   6.007   3.260 -0.2255 -0.1118  0.2255
 5053TIP3    H115120   6.921   5.961   3.177  0.4038  0.5617 -0.2736
 5053TIP3    H215121   6.933   5.938   3.326  1.5314 -1.0439 -0.5996
 5054TIP3   OH215122   3.564   0.224   6.251 -0.3366 -0.0912 -0.3809
 5054TIP3    H115123   3.495   0.275   6.292  1.2072  0.0630  2.1584
 5054TIP3    H215124   3.641   0.280   6.255  0.3554 -0.9374 -1.5432
 5055TIP3   OH215125   4.144   0.432   5.996 -0.3632  0.1145 -0.0365
 5055TIP3    H115126   4.231   0.431   5.956 -0.2439 -2.6130  0.1925
 5055TIP3    H215127   4.148   0.503   6.060  1.8898 -0.3102  0.3578
 5056TIP3   OH215128   0.750   6.434   2.308  0.4494 -0.3213  0.4230
 5056TIP3    H115129   0.723   6.372   2.376 -2.7550  0.6673  0.1275
 5056TIP3    H215130   0.721   6.393   2.226  0.4896  0.4432  0.0300
 5057TIP3   OH215131   5.819   4.947   0.998  0.0328 -0.1315 -0.3346
 5057TIP3    H115132   5.818   4.942   0.902 -0.6428  1.3883 -0.4299
 5057TIP3    H215133   5.744   5.003   1.019  1.8093  1.8312  0.9337
 5058TIP3   OH215134   1.353   1.687   5.606 -0.4614 -0.3285  0.6028
 5058TIP3    H115135   1.359   1.650   5.694 -0.8638 -0.7757  0.4406
 5058TIP3    H215136   1.309   1.620   5.554  1.2909 -0.7737 -0.3504
 5059TIP3   OH215137   7.522   6.226   4.655  0.4538  0.3059 -0.6021
 5059TIP3    H115138   7.508   6.185   4.741 -0.6311  0.8777 -0.4971
 5059TIP3    H215139   7.437   6.220   4.612  0.1425  2.8460 -0.4165
 5060TIP3   OH215140   4.734   3.921   4.445 -0.1362 -0.1806  0.7404
 5060TIP3    H115141   4.792   3.909   4.520 -0.1684 -1.4303  0.5838
 5060TIP3    H215142   4.678   3.843   4.446 -0.3690 -0.0342 -0.3704
 5061TIP3   OH215143   6.894   6.896   5.810 -0.8739  0.3316  0.3452
 5061TIP3    H115144   6.975   6.932   5.845 -0.3883 -0.5683  0.1834
 5061TIP3    H215145   6.912   6.881   5.717 -1.2543  0.2299  0.2851
 5062TIP3   OH215146   3.978   3.119   6.280 -0.2431 -0.3314 -0.1933
 5062TIP3    H115147   3.939   3.201   6.251  0.1218 -0.6557 -1.6642
 5062TIP3    H215148   4.048   3.145   6.340 -1.0242  0.3587  0.4270
 5063TIP3   OH215149   1.679   0.344   6.219 -0.0629  0.9060  0.0387
 5063TIP3    H115150   1.737   0.310   6.151  0.0043 -0.8151  0.9390
 5063TIP3    H215151   1.626   0.269   6.246 -0.2011  1.6023  1.7763
 5064TIP3   OH215152   7.459   6.481   3.991 -0.2306  0.1730  0.0294
 5064TIP3    H115153   7.473   6.563   4.038  2.7536 -1.0363  1.3739
 5064TIP3    H215154   7.540   6.431   4.004 -1.2274 -2.2164 -2.3434
 5065TIP3   OH215155   2.710   0.568   5.618 -0.2818  0.3444  0.4500
 5065TIP3    H115156   2.639   0.618   5.577 -1.0086  0.2765  1.6263
 5065TIP3    H215157   2.771   0.550   5.546 -0.6892  1.7388 -0.2678
 5066TIP3   OH215158   3.463   0.296   4.156 -0.1397  0.7889  0.5573
 5066TIP3    H115159   3.387   0.252   4.120  1.4095 -1.1756 -0.3895
 5066TIP3    H215160   3.530   0.290   4.088  1.6979  0.1423  2.3438
 5067TIP3   OH215161   0.635   2.976   6.080 -0.1399  0.5270  0.3928
 5067TIP3    H115162   0.570   2.908   6.065  0.6137  0.1434 -1.2537
 5067TIP3    H215163   0.590   3.058   6.058  0.5422  0.0857 -2.9068
 5068TIP3   OH215164   7.730   5.812   0.647  0.0935  0.3129  0.3791
 5068TIP3    H115165   7.811   5.849   0.681  0.0538  1.0821 -0.3230
 5068TIP3    H215166   7.691   5.884   0.596 -0.5708 -0.3346 -0.0362
 5069TIP3   OH215167   0.243   0.106   5.870 -0.0472  0.9257 -0.6809
 5069TIP3    H115168   0.174   0.125   5.807 -0.1285  0.9560 -0.5842
 5069TIP3    H215169   0.300   0.183   5.868  0.6982  0.3577 -1.6893
 5070TIP3   OH215170   0.809   6.868   5.974 -0.0270 -0.1778 -0.1657
 5070TIP3    H115171   0.800   6.775   5.952  2.5293 -0.3440 -0.6903
 5070TIP3    H215172   0.897   6.875   6.013  0.2018  2.1712 -1.0207
 5071TIP3   OH215173   5.205  -0.005   5.319  0.0862 -0.3169  0.2063
 5071TIP3    H115174   5.276   0.042   5.275 -1.4908  1.6144 -0.3570
 5071TIP3    H215175   5.195   0.040   5.403 -0.0211 -1.0528  0.6003
 5072TIP3   OH215176   0.401   6.492   6.297 -0.1995 -0.6819 -0.0918
 5072TIP3    H115177   0.463   6.477   6.227  0.7252 -4.0680  1.3446
 5072TIP3    H215178   0.453   6.528   6.369 -0.7823  0.8894 -0.4325
 5073TIP3   OH215179   1.801   0.993   3.934 -0.2646 -0.7773  0.3801
 5073TIP3    H115180   1.794   0.920   3.996 -0.2067  1.1277  2.6741
 5073TIP3    H215181   1.713   1.031   3.931 -0.1446 -0.5457 -0.3249
 5074TIP3   OH215182   2.495   6.177   5.519  0.5642 -0.3699  0.1291
 5074TIP3    H115183   2.561   6.178   5.588  0.9059  0.9121 -0.1932
 5074TIP3    H215184   2.517   6.252   5.464 -1.0051 -0.0798 -0.1315
 5075TIP3   OH215185   1.498   7.262   4.063 -0.4610 -0.7305  0.6625
 5075TIP3    H115186   1.491   7.167   4.054 -2.0704 -0.4005 -1.9444
 5075TIP3    H215187   1.579   7.285   4.018 -0.2095 -0.8317  1.0616
 5076TIP3   OH215188   4.919   4.142   0.226 -0.6320 -0.4581  0.2338
 5076TIP3    H115189   4.892   4.222   0.180  0.4274  0.7504  1.6399
 5076TIP3    H215190   4.856   4.133   0.298  0.4896  0.3521  1.3596
 5077TIP3   OH215191   5.971   4.051   0.035 -0.0713 -0.2079 -0.5017
 5077TIP3    H115192   5.897   3.996   0.060  0.9971 -1.7726 -0.6961
 5077TIP3    H215193   6.012   4.074   0.119  0.1626 -0.6775 -0.4877
 5078TIP3   OH215194   3.914   0.291   5.838 -0.5293 -0.1313 -0.8811
 5078TIP3    H115195   3.874   0.241   5.909  2.0622 -0.1687  0.6363
 5078TIP3    H215196   4.007   0.296   5.862 -0.0578  2.1104 -2.9541
 5079TIP3   OH215197   4.188   3.651   0.158  0.3982  0.5826 -0.1914
 5079TIP3    H115198   4.097   3.664   0.186  0.6078  1.3405  0.1458
 5079TIP3    H215199   4.223   3.589   0.221 -0.1811 -0.5100 -0.9320
 5080TIP3   OH215200   3.333   2.121   4.716 -0.3540 -0.0974 -0.0344
 5080TIP3    H115201   3.393   2.140   4.788 -0.8920  0.1890  0.3448
 5080TIP3    H215202   3.255   2.086   4.759 -0.4454 -0.4907 -0.5263
 5081TIP3   OH215203   2.643   1.564   2.487  0.0009  0.2931 -0.5562
 5081TIP3    H115204   2.708   1.512   2.440 -0.6571 -0.2382 -0.8840
 5081TIP3    H215205   2.559   1.525   2.463 -0.4272  0.8513  0.0191
 5082TIP3   OH215206   3.770   0.191   6.025  0.4509 -0.4157 -0.0572
 5082TIP3    H115207   3.706   0.217   6.091 -0.2405  0.6578 -1.1390
 5082TIP3    H215208   3.719   0.140   5.962  0.5715  0.7358 -1.1011
 5083TIP3   OH215209   6.393   6.892   4.420  0.3202 -0.1397  0.0395
 5083TIP3    H115210   6.365   6.859   4.505  0.0781 -2.8612 -1.0625
 5083TIP3    H215211   6.356   6.830   4.356  2.6559  0.3837 -1.8928
 5084TIP3   OH215212   2.374   0.277   5.494 -0.3890  0.1910 -0.2859
 5084TIP3    H115213   2.349   0.360   5.534 -0.3365 -0.2936  0.7517
 5084TIP3    H215214   2.312   0.213   5.528 -0.1802 -0.2756 -0.7674
 5085TIP3   OH215215   6.395   7.111   6.041 -0.2481 -0.8751  0.0865
 5085TIP3    H115216   6.333   7.157   5.985 -0.6541 -0.3346  0.9608
 5085TIP3    H215217   6.456   7.068   5.981 -0.3072  0.2067 -0.7559
 5086TIP3   OH215218   2.780   1.006   5.529 -0.4419  0.3343  0.4897
 5086TIP3    H115219   2.698   1.032   5.571 -1.1167  0.7470 -1.0533
 5086TIP3    H215220   2.754   0.975   5.443  1.0165  0.3862  0.0162
 5087TIP3   OH215221   4.125   0.816   4.730 -0.3867  0.1967  0.7728
 5087TIP3    H115222   4.090   0.751   4.669  0.2999 -0.7086  1.3276
 5087TIP3    H215223   4.050   0.872   4.751 -0.6164  0.5590 -0.9459
 5088TIP3   OH215224   0.771   6.050   6.339 -0.3760  0.2972  0.4444
 5088TIP3    H115225   0.812   6.075   6.256  1.6807  0.8187  1.5636
 5088TIP3    H215226   0.737   5.962   6.324 -0.2475  0.4841 -1.0164
 5089TIP3   OH215227   3.128   0.386   5.793  0.3912 -0.0892  0.3174
 5089TIP3    H115228   3.151   0.458   5.734  0.9090 -1.4577 -1.1990
 5089TIP3    H215229   3.183   0.399   5.870 -0.0064  1.5097  0.3384
 5090TIP3   OH215230   1.105   5.418   5.361 -0.1778 -0.1113 -0.1759
 5090TIP3    H115231   1.171   5.438   5.294 -0.2521 -0.4046 -0.3338
 5090TIP3    H215232   1.022   5.424   5.315 -0.2922  0.7363  0.1344
 5091TIP3   OH215233   7.108   6.093   5.419  0.1357 -0.4442  0.5491
 5091TIP3    H115234   7.190   6.139   5.401  0.0919 -0.3897  0.4857
 5091TIP3    H215235   7.114   6.068   5.511 -0.3890  0.8203  0.9375
 5092TIP3   OH215236   2.460   1.022   4.374  0.0904 -0.6595  0.1801
 5092TIP3    H115237   2.443   0.929   4.388  1.0490 -1.0283 -1.0768
 5092TIP3    H215238   2.511   1.026   4.293 -0.2366  0.9872  0.0340
 5093TIP3   OH215239   4.348   6.147   5.096 -0.0905 -0.4856 -0.2312
 5093TIP3    H115240   4.337   6.231   5.141 -0.3482  0.3449 -1.7751
 5093TIP3    H215241   4.422   6.161   5.037  0.3896 -1.6117  0.1063
 5094TIP3   OH215242   5.880   3.446   0.775 -0.0111 -0.2871  0.1486
 5094TIP3    H115243   5.798   3.472   0.817 -0.9954  1.3909 -2.6578
 5094TIP3    H215244   5.858   3.365   0.730  0.7016 -1.4046  1.7650
 5095TIP3   OH215245   4.113   1.775   5.543  0.3171 -0.1315 -0.0904
 5095TIP3    H115246   4.058   1.780   5.465  0.5283 -0.3091 -0.2523
 5095TIP3    H215247   4.173   1.703   5.525  2.3620  1.7200 -1.0597
 5096TIP3   OH215248   2.424   1.408   6.287  0.1346 -0.4420  0.0609
 5096TIP3    H115249   2.393   1.489   6.326 -0.0013  0.5348 -2.0031
 5096TIP3    H215250   2.513   1.427   6.258  0.4498 -1.3250  0.4169
 5097TIP3   OH215251   7.211   0.646   5.948  0.0904 -0.5582  0.2468
 5097TIP3    H115252   7.176   0.668   6.035  1.3284  3.0805 -0.1132
 5097TIP3    H215253   7.144   0.678   5.887 -0.0034 -1.6049 -0.2041
 5098TIP3   OH215254   3.514   0.489   3.573 -0.6259 -0.5976 -0.3763
 5098TIP3    H115255   3.434   0.457   3.531 -2.0127 -0.6534  2.1990
 5098TIP3    H215256   3.504   0.584   3.572 -0.6372 -0.5980 -0.1929
 5099TIP3   OH215257   4.507   0.527   4.784 -0.2490 -0.3485 -0.2523
 5099TIP3    H115258   4.438   0.540   4.849 -0.2150 -1.4883  0.0138
 5099TIP3    H215259   4.520   0.614   4.745 -1.2364  0.0447  0.2874
 5100TIP3   OH215260   4.558   1.176   4.473 -0.5471 -0.1467  0.5054
 5100TIP3    H115261   4.515   1.174   4.387  3.0244 -1.4467 -1.3673
 5100TIP3    H215262   4.591   1.087   4.485 -0.0156  0.3186  2.7394
 5101TIP3   OH215263   1.231   0.902   5.747 -0.8251  0.7391  0.4603
 5101TIP3    H115264   1.153   0.872   5.701 -0.9681  2.4220 -0.4454
 5101TIP3    H215265   1.292   0.928   5.678  0.4203 -0.2532  1.1660
 5102TIP3   OH215266   3.326   1.464   2.802  0.2325 -0.3701  0.3629
 5102TIP3    H115267   3.262   1.497   2.739 -1.7007 -2.1535  1.3440
 5102TIP3    H215268   3.318   1.521   2.878 -1.4872 -1.6571  1.1722
 5103TIP3   OH215269   2.044   6.884   4.162 -0.3792  0.2014  0.3360
 5103TIP3    H115270   1.962   6.837   4.152  0.2261 -0.9837  0.8506
 5103TIP3    H215271   2.112   6.817   4.153  0.5067  1.0316  0.6836
 5104TIP3   OH215272   2.720   2.160   5.363 -0.0879  0.1287 -0.2639
 5104TIP3    H115273   2.639   2.179   5.315 -1.5474 -3.2217  0.6758
 5104TIP3    H215274   2.734   2.066   5.349  1.6430 -0.1004  2.5532
 5105TIP3   OH215275   6.304   5.994   5.097  0.1823 -0.3474  0.1031
 5105TIP3    H115276   6.370   6.057   5.067 -0.1873  0.2362  0.5025
 5105TIP3    H215277   6.315   5.919   5.038  0.5951  0.1071 -0.4155
 5106TIP3   OH215278   7.509   7.059   4.270  0.6650  0.5197  0.3152
 5106TIP3    H115279   7.558   7.141   4.273  0.9184  0.4272 -0.9424
 5106TIP3    H215280   7.537   7.018   4.188 -1.2066  0.2780 -0.2304
 5107TIP3   OH215281   2.223   0.739   5.374  0.7563  0.8131  0.3625
 5107TIP3    H115282   2.253   0.648   5.377  3.1439  1.5289 -0.5024
 5107TIP3    H215283   2.143   0.740   5.426  0.4336 -1.8740 -0.0207
 5108TIP3   OH215284   4.229   2.644   6.330  0.8044  0.2883 -0.1486
 5108TIP3    H115285   4.308   2.639   6.277  0.9231 -1.5960  0.1485
 5108TIP3    H215286   4.260   2.635   6.420  0.0257 -4.1897 -0.2049
 5109TIP3   OH215287   0.046   6.733   4.923 -0.0639 -0.1905  0.1665
 5109TIP3    H115288   0.121   6.792   4.910 -0.1125 -0.2862 -0.5620
 5109TIP3    H215289   0.069   6.683   5.002  0.6539 -0.2403 -0.0689
 5110TIP3   OH215290   1.520   0.544   5.562  0.2463  0.2103  0.2194
 5110TIP3    H115291   1.539   0.466   5.509  2.6122  0.4831  0.6152
 5110TIP3    H215292   1.454   0.515   5.625 -0.8768 -0.7381 -1.3739
 5111TIP3   OH215293   1.773   1.771   3.701  0.3203 -0.3619 -0.0529
 5111TIP3    H115294   1.762   1.858   3.740  0.4578 -0.2208 -0.3299
 5111TIP3    H215295   1.686   1.748   3.667  0.1130 -0.6345  0.6401
 5112TIP3   OH215296   1.499   1.440   6.303 -0.5468 -0.3990  0.1177
 5112TIP3    H115297   1.533   1.352   6.321  1.4382  0.2051 -0.4708
 5112TIP3    H215298   1.404   1.429   6.299 -0.6735 -1.7928  4.1430
 5113TIP3   OH215299   4.500   1.432   5.902 -0.4896  1.1161  0.2322
 5113TIP3    H115300   4.425   1.482   5.867 -0.3138  0.7742 -0.6463
 5113TIP3    H215301   4.484   1.428   5.996 -0.7553  2.4198  0.2492
 5114TIP3   OH215302   0.405   7.108   5.939 -0.3517 -0.0198 -0.5173
 5114TIP3    H115303   0.359   7.191   5.939 -0.9318 -0.3333  1.6987
 5114TIP3    H215304   0.342   7.045   5.903 -0.3009  0.2597 -1.1101
 5115TIP3   OH215305   6.277   2.688   0.160 -0.1714  0.2203  0.4638
 5115TIP3    H115306   6.288   2.721   0.249  0.5488  0.3634  0.3272
 5115TIP3    H215307   6.360   2.708   0.117 -0.4002 -0.1359 -0.1476
 5116TIP3   OH215308   3.533   2.647   5.985  0.0687  0.4794 -0.2477
 5116TIP3    H115309   3.506   2.556   5.975  0.2832  0.4729 -0.7486
 5116TIP3    H215310   3.450   2.695   5.997  0.0016  0.1345  0.7083
 5117TIP3   OH215311   1.898   2.936   5.676 -0.2658  0.0915  0.3341
 5117TIP3    H115312   1.859   2.919   5.590  0.6205 -1.0375  0.1383
 5117TIP3    H215313   1.844   2.884   5.736  1.1406 -1.8117  0.0095
 5118TIP3   OH215314   3.517   0.625   4.244  0.5828  0.6677 -0.6121
 5118TIP3    H115315   3.602   0.584   4.229  0.2975 -0.6814  1.3413
 5118TIP3    H215316   3.453   0.557   4.222 -0.0076  1.5718 -1.7678
 5119TIP3   OH215317   3.391   5.327   0.053  0.7809  0.6151 -0.2205
 5119TIP3    H115318   3.348   5.329   0.139 -1.1822  2.0005 -1.1914
 5119TIP3    H215319   3.384   5.235   0.025  0.2324  0.4306  0.5177
 5120TIP3   OH215320   1.693   6.493   3.838 -0.8241  0.2379 -0.2000
 5120TIP3    H115321   1.670   6.449   3.756 -0.6407 -0.1640 -0.0407
 5120TIP3    H215322   1.752   6.563   3.812  1.7148 -1.8000 -0.1178
 5121TIP3   OH215323   3.828   2.682   4.602  0.7362  0.5094  0.1445
 5121TIP3    H115324   3.901   2.641   4.556  1.2974  2.1812 -0.5019
 5121TIP3    H215325   3.823   2.635   4.685  0.7544 -1.4673 -0.9526
 5122TIP3   OH215326   7.150   0.483   5.711  0.1414  0.4610 -0.2930
 5122TIP3    H115327   7.157   0.515   5.801 -0.6486 -0.3872  0.0729
 5122TIP3    H215328   7.234   0.439   5.695  0.3999  0.8739 -0.0799
 5123TIP3   OH215329   1.682   2.151   5.783 -0.0159 -0.2382 -0.0855
 5123TIP3    H115330   1.595   2.112   5.774 -0.0620 -0.3968  0.9777
 5123TIP3    H215331   1.666   2.245   5.784 -0.3491 -0.2932  1.6675
 5124TIP3   OH215332   5.011   4.090   1.300 -0.2294  0.1808 -0.2058
 5124TIP3    H115333   5.016   4.178   1.263 -1.1826  0.8094  1.1306
 5124TIP3    H215334   5.023   4.103   1.394 -0.7126 -1.0926  0.0366
 5125TIP3   OH215335   1.739   1.341   4.178  0.0454 -0.1647 -0.0453
 5125TIP3    H115336   1.675   1.404   4.144 -0.7772 -0.4289  0.9999
 5125TIP3    H215337   1.801   1.330   4.106 -1.0317  0.1592 -1.0561
 5126TIP3   OH215338   1.905   1.151   5.559  0.3154  0.3657  0.1518
 5126TIP3    H115339   1.974   1.217   5.561  0.0978  0.5670  1.2329
 5126TIP3    H215340   1.928   1.090   5.629 -0.7499  0.5909  0.7049
 5127TIP3   OH215341   3.529   0.432   5.478 -0.0676  0.2152  0.4073
 5127TIP3    H115342   3.482   0.378   5.541 -0.3166  1.0243  0.9189
 5127TIP3    H215343   3.517   0.521   5.509 -0.2435  0.6287 -0.8204
 5128TIP3   OH215344   7.160   5.638   4.782  0.7526  0.0310  0.3262
 5128TIP3    H115345   7.186   5.554   4.820  0.1752 -0.5614 -0.5667
 5128TIP3    H215346   7.066   5.629   4.766  0.2424  1.6470  2.2240
 5129TIP3   OH215347   4.696   0.233   4.358 -0.3190  0.2090 -0.2784
 5129TIP3    H115348   4.636   0.255   4.429 -0.2746 -0.2699 -0.0936
 5129TIP3    H215349   4.769   0.189   4.401 -0.7537 -0.9784 -0.7413
 5130TIP3   OH215350   3.276   1.558   4.362  0.4977 -0.1080  0.4239
 5130TIP3    H115351   3.183   1.536   4.358  0.2998  0.8214 -0.2565
 5130TIP3    H215352   3.283   1.620   4.434  0.0527  2.2564 -1.4807
 5131TIP3   OH215353   7.110   7.049   3.827 -0.0943  0.5354 -0.6153
 5131TIP3    H115354   7.092   7.134   3.868  0.1811  0.5729 -0.5676
 5131TIP3    H215355   7.041   6.991   3.859 -1.8388  1.3898 -2.6923
 5132TIP3   OH215356   0.857   6.566   5.915 -0.3318 -0.0281 -0.1702
 5132TIP3    H115357   0.805   6.595   5.839  0.0146 -2.2914 -1.3166
 5132TIP3    H215358   0.941   6.541   5.877  0.4298  0.4055  1.2162
 5133TIP3   OH215359   7.067   4.927   0.512  0.4507 -0.4393  0.1512
 5133TIP3    H115360   7.096   4.858   0.452  0.9587  0.6546 -0.8742
 5133TIP3    H215361   7.137   4.992   0.509  0.0236  0.0712  1.2002
 5134TIP3   OH215362   2.571   1.720   5.074 -0.2804 -0.3543  0.0467
 5134TIP3    H115363   2.597   1.797   5.022  0.0909 -0.6067 -0.1428
 5134TIP3    H215364   2.581   1.748   5.165  0.9636 -0.5494 -0.0237
 5135TIP3   OH215365   7.096   3.327   0.467 -0.7235 -0.6458  0.1279
 5135TIP3    H115366   7.119   3.416   0.440 -1.3641 -0.0026  1.6412
 5135TIP3    H215367   7.038   3.295   0.398 -0.8847  0.2794 -0.1668
 5136TIP3   OH215368   3.000   7.057   2.781  0.1037 -0.8269 -0.6893
 5136TIP3    H115369   2.956   7.010   2.851 -2.2633 -0.8141 -2.1052
 5136TIP3    H215370   2.976   7.149   2.794 -0.1771 -0.7988 -1.3995
 5137TIP3   OH215371   7.154   0.100   5.384 -0.3451 -0.3565  0.0042
 5137TIP3    H115372   7.107   0.064   5.459 -0.8581 -0.8307 -0.5364
 5137TIP3    H215373   7.246   0.083   5.403 -0.4410 -0.0654  0.7369
 5138TIP3   OH215374   2.963   1.580   4.773 -0.3710  0.1067 -0.2187
 5138TIP3    H115375   2.984   1.645   4.840 -0.2531 -0.6870  0.5267
 5138TIP3    H215376   2.967   1.628   4.690  0.0814  0.9562  0.2932
 5139TIP3   OH215377   5.879   3.584   0.185 -0.2459  0.1731 -0.3089
 5139TIP3    H115378   5.818   3.644   0.142 -0.5581  0.0956  0.0256
 5139TIP3    H215379   5.936   3.554   0.114 -1.0941 -0.3714 -0.7732
 5140TIP3   OH215380   2.493   2.240   5.194  0.2289  0.5388 -0.0316
 5140TIP3    H115381   2.582   2.276   5.188  0.5956 -0.6459 -2.3427
 5140TIP3    H215382   2.468   2.223   5.103 -2.4539  1.0136  0.5843
 5141TIP3   OH215383   5.305   4.316   0.563  0.4689  0.3363  0.5727
 5141TIP3    H115384   5.247   4.242   0.546  0.2122  0.7411 -0.3137
 5141TIP3    H215385   5.384   4.297   0.512  0.6335  0.3960  0.8012
 5142TIP3   OH215386   4.240   0.794   6.366 -0.1650  0.3321  0.3003
 5142TIP3    H115387   4.242   0.850   6.289 -0.4250  1.0162  0.7852
 5142TIP3    H215388   4.328   0.801   6.403  0.2174 -0.6605 -0.3975
 5143TIP3   OH215389   2.832   0.132   6.295 -0.0341 -0.9665  0.0489
 5143TIP3    H115390   2.776   0.100   6.225 -1.5806 -0.2264  0.9205
 5143TIP3    H215391   2.778   0.195   6.343  1.7319  0.1975  0.5790
 5144TIP3   OH215392   5.292   2.921   0.230 -0.4758  0.3440  0.4725
 5144TIP3    H115393   5.253   2.843   0.271 -3.1163  1.2635 -0.1878
 5144TIP3    H215394   5.284   2.905   0.136 -1.8516  1.7847  0.3305
 5145TIP3   OH215395   7.640   6.616   4.791  0.3602  0.0542  0.1321
 5145TIP3    H115396   7.691   6.536   4.795  0.1418 -0.2874 -2.5216
 5145TIP3    H215397   7.699   6.685   4.820  1.6654 -0.6290 -0.8603
 5146TIP3   OH215398   1.875   0.245   5.607  0.7054  0.4036 -0.3235
 5146TIP3    H115399   1.836   0.332   5.612  1.4930  0.8862 -2.0451
 5146TIP3    H215400   1.945   0.247   5.672  0.1286  0.7557  0.2837
 5147TIP3   OH215401   7.812   6.871   3.841 -0.1946 -0.2980  1.2199
 5147TIP3    H115402   7.756   6.796   3.823  0.7661 -0.4345 -1.4648
 5147TIP3    H215403   7.752   6.942   3.861 -1.2939 -0.7953 -0.2209
 5148TIP3   OH215404   7.652   7.230   3.829  0.0229  0.4804 -0.8316
 5148TIP3    H115405   7.667   7.227   3.734 -2.4627  0.3835 -1.2561
 5148TIP3    H215406   7.617   7.318   3.845 -0.6720  0.0961 -0.1917
 5149TIP3   OH215407   6.049   5.819   1.212  0.3961  0.2256  0.5474
 5149TIP3    H115408   6.108   5.815   1.287  1.5695 -1.0251 -0.4044
 5149TIP3    H215409   6.082   5.752   1.152 -1.8302 -0.3086 -0.1416
 5150TIP3   OH215410   1.965   1.566   3.250  0.0875  0.2451  0.3646
 5150TIP3    H115411   2.038   1.508   3.225  0.4348  0.9744 -0.3470
 5150TIP3    H215412   1.970   1.638   3.187  0.6237  1.8516  2.2061
 5151TIP3   OH215413   0.974   5.521   1.574  0.7456  0.1441 -0.8630
 5151TIP3    H115414   0.920   5.600   1.573  1.1060  0.3876 -2.1532
 5151TIP3    H215415   1.021   5.523   1.491  1.3652 -1.0138 -0.5522
 5152TIP3   OH215416   4.463   0.183   5.300  0.2265 -0.0354 -0.3483
 5152TIP3    H115417   4.511   0.258   5.265 -1.4728  1.5113  0.5242
 5152TIP3    H215418   4.427   0.139   5.223 -1.5669  2.0157 -0.7192
 5153TIP3   OH215419   2.712   6.984   3.939  0.9234 -0.8986 -0.1505
 5153TIP3    H115420   2.801   6.997   3.972  0.6916  0.8663 -0.1874
 5153TIP3    H215421   2.682   6.904   3.983  2.6263 -1.6904 -0.3864
 5154TIP3   OH215422   5.131   0.807   5.923  0.4889  0.5953 -0.0370
 5154TIP3    H115423   5.167   0.893   5.946 -1.9210  2.2088 -1.9453
 5154TIP3    H215424   5.091   0.820   5.838  0.6931 -2.6678 -0.7059
 5155TIP3   OH215425   2.839   2.021   6.201  0.1480  0.8152  0.6573
 5155TIP3    H115426   2.811   2.035   6.292  0.6385 -1.5197  1.1965
 5155TIP3    H215427   2.934   2.027   6.204  0.2669 -0.9828  0.6176
 5156TIP3   OH215428   4.869   0.243   2.241 -0.2620  0.2667 -0.5365
 5156TIP3    H115429   4.801   0.290   2.192 -1.2082 -1.3965 -0.8687
 5156TIP3    H215430   4.891   0.301   2.314 -0.5522  1.7344 -1.5886
 5157TIP3   OH215431   3.622   2.138   5.932  1.3421 -0.0846  0.5214
 5157TIP3    H115432   3.557   2.164   5.866  2.3734  1.9471  0.2809
 5157TIP3    H215433   3.642   2.047   5.911  0.1714 -0.0717 -0.7384
 5158TIP3   OH215434   5.692   4.312   0.767 -0.1164  0.2908  0.4608
 5158TIP3    H115435   5.703   4.278   0.856  0.3063  0.5748  0.5157
 5158TIP3    H215436   5.621   4.259   0.730  0.9063 -1.0442  0.3539
 5159TIP3   OH215437   3.878   4.966   1.488  0.4887  0.1225 -0.4233
 5159TIP3    H115438   3.970   4.982   1.468  0.8570  1.8223  2.4383
 5159TIP3    H215439   3.834   5.049   1.468 -0.2587 -0.3347 -0.7256
 5160TIP3   OH215440   2.022   6.991   6.145  0.0562  0.1125  0.0152
 5160TIP3    H115441   2.101   7.031   6.109 -0.0841 -0.1572 -0.5970
 5160TIP3    H215442   2.002   7.043   6.223  0.1651  0.9214 -0.4878
 5161TIP3   OH215443   0.081   7.306   4.579  0.0554 -0.1627 -0.4648
 5161TIP3    H115444   0.083   7.335   4.670  1.0531 -0.2553 -0.4545
 5161TIP3    H215445   0.159   7.252   4.569  0.2269  0.2564 -1.5085
 5162TIP3   OH215446   0.260   5.954   6.138  0.6052 -0.0734 -0.6190
 5162TIP3    H115447   0.265   5.867   6.177  0.0228  0.0331 -0.3058
 5162TIP3    H215448   0.178   5.953   6.088  0.6696  0.2474 -0.7284
 5163TIP3   OH215449   0.918   4.400   0.074  0.2832 -0.5812  0.3072
 5163TIP3    H115450   0.988   4.417   0.136  0.8964  0.5972 -0.6747
 5163TIP3    H215451   0.894   4.487   0.039 -1.4941 -0.9819  0.4464
 5164TIP3   OH215452   5.250   3.986   0.978 -0.2471  0.4101  0.0559
 5164TIP3    H115453   5.170   4.013   1.024  0.1187 -0.8654  1.4859
 5164TIP3    H215454   5.241   3.891   0.969  1.0173  0.2875  0.0372
 5165TIP3   OH215455   7.016   1.986   0.418  0.6135  0.1076 -0.1111
 5165TIP3    H115456   7.005   2.055   0.483  1.0844 -1.2404  1.4301
 5165TIP3    H215457   6.948   1.922   0.438 -0.5329  0.6422 -2.2311
 5166TIP3   OH215458   7.477   5.784   3.043 -0.1264  0.2585  0.1131
 5166TIP3    H115459   7.407   5.849   3.047 -0.4910 -0.2412  2.8851
 5166TIP3    H215460   7.556   5.831   3.066  0.1344  0.3823 -1.0073
 5167TIP3   OH215461   0.622   6.468   1.378 -0.2420 -0.0473 -0.3112
 5167TIP3    H115462   0.536   6.493   1.412 -0.0035  0.2198  0.1026
 5167TIP3    H215463   0.623   6.503   1.289 -0.9264 -0.8783 -0.6538
 5168TIP3   OH215464   2.942   1.546   5.785 -0.0376  0.5046  0.1143
 5168TIP3    H115465   2.999   1.585   5.851 -1.2753  0.1499  1.4147
 5168TIP3    H215466   2.943   1.608   5.712  2.8918 -0.0427 -0.3685
 5169TIP3   OH215467   2.440   2.458   4.638  0.5850 -0.3107  0.0487
 5169TIP3    H115468   2.499   2.383   4.630  0.5884 -0.2537 -0.4415
 5169TIP3    H215469   2.424   2.465   4.732  1.1948 -0.4589  0.1685
 5170TIP3   OH215470   3.628   1.892   5.270  1.0895 -0.1676 -0.0365
 5170TIP3    H115471   3.657   1.957   5.334 -1.5798  1.0756 -0.0212
 5170TIP3    H215472   3.663   1.923   5.186 -1.1921  2.0208 -0.2246
 5171TIP3   OH215473   2.304   1.484   4.055  0.3863  0.4677  0.0544
 5171TIP3    H115474   2.272   1.534   3.979  0.2180  0.7454  0.3027
 5171TIP3    H215475   2.320   1.396   4.022  2.1687  1.0732 -0.7453
 5172TIP3   OH215476   6.131   6.265   1.647 -0.6341  0.4440 -0.3240
 5172TIP3    H115477   6.122   6.215   1.728  1.4623 -0.0412 -0.3447
 5172TIP3    H215478   6.224   6.257   1.625 -0.9354  1.6094 -2.1074
 5173TIP3   OH215479   4.007   0.997   5.508  0.6433  0.1579  0.1557
 5173TIP3    H115480   3.967   1.083   5.494 -0.0607 -0.1164  0.4932
 5173TIP3    H215481   3.961   0.961   5.583  0.5961 -0.7353 -0.3040
 5174TIP3   OH215482   4.365   1.844   5.318 -0.0104 -0.0076  0.1664
 5174TIP3    H115483   4.428   1.773   5.323  0.9217  0.7457 -0.6825
 5174TIP3    H215484   4.280   1.801   5.309  0.5921 -1.0112 -0.8155
 5175TIP3   OH215485   3.197   0.759   3.749  0.7233  0.2709  0.2068
 5175TIP3    H115486   3.250   0.687   3.784 -0.1562 -1.3794 -1.7341
 5175TIP3    H215487   3.249   0.837   3.767  2.4874 -1.0056  0.8883
 5176TIP3   OH215488   3.483   1.377   5.579 -0.3486  0.0498  0.2640
 5176TIP3    H115489   3.454   1.442   5.643 -0.0573 -0.0414  0.4834
 5176TIP3    H215490   3.577   1.390   5.572 -0.6197  1.3024 -1.5120
 5177TIP3   OH215491   4.770   6.762   3.564 -0.1744 -0.0413  0.5221
 5177TIP3    H115492   4.780   6.692   3.499 -0.0515 -1.6440  2.2394
 5177TIP3    H215493   4.814   6.837   3.524  0.3722 -1.1397 -1.0268
 5178TIP3   OH215494   7.456   6.079   4.889 -0.9795 -0.4461  0.7028
 5178TIP3    H115495   7.422   6.127   4.965 -1.2425 -0.1168  0.3820
 5178TIP3    H215496   7.393   6.009   4.875 -2.2923  0.9663 -0.7196
 5179TIP3   OH215497   1.381   0.081   4.521 -0.1968 -0.0964  0.1499
 5179TIP3    H115498   1.350   0.034   4.598 -0.9971  0.5501  0.2292
 5179TIP3    H215499   1.335   0.040   4.448  0.0343 -0.2461  0.0871
 5180TIP3   OH215500   6.737   6.389   3.477  0.0287 -0.5738  0.0382
 5180TIP3    H115501   6.688   6.336   3.540 -0.5624 -0.7510 -0.5590
 5180TIP3    H215502   6.681   6.391   3.399  0.5266  0.0497 -0.3109
 5181TIP3   OH215503   3.082   1.517   3.969  0.1395  0.5413  0.2308
 5181TIP3    H115504   3.172   1.546   3.955  0.6726 -1.3797 -0.4491
 5181TIP3    H215505   3.030   1.598   3.963  1.8429  1.7427  1.1512
 5182TIP3   OH215506   0.135   7.027   4.797 -0.2439 -0.1322  0.6587
 5182TIP3    H115507   0.195   7.063   4.731 -0.4539 -1.6769 -0.3952
 5182TIP3    H215508   0.075   7.099   4.817 -0.3817  0.2538 -1.0923
 5183TIP3   OH215509   6.420   6.199   1.667  0.0992 -0.7709  0.2846
 5183TIP3    H115510   6.474   6.246   1.731 -0.2195 -0.5247  0.3779
 5183TIP3    H215511   6.415   6.110   1.700  0.5660 -0.8308  0.2004
 5184TIP3   OH215512   0.751   0.228   6.041  0.1973  0.2567  0.3479
 5184TIP3    H115513   0.709   0.252   5.958 -1.0233  0.6953  1.0829
 5184TIP3    H215514   0.840   0.204   6.016 -0.1627  0.3547 -1.1013
 5185TIP3   OH215515   3.760   1.373   3.463  0.2865 -0.0573  0.1994
 5185TIP3    H115516   3.749   1.428   3.385  1.2590  0.1152  0.1741
 5185TIP3    H215517   3.847   1.394   3.495  0.0869 -0.5043  1.0507
 5186TIP3   OH215518   3.218   0.528   4.934 -0.2136 -0.2336 -0.3439
 5186TIP3    H115519   3.271   0.458   4.895  1.0931  1.5219 -1.7583
 5186TIP3    H215520   3.269   0.608   4.920 -1.9002  1.0897  0.8592
 5187TIP3   OH215521   5.182   7.304   4.149 -0.2299 -0.3348 -0.0361
 5187TIP3    H115522   5.142   7.368   4.208  0.6969 -0.2845  0.5409
 5187TIP3    H215523   5.169   7.220   4.193 -0.7016 -0.4540 -0.3952
 5188TIP3   OH215524   4.183   1.878   2.409  0.6010  0.5889 -0.1938
 5188TIP3    H115525   4.212   1.790   2.433  1.9526  1.5682  1.8809
 5188TIP3    H215526   4.089   1.879   2.426  0.3494 -0.8138 -1.4086
 5189TIP3   OH215527   4.374   2.649   4.346 -0.1317  0.2203 -0.0068
 5189TIP3    H115528   4.357   2.557   4.326 -0.6364  0.5505 -1.0965
 5189TIP3    H215529   4.336   2.698   4.273  0.7602  1.2597  0.2010
 5190TIP3   OH215530   4.138   0.706   4.182  0.1064  0.2332  0.1811
 5190TIP3    H115531   4.098   0.703   4.269 -1.3444  0.7768 -0.4535
 5190TIP3    H215532   4.162   0.615   4.163 -1.6107 -0.2495  0.2232
 5191TIP3   OH215533   6.235   2.158   4.026  0.0483  0.2890 -0.6087
 5191TIP3    H115534   6.267   2.237   4.070 -1.7196 -0.3134  1.8954
 5191TIP3    H215535   6.172   2.121   4.088  0.1102 -2.5385 -2.1722
 5192TIP3   OH215536   3.812   0.829   5.227 -0.2782  0.0148  0.5204
 5192TIP3    H115537   3.745   0.870   5.171  1.2637  3.0653  0.7985
 5192TIP3    H215538   3.762   0.788   5.298 -1.9745  0.3167 -0.4598
 5193TIP3   OH215539   5.235   0.968   4.618  0.6243 -0.4265 -0.2209
 5193TIP3    H115540   5.280   1.009   4.691  1.3028  0.6864 -1.2354
 5193TIP3    H215541   5.188   0.894   4.656 -0.6897  1.3252  1.6763
 5194TIP3   OH215542   7.330   5.297   0.287 -0.1200 -0.6526 -0.1824
 5194TIP3    H115543   7.264   5.366   0.283 -2.2195 -2.5574  0.9922
 5194TIP3    H215544   7.413   5.344   0.300 -1.4513  1.6637  0.1256
 5195TIP3   OH215545   7.055   3.555   0.253 -0.3344 -0.0678 -0.2027
 5195TIP3    H115546   7.002   3.515   0.184  0.2405 -0.9878 -0.1126
 5195TIP3    H215547   6.992   3.578   0.321 -0.7792 -0.0166 -0.6313
 5196TIP3   OH215548   5.883   1.080   6.099  0.8058  0.1375 -0.2363
 5196TIP3    H115549   5.868   1.140   6.172  0.2701 -1.1325  0.7175
 5196TIP3    H215550   5.906   1.137   6.025 -1.5715  1.6507  0.1396
 5197TIP3   OH215551   4.701   1.052   5.533  0.2935  0.2380 -0.3882
 5197TIP3    H115552   4.776   1.107   5.510  0.9988 -1.2200 -1.6568
 5197TIP3    H215553   4.640   1.062   5.459  0.1375 -0.1817 -0.3177
 5198TIP3   OH215554   6.512   0.586   4.788 -0.3801 -0.0628  0.3849
 5198TIP3    H115555   6.497   0.531   4.712  0.2630 -1.6131  1.3521
 5198TIP3    H215556   6.505   0.675   4.755  1.6730 -0.6866 -1.8599
 5199TIP3   OH215557   7.413   2.079   5.843 -1.2027 -0.5598  0.4754
 5199TIP3    H115558   7.332   2.044   5.806 -2.1066  2.8780 -1.0189
 5199TIP3    H215559   7.395   2.172   5.856  2.3011  0.1514  0.7526
 5200TIP3   OH215560   4.009   0.357   3.691  0.4322  0.0267  0.2507
 5200TIP3    H115561   4.041   0.285   3.745 -1.6553 -1.2225 -0.1350
 5200TIP3    H215562   4.057   0.349   3.609  0.4678 -0.6920  0.3391
 5201TIP3   OH215563   2.998   1.134   5.222 -0.4370 -0.2296 -0.2599
 5201TIP3    H115564   3.090   1.109   5.233 -0.5675 -0.5744  0.0492
 5201TIP3    H215565   2.949   1.053   5.240 -0.8468  0.1878  0.5003
 5202TIP3   OH215566   5.838   1.554   5.800  0.0361  0.1260 -0.1107
 5202TIP3    H115567   5.785   1.485   5.839  2.8111 -1.0615  1.5924
 5202TIP3    H215568   5.871   1.516   5.719 -1.2978  0.7212 -0.9575
 5203TIP3   OH215569   2.501   1.568   5.933 -0.1000 -0.1559  0.2043
 5203TIP3    H115570   2.464   1.521   5.858  0.2355  0.7517 -0.5347
 5203TIP3    H215571   2.522   1.499   5.996 -0.3552 -0.9287 -0.5444
 5204TIP3   OH215572   6.836   2.013   4.090  0.1645 -0.0461 -0.5837
 5204TIP3    H115573   6.811   1.953   4.159  2.3718 -1.7988 -1.2540
 5204TIP3    H215574   6.810   2.099   4.123 -3.2440 -1.3203  0.2802
 5205TIP3   OH215575   6.318   2.394   4.835 -0.3226  0.0658 -0.1486
 5205TIP3    H115576   6.342   2.358   4.750 -2.3232  0.3003 -0.8380
 5205TIP3    H215577   6.223   2.399   4.834 -0.5603 -2.0357  2.9885
 5206TIP3   OH215578   5.969   0.818   5.249 -0.4323  0.8141 -0.0556
 5206TIP3    H115579   5.935   0.885   5.308 -0.9301 -1.2188  2.0475
 5206TIP3    H215580   6.053   0.793   5.287 -1.9388 -2.3860  1.4267
 5207TIP3   OH215581   6.570   1.549   5.172 -0.3369 -0.0990  0.0022
 5207TIP3    H115582   6.574   1.543   5.076  1.2921  0.6074  0.0059
 5207TIP3    H215583   6.538   1.464   5.200  1.0209 -0.9856 -1.0818
 5208TIP3   OH215584   4.399   0.191   5.587 -0.4592 -0.6481  0.1717
 5208TIP3    H115585   4.416   0.164   5.496  0.2239  0.4304 -0.0179
 5208TIP3    H215586   4.475   0.161   5.636  1.1579  2.4461 -0.3433
 5209TIP3   OH215587   3.386   1.402   4.584  0.0446  0.4371 -0.0366
 5209TIP3    H115588   3.358   1.423   4.673 -0.3343 -0.7178  0.1341
 5209TIP3    H215589   3.355   1.476   4.531 -1.6497  0.1181  0.4575
 5210TIP3   OH215590   3.758   0.373   4.696  0.2824  0.6263  0.0702
 5210TIP3    H115591   3.742   0.361   4.790  0.2643 -2.1311 -0.2456
 5210TIP3    H215592   3.670   0.380   4.658  0.2827  1.4961  0.2315
 5211TIP3   OH215593   4.792   2.177   2.692  0.3636 -0.1481 -0.3959
 5211TIP3    H115594   4.796   2.200   2.785 -0.2312  1.7765 -0.8374
 5211TIP3    H215595   4.865   2.223   2.653  1.3359 -1.9235 -0.6997
 5212TIP3   OH215596   5.486   0.829   4.564 -0.0840 -0.0238 -0.4788
 5212TIP3    H115597   5.403   0.840   4.610  0.9441 -1.6103  1.9244
 5212TIP3    H215598   5.539   0.904   4.593  0.4032 -0.7709  0.6086
 5213TIP3   OH215599   2.914   6.899   2.105 -0.3476  0.0485 -0.3152
 5213TIP3    H115600   2.969   6.913   2.027  0.7483  1.0634  0.6261
 5213TIP3    H215601   2.851   6.832   2.078  0.8519 -0.5537 -1.6600
 5214TIP3   OH215602   3.598   2.331   5.276 -0.1216 -0.0120  0.0092
 5214TIP3    H115603   3.638   2.349   5.361  1.2241 -0.9764 -0.4046
 5214TIP3    H215604   3.671   2.336   5.214 -0.6248 -1.8822 -0.7545
 5215TIP3   OH215605   4.924   4.924   1.138 -0.0837  0.2668 -0.3563
 5215TIP3    H115606   4.994   4.874   1.096  0.4670  2.1635 -1.7229
 5215TIP3    H215607   4.957   4.940   1.227 -0.7253 -2.6753  0.4604
 5216TIP3   OH215608   3.381   1.909   3.221  0.0025  0.1480  0.1876
 5216TIP3    H115609   3.309   1.905   3.285  0.2184  0.3000  0.4429
 5216TIP3    H215610   3.372   1.829   3.170  0.6787 -0.6724  1.3215
 5217TIP3   OH215611   3.933   0.514   2.332  0.0171  0.1206  0.2535
 5217TIP3    H115612   3.895   0.560   2.258  0.7533  0.6432  0.1918
 5217TIP3    H215613   4.019   0.487   2.302 -0.8456 -2.3422 -0.1026
 5218TIP3   OH215614   4.582   1.143   4.194  0.1712 -0.1085 -0.7558
 5218TIP3    H115615   4.665   1.158   4.148  1.7211 -2.4909  1.1495
 5218TIP3    H215616   4.536   1.078   4.140  0.5390 -0.4682 -0.6369
 5219TIP3   OH215617   7.174   5.103   0.889 -0.3821  0.0140 -0.4480
 5219TIP3    H115618   7.106   5.159   0.851 -0.3252  0.3014 -0.1398
 5219TIP3    H215619   7.132   5.066   0.968  0.1538  1.0231  0.3264
 5220TIP3   OH215620   4.283   1.638   5.142 -0.4994  0.6347 -0.2358
 5220TIP3    H115621   4.362   1.688   5.122 -0.5667  0.8079 -0.0614
 5220TIP3    H215622   4.262   1.593   5.060  0.6140 -0.5627  0.1215
 5221TIP3   OH215623   2.694   3.141   5.243  0.3078 -0.3536 -0.0208
 5221TIP3    H115624   2.721   3.050   5.240  0.1933 -0.3690 -0.5604
 5221TIP3    H215625   2.598   3.138   5.237  0.4276 -0.0828 -2.5518
 5222TIP3   OH215626   6.774   4.954   0.511  0.4509  0.1861  0.0691
 5222TIP3    H115627   6.775   4.937   0.417  0.2013 -0.4617  0.1865
 5222TIP3    H215628   6.866   4.969   0.534  0.5534 -0.0428 -0.2022
 5223TIP3   OH215629   3.623   1.085   4.064 -0.0861  0.2202  0.6116
 5223TIP3    H115630   3.616   1.003   4.016  0.6620  0.5790 -0.1271
 5223TIP3    H215631   3.688   1.069   4.131  0.2634  0.2872  0.2906
 5224TIP3   OH215632   6.512   6.263   0.773  0.1062 -0.6930  0.1830
 5224TIP3    H115633   6.428   6.233   0.739  0.2509 -0.7377 -0.1414
 5224TIP3    H215634   6.489   6.327   0.840 -0.2267 -2.5876  1.9100
 5225TIP3   OH215635   2.694   1.939   5.821  0.0574  0.0188  0.3803
 5225TIP3    H115636   2.623   2.003   5.831 -1.4869 -1.6514  0.3392
 5225TIP3    H215637   2.748   1.975   5.751  0.2103  2.1550  1.5488
 5226TIP3   OH215638   0.745   1.473   3.680 -0.2194  0.3302 -0.0051
 5226TIP3    H115639   0.688   1.490   3.755  1.6840 -0.2637  1.6112
 5226TIP3    H215640   0.775   1.559   3.653 -0.2292  0.4807  0.4562
 5227TIP3   OH215641   3.083   6.694   4.346 -0.1662 -0.3372  0.5326
 5227TIP3    H115642   3.000   6.655   4.375 -1.3952  1.0984 -0.9791
 5227TIP3    H215643   3.068   6.717   4.254  1.5058  1.0552  0.5851
 5228TIP3   OH215644   4.709   1.691   3.688  0.1860  0.3691 -0.0853
 5228TIP3    H115645   4.760   1.610   3.679 -0.0948  0.0504  1.1390
 5228TIP3    H215646   4.648   1.689   3.614  2.1929  0.9638 -1.8272
 5229TIP3   OH215647   3.358   0.972   4.838  0.4923  0.4419 -0.8487
 5229TIP3    H115648   3.368   0.886   4.799  0.7100  0.9139 -1.8454
 5229TIP3    H215649   3.410   1.030   4.782 -0.2159  1.3351 -0.5945
 5230TIP3   OH215650   2.519   0.081   5.338 -0.6544  0.1418  0.0010
 5230TIP3    H115651   2.508   0.157   5.395 -2.0637 -0.8243  1.0745
 5230TIP3    H215652   2.613   0.065   5.336 -0.5827  0.0568  2.2833
 5231TIP3   OH215653   5.145   1.549   4.388  0.3124 -0.0120 -0.2107
 5231TIP3    H115654   5.111   1.459   4.392  1.6892 -0.5503 -0.3169
 5231TIP3    H215655   5.194   1.560   4.469 -0.3367  0.8412  0.0598
 5232TIP3   OH215656   5.899   1.196   4.112 -0.2304  0.1249 -0.4131
 5232TIP3    H115657   5.917   1.107   4.143 -2.1190 -0.1056  0.0986
 5232TIP3    H215658   5.887   1.187   4.018  0.1619 -0.0681 -0.4454
 5233TIP3   OH215659   5.585   7.059   4.301  0.4237  0.2409  0.2212
 5233TIP3    H115660   5.583   6.983   4.359  0.5108 -0.0920 -0.2165
 5233TIP3    H215661   5.658   7.042   4.242 -0.9085 -0.3457 -1.2769
 5234TIP3   OH215662   0.490   2.372   4.460  0.1287 -0.4798  0.5446
 5234TIP3    H115663   0.534   2.347   4.542  0.5337 -1.0846  0.1406
 5234TIP3    H215664   0.500   2.296   4.403 -0.9195 -0.3824  0.2383
 5235TIP3   OH215665   3.858   1.616   5.958  0.1007 -0.1012 -0.3793
 5235TIP3    H115666   3.911   1.571   6.024 -0.6043 -1.3619 -0.6597
 5235TIP3    H215667   3.919   1.630   5.885  0.9483  1.5101  0.5876
 5236TIP3   OH215668   6.222   1.090   5.969 -0.5542  0.0011  0.1725
 5236TIP3    H115669   6.195   1.010   6.014 -0.9924 -0.7749 -1.4091
 5236TIP3    H215670   6.157   1.156   5.996 -0.9206 -0.4963  0.5069
 5237TIP3   OH215671   4.616   2.751   4.407 -0.8830  0.5184  0.8273
 5237TIP3    H115672   4.535   2.702   4.398 -0.4068 -0.1657  0.1938
 5237TIP3    H215673   4.648   2.761   4.317 -0.2805  0.8021  1.0712
 5238TIP3   OH215674   1.789   6.458   4.101 -0.3550  0.5066 -0.6329
 5238TIP3    H115675   1.726   6.397   4.137  1.4231 -1.2160 -0.3510
 5238TIP3    H215676   1.757   6.477   4.012 -2.2672  1.1713  0.1833
 5239TIP3   OH215677   4.443   6.651   5.889 -0.0096 -0.0963 -0.0177
 5239TIP3    H115678   4.488   6.644   5.805  0.7341 -0.2062  0.3880
 5239TIP3    H215679   4.386   6.573   5.892  0.2747 -0.3119 -0.2304
 5240TIP3   OH215680   3.371   7.232   3.381  0.7190  0.2421  0.0978
 5240TIP3    H115681   3.335   7.312   3.343 -2.8958 -1.0888  0.6133
 5240TIP3    H215682   3.404   7.259   3.467  0.1932  1.3324 -0.0353
 5241TIP3   OH215683   4.807   1.884   4.294  0.6395  1.0517 -0.3774
 5241TIP3    H115684   4.739   1.859   4.232  0.2975 -0.1349  0.4564
 5241TIP3    H215685   4.770   1.958   4.342  0.8578  1.8912 -1.4980
 5242TIP3   OH215686   4.630   0.365   2.158 -0.4628  0.2231 -0.6601
 5242TIP3    H115687   4.632   0.314   2.077  1.0971  1.0675 -1.1848
 5242TIP3    H215688   4.623   0.456   2.128 -0.9868  0.4587  0.1859
 5243TIP3   OH215689   0.365   0.057   3.396 -0.5184  0.5551 -0.2381
 5243TIP3    H115690   0.397   0.145   3.411 -1.8380  1.2234 -1.2000
 5243TIP3    H215691   0.366   0.047   3.301 -1.4036 -0.0733 -0.1888
 5244TIP3   OH215692   2.687   0.275   3.829  0.0946  0.0460 -0.1979
 5244TIP3    H115693   2.746   0.268   3.904 -1.3905 -0.2319  0.9770
 5244TIP3    H215694   2.702   0.363   3.795  1.6649 -0.2605 -0.3283
 5245TIP3   OH215695   3.479   2.445   2.711 -0.0249  0.4674  0.4105
 5245TIP3    H115696   3.496   2.526   2.760  2.3730  0.4211 -0.3238
 5245TIP3    H215697   3.403   2.466   2.657  0.6098  2.2445  0.1904
 5246TIP3   OH215698   4.031   1.203   3.098 -0.3889 -0.1507  0.4051
 5246TIP3    H115699   3.971   1.129   3.092 -0.5576 -0.0326  0.5705
 5246TIP3    H215700   3.992   1.270   3.041 -0.4511 -0.0517  0.5604
 5247TIP3   OH215701   3.112   6.499   4.108 -0.1985 -0.2662 -0.7290
 5247TIP3    H115702   3.180   6.557   4.141  2.0219 -2.3149 -1.5333
 5247TIP3    H215703   3.097   6.436   4.179 -3.0763  1.5983  0.4086
 5248TIP3   OH215704   3.398   1.063   5.119 -0.2808 -0.8584  0.1205
 5248TIP3    H115705   3.451   1.032   5.046  0.3176  0.5423 -0.0615
 5248TIP3    H215706   3.321   1.102   5.077  0.0599 -0.0592  0.2380
 5249TIP3   OH215707   5.372   2.927   4.006 -0.4937  0.4289 -0.4287
 5249TIP3    H115708   5.306   2.961   4.066 -0.3171 -0.1953  0.1324
 5249TIP3    H215709   5.362   2.832   4.012  1.1318  0.3015  0.4262
 5250TIP3   OH215710   4.630   0.763   4.215  0.3054 -0.0912  0.4721
 5250TIP3    H115711   4.605   0.680   4.174  0.8537  0.2683 -0.6137
 5250TIP3    H215712   4.593   0.830   4.157  1.0307  0.4267  0.5959
 5251TIP3   OH215713   2.749   5.304   4.343  0.3583  0.2896 -0.1060
 5251TIP3    H115714   2.790   5.233   4.293  0.7011  0.0986  0.4402
 5251TIP3    H215715   2.669   5.324   4.295 -1.5115 -2.7750  1.5450
 5252TIP3   OH215716   7.794   6.292   4.735 -0.2549  0.2491  0.0724
 5252TIP3    H115717   7.715   6.244   4.710  0.2284 -0.6889  0.3011
 5252TIP3    H215718   7.786   6.376   4.691 -2.2573  0.8772  1.5335
 5253TIP3   OH215719   3.001   1.528   4.426 -0.4051  0.6167 -0.3845
 5253TIP3    H115720   2.919   1.485   4.450  0.4208 -0.7394  0.0295
 5253TIP3    H215721   2.977   1.620   4.413 -1.9367  0.2778 -0.0123
 5254TIP3   OH215722   4.493   0.555   4.088  0.3537  0.3836 -0.1120
 5254TIP3    H115723   4.412   0.521   4.125  0.4768 -0.0992 -0.2891
 5254TIP3    H215724   4.478   0.554   3.993  0.8980 -0.5378 -0.1894
 5255TIP3   OH215725   5.014   3.318   0.257  0.3765  0.2530  0.0145
 5255TIP3    H115726   5.023   3.323   0.162  0.9968 -2.3970 -0.0997
 5255TIP3    H215727   4.921   3.302   0.271  0.1127  1.6285 -0.0742
 5256TIP3   OH215728   4.475   1.906   3.238  0.0638 -0.0601  0.1002
 5256TIP3    H115729   4.536   1.861   3.296 -1.0024 -0.1632  1.1543
 5256TIP3    H215730   4.526   1.979   3.203  0.6472  0.1678  1.3856
 5257TIP3   OH215731   3.802   1.692   5.338 -0.4969  0.1610 -0.1119
 5257TIP3    H115732   3.786   1.612   5.288  0.4253  0.9763 -1.7321
 5257TIP3    H215733   3.746   1.758   5.297 -0.8409  0.5002  0.8741
 5258TIP3   OH215734   6.090   1.062   5.709 -0.4463 -0.0605 -0.1588
 5258TIP3    H115735   6.133   1.032   5.789  1.3906 -1.0774 -1.4908
 5258TIP3    H215736   6.082   0.984   5.655 -1.8252  0.5873 -0.9173
 5259TIP3   OH215737   4.791   1.446   4.643 -0.3807  0.0366 -0.2657
 5259TIP3    H115738   4.781   1.519   4.704 -0.4054 -0.1027 -0.1015
 5259TIP3    H215739   4.789   1.487   4.556  0.9371  0.3734 -0.1390
 5260TIP3   OH215740   4.962   2.275   4.382  1.0831 -0.0461 -0.2732
 5260TIP3    H115741   4.903   2.199   4.387  1.1257 -0.0073  1.1016
 5260TIP3    H215742   4.919   2.342   4.436  0.8137  1.0790 -1.8403
 5261TIP3   OH215743   3.518   2.026   3.878  0.0036  0.0483  0.5151
 5261TIP3    H115744   3.575   2.097   3.847  0.7693 -0.4256  0.8227
 5261TIP3    H215745   3.566   1.986   3.951 -0.3257 -0.9127  0.2172
 5262TIP3   OH215746   7.192   0.874   4.850  0.1777 -0.4476  0.3937
 5262TIP3    H115747   7.101   0.846   4.863 -0.0259 -0.6054 -1.2951
 5262TIP3    H215748   7.185   0.960   4.809  0.7952  0.0309  1.2825
 5263TIP3   OH215749   3.287   6.209   2.518 -0.2164 -0.4712  0.5715
 5263TIP3    H115750   3.327   6.182   2.601  0.5451 -0.6243  0.1633
 5263TIP3    H215751   3.319   6.145   2.455  1.1254  1.0337 -0.2897
 5264TIP3   OH215752   5.563   2.670   6.106  0.1612 -0.2126 -0.0773
 5264TIP3    H115753   5.593   2.589   6.063  1.3981 -0.0646  0.4844
 5264TIP3    H215754   5.604   2.740   6.055  2.0784 -0.0490  1.6541
 5265TIP3   OH215755   7.203   5.561   0.928  0.0963  0.0673 -0.5866
 5265TIP3    H115756   7.122   5.593   0.887  0.1587  0.8441 -0.1182
 5265TIP3    H215757   7.247   5.640   0.959 -0.3643 -0.5483  1.7449
 5266TIP3   OH215758   5.609   1.704   5.851  0.0451  0.1080  0.0331
 5266TIP3    H115759   5.676   1.638   5.830  0.5803  0.3365  1.0094
 5266TIP3    H215760   5.655   1.787   5.842 -0.1225  0.2674  0.6894
 5267TIP3   OH215761   3.916   1.255   5.901 -0.4573 -0.1991  0.0788
 5267TIP3    H115762   3.832   1.294   5.923 -0.9226 -0.7646 -0.6809
 5267TIP3    H215763   3.923   1.263   5.806 -0.8547 -2.5249 -0.1757
 5268TIP3   OH215764   3.487   1.259   3.588  0.2086 -0.0278  0.0667
 5268TIP3    H115765   3.541   1.297   3.519 -0.6211  0.0927 -0.5118
 5268TIP3    H215766   3.517   1.304   3.668  0.2361  0.7975 -0.3992
 5269TIP3   OH215767   6.215   0.799   4.719 -0.4469  0.0661 -0.0030
 5269TIP3    H115768   6.279   0.780   4.651 -0.3300  1.5295 -0.3114
 5269TIP3    H215769   6.148   0.852   4.676 -0.0444  1.5530  1.1545
 5270TIP3   OH215770   6.407   2.368   4.138 -0.3142  0.2497  0.7019
 5270TIP3    H115771   6.489   2.324   4.116  0.1504  0.5335  1.8285
 5270TIP3    H215772   6.429   2.461   4.140 -0.2531  0.2183  2.6511
 5271TIP3   OH215773   6.622   0.139   5.227 -0.2562  0.2354 -0.8567
 5271TIP3    H115774   6.716   0.129   5.212 -0.3528 -1.4945 -0.4659
 5271TIP3    H215775   6.610   0.231   5.246  1.2202  0.6697 -1.9202
 5272TIP3   OH215776   3.359   2.296   2.307 -0.1668  0.4283 -0.0856
 5272TIP3    H115777   3.352   2.265   2.216  0.1963 -0.1488  0.0852
 5272TIP3    H215778   3.385   2.388   2.298 -1.8210  0.8568 -0.5994
 5273TIP3   OH215779   4.650   3.044   4.842  0.4299  0.1445 -0.7161
 5273TIP3    H115780   4.623   3.046   4.934  0.5089  2.1608 -0.7129
 5273TIP3    H215781   4.583   2.991   4.799  0.2307 -0.5742  0.4445
 5274TIP3   OH215782   3.802   1.034   3.379 -0.4692 -0.3046  0.0214
 5274TIP3    H115783   3.879   1.019   3.434 -0.4003 -0.4249 -0.1056
 5274TIP3    H215784   3.802   1.129   3.363  0.2354 -0.4444 -0.8189
 5275TIP3   OH215785   5.427   1.925   2.458  0.0469  0.0849 -0.4685
 5275TIP3    H115786   5.409   2.017   2.437  0.4385 -0.0477 -1.4015
 5275TIP3    H215787   5.515   1.909   2.424  0.0864 -0.5657 -0.0726
 5276TIP3   OH215788   3.637   1.755   3.001 -0.0179  0.6032  0.2147
 5276TIP3    H115789   3.663   1.763   2.909  1.0407  0.3570  0.4803
 5276TIP3    H215790   3.717   1.774   3.050 -0.4659  0.2982  1.0751
 5277TIP3   OH215791   7.591   6.071   4.457  0.0023  0.1921 -0.2768
 5277TIP3    H115792   7.509   6.029   4.485 -0.4227  0.3859 -1.1988
 5277TIP3    H215793   7.604   6.143   4.519  0.2665 -0.7507  0.7785
 5278TIP3   OH215794   3.824   2.148   3.448  0.1265 -0.1073 -0.0342
 5278TIP3    H115795   3.851   2.075   3.504 -0.0207 -0.6302 -0.6402
 5278TIP3    H215796   3.730   2.137   3.437 -0.1020  0.8745  0.8670
 5279TIP3   OH215797   3.856   1.190   5.051 -0.0115  0.4358 -0.6173
 5279TIP3    H115798   3.819   1.213   5.136 -0.6124 -0.1284 -0.7165
 5279TIP3    H215799   3.949   1.210   5.059 -0.5450  3.2098 -0.8380
 5280TIP3   OH215800   0.446   0.731   5.735  0.3788 -0.2540  0.6847
 5280TIP3    H115801   0.459   0.707   5.643  2.0101  2.3888  0.1824
 5280TIP3    H215802   0.355   0.760   5.739  0.5413  0.4258 -0.2941
 5281TIP3   OH215803   0.898   7.184   4.478 -0.8465  0.5554 -0.6601
 5281TIP3    H115804   0.970   7.122   4.485  0.7790  2.4512 -0.2448
 5281TIP3    H215805   0.819   7.132   4.495  0.3539 -1.6632 -1.7391
 5282TIP3   OH215806   4.256   3.926   4.857 -0.9897  0.1354  0.4637
 5282TIP3    H115807   4.224   3.843   4.821 -0.1794  0.1758 -0.3706
 5282TIP3    H215808   4.291   3.903   4.943  0.4338 -0.6289 -0.3119
 5283TIP3   OH215809   0.365   1.732   5.203  0.0345  0.3817  0.3469
 5283TIP3    H115810   0.377   1.674   5.279  0.3304 -0.0559 -0.0345
 5283TIP3    H215811   0.453   1.760   5.180 -0.1739  1.6985  1.0728
 5284TIP3   OH215812   4.895   4.855   0.070 -0.1812 -0.7515 -0.8594
 5284TIP3    H115813   4.974   4.874   0.021  0.0348 -2.0243 -1.0369
 5284TIP3    H215814   4.828   4.911   0.032  0.9328  1.3964  0.2380
 5285TIP3   OH215815   4.972   0.265   4.446  0.1977 -0.1565  0.5434
 5285TIP3    H115816   5.065   0.260   4.467  0.3929  1.4914  0.0669
 5285TIP3    H215817   4.969   0.296   4.356 -0.8128 -0.7003  0.3805
 5286TIP3   OH215818   5.191   0.004   4.183  0.3202  0.9071  0.1456
 5286TIP3    H115819   5.240  -0.023   4.260 -1.8101 -1.1005  0.8638
 5286TIP3    H215820   5.138   0.078   4.214 -0.3582  0.2548  0.5665
 5287TIP3   OH215821   4.250   3.691   5.589 -0.5152  0.4071  0.0707
 5287TIP3    H115822   4.180   3.756   5.591 -0.2553  0.6733  0.6155
 5287TIP3    H215823   4.236   3.638   5.667  0.1908  0.7824  0.4571
 5288TIP3   OH215824   7.430   5.655   0.521  0.1423  0.4895 -0.4138
 5288TIP3    H115825   7.493   5.726   0.526 -0.0311  0.5927  0.5575
 5288TIP3    H215826   7.452   5.608   0.441  0.0689  1.8049 -1.2166
 5289TIP3   OH215827   3.438   0.408   5.809 -0.8330  0.0856 -0.1572
 5289TIP3    H115828   3.408   0.367   5.890 -0.7624 -2.0691 -1.1866
 5289TIP3    H215829   3.419   0.344   5.740  2.0279  0.5006 -1.4288
 5290TIP3   OH215830   5.037   1.362   4.111  0.0252  0.0582 -0.5652
 5290TIP3    H115831   5.063   1.430   4.048  0.1746  0.5138 -0.0126
 5290TIP3    H215832   5.087   1.285   4.085  0.9651  0.5676 -0.3048
 5291TIP3   OH215833   0.097   3.575   6.227  0.3960 -0.2752  0.0312
 5291TIP3    H115834   0.176   3.611   6.187  0.8689 -0.7880  0.4926
 5291TIP3    H215835   0.028   3.591   6.162  1.1190 -0.9525 -0.9142
 5292TIP3   OH215836   3.683   3.562   2.986  0.1735 -0.3258  0.1944
 5292TIP3    H115837   3.762   3.509   2.993  0.6561  0.4523  0.7309
 5292TIP3    H215838   3.615   3.500   2.958  0.7277 -1.2136  0.7787
 5293TIP3   OH215839   0.398   3.948   1.268 -0.1002  0.7164 -0.0008
 5293TIP3    H115840   0.415   4.010   1.198  0.5992 -0.6681 -1.0778
 5293TIP3    H215841   0.343   3.996   1.330  1.0500  2.6401 -0.4334
 5294TIP3   OH215842   3.522   0.403   4.820 -0.2071  0.5369  0.4643
 5294TIP3    H115843   3.486   0.316   4.838 -0.8332  0.2681 -1.9492
 5294TIP3    H215844   3.593   0.413   4.883 -0.0811 -1.7618  0.7162
 5295TIP3   OH215845   4.360   5.607   4.212  0.5581  0.1773  0.2051
 5295TIP3    H115846   4.361   5.517   4.243 -1.0146  0.4287  1.0564
 5295TIP3    H215847   4.330   5.601   4.121 -0.7980 -0.0795  0.6469
 5296TIP3   OH215848   1.737   5.742   0.157  0.2640 -0.3385  0.2639
 5296TIP3    H115849   1.780   5.668   0.115  1.7783  0.4495  0.4259
 5296TIP3    H215850   1.678   5.701   0.221  1.2339 -1.3952  0.4920
 5297TIP3   OH215851   3.749   7.250   4.544  0.0560 -0.5667  0.1081
 5297TIP3    H115852   3.757   7.241   4.639 -0.4040 -0.8202  0.1285
 5297TIP3    H215853   3.831   7.215   4.510  0.3960 -0.0928  0.4289
 5298TIP3   OH215854   0.299   5.112   0.589 -0.0675  0.6642  0.5286
 5298TIP3    H115855   0.381   5.162   0.591  0.9967 -0.8961 -1.8863
 5298TIP3    H215856   0.233   5.175   0.562  0.8082  1.3600 -0.0215
 5299TIP3   OH215857   4.351   2.505   3.680 -0.7229  0.1629  0.5143
 5299TIP3    H115858   4.262   2.490   3.647  0.1344 -3.2882 -0.3568
 5299TIP3    H215859   4.348   2.472   3.770 -0.4727  0.6290  0.6945
 5300TIP3   OH215860   3.773   2.557   4.840  0.1580 -0.2427  0.0461
 5300TIP3    H115861   3.728   2.494   4.897 -0.6035 -0.0357 -0.3218
 5300TIP3    H215862   3.865   2.545   4.860  0.0377 -1.7315 -0.2832
 5301TIP3   OH215863   2.004   6.826   2.956 -0.0601  0.0332 -0.0512
 5301TIP3    H115864   2.053   6.769   2.897 -1.1613 -0.0475 -0.9061
 5301TIP3    H215865   2.004   6.779   3.040 -0.0370 -0.7226 -0.4682
 5302TIP3   OH215866   4.250   0.585   5.344  0.4278 -0.1729  0.3002
 5302TIP3    H115867   4.335   0.609   5.306  0.7892 -0.9467  0.6053
 5302TIP3    H215868   4.211   0.669   5.369  0.8195  0.2352 -0.4329
 5303TIP3   OH215869   5.374   1.430   3.443 -0.0347  0.2318  0.0241
 5303TIP3    H115870   5.339   1.453   3.357 -0.8937 -0.0956  0.2743
 5303TIP3    H215871   5.468   1.427   3.431 -0.1612  0.0358 -0.9476
 5304TIP3   OH215872   3.947   0.226   4.556  0.1839  0.0086 -0.0078
 5304TIP3    H115873   3.872   0.282   4.576  0.7316  0.0877  1.9075
 5304TIP3    H215874   3.908   0.148   4.514 -0.8338  0.5822 -0.1506
 5305TIP3   OH215875   2.254   7.327   4.468 -0.0299  0.0676  0.3171
 5305TIP3    H115876   2.323   7.390   4.488 -1.5035  1.2261  1.9541
 5305TIP3    H215877   2.256   7.265   4.541 -1.2112  0.5855  0.8187
 5306TIP3   OH215878   5.190   0.633   4.602  0.5438 -0.1890 -0.1713
 5306TIP3    H115879   5.124   0.568   4.626 -0.4255  1.1431  0.7644
 5306TIP3    H215880   5.205   0.683   4.682  2.7920 -0.5594 -0.3349
 5307TIP3   OH215881   7.354   1.432   4.924  0.2943 -0.3102 -0.0792
 5307TIP3    H115882   7.347   1.347   4.967  0.1974  0.1064  0.7327
 5307TIP3    H215883   7.362   1.411   4.830  0.1714 -1.2009  0.1075
 5308TIP3   OH215884   4.226   1.633   4.808  0.2030  0.2895 -0.0528
 5308TIP3    H115885   4.224   1.668   4.719  1.6364  0.5504  0.0101
 5308TIP3    H215886   4.314   1.598   4.818 -0.5670 -1.5008  0.6018
 5309TIP3   OH215887   4.890   1.608   5.625  0.4665  0.4951  0.0152
 5309TIP3    H115888   4.853   1.586   5.539  0.3141 -0.3863  0.2969
 5309TIP3    H215889   4.960   1.670   5.606 -0.7612  1.7347 -0.5857
 5310TIP3   OH215890   0.947   4.625   0.346 -0.0292 -0.6009 -0.2286
 5310TIP3    H115891   0.857   4.626   0.377  0.3621 -0.6705  0.9235
 5310TIP3    H215892   0.964   4.533   0.324  1.1073 -1.4427  3.6515
 5311TIP3   OH215893   3.465   1.295   4.237 -0.7732 -0.6212  0.2134
 5311TIP3    H115894   3.498   1.253   4.158  0.4891  2.5181 -0.9993
 5311TIP3    H215895   3.410   1.366   4.206  0.9589  1.6321  2.0668
 5312TIP3   OH215896   4.082   2.815   4.882  0.5545 -0.0790 -0.2620
 5312TIP3    H115897   4.174   2.796   4.867  0.4468 -0.8141  0.0063
 5312TIP3    H215898   4.039   2.730   4.880  0.0492  0.1452  0.8209
 5313TIP3   OH215899   3.854   1.070   4.266 -0.6912 -0.3714  0.2724
 5313TIP3    H115900   3.855   1.041   4.358  1.1382 -1.2981 -0.0135
 5313TIP3    H215901   3.946   1.072   4.241 -1.1093  1.1837 -1.1579
 5314TIP3   OH215902   6.232   1.380   3.880  0.0361  0.1608 -0.3270
 5314TIP3    H115903   6.232   1.473   3.902 -0.1744  0.2711 -0.7761
 5314TIP3    H215904   6.141   1.362   3.854  0.0417 -0.2047 -0.0940
 5315TIP3   OH215905   5.140   0.981   5.006  0.1384  0.4558  0.1377
 5315TIP3    H115906   5.173   1.067   5.029  1.4083  0.0867 -0.2644
 5315TIP3    H215907   5.151   0.928   5.085 -0.7061  0.6803  0.4064
 5316TIP3   OH215908   3.452   6.910   6.325 -0.9108 -0.0654  0.8365
 5316TIP3    H115909   3.428   6.828   6.367 -0.1352 -0.5056  0.4376
 5316TIP3    H215910   3.532   6.890   6.277  0.7084  1.5117  2.7183
 5317TIP3   OH215911   4.916   2.654   2.553 -0.5859  0.1104  0.5895
 5317TIP3    H115912   4.925   2.614   2.467 -0.5433  0.3068  0.5029
 5317TIP3    H215913   5.006   2.676   2.580 -0.7616  1.9254 -0.2064
 5318TIP3   OH215914   3.018   3.098   5.171  0.1946 -0.5321 -0.0974
 5318TIP3    H115915   3.003   3.155   5.246 -0.6399 -0.0776 -0.6005
 5318TIP3    H215916   2.970   3.140   5.099  1.1411 -0.8489 -0.9358
 5319TIP3   OH215917   7.370   2.086   5.418  0.3605 -0.0015 -0.4047
 5319TIP3    H115918   7.369   2.009   5.474  0.8109  0.1494 -0.1863
 5319TIP3    H215919   7.445   2.073   5.359  0.3397  0.1884 -0.4756
 5320TIP3   OH215920   6.182   1.165   3.686 -0.2220 -0.1703 -0.3727
 5320TIP3    H115921   6.135   1.114   3.752  1.3502 -0.5648  0.4447
 5320TIP3    H215922   6.192   1.252   3.726  1.8214 -0.7639  0.4153
 5321TIP3   OH215923   4.870   0.723   4.373 -0.3547 -0.0212  0.1185
 5321TIP3    H115924   4.813   0.672   4.430 -1.7243 -1.6023 -2.5887
 5321TIP3    H215925   4.811   0.778   4.322  1.0464  3.8289  2.4225
 5322TIP3   OH215926   5.203   5.905   4.825 -0.1271 -0.3491 -0.4739
 5322TIP3    H115927   5.162   5.925   4.741  0.4851 -0.0273 -0.7054
 5322TIP3    H215928   5.162   5.965   4.887 -0.6916 -0.6940 -0.5104
 5323TIP3   OH215929   0.442   0.712   4.864 -0.4903  0.5971  0.3149
 5323TIP3    H115930   0.419   0.794   4.907 -2.2790  0.2725 -0.0141
 5323TIP3    H215931   0.371   0.696   4.802 -0.0918 -1.1405  0.2799
 5324TIP3   OH215932   4.335   3.041   4.503  0.2938 -0.0641 -0.3358
 5324TIP3    H115933   4.273   3.114   4.508 -2.9931 -2.8037  0.8800
 5324TIP3    H215934   4.337   3.017   4.410  0.6686  0.9350 -0.5934
 5325TIP3   OH215935   6.132   0.970   5.022 -0.4849  0.0544  0.1139
 5325TIP3    H115936   6.077   1.017   5.085 -1.3276 -0.8291  0.0582
 5325TIP3    H215937   6.151   1.035   4.954 -1.2446  0.4491  0.2702
 5326TIP3   OH215938   6.215   0.179   3.542  0.6577 -0.5016 -0.4298
 5326TIP3    H115939   6.284   0.142   3.486  1.2152  0.2979 -0.2817
 5326TIP3    H215940   6.250   0.264   3.569  0.1630 -0.6682  0.7249
 5327TIP3   OH215941   4.661   1.310   2.445 -0.0412 -0.0328 -0.4516
 5327TIP3    H115942   4.630   1.304   2.536 -1.8299 -0.4142 -1.0744
 5327TIP3    H215943   4.651   1.221   2.411 -0.1302  0.2957 -1.2743
 5328TIP3   OH215944   3.022   6.012   3.673 -0.4404  0.0290 -0.2170
 5328TIP3    H115945   3.090   6.062   3.628 -0.8662  0.2348 -0.6477
 5328TIP3    H215946   2.970   5.974   3.602 -1.1459  0.3895  0.1059
 5329TIP3   OH215947   7.480   2.068   3.558 -0.0023 -0.1111  0.3227
 5329TIP3    H115948   7.503   2.104   3.473 -1.1347  1.2126  0.5734
 5329TIP3    H215949   7.505   1.976   3.552  0.2389  0.0448 -1.3153
 5330TIP3   OH215950   5.092   2.397   5.152  0.5256  0.2678 -0.8865
 5330TIP3    H115951   5.077   2.491   5.158 -2.6049 -0.2898  0.5917
 5330TIP3    H215952   5.053   2.361   5.231  4.2673 -2.0236  0.0273
 5331TIP3   OH215953   3.606   1.091   2.988  0.2625 -0.3274  0.0296
 5331TIP3    H115954   3.544   1.096   2.916  0.4316  1.1946 -0.0384
 5331TIP3    H215955   3.576   1.158   3.050 -1.2239 -3.1129  2.4869
 5332TIP3   OH215956   5.677   0.395   4.860  0.0541  0.4645  0.4639
 5332TIP3    H115957   5.755   0.431   4.903  1.0402 -0.2642 -0.6954
 5332TIP3    H215958   5.664   0.452   4.784 -1.1782  1.2217  1.2202
 5333TIP3   OH215959   4.570   3.890   4.742  0.3109 -0.0996  0.0630
 5333TIP3    H115960   4.549   3.808   4.697  2.0163 -0.9470  0.7336
 5333TIP3    H215961   4.589   3.863   4.832  0.5206  1.0815  0.3743
 5334TIP3   OH215962   5.222   1.862   4.305 -0.5341 -0.3133  0.5598
 5334TIP3    H115963   5.180   1.777   4.291 -1.2200  0.0436  0.4114
 5334TIP3    H215964   5.308   1.841   4.341  0.5037 -1.1999 -2.2856
 5335TIP3   OH215965   6.251   6.917   0.131  0.2066 -0.3966 -0.5187
 5335TIP3    H115966   6.171   6.868   0.115  0.3626 -1.3332  1.4203
 5335TIP3    H215967   6.320   6.851   0.129  0.7012  0.1101 -0.2746
 5336TIP3   OH215968   5.457   2.171   3.924 -0.3894 -0.4456  0.0410
 5336TIP3    H115969   5.412   2.088   3.940 -0.7041  0.1295  2.3681
 5336TIP3    H215970   5.420   2.203   3.842 -2.0493 -1.4588  0.3687
 5337TIP3   OH215971   4.573   3.031   4.148  0.3413 -0.1020 -0.0827
 5337TIP3    H115972   4.560   3.098   4.081  2.4617 -0.5043 -0.9324
 5337TIP3    H215973   4.486   2.997   4.166 -0.1010 -1.3075 -4.0313
 5338TIP3   OH215974   5.374   2.727   3.615  0.3787 -0.3766  0.4742
 5338TIP3    H115975   5.451   2.671   3.605  1.8403  1.0077  3.2338
 5338TIP3    H215976   5.411   2.815   3.627 -1.7682  0.8391 -1.4769
 5339TIP3   OH215977   6.761   3.271   5.554  0.1915 -0.3177 -0.4624
 5339TIP3    H115978   6.803   3.318   5.482  2.1597  0.4847  1.1770
 5339TIP3    H215979   6.682   3.321   5.572 -0.6190 -0.8382 -2.4087
 5340TIP3   OH215980   0.965   5.091   0.473  0.3931  0.2330 -0.0967
 5340TIP3    H115981   1.028   5.038   0.424 -0.8902  0.3143 -1.8786
 5340TIP3    H215982   0.919   5.142   0.406  0.3553  2.2565  1.4319
 5341TIP3   OH215983   4.151   2.346   4.426 -0.1972  0.2745  0.7500
 5341TIP3    H115984   4.207   2.354   4.503 -1.3739  2.7604  1.3852
 5341TIP3    H215985   4.072   2.302   4.457  0.8615 -2.1717  0.1025
 5342TIP3   OH215986   3.939   1.927   3.577  0.0506  0.4745 -0.0412
 5342TIP3    H115987   3.925   1.833   3.582  1.2593  0.2638 -0.4278
 5342TIP3    H215988   4.026   1.941   3.614 -0.3589  1.5088  0.5589
 5343TIP3   OH215989   3.017   6.609   3.457  0.1291  0.1553 -0.1367
 5343TIP3    H115990   3.053   6.600   3.369 -1.8531 -1.8265 -0.7680
 5343TIP3    H215991   2.972   6.526   3.474  2.0255 -0.2511  3.4721
 5344TIP3   OH215992   6.363   1.752   4.545  0.4389 -0.1096  0.2399
 5344TIP3    H115993   6.373   1.833   4.495 -0.7968 -0.1352 -0.0617
 5344TIP3    H215994   6.324   1.779   4.628  0.3507 -0.3506  0.2788
 5345TIP3   OH215995   5.315   1.157   3.336 -0.1026  0.4874 -0.1328
 5345TIP3    H115996   5.239   1.200   3.375 -1.4328 -0.3591 -1.7363
 5345TIP3    H215997   5.390   1.211   3.363 -1.1598  0.8514  2.1589
 5346TIP3   OH215998   4.354   2.795   4.876 -0.2393  0.2326  0.8710
 5346TIP3    H115999   4.396   2.834   4.799 -1.1933 -0.6184 -0.0881
 5346TIP3    H216000   4.422   2.740   4.915 -0.2650 -0.6453 -0.3153
 5347TIP3   OH216001   3.718   1.858   4.645 -0.8950 -0.0220 -0.2767
 5347TIP3    H116002   3.648   1.810   4.689 -0.2218 -0.8183 -0.0648
 5347TIP3    H216003   3.797   1.806   4.661 -0.1834  1.0668 -0.1836
 5348TIP3   OH216004   7.720   3.914   5.120 -0.3759  0.2639  0.0181
 5348TIP3    H116005   7.782   3.882   5.054 -0.4387  0.2889 -0.0538
 5348TIP3    H216006   7.753   3.880   5.203 -1.2868 -1.2535 -0.2382
 5349TIP3   OH216007   2.049   0.831   3.031 -0.3037 -0.2424  0.4171
 5349TIP3    H116008   2.066   0.800   3.120 -0.4429 -1.0615  0.1610
 5349TIP3    H216009   1.956   0.815   3.018  0.4298 -3.6317 -1.2066
 5350TIP3   OH216010   4.861   6.597   4.157  0.6500 -0.7883 -0.7620
 5350TIP3    H116011   4.772   6.625   4.180  1.2538 -0.5091  1.4187
 5350TIP3    H216012   4.878   6.637   4.072 -0.9286  0.0032 -0.7252
 5351TIP3   OH216013   5.770   1.059   4.482 -0.9181  0.0235  0.3510
 5351TIP3    H116014   5.724   1.040   4.564 -1.8233 -0.2028 -0.1928
 5351TIP3    H216015   5.724   1.006   4.416  0.2389 -0.3393 -0.1860
 5352TIP3   OH216016   1.576   2.946   2.065  0.3832  0.2388  0.0427
 5352TIP3    H116017   1.576   2.909   2.154  2.1251  1.2666  0.5079
 5352TIP3    H216018   1.591   2.871   2.008  0.6282 -0.2430  0.7281
 5353TIP3   OH216019   6.149   0.447   2.776 -0.1474 -0.9101 -0.1056
 5353TIP3    H116020   6.154   0.540   2.756 -0.3855 -1.0602 -0.9146
 5353TIP3    H216021   6.084   0.413   2.714 -0.9447 -1.4016  0.9780
 5354TIP3   OH216022   4.665   3.531   4.925 -0.5356 -0.4101  0.0846
 5354TIP3    H116023   4.725   3.460   4.948 -3.3026 -3.1476 -0.8656
 5354TIP3    H216024   4.604   3.536   4.999  0.4890  1.9845  0.8064
 5355TIP3   OH216025   7.182   4.625   0.853  0.0859 -0.4138 -0.0829
 5355TIP3    H116026   7.103   4.664   0.815  0.6953  0.8956 -0.0208
 5355TIP3    H216027   7.215   4.567   0.784 -0.9447 -0.9893 -0.0983
 5356TIP3   OH216028   6.896   2.100   3.208 -0.1910  0.6460  0.5026
 5356TIP3    H116029   6.816   2.049   3.217 -0.0750  0.2158 -0.6578
 5356TIP3    H216030   6.963   2.046   3.249 -0.5200  1.0684  1.5900
 5357TIP3   OH216031   7.727   0.048   3.896  0.3212  0.3271  0.3636
 5357TIP3    H116032   7.722   0.005   3.982  0.3280 -1.1690 -0.3590
 5357TIP3    H216033   7.816   0.084   3.892  0.6097 -0.3513  0.6432
 5358TIP3   OH216034   5.829   6.537   3.222 -0.1317  0.1137  0.1488
 5358TIP3    H116035   5.756   6.491   3.264 -1.1050  0.5014 -1.0857
 5358TIP3    H216036   5.805   6.540   3.129 -0.5683  3.8955  0.2850
 5359TIP3   OH216037   3.660   2.450   5.546  0.0181  0.1293  0.1496
 5359TIP3    H116038   3.670   2.456   5.641  0.2060 -1.7770  0.2538
 5359TIP3    H216039   3.732   2.503   5.511 -0.1733  1.0001  1.0577
 5360TIP3   OH216040   1.015   0.737   5.922  0.1432  0.0724 -0.1433
 5360TIP3    H116041   1.007   0.648   5.956 -0.4390  0.0903 -0.2353
 5360TIP3    H216042   1.103   0.740   5.885  1.4377  0.5309  2.7699
 5361TIP3   OH216043   4.481   1.508   4.830  0.0671 -0.0399 -0.2092
 5361TIP3    H116044   4.543   1.578   4.811  1.8649 -1.8212 -1.0867
 5361TIP3    H216045   4.536   1.432   4.851 -1.7625 -1.8770 -1.7615
 5362TIP3   OH216046   7.668   2.087   3.144 -0.0463 -0.3844  0.2930
 5362TIP3    H116047   7.663   1.993   3.158 -1.2369 -0.4311 -0.3940
 5362TIP3    H216048   7.633   2.100   3.056  0.2068  0.6956  0.3400
 5363TIP3   OH216049   7.625   1.706   4.406 -0.0429  0.3716 -0.0989
 5363TIP3    H116050   7.548   1.701   4.462 -0.6134  1.4261 -0.7754
 5363TIP3    H216051   7.659   1.794   4.419  0.4340  0.2705 -0.6110
 5364TIP3   OH216052   7.209   1.761   4.750  0.2078 -0.0885  0.0961
 5364TIP3    H116053   7.115   1.754   4.733  0.2785 -0.0960 -0.2887
 5364TIP3    H216054   7.225   1.700   4.822 -0.2547  0.6335  0.8232
 5365TIP3   OH216055   7.646   2.928   4.258  0.1177 -0.2673 -0.5763
 5365TIP3    H116056   7.572   2.987   4.247 -2.1323 -2.7761  0.7387
 5365TIP3    H216057   7.697   2.967   4.329 -1.7306 -0.2969  0.7780
 5366TIP3   OH216058   7.370   3.169   3.037  0.2133  0.2983  0.2009
 5366TIP3    H116059   7.347   3.229   2.966 -0.3138  0.3869  0.4443
 5366TIP3    H216060   7.443   3.119   3.003 -0.6084 -0.2781 -0.7424
 5367TIP3   OH216061   3.681   1.260   4.389  0.2921 -0.2074 -0.0514
 5367TIP3    H116062   3.650   1.170   4.400  0.3786 -0.1417  0.8169
 5367TIP3    H216063   3.619   1.301   4.329  0.3459 -0.8975 -0.5741
 5368TIP3   OH216064   7.163   2.154   3.465  0.3223 -0.0325 -0.2330
 5368TIP3    H116065   7.213   2.134   3.544 -1.5749  0.6613  1.1592
 5368TIP3    H216066   7.076   2.119   3.481 -0.3583  0.9680 -1.6132
 5369TIP3   OH216067   0.034   2.496   4.237 -0.4130 -0.0184  0.0487
 5369TIP3    H116068   0.075   2.412   4.259 -1.1535 -0.0476  1.3232
 5369TIP3    H216069   0.094   2.562   4.272 -0.1665 -0.0129 -0.3716
 5370TIP3   OH216070   6.792   6.790   4.137  0.2571 -0.1574  0.0744
 5370TIP3    H116071   6.764   6.840   4.213 -0.8321 -1.9596  0.8853
 5370TIP3    H216072   6.740   6.825   4.064  0.5747  0.8797  0.3412
 5371TIP3   OH216073   1.066   2.092   4.062 -0.0661 -0.4604  0.3352
 5371TIP3    H116074   1.026   2.058   4.141  1.2223 -2.9770 -0.0566
 5371TIP3    H216075   0.997   2.090   3.996 -0.1611 -1.7334  0.4755
 5372TIP3   OH216076   2.789   5.234   3.094  0.1498  0.4990  0.0780
 5372TIP3    H116077   2.798   5.152   3.046 -2.3489 -0.1860  0.7378
 5372TIP3    H216078   2.698   5.260   3.081  0.1550  1.7020  2.2128
 5373TIP3   OH216079   7.568   1.544   2.515 -0.0272  0.2023  0.2759
 5373TIP3    H116080   7.538   1.543   2.424  0.8938 -0.1213 -0.0292
 5373TIP3    H216081   7.603   1.456   2.531 -0.6558  0.0934  1.1055
 5374TIP3   OH216082   5.306   7.366   3.090 -0.8697 -0.1235 -0.7735
 5374TIP3    H116083   5.276   7.370   2.999 -4.2099 -1.5657  0.2173
 5374TIP3    H216084   5.277   7.280   3.121 -1.7541  1.2364  2.3116
 5375TIP3   OH216085   1.675   0.055   5.241  0.0351 -0.5054 -0.1432
 5375TIP3    H116086   1.637   0.014   5.163  1.2959 -0.6872 -0.6793
 5375TIP3    H216087   1.751   0.001   5.261  0.4085  0.2527  0.5084
 5376TIP3   OH216088   5.314   0.552   3.291 -0.5481 -0.3598 -0.0258
 5376TIP3    H116089   5.255   0.511   3.355 -0.8997  0.9629  0.5164
 5376TIP3    H216090   5.383   0.592   3.344 -1.1194  1.1923 -0.4330
 5377TIP3   OH216091   7.221   2.832   5.222 -0.8474 -0.1508  0.0199
 5377TIP3    H116092   7.223   2.904   5.284  2.4324 -0.0879 -0.0732
 5377TIP3    H216093   7.237   2.754   5.276 -3.5342 -0.7599  0.0003
 5378TIP3   OH216094   7.058   2.326   3.225  0.7923  0.4486 -0.4501
 5378TIP3    H116095   7.106   2.292   3.300  0.0859  0.8392  0.1896
 5378TIP3    H216096   6.992   2.260   3.206  1.8302 -0.2712 -1.5772
 5379TIP3   OH216097   0.420   1.114   4.227  0.6975 -0.3801  0.2493
 5379TIP3    H116098   0.512   1.138   4.216  0.9483 -0.2121  2.4028
 5379TIP3    H216099   0.387   1.175   4.292 -0.9601 -0.4143 -0.5360
 5380TIP3   OH216100   4.816   2.003   5.381  0.5596 -0.1498  0.0167
 5380TIP3    H116101   4.904   1.991   5.345  0.3944  0.1801 -0.5100
 5380TIP3    H216102   4.802   1.926   5.436  1.1985 -0.1730  0.1467
 5381TIP3   OH216103   1.307   1.077   2.404  0.5281  0.3329  0.3288
 5381TIP3    H116104   1.222   1.099   2.442  0.7474  2.6776 -0.4637
 5381TIP3    H216105   1.286   1.021   2.329 -0.2107 -0.2894  0.9873
 5382TIP3   OH216106   4.220   6.643   4.771  0.5667 -0.3240  0.3928
 5382TIP3    H116107   4.235   6.550   4.787  2.9484  0.2872  1.8369
 5382TIP3    H216108   4.288   6.688   4.821 -1.4305  2.2669  0.8619
 5383TIP3   OH216109   6.891   0.952   3.931 -0.0325 -0.3007 -0.2469
 5383TIP3    H116110   6.889   0.911   3.844  0.4525  1.2821 -1.0246
 5383TIP3    H216111   6.981   0.981   3.941  0.3595 -2.0390  1.5631
 5384TIP3   OH216112   6.471   1.135   3.643  0.0616  0.4547 -0.3882
 5384TIP3    H116113   6.381   1.133   3.675  0.2074 -0.8007 -0.0137
 5384TIP3    H216114   6.462   1.141   3.548 -0.4587 -1.6797 -0.4990
 5385TIP3   OH216115   0.902   6.517   5.059 -0.4606  0.2759 -0.0334
 5385TIP3    H116116   0.982   6.465   5.061  1.1211  2.7104  3.3742
 5385TIP3    H216117   0.911   6.572   4.981  0.9673  0.2445  0.1031
 5386TIP3   OH216118   6.223   0.734   3.965 -0.2079  0.0802  0.7184
 5386TIP3    H116119   6.128   0.743   3.958 -0.1574  0.0518 -0.0697
 5386TIP3    H216120   6.237   0.642   3.986 -0.3165 -0.1545 -0.1911
 5387TIP3   OH216121   3.395   0.148   4.837  0.3531  0.8567 -0.0948
 5387TIP3    H116122   3.459   0.126   4.770  0.6920  0.7938  0.2522
 5387TIP3    H216123   3.333   0.074   4.836  1.6652 -0.2927  1.2853
 5388TIP3   OH216124   2.474   7.244   4.653 -0.7055  0.1179  0.6831
 5388TIP3    H116125   2.475   7.150   4.670 -0.4461  0.1040  0.5819
 5388TIP3    H216126   2.461   7.284   4.739 -2.9588 -0.0904  0.4928
 5389TIP3   OH216127   7.129   3.239   2.458  0.2314  0.4108  0.0520
 5389TIP3    H116128   7.150   3.271   2.546  1.0078  0.0046  0.0165
 5389TIP3    H216129   7.212   3.204   2.425 -0.4030 -0.7731 -0.2741
 5390TIP3   OH216130   7.751   3.955   4.408 -0.4592  0.2101  0.3581
 5390TIP3    H116131   7.844   3.947   4.429 -0.3171 -0.1288 -0.3842
 5390TIP3    H216132   7.742   4.044   4.374 -0.6441  0.6751  1.5989
 5391TIP3   OH216133   0.553   1.944   3.144 -0.4269 -0.2490 -0.0585
 5391TIP3    H116134   0.542   1.890   3.223  1.5871  0.8912  1.0555
 5391TIP3    H216135   0.644   1.971   3.147 -0.4482  0.1925 -2.5857
 5392TIP3   OH216136   5.767   1.724   2.887  0.1290 -0.2362 -0.2241
 5392TIP3    H116137   5.773   1.812   2.923  2.0939 -0.1732 -0.6526
 5392TIP3    H216138   5.737   1.670   2.960 -1.2078  0.8025  0.0027
 5393TIP3   OH216139   0.907   1.062   3.099  0.1983  0.8373  0.2172
 5393TIP3    H116140   0.883   1.119   3.025  1.1812  2.1812  0.9090
 5393TIP3    H216141   0.826   1.016   3.120 -0.0421  0.2594 -1.8469
 5394TIP3   OH216142   7.122   7.022   4.143  0.1801  0.2292 -0.0405
 5394TIP3    H116143   7.164   7.098   4.102 -0.0084  0.9261  1.0429
 5394TIP3    H216144   7.045   7.057   4.188 -0.9552 -0.8863 -1.0765
 5395TIP3   OH216145   2.430   2.344   3.230  0.1127  0.2450 -0.0764
 5395TIP3    H116146   2.355   2.371   3.283 -0.3463 -1.6412  0.2678
 5395TIP3    H216147   2.504   2.340   3.291 -0.2485 -1.1693  0.2885
 5396TIP3   OH216148   4.531   7.181   4.197  0.3100 -0.0020  0.1221
 5396TIP3    H116149   4.609   7.132   4.222  0.5438  0.8445  1.0673
 5396TIP3    H216150   4.548   7.270   4.228 -0.8256  0.2975 -0.1091
 5397TIP3   OH216151   4.323   6.650   5.271 -0.1219 -0.4201 -0.3938
 5397TIP3    H116152   4.356   6.564   5.247  1.1222  0.1815 -0.8579
 5397TIP3    H216153   4.274   6.635   5.353  2.7208 -1.0408  1.2460
 5398TIP3   OH216154   7.263   0.550   4.289 -0.1042 -0.1875 -0.1640
 5398TIP3    H116155   7.242   0.457   4.281 -0.8814  0.0625 -1.1286
 5398TIP3    H216156   7.219   0.578   4.369 -0.1685 -0.5686 -0.0634
 5399TIP3   OH216157   6.518   2.087   4.320  0.1940 -0.5177  0.1830
 5399TIP3    H116158   6.423   2.096   4.307  0.2328 -0.0994  0.2053
 5399TIP3    H216159   6.536   2.136   4.400  0.8055  1.4012 -1.1090
 5400TIP3   OH216160   1.626   2.396   3.528  0.0561 -0.3861 -0.1212
 5400TIP3    H116161   1.637   2.386   3.433 -0.1481  1.4936 -0.3654
 5400TIP3    H216162   1.533   2.384   3.543 -0.5291  2.9506 -0.6910
 5401TIP3   OH216163   6.761   1.883   4.917  0.4536 -0.1067  0.0527
 5401TIP3    H116164   6.768   1.906   5.010  0.5861 -0.0554  0.0291
 5401TIP3    H216165   6.680   1.927   4.889  0.7000  0.3260  0.0090
 5402TIP3   OH216166   3.353   7.061   4.474 -0.1588  0.6477 -0.4820
 5402TIP3    H116167   3.340   7.028   4.563 -1.2951  0.5525 -0.6760
 5402TIP3    H216168   3.329   6.988   4.418  0.5242  0.7203 -0.8764
 5403TIP3   OH216169   0.051   2.378   4.738  0.1532 -0.3133  0.0637
 5403TIP3    H116170   0.144   2.402   4.744  0.0247  0.1344  0.2708
 5403TIP3    H216171   0.051   2.296   4.689  0.7536 -0.9203  1.0622
 5404TIP3   OH216172   7.405   1.577   3.979  0.7090 -0.6095 -0.0470
 5404TIP3    H116173   7.331   1.561   4.037 -0.2545 -1.8906 -1.5709
 5404TIP3    H216174   7.417   1.672   3.981 -0.2798 -0.4905  1.0524
 5405TIP3   OH216175   7.327   1.469   3.291  0.0914 -0.4999 -0.4377
 5405TIP3    H116176   7.245   1.432   3.258  0.1003 -0.8006 -0.1140
 5405TIP3    H216177   7.306   1.561   3.307 -0.1788 -0.5734 -0.3640
 5406TIP3   OH216178   5.726   0.813   4.322 -0.1622  0.1076 -0.3688
 5406TIP3    H116179   5.661   0.767   4.269  0.3435  0.0317 -0.9364
 5406TIP3    H216180   5.773   0.743   4.367  0.1918  0.0994 -0.7460
 5407TIP3   OH216181   5.355   6.597   2.836  0.5371  0.1658 -0.3142
 5407TIP3    H116182   5.277   6.645   2.806  0.1912 -0.4491 -0.4103
 5407TIP3    H216183   5.424   6.623   2.774  0.7817  1.8414  0.6458
 5408TIP3   OH216184   7.078   0.351   4.375  0.4945  0.7167 -0.2077
 5408TIP3    H116185   6.998   0.375   4.421  0.5966  2.2011 -0.8052
 5408TIP3    H216186   7.147   0.357   4.441 -0.1215 -2.5440  0.8524
 5409TIP3   OH216187   7.686   3.393   2.994  0.1635  0.2537  0.4180
 5409TIP3    H116188   7.639   3.457   2.941 -0.5174 -0.8998 -0.3886
 5409TIP3    H216189   7.649   3.308   2.969  1.3621 -0.5076  1.1419
 5410TIP3   OH216190   6.842   2.739   4.162 -0.1431 -0.2589 -0.2522
 5410TIP3    H116191   6.866   2.660   4.113 -0.6622 -0.4705 -0.1612
 5410TIP3    H216192   6.889   2.731   4.245  1.2529  0.4086 -0.9591
 5411TIP3   OH216193   7.459   0.694   4.160  0.3242  0.0529  0.0213
 5411TIP3    H116194   7.398   0.627   4.190  1.5284 -0.8398  0.5246
 5411TIP3    H216195   7.480   0.743   4.240  2.5476 -1.5231  0.4499
 5412TIP3   OH216196   0.160   1.168   4.139 -0.4480 -0.2601 -0.1150
 5412TIP3    H116197   0.141   1.215   4.058  1.8857  0.2555 -0.4133
 5412TIP3    H216198   0.253   1.146   4.133 -0.7835 -2.2833  1.3898
 5413TIP3   OH216199   2.083   3.119   4.219 -0.1939 -0.0268  0.2689
 5413TIP3    H116200   2.107   3.210   4.236  1.3908 -0.4495  0.3746
 5413TIP3    H216201   2.082   3.078   4.305 -1.2618 -0.0479  0.2600
 5414TIP3   OH216202   4.863   7.039   3.776 -0.2774  0.1741  0.3531
 5414TIP3    H116203   4.947   7.004   3.745  0.6939  2.5091  0.2536
 5414TIP3    H216204   4.808   7.040   3.698 -0.1148 -0.5583  0.2259
 5415TIP3   OH216205   0.973   0.360   3.181 -0.1508  0.4079  0.2441
 5415TIP3    H116206   0.903   0.408   3.137  1.0691  0.5104 -1.6225
 5415TIP3    H216207   1.054   0.399   3.148  0.8200 -1.1279  0.7490
 5416TIP3   OH216208   7.734   3.598   3.644  0.0105  0.1212  0.6494
 5416TIP3    H116209   7.742   3.659   3.717 -1.1214 -0.6616  1.4379
 5416TIP3    H216210   7.655   3.547   3.663 -0.2636 -0.1408 -1.0825
 5417TIP3   OH216211   0.081   0.405   4.076 -0.1437 -0.1901  0.0379
 5417TIP3    H116212   0.012   0.443   4.021 -0.8877 -1.4404  0.0919
 5417TIP3    H216213   0.054   0.426   4.165 -1.1785 -1.8319  0.1320
 5418TIP3   OH216214   6.131   3.849   3.660 -0.0202  0.1719 -0.5140
 5418TIP3    H116215   6.045   3.865   3.698 -0.1012 -0.4926 -0.4077
 5418TIP3    H216216   6.137   3.753   3.654  1.8871  0.0724  2.2299
 5419TIP3   OH216217   0.447   0.223   4.172 -0.2072  0.6682  0.0004
 5419TIP3    H116218   0.484   0.210   4.084 -1.6791 -0.2257 -0.5022
 5419TIP3    H216219   0.377   0.158   4.178 -1.7083  2.3218  0.9200
 5420TIP3   OH216220   1.081   2.112   3.586  0.0227  0.3857  0.0197
 5420TIP3    H116221   1.018   2.183   3.591 -1.2516 -0.6811 -0.4640
 5420TIP3    H216222   1.044   2.043   3.641  0.9386 -0.1155  0.0188
 5421TIP3   OH216223   0.017   2.643   4.620  0.2008  0.2300  0.0463
 5421TIP3    H116224   0.039   2.626   4.712 -0.4349 -0.2476  0.1149
 5421TIP3    H216225   0.065   2.577   4.571  1.0754  0.9111 -0.0203
 5422TIP3   OH216226   0.240   1.948   1.747  0.9627  0.1630 -0.4136
 5422TIP3    H116227   0.163   1.891   1.749 -0.0656  1.4820 -1.7721
 5422TIP3    H216228   0.227   2.003   1.670  3.0048  0.7732 -0.3295
 5423TIP3   OH216229   2.198   3.390   2.570 -0.7001  0.5643  0.2192
 5423TIP3    H116230   2.223   3.415   2.659  0.4530  0.4256 -0.0473
 5423TIP3    H216231   2.104   3.403   2.566 -1.0043 -0.9308  1.9465
 5424TIP3   OH216232   7.477   2.544   0.825 -0.3361 -0.6240  0.1147
 5424TIP3    H116233   7.499   2.455   0.855 -0.3419 -0.4492  0.6446
 5424TIP3    H216234   7.559   2.579   0.792 -0.5102 -1.1378 -0.9186
 5425TIP3   OH216235   6.233   0.091   3.870  0.1480  0.1054 -0.0941
 5425TIP3    H116236   6.162   0.147   3.839  0.5100  1.0098  0.6854
 5425TIP3    H216237   6.200   0.054   3.952  1.6828  2.9303  1.9165
 5426TIP3   OH216238   5.628   0.270   3.696  0.1421 -0.1008 -0.3231
 5426TIP3    H116239   5.662   0.183   3.676 -2.4154 -1.0979 -0.6204
 5426TIP3    H216240   5.562   0.254   3.764  0.9149  1.8428  0.9015
 5427TIP3   OH216241   6.035   1.943   3.766 -0.3205  1.0279  0.0643
 5427TIP3    H116242   6.110   1.948   3.825 -0.0533  1.3744 -0.2998
 5427TIP3    H216243   5.964   1.910   3.820 -0.1348  1.5581  0.6345
 5428TIP3   OH216244   7.513   0.469   2.999 -1.1039 -0.6170 -0.0945
 5428TIP3    H116245   7.568   0.523   2.942 -1.5949  0.7575  0.7155
 5428TIP3    H216246   7.559   0.467   3.083 -1.8420 -0.1969  0.3232
 5429TIP3   OH216247   0.540   1.693   4.277 -0.2606  0.5955 -0.1515
 5429TIP3    H116248   0.581   1.775   4.305 -0.6578 -0.1274  2.6928
 5429TIP3    H216249   0.606   1.626   4.297 -1.2141 -0.1172  0.6451
 5430TIP3   OH216250   4.421   7.307   1.815  0.5804 -0.3316  0.0820
 5430TIP3    H116251   4.440   7.223   1.774  0.9404 -0.4405  0.4691
 5430TIP3    H216252   4.338   7.293   1.860  0.2674 -0.2611 -0.4643
 5431TIP3   OH216253   5.854   1.274   4.824 -0.0382  0.4798  0.1357
 5431TIP3    H116254   5.888   1.362   4.837 -0.5161  0.8999 -1.2514
 5431TIP3    H216255   5.762   1.281   4.849  0.0651  0.2234  0.5864
 5432TIP3   OH216256   1.337   1.777   4.495  0.8482 -0.4870  0.3044
 5432TIP3    H116257   1.412   1.818   4.452  1.3612 -0.2530  1.3880
 5432TIP3    H216258   1.295   1.725   4.427  0.3209  1.6734 -1.0533
 5433TIP3   OH216259   6.058   1.451   2.258 -0.4622 -0.2469 -0.3358
 5433TIP3    H116260   6.061   1.479   2.167  1.6669  2.1909  0.4199
 5433TIP3    H216261   6.141   1.407   2.273 -0.8616 -0.7624  0.4132
 5434TIP3   OH216262   4.982   0.923   4.772 -0.0096 -0.4015 -0.5651
 5434TIP3    H116263   4.988   1.015   4.747  1.4901 -1.1681 -3.2063
 5434TIP3    H216264   5.024   0.919   4.858  1.4602  1.1351 -1.1789
 5435TIP3   OH216265   7.043   1.331   4.073  0.2577 -0.2107 -0.5104
 5435TIP3    H116266   7.119   1.287   4.111  1.3562  1.2478 -0.9594
 5435TIP3    H216267   7.000   1.263   4.021  1.3078 -1.0322 -0.3252
 5436TIP3   OH216268   5.553   1.184   3.544 -0.0068  0.5609  0.1044
 5436TIP3    H116269   5.544   1.186   3.640 -1.9890  0.8324 -0.0732
 5436TIP3    H216270   5.543   1.092   3.521  1.0235  0.4153  0.1811
 5437TIP3   OH216271   6.471   1.463   3.406 -0.0867 -0.2631  0.4911
 5437TIP3    H116272   6.407   1.442   3.338  1.0115  0.0638 -0.6562
 5437TIP3    H216273   6.515   1.380   3.425  0.7780 -0.0260 -0.4313
 5438TIP3   OH216274   7.498   2.204   3.335  0.5533 -0.0129  0.6767
 5438TIP3    H116275   7.548   2.174   3.260  4.4266 -0.2492  3.2214
 5438TIP3    H216276   7.506   2.299   3.333 -2.4816  0.2563 -1.2200
 5439TIP3   OH216277   4.340   1.628   3.784  0.0292 -0.7759  0.0174
 5439TIP3    H116278   4.326   1.604   3.876  1.0019 -0.6729  0.1951
 5439TIP3    H216279   4.265   1.685   3.763 -1.3163 -2.4786  0.1176
 5440TIP3   OH216280   4.821   7.284   5.687 -0.1249  0.8440  0.6505
 5440TIP3    H116281   4.736   7.267   5.728 -0.4253 -0.3636 -0.4227
 5440TIP3    H216282   4.864   7.198   5.688  0.6087  1.2089  0.1511
 5441TIP3   OH216283   5.964   3.328   3.552 -0.0792  0.6644 -0.0937
 5441TIP3    H116284   5.919   3.324   3.468 -0.4961  1.5538  0.0907
 5441TIP3    H216285   5.896   3.314   3.617 -0.3800  3.4906  0.2597
 5442TIP3   OH216286   7.659   0.445   3.885 -1.1252  0.0088  0.1296
 5442TIP3    H116287   7.631   0.531   3.854 -1.3040 -0.1454 -0.1445
 5442TIP3    H216288   7.715   0.412   3.815 -1.6743 -0.4162 -0.1188
 5443TIP3   OH216289   7.004   1.268   3.694 -0.1794 -1.1339 -0.4070
 5443TIP3    H116290   6.971   1.357   3.702 -0.0324 -1.0906 -0.2688
 5443TIP3    H216291   6.946   1.215   3.749  0.1780 -1.0065  0.0969
 5444TIP3   OH216292   0.803   6.659   4.818  0.2250 -0.2230  0.2141
 5444TIP3    H116293   0.717   6.686   4.785  0.7423  1.4684  0.2053
 5444TIP3    H216294   0.846   6.621   4.742  0.6496  1.8145 -0.5919
 5445TIP3   OH216295   3.068   1.015   3.208  0.2033  0.1640  0.2977
 5445TIP3    H116296   3.137   0.952   3.190  1.0306  1.1709 -0.1416
 5445TIP3    H216297   3.065   1.021   3.303  0.0634 -0.5963  0.3408
 5446TIP3   OH216298   3.179   1.234   3.809 -0.0581 -0.1864  0.2177
 5446TIP3    H116299   3.171   1.318   3.764  2.9485  0.9082  1.5678
 5446TIP3    H216300   3.092   1.194   3.803 -1.6763  3.2308 -0.0245
 5447TIP3   OH216301   7.011   0.799   5.804 -0.1750 -0.7725 -0.1471
 5447TIP3    H116302   6.918   0.784   5.784 -0.0564 -2.4071  0.4413
 5447TIP3    H216303   7.048   0.831   5.721 -1.4275  0.6892 -0.1494
 5448TIP3   OH216304   7.748   0.724   5.230  0.0657 -0.0862  0.4148
 5448TIP3    H116305   7.754   0.820   5.229  1.5890 -0.1751 -0.3024
 5448TIP3    H216306   7.655   0.706   5.215 -0.0250  1.2750 -0.8222
 5449TIP3   OH216307   6.956   3.323   5.803 -0.7566  0.0848 -0.4037
 5449TIP3    H116308   6.915   3.272   5.734  0.0052 -1.4528  0.2704
 5449TIP3    H216309   6.884   3.346   5.863 -1.4047  1.3636 -1.6470
 5450TIP3   OH216310   6.939   1.783   4.716 -0.1044 -0.6136 -0.8928
 5450TIP3    H116311   6.881   1.816   4.784  1.5184 -1.5762  1.0170
 5450TIP3    H216312   6.911   1.828   4.636 -1.5191  1.1443  0.5599
 5451TIP3   OH216313   7.174   2.906   0.161 -0.3221  0.2492 -0.3824
 5451TIP3    H116314   7.084   2.913   0.128 -0.1740 -1.4173 -1.1712
 5451TIP3    H216315   7.178   2.820   0.202  0.3519  1.1310  1.4481
 5452TIP3   OH216316   0.679   1.951   6.346  0.1053  0.4935  0.0542
 5452TIP3    H116317   0.668   1.957   6.251 -1.4787 -1.7796  0.0340
 5452TIP3    H216318   0.760   1.900   6.357  0.7526  1.4824 -0.0438
 5453TIP3   OH216319   1.007   0.404   2.223  0.2280  0.3528  0.4052
 5453TIP3    H116320   1.022   0.450   2.140  1.4666  0.1418  0.4982
 5453TIP3    H216321   0.976   0.317   2.197  0.8376  0.2069  0.1460
 5454TIP3   OH216322   6.294   3.403   4.869  0.3519 -0.0597  0.0514
 5454TIP3    H116323   6.264   3.471   4.930  0.4615 -0.1293  0.1833
 5454TIP3    H216324   6.235   3.329   4.885 -0.1833  0.2311 -0.5537
 5455TIP3   OH216325   0.986   1.442   4.093 -0.3476 -0.3967 -0.1819
 5455TIP3    H116326   0.951   1.529   4.077 -3.3025 -1.6550 -0.8895
 5455TIP3    H216327   1.034   1.421   4.012 -1.1868 -0.1548 -0.7470
 5456TIP3   OH216328   2.146   2.026   3.060 -0.3311 -0.0993 -0.3459
 5456TIP3    H116329   2.240   2.039   3.075 -0.1406 -1.7679  0.0050
 5456TIP3    H216330   2.131   2.061   2.972  0.6154  0.1511 -0.4230
 5457TIP3   OH216331   6.354   2.418   5.112  0.2005  0.2374  0.2577
 5457TIP3    H116332   6.372   2.511   5.123 -0.4353  0.2540  1.2615
 5457TIP3    H216333   6.351   2.404   5.017  0.5461  1.1838  0.1100
 5458TIP3   OH216334   6.692   1.628   3.852 -0.6699 -0.4174 -0.4275
 5458TIP3    H116335   6.745   1.600   3.777 -1.2549  1.2505 -1.5098
 5458TIP3    H216336   6.747   1.613   3.928  0.1071 -1.7408 -1.2339
 5459TIP3   OH216337   4.489   5.852   5.471  0.0132 -0.4138 -0.1690
 5459TIP3    H116338   4.501   5.920   5.404 -2.2904  0.7534  0.5147
 5459TIP3    H216339   4.457   5.776   5.422  0.0377 -0.1288 -0.6375
 5460TIP3   OH216340   0.930   1.314   3.248 -0.1803 -0.1740  0.3949
 5460TIP3    H116341   0.952   1.225   3.220  3.4831  0.1827  1.8248
 5460TIP3    H216342   0.881   1.302   3.330 -2.4502 -0.8907 -1.0054
 5461TIP3   OH216343   0.519   1.946   3.603 -0.2567 -0.5640  0.1055
 5461TIP3    H116344   0.487   1.992   3.681 -0.1822 -0.0985 -0.1427
 5461TIP3    H216345   0.503   2.006   3.531  1.5643 -0.1499  0.0267
 5462TIP3   OH216346   4.202   5.692   4.462 -0.1938  0.5205 -0.4885
 5462TIP3    H116347   4.129   5.630   4.464  2.0695 -2.2093  0.7924
 5462TIP3    H216348   4.250   5.670   4.382  0.4457  0.8192 -0.1958
 5463TIP3   OH216349   7.598   1.043   4.941 -0.0023  0.0297  0.0558
 5463TIP3    H116350   7.605   1.068   5.033 -0.7855  1.0051 -0.1420
 5463TIP3    H216351   7.667   1.093   4.897  0.3345 -0.3921  0.1045
 5464TIP3   OH216352   1.601   0.380   4.279 -0.1498  0.2146  0.0249
 5464TIP3    H116353   1.511   0.354   4.301 -0.3141  0.6388 -0.1346
 5464TIP3    H216354   1.616   0.458   4.332 -0.3041  0.8424 -0.8516
 5465TIP3   OH216355   2.500   2.598   3.602 -0.1440 -0.7750  0.3363
 5465TIP3    H116356   2.567   2.579   3.668 -0.1232  1.9923  1.2147
 5465TIP3    H216357   2.549   2.619   3.523  0.0001 -0.3709  0.5267
 5466TIP3   OH216358   6.733   1.672   5.344 -0.0398  0.1581  0.2172
 5466TIP3    H116359   6.740   1.584   5.381 -1.2735 -0.5160 -1.0835
 5466TIP3    H216360   6.656   1.667   5.287  0.2162  1.9288 -0.2895
 5467TIP3   OH216361   0.894   2.162   5.804  0.6750 -0.1271  0.8255
 5467TIP3    H116362   0.912   2.140   5.712 -0.0265  1.1814  0.3606
 5467TIP3    H216363   0.925   2.253   5.813  1.2665 -0.4387  2.0463
 5468TIP3   OH216364   5.685   7.189   4.721 -0.3377 -0.1333 -0.6294
 5468TIP3    H116365   5.759   7.134   4.745  0.3898  0.9157 -0.4151
 5468TIP3    H216366   5.700   7.211   4.629 -0.8670 -0.6609 -0.8449
 5469TIP3   OH216367   4.646   2.640   4.757 -0.5144 -0.4152  0.4022
 5469TIP3    H116368   4.612   2.715   4.708 -0.7839 -1.1717 -0.5985
 5469TIP3    H216369   4.665   2.674   4.844 -0.2431  0.9092 -0.1695
 5470TIP3   OH216370   6.077   1.141   4.695  0.0561 -1.2531  0.0161
 5470TIP3    H116371   5.992   1.182   4.710  0.8052  0.9360 -1.4823
 5470TIP3    H216372   6.132   1.171   4.768  0.1215 -0.9759 -0.1461
 5471TIP3   OH216373   6.490   0.163   4.238 -0.4111 -0.3205 -0.2563
 5471TIP3    H116374   6.584   0.182   4.245 -0.2764 -0.1205 -2.2716
 5471TIP3    H216375   6.483   0.105   4.162 -2.0855  0.8875 -1.0442
 5472TIP3   OH216376   0.691   2.974   3.940  0.2128  0.4161  0.2406
 5472TIP3    H116377   0.716   2.999   3.852 -0.1953 -0.4023 -0.1183
 5472TIP3    H216378   0.641   2.893   3.929  0.2028  0.2735  1.2243
 5473TIP3   OH216379   0.068   2.675   3.812 -0.3038 -0.3044  0.0167
 5473TIP3    H116380   0.123   2.732   3.865 -1.0786  1.8087 -1.3730
 5473TIP3    H216381   0.056   2.596   3.865  0.1683  1.1236  2.3009
 5474TIP3   OH216382   7.511   2.828   4.578 -0.2185 -0.2301 -0.0290
 5474TIP3    H116383   7.444   2.812   4.513  0.4904 -0.3133 -0.7444
 5474TIP3    H216384   7.591   2.842   4.528  0.6511 -1.8058  0.8671
 5475TIP3   OH216385   0.067   0.802   2.236 -0.4892  0.3600  0.6379
 5475TIP3    H116386  -0.023   0.832   2.228 -0.2644  0.8857  0.0057
 5475TIP3    H216387   0.073   0.765   2.324 -2.0741 -2.2367 -0.2876
 5476TIP3   OH216388   0.310   1.517   3.145  0.2980 -0.1199  0.2622
 5476TIP3    H116389   0.357   1.545   3.066  0.2052 -1.8175 -0.4019
 5476TIP3    H216390   0.366   1.547   3.217  1.4121 -0.3579 -0.4860
 5477TIP3   OH216391   3.378   4.672   0.443  0.5807  0.2098 -0.0880
 5477TIP3    H116392   3.410   4.761   0.428 -1.8558  1.5378  2.1627
 5477TIP3    H216393   3.286   4.674   0.415 -0.0918 -1.0085  1.9435
 5478TIP3   OH216394   0.432   0.808   3.019 -0.3083  0.4828 -0.2108
 5478TIP3    H116395   0.371   0.741   3.051 -0.5096 -0.2625 -2.0964
 5478TIP3    H216396   0.376   0.881   2.993 -0.3342  0.1413 -1.1206
 5479TIP3   OH216397   1.577   3.605   3.798 -0.2971 -0.0856  0.2267
 5479TIP3    H116398   1.597   3.699   3.801 -0.6281  0.0463 -1.4257
 5479TIP3    H216399   1.643   3.565   3.855  0.6966  1.0109 -0.1328
 5480TIP3   OH216400   4.186   3.085   5.859 -0.4735 -0.3364  0.2259
 5480TIP3    H116401   4.153   2.999   5.885  0.3689 -0.6387  0.3193
 5480TIP3    H216402   4.230   3.119   5.937 -1.2525  0.4135  0.3505
 5481TIP3   OH216403   0.486   1.800   4.581 -0.2278  0.4149 -0.7879
 5481TIP3    H116404   0.558   1.827   4.523 -0.6758  0.3240 -1.3886
 5481TIP3    H216405   0.422   1.871   4.573  0.1959  0.9562  0.4714
 5482TIP3   OH216406   6.002   0.888   4.552  0.1956 -0.4028  0.1577
 5482TIP3    H116407   6.042   0.975   4.557  0.4141 -0.5261  0.6151
 5482TIP3    H216408   5.917   0.903   4.510  0.6070 -0.1034 -0.5821
 5483TIP3   OH216409   0.638   1.298   3.278 -0.0837  0.2547 -0.2553
 5483TIP3    H116410   0.703   1.297   3.208 -0.0261 -1.4245 -0.2026
 5483TIP3    H216411   0.564   1.249   3.243 -0.4065  0.1824  0.5075
 5484TIP3   OH216412   6.959   1.507   4.703 -0.3280 -0.0527  0.0454
 5484TIP3    H116413   6.947   1.467   4.789  0.9421 -0.4179  0.0707
 5484TIP3    H216414   6.941   1.600   4.717  0.7761  0.0435  0.9273
 5485TIP3   OH216415   7.786   1.287   4.847 -0.5341 -0.6829 -0.2573
 5485TIP3    H116416   7.710   1.310   4.795  0.8180  0.8211 -1.6075
 5485TIP3    H216417   7.847   1.359   4.834  2.1897 -3.0823 -1.3621
 5486TIP3   OH216418   0.777   2.654   3.863  0.7522 -0.1649  0.5243
 5486TIP3    H116419   0.783   2.596   3.939  1.5320  0.5934  1.0558
 5486TIP3    H216420   0.704   2.620   3.812 -0.3079 -0.1965  2.0341
 5487TIP3   OH216421   0.233   2.420   3.159 -0.4474 -0.4467 -0.6708
 5487TIP3    H116422   0.296   2.388   3.094 -0.6505 -0.1861 -0.9939
 5487TIP3    H216423   0.206   2.342   3.207  0.0907 -0.5667 -0.5600
 5488TIP3   OH216424   1.425   1.320   3.727 -0.2068  0.0621 -0.4258
 5488TIP3    H116425   1.390   1.382   3.791 -0.1758  0.5696 -0.8908
 5488TIP3    H216426   1.466   1.376   3.660  2.5542 -0.5297  0.6980
 5489TIP3   OH216427   6.418   0.159   4.496  0.2300 -0.3000  0.1633
 5489TIP3    H116428   6.371   0.077   4.513 -2.6751  1.0876 -0.8203
 5489TIP3    H216429   6.406   0.174   4.402  2.0261  0.4901  0.0422
 5490TIP3   OH216430   4.136   2.936   2.293  0.0167  0.6664  0.1853
 5490TIP3    H116431   4.221   2.893   2.281 -0.9425 -1.2310  0.0432
 5490TIP3    H216432   4.082   2.903   2.221 -1.3534  0.5440  1.2450
 5491TIP3   OH216433   0.448   0.685   3.946  0.7110  0.1429  0.3467
 5491TIP3    H116434   0.428   0.594   3.966  0.9274  0.3614  1.5653
 5491TIP3    H216435   0.406   0.700   3.861 -0.1474 -0.8026  0.5960
 5492TIP3   OH216436   3.664   2.101   3.034 -0.2208 -0.3297  0.1897
 5492TIP3    H116437   3.572   2.082   3.018  0.0370 -0.1326 -1.6465
 5492TIP3    H216438   3.709   2.071   2.955  1.3214 -0.6331  1.1539
 5493TIP3   OH216439   6.469   2.664   4.150 -0.2403 -0.7594  0.0349
 5493TIP3    H116440   6.549   2.652   4.099 -1.2478  1.4969 -2.1575
 5493TIP3    H216441   6.489   2.737   4.209 -1.0084  0.5452 -1.2878
 5494TIP3   OH216442   0.194   0.493   3.539  0.3765  0.1142 -0.1805
 5494TIP3    H116443   0.272   0.465   3.587 -0.0978 -1.7694 -0.4493
 5494TIP3    H216444   0.214   0.471   3.448  0.0879  0.9325 -0.4434
 5495TIP3   OH216445   5.470   2.420   3.265  0.0594  0.0632  0.0874
 5495TIP3    H116446   5.495   2.442   3.175 -0.5570 -0.0257 -0.1031
 5495TIP3    H216447   5.444   2.329   3.261 -0.9900  0.3575  0.1490
 5496TIP3   OH216448   1.127   2.843   4.690  0.3537  0.3134  0.3490
 5496TIP3    H116449   1.054   2.893   4.728  1.2254  2.2934 -0.5203
 5496TIP3    H216450   1.185   2.910   4.653  2.0975 -1.2960  0.1082
 5497TIP3   OH216451   5.891   2.263   0.954  0.6529  0.1205  0.5513
 5497TIP3    H116452   5.895   2.348   0.999 -0.0583 -0.2229  1.2588
 5497TIP3    H216453   5.977   2.254   0.912  1.0081  0.8276  1.1256
 5498TIP3   OH216454   2.418   3.162   4.639 -0.1291 -0.2975  0.7117
 5498TIP3    H116455   2.464   3.122   4.565  0.9580 -0.5246  1.4956
 5498TIP3    H216456   2.331   3.124   4.636 -0.4963  0.5928 -1.1708
 5499TIP3   OH216457   1.241   0.257   6.291 -0.7751  0.3051  0.0081
 5499TIP3    H116458   1.274   0.260   6.381  0.9627 -0.1810 -0.5804
 5499TIP3    H216459   1.219   0.165   6.276 -0.7610  0.3265 -0.1518
 5500TIP3   OH216460   0.642   1.570   5.581 -0.0720  0.4152 -0.3377
 5500TIP3    H116461   0.612   1.653   5.619 -1.3543  0.5903 -1.7007
 5500TIP3    H216462   0.670   1.518   5.656 -0.4644  1.5969  0.6419
 5501TIP3   OH216463   2.731   4.130   5.974  0.1200 -0.1849  0.1759
 5501TIP3    H116464   2.741   4.085   6.058  1.5255  2.1366  1.3212
 5501TIP3    H216465   2.658   4.190   5.988 -0.1858 -0.3877 -0.5490
 5502TIP3   OH216466   3.646   5.469   0.073 -0.2990 -0.1795 -0.1392
 5502TIP3    H116467   3.639   5.520   0.154 -0.9330 -1.1137  0.4014
 5502TIP3    H216468   3.566   5.417   0.070  0.2379 -0.9911 -0.7977
 5503TIP3   OH216469   3.740   4.510   0.091  0.4190  0.9318  0.3862
 5503TIP3    H116470   3.758   4.512  -0.003  2.9698 -1.7001  0.7578
 5503TIP3    H216471   3.645   4.516   0.097 -0.0842 -2.1944 -2.5704
 5504TIP3   OH216472   1.523   1.516   3.534 -0.1212  0.3355 -0.7576
 5504TIP3    H116473   1.618   1.500   3.531 -0.0616  0.4985  0.0336
 5504TIP3    H216474   1.511   1.597   3.484  0.2823  0.8122 -0.1003
 5505TIP3   OH216475   7.546   1.535   6.332 -0.0939  0.2411  0.0149
 5505TIP3    H116476   7.592   1.498   6.257  1.4660  2.3269 -0.0825
 5505TIP3    H216477   7.535   1.461   6.391  2.2728 -0.6030 -0.5247
 5506TIP3   OH216478   1.747   1.834   4.791 -0.3344 -0.6744 -0.9287
 5506TIP3    H116479   1.842   1.836   4.791 -0.3471  0.9476  1.1218
 5506TIP3    H216480   1.722   1.883   4.712  0.5221  0.5330 -0.4586
 5507TIP3   OH216481   0.985   0.861   5.630 -0.1273  0.0065 -0.9481
 5507TIP3    H116482   1.019   0.895   5.547  0.9332 -0.2621 -0.6194
 5507TIP3    H216483   0.986   0.766   5.619 -3.6539  0.0263 -2.0918
 5508TIP3   OH216484   1.159   1.671   5.988  0.1723  0.0442 -1.0076
 5508TIP3    H116485   1.238   1.628   5.956  0.5265  1.4169 -2.0481
 5508TIP3    H216486   1.138   1.735   5.920 -0.5547  1.2238  0.3124
 5509TIP3   OH216487   0.558   0.455   4.846  0.0023  0.0283  0.2263
 5509TIP3    H116488   0.482   0.429   4.794 -0.6661  3.1442 -0.4058
 5509TIP3    H216489   0.547   0.548   4.861  2.4040  0.0373  2.3398
 5510TIP3   OH216490   2.622   2.922   4.785 -0.2844  0.2067 -0.1772
 5510TIP3    H116491   2.688   2.971   4.735  0.0662  0.4125  0.4906
 5510TIP3    H216492   2.587   2.859   4.721  0.1407  0.4869 -0.6971
 5511TIP3   OH216493   2.446   2.084   4.967 -0.0721 -0.0409  0.3019
 5511TIP3    H116494   2.399   2.128   4.896 -0.1279  1.6636  1.3850
 5511TIP3    H216495   2.377   2.050   5.024 -0.0534 -2.4339 -1.0314
 5512TIP3   OH216496   6.180   5.644   4.961 -0.2996  0.2488  0.7941
 5512TIP3    H116497   6.232   5.714   4.921 -0.5613 -0.2200 -0.3812
 5512TIP3    H216498   6.169   5.671   5.052  1.5923  0.6061  0.9490
 5513TIP3   OH216499   5.239   5.292   0.239  0.1810  0.1826  0.2669
 5513TIP3    H116500   5.252   5.300   0.144 -0.2967 -1.1445  0.0738
 5513TIP3    H216501   5.301   5.224   0.265 -0.7038 -0.4906  0.6570
 5514TIP3   OH216502   0.906   2.182   4.511 -0.5250 -0.1166 -0.1320
 5514TIP3    H116503   0.988   2.147   4.476 -0.1662  0.8216 -0.2196
 5514TIP3    H216504   0.848   2.106   4.514  0.3010 -0.7575 -0.1933
 5515TIP3   OH216505   0.447   0.298   5.667 -0.0924 -0.5676  0.1548
 5515TIP3    H116506   0.479   0.237   5.733 -1.0356 -1.3845 -0.1238
 5515TIP3    H216507   0.367   0.336   5.705  1.0807  1.3526  0.7971
 5516TIP3   OH216508   4.430   1.971   0.999 -0.4769 -0.2082 -0.5974
 5516TIP3    H116509   4.466   1.988   1.086 -0.0472 -0.7344 -0.6736
 5516TIP3    H216510   4.446   1.878   0.984 -2.2666 -0.5596 -0.4327
 5517TIP3   OH216511   1.378   3.306   5.377  0.3541  0.8893  0.8942
 5517TIP3    H116512   1.390   3.390   5.422  0.9659  1.2121  0.1340
 5517TIP3    H216513   1.291   3.314   5.336  0.3406  1.0845  0.9597
 5518TIP3   OH216514   2.427   2.209   5.867  0.3489  0.5292  0.1814
 5518TIP3    H116515   2.385   2.291   5.893  1.8104  1.4134 -0.1816
 5518TIP3    H216516   2.453   2.168   5.950  0.1077  0.6870  0.3376
 5519TIP3   OH216517   7.442   2.593   5.019  0.7999  0.5823 -0.5897
 5519TIP3    H116518   7.356   2.596   4.979 -0.8203  0.3376  2.7326
 5519TIP3    H216519   7.480   2.511   4.988 -0.8002 -0.0883 -0.8130
 5520TIP3   OH216520   7.738   0.840   3.555  0.0372  0.2397  0.0287
 5520TIP3    H116521   7.817   0.847   3.502  0.3566  0.3582  0.5201
 5520TIP3    H216522   7.762   0.878   3.639 -1.1096  2.0066 -0.4294
 5521TIP3   OH216523   6.984   3.300   3.939  0.3057 -0.1860 -0.0786
 5521TIP3    H116524   6.930   3.373   3.907  0.4029 -0.3633 -0.6398
 5521TIP3    H216525   6.972   3.231   3.875  0.5811 -0.5071  0.2134
 5522TIP3   OH216526   3.265   2.544   4.193  0.6545 -0.3635  0.1417
 5522TIP3    H116527   3.199   2.610   4.215  0.5182 -0.3481 -0.3046
 5522TIP3    H216528   3.215   2.473   4.154  0.8095 -0.7040  0.5584
 5523TIP3   OH216529   6.828   0.430   4.505  0.3136 -0.2566  0.5746
 5523TIP3    H116530   6.788   0.400   4.587  1.1381  2.2316  1.9489
 5523TIP3    H216531   6.755   0.472   4.459  0.1358 -0.5150  0.6140
 5524TIP3   OH216532   1.168   2.268   5.930  0.4745  0.4980 -0.2095
 5524TIP3    H116533   1.099   2.320   5.887 -0.2061 -0.1220  0.1281
 5524TIP3    H216534   1.129   2.239   6.012  0.7170 -0.8874 -0.5733
 5525TIP3   OH216535   2.655   1.522   4.299  0.6467 -0.1576  0.6114
 5525TIP3    H116536   2.696   1.600   4.336  0.5110  0.4168 -0.4218
 5525TIP3    H216537   2.709   1.449   4.330  1.3290  0.4317  0.8209
 5526TIP3   OH216538   2.624   1.995   3.548  0.1649 -0.4623 -0.3837
 5526TIP3    H116539   2.600   1.971   3.459 -1.9614  1.5891 -0.4138
 5526TIP3    H216540   2.543   1.987   3.599  0.9896 -0.0905  1.0246
 5527TIP3   OH216541   0.995   2.431   5.792 -0.1095 -0.1692 -0.5248
 5527TIP3    H116542   0.935   2.498   5.824  1.5490  1.4660 -0.7932
 5527TIP3    H216543   0.999   2.443   5.698  1.4264  0.4300 -0.4067
 5528TIP3   OH216544   1.279   2.725   6.297 -0.6354  0.4869 -0.0231
 5528TIP3    H116545   1.239   2.662   6.237 -0.4605  0.2526  0.1047
 5528TIP3    H216546   1.209   2.746   6.359 -0.9851  1.1607 -0.6427
 5529TIP3   OH216547   6.316   7.051   5.296  0.2705  0.6275 -0.1788
 5529TIP3    H116548   6.236   7.102   5.310 -0.5645 -0.3301 -1.3221
 5529TIP3    H216549   6.285   6.961   5.281  1.6081  0.1077  0.0742
 5530TIP3   OH216550   5.807   5.922   0.450  0.8382 -0.2651  0.8228
 5530TIP3    H116551   5.786   5.966   0.533  1.0579  1.6804 -0.1268
 5530TIP3    H216552   5.756   5.969   0.384  0.8995 -1.6027 -0.1969
 5531TIP3   OH216553   0.837   2.771   3.596 -0.3208  0.0310  0.0823
 5531TIP3    H116554   0.769   2.749   3.533 -0.9649 -3.4163  1.8547
 5531TIP3    H216555   0.823   2.710   3.668  2.4040  1.7070  2.1293
 5532TIP3   OH216556   1.075   1.353   3.855  0.1583 -0.5573  0.2108
 5532TIP3    H116557   1.167   1.380   3.853  0.0101 -0.1189 -1.7621
 5532TIP3    H216558   1.076   1.260   3.834  0.2934 -0.9910  2.1156
 5533TIP3   OH216559   1.867   3.759   6.202 -0.1756  0.1195  0.6436
 5533TIP3    H116560   1.894   3.671   6.229 -0.7950 -0.6149 -1.1071
 5533TIP3    H216561   1.935   3.788   6.142 -0.5725  0.3832  0.3249
 5534TIP3   OH216562   0.532   1.838   5.603 -1.1680 -0.6469 -0.2912
 5534TIP3    H116563   0.619   1.875   5.591 -1.7552  0.9228  0.2112
 5534TIP3    H216564   0.508   1.804   5.517 -0.9623  0.8718 -0.9500
 5535TIP3   OH216565   0.854   2.619   5.343 -0.9508  0.1178 -0.1779
 5535TIP3    H116566   0.796   2.586   5.274 -1.7702  0.5826  0.2722
 5535TIP3    H216567   0.890   2.540   5.384  0.9330 -0.1498 -2.2646
 5536TIP3   OH216568   2.662   6.024   0.712 -0.3646 -0.0955 -0.5652
 5536TIP3    H116569   2.669   5.985   0.625  0.2453  0.8662 -0.9548
 5536TIP3    H216570   2.732   5.982   0.762 -1.0957 -1.0905 -0.3573
 5537TIP3   OH216571   0.049   2.689   4.926  0.2010 -0.3938 -0.1829
 5537TIP3    H116572   0.135   2.659   4.957  0.5844  0.6616 -0.2177
 5537TIP3    H216573  -0.009   2.676   5.001  0.4155 -0.9737 -0.1094
 5538TIP3   OH216574   4.808   1.226   0.949  0.2856  1.3929  0.5926
 5538TIP3    H116575   4.779   1.316   0.960  2.1989  2.1149 -0.0923
 5538TIP3    H216576   4.902   1.228   0.966  0.6709 -0.1387 -1.1263
 5539TIP3   OH216577   2.572   1.898   3.308  0.1651  0.0692 -0.9171
 5539TIP3    H116578   2.496   1.940   3.268 -1.4644 -1.9028  0.0304
 5539TIP3    H216579   2.629   1.876   3.234 -1.7199 -1.4073 -1.9768
 5540TIP3   OH216580   0.764   2.823   6.300 -0.3421 -0.0404  0.1216
 5540TIP3    H116581   0.771   2.731   6.273 -0.0346  0.2154 -0.6551
 5540TIP3    H216582   0.714   2.865   6.230  0.0698  0.5228  0.1720
 5541TIP3   OH216583   1.227   4.081   3.439 -0.0958 -0.2458 -0.0880
 5541TIP3    H116584   1.249   4.004   3.492  2.4072  1.4273  1.4432
 5541TIP3    H216585   1.176   4.137   3.497 -1.3190 -0.4219 -0.9751
 5542TIP3   OH216586   4.404   5.145   0.001 -0.5358 -0.3438 -0.3676
 5542TIP3    H116587   4.352   5.123   0.078 -1.0866  0.6622 -0.4402
 5542TIP3    H216588   4.347   5.127  -0.073  0.2263 -1.9452 -0.5890
 5543TIP3   OH216589   2.403   6.422   1.880  0.6567 -0.5022 -0.2004
 5543TIP3    H116590   2.471   6.366   1.916  0.0580 -0.3939  1.1420
 5543TIP3    H216591   2.328   6.363   1.866  0.5357 -0.3393 -0.2459
 5544TIP3   OH216592   1.747   2.746   4.830  0.8104 -0.0584 -0.9488
 5544TIP3    H116593   1.729   2.683   4.899 -0.8847  1.2512 -0.1726
 5544TIP3    H216594   1.829   2.789   4.857  0.2770  0.2803  0.1244
 5545TIP3   OH216595   4.795   2.758   0.174  0.2412  0.0467 -0.0370
 5545TIP3    H116596   4.774   2.668   0.197  0.5901  0.2774  1.2195
 5545TIP3    H216597   4.872   2.751   0.118  2.3005 -0.2636  2.7318
 5546TIP3   OH216598   0.541   2.576   4.292  0.1125 -0.3268 -0.1579
 5546TIP3    H116599   0.514   2.506   4.352  1.0551 -1.1033 -0.6204
 5546TIP3    H216600   0.592   2.531   4.225 -0.5149  0.6044 -1.2811
 5547TIP3   OH216601   2.503   4.268   6.036  0.2577 -0.3505 -0.0013
 5547TIP3    H116602   2.464   4.209   6.101 -0.5635 -1.2680 -1.2869
 5547TIP3    H216603   2.429   4.293   5.979  1.0701 -0.0900 -0.9617
 5548TIP3   OH216604   3.366   2.986   4.088 -0.1736 -0.4078 -0.3137
 5548TIP3    H116605   3.394   2.897   4.108 -2.1853 -0.9840  0.0695
 5548TIP3    H216606   3.330   3.018   4.171  1.7392  1.2617 -0.0799
 5549TIP3   OH216607   2.195   2.270   3.650 -0.0991  0.0111  0.6237
 5549TIP3    H116608   2.176   2.354   3.691  1.3410  0.5254  0.2806
 5549TIP3    H216609   2.114   2.220   3.658 -1.1208  1.5940  0.4257
 5550TIP3   OH216610   6.875   2.861   5.131  0.2650 -0.0371 -0.2546
 5550TIP3    H116611   6.888   2.956   5.127 -0.3587 -0.0123 -1.9464
 5550TIP3    H216612   6.939   2.826   5.069 -1.5076 -0.5105 -1.8548
 5551TIP3   OH216613   6.124   5.920   5.413 -0.0896  0.3365 -0.3805
 5551TIP3    H116614   6.058   5.986   5.435  0.4203  0.5517  0.5193
 5551TIP3    H216615   6.131   5.866   5.492 -1.2348 -1.4309 -1.4625
 5552TIP3   OH216616   0.765   2.243   5.306  0.0237  0.2162 -0.1876
 5552TIP3    H116617   0.847   2.196   5.317 -0.2645 -0.5001 -1.0793
 5552TIP3    H216618   0.702   2.196   5.360 -0.2146 -0.2942 -0.9094
 5553TIP3   OH216619   0.929   0.480   6.064 -0.1540 -0.0420  0.0558
 5553TIP3    H116620   0.945   0.488   6.158 -0.2019  1.3823 -0.0467
 5553TIP3    H216621   0.833   0.487   6.055 -0.0041  2.0047 -0.2726
 5554TIP3   OH216622   0.841   0.987   4.492  0.1493 -0.0363  0.1366
 5554TIP3    H116623   0.854   0.930   4.416 -0.2875  0.1811 -0.0996
 5554TIP3    H216624   0.929   0.999   4.528  0.4422  0.3845 -0.7082
 5555TIP3   OH216625   1.169   0.830   3.853  0.4001  0.2147 -0.2901
 5555TIP3    H116626   1.191   0.749   3.806  0.7545  0.7274 -1.0085
 5555TIP3    H216627   1.225   0.829   3.930  0.2519 -0.3273 -0.1828
 5556TIP3   OH216628   7.704   2.185   3.920  0.0545  0.8703  0.4639
 5556TIP3    H116629   7.765   2.160   3.850  1.0093  0.7383  1.3395
 5556TIP3    H216630   7.618   2.184   3.877  0.5193 -0.1136 -0.4871
 5557TIP3   OH216631   1.634   1.540   3.947 -0.2026  0.1409 -0.3380
 5557TIP3    H116632   1.667   1.463   3.899 -0.2121 -1.6907  2.4633
 5557TIP3    H216633   1.712   1.592   3.965  0.0909 -0.2363 -0.5089
 5558TIP3   OH216634   2.147   2.143   6.065  0.8559  0.0136  0.1611
 5558TIP3    H116635   2.237   2.135   6.095  1.5651  0.4237 -1.7790
 5558TIP3    H216636   2.151   2.124   5.972 -1.2435 -0.9623  0.2480
 5559TIP3   OH216637   2.779   3.057   4.607  0.7276  0.2061  0.0698
 5559TIP3    H116638   2.865   3.041   4.647  0.2393  0.2406  1.1375
 5559TIP3    H216639   2.795   3.048   4.513  1.8469 -0.0548  0.2734
 5560TIP3   OH216640   3.750   2.167   2.393 -0.3563 -0.1646  0.0909
 5560TIP3    H116641   3.807   2.095   2.417 -1.1473 -0.5954  0.6645
 5560TIP3    H216642   3.673   2.126   2.354  0.3403  0.4581 -2.0600
 5561TIP3   OH216643   1.469   3.233   3.428 -0.1907 -0.8014  0.0895
 5561TIP3    H116644   1.411   3.229   3.504  2.3617  1.6708  2.3060
 5561TIP3    H216645   1.506   3.321   3.431  4.0663 -2.4357 -0.8492
 5562TIP3   OH216646   1.333   0.999   5.243  0.1073  0.3083  0.5749
 5562TIP3    H116647   1.312   0.911   5.274 -0.0577  0.2909  0.4168
 5562TIP3    H216648   1.390   0.986   5.167 -0.0184  0.3317  0.4748
 5563TIP3   OH216649   1.721   0.861   1.393 -0.0159 -0.2542 -0.1586
 5563TIP3    H116650   1.745   0.839   1.303  0.9310 -0.2837  0.1038
 5563TIP3    H216651   1.739   0.955   1.401 -1.8532  0.1529 -0.5619
 5564TIP3   OH216652   3.721   1.855   5.911 -0.0257  0.2583 -0.4555
 5564TIP3    H116653   3.782   1.782   5.920 -0.4853 -0.1743 -0.7690
 5564TIP3    H216654   3.670   1.834   5.832  0.5066  1.4237 -1.1221
 5565TIP3   OH216655   2.299   0.478   5.302 -0.3018 -0.2679 -0.3019
 5565TIP3    H116656   2.357   0.414   5.343 -2.1639 -2.6665 -1.3107
 5565TIP3    H216657   2.337   0.492   5.215 -1.5542 -2.3729 -1.2281
 5566TIP3   OH216658   7.480   2.242   3.775  0.6146 -0.6385  0.2181
 5566TIP3    H116659   7.486   2.192   3.694 -0.1998 -0.4060  0.0067
 5566TIP3    H216660   7.471   2.333   3.747  0.6327 -0.5253  0.5686
 5567TIP3   OH216661   3.022   2.858   5.339 -0.3858  1.0650 -0.4304
 5567TIP3    H116662   3.066   2.917   5.400 -0.2991 -0.6071  1.1624
 5567TIP3    H216663   3.049   2.889   5.252  2.6787  1.0647  0.4612
 5568TIP3   OH216664   7.007   0.641   4.455  0.3551 -0.1584 -0.8895
 5568TIP3    H116665   6.948   0.568   4.471  0.5995 -0.3807 -1.0081
 5568TIP3    H216666   6.951   0.718   4.459  0.6132 -0.0402  2.7088
 5569TIP3   OH216667   1.726   3.996   6.062  0.1162  0.6673 -0.4185
 5569TIP3    H116668   1.806   4.046   6.045  0.4878 -0.5020 -2.1459
 5569TIP3    H216669   1.754   3.927   6.122 -0.0409  1.4589  0.5902
 5570TIP3   OH216670   3.441   5.827   1.211 -0.6723 -0.3411  1.0128
 5570TIP3    H116671   3.363   5.865   1.172 -0.0252 -1.0624 -1.0525
 5570TIP3    H216672   3.492   5.902   1.241 -0.9485  0.2663 -0.0137
 5571TIP3   OH216673   4.161   5.335   0.172 -0.1207  0.3923 -0.0039
 5571TIP3    H116674   4.100   5.284   0.119 -0.5477  1.8049 -0.8944
 5571TIP3    H216675   4.106   5.397   0.220  0.6422  2.1772 -1.3817
 5572TIP3   OH216676   3.474   5.255   0.542  0.0872 -0.0215  0.2936
 5572TIP3    H116677   3.555   5.301   0.520  0.8678 -0.7666  1.5027
 5572TIP3    H216678   3.481   5.238   0.636 -0.7872 -1.4168  0.1339
 5573TIP3   OH216679   5.445   5.091   0.279  0.5544  0.2641  0.0715
 5573TIP3    H116680   5.475   5.068   0.190 -0.1359  1.4715 -0.4795
 5573TIP3    H216681   5.381   5.024   0.300  1.6679 -0.7846  0.1809
 5574TIP3   OH216682   1.634   3.248   4.493  0.0998  0.0449 -0.2091
 5574TIP3    H116683   1.651   3.154   4.498 -0.0937  0.0519  0.6611
 5574TIP3    H216684   1.565   3.263   4.557 -0.0708  0.7348 -0.5547
 5575TIP3   OH216685   2.951   2.487   5.540 -0.4063 -0.5915 -0.8283
 5575TIP3    H116686   3.027   2.523   5.585  0.7228 -1.5449 -1.9500
 5575TIP3    H216687   2.922   2.414   5.595 -0.0207 -0.7356 -0.8180
 5576TIP3   OH216688   3.460   0.672   5.654  0.1584 -0.3878  0.6189
 5576TIP3    H116689   3.478   0.598   5.712 -0.8148 -1.3761 -0.3256
 5576TIP3    H216690   3.370   0.659   5.626  0.3442  0.5617 -0.4331
 5577TIP3   OH216691   7.259   1.549   3.646  0.4491  0.2532 -0.3685
 5577TIP3    H116692   7.210   1.590   3.717  0.7822  0.7578 -0.4335
 5577TIP3    H216693   7.194   1.538   3.575  0.3099  0.4584 -0.2721
 5578TIP3   OH216694   1.339   1.305   3.311 -0.5634  0.2986  0.5662
 5578TIP3    H116695   1.318   1.239   3.245 -1.2559  1.6067 -0.5505
 5578TIP3    H216696   1.427   1.334   3.289 -1.4545  1.9819 -0.8705
 5579TIP3   OH216697   2.438   5.298   0.580 -0.0651 -0.5482 -0.1958
 5579TIP3    H116698   2.419   5.210   0.545  0.8134 -1.3121  1.2342
 5579TIP3    H216699   2.505   5.333   0.520  0.8771 -1.5524  0.2573
 5580TIP3   OH216700   1.338   6.666   0.543  0.5423  0.0630  0.0783
 5580TIP3    H116701   1.390   6.727   0.595 -0.0524  0.6107  0.0492
 5580TIP3    H216702   1.398   6.596   0.519  1.0137  0.2007  0.8532
 5581TIP3   OH216703   1.649   2.325   5.228  0.1782  0.1863 -0.8742
 5581TIP3    H116704   1.678   2.387   5.295 -2.6781 -0.0935  0.6573
 5581TIP3    H216705   1.641   2.241   5.273 -1.1314 -0.1557 -1.7092
 5582TIP3   OH216706   2.445   3.439   4.744  0.4484 -0.1482 -0.1481
 5582TIP3    H116707   2.462   3.438   4.838  0.5508  1.6325 -0.1195
 5582TIP3    H216708   2.410   3.353   4.724 -1.8688  0.2818  1.9484
 5583TIP3   OH216709   1.503   0.928   5.053  0.3803  0.4860  0.1632
 5583TIP3    H116710   1.576   0.946   5.112  0.8393 -1.9552  0.3717
 5583TIP3    H216711   1.520   0.983   4.977  0.4848  2.6815  1.7155
 5584TIP3   OH216712   2.555   5.739   0.514  0.0564 -0.0194 -0.0781
 5584TIP3    H116713   2.545   5.652   0.550  1.2108 -0.0936  0.0733
 5584TIP3    H216714   2.466   5.771   0.504 -0.3213 -0.5620  1.4403
 5585TIP3   OH216715   2.908   3.360   5.988 -0.3014 -0.2616 -0.4633
 5585TIP3    H116716   2.837   3.414   6.021 -1.1057 -0.0874 -2.3856
 5585TIP3    H216717   2.987   3.410   6.007 -0.7322 -0.1722  1.1398
 5586TIP3   OH216718   1.718   3.103   4.775  0.4392  0.5747  0.1069
 5586TIP3    H116719   1.788   3.146   4.727  0.5165  0.1883 -0.1241
 5586TIP3    H216720   1.750   3.097   4.865  0.0769  1.7822  0.3219
 5587TIP3   OH216721   1.558   1.856   3.987  0.2077 -0.3150 -0.0656
 5587TIP3    H116722   1.617   1.886   3.918 -0.0900 -1.0326 -0.6400
 5587TIP3    H216723   1.473   1.848   3.944 -0.4862  1.4606  0.9378
 5588TIP3   OH216724   5.288   6.813   5.212  0.5640  0.8461  0.1799
 5588TIP3    H116725   5.218   6.818   5.277  0.5153  0.0340  0.1919
 5588TIP3    H216726   5.293   6.901   5.176  0.5255  1.2793  1.2167
 5589TIP3   OH216727   1.864   2.590   4.248  0.0879 -0.8013 -0.0825
 5589TIP3    H116728   1.907   2.509   4.277  0.6967 -0.3216  0.3688
 5589TIP3    H216729   1.895   2.603   4.159  0.5030 -0.7178  0.0735
 5590TIP3   OH216730   1.736   2.552   5.401 -0.1980 -0.0267  0.5164
 5590TIP3    H116731   1.703   2.623   5.346  2.3466  1.3736  0.7017
 5590TIP3    H216732   1.823   2.582   5.429  0.3836 -2.6482  1.6816
 5591TIP3   OH216733   1.713   2.032   3.851 -0.3563 -0.3948 -0.0719
 5591TIP3    H116734   1.667   2.106   3.890 -0.9198 -0.0241 -1.4214
 5591TIP3    H216735   1.806   2.048   3.872 -0.6364 -0.1807  1.0496
 5592TIP3   OH216736   1.052   2.848   5.619 -0.2553 -0.2682  0.1830
 5592TIP3    H116737   1.029   2.804   5.701 -0.6791  1.1178  0.8304
 5592TIP3    H216738   1.003   2.931   5.622  0.1381  0.0266 -1.2280
 5593TIP3   OH216739   7.125   0.544   0.302  0.0479  0.3779 -0.2108
 5593TIP3    H116740   7.205   0.567   0.255  1.4634 -0.1558  1.8510
 5593TIP3    H216741   7.156   0.509   0.386 -2.3847  1.6112  1.2616
 5594TIP3   OH216742   5.655   0.890   0.928  0.4708 -0.3507  0.0823
 5594TIP3    H116743   5.696   0.937   0.856 -0.6634 -0.4773 -0.6702
 5594TIP3    H216744   5.589   0.834   0.885 -1.1546  0.5737  1.3205
 5595TIP3   OH216745   2.801   4.761   2.136  0.3631 -0.3066 -0.8303
 5595TIP3    H116746   2.744   4.815   2.081 -0.1110 -0.8763 -0.9056
 5595TIP3    H216747   2.815   4.813   2.215 -0.4088 -0.2351 -0.7373
 5596TIP3   OH216748   3.201   2.689   3.886 -0.0673 -0.3503 -0.2992
 5596TIP3    H116749   3.229   2.766   3.837  0.6350  1.4496  2.7607
 5596TIP3    H216750   3.272   2.626   3.876 -0.5539 -0.5732 -2.6400
 5597TIP3   OH216751   3.063   7.205   0.481 -0.2667  0.2201 -0.0202
 5597TIP3    H116752   3.009   7.193   0.403 -0.0365 -4.4406  0.4271
 5597TIP3    H216753   3.000   7.227   0.550 -0.9544  0.0534 -0.5824
 5598TIP3   OH216754   0.853   2.265   3.702 -0.3625  0.2698 -0.9412
 5598TIP3    H116755   0.762   2.292   3.690  0.1735  1.7587 -1.6841
 5598TIP3    H216756   0.890   2.331   3.760  0.7401  0.7404 -2.1498
 5599TIP3   OH216757   1.601   2.824   4.605  0.1151 -0.1274  0.5546
 5599TIP3    H116758   1.582   2.730   4.599 -1.0817 -0.0054  2.0839
 5599TIP3    H216759   1.644   2.834   4.690 -0.2238  0.7691  0.6301
 5600TIP3   OH216760   0.187   3.638   2.215  0.4648  0.0167 -0.3552
 5600TIP3    H116761   0.103   3.634   2.169  1.3986  0.6745 -2.2028
 5600TIP3    H216762   0.200   3.551   2.250 -0.6056 -0.3205 -0.7787
 5601TIP3   OH216763   2.381   2.391   4.923  0.3906 -0.0972 -0.3780
 5601TIP3    H116764   2.348   2.466   4.973  1.5303  0.1765 -0.0234
 5601TIP3    H216765   2.302   2.351   4.885 -0.2915  0.8738 -0.0125
 5602TIP3   OH216766   0.833   3.010   5.685 -0.1656 -0.6288  0.6465
 5602TIP3    H116767   0.855   3.034   5.775  1.5304 -1.1678  0.4025
 5602TIP3    H216768   0.739   2.992   5.686 -1.0259  3.3365  1.4403
 5603TIP3   OH216769   4.156   4.450   1.346 -0.0112 -0.4027  0.5169
 5603TIP3    H116770   4.156   4.355   1.334 -0.5421 -0.1705 -1.4410
 5603TIP3    H216771   4.077   4.480   1.302  0.2765  0.9699  0.9223
 5604TIP3   OH216772   6.149   6.678   6.083  0.1657 -0.4374  0.0480
 5604TIP3    H116773   6.084   6.744   6.106 -0.1494 -1.4197  2.1045
 5604TIP3    H216774   6.230   6.727   6.070 -0.6581  0.6338 -1.1056
 5605TIP3   OH216775   4.466   5.695   0.393 -0.0486 -0.1811 -0.3321
 5605TIP3    H116776   4.542   5.736   0.351 -0.0294  0.3764  0.2442
 5605TIP3    H216777   4.390   5.739   0.355  0.0145  1.5522  1.4694
 5606TIP3   OH216778   1.335   1.123   3.522 -0.4018  0.1825  0.1727
 5606TIP3    H116779   1.312   1.193   3.582  2.5354  0.3518  1.1736
 5606TIP3    H216780   1.361   1.167   3.442  1.7415  0.2785  0.9046
 5607TIP3   OH216781   1.432   3.538   5.522  0.1774 -0.0100 -0.0055
 5607TIP3    H116782   1.440   3.620   5.571  0.4872  0.5489 -0.9675
 5607TIP3    H216783   1.461   3.470   5.582 -1.5730  0.4003  1.3357
 5608TIP3   OH216784   0.376   7.246   5.530 -0.0647  0.0418 -0.3596
 5608TIP3    H116785   0.455   7.233   5.477  0.1581 -1.1508  0.2576
 5608TIP3    H216786   0.393   7.327   5.578  0.7191 -0.1373 -0.3300
 5609TIP3   OH216787   2.299   2.626   3.796  0.2192 -0.0312 -0.5320
 5609TIP3    H116788   2.355   2.618   3.719  0.6236 -2.2295 -0.0383
 5609TIP3    H216789   2.213   2.596   3.766  0.4383 -1.1317 -0.0707
 5610TIP3   OH216790   2.139   5.644   0.693 -0.1602  0.0836 -0.1120
 5610TIP3    H116791   2.133   5.568   0.635 -0.5664  1.1247 -1.4849
 5610TIP3    H216792   2.140   5.608   0.781  0.1677 -1.5334 -0.7587
 5611TIP3   OH216793   1.017   3.243   4.717 -0.0505  0.5347 -0.2788
 5611TIP3    H116794   0.974   3.158   4.712 -1.2100  1.0901  0.1321
 5611TIP3    H216795   1.095   3.227   4.770 -2.0597  0.4309  2.7508
 5612TIP3   OH216796   4.044   4.331   5.408  0.4156  0.5067 -1.0186
 5612TIP3    H116797   3.955   4.350   5.378 -0.3382 -0.9709  0.2117
 5612TIP3    H216798   4.065   4.403   5.468 -0.6267 -0.0544  0.0382
 5613TIP3   OH216799   0.904   0.991   3.518  0.0625  0.2276 -0.6756
 5613TIP3    H116800   0.884   1.080   3.491 -0.4341 -0.1289 -1.4856
 5613TIP3    H216801   0.840   0.971   3.586  0.3334  0.5751 -0.3173
 5614TIP3   OH216802   0.409   3.975   4.720  0.2830  0.5103 -0.4493
 5614TIP3    H116803   0.500   3.959   4.696  0.9287 -0.8931  2.6648
 5614TIP3    H216804   0.374   3.888   4.740 -1.7049  1.0696 -1.3899
 5615TIP3   OH216805   6.455   1.267   5.022 -0.5163 -0.2562 -0.3936
 5615TIP3    H116806   6.494   1.325   4.957 -2.1278  1.7179  0.3402
 5615TIP3    H216807   6.529   1.229   5.069  0.5609  1.1769 -0.9220
 5616TIP3   OH216808   2.770   1.757   4.449  0.0505 -0.1460  0.1617
 5616TIP3    H116809   2.713   1.808   4.392  1.9047  1.0433 -0.6570
 5616TIP3    H216810   2.753   1.792   4.537  0.0808  0.7364 -0.1804
 5617TIP3   OH216811   7.240   3.238   5.849 -0.6865 -0.3588 -0.2755
 5617TIP3    H116812   7.197   3.323   5.850  0.0321  0.0018  0.3624
 5617TIP3    H216813   7.267   3.223   5.939  1.2220 -0.2077 -0.7893
 5618TIP3   OH216814   2.627   3.416   4.535 -0.1474 -0.3056 -0.5201
 5618TIP3    H116815   2.564   3.430   4.606  0.5849 -0.2557  0.1145
 5618TIP3    H216816   2.572   3.393   4.459 -1.0698  1.7315 -0.5026
 5619TIP3   OH216817   7.008   2.282   6.072 -0.1515 -0.6115  0.3824
 5619TIP3    H116818   6.965   2.364   6.049  0.3104 -0.6436 -0.5952
 5619TIP3    H216819   6.944   2.235   6.125 -1.4254 -0.7962 -1.3102
 5620TIP3   OH216820   1.911   1.470   2.945 -0.2790  0.5630  0.3720
 5620TIP3    H116821   1.970   1.541   2.920 -2.3076  1.2044 -2.8487
 5620TIP3    H216822   1.843   1.513   2.998  0.7169  0.2715  1.9089
 5621TIP3   OH216823   6.571   1.624   5.665 -0.0277  0.4148  0.0706
 5621TIP3    H116824   6.647   1.681   5.675  0.4316 -0.3615  1.1221
 5621TIP3    H216825   6.554   1.622   5.571  1.9679 -0.3361 -0.2830
 5622TIP3   OH216826   1.130   2.435   3.316 -0.4335 -0.5697  0.1260
 5622TIP3    H116827   1.203   2.494   3.298  0.4030 -1.1822  1.3953
 5622TIP3    H216828   1.103   2.456   3.405 -2.8383  0.6985 -0.8851
 5623TIP3   OH216829   1.781   1.139   5.956 -0.4530 -0.7698 -0.3503
 5623TIP3    H116830   1.817   1.215   6.003  0.5628 -0.5736 -1.4049
 5623TIP3    H216831   1.699   1.120   6.000 -1.5699  2.0107 -1.0978
 5624TIP3   OH216832   0.741   0.782   5.084  0.2722 -0.4154  0.0935
 5624TIP3    H116833   0.753   0.812   4.994  2.4416 -0.4744  0.3395
 5624TIP3    H216834   0.806   0.713   5.096  0.3585 -0.0689  1.8434
 5625TIP3   OH216835   2.119   1.029   4.090  0.5553  0.5959 -0.2723
 5625TIP3    H116836   2.112   0.948   4.141 -1.2059  0.8112 -0.1300
 5625TIP3    H216837   2.183   1.010   4.022  0.4104 -0.8088 -0.0200
 5626TIP3   OH216838   0.592   0.119   6.217 -0.2075  0.2888  0.1941
 5626TIP3    H116839   0.660   0.153   6.159 -0.3644 -1.2078 -0.9157
 5626TIP3    H216840   0.529   0.191   6.225  1.5610  1.7554  1.3969
 5627TIP3   OH216841   1.464   3.285   2.655 -0.6595  0.0992  0.2071
 5627TIP3    H116842   1.412   3.329   2.588  0.0183  1.1527  0.3673
 5627TIP3    H216843   1.533   3.347   2.677 -0.1360 -0.7432  0.9826
 5628TIP3   OH216844   3.308   3.547   5.370 -0.3820  0.3706 -0.6975
 5628TIP3    H116845   3.301   3.624   5.425 -0.0387  0.6158 -0.9942
 5628TIP3    H216846   3.237   3.555   5.307 -1.4830 -0.4883  0.4159
 5629TIP3   OH216847   1.209   0.319   1.150 -0.2843 -0.1986  0.5282
 5629TIP3    H116848   1.269   0.264   1.200 -0.9796 -1.7543 -0.3175
 5629TIP3    H216849   1.122   0.286   1.172 -0.6388 -0.4105 -1.0936
 5630TIP3   OH216850   2.004   2.198   5.590 -0.2358 -0.8769  0.2404
 5630TIP3    H116851   2.036   2.260   5.524 -1.3529  0.2678  0.7521
 5630TIP3    H216852   1.960   2.253   5.655 -2.0490 -2.3002  0.2449
 5631TIP3   OH216853   2.609   1.865   6.123 -0.0988 -0.6973  0.1213
 5631TIP3    H116854   2.677   1.913   6.171 -0.4969 -0.0050  0.0062
 5631TIP3    H216855   2.656   1.820   6.053  0.4599 -1.5847  1.0676
 5632TIP3   OH216856   0.204   2.275   5.834 -0.1127 -0.1241 -0.0051
 5632TIP3    H116857   0.156   2.235   5.761  1.3036 -0.5551 -0.7373
 5632TIP3    H216858   0.149   2.346   5.864 -2.4479 -2.2673  0.9480
 5633TIP3   OH216859   3.410   1.367   5.156  0.5756  0.0462  0.0767
 5633TIP3    H116860   3.480   1.359   5.090  0.2833 -1.7618 -0.0463
 5633TIP3    H216861   3.410   1.283   5.201 -1.3559  0.1251  0.2585
 5634TIP3   OH216862   3.765   6.699   1.150 -0.2606 -0.1904  0.5035
 5634TIP3    H116863   3.725   6.750   1.221 -0.1236 -1.6793  1.6723
 5634TIP3    H216864   3.858   6.725   1.153 -0.6552  1.4530 -0.6423
 5635TIP3   OH216865   2.410   1.638   2.826  0.5034  0.1073 -0.1505
 5635TIP3    H116866   2.487   1.684   2.793  0.4742  0.0544 -0.2899
 5635TIP3    H216867   2.445   1.575   2.889  0.4080  1.5241  1.3716
 5636TIP3   OH216868   5.994   6.818   4.164  0.0882  0.2454  0.4563
 5636TIP3    H116869   5.917   6.772   4.199 -0.4379  0.2862 -0.6469
 5636TIP3    H216870   6.064   6.797   4.226 -0.3242 -1.4446  0.3881
 5637TIP3   OH216871   4.812   0.283   0.146 -0.2054  0.0916 -0.4239
 5637TIP3    H116872   4.795   0.233   0.226 -0.4871 -0.6373 -0.9235
 5637TIP3    H216873   4.757   0.361   0.153 -1.4527 -0.7551 -0.6265
 5638TIP3   OH216874   1.602   0.624   6.114 -0.0752 -0.0219 -0.0943
 5638TIP3    H116875   1.559   0.676   6.182 -0.2724  0.1994 -0.3862
 5638TIP3    H216876   1.600   0.534   6.147 -0.7497 -0.0096 -0.1042
 5639TIP3   OH216877   2.430   5.092   2.211  0.3666  0.5359 -0.1211
 5639TIP3    H116878   2.459   5.039   2.285  0.1550  0.0462 -0.3843
 5639TIP3    H216879   2.459   5.181   2.231 -0.1179  0.4957  0.7817
 5640TIP3   OH216880   1.195   2.106   4.465 -0.6965  0.1714  0.1443
 5640TIP3    H116881   1.230   2.187   4.426  0.5750  0.3584  1.6377
 5640TIP3    H216882   1.213   2.115   4.558 -0.9001 -1.6737  0.3699
 5641TIP3   OH216883   0.917   0.359   5.622  0.0916 -0.3713 -0.0165
 5641TIP3    H116884   0.862   0.421   5.575  0.8753 -0.0536 -0.5178
 5641TIP3    H216885   0.898   0.274   5.580  1.8049  0.1166 -1.8543
 5642TIP3   OH216886   4.061   5.581   0.803 -0.8913 -0.3529  0.1596
 5642TIP3    H116887   4.077   5.563   0.896  0.5126 -1.1724 -0.2214
 5642TIP3    H216888   4.146   5.565   0.761 -0.9509  2.0999 -0.9728
 5643TIP3   OH216889   1.344   2.317   4.372 -0.0010  0.2825 -0.5910
 5643TIP3    H116890   1.403   2.302   4.446 -1.4836  0.8813  0.7459
 5643TIP3    H216891   1.351   2.411   4.354  2.2600 -0.2810 -2.8870
 5644TIP3   OH216892   1.982   1.983   3.589  0.5522  0.4156 -0.7617
 5644TIP3    H116893   2.000   1.959   3.498 -0.1315  0.1299 -0.8310
 5644TIP3    H216894   1.940   2.069   3.582  0.6455  0.4645 -0.7088
 5645TIP3   OH216895   0.863   2.893   4.486 -0.1510 -0.1314  0.0118
 5645TIP3    H116896   0.842   2.814   4.536 -0.6144  0.3464  0.5855
 5645TIP3    H216897   0.958   2.897   4.485 -0.1202 -0.9240 -0.3745
 5646TIP3   OH216898   2.790   6.025   1.239 -0.2031  0.1443  0.4774
 5646TIP3    H116899   2.793   5.977   1.322  3.0929 -0.4589  0.0903
 5646TIP3    H216900   2.824   6.112   1.260 -0.5957  0.4113  0.0174
 5647TIP3   OH216901   1.436   5.600   5.457 -0.1106  0.3968  0.3514
 5647TIP3    H116902   1.429   5.511   5.421 -2.5060 -1.0778  4.1845
 5647TIP3    H216903   1.373   5.651   5.406  0.9517 -0.1804 -1.5825
 5648TIP3   OH216904   2.721   3.733   6.194 -0.2474  0.6458 -0.4571
 5648TIP3    H116905   2.807   3.771   6.174  0.2320  0.3497  0.9828
 5648TIP3    H216906   2.676   3.800   6.245 -0.0208 -0.0560  0.6815
 5649TIP3   OH216907   2.423   4.178   6.293 -0.1706 -0.7854  0.2356
 5649TIP3    H116908   2.396   4.166   6.384  1.6892 -0.7027  0.8293
 5649TIP3    H216909   2.490   4.246   6.297 -1.1638  0.3130 -1.4013
 5650TIP3   OH216910   3.182   5.756   4.114  0.3354  0.1768 -0.0752
 5650TIP3    H116911   3.099   5.762   4.163  0.6771  1.6149  0.3662
 5650TIP3    H216912   3.234   5.693   4.164 -0.7507 -1.2733 -0.7524
 5651TIP3   OH216913   1.894   1.427   1.946  0.1184 -0.0299 -0.6425
 5651TIP3    H116914   1.895   1.445   2.040 -1.1855  0.6701 -0.7651
 5651TIP3    H216915   1.860   1.338   1.940  0.9141 -0.3602 -0.4193
 5652TIP3   OH216916   1.417   1.256   5.339 -0.0702  0.4224 -0.0618
 5652TIP3    H116917   1.336   1.294   5.303 -0.3600  0.7835  0.9340
 5652TIP3    H216918   1.413   1.164   5.314  0.5674  0.9955 -2.3886
 5653TIP3   OH216919   6.320   5.027   0.484 -0.2998 -0.4558 -0.1479
 5653TIP3    H116920   6.248   4.966   0.503  0.3158 -1.4580 -0.9759
 5653TIP3    H216921   6.372   4.983   0.417  0.3381  0.8570 -0.5369
 5654TIP3   OH216922   3.098   1.846   2.969 -0.3125 -0.3618 -0.2317
 5654TIP3    H116923   3.042   1.770   2.983  1.6308 -1.3328  2.8479
 5654TIP3    H216924   3.174   1.812   2.922 -0.2026  0.0209 -0.3382
 5655TIP3   OH216925   3.007   0.539   5.126  0.0555  0.0582 -0.5556
 5655TIP3    H116926   2.958   0.621   5.120  0.4272  0.3156 -0.1201
 5655TIP3    H216927   3.081   0.551   5.067 -0.4546 -0.3698 -1.2906
 5656TIP3   OH216928   2.592   4.108   4.651  0.1952  0.1124  0.4824
 5656TIP3    H116929   2.655   4.061   4.596  0.4101 -1.1044  1.7698
 5656TIP3    H216930   2.646   4.164   4.707  0.0415  0.1698  0.5727
 5657TIP3   OH216931   6.623   4.712   5.899  0.1114  0.0185 -0.2300
 5657TIP3    H116932   6.621   4.782   5.965 -1.3063  0.9872 -1.2672
 5657TIP3    H216933   6.713   4.679   5.902  0.3068  0.6331  1.5637
 5658TIP3   OH216934   1.691   1.665   5.039 -0.2156  0.1950  0.4551
 5658TIP3    H116935   1.730   1.720   4.970  2.7965  1.6776  3.2024
 5658TIP3    H216936   1.721   1.577   5.018  1.3433  0.7423  0.2323
 5659TIP3   OH216937   3.820   3.520   5.901  0.4452 -0.1547  0.3507
 5659TIP3    H116938   3.760   3.592   5.918  1.0318  1.0180 -2.2316
 5659TIP3    H216939   3.899   3.542   5.950 -0.3922 -0.5449  1.9127
 5660TIP3   OH216940   1.331   0.724   4.910  0.1295 -0.2573 -0.1798
 5660TIP3    H116941   1.373   0.773   4.980 -0.2007 -1.1104  0.6279
 5660TIP3    H216942   1.367   0.635   4.918 -1.3026 -0.8166  0.0777
 5661TIP3   OH216943   1.989   0.630   5.606  0.3954 -0.1484  0.4222
 5661TIP3    H116944   1.927   0.558   5.614  1.0618 -0.8768 -1.0073
 5661TIP3    H216945   2.007   0.655   5.697 -1.2961 -0.5100  0.8748
 5662TIP3   OH216946   2.792   1.944   5.230 -0.3602  0.0967  0.1911
 5662TIP3    H116947   2.823   1.930   5.140  2.0322  2.5691  0.5563
 5662TIP3    H216948   2.797   1.858   5.271 -0.4872 -0.8564 -1.7496
 5663TIP3   OH216949   2.988   0.106   4.489  0.2188 -0.0792  0.1095
 5663TIP3    H116950   2.995   0.011   4.493 -0.2661 -0.0996  0.6189
 5663TIP3    H216951   2.944   0.130   4.571  0.1716  0.5629 -0.1005
 5664TIP3   OH216952   2.597   0.569   4.806 -0.0038  0.3924  0.0261
 5664TIP3    H116953   2.564   0.646   4.759 -2.1000 -0.8876 -0.6453
 5664TIP3    H216954   2.622   0.508   4.737 -1.3403 -0.7791  0.5773
 5665TIP3   OH216955   1.351   2.579   5.037 -0.3890 -0.0072 -0.5294
 5665TIP3    H116956   1.349   2.580   5.132  0.8351 -1.5755 -0.4705
 5665TIP3    H216957   1.269   2.622   5.011 -1.7191 -1.3969  1.2112
 5666TIP3   OH216958   4.003   3.822   1.130  0.4208 -0.5105  0.0955
 5666TIP3    H116959   3.911   3.795   1.121  0.5315 -1.5312  1.7418
 5666TIP3    H216960   3.998   3.902   1.183  0.2831  1.3280 -2.5775
 5667TIP3   OH216961   7.088   5.684   0.528 -0.0737 -0.2765 -0.0891
 5667TIP3    H116962   7.174   5.724   0.515  0.7586 -1.8035  0.6115
 5667TIP3    H216963   7.087   5.610   0.467 -0.8057 -0.4196  0.0903
 5668TIP3   OH216964   1.292   1.494   4.199  0.3763 -0.5115  0.3410
 5668TIP3    H116965   1.251   1.435   4.262  0.0646  1.8299  2.4428
 5668TIP3    H216966   1.227   1.564   4.186  0.8756 -0.3804 -1.7796
 5669TIP3   OH216967   0.157   4.309   5.680  0.1403  0.5004  0.1004
 5669TIP3    H116968   0.182   4.250   5.609  1.3873  2.1743 -0.8732
 5669TIP3    H216969   0.184   4.263   5.759  0.8687 -0.3507 -0.6266
 5670TIP3   OH216970   1.435   1.918   6.071 -0.1171  0.0930  0.2579
 5670TIP3    H116971   1.376   1.982   6.111  0.2973  0.2827  0.5694
 5670TIP3    H216972   1.441   1.848   6.136  0.2115  0.1991  0.3428
 5671TIP3   OH216973   7.602   0.645   3.720 -0.1592 -0.5217  0.2075
 5671TIP3    H116974   7.543   0.686   3.657 -0.4602  1.1604  1.5461
 5671TIP3    H216975   7.690   0.666   3.688 -0.2941 -1.0445 -0.5151
 5672TIP3   OH216976   4.733   5.010   0.947 -0.2134  0.1719 -0.4052
 5672TIP3    H116977   4.758   4.973   0.862  0.1515 -0.0198 -0.2192
 5672TIP3    H216978   4.810   4.994   1.002 -0.5574  0.0538  0.0341
 5673TIP3   OH216979   3.855   1.140   6.387 -0.2254 -0.2412 -0.1572
 5673TIP3    H116980   3.837   1.188   6.306  2.3456  0.5136 -0.3389
 5673TIP3    H216981   3.946   1.161   6.407 -0.4908 -1.3088  2.3474
 5674TIP3   OH216982   1.089   0.940   5.407  0.5008  0.1773  0.0009
 5674TIP3    H116983   1.129   0.901   5.329  2.1706  0.1269  0.8688
 5674TIP3    H216984   1.012   0.986   5.374 -0.6407 -2.5369 -1.2519
 5675TIP3   OH216985   0.972   4.695   5.215  0.0394  0.0198 -0.1005
 5675TIP3    H116986   1.025   4.761   5.172  0.2031 -1.2845 -1.9244
 5675TIP3    H216987   1.016   4.680   5.299  2.3012 -0.6927 -1.3752
 5676TIP3   OH216988   1.057   3.464   4.511 -0.4721 -1.2725  0.3361
 5676TIP3    H116989   1.055   3.544   4.564 -0.9115 -1.0839  0.0403
 5676TIP3    H216990   0.997   3.404   4.555  0.7553 -1.8666  1.2205
 5677TIP3   OH216991   0.409   2.864   5.434  0.6209  0.1871  0.2914
 5677TIP3    H116992   0.478   2.798   5.439  2.1189  1.6025 -1.0983
 5677TIP3    H216993   0.354   2.837   5.361  1.7381  0.9286 -0.8369
 5678TIP3   OH216994   7.138   0.858   0.054 -0.7063  0.3839  0.1458
 5678TIP3    H116995   7.052   0.879   0.018 -0.5158 -0.9412 -1.1393
 5678TIP3    H216996   7.142   0.762   0.051  0.8873  0.4398  0.0267
 5679TIP3   OH216997   1.088   2.766   5.364  0.1181 -0.4124  0.2891
 5679TIP3    H116998   1.010   2.711   5.369 -0.0413 -0.1123  1.1193
 5679TIP3    H216999   1.083   2.823   5.441 -0.7098  2.0841 -1.5389
 5680TIP3   OH217000   1.936   4.623   5.542 -0.1764  0.0986 -0.0681
 5680TIP3    H117001   1.893   4.538   5.532 -2.1485  1.2578 -1.7363
 5680TIP3    H217002   1.903   4.658   5.625 -1.7973  0.5735 -0.8917
 5681TIP3   OH217003   6.419   1.183   3.951  0.1689 -0.5715 -0.5474
 5681TIP3    H117004   6.352   1.244   3.922  0.8469 -0.2899 -1.5376
 5681TIP3    H217005   6.467   1.231   4.020 -0.5975 -0.7524  0.1174
 5682TIP3   OH217006   0.136   1.690   5.072 -0.2358 -0.4817  0.3860
 5682TIP3    H117007   0.216   1.728   5.108 -0.2978  1.0558 -1.0281
 5682TIP3    H217008   0.162   1.606   5.036  0.4191 -0.6969  1.3466
 5683TIP3   OH217009   1.519   2.127   5.345 -0.2496  0.2449 -0.1027
 5683TIP3    H117010   1.541   2.064   5.277 -0.0818  1.3515 -1.1007
 5683TIP3    H217011   1.522   2.077   5.427 -0.0241 -0.9982 -0.8612
 5684TIP3   OH217012   4.426   0.435   4.482 -0.5465 -0.2352  0.1351
 5684TIP3    H117013   4.471   0.434   4.566  0.2639  0.1213 -0.2943
 5684TIP3    H217014   4.338   0.466   4.502 -0.6801 -1.1663  1.0129
 5685TIP3   OH217015   2.143   2.222   4.542 -0.0397 -0.0657  0.4547
 5685TIP3    H117016   2.156   2.212   4.636  1.5565 -1.5739  0.1226
 5685TIP3    H217017   2.116   2.135   4.513  1.4466 -0.1595 -0.7404
 5686TIP3   OH217018   1.937   1.913   5.171  0.0133 -0.3200  0.2419
 5686TIP3    H117019   1.978   1.971   5.235  0.2343  0.6742 -0.7656
 5686TIP3    H217020   1.985   1.831   5.178  2.8734  1.0999 -1.5566
 5687TIP3   OH217021   4.669   6.746   6.272 -0.1398 -0.1128 -0.1321
 5687TIP3    H117022   4.751   6.754   6.320 -0.5572  0.2186  0.5462
 5687TIP3    H217023   4.680   6.670   6.216 -0.3909 -1.7596  1.9970
 5688TIP3   OH217024   6.394   7.288   4.659  0.2255  0.1906  0.0508
 5688TIP3    H117025   6.336   7.347   4.706 -1.5331 -1.0906 -0.4384
 5688TIP3    H217026   6.387   7.205   4.706  0.2450 -0.4667 -1.0878
 5689TIP3   OH217027   1.378   0.451   4.829 -0.2292 -0.1528  0.2343
 5689TIP3    H117028   1.458   0.411   4.862 -0.0590 -0.1649 -0.1872
 5689TIP3    H217029   1.391   0.457   4.734 -0.4403  0.4774  0.2382
 5690TIP3   OH217030   1.567   0.656   4.213  0.7024  0.0959  0.2384
 5690TIP3    H117031   1.649   0.680   4.170  1.6407  0.9034  2.4011
 5690TIP3    H217032   1.555   0.722   4.281 -0.9622 -0.8911  0.9291
 5691TIP3   OH217033   0.328   2.312   3.568  0.4654 -0.5328 -0.3287
 5691TIP3    H117034   0.372   2.319   3.484 -2.6837 -0.7932 -2.0517
 5691TIP3    H217035   0.244   2.354   3.555  0.6158  1.0730  3.2552
 5692TIP3   OH217036   6.980   3.913   3.354 -0.2089  0.6950 -0.2602
 5692TIP3    H117037   7.042   3.852   3.314 -1.0106 -0.0206 -0.4389
 5692TIP3    H217038   7.034   3.977   3.400  0.6386 -0.9715  1.1111
 5693TIP3   OH217039   7.604   2.767   5.958  0.3655 -0.1010  0.1643
 5693TIP3    H117040   7.561   2.852   5.950  2.0369  0.6193 -1.5973
 5693TIP3    H217041   7.691   2.788   5.992  0.5230 -1.1995  0.4685
 5694TIP3   OH217042   1.194   3.071   3.629  0.0793  0.1565 -0.1395
 5694TIP3    H117043   1.120   3.103   3.578 -0.5885 -0.8856  0.1565
 5694TIP3    H217044   1.216   3.143   3.688 -0.5176  0.5795 -0.4333
 5695TIP3   OH217045   4.455   6.936   5.599 -0.1175 -0.1571  0.3686
 5695TIP3    H117046   4.421   6.919   5.511  0.5939 -0.4717  0.1503
 5695TIP3    H217047   4.548   6.955   5.585  0.7181 -3.2803  1.3570
 5696TIP3   OH217048   0.789   3.566   5.656  0.2491  0.2828 -0.4657
 5696TIP3    H117049   0.772   3.614   5.737 -0.0823  0.0953 -0.4196
 5696TIP3    H217050   0.876   3.529   5.667 -0.7929 -1.8685  0.8807
 5697TIP3   OH217051   4.555   5.677   4.589  0.4399  0.8838 -0.3652
 5697TIP3    H117052   4.558   5.581   4.592 -1.1387  0.8692  1.0761
 5697TIP3    H217053   4.597   5.699   4.506 -1.0554 -1.1461 -1.7042
 5698TIP3   OH217054   3.536   3.008   5.376 -0.3045  0.7749 -0.1080
 5698TIP3    H117055   3.461   3.068   5.369 -1.5429 -0.8274 -0.8237
 5698TIP3    H217056   3.536   2.960   5.294  0.6182 -0.2816  0.5029
 5699TIP3   OH217057   2.402   2.652   5.357  0.4495  0.0228  0.1596
 5699TIP3    H117058   2.471   2.630   5.419 -1.4341 -0.9360  1.9940
 5699TIP3    H217059   2.385   2.745   5.371  0.3048 -0.1012  0.8431
 5700TIP3   OH217060   0.218   0.440   1.145 -0.6525  0.3641  0.3324
 5700TIP3    H117061   0.157   0.489   1.090 -1.3611 -0.2441  0.5760
 5700TIP3    H217062   0.301   0.486   1.134 -1.3429  1.7263  0.6818
 5701TIP3   OH217063   2.765   6.992   2.366  0.6155 -0.4946  0.0259
 5701TIP3    H117064   2.722   6.949   2.440  0.8058 -0.8948 -0.0908
 5701TIP3    H217065   2.694   7.030   2.315  0.3782 -1.2894 -0.2525
 5702TIP3   OH217066   1.687   0.155   2.965  0.0812 -0.1860 -0.1472
 5702TIP3    H117067   1.736   0.143   3.047  0.9531  0.8004 -0.5187
 5702TIP3    H217068   1.753   0.144   2.896 -0.8184 -1.9062 -0.7716
 5703TIP3   OH217069   5.599   6.220   2.138  0.5399  0.6532 -0.0254
 5703TIP3    H117070   5.551   6.140   2.155  0.0013  0.8411 -0.6520
 5703TIP3    H217071   5.560   6.256   2.058  1.8531  0.7022 -0.6626
 5704TIP3   OH217072   2.588   1.468   5.164 -0.3823 -0.7677 -0.8574
 5704TIP3    H117073   2.572   1.544   5.108 -1.4713 -0.3687 -0.0162
 5704TIP3    H217074   2.582   1.503   5.253 -0.1611 -1.7070 -0.4736
 5705TIP3   OH217075   2.358   4.767   5.017 -0.0483 -0.4945 -0.5912
 5705TIP3    H117076   2.286   4.819   4.981 -1.2140 -1.5330  0.1785
 5705TIP3    H217077   2.437   4.806   4.981 -0.9640  1.1582 -0.8266
 5706TIP3   OH217078   5.295   3.380   3.676 -1.1611  0.1124  0.0680
 5706TIP3    H117079   5.248   3.312   3.724 -0.0540 -0.5151  0.2819
 5706TIP3    H217080   5.230   3.449   3.663 -1.4862  0.3221  2.5022
 5707TIP3   OH217081   2.021   2.015   5.391 -0.3400  0.6388 -0.2260
 5707TIP3    H117082   2.049   1.937   5.439 -2.1165 -0.4205 -0.8972
 5707TIP3    H217083   1.994   2.077   5.459  1.1936  0.7435  0.3121
 5708TIP3   OH217084   1.135   0.936   5.038  0.6651 -0.0444 -0.2606
 5708TIP3    H117085   1.211   0.993   5.031  0.4374  0.3440  0.3675
 5708TIP3    H217086   1.089   0.947   4.955  0.2023  1.3018  0.1606
 5709TIP3   OH217087   4.814   1.922   4.719 -0.1815 -0.4220  0.0349
 5709TIP3    H117088   4.889   1.902   4.663  0.0611  0.6088 -0.0175
 5709TIP3    H217089   4.792   1.839   4.761  1.1764 -0.6755  0.2699
 5710TIP3   OH217090   3.812   6.256   1.379 -0.7309 -0.1073  0.1622
 5710TIP3    H117091   3.906   6.267   1.388 -0.2857 -3.0999 -0.3945
 5710TIP3    H217092   3.789   6.312   1.304  1.0179 -1.2969 -1.3023
 5711TIP3   OH217093   3.305   4.471   5.921  0.1618  0.4787  0.1193
 5711TIP3    H117094   3.306   4.565   5.905  0.9805  0.4163 -0.1877
 5711TIP3    H217095   3.385   4.453   5.970  0.3796 -0.1698 -0.4572
 5712TIP3   OH217096   3.865   2.093   4.797 -0.2174 -0.0420  0.3956
 5712TIP3    H117097   3.960   2.092   4.807 -0.1364 -1.4960 -0.2989
 5712TIP3    H217098   3.851   2.068   4.705 -1.2449  0.8758  0.2938
 5713TIP3   OH217099   1.286   1.872   4.782  0.0008  0.5858 -0.1870
 5713TIP3    H117100   1.290   1.839   4.692  0.4584 -0.2700  0.1458
 5713TIP3    H217101   1.206   1.834   4.817  0.6225 -0.3279  0.2543
 5714TIP3   OH217102   3.257   2.914   2.863  0.5515 -0.2735 -0.4484
 5714TIP3    H117103   3.315   2.910   2.787 -1.0811 -0.0884 -1.7472
 5714TIP3    H217104   3.295   2.982   2.919  2.1054 -0.8275 -0.7970
 5715TIP3   OH217105   3.740   1.194   5.321  0.3080 -0.6127 -0.3377
 5715TIP3    H117106   3.663   1.139   5.338 -0.8041  1.5697  2.0236
 5715TIP3    H217107   3.786   1.196   5.405  0.9381  1.0903 -0.7163
 5716TIP3   OH217108   1.611   1.176   6.256  0.1268 -0.6287  0.4034
 5716TIP3    H117109   1.677   1.122   6.299 -0.8627 -0.2546  2.4656
 5716TIP3    H217110   1.559   1.113   6.205  1.4650 -1.0504 -0.4489
 5717TIP3   OH217111   1.191   2.600   6.080  0.2920 -0.5048  0.4550
 5717TIP3    H117112   1.245   2.652   6.021 -0.6304  1.0332  0.9242
 5717TIP3    H217113   1.108   2.589   6.033 -0.5582  0.9951  1.5657
 5718TIP3   OH217114   1.819   1.977   5.957 -0.0375  0.1314 -0.2500
 5718TIP3    H117115   1.796   2.057   5.910  0.1780 -0.2754 -1.0542
 5718TIP3    H217116   1.914   1.972   5.954 -0.0244  0.0813  0.1920
 5719TIP3   OH217117   2.776   2.106   4.270  0.3826  0.0004  0.6998
 5719TIP3    H117118   2.758   2.097   4.363  2.2647  0.1667  1.0967
 5719TIP3    H217119   2.698   2.072   4.227  0.6029 -2.6400  2.2975
 5720TIP3   OH217120  -0.002   3.800   5.722 -0.4177  0.2581  0.2012
 5720TIP3    H117121   0.051   3.824   5.646 -1.2045 -0.9646 -0.7581
 5720TIP3    H217122  -0.017   3.883   5.768 -0.4874  1.1287 -1.3481
 5721TIP3   OH217123   1.613   1.379   4.433  0.2280  0.3392  0.4717
 5721TIP3    H117124   1.658   1.449   4.482  1.5220 -0.5225  0.5204
 5721TIP3    H217125   1.669   1.363   4.357 -0.3366 -0.2922  0.1871
 5722TIP3   OH217126   2.870   2.889   5.804  0.2800  0.1774  0.2715
 5722TIP3    H117127   2.845   2.865   5.716  1.8659  0.3961 -0.2612
 5722TIP3    H217128   2.960   2.857   5.813  1.7112  3.9131  0.2735
 5723TIP3   OH217129   0.763   7.314   3.089  0.3166  0.2440 -0.2501
 5723TIP3    H117130   0.778   7.222   3.107 -0.5054  0.2551  0.5483
 5723TIP3    H217131   0.842   7.343   3.043  0.3814 -0.9569 -0.9030
 5724TIP3   OH217132   3.099   2.021   3.704  0.0643 -0.5015  0.1720
 5724TIP3    H117133   3.024   1.963   3.718 -1.0349  0.7431 -0.4075
 5724TIP3    H217134   3.081   2.097   3.759 -1.0132  1.4747 -2.7422
 5725TIP3   OH217135   3.544   2.933   4.456 -0.0899 -0.2647  0.0782
 5725TIP3    H117136   3.618   2.949   4.398 -1.1305 -0.7155 -1.4076
 5725TIP3    H217137   3.534   3.014   4.505 -0.3808  0.8375 -1.7483
 5726TIP3   OH217138   3.843   0.701   3.842 -0.2955  0.6030  0.1975
 5726TIP3    H117139   3.788   0.622   3.846 -0.4864  0.7953  1.6965
 5726TIP3    H217140   3.877   0.702   3.753  2.4838 -3.0718  1.0787
 5727TIP3   OH217141   3.520   1.649   4.235 -0.0614 -0.1736 -0.2275
 5727TIP3    H117142   3.488   1.714   4.172 -0.9801  0.9263  1.3482
 5727TIP3    H217143   3.445   1.592   4.250  0.2296 -0.5760 -0.2961
 5728TIP3   OH217144   1.616   2.440   4.193 -0.2488 -0.8793  0.2467
 5728TIP3    H117145   1.573   2.467   4.274  0.4804  1.2561 -0.0464
 5728TIP3    H217146   1.691   2.499   4.184 -0.2938 -1.1002 -1.9417
 5729TIP3   OH217147   3.001   2.962   4.823  0.2614  0.7032 -0.7349
 5729TIP3    H117148   2.956   2.996   4.900 -0.3446 -0.2898 -0.6429
 5729TIP3    H217149   3.009   2.868   4.840 -0.7001  0.3251 -2.2785
 5730TIP3   OH217150   3.043   4.715   3.870 -0.2831 -0.4027  0.6023
 5730TIP3    H117151   3.061   4.806   3.892 -1.0094 -0.0933 -0.0730
 5730TIP3    H217152   3.114   4.666   3.911  1.9496  0.7505 -1.7884
 5731TIP3   OH217153   2.526   2.952   6.279  0.0526  0.2119  0.5336
 5731TIP3    H117154   2.609   2.905   6.268 -0.4559 -0.4032 -0.7893
 5731TIP3    H217155   2.459   2.886   6.264 -0.6780  0.8953  0.7530
 5732TIP3   OH217156   6.095   4.364   0.246 -0.0798  0.1362 -0.2640
 5732TIP3    H117157   6.078   4.305   0.320 -0.3729  2.3656  1.4828
 5732TIP3    H217158   6.142   4.310   0.183 -0.7368 -2.0953  1.1047
 5733TIP3   OH217159   2.045   2.545   3.709  0.6113  0.3515  0.2206
 5733TIP3    H117160   2.039   2.579   3.620  0.4596 -1.2854 -0.4046
 5733TIP3    H217161   1.967   2.491   3.719 -0.1448  1.7007  1.8717
 5734TIP3   OH217162   5.365   6.590   1.342 -0.4538 -0.1460  0.4177
 5734TIP3    H117163   5.386   6.635   1.424  0.7492  1.5725 -0.7900
 5734TIP3    H217164   5.395   6.500   1.356  1.4258  0.5796  1.2399
 5735TIP3   OH217165   6.565   6.566   0.338  0.1848  0.2524  0.2038
 5735TIP3    H117166   6.553   6.660   0.349  0.6696  0.3680 -0.2630
 5735TIP3    H217167   6.544   6.529   0.424  0.7785  0.8637  0.6175
 5736TIP3   OH217168   2.726   3.856   1.675  0.2455  0.1105 -0.3444
 5736TIP3    H117169   2.699   3.765   1.687  1.3419 -0.3590 -1.2890
 5736TIP3    H217170   2.659   3.894   1.618 -0.7000  0.1622  0.7838
 5737TIP3   OH217171   2.974   1.621   6.254  0.6325  0.3650  0.2866
 5737TIP3    H117172   2.955   1.531   6.281 -0.9833  0.8583  0.8386
 5737TIP3    H217173   2.966   1.619   6.159 -0.0443  0.0635  0.3453
 5738TIP3   OH217174   4.137   3.904   5.369 -0.8902  0.1419 -0.4603
 5738TIP3    H117175   4.136   3.883   5.462  0.1132  2.2080  0.0523
 5738TIP3    H217176   4.055   3.951   5.354 -1.4848 -1.0070 -0.8277
 5739TIP3   OH217177   6.752   4.749   1.989  0.1727  0.0356  0.1678
 5739TIP3    H117178   6.726   4.832   1.949  1.8903  1.1039  1.2107
 5739TIP3    H217179   6.724   4.683   1.926  0.7999  1.5361 -1.7369
 5740TIP3   OH217180   1.358   0.710   5.237 -0.5393  0.3113 -0.1871
 5740TIP3    H117181   1.410   0.630   5.241 -0.0847  0.6105 -0.0181
 5740TIP3    H217182   1.365   0.748   5.325  0.9479  1.5944 -0.8431
 5741TIP3   OH217183   3.053   2.692   3.450 -0.0020  0.6370  0.4160
 5741TIP3    H117184   3.134   2.733   3.479  0.5017 -0.1650  0.1379
 5741TIP3    H217185   3.063   2.683   3.355 -0.6814  1.1251  0.2922
 5742TIP3   OH217186   1.932   3.452   4.607  0.0223 -0.0103  0.0323
 5742TIP3    H117187   2.028   3.454   4.607  0.0748 -1.5617  0.5950
 5742TIP3    H217188   1.908   3.439   4.698 -0.7439  0.6633 -0.0684
 5743TIP3   OH217189   3.349   1.098   5.581  0.2979  0.4620 -0.1681
 5743TIP3    H117190   3.426   1.152   5.603  0.3628  0.3382 -0.0893
 5743TIP3    H217191   3.381   1.037   5.515 -0.4383  2.2624 -2.2463
 5744TIP3   OH217192   4.348   3.356   5.497  0.0228  0.3008  0.1093
 5744TIP3    H117193   4.434   3.398   5.499 -0.8001  2.0222 -0.0695
 5744TIP3    H217194   4.287   3.426   5.474 -1.4087 -0.9460  0.0155
 5745TIP3   OH217195   3.605   3.311   4.088  0.3573  0.2340 -0.1766
 5745TIP3    H117196   3.590   3.326   4.181 -0.7144  0.7984 -0.4374
 5745TIP3    H217197   3.669   3.377   4.063  2.4056 -1.3837  0.6611
 5746TIP3   OH217198   3.232   3.811   4.614 -0.3019  0.4223  0.5350
 5746TIP3    H117199   3.154   3.830   4.561  0.9699  1.1908 -1.1002
 5746TIP3    H217200   3.234   3.716   4.618 -1.8450  0.4030  1.3880
 5747TIP3   OH217201   3.601   2.772   4.927 -0.3524  0.1016  0.1771
 5747TIP3    H117202   3.669   2.707   4.911 -0.3070  0.4087 -0.9618
 5747TIP3    H217203   3.532   2.749   4.865 -0.3187  1.1633 -0.2709
 5748TIP3   OH217204   3.638   2.414   2.482 -0.0593 -0.6548  0.3206
 5748TIP3    H117205   3.570   2.405   2.548 -0.2346  0.8411  0.3466
 5748TIP3    H217206   3.653   2.324   2.451 -1.4233 -1.1004  0.9163
 5749TIP3   OH217207   3.106   3.341   3.491  0.6495 -0.2159 -0.7955
 5749TIP3    H117208   3.030   3.396   3.472  0.6934 -0.9271 -3.2100
 5749TIP3    H217209   3.101   3.325   3.585 -2.6326 -0.8449 -1.0019
 5750TIP3   OH217210   4.071   1.741   5.266  0.0284 -0.0425  0.6638
 5750TIP3    H117211   4.126   1.665   5.244  0.2074  0.2257  0.1706
 5750TIP3    H217212   3.982   1.710   5.253  0.0968 -0.2077  0.5772
 5751TIP3   OH217213   3.189   5.438   1.430 -0.3175  0.2133 -0.3958
 5751TIP3    H117214   3.248   5.512   1.432  0.0559 -0.0872  2.5022
 5751TIP3    H217215   3.246   5.361   1.431 -0.7230 -0.0890 -0.2063
 5752TIP3   OH217216   2.135   1.855   3.762 -0.7360  0.7750 -0.2264
 5752TIP3    H117217   2.079   1.894   3.695 -0.3739  0.7509 -0.5470
 5752TIP3    H217218   2.103   1.891   3.844 -1.0409  0.9776 -0.4329
 5753TIP3   OH217219   4.486   3.808   5.560 -0.3271 -0.4705  0.1087
 5753TIP3    H117220   4.399   3.770   5.567  0.2834 -1.5118  2.3111
 5753TIP3    H217221   4.485   3.884   5.618 -0.4312  0.8663 -1.5776
 5754TIP3   OH217222   3.680   2.291   4.289  0.1548  0.1326  0.0503
 5754TIP3    H117223   3.640   2.253   4.367  1.3747 -0.7526  0.2749
 5754TIP3    H217224   3.734   2.221   4.254  2.1001  1.4979  0.2068
 5755TIP3   OH217225   3.515   2.384   4.024  1.0215 -0.0102 -0.2126
 5755TIP3    H117226   3.489   2.294   4.007 -0.4211  0.6374 -1.5392
 5755TIP3    H217227   3.451   2.416   4.088 -0.7978  1.2044 -2.5532
 5756TIP3   OH217228   0.984   2.986   3.228  0.2095 -0.1262  0.5107
 5756TIP3    H117229   0.898   3.003   3.190 -0.6747 -0.9461  2.1105
 5756TIP3    H217230   1.045   3.001   3.156 -1.1459  1.8914 -0.2738
 5757TIP3   OH217231   4.018   3.086   4.821  0.1709  0.3129  0.3943
 5757TIP3    H117232   4.077   3.013   4.837  0.1366  0.1465 -0.2393
 5757TIP3    H217233   3.931   3.046   4.813  0.1348  0.4319  0.1697
 5758TIP3   OH217234   1.580   0.488   3.500 -0.1819  0.0941 -0.1244
 5758TIP3    H117235   1.566   0.500   3.406  1.8180 -0.8291 -0.5680
 5758TIP3    H217236   1.559   0.396   3.516 -2.4259  0.7177  0.7365
 5759TIP3   OH217237   4.567   6.955   1.115  0.4599  0.5260  0.4497
 5759TIP3    H117238   4.604   7.000   1.038 -0.1062 -1.0002 -0.7299
 5759TIP3    H217239   4.644   6.929   1.166  0.9149 -0.2099 -0.6028
 5760TIP3   OH217240   4.265   2.264   3.879 -0.1014  0.0012  0.9958
 5760TIP3    H117241   4.343   2.314   3.903  0.0225 -0.5081  1.6948
 5760TIP3    H217242   4.212   2.264   3.959  0.3867 -1.8585  1.3474
 5761TIP3   OH217243   3.105   2.024   6.338  0.1219 -0.1106 -0.1639
 5761TIP3    H117244   3.141   1.951   6.389 -0.4586 -0.8175 -0.7710
 5761TIP3    H217245   3.167   2.035   6.265 -0.0740 -0.3298 -0.3612
 5762TIP3   OH217246   2.173   3.560   4.710 -0.1787  0.2917  0.6259
 5762TIP3    H117247   2.218   3.643   4.723 -0.3719  0.8357 -1.8803
 5762TIP3    H217248   2.242   3.494   4.719  0.5220  0.9199  0.0041
 5763TIP3   OH217249   3.759   1.801   3.371 -0.7641  0.1689  0.4567
 5763TIP3    H117250   3.713   1.762   3.445 -0.1500 -0.2510  0.6290
 5763TIP3    H217251   3.777   1.891   3.399 -0.6494  0.0520  0.7727
 5764TIP3   OH217252   4.593   4.223   0.154  0.2305 -0.1707 -0.2746
 5764TIP3    H117253   4.603   4.297   0.094  1.6332 -0.6513 -0.6487
 5764TIP3    H217254   4.621   4.257   0.239 -0.9003  0.2498 -0.0546
 5765TIP3   OH217255   3.013   0.870   5.305 -0.7070 -0.3558  0.1021
 5765TIP3    H117256   3.028   0.786   5.348 -0.0341 -0.0708  0.4388
 5765TIP3    H217257   3.077   0.872   5.233 -0.7153 -0.1246  0.0999
 5766TIP3   OH217258   3.108   1.665   5.993  0.4743 -0.0078 -0.4595
 5766TIP3    H117259   3.158   1.602   6.045  0.3603 -0.3425 -0.7479
 5766TIP3    H217260   3.173   1.726   5.959  0.7818 -0.8378 -1.3957
 5767TIP3   OH217261   6.158   5.262   0.740  0.0769  0.0228 -0.7202
 5767TIP3    H117262   6.153   5.174   0.778  1.0979  0.6093  0.7895
 5767TIP3    H217263   6.066   5.285   0.722 -0.2856 -0.8948 -0.0883
 5768TIP3   OH217264   3.289   3.038   3.500 -0.1239  0.3228  0.7398
 5768TIP3    H117265   3.215   3.093   3.524 -1.2014 -0.5919 -0.4457
 5768TIP3    H217266   3.366   3.088   3.527 -1.1529  1.5224  1.4691
 5769TIP3   OH217267   3.517   0.720   4.523  0.1098 -0.6778 -0.3129
 5769TIP3    H117268   3.529   0.690   4.433  0.7288 -3.4803  0.6321
 5769TIP3    H217269   3.466   0.800   4.516  1.7204  0.1309 -3.2477
 5770TIP3   OH217270   3.625   0.854   3.939  0.4772 -0.2029  0.3229
 5770TIP3    H117271   3.708   0.806   3.932 -0.8306 -2.8578  2.1389
 5770TIP3    H217272   3.579   0.832   3.858  0.5418 -0.7652  0.4317
 5771TIP3   OH217273   4.491   2.180   6.052  0.3531  0.5916 -0.1363
 5771TIP3    H117274   4.538   2.179   6.135  0.0610  0.3036  0.0255
 5771TIP3    H217275   4.402   2.150   6.074  0.5819 -0.5522 -0.7398
 5772TIP3   OH217276   2.552   2.705   5.778  0.2816  0.4604 -0.9974
 5772TIP3    H117277   2.577   2.753   5.857  0.6054  0.0424 -0.8399
 5772TIP3    H217278   2.589   2.617   5.791 -3.8197 -1.1713  0.6130
 5773TIP3   OH217279   4.256   3.241   4.756  0.6378  0.5778  0.0487
 5773TIP3    H117280   4.171   3.196   4.757 -0.1390  1.9941 -0.6344
 5773TIP3    H217281   4.303   3.205   4.831  0.4233 -2.0914 -1.0261
 5774TIP3   OH217282   2.660   2.288   4.679 -0.1149  0.0952 -0.6867
 5774TIP3    H117283   2.731   2.320   4.624  1.0930 -1.3597  0.0269
 5774TIP3    H217284   2.699   2.277   4.765 -1.5096  0.4583  0.0021
 5775TIP3   OH217285   4.294   1.542   4.081  0.0966  0.1118  0.6694
 5775TIP3    H117286   4.340   1.606   4.136  2.7256 -0.1442 -1.1338
 5775TIP3    H217287   4.360   1.475   4.061 -0.9189 -0.0733 -2.3437
 5776TIP3   OH217288   1.909   2.615   2.489  0.9112 -0.1037 -0.0081
 5776TIP3    H117289   1.903   2.621   2.585  1.0187 -0.7966  0.0463
 5776TIP3    H217290   2.002   2.625   2.470  0.9020 -0.0629 -0.0305
 5777TIP3   OH217291   5.446   2.858   5.245 -0.2762 -0.0434 -0.2019
 5777TIP3    H117292   5.432   2.763   5.238 -2.3251  0.2155 -0.1012
 5777TIP3    H217293   5.384   2.896   5.183  0.1873  1.2448  0.1026
 5778TIP3   OH217294   2.946   1.096   3.796  0.4661  0.3681 -0.1717
 5778TIP3    H117295   2.978   1.015   3.836  1.2982  0.8360  0.1060
 5778TIP3    H217296   2.851   1.094   3.812  0.7080  0.2662  1.3264
 5779TIP3   OH217297   4.913   6.169   1.721 -0.6702 -0.2892 -0.0739
 5779TIP3    H117298   4.978   6.237   1.702 -0.4482 -0.5661 -0.3028
 5779TIP3    H217299   4.829   6.209   1.699 -0.3983 -0.6873 -1.8550
 5780TIP3   OH217300   5.853   6.438   4.824  0.3555  0.1677  0.2643
 5780TIP3    H117301   5.822   6.527   4.844 -0.0867  0.5130 -1.8546
 5780TIP3    H217302   5.949   6.446   4.826  0.3309  1.0767 -1.4819
 5781TIP3   OH217303   7.212   0.802   0.589 -1.1646 -0.8206  0.7960
 5781TIP3    H117304   7.144   0.749   0.631 -0.4249 -0.8072  2.0060
 5781TIP3    H217305   7.292   0.780   0.635 -0.3704 -0.6654 -0.4898
 5782TIP3   OH217306   3.065   2.356   4.125  0.4550 -0.0705 -0.4362
 5782TIP3    H117307   3.096   2.308   4.048  0.9639  0.5017 -0.5921
 5782TIP3    H217308   2.970   2.349   4.121  0.4432  0.5276 -1.4924
 5783TIP3   OH217309   2.200   3.023   5.237 -0.4280 -0.3293  0.0895
 5783TIP3    H117310   2.170   2.955   5.297 -1.4475  0.7247  0.8023
 5783TIP3    H217311   2.296   3.020   5.243 -0.5090 -0.6568  1.2809
 5784TIP3   OH217312   3.188   4.441   5.659 -0.2801 -0.1282 -0.0468
 5784TIP3    H117313   3.119   4.388   5.619  0.4264 -0.9036 -0.2477
 5784TIP3    H217314   3.173   4.433   5.753 -0.3161 -0.4955 -0.0828
 5785TIP3   OH217315   2.407   3.990   5.935  0.1395  0.4554  0.0980
 5785TIP3    H117316   2.414   3.898   5.910  2.9999  0.6104  0.1549
 5785TIP3    H217317   2.498   4.022   5.935 -0.8519  3.4498 -0.6210
 5786TIP3   OH217318   4.515   3.558   2.707  0.0961 -0.2216 -0.1197
 5786TIP3    H117319   4.469   3.613   2.644  1.0461 -0.6189 -1.1765
 5786TIP3    H217320   4.603   3.596   2.713  0.0441 -0.2422  0.9013
 5787TIP3   OH217321   5.803   6.425   0.893 -0.6619  0.0369  0.0539
 5787TIP3    H117322   5.799   6.469   0.808 -1.2290  0.9938  0.5788
 5787TIP3    H217323   5.729   6.459   0.942 -0.1904 -0.3258  1.0332
 5788TIP3   OH217324   3.398   3.724   6.167  0.0951  0.2902  0.2653
 5788TIP3    H117325   3.344   3.646   6.179  0.5451  0.1480  1.5164
 5788TIP3    H217326   3.467   3.715   6.234  0.4657  1.4829  0.0519
 5789TIP3   OH217327   4.932   3.878   4.902  0.1782 -0.2661 -0.3795
 5789TIP3    H117328   5.011   3.846   4.946  0.1539 -0.0568 -0.1825
 5789TIP3    H217329   4.861   3.851   4.959  0.3188  2.2640  1.0642
 5790TIP3   OH217330   2.941   2.577   3.873 -0.5153 -0.3540  0.1098
 5790TIP3    H117331   3.034   2.594   3.882 -0.4016 -1.3603  0.9040
 5790TIP3    H217332   2.899   2.638   3.934 -0.2895 -0.8734  0.7874
 5791TIP3   OH217333   6.695   7.358   3.770 -0.3203 -0.4037  0.2679
 5791TIP3    H117334   6.764   7.411   3.810  0.1163 -0.0035 -1.0029
 5791TIP3    H217335   6.741   7.280   3.739 -0.4212 -0.0911 -0.6680
 5792TIP3   OH217336   3.219   0.067   4.272 -0.1394  0.0689  0.5984
 5792TIP3    H117337   3.161   0.001   4.310  0.3407 -0.7008  0.0268
 5792TIP3    H217338   3.295   0.069   4.329  0.1322 -0.3521  0.2600
 5793TIP3   OH217339   4.721   4.473   6.236 -0.3069 -0.0792 -0.1843
 5793TIP3    H117340   4.720   4.413   6.162 -0.4722 -0.3313  0.0210
 5793TIP3    H217341   4.658   4.541   6.213  1.4283  1.1792 -1.3651
 5794TIP3   OH217342   3.089   4.279   6.036 -0.2794 -0.2169 -0.0749
 5794TIP3    H117343   3.168   4.330   6.016 -1.0594  0.8133 -0.5691
 5794TIP3    H217344   3.078   4.287   6.130  0.9041 -1.4101  0.1890
 5795TIP3   OH217345   3.294   3.732   4.873  0.2235 -0.3502 -0.5457
 5795TIP3    H117346   3.272   3.774   4.790 -0.8807  0.9401  0.3511
 5795TIP3    H217347   3.384   3.702   4.863  0.9004  1.8567 -1.4143
 5796TIP3   OH217348   3.347   3.649   5.821  0.0547  0.3386 -0.8095
 5796TIP3    H117349   3.376   3.733   5.857  0.9463 -0.1541 -0.3530
 5796TIP3    H217350   3.426   3.611   5.782  0.1179 -1.1692  0.7168
 5797TIP3   OH217351   3.806   4.552   5.045 -0.0557 -0.0669  0.0546
 5797TIP3    H117352   3.856   4.623   5.004  0.4054  1.1818  2.6680
 5797TIP3    H217353   3.867   4.478   5.046  0.1929  0.1199 -0.7941
 5798TIP3   OH217354   3.508   3.113   3.912  0.3708 -0.1599 -0.9816
 5798TIP3    H117355   3.563   3.170   3.966  0.3935  0.8753 -2.0586
 5798TIP3    H217356   3.462   3.057   3.974  1.2039  0.2685  0.0405
 5799TIP3   OH217357   3.763   1.557   6.337  0.6045 -0.0547 -0.5073
 5799TIP3    H117358   3.780   1.573   6.430 -0.7180  0.9623 -0.4389
 5799TIP3    H217359   3.714   1.633   6.308  1.0930 -0.3317 -2.0714
 5800TIP3   OH217360   2.921   2.719   4.493  0.4691  0.0705 -0.1391
 5800TIP3    H117361   2.940   2.678   4.408  0.9168 -1.9228  0.8774
 5800TIP3    H217362   3.007   2.744   4.527  0.5154 -1.1807  0.6994
 5801TIP3   OH217363   2.989   3.817   4.454 -0.7014 -0.5253  0.1332
 5801TIP3    H117364   2.990   3.807   4.359  0.2037 -0.7015  0.1560
 5801TIP3    H217365   2.939   3.741   4.486 -0.8244 -0.5800 -0.1872
 5802TIP3   OH217366   3.905   1.670   4.639 -0.1051 -0.2629 -0.1147
 5802TIP3    H117367   3.949   1.620   4.708 -0.7426 -0.8167 -0.1019
 5802TIP3    H217368   3.880   1.604   4.574  1.2914  0.3659 -1.3250
 5803TIP3   OH217369   0.867   3.349   5.810 -0.0322  0.1661 -0.1127
 5803TIP3    H117370   0.816   3.402   5.871 -0.4721  1.1855 -1.3396
 5803TIP3    H217371   0.951   3.337   5.854 -0.3324  0.8897  0.6903
 5804TIP3   OH217372   6.572   0.272   0.135  0.1460  0.2338  0.7812
 5804TIP3    H117373   6.485   0.261   0.174  0.1215  1.5828  1.1473
 5804TIP3    H217374   6.559   0.338   0.066  1.1745  1.6909  1.9443
 5805TIP3   OH217375   3.566   0.818   6.230  0.2781  0.7236  0.4676
 5805TIP3    H117376   3.602   0.762   6.299  0.5468  1.2348  0.7449
 5805TIP3    H217377   3.642   0.847   6.180  0.3236  2.2160  1.3622
 5806TIP3   OH217378   3.060   0.649   3.304 -0.4612  0.4611  0.6335
 5806TIP3    H117379   3.021   0.586   3.245 -1.0573 -0.1462  1.6616
 5806TIP3    H217380   2.988   0.706   3.330  0.0024  1.3525 -0.0160
 5807TIP3   OH217381   2.275   3.715   5.508 -0.2270 -0.6156  0.5113
 5807TIP3    H117382   2.182   3.697   5.494 -0.0938  1.1899 -3.2971
 5807TIP3    H217383   2.294   3.791   5.453  3.4712 -0.8615  1.2958
 5808TIP3   OH217384   2.618   1.872   4.162 -0.1195  0.1701 -0.0370
 5808TIP3    H117385   2.572   1.925   4.097  1.4887  0.9680 -0.5560
 5808TIP3    H217386   2.589   1.782   4.146 -2.9242  0.8578  0.8871
 5809TIP3   OH217387   4.494   6.091   0.227  0.6117  0.0767 -0.0426
 5809TIP3    H117388   4.442   6.148   0.283 -0.2893 -0.4167 -0.3778
 5809TIP3    H217389   4.443   6.082   0.147  0.0995 -2.3148  0.5283
 5810TIP3   OH217390   4.671   5.592   0.915 -0.2089 -0.0243  0.3965
 5810TIP3    H117391   4.705   5.615   0.829  0.6660 -1.4336  0.3435
 5810TIP3    H217392   4.634   5.504   0.904  1.2023 -0.8268  1.7745
 5811TIP3   OH217393   2.770   2.893   2.714 -0.1825  0.0336 -0.0873
 5811TIP3    H117394   2.830   2.845   2.657 -0.1136  1.2999 -1.1017
 5811TIP3    H217395   2.825   2.959   2.756 -0.5168  0.0059  0.4039
 5812TIP3   OH217396   3.092   0.989   3.578 -0.4250  0.1090  0.5748
 5812TIP3    H117397   3.021   1.041   3.614  0.3998  2.1753 -0.6655
 5812TIP3    H217398   3.106   0.919   3.641 -0.7700  2.0900  2.8960
 5813TIP3   OH217399   1.712   1.969   4.547 -0.2569 -0.1390 -0.6061
 5813TIP3    H117400   1.635   1.950   4.492 -0.2801  0.3513 -0.7447
 5813TIP3    H217401   1.777   2.004   4.486 -0.1922  0.1616 -0.3651
 5814TIP3   OH217402   4.567   2.312   2.983  0.0565 -0.3630 -0.0396
 5814TIP3    H117403   4.641   2.370   3.004 -1.2440  0.7442  1.6031
 5814TIP3    H217404   4.528   2.350   2.904 -0.7354  0.9840  0.9774
 5815TIP3   OH217405   7.440   0.754   0.758  0.0376  0.4666 -0.1749
 5815TIP3    H117406   7.523   0.797   0.777 -0.0274 -0.3737  2.1863
 5815TIP3    H217407   7.465   0.671   0.718  0.2792  0.7800 -0.6881
 5816TIP3   OH217408   6.507   6.058   2.872 -0.2338  0.3306 -0.0244
 5816TIP3    H117409   6.550   5.982   2.912 -0.9147  0.2890  0.6534
 5816TIP3    H217410   6.555   6.134   2.905  0.5489  0.1874 -0.8299
 5817TIP3   OH217411   4.261   2.501   4.682  0.3214 -0.5471  0.3164
 5817TIP3    H117412   4.279   2.592   4.659  0.1656 -0.8353 -0.9902
 5817TIP3    H217413   4.346   2.466   4.709  0.6569 -0.3720 -0.4823
 5818TIP3   OH217414   7.704   0.986   4.398 -0.2745  0.2557  0.2055
 5818TIP3    H117415   7.769   0.921   4.371 -2.2100 -0.6301 -2.5525
 5818TIP3    H217416   7.753   1.068   4.404  1.7956 -1.0709  1.7552
 5819TIP3   OH217417   1.106   3.771   5.481  0.2306 -0.1855 -0.3222
 5819TIP3    H117418   1.125   3.844   5.422 -0.7554  1.1780  0.9948
 5819TIP3    H217419   1.012   3.756   5.472  0.5598 -1.8418 -1.1729
 5820TIP3   OH217420   4.227   4.666   4.719  0.1302 -0.1446  0.8557
 5820TIP3    H117421   4.275   4.736   4.674 -1.1667  0.2600  0.0758
 5820TIP3    H217422   4.153   4.647   4.662 -0.6035 -0.8195  2.0146
 5821TIP3   OH217423   2.750   3.136   5.748  0.8292 -0.4916 -0.0031
 5821TIP3    H117424   2.815   3.163   5.683 -0.1264 -0.6918 -1.0411
 5821TIP3    H217425   2.788   3.058   5.789  0.5153 -1.5667 -1.7405
 5822TIP3   OH217426   3.252   1.943   4.109 -0.3468  0.2940 -0.6247
 5822TIP3    H117427   3.308   1.885   4.058  0.1464  0.8067 -0.6684
 5822TIP3    H217428   3.286   1.937   4.198 -0.2959  0.5149 -0.6288
 5823TIP3   OH217429   4.494   6.467   0.091 -0.3396 -0.6159  0.1234
 5823TIP3    H117430   4.504   6.562   0.103  0.5683 -0.5214 -1.3116
 5823TIP3    H217431   4.401   6.450   0.110 -0.0859  0.2546  2.2695
 5824TIP3   OH217432   3.250   1.466   3.576 -0.2347  0.7405 -0.2333
 5824TIP3    H117433   3.276   1.374   3.572  0.4094  0.8267  1.7892
 5824TIP3    H217434   3.170   1.470   3.524  0.3020 -0.7565 -1.2025
 5825TIP3   OH217435   4.353   3.628   4.969 -0.2245  0.3406 -0.2371
 5825TIP3    H117436   4.281   3.673   5.012 -0.0192 -0.3899  0.8934
 5825TIP3    H217437   4.398   3.581   5.039  2.3939  2.1512 -0.6407
 5826TIP3   OH217438   1.841   3.789   3.883 -0.1327  0.5788  0.4072
 5826TIP3    H117439   1.849   3.884   3.881 -1.4891  0.6807 -0.6059
 5826TIP3    H217440   1.928   3.758   3.857  1.0217  1.4876  3.0172
 5827TIP3   OH217441   0.395   0.001   2.069  0.7588  0.7223 -0.2077
 5827TIP3    H117442   0.424   0.075   2.015  1.8083  0.5409  0.0954
 5827TIP3    H217443   0.318   0.034   2.114  0.9939  1.5107 -0.3688
 5828TIP3   OH217444   2.475   1.673   3.449  0.3136  0.3252 -0.4082
 5828TIP3    H117445   2.385   1.684   3.480  0.3971  0.8344 -0.3420
 5828TIP3    H217446   2.496   1.756   3.405 -0.2399 -0.8143 -2.9312
 5829TIP3   OH217447   2.439   3.046   5.955  0.0053  0.9327  0.0051
 5829TIP3    H117448   2.518   2.994   5.970  0.3033  1.1258 -0.8438
 5829TIP3    H217449   2.472   3.133   5.932 -0.4470  0.9667 -0.5262
 5830TIP3   OH217450   4.338   5.831   0.719 -0.0040 -0.1188  0.0718
 5830TIP3    H117451   4.386   5.902   0.677  1.6076 -1.0124  0.3677
 5830TIP3    H217452   4.341   5.851   0.813 -3.1082  1.5719 -0.1149
 5831TIP3   OH217453   1.195   7.092   4.603  0.4037  0.2834 -0.1403
 5831TIP3    H117454   1.222   7.001   4.586 -2.7440 -0.3424 -2.2330
 5831TIP3    H217455   1.170   7.092   4.695 -0.3295 -1.2204 -0.3205
 5832TIP3   OH217456   1.632   1.252   0.211  0.6633  0.3233  0.0148
 5832TIP3    H117457   1.648   1.279   0.301 -0.0336  0.2132  0.1712
 5832TIP3    H217458   1.538   1.262   0.198  0.8685  1.1282 -0.9620
 5833TIP3   OH217459   2.928   2.477   2.836  0.1666  0.0636 -0.2558
 5833TIP3    H117460   2.902   2.480   2.928 -0.3040 -2.0392 -0.3072
 5833TIP3    H217461   3.004   2.419   2.834  1.2318  1.4557 -0.9630
 5834TIP3   OH217462   4.010   3.074   4.496 -0.3723  0.2271 -0.0115
 5834TIP3    H117463   4.000   3.057   4.403 -2.5068 -3.1005  0.7616
 5834TIP3    H217464   3.923   3.064   4.533  0.6092  0.4861  2.5136
 5835TIP3   OH217465   4.865   2.388   4.952  0.6589 -0.6788 -1.0937
 5835TIP3    H117466   4.851   2.477   4.920  0.3589  0.8138  2.9086
 5835TIP3    H217467   4.954   2.388   4.985 -0.3288 -0.8946  1.7007
 5836TIP3   OH217468   3.036   2.691   4.860  0.3381 -0.3118  0.3007
 5836TIP3    H117469   3.113   2.694   4.916  0.2636  0.5459  0.3657
 5836TIP3    H217470   3.045   2.610   4.810  1.6494  0.1342 -0.2057
 5837TIP3   OH217471   2.177   2.074   4.249 -0.1157  0.0947  0.7699
 5837TIP3    H117472   2.263   2.039   4.271 -0.7774 -2.8224 -1.0617
 5837TIP3    H217473   2.195   2.153   4.198  1.4950 -1.0748 -0.4992
 5838TIP3   OH217474   3.523   1.930   5.710 -0.6072 -0.0814  0.0237
 5838TIP3    H117475   3.553   2.013   5.673  2.2531 -1.3935 -0.6801
 5838TIP3    H217476   3.476   1.887   5.639 -2.5351  1.0844  0.5323
 5839TIP3   OH217477   2.923   2.283   5.743 -0.0226  0.2179  0.4771
 5839TIP3    H117478   2.870   2.215   5.701  0.8934 -0.3426  0.2195
 5839TIP3    H217479   2.896   2.281   5.835  0.2267 -0.7070  0.5309
 5840TIP3   OH217480   4.359   4.839   1.934 -0.1087  0.1050 -0.0970
 5840TIP3    H117481   4.323   4.885   2.010  0.7758 -1.1973  1.1287
 5840TIP3    H217482   4.328   4.890   1.859 -2.2137  0.5729  1.0455
 5841TIP3   OH217483   1.843   0.689   0.924 -1.1097 -0.0840 -0.1497
 5841TIP3    H117484   1.803   0.692   0.837 -0.9184  0.2176 -0.2251
 5841TIP3    H217485   1.881   0.776   0.937 -1.2949 -0.0716  0.3110
 5842TIP3   OH217486   7.748   4.855   1.790 -0.1298  0.0110 -0.3207
 5842TIP3    H117487   7.671   4.836   1.736  0.0522  1.3734 -1.0738
 5842TIP3    H217488   7.819   4.866   1.726  0.5595 -0.5755  0.3361
 5843TIP3   OH217489   4.397   3.352   6.128  0.8310  0.9093  0.2611
 5843TIP3    H117490   4.492   3.351   6.143  0.7623  0.2990  0.6827
 5843TIP3    H217491   4.372   3.259   6.131  0.0671  1.1373  1.1229
 5844TIP3   OH217492   2.350   1.998   5.661  1.1163  0.1155 -0.0173
 5844TIP3    H117493   2.266   2.023   5.700  0.5382  0.4261 -1.4204
 5844TIP3    H217494   2.352   1.903   5.669  0.0031 -0.0238 -1.1691
 5845TIP3   OH217495   7.006   5.932   1.012 -0.3272 -0.0702 -0.0258
 5845TIP3    H117496   7.032   5.891   1.095 -2.9397 -0.0205  0.8877
 5845TIP3    H217497   7.042   5.876   0.944 -0.6447 -1.7937  1.1914
 5846TIP3   OH217498   2.678   1.659   6.316  0.0954  0.8309  0.8047
 5846TIP3    H117499   2.658   1.722   6.246 -0.5613 -0.5524 -0.2782
 5846TIP3    H217500   2.768   1.630   6.297 -1.5293 -2.7217 -2.0306
 5847TIP3   OH217501   2.043   3.773   4.486 -0.2897 -0.1465 -0.2726
 5847TIP3    H117502   2.002   3.701   4.438  0.9422 -0.6175 -0.6457
 5847TIP3    H217503   2.076   3.733   4.566 -0.6562  0.2472  0.0732
 5848TIP3   OH217504   2.747   3.067   4.321  0.9079 -0.2424 -0.3395
 5848TIP3    H117505   2.677   3.065   4.255 -0.3738  2.1093  0.8719
 5848TIP3    H217506   2.808   3.132   4.287  1.2263 -0.4475 -0.1535
 5849TIP3   OH217507   3.208   2.216   4.364  0.0604 -0.5552 -0.0401
 5849TIP3    H117508   3.266   2.150   4.326  0.3747  0.4071 -1.2576
 5849TIP3    H217509   3.142   2.231   4.297 -1.0169 -0.8804  0.9250
 5850TIP3   OH217510   2.314   3.508   5.693 -0.2030 -0.5739  0.4929
 5850TIP3    H117511   2.313   3.428   5.640 -0.4911 -0.6097  0.5537
 5850TIP3    H217512   2.280   3.576   5.635  0.1698 -0.4659  0.3971
 5851TIP3   OH217513   2.433   1.252   4.047  0.1675  0.1972 -0.1988
 5851TIP3    H117514   2.519   1.234   4.085  1.6618  0.3300 -3.3707
 5851TIP3    H217515   2.407   1.169   4.008 -1.3738  0.0517  1.0813
 5852TIP3   OH217516   3.629   3.173   5.008 -0.0035 -0.0609 -0.1262
 5852TIP3    H117517   3.646   3.103   4.944  1.1412 -0.8046  0.9606
 5852TIP3    H217518   3.696   3.239   4.989  0.9128 -0.6952  0.8891
 5853TIP3   OH217519   0.975   0.073   0.839 -0.1098  0.4003 -0.1391
 5853TIP3    H117520   1.068   0.057   0.825 -0.6883 -2.2291 -1.4339
 5853TIP3    H217521   0.950   0.133   0.769  0.3810  0.1270 -0.5570
 5854TIP3   OH217522   2.863   3.125   3.496  0.3168 -0.5731 -0.1324
 5854TIP3    H117523   2.896   3.183   3.565 -1.2621 -1.1283  1.1096
 5854TIP3    H217524   2.880   3.037   3.528  2.5553 -0.8521 -1.9413
 5855TIP3   OH217525   3.640   2.031   1.503 -0.0772  0.1487 -0.1089
 5855TIP3    H117526   3.733   2.028   1.482 -0.2760 -1.1199 -0.8842
 5855TIP3    H217527   3.616   2.123   1.496  1.1646  0.5006  0.3028
 5856TIP3   OH217528   3.504   3.184   4.658 -0.5012 -0.6489 -0.7079
 5856TIP3    H117529   3.416   3.208   4.688 -0.6780 -1.6779 -0.3938
 5856TIP3    H217530   3.537   3.124   4.724  0.9977  0.7907 -0.1215
 5857TIP3   OH217531   5.753   5.467   0.073 -0.2627  0.0492 -0.8628
 5857TIP3    H117532   5.666   5.457   0.034 -0.3353  0.2635 -0.7551
 5857TIP3    H217533   5.813   5.433   0.006 -0.2008  2.4963 -2.1330
 5858TIP3   OH217534   2.765   3.937   3.256 -0.1171 -0.5689  0.8574
 5858TIP3    H117535   2.797   3.925   3.345 -1.0276 -1.2424  1.0992
 5858TIP3    H217536   2.780   3.853   3.213 -0.2392 -0.4357  0.5520
 5859TIP3   OH217537   2.328   2.824   1.745  0.0241  0.7981  0.1471
 5859TIP3    H117538   2.340   2.801   1.838  0.9034  0.5611 -0.0240
 5859TIP3    H217539   2.233   2.817   1.731 -0.1031  0.7494  1.0067
 5860TIP3   OH217540   2.671   0.770   3.660  0.2808  0.1700  0.1223
 5860TIP3    H117541   2.695   0.861   3.675 -0.0518  0.4711 -1.0564
 5860TIP3    H217542   2.626   0.772   3.575 -1.4645 -0.7826  1.0095
 5861TIP3   OH217543   3.130   2.056   5.117 -0.1055 -0.5613 -0.3166
 5861TIP3    H117544   3.200   2.105   5.161 -1.0759 -0.7610  1.4585
 5861TIP3    H217545   3.105   1.989   5.180 -1.9683 -0.4395 -0.9210
 5862TIP3   OH217546   4.222   2.788   4.543  0.1950  0.2097 -0.0770
 5862TIP3    H117547   4.301   2.812   4.494 -0.5870  0.3405 -1.3046
 5862TIP3    H217548   4.176   2.871   4.556 -0.1984  0.0045 -0.1798
 5863TIP3   OH217549   5.673   2.977   4.916 -0.0890  0.1737  0.3906
 5863TIP3    H117550   5.701   2.944   4.830 -0.3087  0.6323  0.1386
 5863TIP3    H217551   5.655   3.070   4.900 -2.1056 -0.1932  0.4594
 5864TIP3   OH217552   2.661   7.315   3.022  0.0993  0.2614 -0.0030
 5864TIP3    H117553   2.590   7.370   2.988  0.2715  2.4007  2.8552
 5864TIP3    H217554   2.616   7.237   3.056 -0.8847  1.4078  1.4070
 5865TIP3   OH217555   3.613   3.225   6.061 -0.1639  0.7058  0.5419
 5865TIP3    H117556   3.591   3.253   5.973 -1.3843  0.3184  0.7150
 5865TIP3    H217557   3.570   3.289   6.118 -0.1938  0.3908  0.8753
 5866TIP3   OH217558   4.628   1.144   3.096  0.0253  0.1276 -0.1581
 5866TIP3    H117559   4.589   1.212   3.040  1.5302 -1.5811 -3.3968
 5866TIP3    H217560   4.556   1.083   3.113 -0.9630  1.7037  1.5592
 5867TIP3   OH217561   5.843   1.019   5.435 -0.0286 -0.0104  0.3455
 5867TIP3    H117562   5.850   1.102   5.482 -0.2906  0.6656 -0.7883
 5867TIP3    H217563   5.777   1.035   5.367  1.6149 -0.4182 -1.3805
 5868TIP3   OH217564   4.045   2.505   4.854 -0.7817  0.4629 -0.1757
 5868TIP3    H117565   4.076   2.437   4.914 -1.6089  0.3713  0.1564
 5868TIP3    H217566   4.101   2.497   4.777  0.5724  0.8707  0.7639
 5869TIP3   OH217567   1.920   3.196   5.552 -1.0092  0.2023  0.1720
 5869TIP3    H117568   1.905   3.104   5.572  1.3376  0.2239  2.2692
 5869TIP3    H217569   1.884   3.244   5.627  0.1151  0.8305  0.3239
 5870TIP3   OH217570   3.270   2.152   3.121  0.9621  0.1768 -0.5614
 5870TIP3    H117571   3.351   2.101   3.121  2.2720  2.1108  2.0621
 5870TIP3    H217572   3.284   2.220   3.055  0.8139 -0.4322 -1.2294
 5871TIP3   OH217573   2.792   0.727   3.306 -0.0128  0.4306 -0.8318
 5871TIP3    H117574   2.761   0.816   3.322  1.2682  0.3494  2.5944
 5871TIP3    H217575   2.720   0.671   3.335  1.0312  0.3516  1.8522
 5872TIP3   OH217576   2.231   2.383   5.740 -0.0133  0.1158  0.4103
 5872TIP3    H117577   2.208   2.457   5.684 -0.4534 -0.2775  0.0718
 5872TIP3    H217578   2.186   2.401   5.823  1.3167  1.1296  0.9511
 5873TIP3   OH217579   4.572   2.665   5.019  0.0588  0.1567 -0.3352
 5873TIP3    H117580   4.608   2.586   5.059 -0.3702  0.1124 -0.0331
 5873TIP3    H217581   4.555   2.723   5.093 -1.7305 -0.3261 -0.3484
 5874TIP3   OH217582   4.325   0.994   3.487  0.4348 -0.1037 -0.2976
 5874TIP3    H117583   4.277   1.046   3.552  0.3250  0.7383 -1.0367
 5874TIP3    H217584   4.413   1.030   3.487  0.8824 -1.1740  0.5362
 5875TIP3   OH217585   0.086   6.565   4.618 -0.5075  0.1228 -0.0649
 5875TIP3    H117586   0.066   6.647   4.662 -2.1514 -0.6959  0.7651
 5875TIP3    H217587   0.177   6.573   4.592 -0.8456  2.4788 -0.5990
 5876TIP3   OH217588   4.111   1.832   2.733 -0.6603 -0.0229 -0.0943
 5876TIP3    H117589   4.134   1.774   2.660 -0.0984 -0.3208  0.3191
 5876TIP3    H217590   4.080   1.912   2.691  1.2829  0.4548 -0.6809
 5877TIP3   OH217591   1.682   7.001   5.115  0.5934 -0.1173 -0.4592
 5877TIP3    H117592   1.776   6.986   5.099  1.4784  1.4366  2.7605
 5877TIP3    H217593   1.670   7.094   5.098  0.0150  0.0319  0.7196
 5878TIP3   OH217594   2.501   3.790   5.634 -0.0303  0.0176  0.0945
 5878TIP3    H117595   2.461   3.769   5.718  1.9331 -1.5389  0.6638
 5878TIP3    H217596   2.431   3.775   5.570 -1.4791  1.0307  1.4004
 5879TIP3   OH217597   0.544   1.569   0.931 -0.3472 -0.7845 -0.0887
 5879TIP3    H117598   0.572   1.660   0.939  1.7720 -1.4330  0.1375
 5879TIP3    H217599   0.449   1.572   0.941 -0.3189  1.4183 -0.2756
 5880TIP3   OH217600   1.702   5.807   5.551 -0.0225 -0.1487  0.3210
 5880TIP3    H117601   1.627   5.755   5.577  1.2713 -2.3832 -0.3286
 5880TIP3    H217602   1.778   5.752   5.569  1.4968  2.0239  0.8853
 5881TIP3   OH217603   5.004   4.588   0.864  0.3102  0.5280 -0.1562
 5881TIP3    H117604   4.916   4.558   0.841 -0.4580  3.1841 -0.9768
 5881TIP3    H217605   5.058   4.564   0.788  0.2704 -0.9612  0.2777
 5882TIP3   OH217606   5.935   6.439   1.336 -0.1283 -0.1582 -0.3059
 5882TIP3    H117607   5.940   6.504   1.406  1.1164  0.4134 -0.9076
 5882TIP3    H217608   5.900   6.360   1.379  0.7999  0.1240  1.0109
 5883TIP3   OH217609   1.052   1.536   4.402 -0.1563 -0.1081 -0.7169
 5883TIP3    H117610   1.070   1.571   4.315  0.5238 -1.9191 -1.3328
 5883TIP3    H217611   1.119   1.469   4.415 -0.0417  0.3784  1.3492
 5884TIP3   OH217612   6.572   5.311   1.011  0.0855  1.0695  0.2255
 5884TIP3    H117613   6.650   5.366   1.012  0.2520  0.9180 -1.5561
 5884TIP3    H217614   6.514   5.354   0.948 -0.8043  0.5772  0.7115
 5885TIP3   OH217615   3.776   4.464   3.674 -0.4253  0.3746  0.1880
 5885TIP3    H117616   3.725   4.544   3.683 -1.4849 -0.3190  0.4402
 5885TIP3    H217617   3.810   4.447   3.762  0.0389  0.6972  0.0738
 5886TIP3   OH217618   2.588   4.875   4.878 -0.1436  0.0805  0.6826
 5886TIP3    H117619   2.634   4.957   4.861  0.4618 -0.0520  1.6414
 5886TIP3    H217620   2.573   4.837   4.792  1.4584  0.1823  0.3518
 5887TIP3   OH217621   3.759   3.560   6.250  0.3609  0.0748  0.0103
 5887TIP3    H117622   3.801   3.616   6.186 -0.6204  0.4455 -0.3146
 5887TIP3    H217623   3.756   3.612   6.330 -1.0171  0.6939 -0.4307
 5888TIP3   OH217624   1.659   2.586   4.508  0.3982  0.8716 -0.1348
 5888TIP3    H117625   1.753   2.602   4.519  0.4752  0.6705 -0.5073
 5888TIP3    H217626   1.638   2.520   4.574  0.8173 -0.1649 -1.0210
 5889TIP3   OH217627   3.294   4.082   4.390 -0.8266  0.1302  0.6468
 5889TIP3    H117628   3.232   4.010   4.404 -0.6431 -0.4285 -1.2660
 5889TIP3    H217629   3.363   4.067   4.455 -0.4789 -1.8013 -0.1273
 5890TIP3   OH217630   3.116   2.587   5.179 -0.3038 -0.3533  0.3327
 5890TIP3    H117631   3.065   2.632   5.246 -0.4910  0.8486 -0.5976
 5890TIP3    H217632   3.207   2.600   5.205 -0.3261  1.1709 -0.2732
 5891TIP3   OH217633   1.221   1.298   5.724 -0.4013 -0.7077  0.3325
 5891TIP3    H117634   1.280   1.223   5.733  1.1702  0.5303  0.7054
 5891TIP3    H217635   1.141   1.272   5.770 -0.6505 -2.9139 -1.2941
 5892TIP3   OH217636   0.759   7.051   3.146 -0.1327 -0.8836  0.5679
 5892TIP3    H117637   0.792   6.995   3.216 -1.1216  1.5251  3.0784
 5892TIP3    H217638   0.664   7.044   3.152 -0.2290 -0.7176 -0.6145
 5893TIP3   OH217639   4.137   0.495   3.998  0.3533 -0.1336  0.0850
 5893TIP3    H117640   4.044   0.483   4.017  0.8525  2.6162  4.9772
 5893TIP3    H217641   4.139   0.538   3.913 -2.8243 -0.2973 -0.1273
 5894TIP3   OH217642   2.402   2.434   6.018 -0.4009 -0.0740  0.2874
 5894TIP3    H117643   2.458   2.460   6.091  1.8221  1.4157 -1.8494
 5894TIP3    H217644   2.326   2.492   6.023  0.3716  0.9171  0.6558
 5895TIP3   OH217645   4.121   1.223   3.654 -0.1902 -0.3688 -0.0599
 5895TIP3    H117646   4.089   1.286   3.719  0.2390 -1.5152  1.3015
 5895TIP3    H217647   4.145   1.276   3.579  1.0057  1.2319  1.3944
 5896TIP3   OH217648   7.524   6.508   3.661 -0.1408 -0.1462 -0.3851
 5896TIP3    H117649   7.558   6.435   3.609  0.5554  0.2687 -0.5195
 5896TIP3    H217650   7.456   6.469   3.716 -0.8512 -0.5961 -1.5650
 5897TIP3   OH217651   4.195   0.165   5.810  0.5331 -0.1186  0.1442
 5897TIP3    H117652   4.219   0.202   5.725  0.6455 -1.5982 -0.4807
 5897TIP3    H217653   4.277   0.167   5.860  0.5700  0.3291  0.0754
 5898TIP3   OH217654   3.258   2.140   5.535  0.1956  0.1867  0.3006
 5898TIP3    H117655   3.223   2.183   5.613 -1.2678 -0.0121 -0.2405
 5898TIP3    H217656   3.190   2.151   5.468  0.8797 -0.7618 -0.5728
 5899TIP3   OH217657   5.326   6.513   0.889 -0.0767  0.1513 -0.3395
 5899TIP3    H117658   5.236   6.541   0.869  0.1922  0.9457 -0.4666
 5899TIP3    H217659   5.381   6.583   0.854  0.6701 -0.9708 -1.4389
 5900TIP3   OH217660   2.293   2.611   4.471 -0.1199  0.3665 -0.8315
 5900TIP3    H117661   2.225   2.652   4.524 -1.0416  0.6114 -2.1836
 5900TIP3    H217662   2.328   2.541   4.526 -1.6428  0.0829 -0.2187
 5901TIP3   OH217663   0.873   3.321   2.677 -0.1064 -0.6160  0.1658
 5901TIP3    H117664   0.937   3.288   2.614 -0.9870  0.0503 -1.0722
 5901TIP3    H217665   0.816   3.246   2.694 -0.6311 -0.4308 -0.7844
 5902TIP3   OH217666   1.164   3.791   5.778  0.3885  0.8604 -0.1390
 5902TIP3    H117667   1.166   3.698   5.801 -0.5392  0.8272 -0.1860
 5902TIP3    H217668   1.144   3.792   5.685 -0.9894  1.1310  0.1411
 5903TIP3   OH217669   4.073   0.349   4.344  0.1139 -0.0962  0.0158
 5903TIP3    H117670   4.020   0.341   4.424  1.7395 -0.3103  1.0883
 5903TIP3    H217671   4.046   0.274   4.291 -1.6319  0.5397 -0.0543
 5904TIP3   OH217672   4.924   4.635   0.411  0.4410 -0.4100 -0.1637
 5904TIP3    H117673   4.890   4.627   0.322 -2.0426 -0.4949  0.7525
 5904TIP3    H217674   4.984   4.710   0.407  0.5213 -0.5437 -1.9503
 5905TIP3   OH217675   2.853   1.917   3.697  0.2753 -0.5211  0.1560
 5905TIP3    H117676   2.809   1.962   3.626  1.6616 -0.9792 -1.0264
 5905TIP3    H217677   2.907   1.850   3.654 -0.1575 -1.9412  1.7385
 5906TIP3   OH217678   1.255   3.120   2.701 -0.4838 -0.6066  0.0575
 5906TIP3    H117679   1.194   3.188   2.729  0.5783  0.2320  0.3738
 5906TIP3    H217680   1.342   3.159   2.714  0.0823 -0.2530 -4.1237
 5907TIP3   OH217681   5.813   2.327   1.521  0.4841  0.1170  0.2456
 5907TIP3    H117682   5.766   2.359   1.598 -1.0619 -1.5145  0.0064
 5907TIP3    H217683   5.756   2.347   1.447  1.2555  0.2816 -0.3124
 5908TIP3   OH217684   3.672   2.818   3.645 -0.1656 -0.4998  0.2840
 5908TIP3    H117685   3.750   2.793   3.694  0.0996 -0.0289  0.1134
 5908TIP3    H217686   3.624   2.736   3.632  0.0005 -0.6969  0.9090
 5909TIP3   OH217687   6.714   1.250   4.065 -0.4694  0.8374 -0.2974
 5909TIP3    H117688   6.715   1.263   3.970  0.1393  1.1971 -0.2504
 5909TIP3    H217689   6.752   1.331   4.100  2.9969 -0.8476  0.0464
 5910TIP3   OH217690   3.002   2.573   1.955  0.5698  0.0173  0.1701
 5910TIP3    H117691   3.062   2.595   2.027 -0.6910  2.2484  0.5956
 5910TIP3    H217692   2.977   2.482   1.971  2.2117 -0.2636  1.1701
 5911TIP3   OH217693   3.995   3.637   3.023  0.5333  0.0142 -0.0091
 5911TIP3    H117694   3.965   3.592   2.944  0.5042  0.2186 -0.1135
 5911TIP3    H217695   4.004   3.728   2.997  0.8020  0.0325  0.1470
 5912TIP3   OH217696   6.457   3.790   3.855  0.1240  0.3257 -0.2134
 5912TIP3    H117697   6.526   3.793   3.789  1.5720  1.2961  1.2615
 5912TIP3    H217698   6.452   3.880   3.888  0.5343 -0.4280  2.0481
 5913TIP3   OH217699   4.189   0.990   3.105 -0.4409  0.1441 -0.1962
 5913TIP3    H117700   4.161   1.081   3.110  0.5336  0.4219  0.1516
 5913TIP3    H217701   4.119   0.947   3.056 -0.4759  1.2426 -1.1251
 5914TIP3   OH217702   2.770   2.196   3.883  0.4433  0.3065 -0.3098
 5914TIP3    H117703   2.842   2.197   3.945 -0.4167  0.3475  0.7108
 5914TIP3    H217704   2.703   2.141   3.924 -0.7671  1.6276 -0.4441
 5915TIP3   OH217705   2.661   1.525   3.305 -0.0961 -0.0007 -0.2333
 5915TIP3    H117706   2.588   1.559   3.357 -0.4312  2.0934 -1.9909
 5915TIP3    H217707   2.732   1.588   3.319  1.2241 -1.7035  0.9898
 5916TIP3   OH217708   4.785   1.587   2.440 -0.2568  0.0594 -0.3969
 5916TIP3    H117709   4.766   1.493   2.441 -0.3935  0.0193 -2.5986
 5916TIP3    H217710   4.873   1.594   2.475  0.0746 -1.0076 -0.9866
 5917TIP3   OH217711   0.492   2.105   4.340 -1.0391  0.7833  0.2914
 5917TIP3    H117712   0.472   2.052   4.263 -0.5017  2.7618 -1.2562
 5917TIP3    H217713   0.556   2.054   4.389 -1.1862 -0.3794 -0.7205
 5918TIP3   OH217714   5.832   3.625   3.524 -0.1348 -0.0174  0.6938
 5918TIP3    H117715   5.762   3.663   3.471 -0.2731  1.9153  2.2259
 5918TIP3    H217716   5.911   3.635   3.470 -0.1566  2.5730  1.1010
 5919TIP3   OH217717   2.562   2.545   3.014 -0.0215  0.2285 -0.2593
 5919TIP3    H117718   2.500   2.500   2.956 -1.3746 -0.6996  1.8672
 5919TIP3    H217719   2.579   2.628   2.970  0.3293 -1.1581 -2.8546
 5920TIP3   OH217720   5.604   3.248   6.105 -0.0415 -0.4674  0.2157
 5920TIP3    H117721   5.598   3.299   6.186 -0.1815  3.1264 -1.9498
 5920TIP3    H217722   5.692   3.209   6.108  0.7309  1.2573  1.2067
 5921TIP3   OH217723   3.771   1.607   2.415  0.0599  0.5960 -0.1109
 5921TIP3    H117724   3.780   1.702   2.425  3.1993  0.1341  2.0616
 5921TIP3    H217725   3.861   1.574   2.416 -0.8777 -2.2864 -2.5341
 5922TIP3   OH217726   2.932   3.380   3.943 -0.4255  0.2146  0.2500
 5922TIP3    H117727   2.990   3.390   4.018 -0.7800  0.3279  0.5084
 5922TIP3    H217728   2.844   3.394   3.978 -0.5422  0.8808 -0.3065
 5923TIP3   OH217729   5.683   1.538   4.494 -0.1177 -0.1188  0.0912
 5923TIP3    H117730   5.662   1.452   4.531  1.9623 -0.0689  1.4842
 5923TIP3    H217731   5.681   1.598   4.569  3.0212  0.1932 -0.0215
 5924TIP3   OH217732   4.357   0.449   5.541 -0.8847  0.3726 -0.3716
 5924TIP3    H117733   4.315   0.502   5.472  1.2051  1.3834 -0.8972
 5924TIP3    H217734   4.306   0.368   5.542 -1.1853  0.4733 -2.8906
 5925TIP3   OH217735   7.598   2.658   6.342 -0.6097 -0.2629 -0.2634
 5925TIP3    H117736   7.509   2.695   6.341  0.0045  1.2663  0.6557
 5925TIP3    H217737   7.605   2.613   6.258 -1.1670  2.2576 -1.7138
 5926TIP3   OH217738   5.920   2.717   3.776  0.1150 -0.0286 -0.1674
 5926TIP3    H117739   5.944   2.625   3.761  0.2605  0.1341 -1.0010
 5926TIP3    H217740   5.981   2.767   3.721 -0.6487  0.5020 -0.5530
 5927TIP3   OH217741   5.464   1.756   4.404  0.0736 -0.4421 -0.2397
 5927TIP3    H117742   5.513   1.682   4.367 -2.3039 -1.6111 -1.1679
 5927TIP3    H217743   5.409   1.717   4.472  1.2934  1.0371  1.6223
 5928TIP3   OH217744   2.435   0.952   5.051  0.5700  0.0883  0.0521
 5928TIP3    H117745   2.414   1.031   5.001 -1.1820 -0.0859  0.4879
 5928TIP3    H217746   2.423   0.978   5.142  1.9870 -0.1205  0.3098
 5929TIP3   OH217747   5.055   4.644   6.118  0.5386 -0.1279 -0.5178
 5929TIP3    H117748   5.013   4.608   6.195  0.0761  0.6132 -0.4191
 5929TIP3    H217749   5.049   4.575   6.052  0.3912 -0.5295 -0.0777
 5930TIP3   OH217750   2.754   2.850   3.517  0.3129  0.4251 -0.5012
 5930TIP3    H117751   2.842   2.832   3.483 -0.0111 -0.9703 -0.6278
 5930TIP3    H217752   2.698   2.788   3.471 -0.1859 -1.3593  2.3971
 5931TIP3   OH217753   6.026   5.068   4.600 -0.2514 -0.5771 -0.3495
 5931TIP3    H117754   6.062   4.980   4.596 -1.9385 -1.3198  0.5562
 5931TIP3    H217755   5.932   5.057   4.588 -0.5600  1.0369  0.4033
 5932TIP3   OH217756   5.805   3.026   5.751 -0.5916 -0.4164 -0.1735
 5932TIP3    H117757   5.867   2.956   5.773  1.8762  1.7797  0.0948
 5932TIP3    H217758   5.848   3.075   5.681 -1.5617  1.7855  0.7296
 5933TIP3   OH217759   2.985   7.062   4.046 -0.1686  0.2907  0.2652
 5933TIP3    H117760   3.059   7.003   4.033 -0.5425  0.0624 -0.8823
 5933TIP3    H217761   3.020   7.132   4.101  1.0568  0.4708 -0.7116
 5934TIP3   OH217762   3.842   3.300   4.517  0.2497  0.5738  0.1240
 5934TIP3    H117763   3.919   3.246   4.499 -0.4593 -0.2115 -0.5899
 5934TIP3    H217764   3.868   3.355   4.591  1.1635 -0.3630  0.5080
 5935TIP3   OH217765   5.966   3.695   3.013  0.8637  0.2500 -0.2688
 5935TIP3    H117766   6.042   3.697   2.954  1.1763 -0.0523  0.1237
 5935TIP3    H217767   5.941   3.787   3.022  0.8544  0.3016 -0.8264
 5936TIP3   OH217768   5.648   3.324   3.073  0.0251 -0.0350 -0.2929
 5936TIP3    H117769   5.639   3.240   3.028  0.6342 -1.4241  2.1017
 5936TIP3    H217770   5.574   3.327   3.134  0.1338  1.0508 -0.2014
 5937TIP3   OH217771   5.153   1.745   3.359 -0.2870  0.3228 -0.1923
 5937TIP3    H117772   5.092   1.712   3.425  1.4595 -0.4897  1.0372
 5937TIP3    H217773   5.099   1.758   3.281 -1.7722 -1.6318  0.4802
 5938TIP3   OH217774   4.215   2.705   1.561 -0.4662 -0.3423  0.5385
 5938TIP3    H117775   4.246   2.751   1.483 -1.6825  0.0372  0.2608
 5938TIP3    H217776   4.248   2.757   1.634  0.6585 -0.6834  0.2825
 5939TIP3   OH217777   5.372   4.195   4.289  0.2138  0.2287  0.4001
 5939TIP3    H117778   5.292   4.233   4.254  0.0988  0.1961  0.6230
 5939TIP3    H217779   5.357   4.101   4.289  0.9311  0.0990 -1.1937
 5940TIP3   OH217780   0.352   2.476   3.867 -0.0140  0.3468 -0.1863
 5940TIP3    H117781   0.317   2.502   3.782  0.5773 -1.6607 -1.0772
 5940TIP3    H217782   0.276   2.451   3.918 -0.1053 -2.3388 -1.5297
 5941TIP3   OH217783   7.343   2.713   6.315 -0.4175 -0.1225  0.1506
 5941TIP3    H117784   7.273   2.652   6.294 -0.4343 -0.9710  2.5276
 5941TIP3    H217785   7.326   2.789   6.259 -2.7884 -0.6171  0.1422
 5942TIP3   OH217786   3.405   2.730   1.623  0.3836  0.1698  0.3567
 5942TIP3    H117787   3.479   2.782   1.653  0.7890 -0.2658  0.1116
 5942TIP3    H217788   3.347   2.724   1.699  0.3866  0.8810  0.4205
 5943TIP3   OH217789   5.059   3.492   3.525  0.4203  0.4809  0.2713
 5943TIP3    H117790   5.094   3.581   3.513  0.0132  0.6109  0.0510
 5943TIP3    H217791   5.080   3.447   3.443  2.0733 -0.1204  0.9900
 5944TIP3   OH217792   3.639   3.345   5.807 -0.3801 -0.0859 -0.5726
 5944TIP3    H117793   3.674   3.424   5.849 -0.2953 -0.5236  0.1973
 5944TIP3    H217794   3.674   3.348   5.718  3.4846 -1.6339  0.7719
 5945TIP3   OH217795   5.817   1.868   4.235 -0.0676  0.2583 -0.3723
 5945TIP3    H117796   5.814   1.956   4.273  2.8998  0.6269 -0.8204
 5945TIP3    H217797   5.732   1.856   4.193  0.0186  3.5328 -1.5945
 5946TIP3   OH217798   6.032   3.314   3.926  0.5242  0.0713 -0.0470
 5946TIP3    H117799   6.030   3.226   3.889  1.2451  0.4819 -1.0881
 5946TIP3    H217800   6.120   3.347   3.906  0.3421  0.9451  0.5367
 5947TIP3   OH217801   6.885   4.457   2.307  0.2198 -0.3408 -0.2261
 5947TIP3    H117802   6.801   4.442   2.264  0.2435 -1.0094 -0.0549
 5947TIP3    H217803   6.942   4.388   2.271  0.6577  0.0210 -0.2407
 5948TIP3   OH217804   0.083   0.326   3.743 -0.4520 -0.0911 -0.8220
 5948TIP3    H117805   0.147   0.367   3.685  1.1763 -1.4994 -0.0711
 5948TIP3    H217806   0.136   0.278   3.806 -2.2217  0.5171  1.1744
 5949TIP3   OH217807   4.695   2.614   3.908 -0.0280 -0.0419  0.2083
 5949TIP3    H117808   4.756   2.666   3.856  1.5966 -1.5504  0.5642
 5949TIP3    H217809   4.715   2.523   3.885  0.0321 -0.6947  2.6792
 5950TIP3   OH217810   4.892   3.636   5.615 -0.1504  0.1528 -0.3191
 5950TIP3    H117811   4.806   3.605   5.642 -0.0554 -1.5560 -1.8707
 5950TIP3    H217812   4.943   3.640   5.696 -0.2133 -3.7174  0.0150
 5951TIP3   OH217813   3.773   3.121   1.569 -0.3402  0.2887 -0.2729
 5951TIP3    H117814   3.741   3.133   1.658 -1.2792  1.2277 -0.7339
 5951TIP3    H217815   3.696   3.096   1.518  0.2771 -0.7263 -0.7394
 5952TIP3   OH217816   2.512   1.651   4.048  0.0463  0.5264 -0.4967
 5952TIP3    H117817   2.425   1.611   4.053 -0.1947  1.2030  1.1261
 5952TIP3    H217818   2.571   1.582   4.079  0.0086  0.3371 -0.8372
 5953TIP3   OH217819   5.822   2.480   3.529  0.0140 -0.3372 -0.6704
 5953TIP3    H117820   5.854   2.550   3.473 -1.4719  0.9528  0.0564
 5953TIP3    H217821   5.895   2.461   3.588  0.6291  0.1731 -1.2704
 5954TIP3   OH217822   6.684   4.372   3.430 -0.1488 -0.2805 -0.7760
 5954TIP3    H117823   6.691   4.363   3.525  1.5245  1.1995 -0.7247
 5954TIP3    H217824   6.772   4.398   3.402 -0.2404 -2.1888 -2.9231
 5955TIP3   OH217825   5.561   5.725   0.336 -0.2670  0.5903  0.1340
 5955TIP3    H117826   5.639   5.671   0.347 -0.3164  0.4887 -0.0166
 5955TIP3    H217827   5.497   5.666   0.295 -0.3856  0.7047  0.1565
 5956TIP3   OH217828   6.363   3.897   4.615 -0.3936 -0.9935 -0.3688
 5956TIP3    H117829   6.292   3.844   4.651 -2.8605  1.8108 -0.9050
 5956TIP3    H217830   6.335   3.916   4.525  0.8542  0.4960 -0.4563
 5957TIP3   OH217831   4.837   3.318   5.019 -0.0554  0.6877 -0.1197
 5957TIP3    H117832   4.884   3.371   5.084  0.4893  0.3058 -0.1993
 5957TIP3    H217833   4.848   3.228   5.048  0.6950  0.4699 -1.0614
 5958TIP3   OH217834   4.642   3.481   3.853 -0.1763 -0.0314 -0.1128
 5958TIP3    H117835   4.713   3.496   3.791  0.8757 -0.1335  1.0616
 5958TIP3    H217836   4.674   3.516   3.936 -1.6905  0.3772  0.3256
 5959TIP3   OH217837   3.663   0.958   5.030 -0.1074  0.4707  0.5994
 5959TIP3    H117838   3.720   1.028   5.061  0.1817  0.3117  0.4260
 5959TIP3    H217839   3.659   0.970   4.935 -0.1077  0.2908  0.5772
 5960TIP3   OH217840   4.880   3.692   4.317  0.2515  0.6530  0.6628
 5960TIP3    H117841   4.858   3.741   4.397 -0.1949  1.1092  0.2647
 5960TIP3    H217842   4.925   3.614   4.348  2.2192  1.9943  1.2413
 5961TIP3   OH217843   0.096   3.107   5.399  0.4398 -0.5157  0.3777
 5961TIP3    H117844   0.161   3.104   5.468  0.3418 -1.2385  0.4526
 5961TIP3    H217845   0.101   3.020   5.359  1.0481  0.1599 -1.0376
 5962TIP3   OH217846   3.446   2.626   4.725 -0.3457 -0.0773 -0.1813
 5962TIP3    H117847   3.422   2.534   4.733 -1.5664  0.3825  1.8573
 5962TIP3    H217848   3.480   2.634   4.636  0.9381 -2.7412  0.0185
 5963TIP3   OH217849   4.298   1.603   6.154  0.4718 -0.0050 -0.0100
 5963TIP3    H117850   4.209   1.628   6.180  1.0069  0.4914  1.3901
 5963TIP3    H217851   4.320   1.530   6.211  1.0745  0.0547 -0.1631
 5964TIP3   OH217852   0.989   6.858   4.397 -0.2199  0.2396  0.0236
 5964TIP3    H117853   0.926   6.790   4.375 -0.6974  0.1764  1.4975
 5964TIP3    H217854   1.028   6.828   4.480  1.8446  0.2040 -0.9184
 5965TIP3   OH217855   5.813   1.728   3.875  0.3735  0.0218 -0.2322
 5965TIP3    H117856   5.784   1.799   3.933  1.1428 -0.9501  1.3723
 5965TIP3    H217857   5.855   1.665   3.934  3.8341  0.3889 -2.1713
 5966TIP3   OH217858   4.921   3.231   3.200 -0.8857 -0.5591  0.3010
 5966TIP3    H117859   4.854   3.233   3.131  0.1791 -0.0286 -0.7303
 5966TIP3    H217860   4.905   3.148   3.245 -2.3763 -0.3435  0.2169
 5967TIP3   OH217861   4.119   0.221   2.411 -0.1237 -0.0989  0.3382
 5967TIP3    H117862   4.038   0.272   2.407  0.0560  0.1413 -0.3014
 5967TIP3    H217863   4.178   0.273   2.464 -0.3920 -0.2765  0.8111
 5968TIP3   OH217864   5.216   3.023   4.241  0.4660  0.1552 -0.1831
 5968TIP3    H117865   5.163   3.053   4.315  0.5400 -0.7737  0.2551
 5968TIP3    H217866   5.182   3.071   4.165 -1.9867 -1.5149 -0.1701
 5969TIP3   OH217867   5.194   2.837   3.808  0.3760  0.7531  0.3339
 5969TIP3    H117868   5.247   2.889   3.869  0.9051  1.8194 -0.9969
 5969TIP3    H217869   5.255   2.772   3.772  0.5398  1.3067 -0.4112
 5970TIP3   OH217870   6.340   0.747   4.982 -0.5722  0.3053  0.1260
 5970TIP3    H117871   6.381   0.736   4.896 -1.4355  1.8581 -0.5274
 5970TIP3    H217872   6.253   0.783   4.962 -0.9200  0.3365  1.6276
 5971TIP3   OH217873   7.560   3.042   2.903 -0.2700  0.0287  0.3695
 5971TIP3    H117874   7.636   2.985   2.918 -0.5023 -0.6099 -0.7665
 5971TIP3    H217875   7.554   3.048   2.808 -1.1981  0.6836  0.4691
 5972TIP3   OH217876   5.337   2.878   3.054 -0.0686  0.1995 -0.5091
 5972TIP3    H117877   5.369   2.890   3.143 -0.4965 -1.8617 -0.0615
 5972TIP3    H217878   5.250   2.916   3.054  1.3009  3.5201 -1.0561
 5973TIP3   OH217879   4.640   0.383   5.509  0.1028 -0.3284  0.0534
 5973TIP3    H117880   4.544   0.387   5.504 -0.0178 -1.2217  1.3850
 5973TIP3    H217881   4.668   0.474   5.503 -0.7976 -0.0825 -0.7036
 5974TIP3   OH217882   4.100   2.655   5.223 -0.4206  0.4906  0.0961
 5974TIP3    H117883   4.058   2.582   5.177  1.5431 -0.2046 -0.6370
 5974TIP3    H217884   4.066   2.649   5.312  0.4812 -1.9793  0.3255
 5975TIP3   OH217885   2.317   3.354   5.203 -0.2781 -0.2473  0.0986
 5975TIP3    H117886   2.355   3.362   5.290 -2.3122 -0.9049  1.0767
 5975TIP3    H217887   2.263   3.433   5.193 -0.1445 -0.2328 -0.5095
 5976TIP3   OH217888   4.074   2.551   3.658  0.6969  0.4034  0.3835
 5976TIP3    H117889   4.119   2.634   3.646  2.1238 -0.2903  0.8279
 5976TIP3    H217890   4.058   2.547   3.753 -0.3894  0.6870  0.2164
 5977TIP3   OH217891   6.411   2.799   4.874 -0.4722 -0.1179  0.4674
 5977TIP3    H117892   6.338   2.780   4.814  0.0680 -1.3816  0.1996
 5977TIP3    H217893   6.456   2.873   4.835 -0.5244 -0.5114 -0.3455
 5978TIP3   OH217894   4.902   1.792   3.943  0.3198 -0.1636  0.1945
 5978TIP3    H117895   4.825   1.782   3.999  0.7256 -0.3824  0.7236
 5978TIP3    H217896   4.889   1.876   3.899  0.1032  0.1150  0.7852
 5979TIP3   OH217897   4.816   1.607   4.379 -0.2815  0.2673 -0.3893
 5979TIP3    H117898   4.850   1.690   4.412  0.4687 -0.8496  1.7720
 5979TIP3    H217899   4.859   1.595   4.295  1.2962  1.0359  0.2875
 5980TIP3   OH217900   5.913   2.196   4.491  0.0662 -0.2197  0.0585
 5980TIP3    H117901   5.858   2.239   4.557  0.4413  0.0843  0.1752
 5980TIP3    H217902   5.851   2.150   4.435 -0.1698 -1.5163  1.3533
 5981TIP3   OH217903   7.233   2.021   2.522  0.3353  0.0850  0.5338
 5981TIP3    H117904   7.138   2.033   2.510  0.2926 -1.0486 -0.4529
 5981TIP3    H217905   7.268   2.109   2.531 -0.6366  0.6071 -0.6377
 5982TIP3   OH217906   3.789   1.321   6.189 -0.1927  0.0334 -0.1694
 5982TIP3    H117907   3.778   1.398   6.245 -0.6786 -1.6429  2.1108
 5982TIP3    H217908   3.738   1.341   6.111 -1.0557  1.6420  0.7806
 5983TIP3   OH217909   1.021   0.492   0.097 -0.0074 -0.7332  0.3576
 5983TIP3    H117910   0.938   0.504   0.051  0.2906 -1.1409 -0.2933
 5983TIP3    H217911   1.019   0.557   0.166 -1.3573 -1.4709  1.0364
 5984TIP3   OH217912   5.158   2.112   4.221  0.1973 -0.2785 -0.3013
 5984TIP3    H117913   5.096   2.164   4.273 -1.7302 -0.7630 -2.0397
 5984TIP3    H217914   5.145   2.022   4.252 -0.7824 -0.5336 -1.4093
 5985TIP3   OH217915   7.040   1.138   4.349  0.0155 -0.0358 -0.1317
 5985TIP3    H117916   7.098   1.175   4.283  0.0261  0.3544  0.0982
 5985TIP3    H217917   7.024   1.048   4.319  1.4191 -0.4265  0.2453
 5986TIP3   OH217918   4.455   2.877   2.025 -0.0811 -0.2502 -0.0450
 5986TIP3    H117919   4.391   2.840   2.087 -0.8765  1.3560  0.1176
 5986TIP3    H217920   4.494   2.950   2.072 -1.0290  1.2838 -1.5884
 5987TIP3   OH217921   7.440   2.512   3.778  0.0501  0.3138  0.0394
 5987TIP3    H117922   7.441   2.605   3.756  0.7781  0.3077  0.0474
 5987TIP3    H217923   7.347   2.491   3.789 -0.0052  1.6842  2.6524
 5988TIP3   OH217924   4.607   0.992   4.812  0.3891 -0.2976 -0.6035
 5988TIP3    H117925   4.569   0.916   4.768  0.3819 -1.6020  1.5718
 5988TIP3    H217926   4.695   0.964   4.837  0.4316  0.4454  0.1131
 5989TIP3   OH217927   6.926   2.290   5.058  0.1231  0.2285 -0.3491
 5989TIP3    H117928   7.002   2.262   5.007  0.5918 -0.5955  0.7633
 5989TIP3    H217929   6.855   2.297   4.995  0.8277 -0.2187 -1.2005
 5990TIP3   OH217930   6.438   2.481   3.094  0.2803  0.1013 -0.0550
 5990TIP3    H117931   6.521   2.448   3.128  1.1830  1.7953 -0.6084
 5990TIP3    H217932   6.434   2.572   3.123 -0.7752  0.4133 -1.1365
 5991TIP3   OH217933   5.397   1.331   3.991 -0.0591 -0.1411  0.0115
 5991TIP3    H117934   5.353   1.276   4.056 -0.3372 -0.1478 -0.1823
 5991TIP3    H217935   5.419   1.411   4.039  1.6907 -1.0246  0.6910
 5992TIP3   OH217936   6.480   3.702   4.956 -0.2275  0.5865  0.0311
 5992TIP3    H117937   6.574   3.717   4.970  0.1246  0.9781 -2.5190
 5992TIP3    H217938   6.469   3.705   4.861 -2.7895  0.2541  0.2803
 5993TIP3   OH217939   4.822   1.416   5.018  0.0970 -0.4156  0.2844
 5993TIP3    H117940   4.755   1.356   4.986  0.8724 -1.1247 -0.0391
 5993TIP3    H217941   4.804   1.499   4.973 -1.4487 -0.1757  1.3245
 5994TIP3   OH217942   4.890   4.721   2.849 -0.3238 -0.5849  0.5189
 5994TIP3    H117943   4.940   4.798   2.875 -1.6712  0.1796  0.9060
 5994TIP3    H217944   4.930   4.693   2.767  0.0859  0.6310  0.2907
 5995TIP3   OH217945   4.150   2.613   4.198 -0.0612  0.0727 -0.7143
 5995TIP3    H117946   4.149   2.703   4.167 -0.2247  0.6393  0.8888
 5995TIP3    H217947   4.111   2.617   4.286  3.4967 -0.9367  0.9972
 5996TIP3   OH217948   4.744   3.073   4.534  0.3135  0.0269  0.1934
 5996TIP3    H117949   4.755   3.168   4.528  2.8029 -0.2074  0.5221
 5996TIP3    H217950   4.708   3.058   4.621 -0.3938  0.7002  0.0159
 5997TIP3   OH217951   5.230   3.703   3.562  0.2211  0.1169  0.1824
 5997TIP3    H117952   5.267   3.741   3.641  1.2552 -0.3519 -0.0557
 5997TIP3    H217953   5.307   3.672   3.513 -0.2325  2.3757 -2.0410
 5998TIP3   OH217954   5.514   2.166   2.277 -0.4467 -0.3280 -0.4428
 5998TIP3    H117955   5.586   2.185   2.216 -0.5232 -1.8082 -1.0048
 5998TIP3    H217956   5.435   2.184   2.226 -0.5194 -1.9863 -0.9466
 5999TIP3   OH217957   6.174   3.485   4.630  0.4813 -0.2120 -0.5840
 5999TIP3    H117958   6.084   3.455   4.616  0.2179  0.9443 -1.4061
 5999TIP3    H217959   6.210   3.423   4.694 -1.2131 -0.1074  0.5119
 6000TIP3   OH217960   4.901   0.493   4.612  0.1049  0.2071  0.1874
 6000TIP3    H117961   4.833   0.455   4.667 -1.6434  0.8969 -1.4559
 6000TIP3    H217962   4.914   0.430   4.542  0.0843  0.7908 -0.3409
 6001TIP3   OH217963   4.367   3.416   3.108  0.1533  0.9539  0.3964
 6001TIP3    H117964   4.458   3.443   3.122  0.1448  0.8943  0.5731
 6001TIP3    H217965   4.355   3.417   3.013  0.2466  1.2653  0.3907
 6002TIP3   OH217966   5.689   4.344   4.762  0.0946 -0.5687 -0.0378
 6002TIP3    H117967   5.690   4.331   4.667 -0.6153  0.5108 -0.2060
 6002TIP3    H217968   5.774   4.313   4.792  0.6514 -0.1301 -1.1460
 6003TIP3   OH217969   2.818   1.342   5.028  0.8771 -0.4487 -0.5757
 6003TIP3    H117970   2.747   1.387   5.074  2.2694  1.2094  0.0539
 6003TIP3    H217971   2.813   1.252   5.058  1.3068  0.4510  2.3653
 6004TIP3   OH217972   5.841   3.525   3.917  0.2060  0.3571 -0.1919
 6004TIP3    H117973   5.899   3.450   3.908 -1.0946 -0.5644 -0.9549
 6004TIP3    H217974   5.764   3.491   3.962  0.4128  1.6699  1.2014
 6005TIP3   OH217975   2.719   1.819   3.027 -0.1963 -0.3142 -0.0192
 6005TIP3    H117976   2.720   1.911   3.000  0.6849 -0.4511 -0.4729
 6005TIP3    H217977   2.705   1.771   2.945  0.3829 -0.6310  0.0651
 6006TIP3   OH217978   5.180   5.396   4.146  0.1062  0.6767  0.1148
 6006TIP3    H117979   5.229   5.433   4.073  1.5762 -0.2067  0.6303
 6006TIP3    H217980   5.171   5.303   4.125  0.5812  0.4090  1.0627
 6007TIP3   OH217981   3.880   2.113   4.262  0.3552  0.1513  0.0738
 6007TIP3    H117982   3.911   2.024   4.276  0.7428  0.5271  1.7034
 6007TIP3    H217983   3.956   2.160   4.229 -0.4918 -0.6746 -3.2438
 6008TIP3   OH217984   5.927   3.343   4.751 -0.4848  0.1999 -0.4819
 6008TIP3    H117985   5.963   3.285   4.685  0.4769  0.3992 -0.1397
 6008TIP3    H217986   5.842   3.305   4.773  0.5164 -1.5999  0.4036
 6009TIP3   OH217987   4.713   3.248   1.902 -0.3793  0.2357 -0.8530
 6009TIP3    H117988   4.761   3.260   1.985 -0.3662  0.0173 -0.8277
 6009TIP3    H217989   4.639   3.308   1.908  1.2643  2.4296 -1.9586
 6010TIP3   OH217990   5.358   3.761   3.804 -0.0300 -0.0225  0.6130
 6010TIP3    H117991   5.350   3.672   3.837 -2.7270 -0.3894 -0.8776
 6010TIP3    H217992   5.452   3.775   3.796  0.4973 -4.1977 -2.8191
 6011TIP3   OH217993   4.890   0.699   4.061  0.1262  0.4230 -0.0441
 6011TIP3    H117994   4.953   0.647   4.112  0.7300  1.9408  0.8060
 6011TIP3    H217995   4.838   0.744   4.127  0.6701  2.1250 -0.7492
 6012TIP3   OH217996   4.394   1.154   5.627  0.3114  0.3828  0.1170
 6012TIP3    H117997   4.359   1.128   5.713  2.0626 -0.4974  0.5896
 6012TIP3    H217998   4.317   1.183   5.578 -1.1784 -2.0270  0.9228
 6013TIP3   OH217999   0.678   7.266   4.041  0.0745 -0.0879 -0.4291
 6013TIP3    H118000   0.649   7.297   4.127  1.2576 -1.0993  0.3671
 6013TIP3    H218001   0.689   7.172   4.053  0.8886 -0.1345 -1.5160
 6014TIP3   OH218002   2.356   2.629   3.234 -0.1672  0.2067 -0.0322
 6014TIP3    H118003   2.427   2.621   3.170 -0.5406  0.5767 -0.5010
 6014TIP3    H218004   2.356   2.546   3.281 -0.8394 -0.6461 -1.5023
 6015TIP3   OH218005   1.449   1.687   3.246  0.1560 -0.8175 -0.4255
 6015TIP3    H118006   1.432   1.643   3.163  1.2529  0.2077 -1.2165
 6015TIP3    H218007   1.363   1.713   3.278 -0.2424 -0.9668 -1.3777
 6016TIP3   OH218008   5.175   0.952   4.103  0.0783 -0.0937 -0.4687
 6016TIP3    H118009   5.176   0.911   4.190 -1.9950 -0.0225 -0.3747
 6016TIP3    H218010   5.212   0.885   4.045  1.5214 -0.1220  0.4707
 6017TIP3   OH218011   6.399   0.875   3.484  0.7855  0.3789 -0.0119
 6017TIP3    H118012   6.370   0.817   3.554 -0.6330  2.5283  1.2285
 6017TIP3    H218013   6.489   0.897   3.507  0.5153  0.6172  0.8289
 6018TIP3   OH218014   3.612   4.123   3.087  0.6542 -0.4452 -0.1051
 6018TIP3    H118015   3.639   4.133   2.996 -0.4986  0.9760 -0.3039
 6018TIP3    H218016   3.689   4.145   3.138  0.8658  0.2535 -0.7177
 6019TIP3   OH218017   5.076   2.653   5.499  0.0896 -0.7674  0.1923
 6019TIP3    H118018   5.110   2.740   5.479  0.5812 -0.6616  1.4826
 6019TIP3    H218019   4.984   2.667   5.519  0.0366 -0.6277 -0.1420
 6020TIP3   OH218020   4.686   4.066   5.181 -0.2907  0.2619 -0.0985
 6020TIP3    H118021   4.773   4.031   5.200  0.3920  1.6270 -0.6241
 6020TIP3    H218022   4.626   3.992   5.194  1.1076 -1.0665 -1.1805
 6021TIP3   OH218023   0.852   3.335   4.948 -0.7107  0.7945  0.0936
 6021TIP3    H118024   0.910   3.367   4.879 -0.2225  3.3473  1.6316
 6021TIP3    H218025   0.873   3.242   4.956  1.6635  1.2125 -0.8504
 6022TIP3   OH218026   3.979   3.017   3.651  0.2416 -0.2370 -0.3421
 6022TIP3    H118027   4.043   2.955   3.619  1.6440  1.3648 -0.7277
 6022TIP3    H218028   3.958   2.987   3.740  0.6207 -1.4512 -0.6664
 6023TIP3   OH218029   3.440   1.646   5.060 -0.5154 -0.3639  0.2742
 6023TIP3    H118030   3.481   1.568   5.099 -0.8164 -0.4732  0.3695
 6023TIP3    H218031   3.362   1.661   5.113 -1.3032 -0.9223 -0.7042
 6024TIP3   OH218032   4.171   3.521   5.367 -0.6008 -0.5315  0.5487
 6024TIP3    H118033   4.188   3.591   5.429 -0.3250 -0.0500 -0.0614
 6024TIP3    H218034   4.084   3.541   5.331 -0.5145 -0.4880  0.3608
 6025TIP3   OH218035   7.449   2.912   5.585 -0.5070 -0.0777  0.0409
 6025TIP3    H118036   7.400   2.984   5.624 -1.5313  0.0959 -1.5348
 6025TIP3    H218037   7.428   2.836   5.639 -1.9553  0.1421 -0.1972
 6026TIP3   OH218038   3.189   1.061   4.157  0.0131  0.4234 -0.0499
 6026TIP3    H118039   3.142   0.992   4.111 -0.3842  0.5922  0.1093
 6026TIP3    H218040   3.274   1.022   4.178 -0.1725  0.0189 -0.0506
 6027TIP3   OH218041   5.108   1.455   4.708 -0.3252 -0.5314 -0.2386
 6027TIP3    H118042   5.069   1.507   4.778  0.1994 -0.4185 -0.0328
 6027TIP3    H218043   5.043   1.386   4.690  0.5401 -1.9404  1.9115
 6028TIP3   OH218044   4.314   4.311   3.636 -0.4249  0.0746  0.4413
 6028TIP3    H118045   4.408   4.310   3.618 -0.3692 -0.9033  0.7658
 6028TIP3    H218046   4.274   4.306   3.549 -0.1556 -3.7330  0.4602
 6029TIP3   OH218047   3.997   1.387   3.859  0.0288 -0.0840 -0.8468
 6029TIP3    H118048   4.045   1.447   3.917 -0.5816  0.9772 -1.4197
 6029TIP3    H218049   3.929   1.349   3.914 -0.4129  0.7607 -0.8021
 6030TIP3   OH218050   3.616   2.037   3.310  0.0850  0.5530 -0.3507
 6030TIP3    H118051   3.667   2.036   3.229  1.8352 -0.5373  0.7286
 6030TIP3    H218052   3.536   1.990   3.290  0.9179 -0.5101 -1.1989
 6031TIP3   OH218053   3.753   1.758   5.601 -0.6845 -0.2276 -0.2395
 6031TIP3    H118054   3.788   1.792   5.519 -0.4069  0.1237  0.0270
 6031TIP3    H218055   3.829   1.751   5.659 -0.8185 -0.8151 -0.1247
 6032TIP3   OH218056   4.571   2.215   6.325 -0.3030 -0.1223 -0.1720
 6032TIP3    H118057   4.489   2.230   6.372 -0.7267 -0.0602 -0.9362
 6032TIP3    H218058   4.597   2.126   6.350  0.3238  0.4833  1.4682
 6033TIP3   OH218059   4.364   3.589   3.481 -0.2945  0.3971  0.0122
 6033TIP3    H118060   4.373   3.639   3.562 -0.6062  1.0051 -0.3270
 6033TIP3    H218061   4.418   3.635   3.417  2.7337 -2.0081  0.7119
 6034TIP3   OH218062   4.876   3.554   3.729  0.2805  0.1514 -0.3308
 6034TIP3    H118063   4.877   3.650   3.738  0.1913 -0.1322  3.3756
 6034TIP3    H218064   4.925   3.537   3.648  0.4941  3.2898 -0.9220
 6035TIP3   OH218065   5.547   1.083   6.267 -0.1666  0.8114 -0.4255
 6035TIP3    H118066   5.544   1.158   6.207  1.4834  0.2419 -1.2547
 6035TIP3    H218067   5.524   1.008   6.211 -0.8842  0.5730  0.1870
 6036TIP3   OH218068   5.131   3.145   3.715  0.0306 -0.4530  0.3872
 6036TIP3    H118069   5.182   3.123   3.638 -0.1368  0.6216 -0.0371
 6036TIP3    H218070   5.040   3.143   3.686 -0.0773 -0.7903  0.7411
 6037TIP3   OH218071   7.604   4.469   4.475  0.1015  0.0043  0.4711
 6037TIP3    H118072   7.661   4.472   4.399  0.5609 -0.4690  0.7923
 6037TIP3    H218073   7.644   4.403   4.532 -0.9862 -0.6327  0.5121
 6038TIP3   OH218074   3.874   3.156   2.588 -0.0916 -0.0167 -0.0263
 6038TIP3    H118075   3.842   3.066   2.586 -0.0182 -0.0811  1.3568
 6038TIP3    H218076   3.917   3.165   2.673  0.8920  0.9874 -0.6061
 6039TIP3   OH218077   5.677   3.800   3.391 -0.3131  0.2699  0.4803
 6039TIP3    H118078   5.588   3.771   3.371 -0.7571  1.9553 -0.0425
 6039TIP3    H218079   5.665   3.877   3.447  0.7169  2.4421 -2.1733
 6040TIP3   OH218080   5.487   3.456   4.876  0.0719  0.3590  0.1242
 6040TIP3    H118081   5.472   3.456   4.782  1.1967 -1.1483 -0.0814
 6040TIP3    H218082   5.402   3.433   4.914 -0.4141  1.0922 -0.5014
 6041TIP3   OH218083   3.784   3.516   4.063 -0.7927  0.2623  0.6285
 6041TIP3    H118084   3.810   3.503   4.154  1.0568 -1.2001 -0.0606
 6041TIP3    H218085   3.803   3.608   4.046  0.2498  0.1953  1.3242
 6042TIP3   OH218086   3.598   1.414   3.775  0.5670 -0.1341 -0.0176
 6042TIP3    H118087   3.525   1.463   3.814  0.2482 -0.4524 -0.2168
 6042TIP3    H218088   3.653   1.390   3.849  1.3895  1.6019 -0.0257
 6043TIP3   OH218089   4.306   4.473   3.329  0.6133  0.1756  0.7149
 6043TIP3    H118090   4.380   4.467   3.268 -0.0402  1.7654 -0.2770
 6043TIP3    H218091   4.235   4.426   3.284  0.9141 -1.0714  1.5212
 6044TIP3   OH218092   5.266   0.588   5.092  1.0048  0.2340  0.2288
 6044TIP3    H118093   5.337   0.525   5.079 -1.5769 -2.4970 -1.4222
 6044TIP3    H218094   5.186   0.535   5.091 -1.0769  3.1696  2.2403
 6045TIP3   OH218095   5.175   2.679   3.316 -0.0489 -0.1994  0.3998
 6045TIP3    H118096   5.236   2.636   3.257  0.6049  0.7895  0.3468
 6045TIP3    H218097   5.222   2.686   3.399 -0.9837 -1.6356  1.0758
 6046TIP3   OH218098   6.080   4.437   3.380 -0.1214 -0.7504  0.0728
 6046TIP3    H118099   6.165   4.417   3.419  1.5239  0.8097 -2.5518
 6046TIP3    H218100   6.064   4.366   3.318  1.3575  1.1435 -2.5551
 6047TIP3   OH218101   4.275   2.011   5.498 -0.4928  0.3328 -0.3841
 6047TIP3    H118102   4.315   1.968   5.423 -0.5965 -0.4596  0.0149
 6047TIP3    H218103   4.203   1.953   5.523  0.0805  0.1556  0.8719
 6048TIP3   OH218104   1.080   4.921   1.226  0.3376  0.1389  0.1236
 6048TIP3    H118105   1.082   4.934   1.131  1.2791 -1.8955 -0.1551
 6048TIP3    H218106   1.102   5.007   1.262 -0.2608  0.9914 -1.4813
 6049TIP3   OH218107   6.278   2.650   4.356  0.1901  0.5429 -0.5299
 6049TIP3    H118108   6.346   2.592   4.390 -0.4774 -0.8272 -1.4670
 6049TIP3    H218109   6.319   2.693   4.280  0.5938  1.0799 -0.0087
 6050TIP3   OH218110   6.684   5.443   4.202  0.0071 -0.2437 -0.4398
 6050TIP3    H118111   6.713   5.486   4.121  0.0650  0.6816  0.0676
 6050TIP3    H218112   6.592   5.468   4.211  0.8260  2.2666  1.4258
 6051TIP3   OH218113   6.346   2.168   4.697  0.3908 -0.4138  0.0154
 6051TIP3    H118114   6.253   2.178   4.719 -0.3826  2.1791 -3.9030
 6051TIP3    H218115   6.347   2.104   4.626  1.4760  0.1979 -0.5409
 6052TIP3   OH218116   3.871   0.892   5.736 -0.1049 -0.3086  0.0318
 6052TIP3    H118117   3.779   0.897   5.762  0.0740  3.0513  0.1747
 6052TIP3    H218118   3.909   0.827   5.796 -2.1989 -1.1876  0.4461
 6053TIP3   OH218119   5.018   1.100   3.590  0.1928 -0.0010 -0.1272
 6053TIP3    H118120   5.081   1.170   3.611 -0.5404  0.4701  0.5091
 6053TIP3    H218121   4.961   1.139   3.524  0.0801 -0.1609 -0.1223
 6054TIP3   OH218122   6.450   2.492   4.487 -0.3443  0.0137  0.2104
 6054TIP3    H118123   6.498   2.410   4.496  0.5730  0.4090 -0.8630
 6054TIP3    H218124   6.483   2.547   4.558 -0.0541 -0.1240  0.1833
 6055TIP3   OH218125   4.955   1.835   4.512 -0.3560  0.5509  0.0558
 6055TIP3    H118126   5.036   1.790   4.485 -0.6314 -1.1325  1.8703
 6055TIP3    H218127   4.912   1.859   4.430  1.9951  1.4899 -0.9362
 6056TIP3   OH218128   4.633   2.204   4.866  0.6252 -0.0327  0.5164
 6056TIP3    H118129   4.707   2.229   4.922 -0.5732 -0.7507  2.4851
 6056TIP3    H218130   4.669   2.142   4.803  2.2502  1.6836 -0.2702
 6057TIP3   OH218131   6.770   2.445   3.837 -0.0109  0.3178  0.1763
 6057TIP3    H118132   6.822   2.385   3.890 -0.4189  0.1496  0.3906
 6057TIP3    H218133   6.819   2.527   3.840  0.3949  0.0801  0.1311
 6058TIP3   OH218134   4.812   2.886   5.252  0.2119 -0.3956  0.0480
 6058TIP3    H118135   4.724   2.901   5.216 -0.7467 -1.0043  2.0877
 6058TIP3    H218136   4.808   2.923   5.340  1.8769 -0.8337  0.3143
 6059TIP3   OH218137   4.244   3.175   3.235 -0.4009  0.3637 -0.0323
 6059TIP3    H118138   4.262   3.200   3.325  1.9269  0.8100 -0.5911
 6059TIP3    H218139   4.283   3.245   3.182  1.0343 -1.4436 -1.4444
 6060TIP3   OH218140   4.018   3.003   5.535  0.0059 -0.0131  0.0068
 6060TIP3    H118141   4.031   3.054   5.615  0.4293  0.2317 -0.2176
 6060TIP3    H218142   3.926   2.977   5.538 -0.2312  0.8344  0.0857
 6061TIP3   OH218143   4.136   2.148   5.279 -0.4404  0.2615 -0.0087
 6061TIP3    H118144   4.079   2.197   5.338 -0.5779 -0.0952  0.1562
 6061TIP3    H218145   4.196   2.101   5.338 -0.1144  0.4752 -0.1749
 6062TIP3   OH218146   4.947   2.258   3.353  0.0048 -0.7876 -0.1707
 6062TIP3    H118147   4.920   2.310   3.429  0.9130 -0.4163 -0.1054
 6062TIP3    H218148   4.992   2.182   3.391  2.8459  0.7468 -0.4184
 6063TIP3   OH218149   3.964   3.803   4.280  0.5065 -0.3633 -0.1424
 6063TIP3    H118150   3.958   3.898   4.270  1.6007 -0.3620 -0.9034
 6063TIP3    H218151   3.875   3.775   4.299  0.4105  0.9691  1.4274
 6064TIP3   OH218152   4.945   4.574   6.347  0.4174 -0.1461 -0.1845
 6064TIP3    H118153   4.864   4.534   6.314 -0.2184  1.1558 -0.2468
 6064TIP3    H218154   4.971   4.520   6.421 -0.6590 -0.4109 -0.0014
 6065TIP3   OH218155   5.235   3.476   4.150  0.9060 -0.1546  0.4757
 6065TIP3    H118156   5.170   3.515   4.091  1.8457 -1.2807 -1.3277
 6065TIP3    H218157   5.311   3.461   4.095  1.7895 -1.2975  1.9803
 6066TIP3   OH218158   4.271   4.233   5.300 -0.2855 -0.1993  0.0617
 6066TIP3    H118159   4.221   4.163   5.259 -1.6513  0.9536 -0.2883
 6066TIP3    H218160   4.211   4.270   5.366  0.7426  0.0468  0.8757
 6067TIP3   OH218161   5.916   2.581   4.571 -0.5081 -0.2196  0.1546
 6067TIP3    H118162   5.830   2.568   4.611  0.0818 -1.6794  0.9795
 6067TIP3    H218163   5.916   2.673   4.544 -2.1445 -0.0791  0.5745
 6068TIP3   OH218164   5.938   4.707   4.265 -0.0927  0.4882 -0.0255
 6068TIP3    H118165   5.965   4.640   4.202  0.2612  0.7043 -0.1108
 6068TIP3    H218166   5.857   4.674   4.303 -1.3154  1.1978 -1.9222
 6069TIP3   OH218167   5.511   2.984   3.623  0.2180  0.2003  0.5352
 6069TIP3    H118168   5.525   3.072   3.587  0.3847  0.4893  1.2966
 6069TIP3    H218169   5.516   2.996   3.718  0.2192 -0.6323  0.6427
 6070TIP3   OH218170   4.504   4.489   4.280  0.2969  0.4852  0.1538
 6070TIP3    H118171   4.474   4.463   4.367 -0.0609  1.7705  0.4189
 6070TIP3    H218172   4.549   4.573   4.293  0.1342  0.7520 -0.9072
 6071TIP3   OH218173   7.164   2.689   2.754 -0.6809 -0.1020 -0.5375
 6071TIP3    H118174   7.226   2.762   2.755  0.3181 -0.9317 -0.2897
 6071TIP3    H218175   7.165   2.656   2.844 -1.5779 -0.0533 -0.5077
 6072TIP3   OH218176   4.427   2.024   4.953  1.1651 -0.0927  0.2822
 6072TIP3    H118177   4.490   2.095   4.942  1.5568 -0.5882 -0.7398
 6072TIP3    H218178   4.474   1.958   5.004  1.6142 -0.6070 -0.7665
 6073TIP3   OH218179   6.330   3.173   4.416 -0.0649 -0.2555 -0.3474
 6073TIP3    H118180   6.319   3.171   4.321  0.5242 -0.2637 -0.4165
 6073TIP3    H218181   6.421   3.147   4.431 -0.3904 -1.1011  0.2677
 6074TIP3   OH218182   1.394   1.297   0.528 -0.0807  0.2617 -0.3134
 6074TIP3    H118183   1.385   1.355   0.453 -1.8932 -0.3466 -0.5911
 6074TIP3    H218184   1.386   1.354   0.604 -2.6643  0.3041 -0.5814
 6075TIP3   OH218185   4.766   1.508   3.097 -0.0790  0.3352  0.2711
 6075TIP3    H118186   4.855   1.541   3.093 -0.3167  1.0840  0.9187
 6075TIP3    H218187   4.767   1.429   3.044  0.9730  0.3290  0.2886
 6076TIP3   OH218188   5.134   1.602   3.954  0.2907 -0.0791  0.3481
 6076TIP3    H118189   5.054   1.654   3.957  0.4982  0.4332 -2.0427
 6076TIP3    H218190   5.136   1.565   3.866  3.0327  0.4789  0.1247
 6077TIP3   OH218191   6.824   2.462   5.933 -0.1840 -0.4642 -0.1662
 6077TIP3    H118192   6.749   2.470   5.875  0.3305 -2.3036 -1.1186
 6077TIP3    H218193   6.900   2.466   5.875  0.5803  2.7197  0.9009
 6078TIP3   OH218194   5.313   7.312   0.403 -0.1027 -0.0206  0.1774
 6078TIP3    H118195   5.220   7.301   0.382 -0.0849 -1.8088  0.9310
 6078TIP3    H218196   5.334   7.400   0.372 -1.6783 -0.1468 -1.3656
 6079TIP3   OH218197   4.713   3.339   4.493 -0.0873 -0.2524 -0.0713
 6079TIP3    H118198   4.724   3.369   4.403 -1.1141  0.0744 -0.0989
 6079TIP3    H218199   4.618   3.331   4.504 -0.1695  2.5050  1.8607
 6080TIP3   OH218200   1.085   5.804   0.035 -0.3847  0.2820 -0.3047
 6080TIP3    H118201   1.171   5.791   0.073 -0.7400  0.5176  0.5853
 6080TIP3    H218202   1.074   5.730  -0.026  0.4901  0.3257 -0.5144
 6081TIP3   OH218203   4.536   1.729   3.471 -0.1270  0.6176 -0.5535
 6081TIP3    H118204   4.531   1.640   3.435 -1.0950 -0.5995  2.4546
 6081TIP3    H218205   4.445   1.761   3.468  0.1289  1.3307 -1.0981
 6082TIP3   OH218206   2.796   1.035   5.938 -0.2305 -0.0271 -0.2088
 6082TIP3    H118207   2.831   0.948   5.920 -0.7770 -0.3122  0.0812
 6082TIP3    H218208   2.838   1.092   5.874 -0.3871 -0.6202 -0.8502
 6083TIP3   OH218209   4.182   1.985   4.224  0.6066  0.4113  0.1287
 6083TIP3    H118210   4.229   2.043   4.284 -1.3322  1.5168  0.6065
 6083TIP3    H218211   4.171   1.904   4.273 -0.7757  1.2340  1.2065
 6084TIP3   OH218212   1.008   4.795   4.816 -0.2426 -0.3432  0.3730
 6084TIP3    H118213   0.953   4.856   4.767 -0.6344 -1.0470 -0.0800
 6084TIP3    H218214   1.084   4.781   4.759 -0.6795 -1.1307 -0.0298
 6085TIP3   OH218215   3.576   3.568   2.536 -0.3753  0.4314 -0.5171
 6085TIP3    H118216   3.660   3.593   2.498 -0.5931 -0.1563 -1.4148
 6085TIP3    H218217   3.597   3.494   2.594 -0.4503 -0.5979 -1.7771
 6086TIP3   OH218218   3.252   2.453   4.465  0.4674  0.4812  0.2863
 6086TIP3    H118219   3.276   2.497   4.384 -0.5226  0.1169 -0.2229
 6086TIP3    H218220   3.237   2.362   4.439 -2.6977  0.9285  0.2899
 6087TIP3   OH218221   5.811   2.388   4.205  0.0428  0.1368  0.3979
 6087TIP3    H118222   5.738   2.421   4.257 -0.5467  0.0206 -0.3412
 6087TIP3    H218223   5.888   2.398   4.261 -0.5504  0.2311  1.1900
 6088TIP3   OH218224   6.448   4.297   0.270  0.6116  0.6261  0.0995
 6088TIP3    H118225   6.497   4.342   0.339  0.9020 -1.4713  1.3063
 6088TIP3    H218226   6.408   4.222   0.314 -1.4457  0.7705 -1.4570
 6089TIP3   OH218227   4.506   4.142   3.907  0.2654 -0.0867 -0.0967
 6089TIP3    H118228   4.576   4.207   3.913  0.3178 -0.0915 -0.5996
 6089TIP3    H218229   4.482   4.124   3.998  0.0151  0.8904  0.0397
 6090TIP3   OH218230   0.216   0.997   0.007 -0.0437  0.0509 -0.3743
 6090TIP3    H118231   0.197   1.037   0.092  1.6968  0.1672 -0.0163
 6090TIP3    H218232   0.145   1.028  -0.051 -0.1324  1.5887  0.5349
 6091TIP3   OH218233   7.152   4.423   5.383  0.3749  0.0563 -0.1115
 6091TIP3    H118234   7.188   4.502   5.421  2.3412 -0.8158 -0.1111
 6091TIP3    H218235   7.151   4.360   5.455  0.6904 -0.5140 -0.6037
 6092TIP3   OH218236   6.338   5.144   4.376 -0.8211 -0.2172 -0.6999
 6092TIP3    H118237   6.422   5.121   4.337 -0.3587  0.4838 -0.1451
 6092TIP3    H218238   6.359   5.216   4.436 -1.8357  0.0362 -0.6430
 6093TIP3   OH218239   5.636   2.650   4.920  0.2178  0.2827  0.0942
 6093TIP3    H118240   5.575   2.718   4.950  1.5888  1.2206  0.7941
 6093TIP3    H218241   5.718   2.697   4.905  0.3912 -0.7194 -2.2211
 6094TIP3   OH218242   4.985   4.405   4.714  0.1984 -0.6020  0.0153
 6094TIP3    H118243   4.957   4.315   4.729  0.9108 -0.6426  1.1169
 6094TIP3    H218244   4.921   4.458   4.761  0.9111 -0.6177  1.0073
 6095TIP3   OH218245   3.825   1.895   4.979  0.2391  0.7521  0.2441
 6095TIP3    H118246   3.909   1.905   5.023  0.1552 -0.0767  0.6032
 6095TIP3    H218247   3.815   1.975   4.928  1.4649  0.6573 -0.1632
 6096TIP3   OH218248   4.113   6.211   6.064  0.2606 -0.3259 -0.3505
 6096TIP3    H118249   4.207   6.210   6.084  0.3275  0.3388 -0.6167
 6096TIP3    H218250   4.080   6.128   6.099  1.3230 -1.5184 -2.1181
 6097TIP3   OH218251   3.286   3.529   4.616 -0.1468  0.0720  0.1309
 6097TIP3    H118252   3.376   3.521   4.650 -0.4613 -0.3204  0.8766
 6097TIP3    H218253   3.283   3.466   4.543  2.0389  4.3272 -3.9425
 6098TIP3   OH218254   3.079   2.071   4.850  0.0465 -0.1606 -0.4595
 6098TIP3    H118255   3.098   2.074   4.944 -0.7014  0.4687 -0.3281
 6098TIP3    H218256   3.019   2.144   4.835  0.2054 -0.2230 -1.4387
 6099TIP3   OH218257   4.756   3.874   5.391 -0.3023  0.4438  0.0510
 6099TIP3    H118258   4.783   3.842   5.477 -0.3400 -0.1516 -0.1557
 6099TIP3    H218259   4.687   3.938   5.410 -0.0522  0.5943  0.4798
 6100TIP3   OH218260   3.993   3.000   4.222  0.0342  0.0520 -0.2569
 6100TIP3    H118261   4.004   3.080   4.171  1.5641  0.4149  0.6252
 6100TIP3    H218262   4.079   2.959   4.221  0.0837  0.0398  1.9723
 6101TIP3   OH218263   3.878   3.292   4.964 -0.1193 -0.4572 -0.2233
 6101TIP3    H118264   3.898   3.231   4.892  2.3138  0.5342 -0.4616
 6101TIP3    H218265   3.944   3.272   5.030 -0.4930  0.6467  0.4822
 6102TIP3   OH218266   4.869   0.246   5.452 -0.1283  0.2329  0.3024
 6102TIP3    H118267   4.914   0.278   5.373  1.5584 -0.8500  0.7971
 6102TIP3    H218268   4.791   0.301   5.459  1.5560  2.7839 -0.1236
 6103TIP3   OH218269   3.928   2.341   5.363  0.0901  0.0541  0.4615
 6103TIP3    H118270   3.987   2.413   5.385  2.0974 -1.7999  1.3995
 6103TIP3    H218271   3.881   2.322   5.444 -0.6570  0.5024  0.1351
 6104TIP3   OH218272   4.422   1.180   3.706 -0.2896 -0.2384  0.5977
 6104TIP3    H118273   4.463   1.264   3.684  0.0405  0.0171  2.1403
 6104TIP3    H218274   4.374   1.197   3.787 -1.9931 -0.9998 -0.2478
 6105TIP3   OH218275   3.763   1.455   5.177  0.4837 -0.0432  0.3100
 6105TIP3    H118276   3.688   1.397   5.186  0.8680 -0.7255 -0.8188
 6105TIP3    H218277   3.753   1.493   5.089 -0.3180  2.3806  1.4029
 6106TIP3   OH218278   3.957   1.618   3.618 -0.2406  0.3291 -0.4497
 6106TIP3    H118279   4.014   1.564   3.562 -0.1726  0.6669 -0.7085
 6106TIP3    H218280   3.949   1.568   3.699  0.5079  0.3218 -0.3768
 6107TIP3   OH218281   3.131   2.754   3.180 -0.6593  0.1525 -0.3537
 6107TIP3    H118282   3.125   2.745   3.085 -1.2685  0.3530 -0.3377
 6107TIP3    H218283   3.219   2.787   3.195 -0.8208  0.8631 -0.9120
 6108TIP3   OH218284   4.862   1.220   2.739  0.4122  0.0737 -0.5362
 6108TIP3    H118285   4.887   1.222   2.646 -1.8825  0.6392 -1.1976
 6108TIP3    H218286   4.811   1.301   2.751  0.7977  0.0624  1.2531
 6109TIP3   OH218287   3.808   2.408   3.573 -0.2603 -0.0597 -0.2005
 6109TIP3    H118288   3.898   2.440   3.581 -0.4141  0.2637  0.2602
 6109TIP3    H218289   3.813   2.336   3.510  0.4855 -0.7222  0.6173
 6110TIP3   OH218290   0.740   5.694   4.184 -0.6441  0.3836  0.3272
 6110TIP3    H118291   0.809   5.759   4.196  0.1355 -0.4774  0.5463
 6110TIP3    H218292   0.756   5.658   4.097 -0.9603  0.3489  0.2843
 6111TIP3   OH218293   5.270   1.279   2.849  0.2230  0.1357  0.0644
 6111TIP3    H118294   5.246   1.296   2.758 -0.4455  0.5006  0.3065
 6111TIP3    H218295   5.331   1.350   2.870  0.0251  0.3170  0.0370
 6112TIP3   OH218296   4.183   4.145   2.938  0.4316 -0.2066 -0.1618
 6112TIP3    H118297   4.150   4.228   2.904  0.4250 -0.1686 -0.0635
 6112TIP3    H218298   4.228   4.169   3.019  0.3427 -0.3138 -0.0820
 6113TIP3   OH218299   7.636   2.356   4.410 -0.6182  0.2638 -0.3389
 6113TIP3    H118300   7.685   2.438   4.404 -2.2591  1.2796 -0.2531
 6113TIP3    H218301   7.648   2.314   4.325 -0.2810  0.9087 -0.6079
 6114TIP3   OH218302   3.877   2.639   5.538 -0.1740 -0.3597  0.6483
 6114TIP3    H118303   3.830   2.722   5.529 -1.0914 -1.0475 -1.2640
 6114TIP3    H218304   3.904   2.636   5.630 -0.2847  1.9600  0.7734
 6115TIP3   OH218305   4.837   4.333   3.386 -0.2397 -0.1398 -0.1484
 6115TIP3    H118306   4.773   4.261   3.388 -1.1751  0.6825  1.2341
 6115TIP3    H218307   4.875   4.332   3.474 -0.7536  1.4553  0.1050
 6116TIP3   OH218308   3.053   6.641   5.238  0.3183 -0.0366 -0.4858
 6116TIP3    H118309   2.964   6.621   5.268  0.7411 -1.2956 -0.0238
 6116TIP3    H218310   3.102   6.560   5.253  1.5733  0.6815 -0.6301
 6117TIP3   OH218311   5.134   3.132   4.006  0.2805 -0.0325  0.1428
 6117TIP3    H118312   5.067   3.196   4.027  1.7474  1.1732  1.2259
 6117TIP3    H218313   5.120   3.112   3.913 -0.8608  1.0247  0.0808
 6118TIP3   OH218314   6.139   0.427   4.475  0.2078 -0.3470  0.2526
 6118TIP3    H118315   6.092   0.361   4.525 -2.3490  0.8009 -0.5894
 6118TIP3    H218316   6.139   0.396   4.385 -0.5263  0.5026 -0.0542
 6119TIP3   OH218317   6.185   2.941   4.440 -0.3900 -0.0007 -0.4848
 6119TIP3    H118318   6.221   2.858   4.408  0.3296  0.0501  0.1934
 6119TIP3    H218319   6.250   3.006   4.415  0.1056  0.0631  0.9340
 6120TIP3   OH218320   7.160   0.849   4.327 -0.1087  0.4678 -0.4918
 6120TIP3    H118321   7.123   0.777   4.379 -2.2179  0.6512 -1.6737
 6120TIP3    H218322   7.248   0.861   4.362  0.8306 -3.6405 -1.2199
 6121TIP3   OH218323   0.059   3.277   5.192 -0.0565 -0.2240  0.1971
 6121TIP3    H118324   0.094   3.222   5.262  1.0195  0.1301 -0.0545
 6121TIP3    H218325   0.093   3.364   5.211  0.2333 -0.1263 -0.7681
 6122TIP3   OH218326   4.865   3.553   2.541  0.7493 -0.3001 -0.0956
 6122TIP3    H118327   4.889   3.506   2.620  2.4616 -1.4296 -1.2460
 6122TIP3    H218328   4.943   3.549   2.486 -1.4598 -2.5832 -3.2702
 6123TIP3   OH218329   4.776   2.515   5.578  0.4229  0.0701 -0.4301
 6123TIP3    H118330   4.740   2.604   5.569 -0.7019 -0.1743  1.4877
 6123TIP3    H218331   4.779   2.482   5.488 -1.9738  0.9492 -0.8639
 6124TIP3   OH218332   2.718   2.386   3.392  0.0760  0.1153 -0.0960
 6124TIP3    H118333   2.805   2.366   3.357 -0.1460 -1.1544  0.0501
 6124TIP3    H218334   2.708   2.327   3.467 -1.8644 -1.4889 -1.5612
 6125TIP3   OH218335   7.761   3.184   4.707  0.2688 -0.0984 -0.1602
 6125TIP3    H118336   7.775   3.225   4.792  0.2209  0.4466 -0.4136
 6125TIP3    H218337   7.767   3.090   4.725  0.3896  0.0151  0.4194
 6126TIP3   OH218338   1.619   3.951   5.183  0.0505  0.0327 -0.0474
 6126TIP3    H118339   1.653   3.975   5.097 -0.7607  1.3784 -0.0030
 6126TIP3    H218340   1.694   3.914   5.229  0.2258 -1.7498 -1.7126
 6127TIP3   OH218341   6.269   2.965   2.505 -0.0022 -0.4328  0.7435
 6127TIP3    H118342   6.252   3.035   2.442  0.2309  0.7827  2.0035
 6127TIP3    H218343   6.204   2.898   2.484 -1.5253  0.9854  0.7295
 6128TIP3   OH218344   0.033   1.223   4.371 -0.1586 -0.3159 -0.0204
 6128TIP3    H118345   0.080   1.209   4.289 -3.6142 -2.0178 -1.8183
 6128TIP3    H218346  -0.008   1.309   4.361 -1.3622 -0.9402 -0.4909
 6129TIP3   OH218347   0.700   2.479   5.606  0.3854 -0.6489  0.0554
 6129TIP3    H118348   0.640   2.490   5.532 -0.0892 -1.8604  0.2500
 6129TIP3    H218349   0.672   2.545   5.670 -0.6932 -1.1622  0.1132
 6130TIP3   OH218350   7.021   2.617   2.130  0.1496 -0.4056  0.3421
 6130TIP3    H118351   7.069   2.543   2.094  0.4543 -0.3160  0.5644
 6130TIP3    H218352   7.058   2.630   2.217 -0.4781 -0.5194  0.6234
 6131TIP3   OH218353   5.006   5.244   5.659  0.3410 -0.1619  0.0053
 6131TIP3    H118354   4.919   5.241   5.619 -1.5457  1.1522  3.7889
 6131TIP3    H218355   5.025   5.337   5.668  1.3080 -0.4358  0.8912
 6132TIP3   OH218356   0.101   1.412   2.796  0.2957  0.6056 -0.9768
 6132TIP3    H118357   0.060   1.493   2.825 -1.9427 -0.3974 -1.1832
 6132TIP3    H218358   0.172   1.396   2.858 -1.0339  1.2598  0.7323
 6133TIP3   OH218359   7.686   3.544   4.922  0.1977 -0.2436  0.1221
 6133TIP3    H118360   7.758   3.482   4.931 -0.3307 -0.9297 -0.3872
 6133TIP3    H218361   7.645   3.546   5.008  0.5587 -0.1586  0.2974
 6134TIP3   OH218362   6.639   2.184   3.394  0.4536 -0.5099  0.5053
 6134TIP3    H118363   6.602   2.107   3.351 -0.1046  0.6802 -1.2240
 6134TIP3    H218364   6.568   2.215   3.452 -0.6468  0.6955 -1.4225
 6135TIP3   OH218365   5.880   1.217   5.609 -0.0572  0.1299 -0.1520
 6135TIP3    H118366   5.901   1.294   5.557  1.3498  0.5336  1.0063
 6135TIP3    H218367   5.964   1.177   5.629 -0.7494 -1.5902 -0.5178
 6136TIP3   OH218368   6.135   3.238   2.508  0.7919 -0.1916 -0.7238
 6136TIP3    H118369   6.081   3.223   2.585  0.1763 -1.3421 -1.3756
 6136TIP3    H218370   6.225   3.243   2.543  0.4481  0.0144  0.1425
 6137TIP3   OH218371   0.335   2.776   3.832  0.0977 -0.5540 -0.1512
 6137TIP3    H118372   0.316   2.834   3.759  4.1616  0.9913 -0.1215
 6137TIP3    H218373   0.383   2.703   3.792  1.3650 -0.2487  0.7844
 6138TIP3   OH218374   6.540   1.033   4.552 -0.2413 -0.1536  0.1826
 6138TIP3    H118375   6.596   1.110   4.568 -1.0806  0.3153  0.8687
 6138TIP3    H218376   6.453   1.070   4.535 -0.4377 -0.9109 -0.4783
 6139TIP3   OH218377   4.831   2.941   5.830  0.2113  0.1048  0.5482
 6139TIP3    H118378   4.765   2.952   5.898 -0.4009  1.0240 -0.1844
 6139TIP3    H218379   4.861   3.030   5.812  0.4299 -0.1402 -0.3288
 6140TIP3   OH218380   4.554   1.693   2.854  0.0684 -0.0573  0.7288
 6140TIP3    H118381   4.516   1.770   2.814  0.3180 -0.2143  0.1890
 6140TIP3    H218382   4.507   1.683   2.937  0.6946  1.2206  1.2448
 6141TIP3   OH218383   7.630   4.231   3.572 -0.2045 -0.2972 -0.2536
 6141TIP3    H118384   7.705   4.171   3.574  1.7486  2.0664  0.9290
 6141TIP3    H218385   7.637   4.276   3.488  2.4672  3.1381  1.6617
 6142TIP3   OH218386   6.303   2.247   4.361  0.5865  0.2776  0.5078
 6142TIP3    H118387   6.353   2.303   4.302  0.8552  0.2202  0.6786
 6142TIP3    H218388   6.239   2.305   4.402  1.2084  0.5656  1.0764
 6143TIP3   OH218389   0.134   1.946   4.160  0.1281 -0.7014 -0.7394
 6143TIP3    H118390   0.126   2.000   4.081  0.0888  0.6114  0.1361
 6143TIP3    H218391   0.188   1.872   4.134  1.0013  0.2695 -1.7402
 6144TIP3   OH218392   3.287   3.386   1.743 -0.3676 -0.3677 -0.1108
 6144TIP3    H118393   3.256   3.302   1.710  2.3690 -1.7945  0.8138
 6144TIP3    H218394   3.236   3.401   1.823 -2.1630 -0.2185 -1.2656
 6145TIP3   OH218395   5.929   2.836   4.501  0.0402  0.0226  0.1732
 6145TIP3    H118396   5.864   2.893   4.460  0.6276 -1.5735 -3.1906
 6145TIP3    H218397   6.013   2.867   4.467  0.5649 -1.2197  0.2896
 6146TIP3   OH218398   6.896   6.161   4.393 -0.3644  0.2621 -0.3706
 6146TIP3    H118399   6.935   6.074   4.400  0.4783  0.7830  1.8550
 6146TIP3    H218400   6.970   6.222   4.395 -1.1556  1.2248  2.9686
 6147TIP3   OH218401   5.912   3.188   3.141  0.7913 -0.0891  0.6651
 6147TIP3    H118402   5.894   3.248   3.213  1.8609 -0.2497  1.0856
 6147TIP3    H218403   5.920   3.244   3.064 -0.6295  0.0572  0.6152
 6148TIP3   OH218404   6.917   3.101   4.458  0.1780  0.5540  0.1311
 6148TIP3    H118405   6.935   3.100   4.364  1.5643  0.6780  0.3754
 6148TIP3    H218406   6.944   3.189   4.486 -0.1150  0.4791  0.6589
 6149TIP3   OH218407   7.401   1.824   5.541  0.0519  0.4143 -0.3285
 6149TIP3    H118408   7.431   1.743   5.498 -0.9228  0.8350 -1.8384
 6149TIP3    H218409   7.410   1.806   5.634  4.4064  0.2723 -0.6520
 6150TIP3   OH218410   0.392   4.729   5.937  0.2670  0.1667  0.0065
 6150TIP3    H118411   0.332   4.654   5.931 -0.6372  0.8442  0.4358
 6150TIP3    H218412   0.477   4.690   5.957  0.0747 -0.8401 -1.1293
 6151TIP3   OH218413   1.272   3.494   5.072 -0.1529  0.6447 -0.7836
 6151TIP3    H118414   1.203   3.560   5.082 -2.0138 -1.4567  0.6993
 6151TIP3    H218415   1.339   3.520   5.135 -0.5911  1.4645 -0.6495
 6152TIP3   OH218416   6.751   3.814   1.980 -0.5823  0.5080 -0.4301
 6152TIP3    H118417   6.832   3.768   1.955 -1.0584 -0.9637  0.6757
 6152TIP3    H218418   6.782   3.891   2.028  0.1692 -0.3351  0.4678
 6153TIP3   OH218419   5.672   4.163   5.409  0.2791 -0.1812 -0.2346
 6153TIP3    H118420   5.766   4.166   5.394  0.4919 -0.8653  0.9482
 6153TIP3    H218421   5.635   4.144   5.322  1.1390  1.1905 -0.9150
 6154TIP3   OH218422   0.531   3.277   4.283 -0.3783 -0.1319  0.1096
 6154TIP3    H118423   0.570   3.254   4.199  0.2718  0.1291  0.3320
 6154TIP3    H218424   0.575   3.220   4.347 -1.1029 -0.5564  0.2250
 6155TIP3   OH218425   7.505   3.269   5.290 -0.4122 -0.3763  0.2470
 6155TIP3    H118426   7.553   3.239   5.367  0.0757  0.7324  0.3763
 6155TIP3    H218427   7.515   3.198   5.226  0.4778 -0.6185  0.6530
 6156TIP3   OH218428   5.624   4.313   3.153 -0.0961 -0.7633 -0.2017
 6156TIP3    H118429   5.637   4.222   3.123  2.1900 -0.2818 -0.7340
 6156TIP3    H218430   5.600   4.361   3.074 -1.0807 -0.8348  0.0411
 6157TIP3   OH218431   6.744   3.804   4.996 -0.0868  0.1806  0.0117
 6157TIP3    H118432   6.798   3.771   5.068  1.5922  1.4768 -0.5994
 6157TIP3    H218433   6.795   3.782   4.917 -0.8081  0.8077 -0.6304
 6158TIP3   OH218434   0.540   2.360   4.008 -0.1527 -0.0105  0.6904
 6158TIP3    H118435   0.473   2.423   3.983  0.3366 -0.3493 -1.6306
 6158TIP3    H218436   0.495   2.276   4.012 -0.2752  0.0765  1.2071
 6159TIP3   OH218437   7.062   4.522   4.975  0.0792 -0.5944 -0.1710
 6159TIP3    H118438   7.023   4.510   5.062  0.1717  1.2483  0.1293
 6159TIP3    H218439   7.030   4.447   4.924  0.2357 -1.8437  1.5103
 6160TIP3   OH218440   0.245   2.806   3.104  0.1917  0.3792  0.1463
 6160TIP3    H118441   0.231   2.897   3.128 -0.3706  0.0270  1.1909
 6160TIP3    H218442   0.278   2.765   3.184  0.6606 -0.2844 -0.3788
 6161TIP3   OH218443   5.583   3.836   3.102  0.1949 -0.1713  0.1067
 6161TIP3    H118444   5.527   3.860   3.176 -1.7125 -2.4863 -0.5327
 6161TIP3    H218445   5.577   3.911   3.042  0.0119  0.7826  1.3081
 6162TIP3   OH218446   7.386   3.119   2.479 -0.5944  0.3831  0.9475
 6162TIP3    H118447   7.462   3.076   2.517 -0.1203  0.3176 -0.0628
 6162TIP3    H218448   7.390   3.209   2.512 -0.4841  0.1840  1.4754
 6163TIP3   OH218449   4.576   4.755   4.293 -0.3890 -0.1609 -0.3035
 6163TIP3    H118450   4.651   4.779   4.239  0.5861  1.4173  1.6838
 6163TIP3    H218451   4.511   4.823   4.277  0.2094  0.7669  1.0485
 6164TIP3   OH218452   4.354   3.215   5.243  0.5491 -0.2007  0.4040
 6164TIP3    H118453   4.342   3.127   5.278 -1.0020  0.2555  1.0859
 6164TIP3    H218454   4.338   3.273   5.317  1.6020  0.6682 -0.0277
 6165TIP3   OH218455   7.355   6.901   3.928 -0.3520 -0.2210 -0.4250
 6165TIP3    H118456   7.346   6.841   3.854 -1.9718  1.2946 -1.5001
 6165TIP3    H218457   7.282   6.962   3.919  0.3305  0.9531  1.5391
 6166TIP3   OH218458   2.487   6.554   0.279 -0.2098  0.1528  0.3887
 6166TIP3    H118459   2.401   6.590   0.299 -0.4146 -0.8841  1.3692
 6166TIP3    H218460   2.535   6.558   0.362 -0.0610 -1.3504  0.3831
 6167TIP3   OH218461   7.819   2.629   1.173  0.5535  0.7614  0.0447
 6167TIP3    H118462   7.798   2.668   1.088  0.6433  1.9209  0.5388
 6167TIP3    H218463   7.763   2.677   1.235 -0.8950 -1.3431  0.4113
 6168TIP3   OH218464   5.368   4.264   3.015  0.4280 -0.5618  0.7843
 6168TIP3    H118465   5.343   4.305   2.932 -0.0549 -0.1219  1.1485
 6168TIP3    H218466   5.304   4.296   3.078  0.7005 -1.0237  1.2969
 6169TIP3   OH218467   5.468   5.455   2.448 -0.5885 -0.6696 -0.1276
 6169TIP3    H118468   5.495   5.409   2.528 -1.3778 -1.1325 -0.1177
 6169TIP3    H218469   5.541   5.443   2.387  0.5869  0.8102  0.9597
 6170TIP3   OH218470   6.929   3.515   5.008  0.2610 -0.4479 -0.0718
 6170TIP3    H118471   6.951   3.582   5.073  1.4002 -0.4464 -0.4641
 6170TIP3    H218472   6.915   3.564   4.927 -2.6291 -0.2789  0.4665
 6171TIP3   OH218473   6.068   1.418   4.524 -0.3830  0.0183 -0.2634
 6171TIP3    H118474   6.137   1.427   4.458  0.3381  0.8457  0.5805
 6171TIP3    H218475   5.992   1.385   4.475  1.1251 -2.7250 -0.8680
 6172TIP3   OH218476   5.782   3.758   5.737  0.4230  0.4954  0.1647
 6172TIP3    H118477   5.805   3.777   5.646 -0.1411  0.3735 -0.0013
 6172TIP3    H218478   5.781   3.844   5.780 -0.3717  0.6620 -0.1841
 6173TIP3   OH218479   0.472   3.066   4.706 -0.2925 -0.3433  0.7210
 6173TIP3    H118480   0.412   3.111   4.646  0.9361 -0.4034 -0.5838
 6173TIP3    H218481   0.414   3.022   4.768 -1.5637  1.1856  0.6750
 6174TIP3   OH218482   0.071   3.760   4.910 -0.2478  0.7049 -0.2858
 6174TIP3    H118483   0.001   3.695   4.917 -0.6287  1.0934 -0.4999
 6174TIP3    H218484   0.148   3.715   4.945 -0.6213  0.3056  0.0338
 6175TIP3   OH218485   7.480   2.500   3.368  0.1279 -0.4294  0.0144
 6175TIP3    H118486   7.391   2.499   3.401  0.0068  0.0247 -0.2827
 6175TIP3    H218487   7.471   2.524   3.276  0.7474  2.5144  0.6710
 6176TIP3   OH218488   6.984   4.468   3.476 -0.0701 -0.4558  0.2200
 6176TIP3    H118489   6.993   4.412   3.553 -2.1075 -1.2723 -0.1059
 6176TIP3    H218490   6.993   4.557   3.509 -1.1095 -0.7917  1.4417
 6177TIP3   OH218491   6.130   1.794   3.533  0.0269  0.1678  0.1563
 6177TIP3    H118492   6.209   1.814   3.583  0.8941 -0.2673 -1.0277
 6177TIP3    H218493   6.079   1.875   3.535 -0.0420  0.1138  1.8767
 6178TIP3   OH218494   0.599   3.155   5.439  0.0783  0.8842 -0.5477
 6178TIP3    H118495   0.634   3.083   5.387  0.3977  0.2909  0.4769
 6178TIP3    H218496   0.673   3.183   5.493 -0.3363  1.2787 -0.1803
 6179TIP3   OH218497   0.477   3.525   4.459 -0.4395  0.0740  0.2008
 6179TIP3    H118498   0.440   3.612   4.447 -1.1456 -0.4134 -1.2869
 6179TIP3    H218499   0.455   3.478   4.378 -0.3806 -1.5861  1.1183
 6180TIP3   OH218500   6.818   1.897   4.511  0.0010  0.1282 -0.0912
 6180TIP3    H118501   6.827   1.992   4.518 -3.2321  0.3966  1.2789
 6180TIP3    H218502   6.763   1.883   4.434 -1.3834 -0.4608  0.9720
 6181TIP3   OH218503   7.193   1.544   5.237 -0.2889  0.0240  0.2405
 6181TIP3    H118504   7.119   1.508   5.285  0.3390  0.1661  1.3311
 6181TIP3    H218505   7.219   1.474   5.177 -0.6085 -0.4231  0.6232
 6182TIP3   OH218506   5.793   2.200   3.481  0.1602 -0.2232 -0.0769
 6182TIP3    H118507   5.779   2.295   3.487  0.6112 -0.1936  0.5055
 6182TIP3    H218508   5.729   2.162   3.541 -0.1846 -0.3099 -0.4889
 6183TIP3   OH218509   7.734   4.789   2.665 -0.0213 -0.1572 -0.2658
 6183TIP3    H118510   7.698   4.778   2.577  1.5531 -0.2308 -0.9138
 6183TIP3    H218511   7.817   4.742   2.663 -0.0712 -0.3450  1.3339
 6184TIP3   OH218512   4.905   3.427   2.820 -0.6021 -0.0145  0.3564
 6184TIP3    H118513   4.981   3.378   2.853 -0.2623  0.1333 -0.1976
 6184TIP3    H218514   4.897   3.501   2.880 -1.0050 -0.6425  1.0892
 6185TIP3   OH218515   6.725   3.542   2.930 -0.1596 -0.2046  0.4956
 6185TIP3    H118516   6.675   3.577   3.004 -0.6758  1.0891 -0.4507
 6185TIP3    H218517   6.780   3.474   2.969 -0.2273  0.6328  2.1232
 6186TIP3   OH218518   5.110   3.996   2.272  0.3403 -0.4240  0.5901
 6186TIP3    H118519   5.112   3.935   2.199  2.0505 -0.3776  0.5889
 6186TIP3    H218520   5.184   3.972   2.328 -0.8829 -0.4077  2.2857
 6187TIP3   OH218521   6.668   2.985   5.527 -0.1689  0.4634 -0.2446
 6187TIP3    H118522   6.739   2.941   5.573  0.5218  2.7570  0.9837
 6187TIP3    H218523   6.698   3.076   5.519 -3.1097  1.5765  0.6976
 6188TIP3   OH218524   4.366   2.821   2.693  0.0804  0.6442 -0.0859
 6188TIP3    H118525   4.365   2.906   2.737  0.5999  0.9044 -0.5776
 6188TIP3    H218526   4.280   2.814   2.653 -0.1271  0.7382  0.3337
 6189TIP3   OH218527   6.759   3.588   3.634  0.1558 -0.2496 -0.2832
 6189TIP3    H118528   6.695   3.632   3.579 -0.1402  0.4524  0.6139
 6189TIP3    H218529   6.781   3.508   3.586 -1.1953 -0.3734 -0.7056
 6190TIP3   OH218530   6.183   1.324   2.558 -0.2132  0.5061 -0.5379
 6190TIP3    H118531   6.229   1.408   2.555  1.1319 -0.1961 -0.0531
 6190TIP3    H218532   6.114   1.336   2.623  1.5473  0.4640  1.3770
 6191TIP3   OH218533   5.874   1.560   3.652  0.3057 -0.4458  0.1836
 6191TIP3    H118534   5.934   1.605   3.711  0.2713  0.8675 -0.7475
 6191TIP3    H218535   5.797   1.616   3.649 -0.1977 -1.1415 -0.1354
 6192TIP3   OH218536   6.735   2.593   2.240 -0.3430 -0.4863  0.2152
 6192TIP3    H118537   6.667   2.530   2.219 -0.1509  0.0858 -2.2870
 6192TIP3    H218538   6.816   2.553   2.207 -0.0912  0.6406 -0.5592
 6193TIP3   OH218539   7.509   4.700   4.594 -0.3389  0.0392 -0.1745
 6193TIP3    H118540   7.543   4.619   4.557 -0.4000  0.2559 -0.7140
 6193TIP3    H218541   7.521   4.765   4.524 -1.4576  0.2160 -0.2091
 6194TIP3   OH218542   0.209   3.994   4.497  0.4833 -0.1160 -0.1290
 6194TIP3    H118543   0.285   3.979   4.441  0.0967 -1.9313 -0.1830
 6194TIP3    H218544   0.246   4.005   4.585  0.8928  0.1996 -0.3382
 6195TIP3   OH218545   7.222   3.981   2.838 -0.0542  0.1595 -0.3047
 6195TIP3    H118546   7.136   4.016   2.858 -0.0127  0.2628 -0.3065
 6195TIP3    H218547   7.281   4.025   2.900 -0.1291 -0.5503  0.2732
 6196TIP3   OH218548   6.380   3.496   4.203  0.5656 -0.7704 -0.0172
 6196TIP3    H118549   6.340   3.409   4.196  0.2364 -0.6112 -0.1489
 6196TIP3    H218550   6.473   3.481   4.188  0.6317 -1.2187  0.8167
 6197TIP3   OH218551   6.932   3.182   4.191  0.3214 -0.1542 -0.0871
 6197TIP3    H118552   6.986   3.257   4.167 -0.9568 -0.0405 -2.8343
 6197TIP3    H218553   6.929   3.128   4.112 -0.3850 -2.1234  1.2395
 6198TIP3   OH218554   1.458   4.032   3.122  0.5853 -0.6258  0.6291
 6198TIP3    H118555   1.516   4.096   3.083 -0.4879  1.3925  2.2431
 6198TIP3    H218556   1.396   4.010   3.052  0.6997  0.4170  0.1966
 6199TIP3   OH218557   6.519   4.336   5.086 -0.2500  0.0778  0.3080
 6199TIP3    H118558   6.547   4.245   5.101 -1.3504 -0.2988  0.1159
 6199TIP3    H218559   6.574   4.388   5.144 -0.3157 -0.8118  1.1770
 6200TIP3   OH218560   7.314   3.214   5.012 -0.0387  0.4662 -0.2583
 6200TIP3    H118561   7.374   3.281   4.979  0.6478 -0.6215 -1.2834
 6200TIP3    H218562   7.371   3.140   5.033 -0.9046 -0.1703 -0.1302
 6201TIP3   OH218563   0.158   2.705   2.872 -0.5773  0.8483 -0.5269
 6201TIP3    H118564   0.206   2.712   2.955 -0.4344  0.5036 -0.5782
 6201TIP3    H218565   0.080   2.654   2.894 -1.8181  2.9153 -0.0657
 6202TIP3   OH218566   6.616   2.613   3.514  0.1558 -0.2856 -0.0343
 6202TIP3    H118567   6.528   2.578   3.499 -0.8969  2.1695  0.1669
 6202TIP3    H218568   6.664   2.593   3.434 -0.9803 -0.4676 -0.6834
 6203TIP3   OH218569   6.021   6.879   0.424  0.6520 -0.4360 -0.5889
 6203TIP3    H118570   5.972   6.840   0.352  1.5414  0.1670 -1.5239
 6203TIP3    H218571   6.112   6.856   0.406  0.8266 -0.7099  0.6118
 6204TIP3   OH218572   0.355   1.767   4.077 -0.3934 -0.1604 -0.2574
 6204TIP3    H118573   0.292   1.698   4.057 -2.2946  1.1002  1.2076
 6204TIP3    H218574   0.419   1.725   4.135 -0.1258 -1.3287 -1.3796
 6205TIP3   OH218575   0.521   3.797   5.545 -0.7861 -0.0245  0.5776
 6205TIP3    H118576   0.601   3.848   5.560 -0.2143 -1.2076  1.6417
 6205TIP3    H218577   0.536   3.753   5.462 -0.6827  0.4263  0.3584
 6206TIP3   OH218578   6.044   4.051   1.587 -0.0158  0.6268 -0.0718
 6206TIP3    H118579   6.125   4.058   1.536  0.8527 -3.1181  0.6556
 6206TIP3    H218580   5.977   4.026   1.523 -0.3346  2.3174 -0.4259
 6207TIP3   OH218581   6.904   3.124   6.207 -0.4668  0.1786 -0.0393
 6207TIP3    H118582   6.821   3.082   6.227  0.0497 -1.0809 -0.5013
 6207TIP3    H218583   6.885   3.218   6.211 -1.6815 -0.0935  0.7637
 6208TIP3   OH218584   6.930   3.836   2.321 -0.4607  0.1206  0.3242
 6208TIP3    H118585   6.855   3.871   2.273 -0.0580  0.6943  0.1081
 6208TIP3    H218586   6.891   3.782   2.390 -1.0363 -1.1102 -0.9457
 6209TIP3   OH218587   1.958   1.237   3.400 -0.4785 -0.2691 -0.3054
 6209TIP3    H118588   2.029   1.284   3.445 -0.8742  0.8034 -0.7925
 6209TIP3    H218589   1.975   1.252   3.307 -1.0756 -0.4276 -0.4396
 6210TIP3   OH218590   6.637   2.709   5.192  0.2107  0.2342  0.4200
 6210TIP3    H118591   6.703   2.766   5.152  1.6983  0.1318  2.6399
 6210TIP3    H218592   6.587   2.767   5.250 -0.2167 -0.1270  0.4188
 6211TIP3   OH218593   5.433   3.214   5.145 -0.2486  0.2623 -1.2548
 6211TIP3    H118594   5.368   3.150   5.116  0.5650 -0.1567 -2.2092
 6211TIP3    H218595   5.391   3.299   5.132 -1.9963 -0.1037  1.6734
 6212TIP3   OH218596   5.155   1.938   5.025 -0.4509 -0.2656  0.0501
 6212TIP3    H118597   5.224   1.997   4.993  0.5973 -2.0536 -1.0707
 6212TIP3    H218598   5.079   1.960   4.972 -0.5067  1.1012  0.6741
 6213TIP3   OH218599   4.894   4.173   5.610 -0.2951  0.1278 -0.1042
 6213TIP3    H118600   4.901   4.254   5.660  0.2298  0.1339 -0.1843
 6213TIP3    H218601   4.837   4.117   5.663 -1.4933  0.9104 -0.5287
 6214TIP3   OH218602   5.193   4.218   3.918 -0.1039 -0.6802 -0.2431
 6214TIP3    H118603   5.206   4.123   3.916  0.1332 -0.6288 -2.7471
 6214TIP3    H218604   5.282   4.253   3.912 -0.2512 -0.2777 -0.0501
 6215TIP3   OH218605   7.266   3.965   4.234 -0.4881  0.2782 -0.2942
 6215TIP3    H118606   7.250   3.996   4.323 -0.6975  0.8569 -0.5361
 6215TIP3    H218607   7.293   3.874   4.246 -0.7470  0.2798  0.3461
 6216TIP3   OH218608   0.328   4.057   4.153  0.5520 -0.0417 -0.3384
 6216TIP3    H118609   0.239   4.041   4.122  0.8293  0.2296 -1.2800
 6216TIP3    H218610   0.322   4.140   4.201  0.6674  0.9171 -1.9607
 6217TIP3   OH218611   6.362   3.391   2.924  0.0473 -0.2253 -0.2604
 6217TIP3    H118612   6.439   3.362   2.874 -0.1880  0.6169 -1.1302
 6217TIP3    H218613   6.360   3.334   3.000  0.1646 -1.8402 -1.4371
 6218TIP3   OH218614   6.877   2.708   1.916  0.5595 -0.4351 -0.6811
 6218TIP3    H118615   6.919   2.793   1.903 -0.4814 -0.0616 -1.6517
 6218TIP3    H218616   6.903   2.682   2.005  0.6359  1.0356 -0.2582
 6219TIP3   OH218617   5.034   1.294   4.381 -0.1200 -0.6678 -0.4301
 6219TIP3    H118618   4.963   1.231   4.393 -0.6294 -0.5517 -2.5175
 6219TIP3    H218619   5.024   1.324   4.290  3.5662 -1.8442 -1.2928
 6220TIP3   OH218620   5.263   2.342   4.521  0.0743  0.7836  0.2356
 6220TIP3    H118621   5.187   2.349   4.578  0.0478 -0.5734  0.3950
 6220TIP3    H218622   5.321   2.280   4.566 -0.0460 -0.4757 -1.2803
 6221TIP3   OH218623   5.692   3.841   4.380 -0.1501 -0.0246  0.0893
 6221TIP3    H118624   5.786   3.850   4.366 -0.0912  0.8520  0.9998
 6221TIP3    H218625   5.679   3.860   4.473 -1.0278 -1.8183  0.3523
 6222TIP3   OH218626   7.653   3.261   4.039 -0.2224  0.4380  0.3283
 6222TIP3    H118627   7.579   3.227   4.090 -2.1901  0.7107 -2.2433
 6222TIP3    H218628   7.635   3.354   4.030  0.3649  0.4754 -0.4671
 6223TIP3   OH218629   4.973   4.649   2.244 -0.3837 -0.2355 -0.0592
 6223TIP3    H118630   5.067   4.637   2.254  0.1446  3.3504 -0.1271
 6223TIP3    H218631   4.957   4.640   2.150  0.0249 -0.0787 -0.1438
 6224TIP3   OH218632   5.408   1.838   3.699 -0.2101 -0.4544  0.5481
 6224TIP3    H118633   5.378   1.923   3.666  3.0336 -0.1446 -1.8479
 6224TIP3    H218634   5.377   1.836   3.790 -2.5008  2.1644 -0.0887
 6225TIP3   OH218635   7.583   1.619   4.940 -0.3403 -0.0878 -0.2637
 6225TIP3    H118636   7.513   1.554   4.949  0.0367 -0.3889  0.5587
 6225TIP3    H218637   7.537   1.702   4.929 -0.8254 -0.4187 -0.7463
 6226TIP3   OH218638   7.513   2.793   5.341  0.1206 -0.5019  0.3290
 6226TIP3    H118639   7.453   2.718   5.343 -1.3347  0.6719  1.5834
 6226TIP3    H218640   7.481   2.851   5.409  1.0716  1.3994 -0.8062
 6227TIP3   OH218641   0.160   2.903   3.616 -0.1722  0.2896  0.3887
 6227TIP3    H118642   0.163   2.980   3.672  1.1666  0.7617 -0.3029
 6227TIP3    H218643   0.170   2.938   3.527 -3.5788 -0.3164 -0.2925
 6228TIP3   OH218644   3.842   0.974   3.087  0.2086 -0.1680  0.0852
 6228TIP3    H118645   3.820   0.963   3.179 -0.3701 -0.2703 -0.0684
 6228TIP3    H218646   3.759   0.992   3.044  0.5714  0.5637 -0.3132
 6229TIP3   OH218647   5.885   1.480   5.418  0.7178 -0.3535 -0.1707
 6229TIP3    H118648   5.939   1.451   5.345 -3.4185 -0.7225 -3.2576
 6229TIP3    H218649   5.922   1.564   5.444  0.8462  1.0201 -4.4145
 6230TIP3   OH218650   0.631   2.964   4.223 -0.6026  0.0363 -0.1361
 6230TIP3    H118651   0.720   2.983   4.253 -1.1623  1.2846  0.7531
 6230TIP3    H218652   0.641   2.946   4.129  0.3746  1.7090 -0.3679
 6231TIP3   OH218653   6.411   3.558   4.494  0.5248 -0.4680 -0.0511
 6231TIP3    H118654   6.326   3.567   4.538 -0.3096  1.0984 -1.8923
 6231TIP3    H218655   6.394   3.496   4.423  1.0145 -0.3947 -0.2303
 6232TIP3   OH218656   5.753   3.000   1.537  0.1489  0.6195  0.2568
 6232TIP3    H118657   5.774   3.003   1.444  3.4685 -1.6093  0.8474
 6232TIP3    H218658   5.658   2.987   1.540  0.0630  0.3359 -2.8270
 6233TIP3   OH218659   1.271   1.724   3.529  0.2264  0.4193 -0.1239
 6233TIP3    H118660   1.240   1.644   3.485 -0.1340  0.3723  0.2062
 6233TIP3    H218661   1.269   1.701   3.622  2.4188  0.0159 -0.1612
 6234TIP3   OH218662   7.487   0.283   4.031 -0.4687 -0.1634 -0.1848
 6234TIP3    H118663   7.557   0.309   3.972  0.1120 -2.5462 -0.6158
 6234TIP3    H218664   7.529   0.274   4.116 -1.1356  2.4719  0.4448
 6235TIP3   OH218665   3.712   2.648   6.195 -0.7511  0.4568  0.0516
 6235TIP3    H118666   3.671   2.640   6.109  0.7022  0.1549 -0.6432
 6235TIP3    H218667   3.726   2.742   6.206  0.4114  0.3883 -0.7231
 6236TIP3   OH218668   6.051   2.148   4.228  0.2074 -0.4988 -0.2732
 6236TIP3    H118669   5.958   2.132   4.245  0.2368 -0.3832 -0.0027
 6236TIP3    H218670   6.069   2.232   4.270  0.6136 -0.8811  0.3338
 6237TIP3   OH218671   6.233   3.256   3.619 -0.2590 -0.1679  0.2617
 6237TIP3    H118672   6.139   3.272   3.620 -0.0640  1.8073 -2.9810
 6237TIP3    H218673   6.242   3.167   3.585 -0.9919 -1.2056  2.7472
 6238TIP3   OH218674   0.233   1.436   4.507  0.2922  0.2446 -0.3867
 6238TIP3    H118675   0.235   1.524   4.545  0.7719  0.0601  0.0132
 6238TIP3    H218676   0.141   1.412   4.508  0.5580 -0.8351  3.0985
 6239TIP3   OH218677   5.651   3.916   2.531  0.0421 -0.3302  0.2566
 6239TIP3    H118678   5.643   3.954   2.443  0.1011 -0.6745  0.1016
 6239TIP3    H218679   5.560   3.898   2.558 -0.1516  1.7743  1.1591
 6240TIP3   OH218680   6.874   2.822   3.150 -0.5269 -0.2400 -0.5902
 6240TIP3    H118681   6.901   2.858   3.065  0.1156 -0.4903 -0.4973
 6240TIP3    H218682   6.948   2.766   3.176 -0.4975  0.2440  0.3708
 6241TIP3   OH218683   5.406   2.953   4.567 -0.2361 -0.0966 -0.4477
 6241TIP3    H118684   5.323   2.927   4.528  1.2457 -0.0594 -3.8577
 6241TIP3    H218685   5.434   3.029   4.516  2.3894 -0.7912 -0.1163
 6242TIP3   OH218686   4.176   3.792   5.112 -0.0674  0.1618 -0.2988
 6242TIP3    H118687   4.085   3.784   5.081 -0.4417 -1.6645  1.2090
 6242TIP3    H218688   4.168   3.830   5.199  0.5946 -0.4306  0.0177
 6243TIP3   OH218689   4.207   2.040   3.057 -0.3960  0.0839 -0.2534
 6243TIP3    H118690   4.140   2.069   3.119  0.0207 -1.1918  0.8284
 6243TIP3    H218691   4.284   2.091   3.079 -0.4001  0.0153 -0.0797
 6244TIP3   OH218692   5.799   3.551   1.291  0.1998 -0.7048  0.6868
 6244TIP3    H118693   5.872   3.493   1.308  0.9958  0.4343  1.2484
 6244TIP3    H218694   5.804   3.570   1.197  0.6523 -0.6104  0.7293
 6245TIP3   OH218695   5.598   5.210   3.791  0.2481  0.2975  0.1742
 6245TIP3    H118696   5.683   5.243   3.764 -0.3917  2.4909  0.7180
 6245TIP3    H218697   5.616   5.124   3.828  2.3236  1.0573  0.9988
 6246TIP3   OH218698   5.761   2.999   1.263 -0.0861 -0.2587 -0.6063
 6246TIP3    H118699   5.698   3.071   1.276 -0.2256 -0.3218 -0.9441
 6246TIP3    H218700   5.707   2.921   1.255  0.1050 -0.5270  0.6580
 6247TIP3   OH218701   0.640   3.249   4.033  0.0149  0.4294  0.4168
 6247TIP3    H118702   0.574   3.283   3.972 -1.1482 -1.2357  0.7078
 6247TIP3    H218703   0.671   3.168   3.991  1.8086  1.1225  0.3440
 6248TIP3   OH218704   5.177   3.929   3.950 -0.3229 -0.2077  0.1265
 6248TIP3    H118705   5.137   3.886   4.025  0.6080 -0.3346  0.5478
 6248TIP3    H218706   5.219   3.858   3.901  0.2686  0.0756  0.2296
 6249TIP3   OH218707   6.672   2.767   5.814  0.0988  0.4341 -0.0223
 6249TIP3    H118708   6.750   2.798   5.769 -0.2642  1.5056  0.0741
 6249TIP3    H218709   6.658   2.830   5.885 -1.5164  0.9198 -0.7489
 6250TIP3   OH218710   6.040   1.840   4.425 -0.3625  0.1142  0.0578
 6250TIP3    H118711   6.040   1.744   4.428 -1.0006  0.0653 -1.4570
 6250TIP3    H218712   5.962   1.863   4.375  0.3569  1.4043 -0.4776
 6251TIP3   OH218713   6.563   4.159   2.983 -0.7790 -0.0037 -0.1164
 6251TIP3    H118714   6.647   4.162   2.936  0.7707  1.4300  2.6027
 6251TIP3    H218715   6.550   4.067   3.002 -0.0958 -0.3047 -1.0386
 6252TIP3   OH218716   4.410   4.285   4.126 -0.0427  0.1967 -0.5011
 6252TIP3    H118717   4.487   4.233   4.149  0.1663  0.2139 -1.1477
 6252TIP3    H218718   4.417   4.364   4.179  0.2259  0.0660 -0.3431
 6253TIP3   OH218719   5.034   2.265   3.898 -0.0490 -0.1412  0.4354
 6253TIP3    H118720   4.990   2.206   3.959 -0.2117 -1.5796 -1.0356
 6253TIP3    H218721   5.031   2.351   3.940 -1.2460 -0.8771  1.8692
 6254TIP3   OH218722   1.143   1.488   3.421  0.0767  0.0464 -0.1806
 6254TIP3    H118723   1.077   1.495   3.352  1.1183 -0.5126 -1.2551
 6254TIP3    H218724   1.207   1.426   3.386  1.6064  1.2220  0.4769
 6255TIP3   OH218725   6.092   1.674   3.015  0.2794  0.5639  0.0846
 6255TIP3    H118726   6.146   1.661   3.092 -1.3577  1.1638  1.3681
 6255TIP3    H218727   6.016   1.724   3.047 -0.5631  0.5639 -1.8396
 6256TIP3   OH218728   0.236   2.758   2.614 -0.0928  0.7719  0.0930
 6256TIP3    H118729   0.206   2.728   2.700  1.8925 -0.8134  0.2580
 6256TIP3    H218730   0.234   2.680   2.559 -1.2152  1.7456 -1.3016
 6257TIP3   OH218731   6.966   2.510   4.044 -0.4540 -0.0100 -0.4716
 6257TIP3    H118732   6.978   2.416   4.058 -2.7092 -0.3533 -0.5717
 6257TIP3    H218733   7.054   2.546   4.045  0.4031 -2.0402  0.2115
 6258TIP3   OH218734   6.669   2.955   3.271 -0.1750 -0.3219 -0.8468
 6258TIP3    H118735   6.600   2.909   3.224  0.3307 -0.9127 -1.0307
 6258TIP3    H218736   6.750   2.925   3.229  0.2729 -0.7626  0.3146
 6259TIP3   OH218737   0.953   2.908   4.145  0.4158  0.0693  0.5836
 6259TIP3    H118738   0.880   2.890   4.204 -0.3654  2.8594  0.5275
 6259TIP3    H218739   1.030   2.873   4.191 -0.5382 -0.2582  1.9724
 6260TIP3   OH218740   7.582   2.374   5.315 -0.2532  0.3351  0.4419
 6260TIP3    H118741   7.672   2.347   5.333  0.1731  1.5985  0.2556
 6260TIP3    H218742   7.545   2.302   5.265  0.4757 -0.4569  1.0304
 6261TIP3   OH218743   7.370   1.495   4.645  0.0200 -0.4006 -0.0300
 6261TIP3    H118744   7.284   1.477   4.608  0.3140  0.5765 -1.1980
 6261TIP3    H218745   7.385   1.587   4.627  0.4939 -0.0971  1.8811
 6262TIP3   OH218746   5.761   1.347   6.229 -0.3781  0.4125 -0.3445
 6262TIP3    H118747   5.681   1.363   6.279 -0.9229 -0.6594 -0.8530
 6262TIP3    H218748   5.827   1.327   6.295 -0.7538  0.3772  0.0210
 6263TIP3   OH218749   0.511   2.698   4.046 -0.0627 -0.5014  0.0467
 6263TIP3    H118750   0.432   2.698   3.992 -0.0856 -1.5137  0.0802
 6263TIP3    H218751   0.479   2.694   4.136  0.0303 -1.2867  0.0480
 6264TIP3   OH218752   1.343   3.654   4.484 -0.5478 -0.1193 -0.2488
 6264TIP3    H118753   1.395   3.718   4.434 -0.1266  0.5361  1.0176
 6264TIP3    H218754   1.328   3.583   4.422  3.0708 -0.9643 -0.2458
 6265TIP3   OH218755   5.520   0.665   3.427 -0.0614  0.8543  1.1759
 6265TIP3    H118756   5.596   0.607   3.433 -0.5245  0.2751  1.4448
 6265TIP3    H218757   5.513   0.706   3.514 -0.7725  0.0026  1.5243
 6266TIP3   OH218758   7.521   4.209   0.568 -0.2709 -0.2348  0.7429
 6266TIP3    H118759   7.589   4.179   0.507 -0.7964  0.8473 -0.4012
 6266TIP3    H218760   7.469   4.271   0.517 -1.8499 -0.7049  1.7421
 6267TIP3   OH218761   0.604   1.449   4.574  0.7138  0.8711  0.4148
 6267TIP3    H118762   0.642   1.517   4.630  0.0994  1.2776  0.3479
 6267TIP3    H218763   0.547   1.399   4.632 -2.0143  2.9249 -0.3369
 6268TIP3   OH218764   1.176   4.291   5.144  0.0649  0.2796  0.1591
 6268TIP3    H118765   1.109   4.343   5.099 -0.6924 -0.1364  0.7955
 6268TIP3    H218766   1.167   4.204   5.106  1.6105  0.6735 -1.2056
 6269TIP3   OH218767   5.767   2.128   4.281  0.1181  0.1878  0.6186
 6269TIP3    H118768   5.677   2.107   4.305 -0.1472  0.0485 -0.4605
 6269TIP3    H218769   5.759   2.197   4.216  0.7710 -0.1743  0.1444
 6270TIP3   OH218770   5.417   2.675   4.527 -0.1912  0.1314  0.3278
 6270TIP3    H118771   5.408   2.770   4.534  0.5572  0.1479  1.2724
 6270TIP3    H218772   5.364   2.651   4.452 -0.3591  1.3057  0.0608
 6271TIP3   OH218773   3.370   3.081   3.078 -0.1070 -0.7075 -0.0347
 6271TIP3    H118774   3.338   3.132   3.153 -0.1226 -0.6641 -0.0710
 6271TIP3    H218775   3.420   3.009   3.117  1.7589  0.5670 -0.0365
 6272TIP3   OH218776   5.403   3.041   3.282 -0.1977 -0.2888 -0.0794
 6272TIP3    H118777   5.430   3.132   3.295  0.2156 -0.4069 -0.0947
 6272TIP3    H218778   5.308   3.045   3.278 -0.2817 -0.0995  1.7844
 6273TIP3   OH218779   6.454   3.596   3.088  0.0394  0.2452 -0.3890
 6273TIP3    H118780   6.401   3.580   3.166  0.1940 -0.2984 -0.3878
 6273TIP3    H218781   6.407   3.551   3.017 -0.6932  1.6916 -0.8369
 6274TIP3   OH218782   0.890   2.290   4.775  0.8621  0.5143  0.4271
 6274TIP3    H118783   0.937   2.230   4.833 -0.3443 -0.7004  0.1887
 6274TIP3    H218784   0.896   2.249   4.689 -0.7625  0.2333  0.4262
 6275TIP3   OH218785   1.340   3.999   5.612 -0.0905  0.1269 -0.1424
 6275TIP3    H118786   1.291   4.062   5.665  0.8963 -0.1165  1.0814
 6275TIP3    H218787   1.318   4.021   5.521 -2.3378  0.1139  0.3745
 6276TIP3   OH218788   7.048   3.259   5.025  0.0027  0.0305  0.4542
 6276TIP3    H118789   6.999   3.340   5.021  0.5096  0.4229  1.8836
 6276TIP3    H218790   7.139   3.286   5.012  0.1907 -0.2794  1.1135
 6277TIP3   OH218791   6.426   2.089   5.112 -0.3924  0.0451 -0.2603
 6277TIP3    H118792   6.465   2.087   5.199 -3.4177  0.2939  1.1380
 6277TIP3    H218793   6.392   2.178   5.102 -1.1600 -0.3414 -1.2092
 6278TIP3   OH218794   0.159   3.981   2.597  0.5249 -0.1517  0.0775
 6278TIP3    H118795   0.105   3.992   2.675 -0.3681  1.2691 -0.7158
 6278TIP3    H218796   0.132   3.897   2.561  0.3166 -0.4059  0.8138
 6279TIP3   OH218797   6.297   3.503   3.286 -0.0974 -0.6443 -1.0715
 6279TIP3    H118798   6.236   3.438   3.252 -1.9579  0.2191  0.5174
 6279TIP3    H218799   6.360   3.453   3.337  0.0389 -1.4732 -2.0518
 6280TIP3   OH218800   7.508   2.425   4.640  0.1418  0.7263 -0.3010
 6280TIP3    H118801   7.579   2.467   4.688 -0.3970  1.4394 -0.1215
 6280TIP3    H218802   7.550   2.390   4.561  0.9161  0.0717  0.3938
 6281TIP3   OH218803   5.450   4.463   2.579 -0.4046 -0.2333 -0.1802
 6281TIP3    H118804   5.421   4.383   2.534 -0.4658 -0.2780 -0.0606
 6281TIP3    H218805   5.455   4.438   2.671  0.6658 -0.4147 -0.2752
 6282TIP3   OH218806   7.004   4.114   2.800  0.3155  0.0807  0.0443
 6282TIP3    H118807   6.910   4.108   2.820  0.8124 -0.7271  2.2473
 6282TIP3    H218808   7.020   4.208   2.788 -0.8598  0.1810 -0.8648
 6283TIP3   OH218809   6.626   3.394   4.089 -0.6543 -0.2964  0.2777
 6283TIP3    H118810   6.697   3.447   4.054 -0.9464 -0.8724 -1.2214
 6283TIP3    H218811   6.605   3.332   4.019 -1.3865 -1.3475  1.3995
 6284TIP3   OH218812   0.284   2.593   5.098 -0.2407  0.2865 -0.1414
 6284TIP3    H118813   0.289   2.519   5.038 -0.6447  0.7656 -0.7686
 6284TIP3    H218814   0.243   2.557   5.177  1.3882 -0.6277  0.3002
 6285TIP3   OH218815   7.220   2.613   4.860  0.4098  0.5197  0.0221
 6285TIP3    H118816   7.164   2.545   4.897  1.1037  0.7827  1.5814
 6285TIP3    H218817   7.217   2.598   4.765 -3.3332  1.3286 -0.0453
 6286TIP3   OH218818   0.498   3.617   5.059  0.0435 -0.7632  0.1593
 6286TIP3    H118819   0.563   3.563   5.015  0.8381  0.3738 -0.1053
 6286TIP3    H218820   0.470   3.680   4.992 -1.9734 -1.7711  0.0127
 6287TIP3   OH218821   6.174   3.601   1.293 -0.2438  0.1604  0.2364
 6287TIP3    H118822   6.195   3.572   1.204  1.2959 -0.4100  0.7648
 6287TIP3    H218823   6.240   3.667   1.313 -0.8644  0.6166  0.8010
 6288TIP3   OH218824   0.332   3.582   3.013  0.2040  0.1730  0.0216
 6288TIP3    H118825   0.238   3.594   2.999  0.1977  0.5218  0.3536
 6288TIP3    H218826   0.371   3.668   2.996  0.5102 -0.0612 -0.4816
 6289TIP3   OH218827   0.264   3.326   4.880  0.0330  0.4585 -0.0376
 6289TIP3    H118828   0.263   3.245   4.932  0.8135  1.0050  0.8392
 6289TIP3    H218829   0.225   3.392   4.938  0.1226  0.8872 -0.4636
 6290TIP3   OH218830   4.531   2.513   2.370 -0.8697 -0.0007 -0.0383
 6290TIP3    H118831   4.511   2.593   2.418 -1.1844  0.5368 -1.0470
 6290TIP3    H218832   4.579   2.459   2.433  0.3607  1.4456  0.3266
 6291TIP3   OH218833   0.206   4.605   6.205  0.0495  0.1055 -0.4317
 6291TIP3    H118834   0.147   4.586   6.278 -1.2394 -0.7636 -1.6824
 6291TIP3    H218835   0.292   4.617   6.247 -0.9159  1.0709  1.3758
 6292TIP3   OH218836   6.334   3.191   4.150 -0.3685 -0.0375 -0.5041
 6292TIP3    H118837   6.423   3.159   4.141  0.0154  1.3274 -1.7938
 6292TIP3    H218838   6.319   3.243   4.071 -1.0869  2.6189  1.3199
 6293TIP3   OH218839   7.216   2.310   2.940 -0.1487 -0.3935 -0.2745
 6293TIP3    H118840   7.152   2.323   3.011 -0.0082  1.0132 -0.3857
 6293TIP3    H218841   7.231   2.216   2.938  2.9810 -0.1614  4.3877
 6294TIP3   OH218842   4.312   1.904   1.630 -0.2522 -0.3016  0.1498
 6294TIP3    H118843   4.391   1.958   1.624 -0.8432  0.7126  1.2819
 6294TIP3    H218844   4.344   1.817   1.651  0.5765  0.0998  0.5743
 6295TIP3   OH218845   1.344   3.108   4.298 -0.3870 -0.4458  0.3204
 6295TIP3    H118846   1.326   3.202   4.301 -0.0028 -0.4151  1.7317
 6295TIP3    H218847   1.312   3.081   4.212  0.4850  1.1789 -0.5461
 6296TIP3   OH218848   1.218   3.077   4.061 -0.0697  0.0088 -0.2469
 6296TIP3    H118849   1.129   3.079   4.094 -0.4354 -0.7506 -1.1643
 6296TIP3    H218850   1.218   3.009   3.993  1.0909  0.2917 -0.5587
 6297TIP3   OH218851   5.209   3.335   4.638 -0.0271  0.5572 -0.1215
 6297TIP3    H118852   5.183   3.356   4.549  0.7187 -1.2887 -0.7893
 6297TIP3    H218853   5.297   3.299   4.630 -0.0071  0.2252  1.3408
 6298TIP3   OH218854   0.926   3.692   5.166  0.5603 -0.6206  0.2846
 6298TIP3    H118855   0.922   3.728   5.077 -0.2472 -1.0486  0.1426
 6298TIP3    H218856   0.890   3.604   5.157  0.6543 -0.7309  1.0089
 6299TIP3   OH218857   4.495   6.926   5.867 -0.1882 -0.1758  0.1512
 6299TIP3    H118858   4.462   6.842   5.899 -2.1817  0.9185  1.0062
 6299TIP3    H218859   4.483   6.922   5.772  0.8679 -1.3233  0.0458
 6300TIP3   OH218860   1.882   6.829   0.233 -0.0981  0.1481  0.1118
 6300TIP3    H118861   1.920   6.777   0.162 -0.9322 -2.3104  1.4079
 6300TIP3    H218862   1.801   6.782   0.257 -0.3888  1.5219  1.9411
 6301TIP3   OH218863   6.232   3.579   5.971 -0.2090  0.3248 -0.7236
 6301TIP3    H118864   6.204   3.491   5.945 -0.3077  0.0888  0.1527
 6301TIP3    H218865   6.198   3.636   5.902 -0.2497 -0.3107 -1.2373
 6302TIP3   OH218866   5.671   4.100   2.754 -0.4271  0.4584 -0.3259
 6302TIP3    H118867   5.648   4.056   2.672  0.3367 -0.6284  0.0371
 6302TIP3    H218868   5.756   4.140   2.736 -0.1028 -0.0600  0.0292
 6303TIP3   OH218869   6.318   3.317   3.895  0.0833  0.0456  0.8556
 6303TIP3    H118870   6.372   3.391   3.869 -0.4248  0.7304  1.7222
 6303TIP3    H218871   6.296   3.273   3.813  2.3766 -0.5475  0.5438
 6304TIP3   OH218872   0.954   2.396   5.524 -0.2253  0.1889 -0.0415
 6304TIP3    H118873   0.968   2.305   5.551 -0.7547 -0.3111 -1.4253
 6304TIP3    H218874   0.862   2.413   5.545  0.0601  0.6509  0.8816
 6305TIP3   OH218875   4.989   2.509   2.850  0.0753 -0.9184  0.5380
 6305TIP3    H118876   5.075   2.552   2.846 -0.0993 -0.5543  0.6053
 6305TIP3    H218877   4.999   2.439   2.914  0.6466 -1.6156 -0.2988
 6306TIP3   OH218878   6.801   4.911   2.833 -0.1226 -0.2725  0.2220
 6306TIP3    H118879   6.747   4.990   2.843  0.2712 -0.1764  1.7490
 6306TIP3    H218880   6.742   4.846   2.794 -1.3481 -0.1502  1.8036
 6307TIP3   OH218881   7.323   4.386   4.490 -0.3811  0.1357 -0.1510
 6307TIP3    H118882   7.406   4.409   4.448  0.6336 -0.0065  1.7226
 6307TIP3    H218883   7.270   4.466   4.482  0.9338  1.1512  1.0196
 6308TIP3   OH218884   0.271   3.510   4.701  0.2549 -0.6006  0.1763
 6308TIP3    H118885   0.282   3.439   4.764 -0.3405 -1.6404 -0.8775
 6308TIP3    H218886   0.328   3.487   4.627 -2.5552 -1.8294 -1.7033
 6309TIP3   OH218887   5.820   2.726   3.394  0.1257  0.2326  0.0749
 6309TIP3    H118888   5.733   2.729   3.434  0.0648  0.6758 -0.0826
 6309TIP3    H218889   5.815   2.788   3.321 -0.1046 -1.4142 -1.3223
 6310TIP3   OH218890   6.143   5.063   4.028  0.5367  0.6878  0.3587
 6310TIP3    H118891   6.163   5.153   4.003  2.3107  0.0024 -0.8339
 6310TIP3    H218892   6.178   5.010   3.956 -1.4317 -0.9001  0.5259
 6311TIP3   OH218893   6.050   4.364   2.730  0.0256  0.0884  0.4129
 6311TIP3    H118894   6.018   4.409   2.652  0.2555  0.7609  0.7019
 6311TIP3    H218895   6.125   4.415   2.758  0.0881 -0.2860  0.9420
 6312TIP3   OH218896   5.689   3.952   3.718 -0.6025  0.1796 -0.7593
 6312TIP3    H118897   5.753   3.882   3.726  0.4192  1.1920  0.1409
 6312TIP3    H218898   5.739   4.033   3.732 -2.3009  0.9107  1.3977
 6313TIP3   OH218899   6.126   0.702   2.453  0.0001 -0.1932  0.2366
 6313TIP3    H118900   6.179   0.623   2.443 -1.4284 -0.9939 -1.1226
 6313TIP3    H218901   6.153   0.737   2.538  1.1349 -1.7681  0.5609
 6314TIP3   OH218902   7.206   0.196   2.767 -0.6043 -0.0444 -0.0612
 6314TIP3    H118903   7.267   0.126   2.788 -0.3787  0.1981  0.0939
 6314TIP3    H218904   7.251   0.276   2.792 -1.3775  0.0726  0.9848
 6315TIP3   OH218905   5.691   3.340   2.624 -0.1519  0.6478 -0.3241
 6315TIP3    H118906   5.747   3.265   2.643 -2.3689 -1.1956 -0.8300
 6315TIP3    H218907   5.614   3.328   2.680 -1.1392  1.8215 -1.3747
 6316TIP3   OH218908   0.114   2.001   3.714 -0.0741 -0.2086  0.2385
 6316TIP3    H118909   0.134   1.913   3.745  2.0788  0.2030  0.0918
 6316TIP3    H218910   0.076   1.987   3.627 -0.2291 -1.0045  0.4268
 6317TIP3   OH218911   0.950   0.341   3.447 -0.3016 -0.3267  0.4978
 6317TIP3    H118912   1.003   0.355   3.369  0.0671 -0.0615  0.7977
 6317TIP3    H218913   0.950   0.425   3.493 -0.9122 -0.3451  0.5407
 6318TIP3   OH218914   6.120   2.468   3.122 -0.2862 -0.0883  0.2552
 6318TIP3    H118915   6.118   2.378   3.154  1.5962  1.0667  3.7952
 6318TIP3    H218916   6.206   2.476   3.079 -0.5749 -0.0587 -0.3193
 6319TIP3   OH218917   1.046   1.094   3.781 -0.3295 -0.2593  0.2702
 6319TIP3    H118918   1.025   1.050   3.698 -0.0999 -0.3250  0.2470
 6319TIP3    H218919   1.115   1.040   3.820  0.5428  0.5373 -0.1538
 6320TIP3   OH218920   0.292   3.475   3.954 -0.3155 -0.2754 -0.1985
 6320TIP3    H118921   0.279   3.416   4.029  0.0781  0.5607  0.5356
 6320TIP3    H218922   0.284   3.418   3.878 -0.7182 -1.1457  0.4766
 6321TIP3   OH218923   3.259   2.461   2.517 -0.2030  0.3989  0.3612
 6321TIP3    H118924   3.237   2.384   2.464  1.9675  0.0840 -0.1595
 6321TIP3    H218925   3.194   2.527   2.492 -2.5589 -1.4692  1.3648
 6322TIP3   OH218926   5.732   2.870   3.906  0.3927  0.3215  0.4635
 6322TIP3    H118927   5.687   2.812   3.968 -0.8907  0.7177 -0.0840
 6322TIP3    H218928   5.781   2.811   3.849 -0.2265 -0.1858  0.4455
 6323TIP3   OH218929   4.881   1.048   3.189 -0.1113 -0.5616  0.1764
 6323TIP3    H118930   4.944   1.068   3.120  0.3980 -1.0144  0.5039
 6323TIP3    H218931   4.796   1.071   3.152  0.0256 -2.0260 -1.0720
 6324TIP3   OH218932   6.141   3.546   3.642  0.0654 -0.1283 -0.6193
 6324TIP3    H118933   6.080   3.478   3.614 -0.0372 -0.8098  1.1952
 6324TIP3    H218934   6.227   3.503   3.644 -0.0680 -0.3389  0.9554
 6325TIP3   OH218935   1.027   4.991   4.559 -0.0747  0.2047  0.7173
 6325TIP3    H118936   0.949   5.030   4.598 -1.0991  0.2085 -1.2700
 6325TIP3    H218937   1.058   5.055   4.495  1.1787 -0.0899  1.0027
 6326TIP3   OH218938   6.804   3.125   5.088  0.0357  0.6680 -0.0871
 6326TIP3    H118939   6.890   3.156   5.059  0.4312 -0.3183 -0.0018
 6326TIP3    H218940   6.769   3.077   5.014  0.3144 -0.4075  0.4645
 6327TIP3   OH218941   7.204   3.836   3.214  0.3417  0.2025 -0.4913
 6327TIP3    H118942   7.266   3.766   3.234 -1.0197 -1.0430 -0.5948
 6327TIP3    H218943   7.259   3.914   3.204  1.8859 -0.8643 -0.5071
 6328TIP3   OH218944   7.273   4.229   2.686 -0.1279  0.4223  0.2533
 6328TIP3    H118945   7.193   4.276   2.710 -0.9008  0.0964 -1.6095
 6328TIP3    H218946   7.252   4.137   2.701 -0.1100  0.3314 -0.2983
 6329TIP3   OH218947   0.598   1.564   4.856  0.5390  0.1959 -0.0596
 6329TIP3    H118948   0.615   1.627   4.927  0.3086 -0.1834  0.3343
 6329TIP3    H218949   0.531   1.607   4.803  0.5380  0.3803  0.0865
 6330TIP3   OH218950   7.241   5.586   4.293  0.3561  0.6300 -0.0587
 6330TIP3    H118951   7.221   5.508   4.345 -0.0139 -0.2197 -1.4450
 6330TIP3    H218952   7.190   5.575   4.212  3.2712  0.4216 -1.9402
 6331TIP3   OH218953   7.782   3.292   3.796 -0.5864 -0.1897 -0.3447
 6331TIP3    H118954   7.717   3.345   3.751 -1.6302 -0.5002  0.7618
 6331TIP3    H218955   7.732   3.245   3.863  0.3632 -2.3402 -1.1007
 6332TIP3   OH218956   1.778   2.800   5.904  0.3110 -0.0225  0.2802
 6332TIP3    H118957   1.804   2.788   5.995  0.6315  0.1751  0.2161
 6332TIP3    H218958   1.703   2.741   5.892  0.9094 -0.8091  0.3890
 6333TIP3   OH218959   0.311   3.093   1.083  0.2719  0.6410 -0.3573
 6333TIP3    H118960   0.376   3.047   1.135  1.4474  0.5771 -1.8239
 6333TIP3    H218961   0.356   3.174   1.055 -0.7696  1.2884 -0.1886
 6334TIP3   OH218962   7.719   3.193   4.990  0.3543 -0.1272 -0.3899
 6334TIP3    H118963   7.764   3.203   5.074 -0.9067 -1.8208  0.5217
 6334TIP3    H218964   7.752   3.111   4.955  0.1541  0.1006 -1.1150
 6335TIP3   OH218965   0.405   4.051   1.787  0.4489  0.0097 -0.2861
 6335TIP3    H118966   0.311   4.056   1.767  0.0423 -2.4728  0.7766
 6335TIP3    H218967   0.416   4.108   1.862 -0.2783  0.0967 -0.2355
 6336TIP3   OH218968   0.105   3.926   3.990  0.1294 -0.1885 -0.1815
 6336TIP3    H118969   0.118   3.941   3.896  0.3463 -1.5788 -0.3946
 6336TIP3    H218970   0.101   3.830   3.998 -1.0814 -0.0445  1.0740
 6337TIP3   OH218971   1.020   1.883   1.800  0.5475  0.1874 -0.0762
 6337TIP3    H118972   1.035   1.822   1.872 -0.4238 -0.3115 -0.2945
 6337TIP3    H218973   1.103   1.882   1.751  0.4332 -1.2349 -0.2773
 6338TIP3   OH218974   1.858   4.053   3.014 -0.4915  0.8186 -0.3928
 6338TIP3    H118975   1.950   4.070   3.037 -0.9271  1.1341  1.2052
 6338TIP3    H218976   1.860   4.033   2.921  1.6768 -2.8295  0.3501
 6339TIP3   OH218977   2.067   2.929   4.473  0.1401 -0.4051  0.3027
 6339TIP3    H118978   2.028   2.883   4.398  0.6875 -0.0603 -0.1986
 6339TIP3    H218979   2.118   2.861   4.518  0.8762 -0.3195 -0.3892
 6340TIP3   OH218980   5.857   2.766   2.968  0.2247 -0.5852 -0.1523
 6340TIP3    H118981   5.945   2.735   2.951 -0.0546 -2.7053  1.9406
 6340TIP3    H218982   5.801   2.715   2.909  0.2991  0.1075 -0.8293
 6341TIP3   OH218983   7.259   3.910   0.858  0.2247  0.3941 -0.6948
 6341TIP3    H118984   7.230   3.854   0.930 -0.4950  1.3255 -0.2528
 6341TIP3    H218985   7.355   3.904   0.859  0.1127 -2.1444 -1.7178
 6342TIP3   OH218986   5.635   2.912   5.976  0.4924 -0.3714  0.3231
 6342TIP3    H118987   5.629   2.911   5.880  2.1848  1.0101  0.2056
 6342TIP3    H218988   5.700   2.978   5.996 -0.2546 -0.2608  2.4764
 6343TIP3   OH218989   1.957   5.532   0.126 -0.9097  0.4881 -0.2623
 6343TIP3    H118990   2.028   5.477   0.094 -1.8815 -0.5732 -0.6275
 6343TIP3    H218991   2.001   5.604   0.171  0.3743 -0.4768  0.0459
 6344TIP3   OH218992   0.675   1.128   1.493 -0.0693  0.3047  0.4689
 6344TIP3    H118993   0.672   1.084   1.578 -1.4399  2.0946  1.3759
 6344TIP3    H218994   0.767   1.150   1.480  0.5728 -2.3042  0.2328
 6345TIP3   OH218995   0.830   3.769   5.429  0.2436 -0.4306  0.9176
 6345TIP3    H118996   0.819   3.747   5.336 -0.9130  0.6140  0.7994
 6345TIP3    H218997   0.762   3.718   5.474  0.1956 -0.2122  1.0909
 6346TIP3   OH218998   0.088   2.375   3.477  0.1067 -0.0599  0.0601
 6346TIP3    H118999   0.055   2.301   3.427 -0.1726 -1.3725  2.1463
 6346TIP3    H219000   0.010   2.423   3.504  0.0464 -1.3219  2.1956
 6347TIP3   OH219001   7.230   2.109   3.739 -0.0425  0.0997  0.4473
 6347TIP3    H119002   7.288   2.037   3.714  1.0835  1.2061 -0.1487
 6347TIP3    H219003   7.232   2.109   3.835 -1.2712 -1.6299  0.5066
 6348TIP3   OH219004   0.701   5.940   0.687 -0.2889  0.1317 -0.1041
 6348TIP3    H119005   0.623   5.990   0.664  0.1105  0.8079 -0.0065
 6348TIP3    H219006   0.768   5.970   0.625 -0.7270 -2.1566 -1.7625
 6349TIP3   OH219007   7.608   3.030   2.640 -0.4693 -0.0175 -0.0226
 6349TIP3    H119008   7.651   2.963   2.587 -0.3119  0.3883 -0.4128
 6349TIP3    H219009   7.678   3.091   2.663 -0.4745 -0.3758  0.9365
 6350TIP3   OH219010   0.095   3.632   2.931 -0.0073 -0.3634 -0.8552
 6350TIP3    H119011   0.038   3.701   2.965  0.6272  0.1403 -0.8024
 6350TIP3    H219012   0.038   3.555   2.924 -0.2359 -0.3724  0.9689
 6351TIP3   OH219013   0.093   3.047   2.294 -0.7376  0.1023  0.1847
 6351TIP3    H119014   0.026   3.092   2.242 -0.6081 -0.2097 -0.2553
 6351TIP3    H219015   0.138   3.118   2.340 -1.7125  0.2737  0.8930
 6352TIP3   OH219016   7.167   3.970   2.007 -0.2926 -0.4188 -0.3461
 6352TIP3    H119017   7.136   3.891   2.051 -0.1894  0.0863  0.6462
 6352TIP3    H219018   7.262   3.969   2.020 -0.4038  0.3933  0.5516
 6353TIP3   OH219019   7.474   4.139   3.776  0.4473  0.1193  0.3615
 6353TIP3    H119020   7.501   4.190   3.851 -0.3919  0.1419  0.6586
 6353TIP3    H219021   7.536   4.162   3.707 -1.4084  3.4984 -0.2980
 6354TIP3   OH219022   1.444   3.533   4.143 -0.0354 -0.5741 -0.1124
 6354TIP3    H119023   1.392   3.485   4.208 -0.9446 -0.0949 -0.4711
 6354TIP3    H219024   1.395   3.521   4.061  0.2689  0.1250 -0.3982
 6355TIP3   OH219025   5.322   3.429   2.941 -0.3329 -0.0567 -0.1961
 6355TIP3    H119026   5.354   3.476   3.018 -2.6975  1.1773  0.0776
 6355TIP3    H219027   5.259   3.366   2.976  1.5140 -2.2934 -0.7500
 6356TIP3   OH219028   0.245   2.071   4.517 -0.3397  0.3653  0.0685
 6356TIP3    H119029   0.274   2.059   4.607 -0.3576 -0.9049 -0.0905
 6356TIP3    H219030   0.321   2.105   4.471  0.3695 -1.2143  0.0558
 6357TIP3   OH219031   1.078   3.803   4.533 -0.0566 -0.5490 -0.5238
 6357TIP3    H119032   1.103   3.846   4.452 -0.1599 -0.7482 -0.6603
 6357TIP3    H219033   1.160   3.764   4.565  0.0827 -0.0732 -0.2900
 6358TIP3   OH219034   6.719   2.662   2.939 -0.1366  0.2251  0.1362
 6358TIP3    H119035   6.739   2.690   2.849 -1.4942 -0.6590 -0.4566
 6358TIP3    H219036   6.753   2.733   2.994  2.5584 -0.1766 -0.9349
 6359TIP3   OH219037   7.726   2.491   2.789 -0.2268  0.2325  0.1218
 6359TIP3    H119038   7.704   2.513   2.879 -1.6182 -1.8981  0.3368
 6359TIP3    H219039   7.792   2.421   2.796  0.3638  0.7137 -0.5185
 6360TIP3   OH219040   1.545   3.267   2.237  0.5803 -0.0106 -0.2545
 6360TIP3    H119041   1.529   3.287   2.145  1.1625 -2.6770 -0.9776
 6360TIP3    H219042   1.629   3.221   2.238  0.2043 -0.7156  1.5020
 6361TIP3   OH219043   5.457   0.765   0.773  0.5611 -0.1497  0.4663
 6361TIP3    H119044   5.447   0.839   0.712  2.2642 -0.5318 -0.2932
 6361TIP3    H219045   5.367   0.740   0.794 -0.0493  1.4372 -0.1154
 6362TIP3   OH219046   0.253   2.116   2.707  0.1010  0.4609  0.0692
 6362TIP3    H119047   0.291   2.075   2.630  0.1554  1.1143 -0.2528
 6362TIP3    H219048   0.323   2.114   2.772  0.2316  0.4063 -0.0721
 6363TIP3   OH219049   0.544   3.566   5.347 -0.1415 -0.7489  0.2871
 6363TIP3    H119050   0.497   3.599   5.270 -1.0085  1.4136  1.6898
 6363TIP3    H219051   0.616   3.514   5.311 -0.3134  0.5420 -2.0051
 6364TIP3   OH219052   2.924   1.477   2.909  0.0940  0.4348  0.1660
 6364TIP3    H119053   2.945   1.418   2.981 -0.2675 -0.2067 -0.2535
 6364TIP3    H219054   2.828   1.476   2.905  0.1540 -0.5527 -1.1790
 6365TIP3   OH219055   1.375   4.687   5.648 -0.3381 -0.2479 -0.5259
 6365TIP3    H119056   1.372   4.768   5.699  0.9037 -0.0463 -0.7517
 6365TIP3    H219057   1.344   4.620   5.708  0.8914  0.0253  0.4377
 6366TIP3   OH219058   7.589   4.511   5.805 -0.0836  0.3409  0.5069
 6366TIP3    H119059   7.652   4.550   5.744  0.5097  1.3393  1.7512
 6366TIP3    H219060   7.503   4.536   5.769  0.1980 -1.2308 -1.3258
 6367TIP3   OH219061   7.038   2.586   3.226 -0.2276 -0.0560  0.0043
 6367TIP3    H119062   7.054   2.594   3.320 -0.7286 -1.0879  0.1784
 6367TIP3    H219063   7.032   2.492   3.209 -2.6798  0.1768 -0.6119
 6368TIP3   OH219064   0.062   4.095   3.497 -0.1547  0.2287  0.0906
 6368TIP3    H119065   0.028   4.024   3.443 -0.1451  0.4691 -0.2309
 6368TIP3    H219066   0.137   4.129   3.448 -0.4052  0.7251  0.0528
 6369TIP3   OH219067   6.426   5.147   3.145  0.5384  0.1498 -0.1567
 6369TIP3    H119068   6.487   5.218   3.124  0.8746 -0.6157 -1.8492
 6369TIP3    H219069   6.428   5.141   3.241  3.8210 -0.4886 -0.2337
 6370TIP3   OH219070   2.182   4.559   4.983  0.4660 -0.3375  0.0743
 6370TIP3    H119071   2.230   4.500   5.040  0.4723 -0.2141  0.1984
 6370TIP3    H219072   2.248   4.623   4.954  0.2951  0.0739  0.5727
 6371TIP3   OH219073   0.234   6.096   3.829  0.3490  0.7837 -0.1590
 6371TIP3    H119074   0.244   6.185   3.863  0.7946 -0.0289  1.8718
 6371TIP3    H219075   0.310   6.085   3.771  1.4177  1.0346  1.1614
 6372TIP3   OH219076   0.309   3.330   3.238 -0.1223 -0.6058 -0.1158
 6372TIP3    H119077   0.405   3.325   3.247  0.0447  2.4658  0.5020
 6372TIP3    H219078   0.278   3.351   3.325 -1.2091  0.0035 -0.6469
 6373TIP3   OH219079   2.809   4.454   4.023 -0.1910  0.1179  0.2284
 6373TIP3    H119080   2.789   4.477   3.933 -0.6125 -0.9564  0.0305
 6373TIP3    H219081   2.786   4.361   4.029  2.0718 -0.4339  0.7811
 6374TIP3   OH219082   1.334   4.297   5.505 -0.2652 -0.7536 -0.2591
 6374TIP3    H119083   1.287   4.215   5.485 -0.6779 -0.8692  1.1250
 6374TIP3    H219084   1.284   4.365   5.459 -1.9901 -0.8402  1.4173
 6375TIP3   OH219085   2.173   5.408   6.325 -0.3659  0.3360 -0.1636
 6375TIP3    H119086   2.214   5.469   6.264 -0.3316  1.4577  0.9550
 6375TIP3    H219087   2.235   5.401   6.397 -0.2927 -1.1785 -0.3541
 6376TIP3   OH219088   1.612   0.647   0.753 -0.3668  0.6690  0.0101
 6376TIP3    H119089   1.592   0.560   0.789 -0.6849  0.2823 -1.0701
 6376TIP3    H219090   1.529   0.677   0.716  0.3477  0.2654 -1.9991
 6377TIP3   OH219091   7.564   3.696   5.392  0.0455  0.4111 -0.3066
 6377TIP3    H119092   7.535   3.772   5.442  2.1427  0.7564  0.4416
 6377TIP3    H219093   7.591   3.633   5.459  1.0821  0.1511 -0.9671
 6378TIP3   OH219094   7.087   0.641   1.086 -0.7099  0.3532 -0.5008
 6378TIP3    H119095   7.058   0.592   1.009 -0.4079  3.3179 -2.5762
 6378TIP3    H219096   7.182   0.644   1.078 -0.5986 -0.0952  0.5131
 6379TIP3   OH219097   2.335   4.461   6.309  0.2675 -0.2919 -0.0341
 6379TIP3    H119098   2.364   4.494   6.394  0.2486 -0.8814  0.2076
 6379TIP3    H219099   2.415   4.434   6.264  0.3188  0.4768 -0.3976
 6380TIP3   OH219100   0.904   5.285   5.736 -0.0742  0.3632 -0.2972
 6380TIP3    H119101   0.946   5.249   5.814  1.4762  1.0361 -0.8195
 6380TIP3    H219102   0.840   5.219   5.710  1.3645 -1.1147 -0.0914
 6381TIP3   OH219103   7.172   0.862   1.317 -0.2917 -0.3822  0.0125
 6381TIP3    H119104   7.111   0.868   1.390 -0.8713  2.1494 -0.6573
 6381TIP3    H219105   7.120   0.827   1.245  0.1882 -2.5161  0.6633
 6382TIP3   OH219106   4.966   0.519   5.814  0.4790 -0.1860  0.3104
 6382TIP3    H119107   5.052   0.528   5.854  0.2234  1.1986  0.5663
 6382TIP3    H219108   4.970   0.569   5.733 -0.5734  1.2574  1.1271
 6383TIP3   OH219109   0.640   6.148   4.727 -0.1628 -0.1006 -0.0233
 6383TIP3    H119110   0.564   6.198   4.759  0.2377 -0.7058  1.9344
 6383TIP3    H219111   0.712   6.211   4.730  0.4362 -0.8307  2.8629
 6384TIP3   OH219112   7.679   3.636   6.054  0.3763  0.5098  0.2013
 6384TIP3    H119113   7.645   3.726   6.055  0.8724  0.6815  1.2582
 6384TIP3    H219114   7.695   3.619   5.961 -1.7303  0.7532 -0.2544
 6385TIP3   OH219115   0.276   4.149   5.359  0.1307  0.4857  0.1674
 6385TIP3    H119116   0.296   4.123   5.449  0.2987  1.3276  0.3796
 6385TIP3    H219117   0.344   4.213   5.337  0.8806 -0.6807 -1.0171
 6386TIP3   OH219118   2.396   5.208   6.229  0.0206  0.6850 -0.0196
 6386TIP3    H119119   2.448   5.285   6.253  0.6928  0.9625 -2.2036
 6386TIP3    H219120   2.459   5.150   6.186 -0.4247 -1.2437  1.9015
 6387TIP3   OH219121   2.413   2.723   4.213 -0.0534  0.2230 -0.0295
 6387TIP3    H119122   2.505   2.736   4.235  0.3674 -0.7564 -1.1166
 6387TIP3    H219123   2.370   2.705   4.296  0.6965  0.8879  0.5103
 6388TIP3   OH219124   2.756   3.973   4.482  0.1671  0.5030  0.2405
 6388TIP3    H119125   2.840   3.939   4.513 -0.9698 -2.1671  0.5086
 6388TIP3    H219126   2.780   4.046   4.425  2.7334 -0.8550 -0.5154
 6389TIP3   OH219127   5.374   0.013   1.288  0.2521  0.5011 -0.1186
 6389TIP3    H119128   5.291   0.035   1.246  1.6148  0.8560 -2.7274
 6389TIP3    H219129   5.349  -0.019   1.375 -2.8148 -2.1236 -1.8459
 6390TIP3   OH219130   2.731   4.434   5.227  0.6259 -0.8164 -0.2425
 6390TIP3    H119131   2.744   4.443   5.133 -0.6366  2.8418 -0.1621
 6390TIP3    H219132   2.816   4.456   5.265  0.4829  0.1792 -0.4761
 6391TIP3   OH219133   6.330   5.850   4.868  0.0098  0.0022 -0.1314
 6391TIP3    H119134   6.422   5.824   4.865 -0.0388 -0.1928  0.0833
 6391TIP3    H219135   6.310   5.878   4.779  0.4211  0.5263 -0.0616
 6392TIP3   OH219136   7.226   3.713   5.245  0.3595  0.6395  0.1185
 6392TIP3    H119137   7.244   3.803   5.218  0.6199  0.4886 -0.2277
 6392TIP3    H219138   7.312   3.672   5.250  0.4425  1.1052  2.8247
 6393TIP3   OH219139   0.470   3.697   4.794  0.0562  1.1573  0.0245
 6393TIP3    H119140   0.543   3.637   4.805 -1.0820 -0.1774  0.3993
 6393TIP3    H219141   0.411   3.654   4.732 -1.6036  1.0655  1.6138
 6394TIP3   OH219142   2.763   4.662   4.915 -0.5697 -0.3857 -0.1441
 6394TIP3    H119143   2.707   4.589   4.943 -0.0755  0.1801  2.4773
 6394TIP3    H219144   2.724   4.739   4.956  0.3045  0.4609 -0.8951
 6395TIP3   OH219145   0.491   4.267   4.448 -0.2737 -0.0352 -0.1694
 6395TIP3    H119146   0.579   4.287   4.480 -0.9339  1.3342  0.8463
 6395TIP3    H219147   0.437   4.261   4.527 -0.9702 -1.5100 -0.7406
 6396TIP3   OH219148   7.112   1.502   0.949 -0.1216 -0.0403  0.1371
 6396TIP3    H119149   7.022   1.534   0.958 -0.4565 -0.8901 -0.1714
 6396TIP3    H219150   7.143   1.541   0.867 -0.1193  0.4465  0.3645
 6397TIP3   OH219151   2.354   4.313   4.947  0.4607 -0.6706 -0.2321
 6397TIP3    H119152   2.308   4.232   4.927 -3.0846  1.2127 -0.1035
 6397TIP3    H219153   2.322   4.376   4.882  1.1336  1.2865  1.2736
 6398TIP3   OH219154   0.801   4.307   4.857  0.3134 -0.0038  0.1353
 6398TIP3    H119155   0.807   4.398   4.887  0.9676 -0.9234  2.9715
 6398TIP3    H219156   0.870   4.299   4.790  1.1100  1.2520  0.7861
 6399TIP3   OH219157   5.800   0.430   0.690  0.1024 -0.0619  0.1902
 6399TIP3    H119158   5.866   0.459   0.627 -1.3701 -0.2540 -1.4970
 6399TIP3    H219159   5.716   0.457   0.651 -0.8516 -0.2009  2.0694
 6400TIP3   OH219160   2.566   5.210   3.938  0.9967  0.1656 -0.0096
 6400TIP3    H119161   2.584   5.128   3.984 -1.2098 -0.9877 -1.1083
 6400TIP3    H219162   2.575   5.187   3.846  0.4685  1.1990 -0.3121
 6401TIP3   OH219163   3.473   6.957   0.317  0.4592  0.2518  0.1379
 6401TIP3    H119164   3.433   7.025   0.262  0.5115  1.6986  1.8454
 6401TIP3    H219165   3.407   6.939   0.384  0.6190 -1.0893 -0.0631
 6402TIP3   OH219166   1.472   2.426   5.984  0.5625 -0.0199 -0.1034
 6402TIP3    H119167   1.452   2.341   5.944  1.7808  0.1150 -1.0197
 6402TIP3    H219168   1.437   2.490   5.923 -2.9517  0.1554  1.9669
 6403TIP3   OH219169   2.109   4.839   6.298  0.2404  0.0267  0.1935
 6403TIP3    H119170   2.106   4.785   6.378  1.8586 -1.8311 -0.9547
 6403TIP3    H219171   2.175   4.906   6.317 -0.0760  0.1784  0.7678
 6404TIP3   OH219172   2.736   2.507   3.704 -0.1291 -0.3231  0.1527
 6404TIP3    H119173   2.775   2.440   3.647 -1.4255 -1.1391  0.2178
 6404TIP3    H219174   2.798   2.514   3.777  0.3372 -0.9878 -0.1678
 6405TIP3   OH219175   0.037   5.372   5.570 -0.3564 -0.4293 -0.4363
 6405TIP3    H119176   0.043   5.423   5.489 -2.3081 -1.6792 -1.4099
 6405TIP3    H219177  -0.042   5.404   5.613  0.4069 -0.1145  0.7334
 6406TIP3   OH219178   3.358   7.048   1.467  0.0963  0.4176 -0.1083
 6406TIP3    H119179   3.435   7.093   1.431  0.0307 -0.0999 -0.9166
 6406TIP3    H219180   3.391   6.964   1.498 -0.1480  0.1762 -0.4957
 6407TIP3   OH219181   2.174   4.922   5.490  0.3762  0.2917  0.6714
 6407TIP3    H119182   2.203   4.985   5.425  0.3802  1.7638  2.0628
 6407TIP3    H219183   2.235   4.933   5.563 -0.4330 -0.3813  1.4583
 6408TIP3   OH219184   1.807   6.709   0.916 -0.0225  0.4025  0.1283
 6408TIP3    H119185   1.769   6.735   1.000  1.9765 -0.7656  1.4277
 6408TIP3    H219186   1.770   6.622   0.900  0.0437  0.3841  0.0790
 6409TIP3   OH219187   2.188   4.687   4.169  0.2364 -0.3548 -0.0649
 6409TIP3    H119188   2.178   4.592   4.173 -2.5144 -0.0807  1.0068
 6409TIP3    H219189   2.112   4.717   4.119  1.2312  1.2610 -0.6590
 6410TIP3   OH219190   7.534   3.405   6.111 -0.3012  0.2852 -0.0799
 6410TIP3    H119191   7.576   3.484   6.079 -1.1470  0.5051 -0.6860
 6410TIP3    H219192   7.606   3.347   6.137  0.3670  0.6408 -1.1129
 6411TIP3   OH219193   2.239   5.352   3.665 -0.0825 -0.2483  0.0784
 6411TIP3    H119194   2.322   5.361   3.620  0.0906  1.5069  0.7421
 6411TIP3    H219195   2.231   5.258   3.681  1.9221 -0.3978  0.3099
 6412TIP3   OH219196   2.427   2.558   2.703 -0.5342  0.3246 -0.3689
 6412TIP3    H119197   2.378   2.532   2.624 -1.8093 -0.9937  0.8094
 6412TIP3    H219198   2.512   2.587   2.670 -1.2772  0.4217 -2.2875
 6413TIP3   OH219199   1.428   5.108   5.417  0.5477 -0.6048 -0.2379
 6413TIP3    H119200   1.378   5.121   5.497  0.9178 -0.8618  0.0371
 6413TIP3    H219201   1.365   5.070   5.355  0.1284  0.0896 -0.2393
 6414TIP3   OH219202   0.598   2.386   4.724 -0.3388  0.6621  0.3178
 6414TIP3    H119203   0.638   2.473   4.729  2.0831 -0.3386 -0.8193
 6414TIP3    H219204   0.669   2.326   4.743 -1.8445 -1.1146  0.4361
 6415TIP3   OH219205   7.684   0.956   0.143  0.1670 -0.1218  0.1582
 6415TIP3    H119206   7.673   1.047   0.115 -0.1179 -0.5901 -1.3443
 6415TIP3    H219207   7.699   0.961   0.237  0.6214  1.5116  0.0179
 6416TIP3   OH219208   0.249   3.331   4.204  0.4891 -0.7068 -0.1308
 6416TIP3    H119209   0.342   3.341   4.224  0.7015 -0.9647 -0.9937
 6416TIP3    H219210   0.217   3.271   4.272  0.9364 -0.5690  0.2063
 6417TIP3   OH219211   5.637   0.084   0.043 -0.4762 -0.1025 -0.5422
 6417TIP3    H119212   5.548   0.049   0.034 -0.2161 -0.8189 -0.3834
 6417TIP3    H219213   5.629   0.155   0.106 -1.1160  0.5019 -1.2910
 6418TIP3   OH219214   1.432   5.727   4.671  0.5163  0.1254 -0.7312
 6418TIP3    H119215   1.481   5.660   4.624  0.1693 -0.4297 -0.2964
 6418TIP3    H219216   1.437   5.701   4.763 -0.9271 -0.1586 -0.7137
 6419TIP3   OH219217   2.182   4.989   4.384  0.2882 -0.3964  0.4129
 6419TIP3    H119218   2.218   4.927   4.321  0.2848 -1.0542  1.0538
 6419TIP3    H219219   2.184   5.074   4.338 -2.6421 -1.3606 -1.6622
 6420TIP3   OH219220   6.948   0.770   0.716 -0.1022  0.1200 -0.3503
 6420TIP3    H119221   6.880   0.836   0.700 -0.3968 -0.0496  0.1912
 6420TIP3    H219222   6.907   0.687   0.693  0.4403  0.1647 -1.5423
 6421TIP3   OH219223   5.489   4.441   5.773 -0.3033  0.2151 -0.2427
 6421TIP3    H119224   5.539   4.366   5.742 -0.5648  0.5290 -1.4460
 6421TIP3    H219225   5.446   4.475   5.695 -1.7107  0.4703  0.6339
 6422TIP3   OH219226   4.773   0.376   1.860  0.2771 -0.1880  0.3843
 6422TIP3    H119227   4.751   0.294   1.904  1.8712 -1.8354 -1.7471
 6422TIP3    H219228   4.824   0.426   1.923 -1.0777 -0.6473  1.8545
 6423TIP3   OH219229   3.342   3.282   5.445  0.4098  0.1404  0.2745
 6423TIP3    H119230   3.324   3.375   5.456  2.5590  0.7265 -0.7783
 6423TIP3    H219231   3.390   3.277   5.362  3.3046 -1.4587  1.9442
 6424TIP3   OH219232   2.274   3.810   4.789 -0.5604 -0.3831 -0.1878
 6424TIP3    H119233   2.230   3.883   4.832 -0.0820 -0.4497  0.4123
 6424TIP3    H219234   2.363   3.841   4.773 -0.1535 -1.0720  0.6864
 6425TIP3   OH219235   7.549   4.004   2.492  0.5636  0.1794  0.4596
 6425TIP3    H119236   7.554   3.908   2.492  1.9652  0.2400 -1.0226
 6425TIP3    H219237   7.474   4.024   2.436  0.3711 -0.0285  0.6366
 6426TIP3   OH219238   6.844   0.409   1.153 -0.4243 -0.3505  0.3173
 6426TIP3    H119239   6.820   0.501   1.165  2.3897  0.4999 -0.1890
 6426TIP3    H219240   6.840   0.396   1.059  1.0090 -0.1755  0.2137
 6427TIP3   OH219241   0.107   4.582   4.928 -0.3255  0.5087 -0.2960
 6427TIP3    H119242   0.167   4.657   4.925  0.4421 -0.0503  0.9305
 6427TIP3    H219243   0.164   4.506   4.939 -1.0910 -0.2975 -1.7097
 6428TIP3   OH219244   0.785   4.004   5.837 -0.2380  0.0346 -0.5963
 6428TIP3    H119245   0.831   3.995   5.753  2.3150 -0.4112  0.8074
 6428TIP3    H219246   0.774   4.099   5.846  2.3564  0.3323  0.0090
 6429TIP3   OH219247   1.539   2.944   6.186 -0.0136  0.4390 -0.3428
 6429TIP3    H119248   1.507   2.963   6.274  1.5956  1.6529 -0.0052
 6429TIP3    H219249   1.585   2.860   6.196  1.3179  1.2123  0.2991
 6430TIP3   OH219250   7.285   1.015   0.188 -0.1811 -0.8939  0.5455
 6430TIP3    H119251   7.239   0.948   0.139  1.8601 -1.2883 -0.8796
 6430TIP3    H219252   7.352   0.968   0.238  0.9219  0.0029 -0.0612
 6431TIP3   OH219253   6.775   4.008   3.954  0.6114 -0.1000  0.4768
 6431TIP3    H119254   6.853   4.045   3.994  2.2597  1.2947 -3.7433
 6431TIP3    H219255   6.794   3.915   3.944  1.1007 -0.0401  0.8464
 6432TIP3   OH219256   3.349   2.383   3.537 -0.1143 -0.1340  0.1541
 6432TIP3    H119257   3.432   2.366   3.492 -1.8930  1.6248 -4.0074
 6432TIP3    H219258   3.304   2.298   3.537  0.1724 -0.2883 -0.7747
 6433TIP3   OH219259   2.391   3.674   5.894  0.4306  0.6064 -0.1032
 6433TIP3    H119260   2.369   3.597   5.841  2.0787 -0.1576  0.3031
 6433TIP3    H219261   2.331   3.669   5.968  0.7962 -0.5157  0.1266
 6434TIP3   OH219262   2.513   3.418   5.011  0.1207 -0.1997  0.3933
 6434TIP3    H119263   2.459   3.414   5.090 -0.1638 -0.2665  0.1972
 6434TIP3    H219264   2.556   3.333   5.007  0.3295 -0.1043  0.6121
 6435TIP3   OH219265   0.099   3.169   5.972 -0.3349  0.1294  0.1512
 6435TIP3    H119266   0.149   3.248   5.953 -0.8571  0.1797 -1.0624
 6435TIP3    H219267   0.055   3.188   6.055  0.7770  0.5039  0.6682
 6436TIP3   OH219268   1.589   2.965   4.339 -0.7940 -1.0028  0.2431
 6436TIP3    H119269   1.505   3.009   4.326 -0.5361  0.5795  3.5211
 6436TIP3    H219270   1.575   2.907   4.413  0.2385 -2.9377 -1.0274
 6437TIP3   OH219271   1.081   4.897   0.314  0.4553  0.3236  0.6578
 6437TIP3    H119272   1.132   4.917   0.235 -0.4794  2.0565  0.4667
 6437TIP3    H219273   1.059   4.804   0.305 -0.9964  0.8600 -1.9350
 6438TIP3   OH219274   6.244   0.290   0.476  0.0821 -0.0279  0.3185
 6438TIP3    H119275   6.235   0.237   0.555 -2.1182 -0.3493 -0.1194
 6438TIP3    H219276   6.310   0.356   0.499  0.0287 -0.5769  2.1528
 6439TIP3   OH219277   6.006   2.906   1.121  0.4650 -0.0197 -0.2625
 6439TIP3    H119278   6.045   2.830   1.162  1.8754  1.8486  1.9829
 6439TIP3    H219279   5.917   2.909   1.155  0.5868 -0.3630  0.0883
 6440TIP3   OH219280   7.374   4.131   4.492 -0.2541  0.5802  0.6137
 6440TIP3    H119281   7.312   4.203   4.479 -0.6104  0.4479  1.5678
 6440TIP3    H219282   7.387   4.127   4.587  0.5268  0.0255  0.4880
 6441TIP3   OH219283   6.608   2.378   5.759 -0.0841 -0.4453  0.3764
 6441TIP3    H119284   6.645   2.439   5.696 -0.8014  1.1357  1.4483
 6441TIP3    H219285   6.672   2.307   5.765  0.6058  0.0402 -1.1271
 6442TIP3   OH219286   1.907   4.272   6.287  0.3949 -0.1331 -0.3506
 6442TIP3    H119287   1.834   4.235   6.337  0.3278  0.3374 -0.0990
 6442TIP3    H219288   1.982   4.218   6.312  0.6356  0.8909  1.2701
 6443TIP3   OH219289   1.150   3.505   6.108 -0.1725 -0.3307  0.2990
 6443TIP3    H119290   1.121   3.577   6.165 -0.5540  0.1278 -0.4638
 6443TIP3    H219291   1.223   3.465   6.155  0.2816  0.7934  0.5714
 6444TIP3   OH219292   0.504   1.453   0.457 -0.4710  0.1809  0.1141
 6444TIP3    H119293   0.588   1.481   0.493  0.3652 -1.3449 -0.6230
 6444TIP3    H219294   0.449   1.439   0.533  0.9389 -1.9297  0.7836
 6445TIP3   OH219295   2.120   4.269   3.487 -0.2076  0.6448  0.2665
 6445TIP3    H119296   2.165   4.309   3.413 -0.2293 -0.3221 -0.2857
 6445TIP3    H219297   2.041   4.323   3.499  0.5421  1.6867  0.5426
 6446TIP3   OH219298   6.967   5.540   5.955  0.6210 -0.0089 -0.2393
 6446TIP3    H119299   7.025   5.464   5.954  0.3841 -0.2458  1.6730
 6446TIP3    H219300   7.025   5.615   5.968  0.6820 -0.0440 -0.3097
 6447TIP3   OH219301   5.001   6.495   0.561  0.6752 -0.2043  0.2819
 6447TIP3    H119302   5.019   6.446   0.481 -0.4936  0.6168 -0.5164
 6447TIP3    H219303   4.921   6.544   0.541  0.0255 -0.4675  2.1817
 6448TIP3   OH219304   2.199   6.411   0.839  0.0698  0.6788  0.0993
 6448TIP3    H119305   2.140   6.446   0.772 -0.8821  0.9383  1.0702
 6448TIP3    H219306   2.284   6.452   0.819 -0.2879  1.0319 -0.7286
 6449TIP3   OH219307   1.454   3.064   4.710 -0.0092  0.1884  0.5469
 6449TIP3    H119308   1.441   2.987   4.765  0.5753 -0.0046  0.4184
 6449TIP3    H219309   1.547   3.082   4.715  0.1222 -0.0787 -0.7091
 6450TIP3   OH219310   2.394   2.842   4.952  0.0706 -0.1717 -0.1358
 6450TIP3    H119311   2.445   2.877   4.878 -1.4657 -1.0591 -1.6572
 6450TIP3    H219312   2.324   2.906   4.965  0.3735  0.0128  0.6099
 6451TIP3   OH219313   2.411   0.484   5.028 -0.3024  0.2950  0.0267
 6451TIP3    H119314   2.400   0.389   5.021 -2.4248  0.4718  0.4124
 6451TIP3    H219315   2.482   0.506   4.968  0.6077 -1.6022  0.3900
 6452TIP3   OH219316   5.912   0.959   1.249  0.3246  0.0441 -0.3827
 6452TIP3    H119317   5.869   1.041   1.273  1.5995  0.9723 -1.1583
 6452TIP3    H219318   5.842   0.894   1.247 -1.1354  1.6060 -2.0786
 6453TIP3   OH219319   0.405   4.011   2.499 -0.0191 -0.1886  0.1336
 6453TIP3    H119320   0.318   3.997   2.536 -0.1830  1.6697  0.4861
 6453TIP3    H219321   0.392   4.078   2.431  1.3021  0.9055  0.9259
 6454TIP3   OH219322   6.248   1.208   0.347  0.6888 -0.9220  0.1487
 6454TIP3    H119323   6.267   1.153   0.271 -0.3081 -1.3568  0.2063
 6454TIP3    H219324   6.224   1.293   0.310 -0.2568 -1.2691 -0.0545
 6455TIP3   OH219325   0.112   4.241   3.899  0.8017  0.2909 -0.0335
 6455TIP3    H119326   0.026   4.250   3.939  1.1811  2.6874  0.3103
 6455TIP3    H219327   0.119   4.148   3.878 -2.0027  0.1030 -0.3771
 6456TIP3   OH219328   0.078   1.659   2.048 -0.0046  0.4423 -0.4563
 6456TIP3    H119329   0.125   1.578   2.071  0.6828 -0.2494 -4.0426
 6456TIP3    H219330   0.088   1.715   2.125  2.4780 -1.5801  0.7713
 6457TIP3   OH219331   5.914   2.565   0.841  0.0688  0.1744 -0.0130
 6457TIP3    H119332   5.836   2.620   0.831 -0.8961 -0.7863  1.8775
 6457TIP3    H219333   5.909   2.503   0.769  0.2312  1.4586 -1.1386
 6458TIP3   OH219334   3.520   3.833   5.547 -0.6964  0.1041  0.2680
 6458TIP3    H119335   3.562   3.906   5.501  0.9752 -1.3250 -0.5711
 6458TIP3    H219336   3.587   3.764   5.548 -2.4810 -1.6825  0.3679
 6459TIP3   OH219337   7.575   1.691   2.075  0.1820  0.2631 -0.2446
 6459TIP3    H119338   7.595   1.765   2.133 -1.7760 -0.0853  0.9499
 6459TIP3    H219339   7.657   1.643   2.067  0.6268  0.6013  1.8971
 6460TIP3   OH219340   3.427   5.196   3.967  0.4022  0.3133 -0.0159
 6460TIP3    H119341   3.387   5.141   3.899 -1.2183 -0.4957  1.5554
 6460TIP3    H219342   3.429   5.284   3.929 -1.7771  0.1331 -0.5850
 6461TIP3   OH219343   6.587   2.540   0.447 -0.5253 -0.4534  0.0558
 6461TIP3    H119344   6.635   2.579   0.374  2.1368 -0.1545  1.9072
 6461TIP3    H219345   6.557   2.614   0.499  0.5061 -0.7201  1.0590
 6462TIP3   OH219346   0.716   3.121   4.540 -0.4220  0.2314 -0.7007
 6462TIP3    H119347   0.763   3.039   4.553 -0.7797  0.2641  0.9068
 6462TIP3    H219348   0.653   3.125   4.613 -0.8488  1.6203 -1.1201
 6463TIP3   OH219349   0.130   4.848   6.109  0.2508  0.1386  0.3688
 6463TIP3    H119350   0.188   4.775   6.130 -0.8068 -0.2595  2.0557
 6463TIP3    H219351   0.186   4.911   6.064  1.9153 -0.3874  1.6174
 6464TIP3   OH219352   7.565   3.538   2.823  0.1522  0.0856 -0.7725
 6464TIP3    H119353   7.524   3.624   2.821 -1.2365 -0.4966  1.2722
 6464TIP3    H219354   7.513   3.484   2.764 -0.6540 -0.0462  0.0468
 6465TIP3   OH219355   1.857   5.085   4.581 -0.1824  0.2852 -0.1639
 6465TIP3    H119356   1.884   5.146   4.512 -0.8681 -1.5869 -2.1638
 6465TIP3    H219357   1.931   5.024   4.589 -0.6295 -0.2672 -0.1692
 6466TIP3   OH219358   1.049   5.140   4.300  0.0054  0.2729  0.6370
 6466TIP3    H119359   1.000   5.216   4.330  0.0857  0.8636 -0.6922
 6466TIP3    H219360   1.130   5.175   4.263  1.4941 -0.7041  2.8648
 6467TIP3   OH219361   1.920   3.432   5.826 -0.3589 -0.8237  0.3858
 6467TIP3    H119362   2.004   3.393   5.852 -0.4544  0.2911  2.5028
 6467TIP3    H219363   1.938   3.525   5.816 -1.2345 -0.6500  0.3436
 6468TIP3   OH219364   2.818   3.010   3.052 -0.2998 -0.1515 -0.5981
 6468TIP3    H119365   2.855   3.033   2.967  1.8810  2.3242  0.9508
 6468TIP3    H219366   2.743   3.068   3.062 -0.4983 -0.3743 -0.7927
 6469TIP3   OH219367   0.324   4.766   4.973  0.1785  0.6800 -0.0099
 6469TIP3    H119368   0.396   4.769   5.035 -0.1858  3.0487  0.3585
 6469TIP3    H219369   0.366   4.768   4.887  0.6080 -0.0298  0.1846
 6470TIP3   OH219370   0.878   3.302   6.144  0.1069 -0.4883 -0.0643
 6470TIP3    H119371   0.946   3.352   6.189  0.8655 -0.8987 -0.7372
 6470TIP3    H219372   0.804   3.363   6.138  0.5229  0.0689  0.3988
 6471TIP3   OH219373   0.365   0.942   5.018  0.1216  0.5931 -0.7876
 6471TIP3    H119374   0.351   0.968   5.110 -0.2104 -0.7015 -0.4678
 6471TIP3    H219375   0.317   1.008   4.968  0.0026  1.1038 -0.0145
 6472TIP3   OH219376   0.407   4.100   5.645  0.2324 -0.6722  0.0622
 6472TIP3    H119377   0.423   4.123   5.737  0.4502 -0.3468 -0.0565
 6472TIP3    H219378   0.446   4.013   5.635  2.6642  0.4081 -0.4144
 6473TIP3   OH219379   7.247   3.517   6.273 -0.5656  0.4504 -0.2794
 6473TIP3    H119380   7.289   3.598   6.301 -1.5528  1.0416 -0.5189
 6473TIP3    H219381   7.251   3.519   6.177  1.8946 -1.0937 -0.2560
 6474TIP3   OH219382   1.629   0.704   2.397  0.3627  0.6328 -0.7416
 6474TIP3    H119383   1.630   0.628   2.454  0.1200  0.8150 -0.4909
 6474TIP3    H219384   1.638   0.779   2.456 -2.2468  0.9649 -0.6975
 6475TIP3   OH219385   5.666   7.183  -0.005 -0.2525  0.4396  0.0618
 6475TIP3    H119386   5.598   7.227   0.047  0.3833  0.6714  0.7086
 6475TIP3    H219387   5.666   7.093   0.026 -2.7069 -0.4756 -2.4276
 6476TIP3   OH219388   1.816   5.432   5.617 -0.5165 -0.3340 -0.1482
 6476TIP3    H119389   1.885   5.480   5.662 -2.1748  1.6266  0.3365
 6476TIP3    H219390   1.830   5.452   5.524  0.5288 -1.2339 -0.1904
 6477TIP3   OH219391   0.996   4.237   4.676  0.9847 -0.2040  0.2592
 6477TIP3    H119392   1.085   4.270   4.690  0.8108 -0.1211  1.1747
 6477TIP3    H219393   1.000   4.145   4.702  1.1259 -0.5592 -0.9737
 6478TIP3   OH219394   6.881   1.210   1.207  0.4167  0.2440 -0.3172
 6478TIP3    H119395   6.874   1.305   1.216  0.6294  0.3139 -0.8672
 6478TIP3    H219396   6.947   1.197   1.139 -1.4116 -0.2669 -2.0185
 6479TIP3   OH219397   0.851   3.679   3.783 -0.2272 -0.0749  0.3036
 6479TIP3    H119398   0.797   3.739   3.835 -0.9887  0.9760 -1.6624
 6479TIP3    H219399   0.873   3.609   3.844 -0.5169  1.4633  2.2496
 6480TIP3   OH219400   1.884   4.288   5.750  0.0328  0.2864  0.1639
 6480TIP3    H119401   1.829   4.277   5.672  1.2063 -1.7104 -0.4264
 6480TIP3    H219402   1.955   4.345   5.721  0.3612 -0.2930 -0.1714
 6481TIP3   OH219403   6.601   5.757   4.795 -0.3775 -0.3605 -0.2378
 6481TIP3    H119404   6.688   5.746   4.833 -1.0825  0.2471  1.5981
 6481TIP3    H219405   6.617   5.782   4.704  1.4091  2.7598  0.8864
 6482TIP3   OH219406   6.394   5.851   6.125  0.1596  0.4372 -0.1679
 6482TIP3    H119407   6.435   5.906   6.192 -0.9890  0.4179  0.5676
 6482TIP3    H219408   6.450   5.773   6.121 -0.7446 -0.3895  2.1207
 6483TIP3   OH219409   1.942   4.555   5.104 -0.0091  0.4246 -0.1702
 6483TIP3    H119410   1.921   4.638   5.148  0.6210 -0.1990  1.3499
 6483TIP3    H219411   2.027   4.571   5.064  0.5317  0.2485  0.8798
 6484TIP3   OH219412   7.001   4.050   5.484 -0.3397 -0.3986  0.7273
 6484TIP3    H119413   6.990   4.036   5.390 -1.1229 -0.3999  0.8149
 6484TIP3    H219414   6.922   4.098   5.511  0.9243  1.6086  0.9792
 6485TIP3   OH219415   2.244   4.064   5.692  0.5266  0.3343 -0.2276
 6485TIP3    H119416   2.226   4.158   5.694 -1.8708 -0.0989  0.0208
 6485TIP3    H219417   2.311   4.051   5.759 -0.5639  1.6010  1.1591
 6486TIP3   OH219418   1.925   3.199   5.029  0.0440 -0.3563  0.4662
 6486TIP3    H119419   1.955   3.265   4.967  0.4510 -0.3298  0.6921
 6486TIP3    H219420   1.960   3.227   5.114 -2.3016  0.7906  1.1057
 6487TIP3   OH219421   4.684   5.209   5.186  0.3530  0.0726  0.0207
 6487TIP3    H119422   4.686   5.114   5.173 -1.9606  0.1609 -1.3644
 6487TIP3    H219423   4.713   5.245   5.102  0.4923  0.5941  0.2915
 6488TIP3   OH219424   6.476   3.792   5.276 -0.2732 -0.1948 -0.2072
 6488TIP3    H119425   6.503   3.842   5.199 -0.1739  1.4723  0.8836
 6488TIP3    H219426   6.393   3.830   5.302  0.6506  0.6021  1.6719
 6489TIP3   OH219427   1.746   2.931   5.448  0.0365  0.1565 -0.0743
 6489TIP3    H119428   1.723   3.021   5.424 -1.4815  0.5879  2.7367
 6489TIP3    H219429   1.671   2.880   5.419  0.3635 -0.0184 -0.6026
 6490TIP3   OH219430   7.122   1.345   6.090 -0.3777  0.7070  0.1180
 6490TIP3    H119431   7.077   1.387   6.163 -0.0731  0.4779  0.4417
 6490TIP3    H219432   7.202   1.396   6.077  0.0286  0.1960  0.5586
 6491TIP3   OH219433   6.266   0.258   0.109 -0.3912 -0.2174 -0.0749
 6491TIP3    H119434   6.264   0.353   0.097 -2.4014 -0.3220 -0.7525
 6491TIP3    H219435   6.190   0.239   0.164  0.8532 -1.3028  1.3560
 6492TIP3   OH219436   3.020   4.142   4.581 -0.4423  0.6001  0.4311
 6492TIP3    H119437   2.984   4.075   4.639 -0.7878 -0.2612 -0.7499
 6492TIP3    H219438   3.074   4.197   4.638  1.1916 -1.6702  1.1657
 6493TIP3   OH219439   1.173   1.562   4.924 -0.6509  0.0264  0.2308
 6493TIP3    H119440   1.128   1.557   4.840  0.9306  0.3754 -0.6519
 6493TIP3    H219441   1.105   1.591   4.985 -0.6658  5.3731 -1.9723
 6494TIP3   OH219442   7.747   5.154   6.147  0.5500  0.3236 -0.4991
 6494TIP3    H119443   7.711   5.220   6.088  0.6346 -0.2727 -1.2325
 6494TIP3    H219444   7.685   5.150   6.220  0.9653  1.7677 -0.0665
 6495TIP3   OH219445   2.008   3.688   5.798 -0.1483  0.0367 -0.5923
 6495TIP3    H119446   2.049   3.702   5.712  0.8133 -0.0594 -0.1571
 6495TIP3    H219447   2.023   3.770   5.845 -0.5991  0.0582 -0.4872
 6496TIP3   OH219448   4.156   6.946   0.187 -0.2578  0.2927  0.0229
 6496TIP3    H119449   4.064   6.970   0.194 -0.5573 -0.8942  0.2325
 6496TIP3    H219450   4.167   6.919   0.096  0.1012  1.2760 -0.2375
 6497TIP3   OH219451   0.628   5.282   6.279  0.3619 -0.8098  0.7626
 6497TIP3    H119452   0.572   5.325   6.214  0.2651  1.6163  2.3879
 6497TIP3    H219453   0.617   5.189   6.263 -1.5985 -0.2929 -1.0567
 6498TIP3   OH219454   5.386   0.032   0.079  0.3868  0.0847  0.0368
 6498TIP3    H119455   5.351  -0.006  -0.001 -1.8028  1.3070  0.3604
 6498TIP3    H219456   5.310   0.072   0.122  1.6071 -0.0249  2.4254
 6499TIP3   OH219457   1.394   3.834   5.046 -0.1109  0.2954 -0.4171
 6499TIP3    H119458   1.404   3.748   5.088  0.2101  0.3763 -0.3241
 6499TIP3    H219459   1.456   3.890   5.092 -1.2857  0.9147  0.4332
 6500TIP3   OH219460   3.599   5.453   1.711  0.4196 -0.3589  0.5552
 6500TIP3    H119461   3.551   5.525   1.750  1.9529  0.3474  1.1769
 6500TIP3    H219462   3.657   5.494   1.646  0.2128 -1.1887 -0.1714
 6501TIP3   OH219463   7.358   0.594   1.005 -0.6865  0.1078 -0.1942
 6501TIP3    H119464   7.359   0.667   0.944  3.5597 -0.0467 -0.4595
 6501TIP3    H219465   7.350   0.516   0.950  2.5268  0.0047 -0.6016
 6502TIP3   OH219466   1.803   5.277   6.310  0.7078  0.2598 -0.0754
 6502TIP3    H119467   1.852   5.287   6.392  2.1978 -0.9779 -0.7907
 6502TIP3    H219468   1.869   5.285   6.242 -0.4939  1.0823 -1.1791
 6503TIP3   OH219469   5.892   0.359   1.954  0.2655 -0.2021  0.4235
 6503TIP3    H119470   5.939   0.327   2.031  0.7923 -0.1997  0.1010
 6503TIP3    H219471   5.956   0.356   1.883 -0.2685 -0.3750 -0.0581
 6504TIP3   OH219472   3.791   7.143   2.604  0.5081 -0.0851  0.1850
 6504TIP3    H119473   3.787   7.078   2.673 -0.4486  0.1074  0.3234
 6504TIP3    H219474   3.884   7.160   2.591  0.6717  0.8768  2.3703
 6505TIP3   OH219475   4.397   5.013   1.696  0.2041 -0.5448 -0.1764
 6505TIP3    H119476   4.361   4.942   1.642  1.2769 -1.2497  0.0142
 6505TIP3    H219477   4.326   5.077   1.701 -0.4107 -1.1144 -1.2427
 6506TIP3   OH219478   0.760   4.515   4.277 -0.0562 -0.3075 -0.0227
 6506TIP3    H119479   0.743   4.576   4.205  3.4236 -0.7836 -1.3441
 6506TIP3    H219480   0.761   4.570   4.355  2.3371  1.2686 -1.1151
 6507TIP3   OH219481   4.057   4.109   4.835 -0.0715 -0.3510  0.1107
 6507TIP3    H119482   4.136   4.057   4.841 -0.5602 -1.1976 -0.6593
 6507TIP3    H219483   4.052   4.134   4.743 -0.4126  0.1479  0.2610
 6508TIP3   OH219484   1.473   5.940   6.064  0.7116  0.1051  0.1040
 6508TIP3    H119485   1.443   5.950   6.155  0.4469 -0.9522  0.1489
 6508TIP3    H219486   1.550   5.883   6.071 -0.4792 -1.6173 -0.5086
 6509TIP3   OH219487   4.441   3.472   0.618 -0.1600  1.0682  0.1412
 6509TIP3    H119488   4.361   3.433   0.582 -0.2064  0.3082  1.0428
 6509TIP3    H219489   4.418   3.493   0.709  0.5208  1.2911  0.2602
 6510TIP3   OH219490   0.901   3.844   3.110 -0.7047 -0.4387  0.8360
 6510TIP3    H119491   0.874   3.800   3.191 -0.6029  0.7559  1.5366
 6510TIP3    H219492   0.997   3.837   3.111 -0.7668 -1.3562  0.2790
 6511TIP3   OH219493   2.050   5.630   4.309  0.0189  0.0775  0.4153
 6511TIP3    H119494   2.115   5.687   4.350  0.2559 -0.1161  0.3101
 6511TIP3    H219495   2.030   5.673   4.225  1.0740 -0.6050 -0.1965
 6512TIP3   OH219496   0.006   4.944   5.115 -0.6746 -0.0183  0.2922
 6512TIP3    H119497   0.019   4.954   5.210  2.9390 -1.3532 -0.0085
 6512TIP3    H219498   0.071   5.003   5.076  1.4138 -3.2875 -1.3237
 6513TIP3   OH219499   2.118   4.092   5.156  0.0589 -0.3862 -0.1733
 6513TIP3    H119500   2.184   4.064   5.219 -0.3638 -0.5042  0.2208
 6513TIP3    H219501   2.088   4.177   5.189  0.0813 -0.2865 -0.4040
 6514TIP3   OH219502   0.732   4.563   3.774  0.2107 -0.3288 -0.1086
 6514TIP3    H119503   0.750   4.630   3.839  0.8453  1.0687 -1.6777
 6514TIP3    H219504   0.810   4.562   3.718  0.4666 -2.8077  0.2440
 6515TIP3   OH219505   2.230   5.821   4.352 -0.1257 -0.3050  0.2931
 6515TIP3    H119506   2.279   5.889   4.399  1.0711 -0.9548  0.0106
 6515TIP3    H219507   2.147   5.863   4.328  0.4952  0.9705  0.3548
 6516TIP3   OH219508   1.970   5.754   5.672 -0.1095 -0.3168  0.0600
 6516TIP3    H119509   1.959   5.829   5.730 -0.5124 -0.7190  0.5100
 6516TIP3    H219510   2.064   5.750   5.655 -0.1636  0.7183 -0.5423
 6517TIP3   OH219511   2.811   3.305   4.756  0.0805 -0.0965  0.1264
 6517TIP3    H119512   2.729   3.293   4.707  0.1236 -0.1106  0.0572
 6517TIP3    H219513   2.878   3.313   4.688 -0.3407  3.6170  0.0835
 6518TIP3   OH219514   3.841   6.152   0.091 -0.0861  0.1408  0.2756
 6518TIP3    H119515   3.837   6.121   0.001  0.2903 -1.3634  0.7689
 6518TIP3    H219516   3.929   6.189   0.099  0.0075 -0.0488  0.1268
 6519TIP3   OH219517   7.357   3.747   4.647 -0.1387 -0.3224  0.4096
 6519TIP3    H119518   7.438   3.752   4.698 -0.7044 -0.2973  1.3247
 6519TIP3    H219519   7.384   3.764   4.557  0.4496  2.7247  1.1155
 6520TIP3   OH219520   0.265   3.677   2.704  0.0699 -0.3186 -0.5265
 6520TIP3    H119521   0.217   3.697   2.785  1.7410  0.4508  0.2876
 6520TIP3    H219522   0.196   3.662   2.639 -1.3072  2.8133  0.1142
 6521TIP3   OH219523   5.707   7.247   0.937 -0.0922 -0.7058  0.3790
 6521TIP3    H119524   5.763   7.287   0.870 -0.1538  2.5290  2.1352
 6521TIP3    H219525   5.763   7.182   0.980  1.1551 -0.0758 -0.2700
 6522TIP3   OH219526   5.019   6.984   0.654 -0.1295  0.4955  0.2088
 6522TIP3    H119527   5.095   7.037   0.629 -0.9317  0.4098 -2.5465
 6522TIP3    H219528   5.014   6.993   0.750  3.3592  0.4259  0.4498
 6523TIP3   OH219529   2.683   2.839   5.231 -0.3299  0.3889 -0.6572
 6523TIP3    H119530   2.662   2.747   5.240 -2.2901  0.7570 -1.3380
 6523TIP3    H219531   2.758   2.841   5.172  1.0288 -0.8624  0.9625
 6524TIP3   OH219532   1.772   4.108   4.277  0.0326 -0.1164 -0.4439
 6524TIP3    H119533   1.721   4.031   4.303  0.2255 -0.1326 -0.1016
 6524TIP3    H219534   1.863   4.078   4.283  0.0669 -0.2051 -1.4180
 6525TIP3   OH219535   0.949   2.515   4.576 -0.4351  0.3493  0.0172
 6525TIP3    H119536   0.941   2.436   4.629  1.2685 -1.5335 -2.3913
 6525TIP3    H219537   0.870   2.565   4.594 -1.3684 -1.7358  1.8766
 6526TIP3   OH219538   2.832   4.718   5.574  0.3851  0.7657 -0.4728
 6526TIP3    H119539   2.840   4.625   5.552  0.4698  0.6504  0.0495
 6526TIP3    H219540   2.911   4.758   5.538  0.7049  0.5138 -0.0533
 6527TIP3   OH219541   2.204   3.031   4.958  0.1922 -0.0246 -0.2565
 6527TIP3    H119542   2.176   3.107   4.908  0.4312  0.4681  0.3407
 6527TIP3    H219543   2.207   3.062   5.049  1.1083 -0.5011 -0.1111
 6528TIP3   OH219544   6.967   1.408   0.311 -0.8616  0.5901  0.5551
 6528TIP3    H119545   7.038   1.446   0.258 -1.8830  0.2324 -1.0968
 6528TIP3    H219546   6.983   1.314   0.309 -0.9265  0.5731  0.8453
 6529TIP3   OH219547   3.021   5.697   5.639 -0.3777  0.2194  0.3954
 6529TIP3    H119548   3.000   5.754   5.712 -0.8542  1.2016 -0.5009
 6529TIP3    H219549   3.046   5.757   5.568 -2.5231 -0.5841 -1.0864
 6530TIP3   OH219550   6.807   6.606   5.017  0.2032  0.0207 -0.5575
 6530TIP3    H119551   6.886   6.569   4.978  0.8574 -0.0302  0.7895
 6530TIP3    H219552   6.772   6.536   5.071 -0.3078  0.3195 -0.4982
 6531TIP3   OH219553   2.419   3.644   6.240  0.2350  0.8040 -0.0566
 6531TIP3    H119554   2.515   3.652   6.246  0.3284 -0.4772  0.1859
 6531TIP3    H219555   2.405   3.560   6.198 -0.8017  0.9700 -0.0404
 6532TIP3   OH219556   5.763   6.565   5.617  0.1362 -0.5025  0.2921
 6532TIP3    H119557   5.687   6.607   5.576  0.7265  0.2030 -0.1016
 6532TIP3    H219558   5.791   6.499   5.554  0.7117  0.2094 -0.2015
 6533TIP3   OH219559   6.572   0.723   0.658  0.7430 -0.4070 -0.3103
 6533TIP3    H119560   6.624   0.648   0.685  1.0729 -0.5982 -1.4431
 6533TIP3    H219561   6.601   0.742   0.569  0.2432  0.6934 -0.2504
 6534TIP3   OH219562   5.142   3.705   1.539 -0.1147 -0.1924 -0.1481
 6534TIP3    H119563   5.224   3.739   1.574 -1.5359  1.8173  1.3843
 6534TIP3    H219564   5.128   3.755   1.458  0.1410 -0.4817 -0.3704
 6535TIP3   OH219565   7.679   3.490   5.522 -0.1324 -0.1030  0.3774
 6535TIP3    H119566   7.646   3.400   5.520 -0.5922  0.0737 -0.0230
 6535TIP3    H219567   7.766   3.486   5.482 -0.3329 -0.2952 -0.0379
 6536TIP3   OH219568   1.382   4.368   6.057  0.1595 -0.2062 -0.0037
 6536TIP3    H119569   1.327   4.346   6.133 -2.0048 -0.2107 -1.5303
 6536TIP3    H219570   1.420   4.285   6.031 -1.6154 -0.7918 -0.8298
 6537TIP3   OH219571   3.438   3.320   5.198 -0.2518  0.0636  0.1416
 6537TIP3    H119572   3.395   3.391   5.151  0.8321 -0.4855 -1.7498
 6537TIP3    H219573   3.499   3.282   5.134 -1.8366 -3.5010  0.6323
 6538TIP3   OH219574   1.361   3.508   2.883 -0.0190 -0.9322 -0.5413
 6538TIP3    H119575   1.406   3.463   2.954 -1.1095 -0.9849  0.1291
 6538TIP3    H219576   1.306   3.441   2.843 -2.3812 -0.0370  1.0759
 6539TIP3   OH219577   6.386   4.115   5.256 -0.3874 -0.0051 -0.1163
 6539TIP3    H119578   6.440   4.068   5.192  0.0960 -1.2488  1.1946
 6539TIP3    H219579   6.299   4.116   5.216  0.0159 -0.3278 -1.0306
 6540TIP3   OH219580   1.383   5.846   5.657  0.1392 -0.1465  0.1535
 6540TIP3    H119581   1.459   5.809   5.703  1.0997  0.1084 -1.1707
 6540TIP3    H219582   1.365   5.783   5.587  0.0974  0.5563 -0.4763
 6541TIP3   OH219583   1.025   6.429   0.799  0.3707 -0.7096 -0.3226
 6541TIP3    H119584   1.009   6.429   0.893  1.6380  3.2443 -0.0190
 6541TIP3    H219585   1.114   6.397   0.789 -0.2096 -2.3506 -0.2964
 6542TIP3   OH219586   1.153   4.054   3.154  0.2548 -0.3548  0.2241
 6542TIP3    H119587   1.171   3.963   3.131  0.3128 -0.1103 -0.7022
 6542TIP3    H219588   1.218   4.074   3.222  0.2104 -1.0129  0.4651
 6543TIP3   OH219589  -0.012   2.897   4.507  0.5308  0.4330 -0.0077
 6543TIP3    H119590  -0.000   2.805   4.529 -0.1064  0.3861  0.1494
 6543TIP3    H219591   0.076   2.935   4.513  0.6118  0.0777  1.0390
 6544TIP3   OH219592   0.718   4.345   4.604  0.6695 -0.1364 -0.0564
 6544TIP3    H119593   0.747   4.436   4.607 -0.1338  0.1494 -0.9165
 6544TIP3    H219594   0.735   4.312   4.692  0.4563  0.9970  0.4218
 6545TIP3   OH219595   7.628   4.219   5.769  0.3174 -0.4438  0.0069
 6545TIP3    H119596   7.574   4.164   5.826  0.3042 -1.2001 -0.7180
 6545TIP3    H219597   7.609   4.308   5.795 -0.2006 -0.7659  0.7267
 6546TIP3   OH219598   0.671   5.726   4.467 -0.4384  0.6599  0.0013
 6546TIP3    H119599   0.722   5.695   4.393 -0.8274  0.2222 -0.0836
 6546TIP3    H219600   0.594   5.767   4.428 -1.8528 -1.7256  0.2210
 6547TIP3   OH219601   7.327   1.498   6.023  0.8970 -0.1716  0.2230
 6547TIP3    H119602   7.412   1.480   6.064  0.6627 -1.3785  0.2136
 6547TIP3    H219603   7.335   1.461   5.935  0.8008  0.8569 -0.2210
 6548TIP3   OH219604   6.270   1.046   0.109  0.6235  0.1879 -0.3264
 6548TIP3    H119605   6.336   0.982   0.083 -0.7752 -1.0687 -0.8764
 6548TIP3    H219606   6.256   1.100   0.031  0.4466 -0.0352 -0.4490
 6549TIP3   OH219607   1.907   3.895   5.223  0.1267  0.0842 -0.0385
 6549TIP3    H119608   1.962   3.970   5.200 -0.7841  0.5373 -0.7987
 6549TIP3    H219609   1.940   3.866   5.308  0.8625  0.9908 -0.0040
 6550TIP3   OH219610   1.472   6.770   0.944 -0.0387  0.0498  0.3094
 6550TIP3    H119611   1.471   6.848   0.888  0.1442 -0.7616 -0.8428
 6550TIP3    H219612   1.404   6.787   1.009 -0.8871  0.6149 -0.7035
 6551TIP3   OH219613   1.590   4.417   3.457 -0.5130  0.1524  0.2577
 6551TIP3    H119614   1.565   4.325   3.449  0.9639 -0.2439 -0.0995
 6551TIP3    H219615   1.523   4.456   3.512 -2.1945 -0.7094 -1.1293
 6552TIP3   OH219616   3.240   5.914   5.314  0.1421 -0.0268  0.2150
 6552TIP3    H119617   3.163   5.918   5.371 -0.0797 -3.1627  0.2280
 6552TIP3    H219618   3.207   5.932   5.227 -0.4169 -0.1620  0.3970
 6553TIP3   OH219619   3.450   4.519   4.274 -0.5640  0.4130 -0.0255
 6553TIP3    H119620   3.513   4.545   4.341 -0.4101  0.4481 -0.1831
 6553TIP3    H219621   3.499   4.458   4.219 -0.9266 -0.2255  0.3534
 6554TIP3   OH219622   2.684   4.964   4.434 -0.1991  0.9333  0.2024
 6554TIP3    H119623   2.706   4.901   4.365  0.7679  1.4780  0.0000
 6554TIP3    H219624   2.628   5.028   4.391 -1.9828 -0.2834  0.6403
 6555TIP3   OH219625   1.486   5.519   4.882  0.4615  0.2992 -0.3517
 6555TIP3    H119626   1.391   5.530   4.873  0.7542  1.8195 -1.7559
 6555TIP3    H219627   1.509   5.455   4.815  0.4346 -0.1028  0.0179
 6556TIP3   OH219628   1.477   5.465   5.956 -0.5033 -0.1815  0.2373
 6556TIP3    H119629   1.458   5.552   5.919  0.4940 -0.0369  0.0664
 6556TIP3    H219630   1.509   5.482   6.044 -4.1937 -0.5985  1.7354
 6557TIP3   OH219631   3.681   5.760   5.647  0.2065 -0.3631 -0.5605
 6557TIP3    H119632   3.734   5.687   5.618 -0.3232 -0.3375 -1.6424
 6557TIP3    H219633   3.743   5.821   5.688  1.0151 -0.3450 -1.7726
 6558TIP3   OH219634   2.999   4.281   3.147  0.1456 -0.2824  0.5645
 6558TIP3    H119635   3.062   4.352   3.158  1.1096 -1.1242  0.4455
 6558TIP3    H219636   2.977   4.254   3.236  0.1257 -0.1584  0.5979
 6559TIP3   OH219637   3.536   3.271   3.336 -0.5735  0.1824 -0.0948
 6559TIP3    H119638   3.598   3.221   3.283 -0.2169  0.4013  0.1121
 6559TIP3    H219639   3.450   3.240   3.308 -0.3480 -0.7380  0.2147
 6560TIP3   OH219640   1.745   3.238   5.814  0.3509 -0.0653  0.2179
 6560TIP3    H119641   1.688   3.223   5.889 -0.3170  0.6248 -0.1444
 6560TIP3    H219642   1.817   3.291   5.849  1.4346 -1.9791  0.9485
 6561TIP3   OH219643   2.595   3.266   5.948 -0.7464  0.2464 -0.3023
 6561TIP3    H119644   2.666   3.236   5.891 -0.4757  1.6040 -0.6912
 6561TIP3    H219645   2.620   3.355   5.973 -1.4379  0.0869  1.0058
 6562TIP3   OH219646   3.536   5.588   5.415  0.2749 -0.2158 -0.5242
 6562TIP3    H119647   3.560   5.594   5.507 -2.3043  0.7723  0.1331
 6562TIP3    H219648   3.576   5.666   5.375 -0.9241  0.8634  0.3401
 6563TIP3   OH219649   5.064   6.953   0.957  0.1559 -0.6760 -0.3346
 6563TIP3    H119650   5.000   6.889   0.989  0.7299 -1.4234 -0.6633
 6563TIP3    H219651   5.053   7.029   1.015 -2.8927  0.2785 -2.0647
 6564TIP3   OH219652   2.715   4.930   3.776  0.1113 -0.3898 -0.2445
 6564TIP3    H119653   2.663   4.856   3.745 -0.3720  0.4629 -1.5104
 6564TIP3    H219654   2.698   4.933   3.870 -0.9769 -1.0170 -0.4125
 6565TIP3   OH219655   3.243   4.324   4.483 -0.1384 -0.4681  0.1722
 6565TIP3    H119656   3.278   4.252   4.431 -0.7171  0.8596 -2.1422
 6565TIP3    H219657   3.235   4.288   4.571  0.4171 -2.9543 -0.7369
 6566TIP3   OH219658   2.429   3.093   3.314 -0.3095 -0.0026 -0.3125
 6566TIP3    H119659   2.441   3.020   3.374 -1.8930  0.2508  0.3564
 6566TIP3    H219660   2.344   3.077   3.273 -1.5047  2.2969  1.1168
 6567TIP3   OH219661   2.091   2.427   5.973 -0.6857 -0.8571 -0.6814
 6567TIP3    H119662   2.102   2.343   6.019  1.8808 -0.3070 -0.1909
 6567TIP3    H219663   2.031   2.477   6.028  0.3222 -1.1869  0.7517
 6568TIP3   OH219664   2.919   3.963   4.775  0.1039 -0.3586 -0.2978
 6568TIP3    H119665   2.884   3.874   4.774 -0.2970 -0.2156  0.4611
 6568TIP3    H219666   2.983   3.963   4.846 -0.1692  0.0517 -0.0484
 6569TIP3   OH219667   1.754   4.524   4.608 -0.4465 -0.2836 -0.0209
 6569TIP3    H119668   1.674   4.471   4.607  0.2663 -1.3773 -1.3414
 6569TIP3    H219669   1.798   4.500   4.689  1.2421 -3.9254 -1.8503
 6570TIP3   OH219670   2.529   3.344   3.697  0.9634 -0.5696  0.0849
 6570TIP3    H119671   2.539   3.287   3.621 -0.2148  0.8653 -1.1821
 6570TIP3    H219672   2.593   3.414   3.684  1.5682 -0.9353  1.0155
 6571TIP3   OH219673   4.221   4.984   4.985 -0.0312 -0.3941  0.0157
 6571TIP3    H119674   4.165   5.026   5.050 -0.2179  0.1999 -0.5194
 6571TIP3    H219675   4.270   4.918   5.034  0.3278  0.5020  0.8724
 6572TIP3   OH219676   1.273   2.360   3.893  0.0722  0.1566  0.0664
 6572TIP3    H119677   1.301   2.278   3.933 -1.2674  0.1605  1.0306
 6572TIP3    H219678   1.296   2.427   3.957  0.7619  0.4990 -0.5288
 6573TIP3   OH219679   3.393   5.642   1.425  0.0864 -0.8313  0.5394
 6573TIP3    H119680   3.396   5.707   1.495  1.6845  1.1311 -1.3379
 6573TIP3    H219681   3.419   5.689   1.346  0.8634 -3.6372 -0.9407
 6574TIP3   OH219682   2.479   3.761   5.300 -0.4570 -0.2280  0.0591
 6574TIP3    H119683   2.451   3.852   5.304  0.7088  0.1605 -0.2300
 6574TIP3    H219684   2.449   3.731   5.214 -1.1294 -0.2177  0.2881
 6575TIP3   OH219685   3.359   6.062   6.072 -0.3894 -0.6835  0.1061
 6575TIP3    H119686   3.395   6.057   5.984  0.1828 -0.0433  0.2994
 6575TIP3    H219687   3.296   6.134   6.068  0.9940  0.5835  0.6889
 6576TIP3   OH219688   2.950   4.456   4.464 -0.4630 -0.4075 -0.0563
 6576TIP3    H119689   3.001   4.530   4.498 -0.4262 -0.9691  1.1107
 6576TIP3    H219690   2.878   4.446   4.525  0.6195 -2.5794  0.9221
 6577TIP3   OH219691   3.965   4.111   5.243  0.4499  0.1666  0.9472
 6577TIP3    H119692   4.011   4.172   5.300  3.3478 -1.6963  0.6896
 6577TIP3    H219693   3.988   4.139   5.154 -1.3063  0.9886  0.7311
 6578TIP3   OH219694   2.792   4.235   4.323  0.1120 -0.5474  0.0358
 6578TIP3    H119695   2.788   4.226   4.228  2.6610  3.8883 -0.6350
 6578TIP3    H219696   2.712   4.282   4.346 -0.8752 -2.2904  0.2169
 6579TIP3   OH219697   3.011   4.058   4.255  0.7829 -0.0457  0.7147
 6579TIP3    H119698   2.953   4.058   4.179  0.7048 -1.0548  0.7768
 6579TIP3    H219699   3.083   4.000   4.230  1.4294  0.6702  0.9010
 6580TIP3   OH219700   1.359   4.282   4.329  0.2070 -0.2573  0.4312
 6580TIP3    H119701   1.351   4.196   4.286  2.5047  0.4243 -1.4823
 6580TIP3    H219702   1.313   4.342   4.271  1.4995  0.3298  0.0033
 6581TIP3   OH219703   4.580   0.233   6.159 -0.3667  0.3239 -0.3976
 6581TIP3    H119704   4.527   0.240   6.080  0.0406  0.3764 -0.6704
 6581TIP3    H219705   4.597   0.323   6.184  0.6252  0.3151 -1.0150
 6582TIP3   OH219706   7.031   6.730   5.438  0.5803  0.1166  0.2183
 6582TIP3    H119707   7.065   6.650   5.397 -1.0075 -0.3602 -0.2162
 6582TIP3    H219708   6.990   6.778   5.366 -0.3860  0.2770  0.8653
 6583TIP3   OH219709   5.250   6.139   1.322 -0.0904  0.1048  0.0374
 6583TIP3    H119710   5.164   6.144   1.281 -0.9160 -1.1655  1.5665
 6583TIP3    H219711   5.285   6.054   1.293  0.6419  0.6155 -0.5762
 6584TIP3   OH219712   4.963   6.708   3.925 -0.0801  0.0969  0.0257
 6584TIP3    H119713   5.023   6.782   3.938 -0.2571 -0.0987  2.2136
 6584TIP3    H219714   4.883   6.747   3.890  0.3625  0.7420 -0.2677
 6585TIP3   OH219715   6.825   1.283   1.705 -0.5792 -0.6157 -0.2335
 6585TIP3    H119716   6.910   1.273   1.664 -1.4821 -1.8383 -1.8892
 6585TIP3    H219717   6.810   1.378   1.708  0.9232 -0.3879  0.3244
 6586TIP3   OH219718   2.082   5.130   3.158  0.0785 -0.6634  0.5682
 6586TIP3    H119719   2.041   5.097   3.078 -0.5660 -2.2182  1.4985
 6586TIP3    H219720   2.142   5.198   3.129 -0.1977 -1.1638 -1.2269
 6587TIP3   OH219721   4.310   5.006   3.955  0.0644 -0.2082 -0.3575
 6587TIP3    H119722   4.246   4.950   3.911 -0.1003  0.6014 -1.1702
 6587TIP3    H219723   4.288   5.095   3.926  1.4819  0.0932 -0.5686
 6588TIP3   OH219724   2.852   4.595   2.752 -0.2797 -0.4737 -0.1916
 6588TIP3    H119725   2.860   4.621   2.660  0.3292 -1.0538 -0.3122
 6588TIP3    H219726   2.927   4.635   2.795  0.2043 -1.3238 -0.2217
 6589TIP3   OH219727   7.600   0.432   0.190 -0.1440  0.1055  0.2607
 6589TIP3    H119728   7.505   0.428   0.192 -0.1232 -0.3788  0.3280
 6589TIP3    H219729   7.628   0.398   0.275  0.0858  0.3424  0.2802
 6590TIP3   OH219730   0.794   3.021   3.707  0.5333 -0.4657  0.3812
 6590TIP3    H119731   0.831   3.079   3.641  0.0490  0.6344  1.0598
 6590TIP3    H219732   0.815   2.933   3.677  0.1228  0.0204 -1.3319
 6591TIP3   OH219733   3.108   7.008   6.335 -0.2856 -0.1281  0.1822
 6591TIP3    H119734   3.143   7.020   6.423  1.1323 -0.5184 -0.3040
 6591TIP3    H219735   3.078   7.095   6.308 -0.7054 -0.0100  1.0391
 6592TIP3   OH219736   2.218   6.616   5.207 -0.6460  0.0332  0.2829
 6592TIP3    H119737   2.193   6.615   5.300 -0.3473  0.6265  0.3731
 6592TIP3    H219738   2.312   6.634   5.208 -0.8201  1.0382 -0.1575
 6593TIP3   OH219739   7.630   7.013   4.002  0.3834  0.0117  0.1570
 6593TIP3    H119740   7.553   6.960   3.985  2.0344 -1.2633 -4.1829
 6593TIP3    H219741   7.628   7.080   3.934  1.7717  1.4899  1.5392
 6594TIP3   OH219742   2.063   4.928   4.627  0.5575  0.2241 -0.3093
 6594TIP3    H119743   2.112   4.956   4.550 -1.2591 -0.6328 -1.8029
 6594TIP3    H219744   2.031   4.840   4.605 -2.5607  1.1740  0.1476
 6595TIP3   OH219745   3.734   5.830   3.015  0.3960  0.4795  0.2688
 6595TIP3    H119746   3.797   5.760   2.998  1.2319  1.3161 -0.1527
 6595TIP3    H219747   3.660   5.787   3.058  2.0263 -0.2282  2.4051
 6596TIP3   OH219748   3.490   5.333   4.863  0.4363  0.3168  0.0555
 6596TIP3    H119749   3.499   5.428   4.849 -0.4128  0.4191  0.1545
 6596TIP3    H219750   3.480   5.323   4.957 -2.5712  0.4309 -0.1979
 6597TIP3   OH219751   3.617   4.635   4.491  0.0601 -0.3933  0.2279
 6597TIP3    H119752   3.673   4.618   4.566  0.3594 -0.8437 -0.0953
 6597TIP3    H219753   3.541   4.682   4.528  1.5417  1.9686  0.3620
 6598TIP3   OH219754   3.403   4.867   5.407  0.0498 -0.3721  0.3378
 6598TIP3    H119755   3.442   4.921   5.476  0.1211 -0.6538  0.5148
 6598TIP3    H219756   3.322   4.914   5.385  0.0982 -0.2041  0.5089
 6599TIP3   OH219757   3.486   2.306   4.502 -0.4056 -0.0834 -0.8378
 6599TIP3    H119758   3.461   2.227   4.550 -0.1050 -0.0634 -0.6440
 6599TIP3    H219759   3.416   2.368   4.520  0.7181  0.6391  1.3256
 6600TIP3   OH219760   5.388   4.503   4.453  0.3645 -0.1008  0.2111
 6600TIP3    H119761   5.362   4.493   4.545  1.7727  0.9534  0.7425
 6600TIP3    H219762   5.443   4.427   4.435 -1.2107 -1.1562 -0.2561
 6601TIP3   OH219763   5.862   4.655   0.932 -0.0692 -0.2169  0.0042
 6601TIP3    H119764   5.794   4.592   0.956 -0.4669  0.0942 -0.2891
 6601TIP3    H219765   5.908   4.673   1.014  1.5422 -2.6384 -0.3393
 6602TIP3   OH219766   3.323   3.754   3.742 -0.6222 -0.0628  0.2628
 6602TIP3    H119767   3.235   3.790   3.752  1.1803  4.8343 -0.3326
 6602TIP3    H219768   3.374   3.793   3.813  2.1759  1.0651 -2.2455
 6603TIP3   OH219769   6.424   4.556   5.502  0.3925 -0.0079  0.5115
 6603TIP3    H119770   6.361   4.619   5.535 -0.6716 -0.3032 -0.9108
 6603TIP3    H219771   6.375   4.474   5.496  1.2555 -0.5380  0.5796
 6604TIP3   OH219772   2.326   4.426   5.199 -0.0200  0.3766  0.7417
 6604TIP3    H119773   2.347   4.372   5.123 -2.0824  2.6470 -1.5268
 6604TIP3    H219774   2.249   4.384   5.237 -0.4162  0.5673  0.1587
 6605TIP3   OH219775   6.164   6.593   0.584  0.2240 -0.2594  0.3659
 6605TIP3    H119776   6.159   6.672   0.531 -0.5748  0.5133  1.5591
 6605TIP3    H219777   6.175   6.624   0.674  1.7271 -1.5510  0.6538
 6606TIP3   OH219778   3.460   5.107   5.570  0.7587 -0.0965  0.1753
 6606TIP3    H119779   3.542   5.089   5.615  1.3076  1.4198 -0.1786
 6606TIP3    H219780   3.431   5.191   5.605 -0.4806 -0.4756  0.0759
 6607TIP3   OH219781   2.318   5.916   6.215  0.1192 -0.0637  0.2408
 6607TIP3    H119782   2.224   5.933   6.214 -0.3711 -2.5152  0.8323
 6607TIP3    H219783   2.334   5.867   6.135  0.8502  0.1056  0.2812
 6608TIP3   OH219784   2.091   3.705   3.773 -0.0014  0.3160 -0.2327
 6608TIP3    H119785   2.134   3.758   3.706  1.9973  0.8566  1.4123
 6608TIP3    H219786   2.153   3.634   3.791 -1.2067 -0.7155 -0.0831
 6609TIP3   OH219787   6.815   1.317   0.089  0.2734  0.0089  0.2875
 6609TIP3    H119788   6.815   1.395   0.145 -1.4694 -0.5520  1.1279
 6609TIP3    H219789   6.776   1.249   0.144 -2.2891 -0.3471 -1.8640
 6610TIP3   OH219790   2.047   3.191   1.823 -0.0432 -0.0919  0.1978
 6610TIP3    H119791   2.138   3.205   1.797  0.4530  0.4142  2.0637
 6610TIP3    H219792   1.999   3.262   1.780  0.8138  1.0054  1.0046
 6611TIP3   OH219793   4.732   4.207   4.443  0.0698 -0.3424 -0.7767
 6611TIP3    H119794   4.735   4.115   4.415 -1.6395 -1.3766  2.2173
 6611TIP3    H219795   4.650   4.240   4.407  0.8695  0.1241 -2.1732
 6612TIP3   OH219796   4.779   0.670   5.944 -0.5519  0.0321  0.0762
 6612TIP3    H119797   4.838   0.622   5.886 -0.6539  0.3191 -0.2622
 6612TIP3    H219798   4.767   0.755   5.902 -1.2058 -0.0214  0.1453
 6613TIP3   OH219799   3.284   5.812   6.108  0.3313  0.3175  0.0134
 6613TIP3    H119800   3.233   5.815   6.027  0.3752  0.8691  0.0020
 6613TIP3    H219801   3.325   5.898   6.114  2.1528 -0.4756 -0.5457
 6614TIP3   OH219802   1.249   3.394   4.316  0.2828  0.0057  0.1058
 6614TIP3    H119803   1.175   3.395   4.254  0.1163  0.8743  0.3184
 6614TIP3    H219804   1.208   3.397   4.402  0.5293 -0.8280  0.2540
 6615TIP3   OH219805   3.423   5.050   5.059 -0.0096  0.3600  0.3539
 6615TIP3    H119806   3.402   4.967   5.101  0.1035 -0.9157 -2.0267
 6615TIP3    H219807   3.353   5.110   5.087 -0.3036 -0.6153  1.7659
 6616TIP3   OH219808   1.949   5.936   5.388 -0.4282  0.4891  0.2250
 6616TIP3    H119809   1.863   5.979   5.386 -0.0230  1.6524  3.4811
 6616TIP3    H219810   1.937   5.861   5.447  0.5411  0.1345 -0.0245
 6617TIP3   OH219811   3.658   4.784   4.231  0.1908  0.4567  0.2507
 6617TIP3    H119812   3.692   4.872   4.249  0.8726  0.1619  0.4049
 6617TIP3    H219813   3.658   4.740   4.315  0.4469  0.0991  0.0643
 6618TIP3   OH219814   7.547   1.994   1.236  0.2787  0.3615  0.1168
 6618TIP3    H119815   7.493   1.986   1.315 -0.3690 -4.2442 -0.6662
 6618TIP3    H219816   7.496   1.952   1.167  2.7341  0.3114 -1.7426
 6619TIP3   OH219817   1.902   4.643   3.239  0.2473  0.1364 -0.9891
 6619TIP3    H119818   1.949   4.643   3.156  2.6514 -0.0505  0.3188
 6619TIP3    H219819   1.901   4.551   3.266  1.1734  0.4038  0.0552
 6620TIP3   OH219820   4.851   1.480   1.332 -0.1247  0.0540 -0.2361
 6620TIP3    H119821   4.940   1.467   1.366  0.1272 -0.4169 -1.0779
 6620TIP3    H219822   4.809   1.395   1.340  0.3190 -0.3674 -2.2088
 6621TIP3   OH219823   3.888   4.275   6.356 -0.6051 -0.0599  0.3518
 6621TIP3    H119824   3.824   4.235   6.296 -1.0432 -0.1298  0.8578
 6621TIP3    H219825   3.834   4.321   6.420 -0.2115 -1.5657  1.7999
 6622TIP3   OH219826   0.925   5.831   6.080 -0.4897 -0.1690 -0.1384
 6622TIP3    H119827   0.862   5.881   6.027 -0.4338 -1.2675 -1.2677
 6622TIP3    H219828   0.987   5.797   6.016  0.1662 -0.6736  0.7675
 6623TIP3   OH219829   0.885   2.103   0.156  0.0287 -0.9001  0.1241
 6623TIP3    H119830   0.894   2.171   0.089  1.4641 -0.3162  0.8847
 6623TIP3    H219831   0.856   2.025   0.108 -0.9535  0.0623 -0.8615
 6624TIP3   OH219832   3.224   5.484   4.886  0.8813 -0.2335 -0.7021
 6624TIP3    H119833   3.259   5.443   4.965  1.9661  0.0688 -1.0164
 6624TIP3    H219834   3.227   5.414   4.820 -3.1406 -1.4865  0.3346
 6625TIP3   OH219835   2.028   4.004   4.319  0.0490  0.1742  0.0548
 6625TIP3    H119836   2.042   4.056   4.398 -0.3197 -1.0786  0.9625
 6625TIP3    H219837   2.034   3.914   4.349 -0.6731 -0.3120 -1.2550
 6626TIP3   OH219838   3.159   5.225   3.901 -0.2636  0.3830  0.1479
 6626TIP3    H119839   3.114   5.165   3.960  0.7617 -0.1487  0.3946
 6626TIP3    H219840   3.148   5.186   3.814 -0.6768  0.4992  0.1466
 6627TIP3   OH219841   1.172   6.174   4.347 -0.3535  0.2312  0.2672
 6627TIP3    H119842   1.219   6.166   4.264 -1.6057 -1.7333 -0.2735
 6627TIP3    H219843   1.155   6.084   4.375 -1.2055  0.8770  1.9387
 6628TIP3   OH219844   0.535   5.957   4.302 -0.2177  0.1151  0.0894
 6628TIP3    H119845   0.454   5.975   4.350  1.3075 -0.5621  3.0317
 6628TIP3    H219846   0.601   6.011   4.347  0.9727  0.6521 -2.2552
 6629TIP3   OH219847   2.709   6.466   5.049 -0.0307 -0.0863  0.1182
 6629TIP3    H119848   2.749   6.505   5.127 -0.0562 -0.1200  0.1488
 6629TIP3    H219849   2.654   6.395   5.083  0.0648 -0.1894  0.0571
 6630TIP3   OH219850   1.121   4.949   5.800 -0.0144  0.2405  0.2767
 6630TIP3    H119851   1.215   4.952   5.780  0.2589 -0.9282  1.3146
 6630TIP3    H219852   1.109   5.015   5.868  0.3593 -0.7336  1.2976
 6631TIP3   OH219853   4.527   5.810   3.676  0.2085  0.3861  0.1596
 6631TIP3    H119854   4.519   5.866   3.754  2.3204  0.4504  0.3715
 6631TIP3    H219855   4.462   5.843   3.615  0.8119  2.5262  0.6331
 6632TIP3   OH219856   0.592   5.094   5.122  0.1665 -0.1644  0.0520
 6632TIP3    H119857   0.575   5.188   5.114  0.6970  0.1892  2.7462
 6632TIP3    H219858   0.516   5.060   5.169  0.6857 -0.8295  0.4124
 6633TIP3   OH219859   3.268   3.750   5.534 -0.5299 -0.4997 -0.2854
 6633TIP3    H119860   3.209   3.799   5.590 -1.6843 -2.5775  0.3707
 6633TIP3    H219861   3.356   3.776   5.562 -1.1194  0.6041  0.5450
 6634TIP3   OH219862   7.820   1.301   1.786  0.3606 -0.1586 -0.1326
 6634TIP3    H119863   7.804   1.356   1.708  1.8593 -0.6152 -0.7690
 6634TIP3    H219864   7.750   1.326   1.847  0.6006  1.9561 -0.6855
 6635TIP3   OH219865   2.582   5.933   4.686  0.5106 -0.5842  0.0959
 6635TIP3    H119866   2.611   5.851   4.646  2.1031 -1.6578  3.2975
 6635TIP3    H219867   2.660   5.967   4.731 -0.8517  1.2495  1.1425
 6636TIP3   OH219868   1.975   4.121   5.972  0.1744  0.7566  0.2606
 6636TIP3    H119869   1.992   4.195   6.030 -0.7879  0.2088  1.2496
 6636TIP3    H219870   1.939   4.160   5.893  0.6135  1.4311  0.3961
 6637TIP3   OH219871   0.913   5.616   4.957  0.1979 -0.5776 -0.3288
 6637TIP3    H119872   0.835   5.620   4.902  0.3777  2.2408 -0.4375
 6637TIP3    H219873   0.960   5.697   4.940  0.7709 -0.0636  3.1952
 6638TIP3   OH219874   4.769   5.045   4.696 -0.2096  0.3772  0.0302
 6638TIP3    H119875   4.749   5.023   4.605 -0.7043  0.0120  0.2302
 6638TIP3    H219876   4.865   5.037   4.702  0.0520  2.4218 -0.9998
 6639TIP3   OH219877   7.033   1.156   0.258 -0.4579  0.1095  0.0843
 6639TIP3    H119878   6.995   1.082   0.305  0.3439 -0.0810  0.4443
 6639TIP3    H219879   7.123   1.130   0.241 -0.9842 -0.2064 -2.4130
 6640TIP3   OH219880   2.116   3.895   5.953 -0.6925  0.4721 -0.0440
 6640TIP3    H119881   2.202   3.934   5.966 -0.6659  0.3400  0.1825
 6640TIP3    H219882   2.054   3.964   5.974 -0.6451  0.4088  0.3015
 6641TIP3   OH219883   4.621   4.229   4.973 -0.5427  0.0842  0.0902
 6641TIP3    H119884   4.631   4.190   4.886  1.6799  2.1730 -0.6481
 6641TIP3    H219885   4.639   4.156   5.034 -0.5696 -1.0266 -1.2193
 6642TIP3   OH219886   1.911   4.160   4.728  0.0932 -0.6585  0.1852
 6642TIP3    H119887   1.885   4.081   4.682 -2.2816 -0.1290  0.5833
 6642TIP3    H219888   1.831   4.212   4.734  1.5708  1.7090  0.0776
 6643TIP3   OH219889   3.074   2.462   4.713 -0.1518  0.0129  0.0558
 6643TIP3    H119890   3.077   2.375   4.753 -1.2389 -0.7473 -1.4451
 6643TIP3    H219891   3.132   2.456   4.637  2.7992  1.7828  2.0932
 6644TIP3   OH219892   3.542   3.732   3.458  0.3244 -0.5506 -0.3965
 6644TIP3    H119893   3.597   3.706   3.383  0.8253 -1.2238  0.2003
 6644TIP3    H219894   3.562   3.825   3.471 -0.4674 -0.1811 -1.6873
 6645TIP3   OH219895   4.367   5.202   4.913 -0.1483  0.0795  0.0077
 6645TIP3    H119896   4.301   5.263   4.880 -1.6179 -1.0271  0.8328
 6645TIP3    H219897   4.317   5.124   4.939  1.7325 -1.6161 -1.3306
 6646TIP3   OH219898   0.857   6.363   0.569 -0.3400 -0.0369 -0.1190
 6646TIP3    H119899   0.901   6.403   0.493 -1.5247  0.2999 -0.6392
 6646TIP3    H219900   0.889   6.412   0.644  0.1400  0.2401 -0.5003
 6647TIP3   OH219901   7.238   1.761   0.307 -0.2394 -0.1723 -0.2755
 6647TIP3    H119902   7.232   1.847   0.264 -0.5987 -0.3009 -0.4745
 6647TIP3    H219903   7.294   1.777   0.383 -0.8687  0.3895  0.0730
 6648TIP3   OH219904   7.451   6.962   5.279 -0.2783 -0.0399  0.3704
 6648TIP3    H119905   7.503   6.955   5.198 -0.8044 -0.0963  0.0332
 6648TIP3    H219906   7.420   7.053   5.278  0.7873  0.3412  1.1760
 6649TIP3   OH219907   6.606   1.689   0.600 -0.2098  0.7317 -0.1736
 6649TIP3    H119908   6.529   1.683   0.656 -0.9053  2.5249 -0.9148
 6649TIP3    H219909   6.596   1.771   0.553  2.3537  1.1996  0.0030
 6650TIP3   OH219910   3.434   5.051   4.772 -0.2595 -0.3832  0.0238
 6650TIP3    H119911   3.416   5.139   4.740  1.1405  0.2534  0.9635
 6650TIP3    H219912   3.425   5.056   4.867 -0.0892 -1.2198  0.0930
 6651TIP3   OH219913   0.531   5.158   4.682  0.0399  0.0494  0.5023
 6651TIP3    H119914   0.515   5.103   4.606  1.5600 -0.1321  0.3083
 6651TIP3    H219915   0.462   5.133   4.744 -1.0877  0.0591 -0.7165
 6652TIP3   OH219916   5.690   4.979   3.897  0.7338  0.3616 -0.3496
 6652TIP3    H119917   5.771   4.972   3.948  1.2894 -1.9346 -1.4856
 6652TIP3    H219918   5.671   4.889   3.870 -1.5468  1.0497 -1.1113
 6653TIP3   OH219919   0.306   0.236   0.498 -0.4302  0.1616  0.0293
 6653TIP3    H119920   0.402   0.235   0.493 -0.4887  1.5505 -1.9123
 6653TIP3    H219921   0.278   0.187   0.422 -1.2677  0.7611 -0.0550
 6654TIP3   OH219922   2.385   6.413   6.184  0.4175 -0.0020  0.2723
 6654TIP3    H119923   2.327   6.410   6.107 -0.6192 -1.1329  1.0683
 6654TIP3    H219924   2.328   6.442   6.255  1.1042 -0.0724  0.8452
 6655TIP3   OH219925   7.070   2.007   0.950  0.4741 -0.3193 -0.6642
 6655TIP3    H119926   7.066   2.098   0.978 -0.4143 -1.0762  1.8540
 6655TIP3    H219927   6.983   1.988   0.916  0.1233 -0.6792  0.4036
 6656TIP3   OH219928   2.202   5.339   5.471 -0.3259 -0.0204 -0.6153
 6656TIP3    H119929   2.195   5.297   5.556  0.1203  1.0987 -0.0102
 6656TIP3    H219930   2.290   5.375   5.469 -1.0122  1.7273 -0.6944
 6657TIP3   OH219931   1.916   6.254   5.078  0.1684  0.4099 -0.3202
 6657TIP3    H119932   1.989   6.280   5.134  0.8323  1.1145 -1.4845
 6657TIP3    H219933   1.873   6.184   5.126  1.5144  0.0963  0.4638
 6658TIP3   OH219934   5.333   4.626   0.245  0.1732 -0.5890  0.1705
 6658TIP3    H119935   5.270   4.556   0.227 -0.8333  0.2912  0.2616
 6658TIP3    H219936   5.397   4.586   0.305 -1.8096 -0.6840  2.2723
 6659TIP3   OH219937   4.484   5.306   3.876 -0.4009 -0.1795 -0.0557
 6659TIP3    H119938   4.513   5.217   3.854 -0.7039 -0.3879  0.3537
 6659TIP3    H219939   4.551   5.363   3.841 -1.4305 -0.4216 -2.5167
 6660TIP3   OH219940   1.830   3.230   6.224  0.0241  0.0895  0.1234
 6660TIP3    H119941   1.917   3.271   6.224 -0.7117  1.6881 -0.1803
 6660TIP3    H219942   1.838   3.157   6.162  0.9908  0.5843 -0.3535
 6661TIP3   OH219943   1.976   3.713   5.022 -0.6543  0.2110 -0.5318
 6661TIP3    H119944   1.949   3.772   5.093  0.3608 -0.0235  0.0682
 6661TIP3    H219945   2.028   3.769   4.964  0.2049 -0.0423 -0.0267
 6662TIP3   OH219946   1.486   3.626   5.224 -0.5271  0.1595  0.0947
 6662TIP3    H119947   1.442   3.609   5.307 -0.8594 -0.3054 -0.1745
 6662TIP3    H219948   1.524   3.542   5.199 -1.2893  0.0464 -0.7202
 6663TIP3   OH219949   1.592   4.631   4.375 -0.3407  0.4593 -0.0557
 6663TIP3    H119950   1.641   4.626   4.293  0.0319 -1.5779  0.2521
 6663TIP3    H219951   1.658   4.617   4.443 -0.9781 -0.0357  0.4701
 6664TIP3   OH219952   5.711   7.044   1.372  0.3983  0.3092  0.1414
 6664TIP3    H119953   5.653   7.112   1.405 -1.6495 -0.8847 -0.8712
 6664TIP3    H219954   5.718   6.981   1.444  0.2119  0.3060  0.1554
 6665TIP3   OH219955   4.603   3.135   6.165  0.0702  0.1399  0.2078
 6665TIP3    H119956   4.620   3.193   6.239 -3.5737  1.4629  0.1190
 6665TIP3    H219957   4.537   3.073   6.198 -1.1236  0.3559 -1.7021
 6666TIP3   OH219958   7.718   5.640   5.660  1.1229  0.0276 -0.3199
 6666TIP3    H119959   7.715   5.657   5.755  2.6038 -1.8225  0.0817
 6666TIP3    H219960   7.664   5.709   5.622 -1.6260 -0.7018  2.0794
 6667TIP3   OH219961   3.840   5.943   5.744 -0.7162 -0.2631  0.0141
 6667TIP3    H119962   3.855   5.998   5.667 -2.4092 -1.2944 -1.1008
 6667TIP3    H219963   3.842   6.004   5.817 -0.2143  0.9231 -0.9592
 6668TIP3   OH219964   6.088   1.060   1.016  0.0707  0.1844 -0.1682
 6668TIP3    H119965   6.080   0.994   1.085  0.0070 -0.6546 -0.9674
 6668TIP3    H219966   6.183   1.071   1.005  0.0942 -0.3822 -0.5912
 6669TIP3   OH219967   0.860   4.559   4.997  0.2898  0.0695 -0.3039
 6669TIP3    H119968   0.874   4.647   4.962 -0.5615 -0.1062 -1.1107
 6669TIP3    H219969   0.895   4.563   5.086  1.0151  0.9842 -0.6174
 6670TIP3   OH219970   3.080   4.675   4.607 -0.0353 -0.1324  0.0443
 6670TIP3    H119971   3.004   4.726   4.635 -0.8848 -1.5510  0.3541
 6670TIP3    H219972   3.113   4.636   4.688  1.2477  0.7605 -0.0321
 6671TIP3   OH219973   2.570   5.092   5.625  0.0467 -0.3376 -0.0839
 6671TIP3    H119974   2.584   5.014   5.573  1.3451  0.0289 -0.2942
 6671TIP3    H219975   2.590   5.066   5.715  2.3749  0.2160 -0.3969
 6672TIP3   OH219976   7.457   0.135   1.809  0.7168 -0.0223  0.7498
 6672TIP3    H119977   7.511   0.073   1.858 -0.5022 -0.7786  1.1678
 6672TIP3    H219978   7.428   0.087   1.732 -2.2219 -0.8242  2.2851
 6673TIP3   OH219979   3.450   6.810   5.127 -0.0220 -0.6054 -0.1206
 6673TIP3    H119980   3.527   6.866   5.136 -1.5421  1.4220  0.7246
 6673TIP3    H219981   3.454   6.750   5.202  0.1804  0.1736  0.4913
 6674TIP3   OH219982   0.637   5.982   5.499 -0.6430 -0.2233 -0.1135
 6674TIP3    H119983   0.638   6.044   5.425 -0.8416 -0.9071 -0.6945
 6674TIP3    H219984   0.564   5.923   5.479 -0.5616 -0.5397  0.5301
 6675TIP3   OH219985   2.037   3.455   5.525  0.4038 -0.5108  0.0256
 6675TIP3    H119986   1.943   3.438   5.521  0.4044 -0.2528 -1.2453
 6675TIP3    H219987   2.077   3.369   5.512  0.3455 -0.5085 -0.1742
 6676TIP3   OH219988   2.317   4.079   4.603  0.2491  0.0776 -0.0732
 6676TIP3    H119989   2.351   3.992   4.585 -0.0979  0.1269 -0.9637
 6676TIP3    H219990   2.394   4.130   4.630  0.9543  0.2434 -2.2749
 6677TIP3   OH219991   2.425   4.752   3.992 -0.0358 -0.2836  0.5731
 6677TIP3    H119992   2.353   4.752   4.056  0.0882  0.3538  0.7105
 6677TIP3    H219993   2.391   4.699   3.919  0.0274 -1.4670  1.3868
 6678TIP3   OH219994   0.062   4.810   3.062  0.1477  0.3137  0.1803
 6678TIP3    H119995   0.025   4.728   3.094  2.2448 -0.5039  0.6204
 6678TIP3    H219996   0.137   4.827   3.120  2.9251 -0.2256 -3.1000
 6679TIP3   OH219997   0.976   5.621   4.599  0.4433 -0.4289  0.3865
 6679TIP3    H119998   0.981   5.618   4.503 -0.6852 -1.0892  0.3466
 6679TIP3    H219999   1.039   5.555   4.628  1.9141  0.8259  0.1471
 6680TIP3   OH220000   1.936   4.461   4.785  0.0803 -0.3922  0.4069
 6680TIP3    H120001   1.980   4.503   4.858 -0.4856 -1.3640  1.3252
 6680TIP3    H220002   1.970   4.371   4.786  0.4619 -0.2741 -0.8531
 6681TIP3   OH220003   6.025   5.837   4.189 -0.1136  0.0318  0.4577
 6681TIP3    H120004   6.018   5.915   4.133  1.8679  0.8475  1.3026
 6681TIP3    H220005   5.979   5.769   4.140  0.7669  0.9562 -1.7467
 6682TIP3   OH220006   3.437   4.795   3.143  0.2866 -0.8375  0.0467
 6682TIP3    H120007   3.412   4.826   3.230 -1.9482 -0.9550 -0.5258
 6682TIP3    H220008   3.424   4.870   3.086  0.5996 -1.1059 -0.3795
 6683TIP3   OH220009   2.085   4.370   5.272  0.2576  0.2425 -1.0129
 6683TIP3    H120010   2.047   4.380   5.359 -0.7746  0.3854 -1.4730
 6683TIP3    H220011   2.012   4.386   5.212  0.9077 -0.0766 -1.9007
 6684TIP3   OH220012   4.438   5.475   3.226 -0.2154 -0.2645 -0.2365
 6684TIP3    H120013   4.467   5.484   3.317 -1.8385 -0.3578  0.3135
 6684TIP3    H220014   4.488   5.541   3.178 -0.8769  1.2337  1.0840
 6685TIP3   OH220015   4.377   4.598   3.589 -0.0572 -0.5742 -0.3761
 6685TIP3    H120016   4.316   4.587   3.661 -0.2498  0.9336 -0.2907
 6685TIP3    H220017   4.331   4.565   3.512  0.0908 -2.0362  0.1406
 6686TIP3   OH220018   0.036   1.340   0.414 -0.4346 -0.3180 -0.7436
 6686TIP3    H120019   0.003   1.430   0.406 -0.8873 -0.4295 -0.1766
 6686TIP3    H220020  -0.033   1.293   0.462 -1.2845 -1.5615 -3.1240
 6687TIP3   OH220021   3.211   4.912   4.318 -0.1840  0.4038  0.0482
 6687TIP3    H120022   3.145   4.948   4.376 -3.3624 -0.0217 -3.1493
 6687TIP3    H220023   3.200   4.817   4.325  2.9446  0.1615  2.6037
 6688TIP3   OH220024   3.471   4.437   3.942  0.2741  0.2706 -0.9100
 6688TIP3    H120025   3.530   4.399   4.008  0.6040  1.4334 -0.5212
 6688TIP3    H220026   3.459   4.367   3.877 -0.9730 -1.3000  0.9443
 6689TIP3   OH220027   5.494   6.761   0.170  0.2309 -0.1338  0.2557
 6689TIP3    H120028   5.452   6.742   0.254 -0.4953 -0.1468 -0.1081
 6689TIP3    H220029   5.526   6.676   0.140 -1.0354 -0.4303 -0.2984
 6690TIP3   OH220030   1.683   3.034   3.488  0.3804 -0.5444  0.1111
 6690TIP3    H120031   1.656   3.019   3.397  0.7744 -0.6103  0.0035
 6690TIP3    H220032   1.682   3.130   3.497  1.5376 -0.4811 -0.3381
 6691TIP3   OH220033   2.989   5.197   5.461  0.6923 -0.3581 -0.2332
 6691TIP3    H120034   2.896   5.191   5.440  1.0389 -3.8334 -1.0258
 6691TIP3    H220035   3.003   5.290   5.478 -2.8869  0.2595 -0.1868
 6692TIP3   OH220036   2.767   2.373   4.173  0.2341  0.2917  0.0938
 6692TIP3    H120037   2.763   2.278   4.184 -3.5500  0.6121  2.3756
 6692TIP3    H220038   2.685   2.396   4.130  0.2672  2.6966  1.2253
 6693TIP3   OH220039   2.155   3.565   5.199 -0.2013 -0.6272 -0.1578
 6693TIP3    H120040   2.138   3.627   5.270  1.1755  0.2354 -0.5766
 6693TIP3    H220041   2.087   3.584   5.134  0.1848  0.4167 -0.2624
 6694TIP3   OH220042   4.978   4.366   5.989  0.0606 -0.5927 -0.8102
 6694TIP3    H120043   5.051   4.365   5.927 -0.6766 -0.8538 -1.6841
 6694TIP3    H220044   4.927   4.443   5.964  0.7046  0.3132  0.5999
 6695TIP3   OH220045   6.827   1.478   0.805 -0.2774  0.8275 -0.9220
 6695TIP3    H120046   6.836   1.385   0.785  1.4471  1.3122 -2.6065
 6695TIP3    H220047   6.765   1.511   0.740 -1.1335  0.7851 -0.1221
 6696TIP3   OH220048   1.873   1.658   1.169 -0.1052  0.4753  1.0145
 6696TIP3    H120049   1.778   1.665   1.180 -0.2466  0.9659 -0.4828
 6696TIP3    H220050   1.893   1.569   1.196 -1.4496 -0.7103 -1.6914
 6697TIP3   OH220051   6.767   1.778   1.249 -0.4871  0.3502 -0.0702
 6697TIP3    H120052   6.803   1.751   1.164  0.3269 -0.1003  0.4094
 6697TIP3    H220053   6.717   1.702   1.279  0.0268  0.1548  0.2954
 6698TIP3   OH220054   1.281   4.315   4.710  0.7614  0.5629  0.0678
 6698TIP3    H120055   1.341   4.380   4.673  0.3741  0.9585  0.1376
 6698TIP3    H220056   1.215   4.366   4.756 -0.2900  0.1716 -0.9808
 6699TIP3   OH220057   4.915   6.937   5.654  0.2367  0.3882 -0.2732
 6699TIP3    H120058   4.856   6.899   5.719 -0.1145  0.5909 -0.4721
 6699TIP3    H220059   4.998   6.951   5.701  1.0010 -2.4453 -0.6960
 6700TIP3   OH220060   5.090   2.877   3.553 -0.1437 -0.0945  0.6460
 6700TIP3    H120061   5.141   2.855   3.631  0.9205 -1.4148 -0.3946
 6700TIP3    H220062   5.148   2.935   3.502 -1.6546  2.5368  1.8055
 6701TIP3   OH220063   1.649   3.833   4.372  0.3058  0.0501 -0.0964
 6701TIP3    H120064   1.556   3.851   4.359 -0.2797 -2.2485  0.6993
 6701TIP3    H220065   1.682   3.812   4.284 -0.2963 -0.7061 -0.1495
 6702TIP3   OH220066   5.846   6.773   0.205 -0.7739 -0.6660 -0.2930
 6702TIP3    H120067   5.799   6.736   0.279 -0.2024  0.2385  0.5299
 6702TIP3    H220068   5.886   6.697   0.162 -1.9841 -1.3056 -0.3075
 6703TIP3   OH220069   7.334   0.375   0.805 -0.3465 -0.3691  0.0340
 6703TIP3    H120070   7.253   0.323   0.807 -0.3478 -0.4406 -1.4118
 6703TIP3    H220071   7.401   0.316   0.839 -0.8396 -0.4139  0.9459
 6704TIP3   OH220072   5.488   2.316   0.601  0.1938  0.1240 -0.9646
 6704TIP3    H120073   5.409   2.276   0.637  0.3496 -0.3325 -1.1360
 6704TIP3    H220074   5.529   2.247   0.550 -0.6217  1.1010 -2.9865
 6705TIP3   OH220075   1.131   5.410   5.617  0.4237 -0.0205  0.7803
 6705TIP3    H120076   1.055   5.369   5.658 -0.8709  1.3156 -0.1840
 6705TIP3    H220077   1.117   5.397   5.523  0.4454  1.7759  0.5061
 6706TIP3   OH220078   1.186   6.883   5.842  0.0284 -0.5003 -0.1553
 6706TIP3    H120079   1.121   6.839   5.788 -0.9902  0.0214  0.6265
 6706TIP3    H220080   1.135   6.936   5.903  1.2014  0.4878 -0.0031
 6707TIP3   OH220081   4.145   4.768   3.523 -0.2838  0.4080 -0.2890
 6707TIP3    H120082   4.052   4.766   3.544 -0.0040  0.7367  1.0677
 6707TIP3    H220083   4.187   4.794   3.605  0.7953  2.7289 -1.5254
 6708TIP3   OH220084   0.230   0.134   0.240  0.1284  0.4520 -0.2165
 6708TIP3    H120085   0.278   0.179   0.170  2.4815 -2.3694 -0.4911
 6708TIP3    H220086   0.140   0.128   0.207  0.0426  3.6018 -0.7685
 6709TIP3   OH220087   2.061   2.842   6.222 -0.1508  0.1059 -0.1008
 6709TIP3    H120088   2.004   2.905   6.179 -0.0209 -0.6300 -1.3785
 6709TIP3    H220089   2.027   2.836   6.311 -0.3052  1.7883 -0.0295
 6710TIP3   OH220090   7.655   1.230   0.058 -0.1503 -0.1186 -0.4858
 6710TIP3    H120091   7.720   1.265   0.120  0.2349 -1.2569 -0.2376
 6710TIP3    H220092   7.695   1.243  -0.028  0.2113 -0.4043 -0.3613
 6711TIP3   OH220093   2.707   4.336   4.862  0.3837  0.0291 -0.1593
 6711TIP3    H120094   2.621   4.374   4.883  0.2624 -1.3655  1.9769
 6711TIP3    H220095   2.736   4.385   4.784 -3.0367 -0.5504 -1.9057
 6712TIP3   OH220096   5.876   0.215   5.632 -0.7011  0.2250 -0.9411
 6712TIP3    H120097   5.896   0.155   5.560  0.2725 -1.8160  0.9699
 6712TIP3    H220098   5.794   0.182   5.668  0.7017 -1.0682  1.1881
 6713TIP3   OH220099   4.152   6.596   2.429  0.3792 -0.2282 -0.0110
 6713TIP3    H120100   4.150   6.600   2.525  0.3744  0.0243 -0.0223
 6713TIP3    H220101   4.066   6.559   2.406 -0.0720  0.7777  0.0297
 6714TIP3   OH220102   1.613   5.574   4.553  0.7260 -0.0334 -0.3093
 6714TIP3    H120103   1.577   5.485   4.557  0.5615 -0.0275 -1.3693
 6714TIP3    H220104   1.644   5.582   4.463 -1.2409  1.7620 -0.8543
 6715TIP3   OH220105   5.530   6.962   0.908  0.0332 -0.1366  0.2701
 6715TIP3    H120106   5.593   7.034   0.902  1.0932 -0.9392  1.4463
 6715TIP3    H220107   5.530   6.939   1.001 -1.3508 -0.7354  0.1315
 6716TIP3   OH220108   5.338   3.604   1.141 -0.2713  0.0263  0.0360
 6716TIP3    H120109   5.374   3.580   1.226 -1.3655 -0.6119  0.3333
 6716TIP3    H220110   5.404   3.663   1.102  1.2015 -1.3396  0.4252
 6717TIP3   OH220111   3.587   0.514   2.955 -0.6002 -0.2080  0.5901
 6717TIP3    H120112   3.656   0.508   3.020 -2.2038 -1.2671  2.2303
 6717TIP3    H220113   3.506   0.494   3.003 -2.1334  1.6321 -1.1350
 6718TIP3   OH220114   3.408   1.817   4.860 -0.2371  0.4643  0.4010
 6718TIP3    H120115   3.432   1.903   4.895  0.2754  0.3248  0.3969
 6718TIP3    H220116   3.416   1.758   4.935  1.8548 -0.0205 -0.1438
 6719TIP3   OH220117   0.637   0.729   0.248  0.8673  0.9516 -0.1455
 6719TIP3    H120118   0.730   0.706   0.253  0.5335 -0.5219 -0.4100
 6719TIP3    H220119   0.591   0.648   0.272 -0.3409  1.7769  0.3584
 6720TIP3   OH220120   3.136   3.298   4.147 -0.3296  0.1372  0.2042
 6720TIP3    H120121   3.134   3.207   4.118 -1.7641  0.2325 -0.0447
 6720TIP3    H220122   3.095   3.296   4.234 -1.1122  0.6612 -0.1516
 6721TIP3   OH220123   5.757   5.609   5.236 -0.0465  0.4645 -0.3462
 6721TIP3    H120124   5.810   5.681   5.202 -1.3275  1.5838 -0.0362
 6721TIP3    H220125   5.667   5.641   5.228 -0.4521  0.2973  3.0129
 6722TIP3   OH220126   5.282   7.062   0.816 -0.0736 -0.2168  0.2273
 6722TIP3    H120127   5.373   7.039   0.837  0.4609  1.2566 -0.3800
 6722TIP3    H220128   5.230   7.025   0.888  0.5068 -4.8564 -1.6167
 6723TIP3   OH220129   3.855   3.694   4.506 -0.3923 -0.0756 -0.0541
 6723TIP3    H120130   3.778   3.638   4.517  0.5329 -1.2432  0.6048
 6723TIP3    H220131   3.855   3.750   4.583  1.3456 -2.4875  1.8109
 6724TIP3   OH220132   2.959   6.067   4.112 -0.2994 -0.2138  0.2410
 6724TIP3    H120133   2.909   6.042   4.034 -0.7357  0.8229  0.1799
 6724TIP3    H220134   3.050   6.072   4.081 -0.2253 -1.5038  0.2111
 6725TIP3   OH220135   2.197   3.334   4.946 -0.2570 -0.2361  0.0256
 6725TIP3    H120136   2.213   3.328   5.040  1.6146  0.8218 -0.2031
 6725TIP3    H220137   2.182   3.427   4.929  3.1789  0.1845 -1.2228
 6726TIP3   OH220138   3.690   4.734   3.178  0.1333  0.5130  0.2586
 6726TIP3    H120139   3.678   4.647   3.217  1.5517 -0.0125 -0.4134
 6726TIP3    H220140   3.606   4.754   3.138  0.1778 -1.1345 -0.7100
 6727TIP3   OH220141   5.031   4.400   3.582 -0.2150  1.0668  0.1601
 6727TIP3    H120142   5.051   4.466   3.516 -0.1502  1.5754  0.6875
 6727TIP3    H220143   5.086   4.325   3.558  2.0140  2.2767  1.3297
 6728TIP3   OH220144   3.316   4.252   5.175 -0.0604 -0.2992 -0.5059
 6728TIP3    H120145   3.393   4.308   5.165 -0.3800  0.2185 -0.0965
 6728TIP3    H220146   3.340   4.191   5.245 -0.4435  0.6016  0.4265
 6729TIP3   OH220147   3.853   4.946   5.088 -0.1227  0.0005  0.9099
 6729TIP3    H120148   3.814   4.983   5.009 -2.0689 -1.6384  1.0831
 6729TIP3    H220149   3.936   4.909   5.058 -0.3575  0.3094 -0.1505
 6730TIP3   OH220150   1.703   3.925   4.918 -0.0640 -0.5803  0.4392
 6730TIP3    H120151   1.716   3.840   4.960  2.7335  0.0644  0.9261
 6730TIP3    H220152   1.760   3.923   4.841  1.7598  1.7084  1.6822
 6731TIP3   OH220153   2.452   2.934   5.340 -0.2738  0.3465 -0.3235
 6731TIP3    H120154   2.478   2.988   5.415  0.6837 -0.6362  0.0736
 6731TIP3    H220155   2.535   2.905   5.302 -0.7591 -1.9922  0.3226
 6732TIP3   OH220156   1.834   4.201   3.288 -0.3823  0.0639 -0.7617
 6732TIP3    H120157   1.756   4.150   3.268  0.0827 -0.7361 -0.5360
 6732TIP3    H220158   1.895   4.181   3.217 -0.2112  0.3360 -0.6917
 6733TIP3   OH220159   4.466   4.326   4.519 -0.2768  0.4626 -0.2146
 6733TIP3    H120160   4.435   4.236   4.509 -0.8820  0.7555 -1.0130
 6733TIP3    H220161   4.499   4.330   4.609  0.2535 -0.7038 -0.3546
 6734TIP3   OH220162   4.122   3.723   4.695 -0.8574 -0.0679  0.6086
 6734TIP3    H120163   4.140   3.725   4.601 -0.5767 -3.1598  0.5503
 6734TIP3    H220164   4.042   3.775   4.704 -1.6857 -0.8624 -1.5650
 6735TIP3   OH220165   2.966   5.681   3.804 -0.2441 -0.1471  0.7611
 6735TIP3    H120166   3.059   5.677   3.784 -0.0888 -1.9156  1.7329
 6735TIP3    H220167   2.959   5.649   3.894 -2.0941 -2.8470 -0.2767
 6736TIP3   OH220168   5.355   6.338   2.542  0.0239  0.9102  0.0823
 6736TIP3    H120169   5.427   6.370   2.596 -1.2176  0.2927  2.1424
 6736TIP3    H220170   5.395   6.272   2.485  1.2093  1.0601  0.7359
 6737TIP3   OH220171   5.317   5.214   3.289  0.0959  0.2939  1.0120
 6737TIP3    H120172   5.379   5.208   3.217 -1.4833  0.2882 -0.3825
 6737TIP3    H220173   5.255   5.142   3.274 -0.3298  0.3596  2.3127
 6738TIP3   OH220174   4.042   4.656   3.028 -0.4946 -0.6684 -0.5389
 6738TIP3    H120175   4.047   4.733   3.085  2.7265  0.7191 -2.5277
 6738TIP3    H220176   3.977   4.679   2.962  1.9087  1.3116 -2.3284
 6739TIP3   OH220177   5.043   3.995   5.875  0.0206  0.0619  0.1499
 6739TIP3    H120178   5.038   3.917   5.930 -0.5039 -0.1211 -0.1508
 6739TIP3    H220179   5.058   4.067   5.936 -1.2036 -0.0603  0.5928
 6740TIP3   OH220180   5.896   4.668   3.889  0.5833  0.8850 -0.0745
 6740TIP3    H120181   5.815   4.638   3.849  2.0260 -1.8981 -1.0014
 6740TIP3    H220182   5.927   4.737   3.831  0.0713  0.3640 -0.9779
 6741TIP3   OH220183   3.474   4.164   5.490 -0.0948 -0.7047 -0.6675
 6741TIP3    H120184   3.551   4.173   5.434  1.1919 -0.1853  1.1299
 6741TIP3    H220185   3.473   4.245   5.542 -2.6312 -0.1007 -1.5844
 6742TIP3   OH220186   4.468   3.720   2.950  0.0997 -0.6534 -1.0739
 6742TIP3    H120187   4.480   3.651   2.885  1.0182  1.0401 -2.7397
 6742TIP3    H220188   4.414   3.786   2.906  2.0924  1.2629 -0.7330
 6743TIP3   OH220189   3.882   3.318   3.125 -0.1487 -0.2068 -0.1139
 6743TIP3    H120190   3.838   3.313   3.210 -0.1054  0.3266 -0.0597
 6743TIP3    H220191   3.968   3.355   3.144 -0.6982  1.3453 -0.5940
 6744TIP3   OH220192   4.102   5.028   4.449  0.3561 -0.0376  0.5130
 6744TIP3    H120193   4.134   5.054   4.536  0.8104 -1.7285  0.8793
 6744TIP3    H220194   4.101   4.932   4.452 -2.1587 -0.0818 -0.4488
 6745TIP3   OH220195   5.569   5.428   2.941 -0.0762 -0.4948  0.1564
 6745TIP3    H120196   5.500   5.458   2.999 -0.9570 -1.0636 -0.5744
 6745TIP3    H220197   5.585   5.502   2.882  1.0150  0.1794  1.2943
 6746TIP3   OH220198   4.376   3.729   2.543 -0.1180  0.5416  0.1681
 6746TIP3    H120199   4.294   3.688   2.515  1.4540 -1.4234 -1.6866
 6746TIP3    H220200   4.387   3.803   2.484  0.4828 -0.4337 -0.9599
 6747TIP3   OH220201   4.715   6.412   3.751 -0.0748  0.1049  0.0266
 6747TIP3    H120202   4.655   6.378   3.685 -0.2644  1.2468 -0.3841
 6747TIP3    H220203   4.802   6.397   3.714 -0.1515 -0.0356 -0.0994
 6748TIP3   OH220204   2.550   5.173   2.737 -0.1726  0.3033  0.4243
 6748TIP3    H120205   2.548   5.269   2.740 -0.7924  0.3154 -0.2325
 6748TIP3    H220206   2.626   5.153   2.683 -1.3952  0.4839 -1.4182
 6749TIP3   OH220207   3.853   3.521   3.570  0.0275  0.2097  0.6592
 6749TIP3    H120208   3.919   3.564   3.515  1.6209  0.0229  2.3912
 6749TIP3    H220209   3.866   3.428   3.555 -0.4064  0.1979  0.3585
 6750TIP3   OH220210   3.743   5.025   4.826  0.8501  0.3828 -0.5229
 6750TIP3    H120211   3.781   5.108   4.796  0.6842  0.5008 -0.4105
 6750TIP3    H220212   3.653   5.027   4.792  0.4967  0.7523  0.4295
 6751TIP3   OH220213   3.795   6.584   3.077 -0.3534  0.0021 -0.3858
 6751TIP3    H120214   3.870   6.565   3.133 -0.2804  0.7842 -0.2022
 6751TIP3    H220215   3.760   6.499   3.053  0.4547 -0.3661 -0.2810
 6752TIP3   OH220216   5.086   2.916   2.896 -0.3412  0.0911  0.4823
 6752TIP3    H120217   4.997   2.918   2.861  0.0021 -1.3072 -0.4937
 6752TIP3    H220218   5.088   2.838   2.952  0.6689 -0.7053 -0.6234
 6753TIP3   OH220219   3.628   3.717   5.974  0.3267  0.2823  0.0435
 6753TIP3    H120220   3.537   3.711   6.005  0.6324 -0.9800  0.7324
 6753TIP3    H220221   3.640   3.809   5.952 -0.9507  0.5604  0.4798
 6754TIP3   OH220222   2.326   2.817   2.466  0.0273 -0.4751  0.4324
 6754TIP3    H120223   2.419   2.838   2.471 -0.1222 -0.2709  2.5417
 6754TIP3    H220224   2.300   2.846   2.378  2.1383 -1.3787 -0.5321
 6755TIP3   OH220225   6.565   5.091   3.411  0.2457  0.3442  0.9159
 6755TIP3    H120226   6.633   5.144   3.370  0.8087 -0.5977  0.6169
 6755TIP3    H220227   6.570   5.007   3.365  0.4666 -0.5215  2.5041
 6756TIP3   OH220228   4.884   5.985   4.340 -0.9909  0.1487 -0.6319
 6756TIP3    H120229   4.846   6.009   4.424  0.3404  0.9972 -0.2551
 6756TIP3    H220230   4.951   6.052   4.324  1.0317 -1.8650 -0.7987
 6757TIP3   OH220231   3.989   4.966   4.095  0.6984  0.2242 -0.1284
 6757TIP3    H120232   3.994   5.051   4.138  3.0073  0.5419 -0.9357
 6757TIP3    H220233   3.930   4.979   4.021  0.1004  0.8074  0.4589
 6758TIP3   OH220234   4.065   5.856   3.220  0.1867  0.0583 -0.2848
 6758TIP3    H120235   4.125   5.842   3.146  1.1671 -2.4410  0.9209
 6758TIP3    H220236   3.982   5.818   3.191  0.6698 -1.2465  0.0143
 6759TIP3   OH220237   4.921   4.165   3.860 -0.0488  0.1770  0.5532
 6759TIP3    H120238   4.932   4.097   3.793 -0.5068  0.9646 -0.3450
 6759TIP3    H220239   5.001   4.161   3.912  0.9189  0.4553 -0.8917
 6760TIP3   OH220240   4.402   4.664   4.030  0.3946  0.5281  0.0281
 6760TIP3    H120241   4.361   4.678   4.115 -0.3072  0.0983 -0.2357
 6760TIP3    H220242   4.459   4.589   4.042  0.8873  0.9446  0.3169
 6761TIP3   OH220243   5.918   3.080   3.794 -0.4347 -0.1261 -0.2618
 6761TIP3    H120244   5.847   3.016   3.787 -1.4793  1.1419 -1.4364
 6761TIP3    H220245   5.986   3.047   3.734 -0.6853 -0.4911 -0.3465
 6762TIP3   OH220246   2.565   3.387   2.306 -0.4699 -0.0150  0.1289
 6762TIP3    H120247   2.628   3.345   2.365 -1.1531  0.3733  1.1568
 6762TIP3    H220248   2.529   3.315   2.254 -1.0936 -0.6064  1.3620
 6763TIP3   OH220249   4.680   6.225   2.891  0.1584  0.5557 -0.3053
 6763TIP3    H120250   4.655   6.304   2.938  0.9592  0.4903  0.2381
 6763TIP3    H220251   4.699   6.161   2.960 -0.0570  0.0189 -0.7342
 6764TIP3   OH220252   3.281   5.152   4.207  0.4794 -0.1141  0.3995
 6764TIP3    H120253   3.321   5.124   4.124 -0.8330 -0.6875 -0.0533
 6764TIP3    H220254   3.262   5.071   4.253  0.0933  0.1668  0.7368
 6765TIP3   OH220255   4.218   5.563   2.578  0.4022  0.2123 -0.1754
 6765TIP3    H120256   4.231   5.499   2.648 -0.1876  0.2826  0.0062
 6765TIP3    H220257   4.258   5.644   2.611  0.6747  0.0801 -0.1812
 6766TIP3   OH220258   4.183   5.091   3.360 -0.3215  0.1364 -0.1563
 6766TIP3    H120259   4.166   5.080   3.453 -2.4260 -0.0458 -0.5544
 6766TIP3    H220260   4.213   5.182   3.352  0.9502 -0.1837  0.8329
 6767TIP3   OH220261   4.756   4.391   4.216  0.0588  0.0302  0.4446
 6767TIP3    H120262   4.826   4.415   4.276 -1.2873 -0.1020  2.0912
 6767TIP3    H220263   4.675   4.410   4.263 -1.0329 -0.6680 -1.0805
 6768TIP3   OH220264   6.119   5.858   3.491  0.3084  0.3127  0.0463
 6768TIP3    H120265   6.122   5.906   3.574 -0.2385 -1.7592  1.2911
 6768TIP3    H220266   6.036   5.812   3.493  0.3316  0.1772 -1.6265
 6769TIP3   OH220267   4.200   5.272   3.913 -0.0221 -0.0604  0.1403
 6769TIP3    H120268   4.287   5.311   3.908  1.0063 -2.3011 -0.0116
 6769TIP3    H220269   4.173   5.286   4.004 -0.3586  2.3527 -0.3002
 6770TIP3   OH220270   5.253   5.209   3.001  0.0869 -0.0432 -0.2333
 6770TIP3    H120271   5.244   5.231   2.908 -0.4538 -1.1835 -0.4660
 6770TIP3    H220272   5.313   5.134   3.002 -1.2117 -1.0981  0.1773
 6771TIP3   OH220273   5.084   5.612   1.574  0.0387 -0.2338  0.1817
 6771TIP3    H120274   5.176   5.631   1.591  1.2022 -2.4125 -3.0933
 6771TIP3    H220275   5.067   5.532   1.623  0.6124 -1.1471 -1.0770
 6772TIP3   OH220276   3.200   5.202   5.156  0.1961  0.2929  0.2414
 6772TIP3    H120277   3.188   5.294   5.178 -1.9152  0.0264  0.2916
 6772TIP3    H220278   3.135   5.184   5.089  2.6511 -0.3964 -2.0483
 6773TIP3   OH220279   4.876   5.352   4.583 -0.0799  0.4291  0.6586
 6773TIP3    H120280   4.785   5.380   4.596  0.1760  0.5518  2.2404
 6773TIP3    H220281   4.870   5.257   4.575 -0.2923  0.3765  1.3644
 6774TIP3   OH220282   5.795   5.151   3.403 -0.1659 -0.0058  0.5468
 6774TIP3    H120283   5.795   5.143   3.308  0.8953  2.2520  0.3173
 6774TIP3    H220284   5.723   5.095   3.432 -1.0858 -0.0194 -1.6423
 6775TIP3   OH220285   3.825   4.064   4.346  0.5477  0.0292  0.1780
 6775TIP3    H120286   3.813   4.109   4.263  1.6387  0.8908  0.4741
 6775TIP3    H220287   3.808   4.131   4.413 -0.2740 -0.6418  0.6482
 6776TIP3   OH220288   4.933   5.811   3.617  0.0839  0.2154 -0.2909
 6776TIP3    H120289   4.979   5.895   3.620  0.4993 -0.0202 -0.0030
 6776TIP3    H220290   4.897   5.800   3.706 -2.2108  1.3214 -1.0292
 6777TIP3   OH220291   4.489   5.524   2.000  0.6251  0.0188 -0.3038
 6777TIP3    H120292   4.414   5.525   1.941 -0.3566 -0.1730  0.9150
 6777TIP3    H220293   4.451   5.536   2.087  1.6743 -3.2413  0.6775
 6778TIP3   OH220294   4.141   5.201   1.711  0.4695 -0.1746 -0.4271
 6778TIP3    H120295   4.101   5.164   1.632 -0.8553  0.5730 -0.1295
 6778TIP3    H220296   4.077   5.266   1.741  0.8136 -0.6827  1.4378
 6779TIP3   OH220297   4.461   3.352   1.917  0.6086  0.1894 -0.4426
 6779TIP3    H120298   4.384   3.297   1.929  1.1206 -0.9249 -2.0070
 6779TIP3    H220299   4.427   3.435   1.884  0.0712 -0.4012 -1.4143
 6780TIP3   OH220300   4.027   3.844   5.645  0.3514  0.6582 -0.5789
 6780TIP3    H120301   3.938   3.819   5.621  0.1131 -0.3726  1.2600
 6780TIP3    H220302   4.022   3.864   5.738  2.4878 -1.7258  0.1359
 6781TIP3   OH220303   5.576   3.534   0.355  0.2361  1.1502 -0.6950
 6781TIP3    H120304   5.570   3.448   0.395  0.8095  1.5661  0.2937
 6781TIP3    H220305   5.585   3.516   0.261 -3.3071  0.2011 -0.9386
 6782TIP3   OH220306   6.168   3.708   4.355  0.0969  0.5077  0.2595
 6782TIP3    H120307   6.240   3.733   4.297  0.9593  0.7798  1.4409
 6782TIP3    H220308   6.110   3.656   4.299  1.1122  0.4392 -0.7542
 6783TIP3   OH220309   7.132   4.101   3.452  0.2680 -0.0217 -0.2754
 6783TIP3    H120310   7.157   4.086   3.544  1.0441 -0.6386 -0.5790
 6783TIP3    H220311   7.215   4.100   3.405 -0.2967 -1.8244 -1.2843
 6784TIP3   OH220312   3.704   4.269   4.842  0.0689 -0.3592  0.3936
 6784TIP3    H120313   3.625   4.250   4.893  0.7649  1.6466  2.3085
 6784TIP3    H220314   3.776   4.259   4.905  1.2451 -0.8601 -0.9962
 6785TIP3   OH220315   4.416   3.956   2.390  0.4003  0.6518  0.0708
 6785TIP3    H120316   4.509   3.977   2.395  0.3290  0.8276  0.7161
 6785TIP3    H220317   4.403   3.925   2.300  0.7235  2.2953 -0.5566
 6786TIP3   OH220318   3.153   4.063   3.735  0.3208  0.1495 -0.7377
 6786TIP3    H120319   3.240   4.101   3.722  0.0318  1.0623 -0.0738
 6786TIP3    H220320   3.129   4.090   3.824 -0.4101 -0.5655 -0.7197
 6787TIP3   OH220321   6.476   3.919   5.979 -0.5606 -0.3674 -0.4783
 6787TIP3    H120322   6.474   4.004   5.934  0.0433 -0.4128 -0.5960
 6787TIP3    H220323   6.486   3.855   5.908 -1.9543 -0.6159 -0.4747
 6788TIP3   OH220324   5.013   3.107   4.396 -0.4275 -0.0982 -0.3141
 6788TIP3    H120325   4.946   3.079   4.333 -2.0772  2.4395  0.2060
 6788TIP3    H220326   4.979   3.079   4.481 -1.2638  1.8663  0.0321
 6789TIP3   OH220327   3.900   4.251   5.673 -0.4596 -0.5609 -0.2690
 6789TIP3    H120328   3.980   4.245   5.726 -0.4565  0.2602 -0.1688
 6789TIP3    H220329   3.927   4.301   5.596 -0.5264 -1.5323 -0.9316
 6790TIP3   OH220330   4.037   3.904   2.937 -0.1638 -0.3286 -0.0687
 6790TIP3    H120331   4.093   3.982   2.942 -0.2555 -0.2229 -0.6137
 6790TIP3    H220332   3.961   3.932   2.885 -0.6545 -0.5146  0.5324
 6791TIP3   OH220333   3.970   3.184   5.747 -0.1082 -0.0812  0.6327
 6791TIP3    H120334   4.039   3.145   5.801  1.2894 -0.3296 -1.3003
 6791TIP3    H220335   3.999   3.275   5.735 -0.5538  0.0440  0.5119
 6792TIP3   OH220336   4.636   4.576   4.543  0.4106 -0.3570  0.4029
 6792TIP3    H120337   4.600   4.597   4.630  0.3808 -1.0837  0.5729
 6792TIP3    H220338   4.635   4.659   4.496  1.1494  0.2050  1.3573
 6793TIP3   OH220339   5.243   6.868   5.739  0.1210  0.1157  0.4671
 6793TIP3    H120340   5.274   6.937   5.799  1.5845 -1.3019  1.3819
 6793TIP3    H220341   5.193   6.809   5.795  0.9654 -0.8871  0.1695
 6794TIP3   OH220342   2.579   4.083   2.740  0.1656 -0.4441  0.3256
 6794TIP3    H120343   2.623   4.120   2.663  0.1890 -1.3422 -0.1028
 6794TIP3    H220344   2.649   4.072   2.804  0.2097 -0.0396  0.3530
 6795TIP3   OH220345   4.493   5.039   4.429 -0.3834  0.2749 -0.1565
 6795TIP3    H120346   4.587   5.034   4.413  0.0444  0.6318  2.0214
 6795TIP3    H220347   4.452   5.022   4.344  1.5844 -2.8537 -0.5582
 6796TIP3   OH220348   3.248   4.019   4.858 -0.3971 -0.1281 -0.0964
 6796TIP3    H120349   3.196   3.982   4.928 -0.6777  1.0053  0.3145
 6796TIP3    H220350   3.223   3.969   4.780 -0.6406 -0.8888  0.4686
 6797TIP3   OH220351   3.082   4.473   2.232 -0.2443 -0.2404 -0.0294
 6797TIP3    H120352   3.122   4.493   2.316  1.3556 -0.3811 -0.7357
 6797TIP3    H220353   3.053   4.382   2.240  0.1307 -0.3333  0.2903
 6798TIP3   OH220354   3.783   4.530   4.687  0.2828 -0.0728 -0.3344
 6798TIP3    H120355   3.744   4.480   4.758 -2.3067 -0.3459 -1.8574
 6798TIP3    H220356   3.855   4.475   4.655  0.6494 -0.5073  1.2140
 6799TIP3   OH220357   6.156   5.698   5.235 -0.0754 -0.4694  0.4983
 6799TIP3    H120358   6.147   5.770   5.298 -0.8101 -0.6651  0.6288
 6799TIP3    H220359   6.140   5.620   5.287  1.7046 -0.7991  0.5610
 6800TIP3   OH220360   1.976   2.903   3.928 -0.0232 -0.0950  0.5751
 6800TIP3    H120361   1.971   2.813   3.961  0.6219 -0.2874  0.1627
 6800TIP3    H220362   2.022   2.895   3.844 -0.5137  0.5436  0.2414
 6801TIP3   OH220363   4.184   3.577   2.763  0.1643  0.3635 -0.7230
 6801TIP3    H120364   4.193   3.637   2.837  0.4417 -0.0899 -0.3772
 6801TIP3    H220365   4.091   3.553   2.763  0.5906 -1.4693  0.9708
 6802TIP3   OH220366   3.918   4.334   3.881 -0.4992  0.1611 -0.2906
 6802TIP3    H120367   4.013   4.325   3.881 -0.5919 -0.9956 -1.6640
 6802TIP3    H220368   3.891   4.301   3.967  0.1487 -1.7503 -0.8146
 6803TIP3   OH220369   5.636   4.150   4.509  0.3326 -0.5715  0.0242
 6803TIP3    H120370   5.638   4.122   4.418  1.7222 -0.7902  0.1153
 6803TIP3    H220371   5.547   4.129   4.539 -0.6008  0.8250 -1.6768
 6804TIP3   OH220372   4.998   4.131   5.341  0.2514  0.1622  0.9298
 6804TIP3    H120373   4.974   4.107   5.430 -2.3001  0.5029  0.3713
 6804TIP3    H220374   4.981   4.225   5.336  1.4327  0.3562  0.3961
 6805TIP3   OH220375   3.715   4.368   4.409 -0.1323  0.6955 -0.3251
 6805TIP3    H120376   3.691   4.455   4.441  0.0933  1.0256 -1.0562
 6805TIP3    H220377   3.662   4.355   4.330 -0.1456  0.1829 -0.2385
 6806TIP3   OH220378   4.530   5.800   1.429 -0.6532  0.5326  0.0600
 6806TIP3    H120379   4.475   5.877   1.441  0.3288  1.4034 -0.9248
 6806TIP3    H220380   4.619   5.835   1.419 -0.2444 -0.7032 -0.7776
 6807TIP3   OH220381   3.475   4.389   5.643  0.5271  0.5592  0.0020
 6807TIP3    H120382   3.380   4.397   5.656  0.3113 -1.5025 -0.1357
 6807TIP3    H220383   3.512   4.457   5.699 -1.0200  1.1737  0.3208
 6808TIP3   OH220384   4.496   2.419   4.740  0.0682  0.3540 -0.1928
 6808TIP3    H120385   4.552   2.496   4.743  0.2392  0.2702 -1.0751
 6808TIP3    H220386   4.537   2.357   4.800  0.7393  0.4105 -0.5931
 6809TIP3   OH220387   3.916   6.165   4.152  0.1939  0.2495  0.3429
 6809TIP3    H120388   3.947   6.207   4.072 -0.6857 -0.2945 -0.2979
 6809TIP3    H220389   3.986   6.104   4.176  0.6580  0.7388  0.2506
 6810TIP3   OH220390   3.225   4.260   4.747  0.5294  0.7824  0.3116
 6810TIP3    H120391   3.279   4.331   4.781  1.8115  0.0258 -0.1330
 6810TIP3    H220392   3.260   4.181   4.788 -1.4965  0.4765  1.5598
 6811TIP3   OH220393   5.087   5.992   4.600  0.0723  0.3987 -0.2841
 6811TIP3    H120394   5.117   6.049   4.529  1.3505 -0.5479 -0.5124
 6811TIP3    H220395   4.991   5.997   4.596  0.1518  1.9748 -0.7430
 6812TIP3   OH220396   5.552   5.368   3.397  0.1346  0.3435 -0.2887
 6812TIP3    H120397   5.468   5.329   3.372 -0.4345  1.5549 -0.3067
 6812TIP3    H220398   5.611   5.347   3.325 -0.6737  1.1560 -1.1841
 6813TIP3   OH220399   3.196   4.309   3.514 -0.7775 -0.0678  0.0763
 6813TIP3    H120400   3.157   4.345   3.594 -0.5922 -0.4797  0.3551
 6813TIP3    H220401   3.124   4.310   3.451 -0.2699  2.5524 -0.4944
 6814TIP3   OH220402   2.412   5.617   1.459  0.4830  0.3795  0.1823
 6814TIP3    H120403   2.485   5.603   1.398 -1.6628  1.1115 -2.6619
 6814TIP3    H220404   2.387   5.709   1.446 -1.9933 -0.3071 -0.1115
 6815TIP3   OH220405   4.521   5.012   4.833 -0.9957 -0.6876 -0.1790
 6815TIP3    H120406   4.474   5.090   4.862 -1.0490 -1.0258  0.6524
 6815TIP3    H220407   4.608   5.044   4.809 -1.2189 -0.2765 -0.4427
 6816TIP3   OH220408   2.075   6.459   1.110  0.2424  0.3515 -0.1945
 6816TIP3    H120409   2.103   6.485   1.022  0.5199 -0.2011 -0.2791
 6816TIP3    H220410   2.017   6.384   1.095 -0.4212  0.8143  0.0469
 6817TIP3   OH220411   1.617   0.930   0.189 -0.1819  0.3860 -0.0492
 6817TIP3    H120412   1.558   0.988   0.238  1.8561  1.6848  0.9288
 6817TIP3    H220413   1.701   0.938   0.234  0.7433 -1.4699 -1.3982
 6818TIP3   OH220414   2.331   2.326   4.368  0.0526 -0.3094 -0.3065
 6818TIP3    H120415   2.270   2.279   4.426 -0.9965 -0.1517 -1.2745
 6818TIP3    H220416   2.351   2.407   4.415 -2.6462  0.9010 -1.2198
 6819TIP3   OH220417   5.094   4.734   5.294 -0.5584  0.0367 -0.4639
 6819TIP3    H120418   5.069   4.775   5.377  1.0049 -2.3399  1.2378
 6819TIP3    H220419   5.026   4.761   5.232 -2.6175  0.5693  1.9754
 6820TIP3   OH220420   4.552   4.947   0.570 -0.3792  0.2480  0.2562
 6820TIP3    H120421   4.638   4.973   0.536 -1.6851  2.9840 -1.0927
 6820TIP3    H220422   4.563   4.855   0.595  2.8770  0.4979 -0.0584
 6821TIP3   OH220423   1.778   5.737   3.423  0.1559  0.2820 -0.0536
 6821TIP3    H120424   1.815   5.814   3.467  1.7565 -0.5517  0.0696
 6821TIP3    H220425   1.835   5.665   3.449 -1.8160 -1.1139  0.5020
 6822TIP3   OH220426   3.871   4.768   3.558  0.2077  0.3235  0.0189
 6822TIP3    H120427   3.793   4.739   3.510  0.1538 -2.4007  1.6592
 6822TIP3    H220428   3.838   4.803   3.640  0.6395  0.4389  0.1452
 6823TIP3   OH220429   5.322   5.026   5.193 -0.4881 -0.1025 -0.0250
 6823TIP3    H120430   5.339   4.944   5.240  1.1688 -0.7991 -1.7793
 6823TIP3    H220431   5.249   5.005   5.134 -1.0753  0.1375  0.6067
 6824TIP3   OH220432   4.657   5.491   1.403 -0.1270 -0.0004 -0.0943
 6824TIP3    H120433   4.740   5.468   1.445 -0.0871 -0.5132 -0.4618
 6824TIP3    H220434   4.682   5.546   1.329 -0.0341 -1.0839 -0.8785
 6825TIP3   OH220435   5.116   3.667   5.013 -0.0818 -0.2226  0.6748
 6825TIP3    H120436   5.108   3.638   4.922 -0.9401  0.1797  0.6169
 6825TIP3    H220437   5.194   3.722   5.014  0.2462 -0.6744  0.3015
 6826TIP3   OH220438   2.194   6.257   5.501  0.3024 -0.1921  0.1013
 6826TIP3    H120439   2.234   6.244   5.587 -2.9046 -0.5375  1.6205
 6826TIP3    H220440   2.197   6.172   5.459 -2.5130 -1.2573  1.9094
 6827TIP3   OH220441   6.185   3.985   4.190 -0.2352  0.2649  0.3540
 6827TIP3    H120442   6.244   3.913   4.169 -0.3036  0.7971 -1.8894
 6827TIP3    H220443   6.243   4.060   4.203 -0.2619  0.2198  0.7148
 6828TIP3   OH220444   4.905   4.984   4.193  0.1958 -0.6546  0.4492
 6828TIP3    H120445   4.972   5.024   4.137  1.0668 -1.3276  1.0006
 6828TIP3    H220446   4.847   4.939   4.131 -0.1171  0.4732 -0.0797
 6829TIP3   OH220447   2.562   3.064   3.571  0.0537 -0.4487  0.4446
 6829TIP3    H120448   2.645   3.049   3.525  0.4624 -0.0079  1.0277
 6829TIP3    H220449   2.505   2.993   3.542  0.5533 -0.6012 -0.1669
 6830TIP3   OH220450   3.730   4.549   3.411 -0.1137  0.1673 -0.0872
 6830TIP3    H120451   3.817   4.581   3.388  0.2304  3.1376  4.6495
 6830TIP3    H220452   3.745   4.489   3.484 -1.8983 -0.8740 -0.5425
 6831TIP3   OH220453   5.776   5.813   2.328  0.2337  0.6341  0.1190
 6831TIP3    H120454   5.780   5.759   2.406  0.2677  0.1422 -0.2209
 6831TIP3    H220455   5.861   5.801   2.285 -0.9674 -1.7655 -1.7469
 6832TIP3   OH220456   5.403   3.480   3.929  0.6867 -0.3951 -0.0074
 6832TIP3    H120457   5.395   3.453   3.837 -0.4608  2.3696 -0.7943
 6832TIP3    H220458   5.495   3.468   3.949  1.5528  1.6352 -2.4749
 6833TIP3   OH220459   3.003   4.708   2.527 -0.3430 -0.0889 -0.0755
 6833TIP3    H120460   3.076   4.648   2.510 -0.2112  0.2982 -0.8914
 6833TIP3    H220461   3.036   4.768   2.594  0.6412  1.0462 -1.5430
 6834TIP3   OH220462   3.687   4.033   3.441 -0.7006 -0.1979 -0.0563
 6834TIP3    H120463   3.746   3.967   3.405 -1.7003 -1.6648  0.9212
 6834TIP3    H220464   3.743   4.087   3.497  0.2616  0.2263 -1.4128
 6835TIP3   OH220465   3.581   6.470   5.070 -0.3223  0.1629 -0.0321
 6835TIP3    H120466   3.656   6.412   5.082 -0.5221  0.0784  0.8426
 6835TIP3    H220467   3.615   6.543   5.018  0.4766  0.3527  0.7466
 6836TIP3   OH220468   4.547   1.907   6.052 -0.0652 -0.3387 -0.2962
 6836TIP3    H120469   4.539   1.998   6.023 -0.1884 -0.2558 -0.0015
 6836TIP3    H220470   4.482   1.860   6.001 -1.6476  0.1314  1.2392
 6837TIP3   OH220471   5.171   4.573   3.413 -0.7600  0.2474  0.1775
 6837TIP3    H120472   5.219   4.655   3.421  0.0828  0.1031 -2.7919
 6837TIP3    H220473   5.096   4.593   3.357 -0.2250 -1.0894 -1.0718
 6838TIP3   OH220474   3.605   5.914   3.654 -0.1922 -0.0701  0.1910
 6838TIP3    H120475   3.539   5.943   3.718  0.3160  0.8798  0.2932
 6838TIP3    H220476   3.688   5.943   3.691  0.0348  1.2757 -1.3368
 6839TIP3   OH220477   0.736   2.002   0.797 -0.2306  0.4766 -0.1108
 6839TIP3    H120478   0.687   1.925   0.825  1.3984 -1.2968 -1.9495
 6839TIP3    H220479   0.721   2.066   0.866 -1.0493 -1.7313  1.8424
 6840TIP3   OH220480   2.560   3.786   3.774 -0.9794 -0.3458 -0.3166
 6840TIP3    H120481   2.640   3.838   3.763 -1.7256  0.6083 -1.4598
 6840TIP3    H220482   2.590   3.702   3.809  0.4068  0.3558  0.2267
 6841TIP3   OH220483   5.053   5.354   3.841  0.6416 -0.3802  0.2144
 6841TIP3    H120484   5.028   5.447   3.836 -0.2337 -0.5337  1.4108
 6841TIP3    H220485   5.137   5.349   3.796  0.7371  1.0147  0.2129
 6842TIP3   OH220486   4.263   4.859   2.521 -0.3852  0.4186 -0.8045
 6842TIP3    H120487   4.221   4.833   2.439 -0.2276  0.1481 -0.8005
 6842TIP3    H220488   4.214   4.813   2.589  0.5940 -0.7681 -0.8767
 6843TIP3   OH220489   3.129   4.400   3.821  0.6089  0.2530 -0.2317
 6843TIP3    H120490   3.035   4.398   3.801  0.3549  1.8036  0.7102
 6843TIP3    H220491   3.145   4.318   3.869 -0.0649 -0.4312 -1.1535
 6844TIP3   OH220492   3.245   3.044   5.041  0.0620  0.3807 -0.0555
 6844TIP3    H120493   3.202   2.962   5.015 -0.4468  1.0926 -1.4703
 6844TIP3    H220494   3.180   3.090   5.094  0.2098  0.0501  0.4161
 6845TIP3   OH220495   2.656   4.779   2.841 -0.3230 -0.2007 -0.1221
 6845TIP3    H120496   2.705   4.725   2.779 -2.6625 -4.6200  1.6358
 6845TIP3    H220497   2.569   4.786   2.802 -0.6918  0.3219  0.7905
 6846TIP3   OH220498   1.779   3.502   5.520  0.2076  0.1028  0.0822
 6846TIP3    H120499   1.775   3.591   5.555  1.6721  0.4101 -0.4817
 6846TIP3    H220500   1.730   3.449   5.582  0.6233  1.0520  1.2327
 6847TIP3   OH220501   4.497   2.504   3.444 -0.2309  0.6302  0.2230
 6847TIP3    H120502   4.462   2.478   3.529  0.7022 -0.2618  0.3464
 6847TIP3    H220503   4.422   2.540   3.397 -0.9539  0.2628  1.0809
 6848TIP3   OH220504   7.063   4.600   3.931  0.0410  0.3800  0.0364
 6848TIP3    H120505   7.100   4.639   3.853 -2.4207 -0.1604 -1.4649
 6848TIP3    H220506   7.062   4.671   3.996 -2.0181  2.1677 -1.8473
 6849TIP3   OH220507   3.268   4.688   1.595 -0.0794  0.1740  0.6303
 6849TIP3    H120508   3.276   4.686   1.691  0.3219  0.2130  0.5982
 6849TIP3    H220509   3.358   4.693   1.564 -0.1963 -0.1165  0.2432
 6850TIP3   OH220510   3.455   4.789   4.660 -0.3888  0.5042 -0.2255
 6850TIP3    H120511   3.466   4.875   4.702  0.3054  0.0307  0.5844
 6850TIP3    H220512   3.385   4.747   4.711 -0.3122  0.3579 -0.2422
 6851TIP3   OH220513   3.018   3.374   4.581 -0.0634  0.0877 -0.1568
 6851TIP3    H120514   3.064   3.458   4.587 -0.0894  0.0839  0.0847
 6851TIP3    H220515   3.085   3.313   4.550 -0.1234  0.2636 -0.6400
 6852TIP3   OH220516   7.721   4.370   3.338 -0.0474 -0.1328  0.0146
 6852TIP3    H120517   7.659   4.442   3.328  1.5602  0.9929 -2.3735
 6852TIP3    H220518   7.708   4.316   3.260  0.3549 -1.1722  0.6562
 6853TIP3   OH220519   2.568   0.684   0.775 -0.4986 -0.7200  0.3440
 6853TIP3    H120520   2.543   0.726   0.857 -0.3955  1.1843 -0.5682
 6853TIP3    H220521   2.556   0.753   0.708  2.2283 -1.3160 -0.8262
 6854TIP3   OH220522   3.689   3.713   3.225  0.0040 -0.1364  0.1769
 6854TIP3    H120523   3.778   3.744   3.241  0.0959 -0.7380  0.8386
 6854TIP3    H220524   3.697   3.652   3.152 -0.0980  0.9800 -0.7739
 6855TIP3   OH220525   4.922   5.693   4.556 -0.0760 -0.7279 -0.5664
 6855TIP3    H120526   4.951   5.612   4.514 -0.0118 -0.8333 -0.3202
 6855TIP3    H220527   4.853   5.726   4.498 -0.2533 -1.0739 -0.5549
 6856TIP3   OH220528   3.489   6.153   5.066 -0.1374 -0.2053 -0.4167
 6856TIP3    H120529   3.562   6.125   5.011  0.6353 -0.0858  0.5309
 6856TIP3    H220530   3.424   6.187   5.005  0.5402 -0.4446 -1.2805
 6857TIP3   OH220531   3.959   0.896   2.808  0.0249 -0.4715  0.2042
 6857TIP3    H120532   3.944   0.865   2.897  0.1258  0.9541  0.7249
 6857TIP3    H220533   3.921   0.984   2.806 -1.7778 -1.2505 -1.7350
 6858TIP3   OH220534   6.328   7.109   4.249 -0.4540 -0.5267 -0.0916
 6858TIP3    H120535   6.371   7.039   4.298 -2.3426 -0.6971  1.3423
 6858TIP3    H220536   6.300   7.068   4.168  0.8761 -0.7355 -0.4637
 6859TIP3   OH220537   3.726   5.776   4.962  0.3245  0.1528 -0.2306
 6859TIP3    H120538   3.743   5.685   4.984  0.5004  0.6016  1.5452
 6859TIP3    H220539   3.631   5.787   4.976  0.3911  0.3720  0.0533
 6860TIP3   OH220540   0.929   0.677   0.293  0.1988 -0.0240  0.2287
 6860TIP3    H120541   0.938   0.691   0.387 -0.8210 -1.4690  0.5606
 6860TIP3    H220542   0.995   0.734   0.254 -0.0850  1.3915  1.7643
 6861TIP3   OH220543   3.200   5.781   4.916  0.1108  0.9266  0.0432
 6861TIP3    H120544   3.204   5.685   4.910 -0.5013  0.9337 -0.5432
 6861TIP3    H220545   3.148   5.797   4.995  0.2565  0.7701  0.1701
 6862TIP3   OH220546   5.636   2.241   4.928  0.4779 -0.3879  0.0803
 6862TIP3    H120547   5.600   2.163   4.969  0.9079 -0.4239  0.3932
 6862TIP3    H220548   5.719   2.256   4.973  0.9547 -0.4199 -0.7666
 6863TIP3   OH220549   5.231   3.371   5.021 -0.4644 -0.0862  0.1607
 6863TIP3    H120550   5.197   3.460   5.026 -0.2361  0.1572 -2.1076
 6863TIP3    H220551   5.167   3.323   4.968 -0.9613 -1.4830  1.9552
 6864TIP3   OH220552   1.960   4.595   1.554  0.1865 -0.4910  0.2005
 6864TIP3    H120553   1.898   4.664   1.529  0.7642 -0.0887 -0.1624
 6864TIP3    H220554   1.988   4.619   1.642 -1.0347 -1.3100  0.8245
 6865TIP3   OH220555   2.530   4.557   5.001  0.3805 -0.7674 -0.2313
 6865TIP3    H120556   2.480   4.638   4.988  0.5415 -0.6704 -0.2419
 6865TIP3    H220557   2.474   4.504   5.059  0.3157 -0.6118 -0.1513
 6866TIP3   OH220558   3.427   5.453   5.126 -0.7015 -0.0068  0.1321
 6866TIP3    H120559   3.473   5.410   5.198  2.3692  1.1886 -1.0107
 6866TIP3    H220560   3.397   5.537   5.163  0.5775  0.4610  0.1379
 6867TIP3   OH220561   6.191   7.053   0.952 -0.6497 -0.0261 -0.2377
 6867TIP3    H120562   6.271   7.037   0.901 -2.1381  0.1098 -2.7335
 6867TIP3    H220563   6.178   6.974   1.003  0.6116 -0.4086 -0.4929
 6868TIP3   OH220564   7.357   5.293   3.057 -0.9487  0.1663  0.1605
 6868TIP3    H120565   7.270   5.324   3.030 -1.0285 -0.2765 -0.1027
 6868TIP3    H220566   7.364   5.318   3.149 -1.3669  0.1860  0.1887
 6869TIP3   OH220567   4.892   5.329   3.534  0.0692 -0.2454  0.4405
 6869TIP3    H120568   4.872   5.253   3.589 -0.8001 -0.6243 -0.3766
 6869TIP3    H220569   4.818   5.334   3.473  0.5348  0.7595 -0.0454
 6870TIP3   OH220570   6.326   4.382   2.105  0.2744 -0.2268  0.1319
 6870TIP3    H120571   6.279   4.311   2.149  0.6045 -0.1003  0.6895
 6870TIP3    H220572   6.291   4.382   2.016  0.1725 -0.9982  0.1707
 6871TIP3   OH220573   5.853   1.888   5.295 -0.1241  0.0509  0.4683
 6871TIP3    H120574   5.913   1.962   5.287 -2.0395  1.5855 -0.3987
 6871TIP3    H220575   5.799   1.909   5.371 -0.9459 -0.2217 -0.0230
 6872TIP3   OH220576   6.363   4.104   3.665  0.3494  0.4855 -0.5522
 6872TIP3    H120577   6.338   4.017   3.632 -0.2978  0.0103  1.1444
 6872TIP3    H220578   6.434   4.085   3.727  0.1121  1.1756 -0.0806
 6873TIP3   OH220579   5.155   2.923   5.485  0.0885 -0.0020  0.4810
 6873TIP3    H120580   5.213   2.951   5.414 -1.0290  1.7634  0.2310
 6873TIP3    H220581   5.195   2.958   5.564 -1.0619  1.9682  0.2169
 6874TIP3   OH220582   0.824   5.596   2.073  0.1572 -0.0272  0.0933
 6874TIP3    H120583   0.898   5.650   2.101  0.5082 -1.2295  1.5298
 6874TIP3    H220584   0.820   5.609   1.978  0.1647  2.5920  0.3999
 6875TIP3   OH220585   5.140   3.513   2.363  0.1184  0.5399  0.0467
 6875TIP3    H120586   5.193   3.511   2.443  0.4890 -0.2166 -0.2106
 6875TIP3    H220587   5.159   3.430   2.320 -0.6882  0.6042 -0.4404
 6876TIP3   OH220588   4.223   3.691   1.260 -0.0318 -0.2789  0.0032
 6876TIP3    H120589   4.228   3.776   1.304  1.2837 -0.9259  1.1460
 6876TIP3    H220590   4.196   3.712   1.171  0.1078  1.3251  0.3200
 6877TIP3   OH220591   4.510   3.017   3.227  0.0268 -0.3064 -0.0966
 6877TIP3    H120592   4.434   3.054   3.182 -0.2872  0.0978  0.7587
 6877TIP3    H220593   4.519   2.929   3.192 -0.8841 -0.3806 -0.1293
 6878TIP3   OH220594   6.810   3.122   3.726 -0.0463  0.1142 -0.1308
 6878TIP3    H120595   6.782   3.182   3.657 -0.4780 -0.4709 -0.4825
 6878TIP3    H220596   6.886   3.077   3.689 -1.2430 -1.3617 -0.9037
 6879TIP3   OH220597   6.953   3.597   5.468  0.2393  0.2839  0.3765
 6879TIP3    H120598   6.867   3.594   5.426  0.5274  1.4469 -0.3232
 6879TIP3    H220599   6.984   3.506   5.466  0.7921  0.4688 -3.1494
 6880TIP3   OH220600   5.122   4.696   3.128 -0.2497 -0.0482  0.2560
 6880TIP3    H120601   5.045   4.640   3.118  1.0937 -1.4869 -2.4819
 6880TIP3    H220602   5.196   4.636   3.118  1.2553  1.4884  1.8894
 6881TIP3   OH220603   5.164   3.401   3.276  0.0987 -0.3724 -0.1038
 6881TIP3    H120604   5.089   3.358   3.234 -1.4359  1.4287  0.6970
 6881TIP3    H220605   5.154   3.494   3.253  2.3207 -0.1763 -0.3111
 6882TIP3   OH220606   2.952   6.437   5.831 -0.3343  0.1626  0.1353
 6882TIP3    H120607   2.933   6.497   5.904 -1.3215 -0.5970  0.5071
 6882TIP3    H220608   3.042   6.459   5.805  0.0764  0.3573  1.6627
 6883TIP3   OH220609   5.451   3.329   3.268 -0.3580 -0.2102 -0.1430
 6883TIP3    H120610   5.474   3.315   3.360 -0.4267  1.6226  0.1764
 6883TIP3    H220611   5.360   3.356   3.269 -0.2222  0.2875 -0.7148
 6884TIP3   OH220612   5.997   7.190   0.595  0.4668 -0.2049  0.2238
 6884TIP3    H120613   6.013   7.241   0.515  0.1789 -0.6748 -0.1363
 6884TIP3    H220614   6.082   7.188   0.639  0.6595 -0.0441 -0.1349
 6885TIP3   OH220615   5.116   2.958   3.231  0.5123  0.0228 -0.0241
 6885TIP3    H120616   5.134   2.891   3.297 -1.1358  0.1472  0.5734
 6885TIP3    H220617   5.044   2.922   3.179 -0.8931  1.6453  0.7667
 6886TIP3   OH220618   4.540   3.578   2.140  0.4933  0.9906 -0.6030
 6886TIP3    H120619   4.629   3.555   2.114  0.2935 -0.8103  0.2782
 6886TIP3    H220620   4.545   3.589   2.235 -0.7611 -1.7463 -0.1791
 6887TIP3   OH220621   4.089   4.128   4.527 -0.3733  0.1777 -0.2075
 6887TIP3    H120622   4.034   4.061   4.486 -0.5165  0.5236 -0.5857
 6887TIP3    H220623   4.166   4.133   4.471 -0.2320  0.1354 -0.0201
 6888TIP3   OH220624   4.587   6.591   4.874 -0.6167 -0.3610 -0.3232
 6888TIP3    H120625   4.510   6.603   4.929 -0.6192 -1.9608  0.0521
 6888TIP3    H220626   4.633   6.517   4.914  0.0843 -0.6679 -1.6878
 6889TIP3   OH220627   4.047   6.763   4.966  0.3164  0.2732  0.1532
 6889TIP3    H120628   4.020   6.677   4.997  0.5746  0.1894  0.1448
 6889TIP3    H220629   4.103   6.745   4.890 -1.0033  0.4970 -0.8986
 6890TIP3   OH220630   0.612   3.458   0.177  0.2108 -0.4014  0.3646
 6890TIP3    H120631   0.677   3.516   0.136  0.2494 -1.1085 -0.6039
 6890TIP3    H220632   0.665   3.391   0.221  0.1513 -1.7570 -1.5698
 6891TIP3   OH220633   5.892   4.268   2.925 -0.1000 -0.2576 -0.3523
 6891TIP3    H120634   5.929   4.297   3.009  0.1939 -1.6539  0.0045
 6891TIP3    H220635   5.959   4.290   2.860 -0.3698  0.9189 -0.2537
 6892TIP3   OH220636   3.594   3.456   4.638  0.2505 -0.1094 -0.2893
 6892TIP3    H120637   3.584   3.361   4.639  0.3420 -0.1138  2.5034
 6892TIP3    H220638   3.675   3.473   4.686 -1.0360  1.5115  1.3715
 6893TIP3   OH220639   2.932   4.856   3.601 -0.0835 -0.3338  0.2968
 6893TIP3    H120640   2.868   4.877   3.669 -0.5859 -0.5811 -0.0905
 6893TIP3    H220641   3.012   4.900   3.629  0.1346 -1.6549  1.8100
 6894TIP3   OH220642   6.240   0.220   5.164  0.2546  0.6091 -0.0671
 6894TIP3    H120643   6.287   0.258   5.239  2.6614 -0.6311 -0.8933
 6894TIP3    H220644   6.243   0.289   5.097  1.6424  0.2372 -0.3968
 6895TIP3   OH220645   3.662   4.152   2.813  0.4427  0.1349  0.3165
 6895TIP3    H120646   3.709   4.235   2.820  0.3697  0.2121 -0.0738
 6895TIP3    H220647   3.726   4.091   2.776  0.1046  0.3549 -0.6415
 6896TIP3   OH220648   5.189   4.126   2.627  0.5668  0.0279 -0.4522
 6896TIP3    H120649   5.127   4.056   2.645  2.6140 -1.5230  0.6793
 6896TIP3    H220650   5.178   4.188   2.700  0.9068 -0.6310  0.1562
 6897TIP3   OH220651   6.424   4.663   3.713 -0.4664  0.2873  0.4496
 6897TIP3    H120652   6.340   4.629   3.743 -0.2894 -0.2113  0.3894
 6897TIP3    H220653   6.403   4.707   3.630 -0.1522 -2.7260 -1.2852
 6898TIP3   OH220654   3.840   6.011   3.785 -0.2302  0.1982  0.6109
 6898TIP3    H120655   3.929   5.975   3.787 -0.8864 -1.4588  0.8559
 6898TIP3    H220656   3.853   6.106   3.790  1.4483 -0.0762  2.4856
 6899TIP3   OH220657   5.013   4.585   4.086 -0.5246 -0.4035 -0.2658
 6899TIP3    H120658   5.056   4.571   4.002  0.3359  0.8609 -0.0600
 6899TIP3    H220659   5.048   4.515   4.142  3.1689  1.9681  0.5653
 6900TIP3   OH220660   3.960   4.576   2.362  0.6293 -0.1416 -0.3128
 6900TIP3    H120661   4.028   4.544   2.302  0.6897 -0.5036 -0.0501
 6900TIP3    H220662   3.960   4.671   2.349  1.4050 -0.1019 -0.0882
 6901TIP3   OH220663   5.164   1.582   5.373 -1.0607  0.1524 -0.5005
 6901TIP3    H120664   5.212   1.571   5.291 -0.8885  0.5814 -0.4572
 6901TIP3    H220665   5.094   1.643   5.352 -0.8499  0.4774 -0.2582
 6902TIP3   OH220666   6.891   5.189   4.861  0.2769  0.6159  0.1490
 6902TIP3    H120667   6.940   5.145   4.930  1.7007  1.7581 -0.1161
 6902TIP3    H220668   6.917   5.145   4.781 -2.3843 -1.6025  0.4222
 6903TIP3   OH220669   3.269   3.260   2.746 -0.3354 -0.4593  0.3728
 6903TIP3    H120670   3.269   3.348   2.786 -2.3377 -0.6833  0.9322
 6903TIP3    H220671   3.354   3.223   2.770 -0.1447  0.7034  1.5700
 6904TIP3   OH220672   4.569   4.080   4.184 -0.4480 -0.4028  0.2010
 6904TIP3    H120673   4.661   4.074   4.211 -0.7889  0.2267  1.5070
 6904TIP3    H220674   4.523   4.016   4.238 -0.5120 -2.0729 -1.7576
 6905TIP3   OH220675   2.856   3.323   1.609  0.2288  0.7138  0.1163
 6905TIP3    H120676   2.861   3.318   1.514 -0.9116  2.1138 -0.0298
 6905TIP3    H220677   2.791   3.256   1.632 -1.3048  2.0331 -0.3041
 6906TIP3   OH220678   2.464   2.077   3.122  0.3368  0.3221 -0.0152
 6906TIP3    H120679   2.482   2.106   3.033 -0.5877 -0.9359 -0.6236
 6906TIP3    H220680   2.462   2.158   3.173  2.4681  0.9169 -0.8237
 6907TIP3   OH220681   6.557   3.669   3.482  0.6740  0.2337  0.3062
 6907TIP3    H120682   6.505   3.603   3.436  0.2837  0.1448  0.8726
 6907TIP3    H220683   6.493   3.735   3.508  1.0074  0.6489  0.0743
 6908TIP3   OH220684   2.914   5.327   3.346 -0.0938 -0.1913 -0.1069
 6908TIP3    H120685   2.841   5.320   3.285  0.0748 -1.5703 -0.1739
 6908TIP3    H220686   2.992   5.310   3.293  0.0580 -1.3478  0.4594
 6909TIP3   OH220687   3.382   3.716   1.947  0.5815 -0.2879  0.0393
 6909TIP3    H120688   3.293   3.752   1.950  0.3597 -0.7881 -0.4836
 6909TIP3    H220689   3.410   3.731   1.856  1.1680  0.1907  0.2943
 6910TIP3   OH220690   4.222   4.878   0.824 -0.1159  0.1822  0.0440
 6910TIP3    H120691   4.204   4.868   0.731 -0.3761 -0.5457  0.1652
 6910TIP3    H220692   4.278   4.955   0.830 -1.0804  0.9463 -0.5955
 6911TIP3   OH220693   3.119   0.476   6.244  0.0401 -0.2823 -0.4868
 6911TIP3    H120694   3.188   0.451   6.305 -1.4113 -0.5045  1.1077
 6911TIP3    H220695   3.070   0.395   6.229 -0.0825 -0.0525 -1.3151
 6912TIP3   OH220696   3.348   2.213   5.261 -0.8006 -0.4951  0.1584
 6912TIP3    H120697   3.439   2.237   5.246 -0.1586 -3.0314 -0.1939
 6912TIP3    H220698   3.347   2.177   5.349 -0.9354 -2.8447 -0.7774
 6913TIP3   OH220699   2.111   3.953   0.912 -0.2908 -0.0013  0.0337
 6913TIP3    H120700   2.055   4.021   0.950 -2.6953 -3.1923  2.4947
 6913TIP3    H220701   2.069   3.931   0.829 -1.4741 -0.8580  0.8491
 6914TIP3   OH220702   2.208   5.556   3.893 -0.7177  0.0321  0.0554
 6914TIP3    H120703   2.225   5.485   3.832 -0.6092  0.5845 -0.5644
 6914TIP3    H220704   2.178   5.513   3.973 -0.1905 -0.7303 -0.1579
 6915TIP3   OH220705   4.765   4.678   3.869  0.4781 -0.2938 -0.3067
 6915TIP3    H120706   4.735   4.765   3.894  2.7928  0.7753 -1.2056
 6915TIP3    H220707   4.816   4.648   3.945  0.9738 -0.2451 -0.6232
 6916TIP3   OH220708   5.215   5.912   4.151 -0.1465  0.2303  0.2040
 6916TIP3    H120709   5.224   5.844   4.084  0.7888 -0.9276  1.4770
 6916TIP3    H220710   5.124   5.903   4.182  0.1174 -0.8113  0.7221
 6917TIP3   OH220711   6.533   3.197   2.378  0.2098 -0.5461 -0.1080
 6917TIP3    H120712   6.442   3.189   2.350 -0.1813 -0.1086  0.9831
 6917TIP3    H220713   6.570   3.110   2.363 -0.4395 -0.7831 -0.3846
 6918TIP3   OH220714   7.431   2.477   2.362 -0.4576  1.1390  0.2006
 6918TIP3    H120715   7.486   2.481   2.440  1.0904  0.8823 -0.8512
 6918TIP3    H220716   7.344   2.504   2.393  0.4981  2.6983  1.6748
 6919TIP3   OH220717   6.486   3.347   4.683  0.3640 -0.3063 -0.4111
 6919TIP3    H120718   6.434   3.369   4.760 -0.6771 -0.0574 -1.1723
 6919TIP3    H220719   6.492   3.429   4.634 -1.1532 -1.0357 -1.8676
 6920TIP3   OH220720   0.242   3.906   2.017  0.0148  0.0111  0.1877
 6920TIP3    H120721   0.244   3.972   2.086  3.4732 -0.6124  0.8041
 6920TIP3    H220722   0.202   3.829   2.058 -0.8692  0.6445  0.5170
 6921TIP3   OH220723   6.308   4.073   1.432  0.9372 -0.2326 -0.2019
 6921TIP3    H120724   6.382   4.016   1.453  1.0556 -0.6381 -1.6543
 6921TIP3    H220725   6.343   4.162   1.440  0.5987 -0.3005  2.6424
 6922TIP3   OH220726   7.076   4.375   2.780  0.0892 -0.1469  0.2301
 6922TIP3    H120727   7.041   4.419   2.702  1.6480  1.6876  0.5231
 6922TIP3    H220728   7.052   4.432   2.853  0.5430 -0.7310  0.8456
 6923TIP3   OH220729   6.050   5.186   4.331  0.2290 -0.1807  0.4204
 6923TIP3    H120730   6.033   5.154   4.420  1.3699 -2.3114 -0.0882
 6923TIP3    H220731   6.140   5.159   4.313 -0.2818 -0.5424 -1.7023
 6924TIP3   OH220732   6.350   5.465   1.921 -0.4520 -0.4497 -0.0965
 6924TIP3    H120733   6.403   5.386   1.913 -0.3580 -0.4034  0.0690
 6924TIP3    H220734   6.405   5.527   1.969 -0.8110 -0.5483  0.4498
 6925TIP3   OH220735   0.131   6.808   1.866 -0.2165 -0.0758 -0.0796
 6925TIP3    H120736   0.090   6.793   1.781  2.0187  0.6764 -1.3396
 6925TIP3    H220737   0.137   6.903   1.873  1.5221 -0.1659 -0.0604
 6926TIP3   OH220738   7.605   3.827   1.565  0.3620 -0.4267 -0.1091
 6926TIP3    H120739   7.510   3.833   1.575  0.2561 -1.6330 -0.2118
 6926TIP3    H220740   7.619   3.739   1.528  1.4208  0.2309 -1.2998
 6927TIP3   OH220741   6.837   3.059   2.074  0.1505 -0.4533 -0.1899
 6927TIP3    H120742   6.760   3.112   2.093 -0.2220 -1.4656  1.1968
 6927TIP3    H220743   6.843   3.058   1.979  0.4098  2.4200 -0.2333
 6928TIP3   OH220744   5.284   4.897   2.952 -0.0621  0.4142 -0.0877
 6928TIP3    H120745   5.228   4.837   3.001 -1.0189  1.4236  0.0543
 6928TIP3    H220746   5.346   4.930   3.016  0.4166 -0.3383 -0.1478
 6929TIP3   OH220747   6.073   5.263   3.102 -0.3689 -0.3247 -0.3945
 6929TIP3    H120748   6.103   5.353   3.111 -0.2622 -0.2906 -1.0795
 6929TIP3    H220749   6.137   5.221   3.044  0.2873 -1.1843  0.9240
 6930TIP3   OH220750   6.413   6.367   2.038 -0.7520 -0.0268  0.5518
 6930TIP3    H120751   6.498   6.402   2.064 -0.9194  1.6904 -1.1349
 6930TIP3    H220752   6.390   6.415   1.959 -2.7960 -1.2463  0.3648
 6931TIP3   OH220753   5.045   1.897   3.112 -0.0958 -0.3519 -0.5546
 6931TIP3    H120754   4.962   1.883   3.068 -0.6265  2.0041 -0.3522
 6931TIP3    H220755   5.097   1.948   3.050  0.6843 -0.6217 -0.1300
 6932TIP3   OH220756   6.752   5.942   4.154  0.4650  0.0303 -0.4592
 6932TIP3    H120757   6.827   5.883   4.161  0.4519  0.1091  0.4676
 6932TIP3    H220758   6.767   6.008   4.222 -1.0871 -0.6805  0.6066
 6933TIP3   OH220759   7.340   6.244   2.474  0.4367  0.2677  0.5567
 6933TIP3    H120760   7.427   6.208   2.459  0.4210  0.7211 -0.7006
 6933TIP3    H220761   7.281   6.170   2.460  0.5053  0.4005 -0.4556
 6934TIP3   OH220762   5.892   3.370   2.937 -0.4608 -0.5242 -0.0960
 6934TIP3    H120763   5.904   3.465   2.941 -0.7789 -0.4703 -0.4115
 6934TIP3    H220764   5.803   3.356   2.969 -0.5208 -0.6939 -0.3392
 6935TIP3   OH220765   6.533   4.216   2.545  0.1937  0.3849  0.2427
 6935TIP3    H120766   6.543   4.124   2.570 -1.6161  0.1021 -0.0637
 6935TIP3    H220767   6.482   4.255   2.615  0.6530  1.0948  0.1952
 6936TIP3   OH220768   7.068   5.315   2.299  0.6427  0.0749 -0.3526
 6936TIP3    H120769   7.039   5.309   2.207  1.4171 -1.3595 -0.5215
 6936TIP3    H220770   7.163   5.307   2.294  0.6577 -0.3968  0.6029
 6937TIP3   OH220771   6.747   4.632   4.018 -0.2435  0.2836  0.2713
 6937TIP3    H120772   6.697   4.705   3.980  0.4298  0.0249 -1.1688
 6937TIP3    H220773   6.836   4.646   3.985  0.2610 -0.2241  1.4122
 6938TIP3   OH220774   7.251   5.299   4.018  0.1922 -0.0922 -0.0051
 6938TIP3    H120775   7.212   5.235   4.078  0.9577  0.0736  0.6832
 6938TIP3    H220776   7.288   5.245   3.948  0.1266 -0.3551  0.1606
 6939TIP3   OH220777   7.238   4.034   3.715  0.6067 -0.4353  0.1725
 6939TIP3    H120778   7.316   4.088   3.728 -0.2298  0.7463  0.3664
 6939TIP3    H220779   7.227   3.987   3.797  1.3806 -0.9709 -0.0219
 6940TIP3   OH220780   5.960   5.486   2.922  0.3512  0.4439  0.1054
 6940TIP3    H120781   5.893   5.550   2.946 -0.7415 -0.2236 -1.1528
 6940TIP3    H220782   5.931   5.404   2.962  1.7511  0.6907  1.7110
 6941TIP3   OH220783   6.119   5.319   1.808  0.1199 -0.3089 -0.1494
 6941TIP3    H120784   6.131   5.298   1.715  0.3100 -2.0863  0.2584
 6941TIP3    H220785   6.205   5.350   1.837  0.0534  0.2743 -0.5640
 6942TIP3   OH220786   4.736   5.161   2.557 -0.3998 -0.2658  0.0532
 6942TIP3    H120787   4.732   5.073   2.519  0.6722  0.2104 -1.2013
 6942TIP3    H220788   4.645   5.189   2.565 -0.6865 -0.9683 -0.7792
 6943TIP3   OH220789   7.188   2.597   2.388  0.8509 -0.2348 -0.2480
 6943TIP3    H120790   7.240   2.676   2.376 -0.2738  0.6710  0.6640
 6943TIP3    H220791   7.126   2.620   2.457 -1.0435 -1.1352 -1.6112
 6944TIP3   OH220792   6.989   3.681   3.055  0.2773  0.3395 -0.4128
 6944TIP3    H120793   7.054   3.724   3.111 -0.6699  1.0586  0.1500
 6944TIP3    H220794   7.004   3.717   2.968  1.9478 -0.9945 -0.7087
 6945TIP3   OH220795   6.967   4.568   1.973  0.1680  0.0377  0.2293
 6945TIP3    H120796   7.035   4.631   1.997 -0.0803  0.3421  0.1473
 6945TIP3    H220797   6.894   4.589   2.031  0.5197 -0.9844  1.0460
 6946TIP3   OH220798   5.885   4.975   4.078 -0.2154 -0.7533  0.0527
 6946TIP3    H120799   5.969   5.018   4.090 -0.2402 -0.6884 -0.0151
 6946TIP3    H220800   5.903   4.882   4.095  0.2884 -1.0262 -1.8549
 6947TIP3   OH220801   4.427   2.567   2.790 -0.2649 -0.0521 -0.6227
 6947TIP3    H120802   4.407   2.661   2.784  1.1931  0.6555  3.7423
 6947TIP3    H220803   4.522   2.562   2.784 -0.3219 -1.2248 -0.5678
 6948TIP3   OH220804   6.525   6.236   4.061  0.5146  0.0977 -0.2319
 6948TIP3    H120805   6.615   6.213   4.039 -0.0520 -0.0025 -2.6802
 6948TIP3    H220806   6.506   6.313   4.007 -0.9691 -0.1209 -0.0653
 6949TIP3   OH220807   5.471   3.578   2.444 -0.5153 -0.5862 -0.0242
 6949TIP3    H120808   5.431   3.613   2.365 -0.0784 -2.2146 -0.9967
 6949TIP3    H220809   5.397   3.555   2.500 -0.9011 -1.3483 -0.8268
 6950TIP3   OH220810   0.238   5.525   2.377  0.3177  0.7780  0.5144
 6950TIP3    H120811   0.235   5.490   2.466 -0.8262 -0.7856 -0.1148
 6950TIP3    H220812   0.193   5.609   2.383  1.2876  1.2397  1.6317
 6951TIP3   OH220813   7.442   3.290   1.713 -0.0095 -0.4331  0.5055
 6951TIP3    H120814   7.405   3.318   1.629 -1.2410 -2.0087  0.5227
 6951TIP3    H220815   7.533   3.268   1.693 -0.1782 -0.3775 -0.3174
 6952TIP3   OH220816   6.335   4.267   4.100  0.5324  0.0717  0.1686
 6952TIP3    H120817   6.292   4.272   4.015 -0.2553 -1.6636  0.4534
 6952TIP3    H220818   6.298   4.339   4.151 -1.7833 -1.1333  0.2731
 6953TIP3   OH220819   6.407   5.264   2.593 -0.2993 -0.6146 -0.3901
 6953TIP3    H120820   6.447   5.214   2.521 -0.8283 -2.0271  0.2865
 6953TIP3    H220821   6.313   5.257   2.577 -0.3649  0.7868 -0.6875
 6954TIP3   OH220822   6.738   3.619   3.196 -0.2341 -0.0874 -0.2387
 6954TIP3    H120823   6.705   3.676   3.266 -2.7305  0.0551 -1.4741
 6954TIP3    H220824   6.798   3.675   3.147  0.6917  0.1416  1.1452
 6955TIP3   OH220825   4.770   4.389   5.138  0.0280  0.1273 -0.1435
 6955TIP3    H120826   4.708   4.365   5.207 -0.3557  0.2413 -0.4489
 6955TIP3    H220827   4.756   4.323   5.070  1.1685 -0.6377  0.3404
 6956TIP3   OH220828   7.234   2.940   3.065 -0.4694 -0.0093 -0.0690
 6956TIP3    H120829   7.253   2.910   3.154 -1.5201 -0.1997  0.1007
 6956TIP3    H220830   7.265   3.030   3.063  0.1592 -0.2110  0.2865
 6957TIP3   OH220831   4.146   6.374   4.475 -0.2632 -0.3088  0.0150
 6957TIP3    H120832   4.186   6.432   4.409  0.0796  0.6820  1.0662
 6957TIP3    H220833   4.192   6.291   4.465  1.1290  0.4109  0.2647
 6958TIP3   OH220834   5.710   3.817   1.892  0.0098  0.0093 -0.0073
 6958TIP3    H120835   5.685   3.751   1.826 -1.3657  2.1964 -1.7523
 6958TIP3    H220836   5.793   3.851   1.861  0.7938 -0.9655  0.9770
 6959TIP3   OH220837   6.988   4.343   0.824  0.2853  0.3638 -0.5428
 6959TIP3    H120838   7.073   4.375   0.793  0.7023  1.5222  1.7201
 6959TIP3    H220839   6.992   4.351   0.919 -2.7245  1.3804 -0.4508
 6960TIP3   OH220840   4.532   5.163   1.514 -0.1445 -0.3878  0.5307
 6960TIP3    H120841   4.518   5.089   1.574  0.3880  0.4313  1.6808
 6960TIP3    H220842   4.627   5.179   1.519  0.0421 -0.8716 -1.2035
 6961TIP3   OH220843   6.220   4.244   3.847 -0.1970  0.4076 -0.1718
 6961TIP3    H120844   6.281   4.203   3.785 -0.0631 -2.2661  1.6881
 6961TIP3    H220845   6.133   4.224   3.812 -0.0979  1.5395 -1.1167
 6962TIP3   OH220846   0.706   5.378   3.502  0.2587 -0.6271 -0.2573
 6962TIP3    H120847   0.743   5.466   3.500  1.9357 -1.3438 -1.4376
 6962TIP3    H220848   0.762   5.330   3.563 -0.4199 -0.9870  0.0881
 6963TIP3   OH220849   1.276   7.019   2.785 -0.0013 -0.1296  0.3094
 6963TIP3    H120850   1.210   6.976   2.731  1.9437 -2.4518 -0.2901
 6963TIP3    H220851   1.336   7.060   2.723  0.1753  0.3834  0.8101
 6964TIP3   OH220852   7.010   3.440   2.684 -0.2272  0.1485 -0.2164
 6964TIP3    H120853   6.967   3.497   2.621 -0.3516 -0.4249 -0.6556
 6964TIP3    H220854   6.982   3.351   2.659  1.9622 -0.3096 -1.0957
 6965TIP3   OH220855   4.892   5.002   1.697  0.0223 -0.4249  0.3860
 6965TIP3    H120856   4.884   4.949   1.618 -1.3987 -0.5066  0.5657
 6965TIP3    H220857   4.986   5.003   1.717  0.2484 -1.4027 -0.6135
 6966TIP3   OH220858   6.407   5.688   1.367  0.0228 -0.2126 -0.4880
 6966TIP3    H120859   6.430   5.597   1.346 -2.3138 -0.7999 -0.6223
 6966TIP3    H220860   6.456   5.706   1.448 -1.9081 -2.6915  1.3246
 6967TIP3   OH220861   3.218   6.520   1.332 -0.2314 -0.1660  0.5917
 6967TIP3    H120862   3.140   6.575   1.323  0.0506  0.1121 -0.1964
 6967TIP3    H220863   3.200   6.466   1.409 -0.9398  0.3257  0.7777
 6968TIP3   OH220864   7.044   3.987   4.064  0.3132  0.5372  0.8924
 6968TIP3    H120865   7.010   4.069   4.098  0.6114  0.7685  0.6280
 6968TIP3    H220866   7.126   3.972   4.111 -0.5341 -0.4239  2.1064
 6969TIP3   OH220867   5.577   1.869   4.123  0.5711  0.3214  0.1084
 6969TIP3    H120868   5.512   1.935   4.148  1.3815  0.8091  0.9540
 6969TIP3    H220869   5.526   1.789   4.111 -0.1580  0.6359  1.0448
 6970TIP3   OH220870   6.493   3.394   3.446  0.3168  0.1456  0.1521
 6970TIP3    H120871   6.504   3.346   3.528  1.0159 -0.5191 -0.3255
 6970TIP3    H220872   6.582   3.405   3.413 -0.0307 -0.4382 -0.9932
 6971TIP3   OH220873   7.332   4.401   4.794 -0.2100 -0.1378  0.2460
 6971TIP3    H120874   7.407   4.343   4.807 -0.2537 -0.1882  0.2782
 6971TIP3    H220875   7.272   4.351   4.738 -0.5078 -0.3622  0.7596
 6972TIP3   OH220876   5.889   4.888   2.530 -0.3113 -0.0793 -0.3817
 6972TIP3    H120877   5.838   4.872   2.450 -0.3028 -1.0936 -0.1939
 6972TIP3    H220878   5.823   4.910   2.596 -0.2408  1.6938 -0.8880
 6973TIP3   OH220879   6.052   4.264   0.502 -0.4373 -0.3404 -0.3595
 6973TIP3    H120880   5.992   4.337   0.512 -0.8564 -0.7527  0.1139
 6973TIP3    H220881   6.020   4.197   0.562 -0.9954 -1.5318 -1.9449
 6974TIP3   OH220882   5.550   3.084   2.986  0.5400 -0.2505 -0.0388
 6974TIP3    H120883   5.483   3.030   3.026 -1.4857  0.1879 -2.6790
 6974TIP3    H220884   5.627   3.028   2.980 -0.1658 -1.3719  1.3031
 6975TIP3   OH220885   4.657   5.244   2.146  0.4870 -0.0281  0.6746
 6975TIP3    H120886   4.583   5.184   2.134  1.0238 -0.9541  1.9189
 6975TIP3    H220887   4.628   5.325   2.105 -0.0943 -1.2445 -1.4152
 6976TIP3   OH220888   5.615   4.538   2.101  0.3115 -1.0974 -0.6786
 6976TIP3    H120889   5.570   4.544   2.185 -0.5690  0.2730 -1.2247
 6976TIP3    H220890   5.545   4.546   2.036  1.4262  2.1246 -1.5621
 6977TIP3   OH220891   1.033   3.491   4.826 -0.3123 -0.1831  0.2229
 6977TIP3    H120892   1.061   3.429   4.759  1.4106 -0.0287  0.7789
 6977TIP3    H220893   1.108   3.549   4.838 -0.7552  0.0564  1.9558
 6978TIP3   OH220894   7.355   2.776   3.699 -0.1911  0.5326 -0.4037
 6978TIP3    H120895   7.291   2.832   3.654  0.3773  0.4104 -1.3890
 6978TIP3    H220896   7.386   2.829   3.773  0.2418  1.4878 -1.2524
 6979TIP3   OH220897   5.363   5.214   3.936 -0.4077  0.1187 -0.2801
 6979TIP3    H120898   5.433   5.224   3.872  0.3238 -1.1609  0.2884
 6979TIP3    H220899   5.319   5.133   3.910  0.5075 -0.9362  1.3772
 6980TIP3   OH220900   5.935   4.304   4.947  0.5134  0.0973 -0.0776
 6980TIP3    H120901   5.953   4.317   5.040  0.3959 -0.5208  0.0324
 6980TIP3    H220902   5.936   4.209   4.935  0.0455  0.1521 -0.6084
 6981TIP3   OH220903   4.394   4.858   5.176 -0.3829  0.5671  0.1140
 6981TIP3    H120904   4.404   4.875   5.269  0.4230 -2.6200  0.6447
 6981TIP3    H220905   4.483   4.858   5.141 -0.5375 -0.1894 -0.2909
 6982TIP3   OH220906   5.728   2.975   4.391  0.1032 -0.0493 -0.0339
 6982TIP3    H120907   5.635   2.996   4.403 -0.0964 -1.1196  0.2985
 6982TIP3    H220908   5.750   3.011   4.305 -1.1439 -1.6122 -1.0323
 6983TIP3   OH220909   4.408   5.084   2.182  0.1553 -0.0338  0.3691
 6983TIP3    H120910   4.379   5.056   2.096 -0.3376  1.2209  0.1123
 6983TIP3    H220911   4.328   5.110   2.228  0.4133 -0.6586  1.1954
 6984TIP3   OH220912   5.851   2.818   5.068  0.3767 -0.2538  0.2215
 6984TIP3    H120913   5.798   2.888   5.029  1.5582  0.8061  0.5015
 6984TIP3    H220914   5.846   2.834   5.162  1.5160  0.0714  0.2241
 6985TIP3   OH220915   5.038   5.797   1.117 -0.0578 -0.0080  0.0887
 6985TIP3    H120916   5.087   5.878   1.103  0.1226  0.1054  1.3666
 6985TIP3    H220917   5.095   5.743   1.172 -0.9463 -0.2748  0.7573
 6986TIP3   OH220918   7.328   6.702   3.386 -0.7673 -0.6619  0.2938
 6986TIP3    H120919   7.354   6.616   3.354 -0.4556 -0.4577  0.0017
 6986TIP3    H220920   7.239   6.714   3.352  0.8846  1.1258 -3.6586
 6987TIP3   OH220921   6.979   5.809   3.858 -0.3135 -0.0475 -0.8169
 6987TIP3    H120922   6.916   5.755   3.810 -0.4509  0.3987 -1.1317
 6987TIP3    H220923   6.966   5.897   3.824 -0.7893  0.3661  0.4157
 6988TIP3   OH220924   6.880   2.110   3.501  0.0951 -0.1068 -0.1283
 6988TIP3    H120925   6.806   2.145   3.450  0.0683  2.5537  1.6387
 6988TIP3    H220926   6.838   2.057   3.569 -0.0564 -0.5591 -0.5695
 6989TIP3   OH220927   3.436   2.679   2.836 -0.3750 -0.0324  0.1432
 6989TIP3    H120928   3.454   2.640   2.921  0.2644  2.0868  1.0260
 6989TIP3    H220929   3.347   2.713   2.844 -0.0935  0.7120  0.2029
 6990TIP3   OH220930   7.432   3.716   5.763 -0.4539 -0.7768 -0.4125
 6990TIP3    H120931   7.525   3.700   5.781 -0.4363  0.7203  0.8569
 6990TIP3    H220932   7.395   3.629   5.752  0.8775 -1.4302  0.1680
 6991TIP3   OH220933   6.835   4.780   3.150 -0.5297 -0.5634 -0.4723
 6991TIP3    H120934   6.848   4.873   3.134 -0.6008 -0.2233  1.3427
 6991TIP3    H220935   6.742   4.765   3.133 -1.1931  0.3499  2.2042
 6992TIP3   OH220936   6.180   3.737   4.771  0.5069 -0.1321  0.3330
 6992TIP3    H120937   6.187   3.655   4.721 -0.3020 -0.2360  0.3716
 6992TIP3    H220938   6.180   3.708   4.862 -1.3099 -0.2361  0.3225
 6993TIP3   OH220939   0.669   3.634   1.569  0.8294 -0.3513 -0.4575
 6993TIP3    H120940   0.600   3.693   1.538  0.8979 -0.7243 -1.3537
 6993TIP3    H220941   0.662   3.637   1.664 -0.0530  0.0553 -0.5241
 6994TIP3   OH220942   5.213   2.001   2.945 -0.2931  0.4853  0.1067
 6994TIP3    H120943   5.285   1.938   2.947 -1.2894 -0.6560  0.9415
 6994TIP3    H220944   5.199   2.017   2.851  1.0246  0.7138 -0.0623
 6995TIP3   OH220945   6.608   4.669   0.915  0.3580  0.2075 -0.5250
 6995TIP3    H120946   6.605   4.688   1.009 -2.1856 -0.2839 -0.4612
 6995TIP3    H220947   6.659   4.741   0.877 -0.0943  1.3634  1.0252
 6996TIP3   OH220948   3.340   5.320   1.630 -0.1554  0.3046  0.2640
 6996TIP3    H120949   3.288   5.383   1.679  0.8559 -0.4681  2.3747
 6996TIP3    H220950   3.425   5.362   1.619 -0.0295  0.0229  0.1444
 6997TIP3   OH220951   5.156   3.069   2.081 -0.3228 -0.5663 -0.1972
 6997TIP3    H120952   5.110   2.986   2.070 -0.8965 -0.5089  1.6344
 6997TIP3    H220953   5.095   3.135   2.048 -0.5540 -0.7243 -0.0851
 6998TIP3   OH220954   6.910   4.313   4.844 -0.1767  0.1540  0.0604
 6998TIP3    H120955   6.884   4.223   4.864 -0.0820  0.5276  1.9120
 6998TIP3    H220956   6.829   4.363   4.846 -0.1903  0.1676 -0.6829
 6999TIP3   OH220957   5.751   5.489   4.851  0.3808  0.4826  0.9233
 6999TIP3    H120958   5.722   5.580   4.853 -0.2789  0.3058 -0.3419
 6999TIP3    H220959   5.844   5.494   4.829  0.3950  0.8558  1.0680
 7000TIP3   OH220960   4.625   3.503   2.401 -0.1977  0.2231 -0.4996
 7000TIP3    H120961   4.590   3.514   2.490 -1.6196 -0.4273 -0.9746
 7000TIP3    H220962   4.720   3.514   2.412 -0.5251  2.2224  0.7745
 7001TIP3   OH220963   5.933   4.634   2.228 -0.4341  0.7008  0.4868
 7001TIP3    H120964   5.871   4.683   2.283 -1.2000  0.3709 -0.0748
 7001TIP3    H220965   5.953   4.556   2.279 -2.7357 -0.6091 -0.5651
 7002TIP3   OH220966   7.068   1.304   0.656  0.7616  0.1316 -0.0633
 7002TIP3    H120967   7.040   1.382   0.609 -0.9845 -1.0663 -1.0481
 7002TIP3    H220968   7.128   1.260   0.596 -1.6000 -1.4868 -1.2969
 7003TIP3   OH220969   2.504   1.009   5.628 -0.4252  0.1668 -0.3435
 7003TIP3    H120970   2.515   0.940   5.563 -0.1735  0.5812 -0.7495
 7003TIP3    H220971   2.569   0.988   5.696  1.5391  1.4574 -1.7483
 7004TIP3   OH220972   5.488   2.464   3.935  0.1653  0.2438  0.1330
 7004TIP3    H120973   5.455   2.447   3.847  1.2800 -1.5014  0.0325
 7004TIP3    H220974   5.583   2.474   3.923  0.4737 -1.2025  1.3017
 7005TIP3   OH220975   7.108   6.168   4.634 -0.4271  0.3983  0.0530
 7005TIP3    H120976   7.141   6.218   4.708 -0.5472  1.4727 -0.6094
 7005TIP3    H220977   7.013   6.172   4.642 -0.4347 -0.5052  0.5067
 7006TIP3   OH220978   5.074   3.705   2.773  0.1692  0.4629  0.0595
 7006TIP3    H120979   5.018   3.694   2.850  0.5018  1.7457  0.4837
 7006TIP3    H220980   5.071   3.798   2.754 -0.5658  0.0507 -1.9844
 7007TIP3   OH220981   6.938   3.709   0.459  0.1296  0.1486  0.4088
 7007TIP3    H120982   6.997   3.766   0.507 -0.4278 -0.3028  1.6613
 7007TIP3    H220983   6.900   3.765   0.391  1.2929  0.6656  0.1776
 7008TIP3   OH220984   7.429   4.859   3.462  0.1322  1.0459  0.3109
 7008TIP3    H120985   7.411   4.946   3.426 -1.5987  0.6841  0.2439
 7008TIP3    H220986   7.347   4.811   3.451  1.1934 -0.7384 -0.0341
 7009TIP3   OH220987   4.241   7.352   2.167  0.3912  0.1244  0.0068
 7009TIP3    H120988   4.232   7.264   2.204  0.3880 -0.4069 -1.2153
 7009TIP3    H220989   4.256   7.409   2.242 -0.2554 -0.8343  0.8710
 7010TIP3   OH220990   5.638   5.354   5.092 -0.7019  0.3418  0.1134
 7010TIP3    H120991   5.701   5.409   5.046  1.9289 -0.9530  2.0034
 7010TIP3    H220992   5.640   5.385   5.182 -1.8925 -0.4927  0.4485
 7011TIP3   OH220993   6.177   5.392   4.228  0.0592  0.4713 -0.4155
 7011TIP3    H120994   6.103   5.344   4.264  0.6982 -1.0439 -1.0865
 7011TIP3    H220995   6.191   5.464   4.289 -1.9314  0.7486 -0.2569
 7012TIP3   OH220996   6.961   6.403   5.693  0.3521 -0.4781  0.6249
 7012TIP3    H120997   6.910   6.348   5.753 -1.7419 -0.6987 -1.2964
 7012TIP3    H220998   6.916   6.395   5.609  2.0286  1.4576 -0.4979
 7013TIP3   OH220999   7.097   5.267   0.600 -0.0534 -0.6194  0.3883
 7013TIP3    H121000   7.139   5.207   0.540  0.6335  0.7920 -0.5783
 7013TIP3    H221001   7.168   5.323   0.632 -0.6317 -0.4855  1.4491
 7014TIP3   OH221002   5.636   5.894   4.138 -0.0960 -0.0080 -0.3241
 7014TIP3    H121003   5.661   5.926   4.225  0.3958  0.9152 -0.8020
 7014TIP3    H221004   5.569   5.829   4.155  0.2378 -0.0740  0.7774
 7015TIP3   OH221005   6.695   2.445   3.298  0.0920 -0.5004 -0.1016
 7015TIP3    H121006   6.686   2.354   3.325  1.6856 -0.4996  0.4784
 7015TIP3    H221007   6.725   2.441   3.207  0.5940 -0.5506  0.0690
 7016TIP3   OH221008   4.192   5.161   2.309 -0.1395  0.0164 -0.0541
 7016TIP3    H121009   4.206   5.256   2.312  1.2949 -0.1490 -1.1978
 7016TIP3    H221010   4.115   5.147   2.365  0.6196  1.6653  1.4760
 7017TIP3   OH221011   6.726   4.172   3.745  0.2122 -0.2804  0.5409
 7017TIP3    H121012   6.688   4.260   3.740 -0.8595 -0.7469  0.2003
 7017TIP3    H221013   6.719   4.148   3.837  1.6032  0.4616  0.8410
 7018TIP3   OH221014   4.359   5.230   4.582  0.5744 -0.4459  0.0014
 7018TIP3    H121015   4.316   5.177   4.649 -1.7530 -1.3717 -2.1635
 7018TIP3    H221016   4.405   5.167   4.527 -0.3689 -0.0431 -1.2787
 7019TIP3   OH221017   4.876   3.806   4.623 -0.1897 -0.0136  0.7997
 7019TIP3    H121018   4.829   3.723   4.625  0.5700 -0.4658  0.0034
 7019TIP3    H221019   4.906   3.819   4.713  0.6748 -1.1686  0.6829
 7020TIP3   OH221020   6.410   4.956   1.977  0.3435  0.4556  0.2400
 7020TIP3    H121021   6.402   4.865   1.949 -0.0107  0.8500 -0.9406
 7020TIP3    H221022   6.321   4.983   1.997 -0.1057  1.7361 -3.1965
 7021TIP3   OH221023   6.344   3.662   1.764 -0.0346 -0.6828  0.1370
 7021TIP3    H121024   6.402   3.675   1.839  1.3465 -1.8468 -0.6967
 7021TIP3    H221025   6.364   3.736   1.706 -1.6991  0.6762  1.2599
 7022TIP3   OH221026   6.633   4.572   1.772  0.5132 -0.5469  0.0910
 7022TIP3    H121027   6.654   4.608   1.686  1.2860  0.2926  0.6240
 7022TIP3    H221028   6.641   4.477   1.760  1.3139 -0.4024 -0.5785
 7023TIP3   OH221029   7.328   6.745   3.695 -0.2282 -0.4431 -0.0627
 7023TIP3    H121030   7.398   6.690   3.661  0.2741  1.1489 -1.7059
 7023TIP3    H221031   7.259   6.684   3.720  0.3709 -1.8233 -1.6809
 7024TIP3   OH221032   5.783   3.886   5.092  0.1706  0.4392 -0.8183
 7024TIP3    H121033   5.727   3.939   5.148  0.2213 -1.3274  0.9682
 7024TIP3    H221034   5.729   3.812   5.066  1.1289 -0.3846 -0.5055
 7025TIP3   OH221035   7.619   3.867   1.857  0.2487 -0.4939  0.5067
 7025TIP3    H121036   7.639   3.878   1.764 -0.8548 -2.4942  0.0041
 7025TIP3    H221037   7.532   3.827   1.859 -0.3163  0.7294  2.4502
 7026TIP3   OH221038   5.731   2.730   2.488 -0.2887  0.1012 -0.7396
 7026TIP3    H121039   5.781   2.725   2.569 -2.0645  1.1950  0.4477
 7026TIP3    H221040   5.746   2.818   2.455 -1.5927  0.5112 -0.2634
 7027TIP3   OH221041   5.185   2.527   3.626  0.3969  0.2660 -0.0243
 7027TIP3    H121042   5.237   2.453   3.657  1.0873  0.8722  0.2760
 7027TIP3    H221043   5.249   2.593   3.600 -0.2100  0.6891 -0.4812
 7028TIP3   OH221044   5.804   2.992   1.810  0.2624 -0.2747  0.0427
 7028TIP3    H121045   5.771   3.082   1.822 -0.9989 -0.9723  1.9556
 7028TIP3    H221046   5.791   2.975   1.716 -1.2197  0.8975  0.0030
 7029TIP3   OH221047   6.611   6.850   5.458 -0.3067  0.2297 -0.0851
 7029TIP3    H121048   6.647   6.933   5.488  1.2650 -0.0718 -1.0366
 7029TIP3    H221049   6.644   6.841   5.368 -0.4907 -1.3997 -0.0002
 7030TIP3   OH221050   5.563   6.140   2.480  0.3335 -0.4005 -0.5506
 7030TIP3    H121051   5.651   6.169   2.505 -0.1336 -0.6302  1.4560
 7030TIP3    H221052   5.574   6.048   2.454  0.8558 -0.1075 -1.3963
 7031TIP3   OH221053   7.768   5.687   1.571  0.0048  0.1228 -0.2369
 7031TIP3    H121054   7.769   5.766   1.517 -2.4403 -0.6834 -1.5289
 7031TIP3    H221055   7.700   5.703   1.636 -1.1681 -1.2580 -1.0869
 7032TIP3   OH221056   0.232   3.839   1.076 -0.0309 -0.2456 -0.1258
 7032TIP3    H121057   0.245   3.912   1.015  0.3712 -0.2123  0.0018
 7032TIP3    H221058   0.294   3.855   1.147 -1.5657  0.5381  1.0689
 7033TIP3   OH221059   3.888   2.780   3.809  0.4941 -0.3082 -0.3697
 7033TIP3    H121060   3.940   2.827   3.874  0.7384 -0.7796 -0.2198
 7033TIP3    H221061   3.827   2.728   3.861  0.7063 -0.7045 -0.5176
 7034TIP3   OH221062   3.895   5.327   2.525  0.8838  0.1975 -0.2028
 7034TIP3    H121063   3.895   5.327   2.620 -0.2465 -1.5736 -0.1760
 7034TIP3    H221064   3.875   5.236   2.501  1.4889  0.5490 -2.1214
 7035TIP3   OH221065   5.316   6.610   3.275  0.3530 -0.4983 -0.1999
 7035TIP3    H121066   5.383   6.618   3.207  0.1131 -2.2183 -0.6563
 7035TIP3    H221067   5.312   6.697   3.315  0.6471  0.4862 -2.2355
 7036TIP3   OH221068   4.852   4.140   4.123 -0.4848  0.1241  1.0058
 7036TIP3    H121069   4.881   4.141   4.031 -0.6695 -0.3598  0.9420
 7036TIP3    H221070   4.838   4.232   4.144  0.9803  0.3713  0.9950
 7037TIP3   OH221071   5.553   3.486   1.925  0.4277  0.0568 -0.3001
 7037TIP3    H121072   5.612   3.525   1.991 -0.6491 -2.7742  2.4730
 7037TIP3    H221073   5.467   3.524   1.945  0.0049 -1.1894  0.2700
 7038TIP3   OH221074   6.908   6.425   2.940  0.2597 -0.1030  0.2881
 7038TIP3    H121075   6.928   6.382   3.023  1.1485 -3.2546 -1.5154
 7038TIP3    H221076   6.993   6.446   2.902 -0.0817 -0.8797 -0.9351
 7039TIP3   OH221077   3.236   4.664   2.998 -0.0029  0.2033  0.4672
 7039TIP3    H121078   3.197   4.601   3.059  0.1796  0.9903  1.3972
 7039TIP3    H221079   3.315   4.695   3.043 -0.4665  1.6306  0.3081
 7040TIP3   OH221080   5.169   4.467   4.290 -0.2870 -0.0448  0.2711
 7040TIP3    H121081   5.096   4.512   4.333 -0.1976  2.0613 -1.7039
 7040TIP3    H221082   5.242   4.477   4.351 -0.5674  1.5217  0.3573
 7041TIP3   OH221083   5.828   5.539   1.638  0.6745 -0.5538 -0.7098
 7041TIP3    H121084   5.854   5.447   1.635  1.4354 -0.4666  1.9457
 7041TIP3    H221085   5.822   5.559   1.731 -2.1474  1.3614 -1.2382
 7042TIP3   OH221086   6.663   5.974   5.256  0.3541 -0.3198 -0.1797
 7042TIP3    H121087   6.608   5.899   5.283  1.2137 -0.6590  0.6735
 7042TIP3    H221088   6.713   5.941   5.182 -0.6808  0.0281 -1.0372
 7043TIP3   OH221089   5.108   3.212   1.696 -0.3122 -0.3606 -0.7885
 7043TIP3    H121090   5.190   3.162   1.693 -0.4470 -0.5758 -0.9285
 7043TIP3    H221091   5.116   3.274   1.623  0.0651  0.1549 -0.3130
 7044TIP3   OH221092   4.500   5.297   2.793  0.7935 -0.2947 -0.0070
 7044TIP3    H121093   4.495   5.261   2.705 -0.3136 -0.8771  0.2866
 7044TIP3    H221094   4.512   5.221   2.850  2.1129  0.1235  0.3079
 7045TIP3   OH221095   6.837   3.960   4.442  0.7303  0.6059  0.3019
 7045TIP3    H121096   6.807   3.915   4.364 -0.0799  1.5347  0.0744
 7045TIP3    H221097   6.771   4.027   4.459  1.3925  1.0428  1.2258
 7046TIP3   OH221098   5.761   4.819   2.017  0.4023 -0.3111  0.5966
 7046TIP3    H121099   5.803   4.884   2.073  0.0341 -0.5123  1.1134
 7046TIP3    H221100   5.709   4.765   2.077  2.2155 -2.2881  0.4564
 7047TIP3   OH221101   6.209   3.957   3.136  0.7001 -0.3582  0.2575
 7047TIP3    H121102   6.184   3.877   3.182  2.8826 -1.0637  0.2650
 7047TIP3    H221103   6.213   3.931   3.044  4.0092 -0.9710  0.5382
 7048TIP3   OH221104   6.293   2.974   3.530 -0.1621  0.3135 -0.0520
 7048TIP3    H121105   6.382   2.965   3.564 -0.4401  1.6590  1.0951
 7048TIP3    H221106   6.302   2.971   3.435  0.7970 -2.1606  0.0821
 7049TIP3   OH221107   4.212   5.983   5.694  0.1934 -0.7670 -0.1645
 7049TIP3    H121108   4.278   5.963   5.760 -1.5730 -1.5231  1.4197
 7049TIP3    H221109   4.156   6.049   5.735 -0.1854 -0.3106 -1.3909
 7050TIP3   OH221110   5.483   5.414   0.603 -0.3502 -0.2604 -0.2908
 7050TIP3    H121111   5.509   5.322   0.601  1.0729  0.0924  0.8684
 7050TIP3    H221112   5.396   5.416   0.563 -0.1737 -2.0319 -0.7762
 7051TIP3   OH221113   7.451   1.828   2.949  0.4172  0.6016  0.3144
 7051TIP3    H121114   7.384   1.895   2.938 -1.9074 -1.4280  1.6688
 7051TIP3    H221115   7.453   1.782   2.865 -1.5397 -0.7513  0.9681
 7052TIP3   OH221116   7.481   3.888   4.447 -0.0401 -0.0263  0.3688
 7052TIP3    H121117   7.451   3.978   4.460 -0.0496  0.0273 -0.0119
 7052TIP3    H221118   7.576   3.895   4.444 -0.0059 -0.1366  1.1297
 7053TIP3   OH221119   6.616   4.816   3.839 -0.0671 -0.0796  0.4295
 7053TIP3    H121120   6.545   4.759   3.810 -0.7320  0.3417  1.1950
 7053TIP3    H221121   6.576   4.904   3.843  0.1361 -0.0498  2.0920
 7054TIP3   OH221122   3.202   6.849   5.384  0.1219  0.8375  0.4521
 7054TIP3    H121123   3.261   6.795   5.435  0.2408  0.1963 -0.3455
 7054TIP3    H221124   3.154   6.787   5.329 -1.3075  1.3417  1.1059
 7055TIP3   OH221125   7.697   6.575   5.390  0.6939 -0.4524  0.4925
 7055TIP3    H121126   7.651   6.649   5.429 -0.8804 -1.3367  0.3766
 7055TIP3    H221127   7.726   6.522   5.464  1.6981  0.1913  0.5709
 7056TIP3   OH221128   1.764   2.748   5.204 -0.5974 -0.0188  0.2135
 7056TIP3    H121129   1.826   2.815   5.177 -0.4123 -0.4650 -0.4939
 7056TIP3    H221130   1.682   2.796   5.219 -0.4409  0.3790 -0.1905
 7057TIP3   OH221131   5.710   5.925   2.611 -0.5143 -0.2594  0.2212
 7057TIP3    H121132   5.637   5.874   2.578 -1.4610 -0.2041  2.1707
 7057TIP3    H221133   5.680   5.959   2.695  1.4552  0.4278  0.6824
 7058TIP3   OH221134   6.848   5.497   3.158 -0.3056 -0.3134 -0.5642
 7058TIP3    H121135   6.835   5.540   3.074 -1.0056  0.8867  0.1377
 7058TIP3    H221136   6.802   5.553   3.221 -1.9190 -2.5009  0.2779
 7059TIP3   OH221137   5.748   7.193   5.494 -0.3829 -0.8115  0.2158
 7059TIP3    H121138   5.839   7.211   5.517  0.0892 -3.9403  1.0594
 7059TIP3    H221139   5.754   7.144   5.411 -1.4105  0.4998 -0.6428
 7060TIP3   OH221140   6.026   5.059   5.167 -0.6771 -0.1896 -0.2109
 7060TIP3    H121141   6.034   4.975   5.123 -1.5272  0.1590 -1.0585
 7060TIP3    H221142   6.013   5.122   5.096 -0.1294  0.6476  0.4200
 7061TIP3   OH221143   6.136   4.100   5.137  0.4489  0.4705  0.5144
 7061TIP3    H121144   6.070   4.093   5.068 -0.4695  0.8092  1.3357
 7061TIP3    H221145   6.085   4.114   5.217  1.3621 -2.0237  1.6051
 7062TIP3   OH221146   6.939   4.865   5.115  0.0270 -0.0664 -0.7636
 7062TIP3    H121147   6.847   4.853   5.092 -0.4738  0.2338  1.0008
 7062TIP3    H221148   6.965   4.782   5.155  0.3823  0.0324 -0.7865
 7063TIP3   OH221149   7.105   3.759   3.792 -0.2573  0.5075 -0.9096
 7063TIP3    H121150   7.032   3.775   3.732 -1.2803  1.3564  0.5477
 7063TIP3    H221151   7.094   3.823   3.862 -0.0353 -1.5113  1.0509
 7064TIP3   OH221152   5.651   6.603   1.028 -0.3456  0.2198  0.1307
 7064TIP3    H121153   5.594   6.641   0.961 -0.5040 -1.6262 -0.8115
 7064TIP3    H221154   5.681   6.678   1.079  0.2161  1.7188 -2.3313
 7065TIP3   OH221155   6.008   5.575   2.661  0.4871 -0.4973 -0.5778
 7065TIP3    H121156   6.002   5.570   2.756 -1.0063  1.5299 -0.5384
 7065TIP3    H221157   6.009   5.484   2.632 -1.3836 -1.1352  1.2477
 7066TIP3   OH221158   5.394   4.912   1.643 -0.2559  0.4263  0.1051
 7066TIP3    H121159   5.367   4.950   1.559 -1.1170 -0.1393  0.1136
 7066TIP3    H221160   5.404   4.818   1.624  2.4733  0.7061 -0.0824
 7067TIP3   OH221161   7.667   5.121   3.708  0.0226  0.1921  0.3030
 7067TIP3    H121162   7.581   5.080   3.701 -0.8693  2.0038  0.4072
 7067TIP3    H221163   7.687   5.117   3.802 -0.3194  0.5174  0.3896
 7068TIP3   OH221164   6.164   4.542   3.734 -0.1576 -0.0458 -0.0664
 7068TIP3    H121165   6.093   4.578   3.787 -1.2486  0.4697 -1.8502
 7068TIP3    H221166   6.145   4.448   3.728 -1.2030  0.2353 -1.2947
 7069TIP3   OH221167   6.829   4.546   2.994 -0.3179  0.1211  0.3234
 7069TIP3    H121168   6.840   4.634   3.030 -0.9014  0.5302 -0.4798
 7069TIP3    H221169   6.735   4.531   2.996 -0.6010  1.0888 -3.1411
 7070TIP3   OH221170   0.499   6.730   4.862 -0.0164 -0.6953 -0.0258
 7070TIP3    H121171   0.413   6.769   4.880  0.7894  0.2829  1.8027
 7070TIP3    H221172   0.514   6.672   4.936  0.4161 -1.7366 -0.9201
 7071TIP3   OH221173   2.738   0.487   0.163  0.5524 -0.0439  0.0236
 7071TIP3    H121174   2.710   0.484   0.255 -0.1384  0.5966 -0.1654
 7071TIP3    H221175   2.830   0.461   0.166  0.5996  0.1962  0.9291
 7072TIP3   OH221176   6.770   5.492   0.964  0.2620  0.4017  0.2528
 7072TIP3    H121177   6.687   5.521   0.926 -0.0318  0.6379  1.0784
 7072TIP3    H221178   6.836   5.540   0.915 -0.0964  0.4439 -0.1983
 7073TIP3   OH221179   0.057   5.242   3.155 -0.0737 -0.2785  0.2304
 7073TIP3    H121180   0.140   5.226   3.110 -1.3323 -1.4289 -1.7468
 7073TIP3    H221181   0.020   5.319   3.110 -0.3411 -0.1078  0.7387
 7074TIP3   OH221182   0.448   4.648   3.752  0.2079 -0.4972 -0.2068
 7074TIP3    H121183   0.543   4.652   3.740  0.1341  0.5350 -0.4983
 7074TIP3    H221184   0.423   4.562   3.719  1.0394 -0.7515 -0.1678
 7075TIP3   OH221185   0.620   3.761   1.027 -0.8165  0.9366 -0.1436
 7075TIP3    H121186   0.684   3.769   0.956  0.2537  2.4817  0.9401
 7075TIP3    H221187   0.535   3.771   0.985 -0.2347  0.9528 -1.3284
 7076TIP3   OH221188   6.839   4.198   2.463 -0.7261 -0.3552 -0.9060
 7076TIP3    H121189   6.748   4.190   2.434 -0.9192  0.4052 -0.5031
 7076TIP3    H221190   6.879   4.258   2.401 -0.6459 -0.2305 -0.7339
 7077TIP3   OH221191   5.818   3.102   2.622  0.0141 -0.6889 -0.2850
 7077TIP3    H121192   5.848   3.058   2.542  0.1982 -0.7613 -0.1762
 7077TIP3    H221193   5.898   3.117   2.673 -0.1386 -0.9435  0.0362
 7078TIP3   OH221194   5.788   6.871   4.505 -0.0805 -0.8873  0.1564
 7078TIP3    H121195   5.883   6.882   4.509 -0.1661  0.1982 -0.4207
 7078TIP3    H221196   5.771   6.837   4.418 -0.3275  0.2718 -0.2608
 7079TIP3   OH221197   7.281   4.063   5.558  0.0941 -0.0015 -0.0265
 7079TIP3    H121198   7.292   4.152   5.523 -0.3847  0.7339  1.6375
 7079TIP3    H221199   7.190   4.042   5.540 -0.7411  1.2033  2.5627
 7080TIP3   OH221200   0.210   4.773   3.469  0.5672  0.5378  0.0242
 7080TIP3    H121201   0.266   4.791   3.394  0.0076  0.2176 -0.4793
 7080TIP3    H221202   0.266   4.788   3.545  1.4427 -0.1102 -0.4750
 7081TIP3   OH221203   5.169   4.960   3.212 -0.1537  0.3754 -0.2775
 7081TIP3    H121204   5.146   4.984   3.122 -0.1421  1.5117  0.0188
 7081TIP3    H221205   5.126   4.875   3.225 -1.2031  0.7969 -0.9297
 7082TIP3   OH221206   7.194   6.299   1.382 -0.3447 -0.0781  0.5359
 7082TIP3    H121207   7.258   6.258   1.441 -1.0192 -0.3368  1.0914
 7082TIP3    H221208   7.239   6.302   1.297  0.4324 -0.1880  0.9381
 7083TIP3   OH221209   5.895   7.112   4.153  0.0125  0.3696  0.2945
 7083TIP3    H121210   5.952   7.035   4.147 -0.8020 -0.2270  0.2218
 7083TIP3    H221211   5.854   7.118   4.066  0.1550  0.9519  0.2648
 7084TIP3   OH221212   5.763   6.177   4.829 -0.2393  0.2553 -0.7084
 7084TIP3    H121213   5.674   6.207   4.841  0.3192  1.4232  0.6035
 7084TIP3    H221214   5.816   6.256   4.827  1.0304 -0.5041  0.9357
 7085TIP3   OH221215   6.893   2.800   5.661 -0.4202 -0.4672 -0.4780
 7085TIP3    H121216   6.981   2.821   5.693 -1.0921  3.3586 -0.9227
 7085TIP3    H221217   6.900   2.806   5.566 -0.9667 -1.0554 -0.5597
 7086TIP3   OH221218   0.936   4.879   4.236 -0.0799  0.3373  0.5665
 7086TIP3    H121219   0.980   4.827   4.303  1.3348  1.0933  0.2307
 7086TIP3    H221220   0.972   4.967   4.245  0.9820  0.2006 -1.9237
 7087TIP3   OH221221   6.708   3.387   2.505 -0.4858  0.1756 -0.2656
 7087TIP3    H121222   6.794   3.369   2.467 -0.9554 -1.2787 -0.6613
 7087TIP3    H221223   6.646   3.338   2.450 -1.3525 -0.5122  1.2863
 7088TIP3   OH221224   6.335   1.945   3.650 -0.2516  0.1922 -0.0854
 7088TIP3    H121225   6.306   1.928   3.740  0.0813  1.2851  0.2347
 7088TIP3    H221226   6.427   1.918   3.649 -0.5992 -1.0145 -0.4521
 7089TIP3   OH221227   6.026   1.859   4.061  0.4748 -0.1519  0.2326
 7089TIP3    H121228   5.987   1.893   4.142 -1.6482 -1.6858 -0.1141
 7089TIP3    H221229   6.003   1.766   4.060  3.1183 -0.8592 -0.6247
 7090TIP3   OH221230   7.330   4.405   3.453  0.1651 -0.2336  0.4013
 7090TIP3    H121231   7.236   4.421   3.449  0.1019 -0.8065 -0.5328
 7090TIP3    H221232   7.345   4.330   3.396  1.4647  1.1803 -1.2229
 7091TIP3   OH221233   6.468   2.099   2.013  0.1513 -0.4177 -0.3295
 7091TIP3    H121234   6.476   2.190   1.982 -2.7446  0.0935  0.2043
 7091TIP3    H221235   6.455   2.048   1.933  0.7747 -0.2085 -0.5628
 7092TIP3   OH221236   0.144   5.177   3.436  0.3395  0.0857 -0.2252
 7092TIP3    H121237   0.118   5.203   3.348  0.6671  2.8367  0.4329
 7092TIP3    H221238   0.221   5.122   3.423 -0.9944 -1.4871 -1.7465
 7093TIP3   OH221239   3.404   3.799   2.496  0.0735  0.3495  0.2912
 7093TIP3    H121240   3.485   3.756   2.524 -0.6026  0.2908  2.1900
 7093TIP3    H221241   3.382   3.757   2.413  1.9255  0.2866 -0.1902
 7094TIP3   OH221242   6.570   5.808   3.800  0.5615  0.0910  0.4675
 7094TIP3    H121243   6.614   5.734   3.843  0.1238 -0.4751 -0.0585
 7094TIP3    H221244   6.477   5.789   3.808  0.4685  0.1309 -0.4650
 7095TIP3   OH221245   5.005   6.496   4.381  0.0320 -0.0310  0.2230
 7095TIP3    H121246   4.973   6.553   4.311 -0.7138 -0.4653  0.2014
 7095TIP3    H221247   5.099   6.512   4.385  0.1743 -0.4688 -1.3014
 7096TIP3   OH221248   5.991   4.321   3.710 -0.2052  0.4353 -0.6303
 7096TIP3    H121249   5.917   4.275   3.748  0.2192  0.8119  0.6646
 7096TIP3    H221250   5.951   4.390   3.656 -0.8198 -0.9130 -1.9090
 7097TIP3   OH221251   6.159   5.233   3.668 -0.1311  0.1526 -0.0563
 7097TIP3    H121252   6.123   5.261   3.584 -1.2659  3.0428  1.3187
 7097TIP3    H221253   6.254   5.245   3.658  0.0847 -2.7686 -2.0128
 7098TIP3   OH221254   6.156   6.250   2.718  0.0121 -0.2697  0.4790
 7098TIP3    H121255   6.174   6.189   2.647  0.7281 -0.1069  0.5228
 7098TIP3    H221256   6.173   6.199   2.798 -0.9613 -0.5077  0.5429
 7099TIP3   OH221257   5.859   6.250   1.533 -0.1102  0.8232  0.2816
 7099TIP3    H121258   5.947   6.239   1.568  0.2969  0.7919 -0.7257
 7099TIP3    H221259   5.810   6.295   1.602  0.8824  1.4534  0.5716
 7100TIP3   OH221260   4.267   6.538   4.290  0.1469 -0.0063 -0.2770
 7100TIP3    H121261   4.286   6.591   4.367  2.5710 -1.7725  0.3666
 7100TIP3    H221262   4.338   6.558   4.229  0.6108 -1.8714 -0.3540
 7101TIP3   OH221263   4.290   5.819   3.418 -0.6168 -0.6052 -0.5808
 7101TIP3    H121264   4.208   5.834   3.370 -0.3859  1.2733 -0.4207
 7101TIP3    H221265   4.355   5.870   3.371  0.9694 -3.7938 -1.9844
 7102TIP3   OH221266   0.315   3.766   3.637  0.5323  0.1346 -0.0905
 7102TIP3    H121267   0.263   3.744   3.560 -0.8368 -2.2821  1.4516
 7102TIP3    H221268   0.268   3.839   3.677 -1.1040 -1.2610  0.6341
 7103TIP3   OH221269   0.398   6.663   5.222  0.2999 -0.0119 -0.2068
 7103TIP3    H121270   0.479   6.640   5.178 -0.2828 -1.7951 -0.3992
 7103TIP3    H221271   0.380   6.753   5.195  2.3570  0.5019  0.0878
 7104TIP3   OH221272   4.497   5.686   3.035 -0.1078 -0.1429 -0.3430
 7104TIP3    H121273   4.472   5.775   3.009 -0.7294 -0.6705 -1.5583
 7104TIP3    H221274   4.529   5.646   2.955  0.0462 -1.0632  0.1776
 7105TIP3   OH221275   7.427   4.171   4.136  0.1143 -0.7942 -0.5124
 7105TIP3    H121276   7.352   4.200   4.084 -0.5272  1.6440  1.6699
 7105TIP3    H221277   7.396   4.091   4.179 -0.1006 -1.5755 -2.0663
 7106TIP3   OH221278   5.641   4.709   2.799  0.8023 -0.0331  0.3735
 7106TIP3    H121279   5.615   4.622   2.831 -0.1234  0.1933  0.2612
 7106TIP3    H221280   5.679   4.752   2.875  1.7476 -0.7234  0.2982
 7107TIP3   OH221281   5.879   5.349   1.937  0.1103  0.0615  0.2665
 7107TIP3    H121282   5.909   5.372   2.025  1.1196  0.7626 -0.2528
 7107TIP3    H221283   5.960   5.336   1.887 -0.4496  1.0260 -0.9114
 7108TIP3   OH221284   6.257   3.254   1.918  0.7164 -0.1080 -0.1537
 7108TIP3    H121285   6.169   3.293   1.916  0.3079 -0.8831  1.7948
 7108TIP3    H221286   6.276   3.234   1.826 -1.1180  0.1069 -0.6095
 7109TIP3   OH221287   1.581   4.603   1.801 -0.4948  0.5188  0.4161
 7109TIP3    H121288   1.520   4.592   1.874 -0.6577  1.5110  0.4429
 7109TIP3    H221289   1.580   4.697   1.783 -1.1342  0.1804 -1.4471
 7110TIP3   OH221290   3.176   4.886   2.309 -0.0850 -0.3877 -0.0598
 7110TIP3    H121291   3.272   4.882   2.316 -0.1789 -0.0230  1.8173
 7110TIP3    H221292   3.155   4.827   2.238  1.3790 -2.5564  1.2383
 7111TIP3   OH221293   4.235   4.576   1.574 -0.1103 -0.0406  0.7251
 7111TIP3    H121294   4.230   4.527   1.492  1.6445  0.5958  0.1995
 7111TIP3    H221295   4.166   4.539   1.629 -0.0357 -1.8108 -0.3269
 7112TIP3   OH221296   0.453   0.977   3.573 -0.2226  0.6723 -0.4039
 7112TIP3    H121297   0.506   0.899   3.588 -1.1232  0.2867  0.8875
 7112TIP3    H221298   0.500   1.047   3.617 -0.4376  0.4682  0.1474
 7113TIP3   OH221299   7.609   4.253   3.134  0.6964  0.2136  0.0773
 7113TIP3    H121300   7.608   4.306   3.053 -0.0553 -1.1072 -0.7976
 7113TIP3    H221301   7.610   4.163   3.103  0.6592 -0.3021  1.5682
 7114TIP3   OH221302   6.178   5.780   2.609 -0.1831 -0.0252 -0.1924
 7114TIP3    H121303   6.143   5.833   2.681 -0.8196  1.5182 -1.5911
 7114TIP3    H221304   6.119   5.705   2.604  0.1609 -0.4130  1.1971
 7115TIP3   OH221305   4.958   4.622   1.965  0.1693  0.2076 -0.1832
 7115TIP3    H121306   5.020   4.550   1.953  0.4273  0.4515 -0.3391
 7115TIP3    H221307   5.000   4.696   1.920 -0.3661  0.2986 -0.5383
 7116TIP3   OH221308   6.298   4.523   3.078 -0.4156 -0.3056 -0.9546
 7116TIP3    H121309   6.343   4.538   3.161 -1.1579 -0.4131 -0.5242
 7116TIP3    H221310   6.308   4.429   3.062 -1.7568 -0.6071 -0.0984
 7117TIP3   OH221311   4.656   4.808   2.170  0.6592  0.5281 -0.0262
 7117TIP3    H121312   4.726   4.750   2.200 -1.3964 -1.3950  1.1958
 7117TIP3    H221313   4.608   4.756   2.106 -1.3925  0.7891  1.2923
 7118TIP3   OH221314   3.830   4.221   3.216 -0.3421  0.3252  0.6175
 7118TIP3    H121315   3.896   4.286   3.189  0.5269 -1.2955 -1.3240
 7118TIP3    H221316   3.878   4.159   3.270  0.0291 -1.4935 -1.7410
 7119TIP3   OH221317   0.036   2.970   1.970 -0.1324  0.2079 -0.0122
 7119TIP3    H121318  -0.030   3.031   2.002 -0.5143 -0.9185  1.3903
 7119TIP3    H221319   0.037   2.898   2.034  0.1762 -1.3559 -1.7075
 7120TIP3   OH221320   6.969   2.765   4.750  0.3942 -0.3694  0.4490
 7120TIP3    H121321   6.887   2.737   4.791  0.3790  0.6354  1.1425
 7120TIP3    H221322   7.037   2.729   4.806  0.4277 -1.2176 -0.1359
 7121TIP3   OH221323   6.649   5.344   5.536  0.0041  0.4274  0.2148
 7121TIP3    H121324   6.685   5.323   5.622  0.0912  0.4676  0.1878
 7121TIP3    H221325   6.652   5.261   5.488  1.8120  0.8559 -0.4214
 7122TIP3   OH221326   2.977   6.427   2.583 -0.8307 -0.2114 -0.6735
 7122TIP3    H121327   2.928   6.470   2.513 -0.6327 -0.2093 -0.8130
 7122TIP3    H221328   3.006   6.499   2.639 -1.8024 -0.2897 -0.0570
 7123TIP3   OH221329   7.790   3.300   1.921  0.1187 -0.1323 -0.3785
 7123TIP3    H121330   7.715   3.292   1.980  0.7444  0.5430  0.5321
 7123TIP3    H221331   7.760   3.359   1.852 -0.6982 -1.1118 -0.8836
 7124TIP3   OH221332   0.055   4.979   1.195  0.3376 -0.5035  0.1102
 7124TIP3    H121333  -0.035   4.981   1.227  0.3491 -0.4805  0.1414
 7124TIP3    H221334   0.061   5.054   1.136  0.2786 -0.6224 -0.0469
 7125TIP3   OH221335   6.362   4.316   2.748  0.1115 -0.0944 -0.8379
 7125TIP3    H121336   6.295   4.251   2.768 -0.1393  0.1964 -0.7304
 7125TIP3    H221337   6.328   4.397   2.785 -0.1664  0.3655 -2.1022
 7126TIP3   OH221338   6.747   4.089   2.777  0.1554 -0.1812 -0.3027
 7126TIP3    H121339   6.716   3.998   2.772  0.2717 -0.2022 -0.6506
 7126TIP3    H221340   6.744   4.120   2.687  1.9242 -0.4549 -0.4808
 7127TIP3   OH221341   6.014   3.978   2.059  0.7335 -0.2960  0.3584
 7127TIP3    H121342   5.958   3.928   2.119 -0.4503 -0.2379 -0.6690
 7127TIP3    H221343   5.958   3.993   1.982  1.0862  2.4697  0.5957
 7128TIP3   OH221344   6.185   4.088   2.847 -0.4153 -0.4537 -0.0634
 7128TIP3    H121345   6.231   4.048   2.772  0.6367 -1.4037  1.0729
 7128TIP3    H221346   6.109   4.032   2.862 -0.6601 -0.2291 -0.4511
 7129TIP3   OH221347   1.414   5.226   1.908 -0.0986 -0.5222  0.0079
 7129TIP3    H121348   1.376   5.256   1.825  0.9473 -0.3912 -0.4279
 7129TIP3    H221349   1.388   5.134   1.914  0.2763 -0.6843 -0.7314
 7130TIP3   OH221350   7.524   3.449   3.710 -0.0700  0.2130  0.1673
 7130TIP3    H121351   7.478   3.435   3.628 -0.5125  0.9569  0.2859
 7130TIP3    H221352   7.456   3.480   3.770  0.4757  0.7405  0.5092
 7131TIP3   OH221353   7.070   5.820   2.598  0.8454  0.7185 -0.0670
 7131TIP3    H121354   7.061   5.730   2.566  0.4312  0.4815  0.6803
 7131TIP3    H221355   7.137   5.814   2.666  1.8866  1.2564 -1.0364
 7132TIP3   OH221356   7.190   4.264   4.026  0.2843 -0.1267 -0.2491
 7132TIP3    H121357   7.104   4.305   4.018  0.0630 -0.8861 -2.0929
 7132TIP3    H221358   7.230   4.276   3.939  1.8602 -0.1670  0.4557
 7133TIP3   OH221359   1.057   4.184   1.693 -0.4378 -0.4613  0.6075
 7133TIP3    H121360   1.041   4.173   1.599 -0.5059 -1.1154  0.6981
 7133TIP3    H221361   0.998   4.123   1.735 -0.6844  0.1086  1.0983
 7134TIP3   OH221362   6.039   4.771   3.340  0.0559  0.1393  0.7082
 7134TIP3    H121363   6.125   4.760   3.382 -0.5753 -0.2520  1.8980
 7134TIP3    H221364   6.058   4.763   3.247  1.2435 -0.4306  0.9806
 7135TIP3   OH221365   7.243   6.036   2.165  0.3737  0.1832 -0.2146
 7135TIP3    H121366   7.226   6.019   2.257 -1.6223 -0.3654 -0.6757
 7135TIP3    H221367   7.307   5.969   2.139 -0.7792 -1.0802  0.2016
 7136TIP3   OH221368   7.083   5.196   2.891 -0.4168  0.0135 -0.1716
 7136TIP3    H121369   7.015   5.222   2.829  0.9671  2.5594 -0.7076
 7136TIP3    H221370   7.139   5.137   2.841  0.0601  1.1704 -1.0170
 7137TIP3   OH221371   1.111   4.485   1.460 -0.1487  0.4563  0.2242
 7137TIP3    H121372   1.156   4.569   1.452  1.1579 -0.1976  0.4269
 7137TIP3    H221373   1.137   4.437   1.381 -1.1167  0.3446 -0.0306
 7138TIP3   OH221374   5.899   4.492   0.614  0.6156  0.7039 -0.0899
 7138TIP3    H121375   5.821   4.494   0.669  0.4542 -1.3725 -0.1972
 7138TIP3    H221376   5.953   4.564   0.646 -0.8236  1.4163  0.7705
 7139TIP3   OH221377   0.662   6.016   3.756 -0.0495  0.0396 -0.4238
 7139TIP3    H121378   0.587   6.022   3.697  0.6689 -2.3740 -1.6139
 7139TIP3    H221379   0.722   6.084   3.726 -0.7967  0.5134 -0.8463
 7140TIP3   OH221380   0.970   6.285   2.819  0.3734  0.0355 -0.0605
 7140TIP3    H121381   0.916   6.218   2.862  0.8582 -0.5444 -0.3474
 7140TIP3    H221382   1.025   6.236   2.758  0.3499  0.7554 -0.6704
 7141TIP3   OH221383   4.984   5.560   4.016 -0.3296 -0.1802 -0.6434
 7141TIP3    H121384   4.980   5.632   4.080 -0.9739  0.2654 -1.1775
 7141TIP3    H221385   5.053   5.503   4.049 -0.3623  0.2693  0.2245
 7142TIP3   OH221386   0.746   4.092   3.193 -0.0268 -0.2857  0.1164
 7142TIP3    H121387   0.799   4.015   3.170 -0.7705  0.0287 -2.8962
 7142TIP3    H221388   0.808   4.154   3.230  2.2089  0.7576 -4.9352
 7143TIP3   OH221389   0.276   5.610   3.814 -0.1926  0.1703 -0.1000
 7143TIP3    H121390   0.317   5.694   3.834 -1.0923  0.8466 -1.0222
 7143TIP3    H221391   0.217   5.593   3.887 -0.4775  0.6506 -0.2183
 7144TIP3   OH221392   1.818   3.937   4.585 -0.3971 -0.0051 -0.5517
 7144TIP3    H121393   1.749   3.917   4.521 -1.4317 -2.1404  1.1700
 7144TIP3    H221394   1.892   3.882   4.559 -0.5551 -0.3105 -0.3551
 7145TIP3   OH221395   6.144   5.595   4.051 -0.2764 -0.1879 -0.9581
 7145TIP3    H121396   6.113   5.528   3.990  0.6993 -0.5502 -1.0633
 7145TIP3    H221397   6.169   5.546   4.129 -2.2044  0.3432  0.0375
 7146TIP3   OH221398   0.500   5.481   2.545  0.2395  0.5747 -0.8713
 7146TIP3    H121399   0.465   5.442   2.465 -1.9146  0.0794  0.2849
 7146TIP3    H221400   0.570   5.421   2.572  0.2171  0.1374 -1.7826
 7147TIP3   OH221401   0.834   5.603   3.417  0.6260 -0.0407 -0.6171
 7147TIP3    H121402   0.781   5.681   3.400 -1.8377 -1.8871 -1.7342
 7147TIP3    H221403   0.880   5.587   3.335  0.6767 -0.0847 -0.5798
 7148TIP3   OH221404   7.012   4.969   3.614  0.1563  0.1490  0.6764
 7148TIP3    H121405   6.960   4.920   3.551  0.7206 -1.4394  1.4080
 7148TIP3    H221406   6.948   5.013   3.670 -0.3680 -0.4596  0.5483
 7149TIP3   OH221407   7.395   4.164   3.325  0.3348 -0.6891  0.2787
 7149TIP3    H121408   7.420   4.204   3.241 -0.8257  1.8129  1.0748
 7149TIP3    H221409   7.476   4.164   3.376  0.2001  1.4303  0.5450
 7150TIP3   OH221410   7.444   4.325   1.710 -0.0616  0.1851  0.0668
 7150TIP3    H121411   7.448   4.395   1.646  0.0342 -0.8807 -1.1212
 7150TIP3    H221412   7.400   4.363   1.786  0.9905  1.8360 -0.1380
 7151TIP3   OH221413   1.233   4.284   1.282 -0.3670 -0.3939  0.1367
 7151TIP3    H121414   1.214   4.298   1.190  0.1835  1.0915  0.2354
 7151TIP3    H221415   1.298   4.351   1.304 -0.9363 -0.3421  1.7508
 7152TIP3   OH221416   7.456   3.787   2.814  0.6703 -0.0481  0.1180
 7152TIP3    H121417   7.446   3.879   2.789  2.1450 -0.4225 -1.9990
 7152TIP3    H221418   7.380   3.743   2.775  1.7651 -0.2556 -1.8361
 7153TIP3   OH221419   7.309   6.966   2.348 -0.3103 -0.0497 -0.4776
 7153TIP3    H121420   7.284   6.920   2.428  0.1748  1.0423  0.3110
 7153TIP3    H221421   7.268   6.916   2.278 -1.1915 -0.7127  0.4968
 7154TIP3   OH221422   6.653   5.203   4.472 -0.4621 -0.5853 -0.3703
 7154TIP3    H121423   6.585   5.270   4.466 -1.4009 -1.4347  0.5761
 7154TIP3    H221424   6.712   5.234   4.542  0.2670  0.2574 -1.3375
 7155TIP3   OH221425   0.605   5.597   1.537 -0.0157 -0.1738  0.0463
 7155TIP3    H121426   0.585   5.682   1.576  2.5406  0.2596  0.5224
 7155TIP3    H221427   0.629   5.617   1.447  1.5096 -0.2315  0.4162
 7156TIP3   OH221428   7.151   4.769   3.732 -0.0030  0.6539 -0.4137
 7156TIP3    H121429   7.097   4.847   3.733  0.4703  0.9963 -1.3385
 7156TIP3    H221430   7.183   4.762   3.642 -0.4457 -0.8773 -0.4719
 7157TIP3   OH221431   4.820   2.871   3.458 -0.3892 -0.3006 -0.3864
 7157TIP3    H121432   4.885   2.865   3.527 -0.6800 -2.9267 -0.2819
 7157TIP3    H221433   4.868   2.903   3.382 -0.0824  2.7003  0.9663
 7158TIP3   OH221434   1.012   5.287   2.027  0.2990 -0.4058 -0.5673
 7158TIP3    H121435   1.071   5.361   2.041 -0.0914 -0.0756 -0.6400
 7158TIP3    H221436   0.927   5.320   2.056  0.1622 -0.8909 -0.4255
 7159TIP3   OH221437   0.961   4.249   3.900 -0.5341 -0.1040 -0.3133
 7159TIP3    H121438   0.964   4.345   3.905  0.7081 -0.1737  0.2894
 7159TIP3    H221439   0.879   4.225   3.943 -1.3788  0.7502 -1.4195
 7160TIP3   OH221440   0.617   4.341   1.765  0.0474 -0.3801 -0.2127
 7160TIP3    H121441   0.632   4.333   1.671  1.1238 -0.2715 -0.0453
 7160TIP3    H221442   0.653   4.260   1.803  0.7297  0.1292  0.2373
 7161TIP3   OH221443   1.424   6.164   0.983  0.1734 -0.0761  0.5116
 7161TIP3    H121444   1.343   6.213   0.969  0.5008  0.2075 -0.4592
 7161TIP3    H221445   1.396   6.083   1.025 -0.8605 -0.8373 -1.5612
 7162TIP3   OH221446   0.153   4.502   3.775  0.0013 -0.0381  0.2136
 7162TIP3    H121447   0.144   4.463   3.687 -2.6177 -1.2653  0.9803
 7162TIP3    H221448   0.179   4.429   3.831  0.9499  0.5967  0.6161
 7163TIP3   OH221449   7.504   5.255   2.514  0.1348  0.0076 -0.4465
 7163TIP3    H121450   7.546   5.229   2.596  0.9618 -0.1450 -0.9082
 7163TIP3    H221451   7.482   5.172   2.471  1.7875  0.0484 -1.4198
 7164TIP3   OH221452   7.013   3.964   1.302  0.3257  0.1212 -0.2345
 7164TIP3    H121453   7.011   4.003   1.389  1.7275  1.2679 -0.6860
 7164TIP3    H221454   6.960   3.885   1.309 -2.5243  2.0413  0.7539
 7165TIP3   OH221455   0.493   6.838   2.874  0.8240 -0.5042 -0.0776
 7165TIP3    H121456   0.579   6.867   2.844  0.9406 -0.3749  0.3849
 7165TIP3    H221457   0.487   6.868   2.964  0.0661 -0.0249 -0.2827
 7166TIP3   OH221458   1.205   3.709   4.894  0.2961  0.3268 -0.5826
 7166TIP3    H121459   1.268   3.765   4.939 -0.1769 -0.6810  1.4316
 7166TIP3    H221460   1.258   3.646   4.846  0.8454 -0.5574  1.1502
 7167TIP3   OH221461   3.091   0.033   2.131  0.3407 -0.6054  0.0312
 7167TIP3    H121462   3.022   0.005   2.192  0.5656  0.3419  0.7351
 7167TIP3    H221463   3.056   0.013   2.044 -0.4886 -0.8688  0.4162
 7168TIP3   OH221464   1.210   4.218   2.946 -0.3254  0.1450 -0.0767
 7168TIP3    H121465   1.253   4.274   3.010 -0.4887  0.0472  0.1163
 7168TIP3    H221466   1.158   4.157   2.997 -1.8238  1.1749 -0.3394
 7169TIP3   OH221467   0.892   5.089   2.977  0.5746 -0.8916  0.0785
 7169TIP3    H121468   0.941   5.096   3.059  0.0544  1.1518  0.2526
 7169TIP3    H221469   0.915   5.168   2.928 -2.8263  0.3468  0.3486
 7170TIP3   OH221470   0.593   4.991   3.181  1.0068  0.4115 -0.6077
 7170TIP3    H121471   0.624   5.081   3.188  0.4028  0.4577  2.4079
 7170TIP3    H221472   0.661   4.946   3.131  2.4651  2.0263 -0.1440
 7171TIP3   OH221473   5.850   3.399   1.623  0.1670 -0.2732  0.0864
 7171TIP3    H121474   5.776   3.404   1.563  0.1651  2.5463  0.2584
 7171TIP3    H221475   5.927   3.398   1.566  0.1190  0.8738  0.0035
 7172TIP3   OH221476   0.433   4.938   3.679  0.2876  0.3079  0.1268
 7172TIP3    H121477   0.416   4.844   3.684  0.5209  0.2581 -0.0215
 7172TIP3    H221478   0.507   4.952   3.739  1.1130  0.1870 -0.8524
 7173TIP3   OH221479   6.830   7.112   3.666  0.1628  0.2884  0.1328
 7173TIP3    H121480   6.831   7.034   3.611  0.4733 -0.3989  1.0967
 7173TIP3    H221481   6.750   7.103   3.717 -0.1941  0.9915 -0.2944
 7174TIP3   OH221482   0.320   4.806   3.186  0.1940  0.0498 -0.4205
 7174TIP3    H121483   0.365   4.729   3.152  0.2206 -0.5364  0.9184
 7174TIP3    H221484   0.390   4.866   3.213  0.1756 -0.2658  0.3330
 7175TIP3   OH221485   5.866   4.516   3.538  0.3146 -0.0726  0.1465
 7175TIP3    H121486   5.927   4.510   3.464 -0.8308 -0.3398 -0.7992
 7175TIP3    H221487   5.872   4.608   3.566  0.6571  0.0647 -0.3585
 7176TIP3   OH221488   0.651   5.305   2.709  0.3019  0.6939  0.2630
 7176TIP3    H121489   0.731   5.344   2.673  0.1484  0.7297 -0.0487
 7176TIP3    H221490   0.675   5.276   2.797  1.0899 -0.6941 -0.3885
 7177TIP3   OH221491   6.593   5.858   3.325 -0.1925  0.3128  0.3095
 7177TIP3    H121492   6.509   5.830   3.361 -0.1162  1.5519  1.4801
 7177TIP3    H221493   6.573   5.938   3.277  0.4027  0.8848  1.0136
 7178TIP3   OH221494   0.075   7.206   1.004 -0.2279  0.1693 -0.1482
 7178TIP3    H121495   0.113   7.259   1.075 -0.1585  0.7623 -0.6277
 7178TIP3    H221496   0.031   7.134   1.050  2.3522 -1.1328  0.4036
 7179TIP3   OH221497   7.575   4.675   1.282  0.2827 -0.1803  0.5758
 7179TIP3    H121498   7.576   4.624   1.364 -0.1237 -0.8222  0.1840
 7179TIP3    H221499   7.596   4.611   1.214  0.8293  0.3981  0.1966
 7180TIP3   OH221500   0.858   5.282   3.693 -0.1796  0.0731 -0.2928
 7180TIP3    H121501   0.784   5.304   3.749  0.0968 -1.9327  0.8922
 7180TIP3    H221502   0.934   5.318   3.738 -0.1196 -0.2991 -0.0954
 7181TIP3   OH221503   7.038   6.646   3.347 -0.1741 -0.0828  1.1374
 7181TIP3    H121504   7.038   6.559   3.386 -1.1801 -0.2351  0.8145
 7181TIP3    H221505   6.953   6.683   3.372 -0.9821 -0.3153 -1.2023
 7182TIP3   OH221506   0.769   4.108   1.847  0.8075 -0.9296 -0.1309
 7182TIP3    H121507   0.849   4.135   1.893 -0.0121 -0.8258  1.2609
 7182TIP3    H221508   0.774   4.012   1.845  0.4057 -0.9818  1.0031
 7183TIP3   OH221509   5.411   2.413   6.196  0.1381  0.5223 -0.7595
 7183TIP3    H121510   5.393   2.504   6.174  1.4242  0.6156 -1.4447
 7183TIP3    H221511   5.411   2.368   6.111  1.0641  0.1596 -0.5623
 7184TIP3   OH221512   6.977   5.608   1.902  0.2298  0.3888 -0.0805
 7184TIP3    H121513   6.902   5.604   1.843  1.2143 -1.1587 -1.2754
 7184TIP3    H221514   7.029   5.681   1.871  0.8623 -0.5652 -1.3038
 7185TIP3   OH221515   7.342   2.303   3.995 -0.0259  0.1376  0.1516
 7185TIP3    H121516   7.266   2.346   3.955  1.2134  0.2151 -2.2715
 7185TIP3    H221517   7.391   2.268   3.920  1.3134 -1.5942  1.8001
 7186TIP3   OH221518   1.689   1.625   4.590  0.7199  0.6845 -0.4452
 7186TIP3    H121519   1.660   1.704   4.544 -1.0365  0.3538  0.0810
 7186TIP3    H221520   1.739   1.658   4.664  0.5696  1.2899 -0.6063
 7187TIP3   OH221521   6.489   4.600   2.174 -0.0477 -0.0845  0.0975
 7187TIP3    H121522   6.576   4.574   2.143  0.2721 -0.0404  0.9209
 7187TIP3    H221523   6.434   4.524   2.158  0.3703 -0.4638  0.4446
 7188TIP3   OH221524   0.874   7.202   3.563 -0.1057  0.1612  0.9680
 7188TIP3    H121525   0.846   7.227   3.475  1.0293 -1.2925  0.1581
 7188TIP3    H221526   0.793   7.193   3.613 -0.7727  0.7389 -0.0076
 7189TIP3   OH221527   5.787   5.118   2.085  0.2214  0.2538 -0.3299
 7189TIP3    H121528   5.836   5.171   2.022 -0.4766  1.0110 -0.2322
 7189TIP3    H221529   5.695   5.131   2.061  0.1150 -2.7527 -1.8078
 7190TIP3   OH221530   1.372   2.836   4.876 -0.0410  0.0490  0.4143
 7190TIP3    H121531   1.277   2.839   4.863 -0.1642 -0.7152  1.1407
 7190TIP3    H221532   1.387   2.756   4.926  1.2710 -1.3223 -2.1156
 7191TIP3   OH221533   0.879   5.373   1.309 -0.6409 -0.0808  0.6916
 7191TIP3    H121534   0.941   5.420   1.252 -0.0801 -0.1814  1.2195
 7191TIP3    H221535   0.793   5.398   1.275 -0.3306  0.6529  0.4196
 7192TIP3   OH221536   7.189   4.463   5.900  0.1053 -0.1394  0.0995
 7192TIP3    H121537   7.108   4.453   5.950 -0.2815  1.7222 -0.1122
 7192TIP3    H221538   7.254   4.491   5.965  0.7157 -2.0212  0.3461
 7193TIP3   OH221539   1.893   4.427   2.356 -0.1087  0.3000 -0.1551
 7193TIP3    H121540   1.987   4.432   2.339 -0.2185 -0.0350 -0.9007
 7193TIP3    H221541   1.871   4.511   2.397  0.5768  0.2311  0.3536
 7194TIP3   OH221542   0.536   6.291   4.118  0.0084  0.2848  0.2321
 7194TIP3    H121543   0.451   6.288   4.162  0.0751  0.3427  0.3674
 7194TIP3    H221544   0.600   6.287   4.190  0.1338  2.9788  0.3460
 7195TIP3   OH221545   7.164   5.070   3.269 -0.4547 -0.0914  0.3594
 7195TIP3    H121546   7.189   5.093   3.359 -0.6870 -0.3180  0.4850
 7195TIP3    H221547   7.193   4.980   3.258 -0.5453 -0.1084  0.2539
 7196TIP3   OH221548   1.350   4.872   4.214 -0.1490 -0.3166 -0.0426
 7196TIP3    H121549   1.433   4.918   4.201 -0.1764  1.1838  4.1936
 7196TIP3    H221550   1.373   4.779   4.210  2.1869  0.0414  2.7595
 7197TIP3   OH221551   1.365   4.852   2.921 -0.2437 -0.1378  0.3404
 7197TIP3    H121552   1.385   4.763   2.951  1.1056 -0.2863 -0.9455
 7197TIP3    H221553   1.439   4.875   2.865 -0.1491  2.1380  1.3496
 7198TIP3   OH221554   6.360   3.849   3.529  0.0188 -0.1171 -0.1146
 7198TIP3    H121555   6.273   3.841   3.569 -0.5805  1.6407 -1.0127
 7198TIP3    H221556   6.351   3.921   3.466  1.3287 -1.8148 -2.3356
 7199TIP3   OH221557   7.632   6.055   2.292 -0.5867 -0.1787  0.3820
 7199TIP3    H121558   7.719   6.016   2.300 -0.0658  0.5714 -1.4089
 7199TIP3    H221559   7.616   6.096   2.377  0.6372 -0.6465  0.8484
 7200TIP3   OH221560   7.347   2.665   1.041  0.3148  0.0249 -0.0011
 7200TIP3    H121561   7.393   2.600   0.988  0.8622  1.6632 -1.5433
 7200TIP3    H221562   7.258   2.666   1.006  0.4623  0.5379 -0.3508
 7201TIP3   OH221563   7.702   4.343   1.979 -0.3852  0.2288 -0.3257
 7201TIP3    H121564   7.730   4.386   1.897  0.0418  0.2700 -0.1579
 7201TIP3    H221565   7.732   4.253   1.969  0.3415  0.4158  0.1074
 7202TIP3   OH221566   6.391   6.691   4.000  0.0161  0.4090  0.3815
 7202TIP3    H121567   6.394   6.646   4.084  1.4809 -0.7298 -0.2547
 7202TIP3    H221568   6.406   6.622   3.935 -3.1861  0.8726 -0.9780
 7203TIP3   OH221569   1.274   5.706   0.981 -0.0965  0.2738 -0.2872
 7203TIP3    H121570   1.184   5.703   0.948 -0.3422  0.0585  0.3837
 7203TIP3    H221571   1.329   5.686   0.905 -0.3303  4.7701 -1.7589
 7204TIP3   OH221572   6.434   3.858   1.572 -0.6009  0.1920 -0.4571
 7204TIP3    H121573   6.514   3.911   1.579 -0.5706  0.0915 -0.0352
 7204TIP3    H221574   6.421   3.848   1.477 -0.5875  0.9215 -0.5402
 7205TIP3   OH221575   5.308   7.072   5.126  0.1188  0.2836  0.3931
 7205TIP3    H121576   5.316   7.168   5.132 -0.4433  0.3358  0.3165
 7205TIP3    H221577   5.330   7.053   5.034 -0.1302  0.3744  0.3146
 7206TIP3   OH221578   7.147   4.349   1.992 -0.1656  0.2303  0.7742
 7206TIP3    H121579   7.087   4.423   1.995 -1.0348 -0.2958 -1.9673
 7206TIP3    H221580   7.233   4.388   2.007 -0.7129  1.6327  0.3775
 7207TIP3   OH221581   6.343   6.231   4.256  0.0484  0.8365  0.1718
 7207TIP3    H121582   6.398   6.207   4.181 -1.9199  1.2072 -1.4235
 7207TIP3    H221583   6.372   6.319   4.279  2.2471 -0.1347  1.3822
 7208TIP3   OH221584   7.490   2.777   2.163  0.2176 -0.4225 -0.3236
 7208TIP3    H121585   7.496   2.863   2.122  0.1370 -0.0339  0.4711
 7208TIP3    H221586   7.581   2.753   2.182  0.2920 -0.8232 -1.1769
 7209TIP3   OH221587   1.289   4.553   2.321 -0.2851  0.1206  0.1096
 7209TIP3    H121588   1.203   4.575   2.286 -0.2392 -0.4048 -0.3376
 7209TIP3    H221589   1.303   4.462   2.296  0.2475  0.0942  0.4905
 7210TIP3   OH221590   0.231   6.331   3.304 -0.0971  0.3673  0.0270
 7210TIP3    H121591   0.152   6.279   3.318 -0.7460  0.8556 -1.6738
 7210TIP3    H221592   0.244   6.330   3.209  0.9206  1.7771  0.1347
 7211TIP3   OH221593   6.568   4.441   2.988  0.6018  0.0070  0.2134
 7211TIP3    H121594   6.582   4.348   3.001  0.4875  0.0782  0.8507
 7211TIP3    H221595   6.552   4.450   2.894  0.0755 -0.6814  0.2320
 7212TIP3   OH221596   5.492   5.091   2.412 -0.2207 -0.1662 -0.3665
 7212TIP3    H121597   5.397   5.083   2.414 -0.2003 -0.3437  1.0629
 7212TIP3    H221598   5.517   5.074   2.322 -1.7459  2.2398 -1.2823
 7213TIP3   OH221599   6.668   6.918   4.366 -0.2168 -0.3842 -0.0893
 7213TIP3    H121600   6.717   6.983   4.416  1.6534 -0.5541 -1.6382
 7213TIP3    H221601   6.576   6.936   4.386  0.3778  1.3196  1.1919
 7214TIP3   OH221602   1.145   3.573   2.252 -0.0621 -0.3235  0.1011
 7214TIP3    H121603   1.077   3.634   2.283  1.0551  1.1591 -0.2789
 7214TIP3    H221604   1.106   3.487   2.261 -0.8047  0.2769  2.9547
 7215TIP3   OH221605   1.306   0.041   5.195  0.1086  0.2833  0.1478
 7215TIP3    H121606   1.376  -0.000   5.145  0.6822  1.1486  0.2236
 7215TIP3    H221607   1.325   0.135   5.189 -1.6029  0.5884 -0.6593
 7216TIP3   OH221608   0.149   5.565   3.154 -0.2232 -0.2315  0.3168
 7216TIP3    H121609   0.238   5.531   3.142 -0.0086  0.2999  0.3598
 7216TIP3    H221610   0.093   5.502   3.109  0.1621 -0.6521  0.4242
 7217TIP3   OH221611   1.667   6.934   3.168  0.7245  0.3100 -0.0165
 7217TIP3    H121612   1.701   6.957   3.081 -2.2185 -0.4811 -1.4302
 7217TIP3    H221613   1.726   6.866   3.199  1.2195 -0.1307 -1.8641
 7218TIP3   OH221614   7.807   6.199   3.345 -0.0012  0.3404 -0.7100
 7218TIP3    H121615   7.716   6.226   3.357 -0.4494 -1.8920  1.4282
 7218TIP3    H221616   7.814   6.117   3.395  2.9691  0.0547 -1.5133
 7219TIP3   OH221617   6.251   5.238   5.221  0.1025 -0.5862 -0.1594
 7219TIP3    H121618   6.270   5.284   5.139 -0.2240  0.4111  0.3223
 7219TIP3    H221619   6.216   5.153   5.192  0.1437 -0.3091 -1.0561
 7220TIP3   OH221620   0.008   2.923   2.846 -0.1601 -0.6511  0.1558
 7220TIP3    H121621   0.073   2.993   2.850 -0.3826 -0.3001 -1.8994
 7220TIP3    H221622   0.057   2.843   2.866  0.0542  0.0627  2.7320
 7221TIP3   OH221623   7.308   6.480   4.261 -0.6551 -1.0452  0.3653
 7221TIP3    H121624   7.324   6.472   4.167  1.0818 -0.6649  0.6022
 7221TIP3    H221625   7.251   6.556   4.269 -1.5361 -1.6217 -0.4482
 7222TIP3   OH221626   7.007   1.845   3.620 -0.4447  0.3705 -0.1040
 7222TIP3    H121627   6.943   1.875   3.684 -0.3992 -0.5669  0.3952
 7222TIP3    H221628   7.075   1.802   3.673  0.7341  1.5812 -0.5938
 7223TIP3   OH221629   0.858   1.384   2.117 -0.2695  0.3021  0.0748
 7223TIP3    H121630   0.884   1.414   2.030 -0.6644  0.9693  0.1838
 7223TIP3    H221631   0.919   1.312   2.137 -0.5943 -0.2801 -1.0181
 7224TIP3   OH221632   6.132   3.726   2.513 -0.0469  0.2995  0.1517
 7224TIP3    H121633   6.068   3.790   2.542 -0.0338  0.0118  0.8279
 7224TIP3    H221634   6.088   3.641   2.523  1.0000 -0.0365  2.2177
 7225TIP3   OH221635   7.789   5.549   1.142 -0.6427  0.2104 -0.1863
 7225TIP3    H121636   7.715   5.501   1.104  0.4560 -1.7209  0.0737
 7225TIP3    H221637   7.783   5.532   1.236  0.6090 -0.6378 -0.2557
 7226TIP3   OH221638   5.776   4.242   2.403 -0.4544  0.0320  0.1709
 7226TIP3    H121639   5.839   4.204   2.463  0.1743  1.3193  0.3510
 7226TIP3    H221640   5.721   4.169   2.375 -0.1626 -0.7333  1.5845
 7227TIP3   OH221641   6.518   3.880   5.529  0.1627 -0.5265 -0.1070
 7227TIP3    H121642   6.536   3.973   5.521  0.1469 -0.5559 -0.4902
 7227TIP3    H221643   6.521   3.847   5.439 -0.5947 -0.7570 -0.0491
 7228TIP3   OH221644   6.225   5.417   1.527  0.2217 -0.1117  0.0714
 7228TIP3    H121645   6.237   5.393   1.435 -0.0212 -2.2202  0.5605
 7228TIP3    H221646   6.311   5.406   1.566  0.1121 -0.1659  0.2975
 7229TIP3   OH221647   0.216   5.372   3.613 -0.6659  0.0390  0.2744
 7229TIP3    H121648   0.225   5.324   3.696 -1.1283 -1.4170 -0.5014
 7229TIP3    H221649   0.181   5.308   3.552 -0.6419  1.1964 -0.9784
 7230TIP3   OH221650   1.120   4.385   2.735 -0.3981 -0.3658  0.0725
 7230TIP3    H121651   1.032   4.407   2.765 -0.2006 -2.0016  1.9924
 7230TIP3    H221652   1.150   4.318   2.796  1.8742 -0.4283 -1.0460
 7231TIP3   OH221653   3.741   3.970   5.985  0.2128  0.1871 -0.5607
 7231TIP3    H121654   3.730   4.060   5.954 -0.3707 -0.2607 -1.6888
 7231TIP3    H221655   3.721   3.975   6.078  1.1740  1.4039 -0.4024
 7232TIP3   OH221656   2.012   3.731   5.469 -1.2618  0.6059  0.1671
 7232TIP3    H121657   1.925   3.749   5.503 -2.2450 -0.4960 -1.6871
 7232TIP3    H221658   2.018   3.636   5.465  0.4211  0.6420  1.2235
 7233TIP3   OH221659   1.280   5.395   5.131 -1.0148 -0.3867  0.3542
 7233TIP3    H121660   1.369   5.375   5.161 -0.9299 -0.1668  0.2496
 7233TIP3    H221661   1.293   5.458   5.060 -1.2661 -0.2143  0.4627
 7234TIP3   OH221662   1.882   4.663   6.028 -0.4284  0.3279 -0.2742
 7234TIP3    H121663   1.798   4.705   6.011 -0.4877 -0.2229 -1.3086
 7234TIP3    H221664   1.860   4.583   6.076 -0.4926  0.1462 -0.6106
 7235TIP3   OH221665   5.200   1.459   0.404 -0.4253  0.0759  0.0402
 7235TIP3    H121666   5.271   1.394   0.407 -1.6892 -1.5267 -2.4619
 7235TIP3    H221667   5.155   1.449   0.488  0.8684 -0.5854  0.6728
 7236TIP3   OH221668   1.865   6.541   6.078 -0.0510  0.1731  0.3001
 7236TIP3    H121669   1.826   6.514   5.994  0.8400  0.9026 -0.3590
 7236TIP3    H221670   1.949   6.580   6.054  0.6499 -0.5065  1.6364
 7237TIP3   OH221671   4.855   3.788   0.219  1.0285  0.2318 -0.4813
 7237TIP3    H121672   4.843   3.792   0.314 -0.3944  1.6691 -0.6773
 7237TIP3    H221673   4.925   3.725   0.205  0.0447 -1.3220  1.4283
 7238TIP3   OH221674   2.095   4.457   5.689 -0.0912  0.4902  0.1008
 7238TIP3    H121675   2.050   4.542   5.698  0.4895  0.8456 -0.3324
 7238TIP3    H221676   2.186   4.480   5.671 -0.1617 -0.2237 -1.2122
 7239TIP3   OH221677   6.898   0.843   1.027 -0.4163 -0.4008  0.5380
 7239TIP3    H121678   6.957   0.901   0.980 -0.5390  0.3305  1.2784
 7239TIP3    H221679   6.955   0.777   1.068 -0.3671 -1.4596 -1.2020
 7240TIP3   OH221680   0.046   6.828   4.616 -0.2126  0.2991  0.5572
 7240TIP3    H121681  -0.028   6.869   4.570 -1.6550 -0.7516  1.8809
 7240TIP3    H221682   0.093   6.901   4.656 -0.0442  1.0565 -0.9811
 7241TIP3   OH221683   6.057   3.975   3.416 -0.0829  0.5467 -0.8790
 7241TIP3    H121684   6.092   3.961   3.504 -1.7889  0.4247 -0.1922
 7241TIP3    H221685   6.101   3.910   3.361  0.2172 -0.0760  0.0936
 7242TIP3   OH221686   2.646   0.348   4.585  0.5005  0.3841 -0.0376
 7242TIP3    H121687   2.558   0.310   4.585  0.7713 -0.2377 -0.8250
 7242TIP3    H221688   2.702   0.282   4.625  0.2413  1.6718  2.5425
 7243TIP3   OH221689   7.614   7.202   4.603 -0.2542 -0.1776 -0.1177
 7243TIP3    H121690   7.703   7.216   4.635  0.6677 -1.9633 -1.7903
 7243TIP3    H221691   7.604   7.107   4.601 -1.6559 -0.0184 -1.4165
 7244TIP3   OH221692   1.471   5.883   3.967  0.2453  0.0646 -0.0546
 7244TIP3    H121693   1.400   5.819   3.952  0.0458  0.2204  0.2206
 7244TIP3    H221694   1.489   5.918   3.880  1.6867 -1.7599 -0.5218
 7245TIP3   OH221695   7.151   6.726   5.683 -0.2692  0.0725  0.2473
 7245TIP3    H121696   7.186   6.646   5.644  1.3504  0.7406  0.2861
 7245TIP3    H221697   7.103   6.768   5.612 -0.4981 -0.5601  0.0210
 7246TIP3   OH221698   0.854   5.092   3.506  0.7428 -0.0725  0.0155
 7246TIP3    H121699   0.936   5.123   3.468 -0.1832  1.9036 -0.4022
 7246TIP3    H221700   0.836   5.151   3.579  0.0776 -0.9579  0.5896
 7247TIP3   OH221701   5.885   3.981   5.611  0.6070  0.1829 -0.1598
 7247TIP3    H121702   5.946   4.011   5.677  0.8977  1.5599 -1.0378
 7247TIP3    H221703   5.902   4.037   5.535 -0.6463 -0.4670 -0.9385
 7248TIP3   OH221704   0.803   6.371   4.724 -0.1508  0.0130  0.1633
 7248TIP3    H121705   0.870   6.391   4.658  0.2506 -1.0403  0.2357
 7248TIP3    H221706   0.729   6.427   4.702  0.9559  1.5876  0.3967
 7249TIP3   OH221707   7.028   5.990   5.676 -0.4262  0.7720 -0.0525
 7249TIP3    H121708   6.986   5.904   5.681  1.0637  0.0256 -0.1409
 7249TIP3    H221709   6.981   6.043   5.740 -1.4023 -0.0913 -0.0386
 7250TIP3   OH221710   1.724   5.635   4.819 -0.0707  0.6410  0.3250
 7250TIP3    H121711   1.636   5.612   4.847  0.2289 -1.0197 -0.0263
 7250TIP3    H221712   1.720   5.631   4.723  0.5234 -0.0370  0.3233
 7251TIP3   OH221713   6.377   6.614   5.420  0.0814  0.5791  0.0339
 7251TIP3    H121714   6.319   6.616   5.495 -0.6718  0.1994 -0.5352
 7251TIP3    H221715   6.458   6.654   5.451 -0.6107  1.4679  0.7209
 7252TIP3   OH221716   7.361   6.660   5.327 -0.2799 -0.4543  0.0361
 7252TIP3    H121717   7.362   6.746   5.286 -0.5555 -0.2309  0.4957
 7252TIP3    H221718   7.405   6.672   5.411  0.7866 -1.0330 -0.4384
 7253TIP3   OH221719   2.722   3.392   2.812 -0.2862  0.0193  0.2375
 7253TIP3    H121720   2.698   3.448   2.886 -0.6874  1.5784 -1.0317
 7253TIP3    H221721   2.645   3.338   2.797 -0.7257  0.6786  0.0891
 7254TIP3   OH221722   0.983   6.102   3.958  0.1925 -0.1587  0.4375
 7254TIP3    H121723   0.974   6.110   4.053  0.1020 -1.8606  0.5949
 7254TIP3    H221724   1.076   6.084   3.944  0.0890 -0.5666  0.2635
 7255TIP3   OH221725   7.596   5.353   4.149 -0.2962 -0.0371 -0.7542
 7255TIP3    H121726   7.569   5.353   4.241  2.5143  0.4608  0.1233
 7255TIP3    H221727   7.536   5.413   4.106 -1.2887  0.1569  0.8759
 7256TIP3   OH221728   6.479   4.357   4.439 -0.5395 -0.3779 -0.3755
 7256TIP3    H121729   6.544   4.357   4.369  0.5239  0.3682  0.5993
 7256TIP3    H221730   6.526   4.325   4.516 -1.2950  0.2435  0.3601
 7257TIP3   OH221731   7.624   3.748   4.749  0.1943 -0.4467  0.3168
 7257TIP3    H121732   7.625   3.683   4.820 -0.2945 -2.2960 -1.3153
 7257TIP3    H221733   7.690   3.716   4.687 -1.9368 -0.9243 -1.8097
 7258TIP3   OH221734   0.244   3.734   3.346 -0.5807 -0.0854 -0.0842
 7258TIP3    H121735   0.270   3.642   3.342 -0.4958 -0.1158  1.1150
 7258TIP3    H221736   0.249   3.764   3.255  1.0920 -0.7973 -0.2455
 7259TIP3   OH221737   2.573   4.414   4.405  0.0794 -0.3719  0.0159
 7259TIP3    H121738   2.576   4.473   4.330 -2.2038  0.3358  0.4324
 7259TIP3    H221739   2.480   4.394   4.416  0.5557 -1.8739  1.5655
 7260TIP3   OH221740   1.568   6.600   5.227  0.4684 -0.4083 -0.1437
 7260TIP3    H121741   1.614   6.658   5.288  1.5182  0.0193 -1.2985
 7260TIP3    H221742   1.602   6.513   5.245  1.8692 -0.0800 -1.0650
 7261TIP3   OH221743   7.676   7.027   5.680  0.0424 -0.0413  0.4596
 7261TIP3    H121744   7.632   7.102   5.641 -0.3341 -1.0228 -1.0609
 7261TIP3    H221745   7.705   6.975   5.605  1.3701 -0.8033  1.4732
 7262TIP3   OH221746   6.504   4.204   5.526 -0.2268 -0.8514 -0.7882
 7262TIP3    H121747   6.466   4.286   5.557  2.7234  0.5500 -0.6623
 7262TIP3    H221748   6.462   4.188   5.442 -2.6015 -0.5148  0.2954
 7263TIP3   OH221749   0.106   3.712   2.487 -0.4206  0.6551 -0.1185
 7263TIP3    H121750   0.027   3.663   2.465  0.0200 -0.0133 -0.2341
 7263TIP3    H221751   0.156   3.716   2.405 -0.9802  2.3027 -0.3993
 7264TIP3   OH221752   1.292   4.655   6.257 -0.2950  0.5361  0.2728
 7264TIP3    H121753   1.377   4.611   6.259 -0.8401 -0.5862 -0.4862
 7264TIP3    H221754   1.313   4.748   6.256  0.8960  0.2895  1.3380
 7265TIP3   OH221755   0.559   5.821   5.849 -0.1567 -0.3070  0.0336
 7265TIP3    H121756   0.480   5.786   5.807  0.9640 -2.2683 -0.5014
 7265TIP3    H221757   0.528   5.896   5.899 -2.3925 -1.1406 -0.0438
 7266TIP3   OH221758   7.754   7.164   4.187  0.7795  0.5787  0.2343
 7266TIP3    H121759   7.848   7.175   4.170  0.2169  0.7584 -2.9455
 7266TIP3    H221760   7.731   7.083   4.141 -1.0437  1.6414 -0.7397
 7267TIP3   OH221761   2.184   5.973   5.842  0.7352 -0.1669 -0.0847
 7267TIP3    H121762   2.100   5.990   5.799  0.4673  1.0948  0.8921
 7267TIP3    H221763   2.240   6.044   5.812  0.5835  0.6439  1.5101
 7268TIP3   OH221764   0.594   6.648   3.785 -0.2104  0.2652  0.0164
 7268TIP3    H121765   0.552   6.638   3.870  1.2666 -0.1976  0.7046
 7268TIP3    H221766   0.654   6.723   3.796  0.9766 -0.6395 -0.2036
 7269TIP3   OH221767   7.323   4.706   4.792  0.2107  0.3834 -0.5581
 7269TIP3    H121768   7.389   4.706   4.723  0.2417  0.8684 -0.5241
 7269TIP3    H221769   7.274   4.787   4.779 -0.0778  0.2509 -0.2943
 7270TIP3   OH221770   1.401   4.264   4.954 -0.2651  0.2221  0.3431
 7270TIP3    H121771   1.338   4.218   4.898 -0.7297  0.9586  0.2434
 7270TIP3    H221772   1.350   4.290   5.031  0.7298 -2.0786  1.8142
 7271TIP3   OH221773   7.088   5.079   5.020  0.1369  0.2281 -0.1161
 7271TIP3    H121774   7.145   5.101   5.094 -0.5447 -0.5401  0.6571
 7271TIP3    H221775   7.038   5.003   5.051 -0.7456  0.4204 -1.0707
 7272TIP3   OH221776   3.065   6.273   4.280 -0.2025 -0.0302  0.2320
 7272TIP3    H121777   3.131   6.222   4.327 -0.3815  0.5779  1.1532
 7272TIP3    H221778   3.014   6.207   4.232 -0.4024 -0.7252  1.3614
 7273TIP3   OH221779   3.403   0.222   6.025 -0.2557 -0.2563  0.3399
 7273TIP3    H121780   3.458   0.220   6.104 -1.0274 -0.8915  0.8629
 7273TIP3    H221781   3.318   0.189   6.054 -0.5750 -0.3866 -0.7367
 7274TIP3   OH221782   7.048   5.875   2.974  0.5247 -0.1325  0.3205
 7274TIP3    H121783   6.994   5.954   2.967  0.7938 -0.0146 -0.4425
 7274TIP3    H221784   6.992   5.812   3.020 -0.5973 -0.3038 -1.2341
 7275TIP3   OH221785   0.301   6.218   5.846 -0.3212 -0.2360 -0.2196
 7275TIP3    H121786   0.266   6.282   5.906  0.5490  0.3325 -0.3070
 7275TIP3    H221787   0.226   6.165   5.820 -0.9690  0.5041  0.1471
 7276TIP3   OH221788   6.251   3.753   2.933  0.1300 -0.3030 -0.1842
 7276TIP3    H121789   6.337   3.761   2.974  0.5391  0.6619 -1.2128
 7276TIP3    H221790   6.269   3.719   2.845 -0.4337  0.8898 -0.7749
 7277TIP3   OH221791   5.626   3.511   0.882  0.6553 -0.7203  0.0238
 7277TIP3    H121792   5.579   3.590   0.909 -0.7469 -1.5127 -0.0489
 7277TIP3    H221793   5.628   3.456   0.961 -0.5149 -1.6326 -0.5760
 7278TIP3   OH221794   6.808   4.967   5.915  0.4605 -0.0668 -0.1229
 7278TIP3    H121795   6.718   4.996   5.899 -0.3488 -2.2025  0.4608
 7278TIP3    H221796   6.835   5.018   5.992 -0.6119 -0.1601  0.3317
 7279TIP3   OH221797   0.176   6.701   4.322 -0.5051  0.3638 -0.4991
 7279TIP3    H121798   0.164   6.775   4.381 -2.0022 -0.3660  0.1601
 7279TIP3    H221799   0.089   6.685   4.285 -0.7318 -2.3872  1.0358
 7280TIP3   OH221800   0.091   5.259   4.082  0.2155  0.4590  0.1864
 7280TIP3    H121801   0.043   5.183   4.051  0.4197  0.1919  0.5321
 7280TIP3    H221802   0.023   5.322   4.107  0.0409 -0.1989  1.3833
 7281TIP3   OH221803   0.462   5.424   5.742 -0.2567 -0.2795 -0.1883
 7281TIP3    H121804   0.515   5.416   5.662  0.5459  1.4793  0.1373
 7281TIP3    H221805   0.408   5.501   5.727  0.7215  0.7538  1.4073
 7282TIP3   OH221806   1.581   4.487   5.679  0.0277 -0.7113  0.1108
 7282TIP3    H121807   1.631   4.468   5.599  0.0986 -0.3366  0.0668
 7282TIP3    H221808   1.538   4.571   5.661  0.6786 -0.2332  0.7718
 7283TIP3   OH221809   0.878   3.433   3.603 -0.0248  0.2645 -0.4804
 7283TIP3    H121810   0.839   3.404   3.520 -0.9627  3.2253 -1.1420
 7283TIP3    H221811   0.805   3.475   3.649  1.1668  1.1252  0.6162
 7284TIP3   OH221812   1.082   3.635   3.665 -0.5260  0.6097  0.0900
 7284TIP3    H121813   1.037   3.562   3.622  1.8433  0.7457 -2.8128
 7284TIP3    H221814   1.012   3.692   3.696 -2.3628 -1.1356 -0.7418
 7285TIP3   OH221815   0.607   4.678   5.049  0.2298  0.3438  0.0891
 7285TIP3    H121816   0.561   4.636   5.121  1.0392 -1.5269 -0.4521
 7285TIP3    H221817   0.665   4.610   5.014 -0.7107  0.9692 -2.8320
 7286TIP3   OH221818   5.968   2.172   2.457  0.2026 -0.0946  0.0371
 7286TIP3    H121819   5.983   2.078   2.462 -0.3118 -0.1089  1.3709
 7286TIP3    H221820   5.948   2.199   2.546 -1.2226  1.0226 -0.5865
 7287TIP3   OH221821   0.055   6.538   5.169  0.4130  0.1992 -0.5710
 7287TIP3    H121822   0.049   6.452   5.210 -1.7806  0.2308 -0.7440
 7287TIP3    H221823  -0.012   6.591   5.213 -0.2525  0.9634 -2.4311
 7288TIP3   OH221824   5.758   3.940   1.115 -0.2303  0.2666 -0.3170
 7288TIP3    H121825   5.685   3.998   1.096  0.3192  0.8454 -0.6796
 7288TIP3    H221826   5.773   3.892   1.033 -1.8211 -1.6817  0.4912
 7289TIP3   OH221827   0.671   5.369   2.072  0.2644  0.2050 -0.7558
 7289TIP3    H121828   0.733   5.442   2.064  0.7178  0.0769  1.1206
 7289TIP3    H221829   0.588   5.410   2.093 -0.1327  0.3334 -2.5166
 7290TIP3   OH221830   7.081   5.951   4.319 -0.1578 -0.0266 -0.1288
 7290TIP3    H121831   7.114   5.994   4.240 -0.1595 -0.7794 -0.5362
 7290TIP3    H221832   7.049   5.866   4.289  0.7615 -0.7289  0.8361
 7291TIP3   OH221833   4.177   1.532   0.167 -0.2389 -0.1131  0.0806
 7291TIP3    H121834   4.148   1.592   0.099 -0.6873 -0.0435  0.3346
 7291TIP3    H221835   4.259   1.570   0.199  0.0770 -0.2538 -0.5575
 7292TIP3   OH221836   5.967   2.564   1.638  0.1735 -0.0344 -0.2130
 7292TIP3    H121837   5.953   2.501   1.567  0.9192 -0.4794  0.0387
 7292TIP3    H221838   5.889   2.557   1.692 -1.3600  1.7469 -2.0761
 7293TIP3   OH221839   7.717   4.528   3.952  0.3763 -0.6242  0.1347
 7293TIP3    H121840   7.765   4.507   3.873 -0.0332  0.5068 -0.4270
 7293TIP3    H221841   7.640   4.577   3.921  1.1820  1.5079  1.3466
 7294TIP3   OH221842   1.138   6.350   5.017 -0.1994  0.5147  0.5040
 7294TIP3    H121843   1.163   6.260   4.996 -2.6971  0.2417 -1.6045
 7294TIP3    H221844   1.200   6.404   4.968 -0.3340 -0.1062 -0.3745
 7295TIP3   OH221845   5.114   2.479   1.154  0.0659 -0.0736  0.4208
 7295TIP3    H121846   5.103   2.536   1.231  0.0002 -0.8182  0.9751
 7295TIP3    H221847   5.070   2.525   1.083  0.6432  0.9115  0.6853
 7296TIP3   OH221848   0.979   5.104   3.928  0.2466  0.1859 -0.2970
 7296TIP3    H121849   0.978   5.193   3.891 -0.5168  0.3702  0.1472
 7296TIP3    H221850   0.989   5.118   4.022 -0.7560 -0.1709 -0.1367
 7297TIP3   OH221851   0.599   6.635   5.707 -0.3936 -0.1829  0.4136
 7297TIP3    H121852   0.520   6.660   5.660 -0.2793 -1.2686 -0.3843
 7297TIP3    H221853   0.650   6.586   5.642  1.2223  1.0580  0.7149
 7298TIP3   OH221854   7.134   6.566   4.534 -0.0657  1.0028  0.1884
 7298TIP3    H121855   7.051   6.554   4.581 -0.3869  0.2376 -0.5534
 7298TIP3    H221856   7.148   6.483   4.489  0.0520  1.8332 -1.3445
 7299TIP3   OH221857   6.535   4.438   4.191 -0.2682 -0.0547  0.1944
 7299TIP3    H121858   6.506   4.367   4.133 -1.0879  0.1849  0.3134
 7299TIP3    H221859   6.584   4.497   4.133  3.9352 -2.7413  0.8393
 7300TIP3   OH221860   7.044   5.310   5.271 -0.0116  0.2951 -0.0896
 7300TIP3    H121861   7.062   5.355   5.353  1.1904 -1.5610  0.6875
 7300TIP3    H221862   6.990   5.234   5.296  0.9114 -0.6465 -0.9045
 7301TIP3   OH221863   2.158   0.956   4.696  0.0662 -0.1215 -0.4613
 7301TIP3    H121864   2.248   0.940   4.668  0.2700 -0.6612  0.4590
 7301TIP3    H221865   2.114   0.872   4.687 -0.0359 -0.1459  0.1868
 7302TIP3   OH221866   6.413   6.417   4.493 -0.0642  0.0301  0.2083
 7302TIP3    H121867   6.406   6.322   4.506  1.7099 -0.1307  0.1528
 7302TIP3    H221868   6.436   6.451   4.580 -0.0812  0.3382  0.0928
 7303TIP3   OH221869   2.629   5.672   4.588  0.3241  0.0662 -0.2673
 7303TIP3    H121870   2.711   5.642   4.548 -0.6567 -0.4042 -1.9634
 7303TIP3    H221871   2.592   5.595   4.630  0.0357 -0.0694 -0.7633
 7304TIP3   OH221872   4.680   3.171   1.089 -0.0400  0.0959  0.5074
 7304TIP3    H121873   4.672   3.171   1.185  1.8400 -0.7967  0.6871
 7304TIP3    H221874   4.607   3.225   1.059 -0.6241  0.4310  2.4472
 7305TIP3   OH221875   1.770   4.650   3.740  0.1653 -0.3678 -0.1259
 7305TIP3    H121876   1.849   4.599   3.757  0.0374  0.0895  1.8860
 7305TIP3    H221877   1.700   4.604   3.786 -0.3617  0.3756 -0.1739
 7306TIP3   OH221878   0.318   5.162   3.783 -0.1617  0.0463 -0.1658
 7306TIP3    H121879   0.292   5.138   3.872  0.3671  0.6003  0.1497
 7306TIP3    H221880   0.358   5.083   3.748 -0.2130 -0.1260  0.1571
 7307TIP3   OH221881   7.331   5.489   5.791  0.4154 -0.0561  0.0635
 7307TIP3    H121882   7.264   5.519   5.730  0.6185  0.7321  0.2235
 7307TIP3    H221883   7.397   5.447   5.735 -0.1329 -0.7088 -0.1059
 7308TIP3   OH221884   6.850   5.821   5.140  0.3405  0.4546  0.2297
 7308TIP3    H121885   6.862   5.882   5.067 -0.7786  0.6828  0.2280
 7308TIP3    H221886   6.840   5.736   5.099  2.6034  0.1432  0.2618
 7309TIP3   OH221887   1.513   3.476   3.526 -0.4313 -0.5888 -0.5767
 7309TIP3    H121888   1.528   3.550   3.585  0.6884 -1.7272  0.5897
 7309TIP3    H221889   1.554   3.503   3.443 -0.4662  0.3001 -0.3133
 7310TIP3   OH221890   0.921   3.185   3.925 -0.8906  0.1474  0.2177
 7310TIP3    H121891   0.884   3.116   3.981  1.4858 -0.5502  0.9653
 7310TIP3    H221892   0.924   3.145   3.838  1.6153 -1.1628  0.8789
 7311TIP3   OH221893   5.908   1.878   0.716  0.5576  0.3610  0.7238
 7311TIP3    H121894   5.917   1.894   0.622 -1.0300 -0.4897  0.4195
 7311TIP3    H221895   5.875   1.961   0.752  0.3091  0.3981  0.4049
 7312TIP3   OH221896   5.832   2.452   0.604  0.3666 -0.5681  0.0085
 7312TIP3    H121897   5.896   2.499   0.550 -0.5599  0.9644  0.2119
 7312TIP3    H221898   5.762   2.429   0.544  1.1863 -2.4762 -0.2681
 7313TIP3   OH221899   0.754   6.263   4.294 -0.2206 -0.3322 -0.0213
 7313TIP3    H121900   0.813   6.188   4.298  0.2009 -0.0996 -1.6755
 7313TIP3    H221901   0.812   6.339   4.293 -0.6476  0.0553  1.8196
 7314TIP3   OH221902   1.923   4.994   6.164 -0.3655  0.2604 -0.3808
 7314TIP3    H121903   1.993   4.930   6.171 -0.8971 -0.5766 -2.4722
 7314TIP3    H221904   1.961   5.068   6.117 -0.7584 -0.0233 -1.1531
 7315TIP3   OH221905   7.753   6.718   3.404 -0.3630  0.3244  0.1590
 7315TIP3    H121906   7.779   6.641   3.454  0.0924  0.6127  0.3695
 7315TIP3    H221907   7.689   6.763   3.459 -0.8907 -0.0796 -0.1119
 7316TIP3   OH221908   2.070   0.210   5.039 -0.2585 -0.4849  0.4878
 7316TIP3    H121909   2.024   0.173   5.114  0.1906 -0.9881  0.5125
 7316TIP3    H221910   2.020   0.289   5.017 -1.8526 -1.6930 -0.2561
 7317TIP3   OH221911   7.707   4.676   5.997  0.0757  0.1441  0.1572
 7317TIP3    H121912   7.778   4.618   6.025 -0.2407  0.0287  0.7334
 7317TIP3    H221913   7.658   4.624   5.933  0.7693  0.3861 -0.5768
 7318TIP3   OH221914   1.779   5.340   5.146 -0.6796  0.1306  0.3973
 7318TIP3    H121915   1.815   5.254   5.167  1.0139  1.1648  1.9024
 7318TIP3    H221916   1.757   5.336   5.053  0.9117 -1.3787  0.0735
 7319TIP3   OH221917   2.900   5.824   5.860  0.4911  0.3858 -0.1220
 7319TIP3    H121918   2.880   5.904   5.908 -1.0686  0.8525 -1.5055
 7319TIP3    H221919   2.891   5.754   5.924  1.1552  1.2510  0.9253
 7320TIP3   OH221920   0.420   4.550   4.458  0.6965 -0.5794  0.0639
 7320TIP3    H121921   0.504   4.594   4.442  0.7520  0.5054  3.0988
 7320TIP3    H221922   0.443   4.461   4.484  0.9618 -0.0454  1.6838
 7321TIP3   OH221923   0.596   4.717   3.017  0.2160  0.2163 -0.4758
 7321TIP3    H121924   0.656   4.697   3.089 -0.9013 -1.1454  0.1111
 7321TIP3    H221925   0.636   4.679   2.940 -0.5179 -1.9059  0.1474
 7322TIP3   OH221926   0.638   5.435   5.517 -0.2292 -0.1371 -0.1671
 7322TIP3    H121927   0.578   5.483   5.461 -0.2801 -2.2338 -2.0152
 7322TIP3    H221928   0.689   5.381   5.456 -0.5157 -2.7553  1.8335
 7323TIP3   OH221929   7.126   5.756   5.953  0.0725  0.2251  0.0455
 7323TIP3    H121930   7.181   5.759   6.031 -0.6880  1.1529  0.5653
 7323TIP3    H221931   7.108   5.848   5.934 -0.8279 -0.0476 -0.4442
 7324TIP3   OH221932   7.091   3.871   6.056  0.2428 -0.2235  0.4765
 7324TIP3    H121933   7.040   3.838   5.982 -0.0641 -2.7938  1.7938
 7324TIP3    H221934   7.027   3.912   6.113  0.4044  1.2466 -0.3680
 7325TIP3   OH221935   1.228   5.583   4.891  0.0927 -0.3649  0.6695
 7325TIP3    H121936   1.161   5.636   4.934  0.9765  0.2376  1.3476
 7325TIP3    H221937   1.180   5.519   4.839 -1.0197  1.6950 -0.8978
 7326TIP3   OH221938   5.414   4.157   1.485 -0.3414  0.6705  0.3028
 7326TIP3    H121939   5.339   4.214   1.503 -0.2656  0.7285  0.4352
 7326TIP3    H221940   5.471   4.168   1.560 -0.7131 -0.2242  0.7321
 7327TIP3   OH221941   1.065   4.632   4.389  0.3475  0.0040  0.3343
 7327TIP3    H121942   1.003   4.564   4.363  1.1165  0.0287 -1.6683
 7327TIP3    H221943   1.150   4.601   4.356  0.7088  1.9058 -0.6043
 7328TIP3   OH221944   6.665   4.171   4.599  0.6137 -0.4713 -0.0112
 7328TIP3    H121945   6.745   4.206   4.638  0.5283 -1.3086  0.9467
 7328TIP3    H221946   6.638   4.102   4.660 -0.2126 -0.9475 -0.9177
 7329TIP3   OH221947   2.924   5.606   6.306 -0.0415  0.1103  0.2427
 7329TIP3    H121948   2.920   5.687   6.357  1.5398  0.2042  0.2480
 7329TIP3    H221949   2.870   5.544   6.355  2.3521 -0.1395  2.7036
 7330TIP3   OH221950   1.848   6.428   4.674  0.5411 -0.0554  0.2569
 7330TIP3    H121951   1.917   6.381   4.721  0.7944  0.7113  0.6524
 7330TIP3    H221952   1.857   6.519   4.702 -0.7057  0.0355  0.4226
 7331TIP3   OH221953   7.160   6.545   3.697 -0.1470  0.2167  0.2032
 7331TIP3    H121954   7.117   6.494   3.629  2.5339 -0.5827 -0.9638
 7331TIP3    H221955   7.192   6.480   3.759 -0.7807  0.8079  1.1576
 7332TIP3   OH221956   0.994   7.224   5.439  0.2187 -0.0580  0.3877
 7332TIP3    H121957   0.956   7.137   5.421 -0.0574  0.2486 -0.5594
 7332TIP3    H221958   1.088   7.209   5.442  0.1270 -0.5447  1.1275
 7333TIP3   OH221959   0.362   4.993   5.266  0.2809  0.4005 -0.1779
 7333TIP3    H121960   0.299   4.923   5.284 -0.8435  1.1916 -0.9221
 7333TIP3    H221961   0.346   5.058   5.334  0.4915  0.4798 -0.2035
 7334TIP3   OH221962   3.270   5.299   3.291  0.5269  0.0807 -0.0714
 7334TIP3    H121963   3.357   5.321   3.260 -0.3811  1.4021 -1.8071
 7334TIP3    H221964   3.284   5.251   3.373  2.8155  1.3784  0.3300
 7335TIP3   OH221965   2.791   6.288   4.568 -0.2158 -0.2537  0.6495
 7335TIP3    H121966   2.696   6.289   4.579 -0.4914 -0.6776 -1.4093
 7335TIP3    H221967   2.810   6.198   4.541  1.0245 -0.7149  2.9637
 7336TIP3   OH221968   0.118   6.027   4.295  0.3713  0.7053 -0.4760
 7336TIP3    H121969   0.179   6.010   4.224  2.9259  4.2544  0.7097
 7336TIP3    H221970   0.050   6.082   4.257 -0.8716 -1.3036 -1.2341
 7337TIP3   OH221971   6.711   3.419   0.487  0.1374  0.3748 -0.0101
 7337TIP3    H121972   6.668   3.501   0.509 -1.3503 -0.4219  0.1549
 7337TIP3    H221973   6.641   3.365   0.449  1.3438 -0.3992 -1.1475
 7338TIP3   OH221974   0.508   4.225   5.264  0.0278 -0.5053 -0.0151
 7338TIP3    H121975   0.516   4.195   5.173  2.1186  1.7308 -0.6224
 7338TIP3    H221976   0.528   4.319   5.260 -0.0592 -0.3328  2.7363
 7339TIP3   OH221977   0.216   4.033   3.732  0.1150 -0.0539  0.1104
 7339TIP3    H121978   0.177   4.090   3.665  0.9837 -0.1159 -0.4500
 7339TIP3    H221979   0.308   4.059   3.736 -0.1221  0.5627  1.9371
 7340TIP3   OH221980   2.786   6.367   5.597 -0.0580 -0.1540  0.1413
 7340TIP3    H121981   2.734   6.441   5.629  0.6786  0.1320  0.6616
 7340TIP3    H221982   2.853   6.354   5.663 -0.6687 -1.8173  0.4544
 7341TIP3   OH221983   6.788   5.641   4.365  0.2322  0.0965 -0.4945
 7341TIP3    H121984   6.849   5.665   4.295  1.2643 -1.4413 -0.1574
 7341TIP3    H221985   6.729   5.577   4.324  0.1088  0.0756 -0.2841
 7342TIP3   OH221986   4.202   5.647   3.628  0.3887  0.2879  0.2880
 7342TIP3    H121987   4.253   5.566   3.637  0.0038 -0.2401 -2.0247
 7342TIP3    H221988   4.227   5.682   3.543 -0.5784  1.8477  0.6202
 7343TIP3   OH221989   4.903   4.482   4.445  0.2151  0.0550  0.3617
 7343TIP3    H121990   4.812   4.464   4.468  0.3637 -0.3838  0.6005
 7343TIP3    H221991   4.946   4.501   4.528  0.3790  0.1022  0.2662
 7344TIP3   OH221992   1.107   5.025   3.718  0.0988 -0.3492 -0.0625
 7344TIP3    H121993   1.035   5.045   3.777  0.5014 -0.6226  0.5308
 7344TIP3    H221994   1.178   4.995   3.776 -0.0166 -2.0988 -0.7909
 7345TIP3   OH221995   7.199   4.237   0.232  0.1464 -0.2781  0.2878
 7345TIP3    H121996   7.244   4.173   0.288 -0.8976 -1.7616 -0.5570
 7345TIP3    H221997   7.110   4.203   0.223  0.4363 -0.3296 -2.6950
 7346TIP3   OH221998   0.982   5.610   3.689  0.3995 -0.2930 -0.1217
 7346TIP3    H121999   0.952   5.674   3.753  0.6671 -1.3413  1.0496
 7346TIP3    H222000   0.920   5.620   3.616  1.2968  2.3250 -0.6062
 7347TIP3   OH222001   3.314   7.162   4.024 -0.0001  0.3425 -0.4192
 7347TIP3    H122002   3.273   7.075   4.026 -1.1284  0.8594 -0.6694
 7347TIP3    H222003   3.407   7.145   4.041 -0.1481 -0.9512 -0.8394
 7348TIP3   OH222004   3.535   5.721   3.854 -0.1841 -0.0894  0.1338
 7348TIP3    H122005   3.583   5.763   3.782  0.4319 -0.8300  0.1108
 7348TIP3    H222006   3.533   5.628   3.831  0.1170 -0.3495  1.1219
 7349TIP3   OH222007   2.072   5.943   6.089 -0.1953 -0.2065  0.0889
 7349TIP3    H122008   2.011   5.882   6.047  0.4166  0.2399 -1.4759
 7349TIP3    H222009   2.119   5.984   6.016  0.1286  1.3758  1.1634
 7350TIP3   OH222010   2.666   0.804   4.964 -0.1303 -0.1999 -0.0416
 7350TIP3    H122011   2.651   0.711   4.944  0.5180 -0.0971 -0.9945
 7350TIP3    H222012   2.578   0.838   4.984 -0.2877 -1.1645  0.9752
 7351TIP3   OH222013   1.825   6.731   3.750 -0.2175  0.5705  0.5630
 7351TIP3    H122014   1.734   6.755   3.767 -0.6741 -0.6953 -0.0016
 7351TIP3    H222015   1.868   6.814   3.730 -1.4229  1.0940  0.0812
 7352TIP3   OH222016   1.054   6.434   5.414 -0.0593  0.0283  0.2952
 7352TIP3    H122017   1.125   6.371   5.425 -0.9639 -0.8711  1.2030
 7352TIP3    H222018   0.974   6.381   5.423 -0.8366  1.4476  1.8810
 7353TIP3   OH222019   0.714   6.006   4.503 -0.0315  0.5087  0.2775
 7353TIP3    H122020   0.714   6.037   4.594 -0.2208 -0.7575  0.7184
 7353TIP3    H222021   0.708   5.911   4.510 -1.9086  0.4954 -1.1008
 7354TIP3   OH222022   7.340   5.785   4.618  0.4367 -0.2979 -0.5593
 7354TIP3    H122023   7.319   5.861   4.671  1.9783  0.0440 -0.4258
 7354TIP3    H222024   7.273   5.720   4.641 -0.3336  0.6874 -0.0106
 7355TIP3   OH222025   0.173   4.236   4.294 -0.7242  0.0485 -0.1775
 7355TIP3    H122026   0.097   4.198   4.248  0.2999  0.4866 -2.2800
 7355TIP3    H222027   0.172   4.193   4.379 -1.0478 -2.9541 -1.5994
 7356TIP3   OH222028   1.194   7.156   3.306  0.2913 -0.4626  0.0549
 7356TIP3    H122029   1.275   7.119   3.341 -0.6589 -1.5266  1.1529
 7356TIP3    H222030   1.217   7.183   3.217  2.0901  0.0959  0.6680
 7357TIP3   OH222031   2.586   4.556   4.161  0.1593 -0.3666  0.5448
 7357TIP3    H122032   2.664   4.520   4.118 -1.1629 -2.2882 -0.3431
 7357TIP3    H222033   2.518   4.555   4.092 -0.4571  2.0709  1.0505
 7358TIP3   OH222034   2.973   2.892   6.126 -0.1237  0.5201 -0.3644
 7358TIP3    H122035   2.993   2.970   6.075  2.8315  0.2232  0.2455
 7358TIP3    H222036   3.034   2.895   6.200 -0.4150 -2.0119  0.0446
 7359TIP3   OH222037   1.430   6.940   5.006  0.0836  0.2966 -0.1174
 7359TIP3    H122038   1.440   6.993   4.927 -1.1047  2.7111  1.3264
 7359TIP3    H222039   1.519   6.933   5.042  0.3147  0.8863 -0.5692
 7360TIP3   OH222040   3.817   5.432   6.376  0.1722 -0.3791  0.3759
 7360TIP3    H122041   3.863   5.513   6.352  0.6348 -0.3713  1.2509
 7360TIP3    H222042   3.792   5.393   6.293  1.1120 -0.0004 -0.0960
 7361TIP3   OH222043   2.081   6.932   4.672  0.1858 -0.2045  0.0036
 7361TIP3    H122044   2.083   7.027   4.666 -0.1586 -0.2537 -1.1006
 7361TIP3    H222045   2.159   6.904   4.625 -1.2301 -0.5522 -2.2100
 7362TIP3   OH222046   2.086   6.669   2.723  0.4970 -0.1183 -0.4897
 7362TIP3    H122047   2.021   6.602   2.700 -0.5333  0.8097 -0.2929
 7362TIP3    H222048   2.169   6.634   2.688 -0.5292 -0.1095 -3.0177
 7363TIP3   OH222049   2.099   4.596   3.555  0.0298 -0.3397 -0.0375
 7363TIP3    H122050   2.048   4.675   3.536  1.0245  0.4994  0.7374
 7363TIP3    H222051   2.036   4.524   3.544 -0.9324  0.5645 -0.5649
 7364TIP3   OH222052   5.902   0.388   5.277 -0.2961 -0.3455  0.7363
 7364TIP3    H122053   5.850   0.463   5.247  3.0949  0.9396 -2.1765
 7364TIP3    H222054   5.930   0.412   5.365 -1.3666  0.6408  0.8252
 7365TIP3   OH222055   3.829   3.950   2.745  0.1549  0.4773 -0.0167
 7365TIP3    H122056   3.749   3.911   2.782 -0.1252  1.8428  0.8473
 7365TIP3    H222057   3.861   3.884   2.683 -2.1399  0.2679 -1.0437
 7366TIP3   OH222058   1.011   5.144   5.978  0.1022 -0.2360  0.1567
 7366TIP3    H122059   0.943   5.107   6.035 -1.0896  1.1681 -0.3155
 7366TIP3    H222060   1.050   5.215   6.030 -1.0124  1.0721 -0.7657
 7367TIP3   OH222061   0.402   5.536   5.387 -0.2385  0.4738  0.2206
 7367TIP3    H122062   0.405   5.552   5.293 -0.6509 -0.8999 -0.0308
 7367TIP3    H222063   0.370   5.619   5.424 -1.4356  0.5665 -0.9743
 7368TIP3   OH222064   1.247   6.188   4.718  0.0434 -0.3990 -0.8172
 7368TIP3    H122065   1.159   6.152   4.712 -0.7016  1.6652 -3.2166
 7368TIP3    H222066   1.293   6.130   4.779 -2.5071 -2.3962 -0.7233
 7369TIP3   OH222067   6.366   1.991   0.554  1.0658 -0.0532  0.4533
 7369TIP3    H122068   6.453   1.990   0.513  0.6100  0.7876 -0.5401
 7369TIP3    H222069   6.385   1.978   0.647  2.0563 -2.5380 -0.0365
 7370TIP3   OH222070   3.663   5.047   5.278  0.1854  0.4066 -0.1060
 7370TIP3    H122071   3.583   5.079   5.238 -0.7836 -1.3761  0.3458
 7370TIP3    H222072   3.707   4.998   5.208 -0.7609 -1.4201  0.5624
 7371TIP3   OH222073   5.353   3.355   0.621 -0.5078  0.2340 -0.2723
 7371TIP3    H122074   5.284   3.330   0.560 -1.2330  1.0314  0.2037
 7371TIP3    H222075   5.382   3.441   0.590 -0.4730  0.3776  0.1541
 7372TIP3   OH222076   1.794   3.724   4.167 -0.4760  0.0154  0.3193
 7372TIP3    H122077   1.865   3.681   4.216  1.0270  3.7588  1.5622
 7372TIP3    H222078   1.832   3.741   4.081 -0.1228  1.3471  0.7383
 7373TIP3   OH222079   1.600   4.912   3.909  0.0254  0.3715 -1.0515
 7373TIP3    H122080   1.635   4.890   3.823 -0.3995  0.8363 -1.3429
 7373TIP3    H222081   1.603   5.008   3.913  0.7889  0.3234 -0.2342
 7374TIP3   OH222082   6.533   1.710   3.493  0.6002  0.1116  0.0777
 7374TIP3    H122083   6.516   1.616   3.495 -0.9506  0.3981  1.6833
 7374TIP3    H222084   6.548   1.733   3.585  0.9378  1.4332 -0.3084
 7375TIP3   OH222085   3.492   5.880   1.551 -0.1126  0.4038  0.2140
 7375TIP3    H122086   3.514   5.928   1.470 -0.8428  0.7166  0.1933
 7375TIP3    H222087   3.535   5.929   1.620 -0.5419  0.8847  0.1481
 7376TIP3   OH222088   7.698   4.321   1.404  0.2451 -0.9598 -0.2303
 7376TIP3    H122089   7.626   4.382   1.420 -0.0606 -0.7437 -2.2826
 7376TIP3    H222090   7.721   4.287   1.491 -1.1243  0.3191  0.6548
 7377TIP3   OH222091   3.137   6.279   4.922  0.9077  0.4200  0.2739
 7377TIP3    H122092   3.232   6.285   4.915  1.0151  0.7327  1.7675
 7377TIP3    H222093   3.104   6.343   4.859  1.7210  1.6566  1.0796
 7378TIP3   OH222094   6.722   3.322   0.027  0.6147  0.1487  0.1305
 7378TIP3    H122095   6.739   3.254  -0.039 -0.4717 -1.1752  1.1887
 7378TIP3    H222096   6.627   3.317   0.042  0.8000  0.6682  1.5331
 7379TIP3   OH222097   5.101   6.515   5.374  0.0296 -0.1519 -0.5104
 7379TIP3    H122098   5.184   6.544   5.338  0.5918  0.2220  1.0483
 7379TIP3    H222099   5.090   6.567   5.454 -0.4907 -1.9473  0.6201
 7380TIP3   OH222100   5.949   0.902   6.307  0.8888  0.1268  0.3481
 7380TIP3    H122101   5.920   0.956   6.234  0.1287  0.2267  0.7265
 7380TIP3    H222102   5.950   0.813   6.272 -0.2591  0.0739  0.4584
 7381TIP3   OH222103   1.725   6.804   5.357  0.3363  0.3959  0.2070
 7381TIP3    H122104   1.711   6.828   5.449  0.4613  0.0899  0.3079
 7381TIP3    H222105   1.664   6.859   5.308  0.6414  0.9378  0.4329
 7382TIP3   OH222106   1.566   3.156   6.009 -0.4756 -0.5578 -0.2080
 7382TIP3    H122107   1.563   3.069   6.049  0.8896 -0.8693 -0.7302
 7382TIP3    H222108   1.549   3.217   6.081 -1.5460 -1.2581  0.1415
 7383TIP3   OH222109   2.724   5.136   2.537 -0.3879  0.1873 -0.4716
 7383TIP3    H122110   2.805   5.160   2.582 -1.7745  2.0935  1.1108
 7383TIP3    H222111   2.752   5.078   2.466  2.4312  1.3591 -0.3826
 7384TIP3   OH222112   1.415   7.097   1.126  0.3530  0.3697  0.3336
 7384TIP3    H122113   1.453   7.115   1.212 -0.5185  0.0954  0.7756
 7384TIP3    H222114   1.463   7.154   1.066  2.0081 -0.5216  0.7630
 7385TIP3   OH222115   2.515   6.328   4.481 -0.3116 -0.8619 -0.6694
 7385TIP3    H122116   2.510   6.329   4.385 -1.3055  1.4243 -0.6204
 7385TIP3    H222117   2.425   6.313   4.510 -0.0804 -1.1409 -0.0796
 7386TIP3   OH222118   3.087   0.204   6.163  0.1305  0.5384 -0.0738
 7386TIP3    H122119   3.039   0.159   6.233  0.5800 -1.9145 -1.2946
 7386TIP3    H222120   3.033   0.192   6.085  1.4160  0.0529 -0.9106
 7387TIP3   OH222121   5.324   2.437   0.194 -0.1729  0.6237 -0.3021
 7387TIP3    H122122   5.385   2.487   0.248  0.0889 -0.5139  0.4717
 7387TIP3    H222123   5.335   2.346   0.224 -0.9087  0.1612 -1.4274
 7388TIP3   OH222124   1.346   5.402   4.489 -0.0881  0.0274 -0.5074
 7388TIP3    H122125   1.378   5.329   4.542  2.1145  1.3571  0.0299
 7388TIP3    H222126   1.339   5.366   4.401  1.8961 -0.6043 -0.4299
 7389TIP3   OH222127   4.278   6.670   3.012 -0.4252 -0.9124 -0.2656
 7389TIP3    H122128   4.339   6.682   2.939 -0.8642  0.0007 -0.4926
 7389TIP3    H222129   4.302   6.739   3.074 -0.3103 -1.4389  0.2821
 7390TIP3   OH222130   2.484   5.124   4.211  0.3090  0.0498 -0.4342
 7390TIP3    H122131   2.389   5.137   4.211  0.2400 -0.4359 -0.1467
 7390TIP3    H222132   2.520   5.207   4.180 -0.1113  0.9763  1.4688
 7391TIP3   OH222133   1.872   5.400   2.431  0.0490 -0.8522  0.1070
 7391TIP3    H122134   1.957   5.357   2.423  0.6070  0.1309  0.6208
 7391TIP3    H222135   1.892   5.484   2.473 -1.4306 -1.4501  2.0568
 7392TIP3   OH222136   1.168   3.784   3.112 -0.7678 -0.0166  0.3775
 7392TIP3    H122137   1.198   3.733   3.187 -1.1071 -0.0652  0.4781
 7392TIP3    H222138   1.229   3.759   3.042 -1.6550 -1.4958  0.0945
 7393TIP3   OH222139   6.827   2.043   1.283  0.4545 -0.2463 -0.4745
 7393TIP3    H122140   6.816   1.952   1.255  0.5285 -0.2151 -0.5993
 7393TIP3    H222141   6.806   2.041   1.377  5.6515 -1.3934  0.8199
 7394TIP3   OH222142   2.072   5.924   2.635  0.7075 -0.5096 -0.0990
 7394TIP3    H122143   2.069   5.947   2.542 -0.5188 -0.3142 -0.0106
 7394TIP3    H222144   2.162   5.894   2.649  1.9503  2.8120 -0.5267
 7395TIP3   OH222145   3.481   6.114   5.517  0.0854 -0.0400 -0.6408
 7395TIP3    H122146   3.416   6.179   5.542  1.4528  1.2426 -0.4105
 7395TIP3    H222147   3.456   6.035   5.566 -2.1668 -0.0362 -1.6997
 7396TIP3   OH222148   1.955   5.738   4.951 -0.3955 -0.4547 -0.4032
 7396TIP3    H122149   1.886   5.715   4.889  0.7429  0.0286 -1.8603
 7396TIP3    H222150   2.011   5.799   4.904  0.3031  0.1920  1.2169
 7397TIP3   OH222151   0.520   5.162   5.862 -0.6074  0.6923 -0.6900
 7397TIP3    H122152   0.505   5.250   5.827 -2.0644 -0.0548 -2.0274
 7397TIP3    H222153   0.555   5.177   5.950  1.6705  2.6009 -1.8768
 7398TIP3   OH222154   2.406   5.917   5.466 -0.0659 -0.3990  0.5296
 7398TIP3    H122155   2.438   5.999   5.503  0.0289 -0.3281  0.2861
 7398TIP3    H222156   2.345   5.943   5.397  1.2704 -0.5258 -0.7158
 7399TIP3   OH222157   0.498   6.815   6.281 -0.5292  0.2130  0.9261
 7399TIP3    H122158   0.503   6.743   6.344  1.1086  0.6091  1.2754
 7399TIP3    H222159   0.544   6.783   6.203 -0.0624  0.7537  0.9737
 7400TIP3   OH222160   0.656   5.291   3.913  0.2962 -0.0608 -0.1033
 7400TIP3    H122161   0.641   5.196   3.908 -2.2416  0.4422 -3.0009
 7400TIP3    H222162   0.582   5.330   3.868  2.6511  3.2325 -1.3405
 7401TIP3   OH222163   1.526   5.271   4.712  0.3580 -0.2378 -0.2311
 7401TIP3    H122164   1.614   5.274   4.750  0.4366 -0.0284 -0.4296
 7401TIP3    H222165   1.490   5.188   4.743  0.4445 -0.0984  0.2558
 7402TIP3   OH222166   0.048   4.579   3.194 -0.4532 -0.1322 -0.2644
 7402TIP3    H122167   0.048   4.614   3.284  1.8066 -0.1726 -0.2183
 7402TIP3    H222168   0.013   4.490   3.204 -1.4836  0.3325  0.3723
 7403TIP3   OH222169   0.530   3.659   5.813 -0.0472  0.2140  0.2068
 7403TIP3    H122170   0.510   3.745   5.850 -0.6770 -0.3257  1.1333
 7403TIP3    H222171   0.505   3.667   5.721  0.4316  1.1952  0.1544
 7404TIP3   OH222172   2.996   4.260   5.551  0.5320  0.3062  0.1178
 7404TIP3    H122173   2.998   4.165   5.562  0.6114  0.3138  0.1652
 7404TIP3    H222174   2.939   4.273   5.475  0.4610  0.2256  0.1570
 7405TIP3   OH222175   3.899   6.301   4.582 -0.5398  0.7407 -0.4183
 7405TIP3    H122176   3.892   6.335   4.671  0.5127 -1.4037  0.5210
 7405TIP3    H222177   3.982   6.337   4.549 -0.7825  1.2908 -0.4365
 7406TIP3   OH222178   2.306   5.904   2.754  0.4271  0.1596  0.1614
 7406TIP3    H122179   2.248   5.927   2.826 -0.3020 -0.0347 -0.3594
 7406TIP3    H222180   2.356   5.829   2.786  1.3798  1.1904  1.1179
 7407TIP3   OH222181   3.196   0.614   5.606 -0.4961 -0.7306  0.8107
 7407TIP3    H122182   3.164   0.555   5.538  1.2496  2.0166 -2.5256
 7407TIP3    H222183   3.130   0.682   5.612  0.3394  0.1208  0.3965
 7408TIP3   OH222184   1.032   6.168   6.078 -0.3950 -0.4501 -0.1528
 7408TIP3    H122185   0.946   6.127   6.088  0.0749 -1.7299 -1.2168
 7408TIP3    H222186   1.051   6.162   5.985  0.5854  0.3752 -0.0183
 7409TIP3   OH222187   1.182   4.757   4.597  0.5050  0.4888  0.5299
 7409TIP3    H122188   1.156   4.846   4.571  0.7783  0.3448 -0.2532
 7409TIP3    H222189   1.135   4.700   4.536  1.1640  0.1433  0.3502
 7410TIP3   OH222190   3.318   5.404   4.560 -0.1344  0.7042 -0.3566
 7410TIP3    H122191   3.271   5.347   4.621  0.4091  1.7343  1.0476
 7410TIP3    H222192   3.384   5.347   4.520 -2.0835 -0.5941 -1.8431
 7411TIP3   OH222193   5.235   0.413   5.535 -0.1014 -0.4364  0.3664
 7411TIP3    H122194   5.310   0.396   5.477  0.4325 -0.5331  1.0784
 7411TIP3    H222195   5.180   0.473   5.485  0.2946 -0.6152 -0.2960
 7412TIP3   OH222196   7.617   5.561   4.907 -0.3507  0.9901  0.6450
 7412TIP3    H122197   7.632   5.647   4.868  0.5001  0.2627 -0.6840
 7412TIP3    H222198   7.695   5.510   4.883 -1.4057 -0.5166  0.3647
 7413TIP3   OH222199   0.378   6.982   5.263  0.6563 -0.0951 -0.7368
 7413TIP3    H122200   0.300   6.998   5.317  1.1796 -0.5178  0.1684
 7413TIP3    H222201   0.414   7.070   5.249 -1.2916  0.3558 -3.2136
 7414TIP3   OH222202   1.184   5.159   4.787 -0.8627 -0.4974 -0.1303
 7414TIP3    H122203   1.265   5.111   4.804 -0.3248  0.5697  0.3500
 7414TIP3    H222204   1.140   5.108   4.719 -0.3632 -1.7306  0.4580
 7415TIP3   OH222205   3.753   2.452   5.824  0.2174 -0.7080  0.2033
 7415TIP3    H122206   3.772   2.536   5.867  0.0765 -0.5914  0.0408
 7415TIP3    H222207   3.748   2.389   5.896 -0.4044 -0.4435  0.3991
 7416TIP3   OH222208   1.651   4.940   3.326  0.6502 -0.1615 -0.0175
 7416TIP3    H122209   1.688   5.028   3.323 -0.9655  0.6776  2.6398
 7416TIP3    H222210   1.588   4.939   3.254  0.4675  1.0070  0.1031
 7417TIP3   OH222211   1.247   7.327   4.468 -0.3891 -0.3490  0.1161
 7417TIP3    H122212   1.244   7.291   4.379  0.9330  0.3295 -0.2098
 7417TIP3    H222213   1.250   7.251   4.525 -1.9516 -0.8112 -0.3707
 7418TIP3   OH222214   1.833   5.096   4.097  0.9455  0.2724  0.3493
 7418TIP3    H122215   1.837   5.069   4.005 -2.7150  1.7681 -0.3090
 7418TIP3    H222216   1.923   5.122   4.117  1.6488  0.8589 -3.1085
 7419TIP3   OH222217   6.841   6.261   3.165 -0.0848  0.0744  0.2179
 7419TIP3    H122218   6.872   6.190   3.221  0.8115  0.6028  0.4095
 7419TIP3    H222219   6.837   6.337   3.222 -0.2318  0.3674 -0.1774
 7420TIP3   OH222220   0.205   6.133   2.834  0.1045 -0.0220  0.0728
 7420TIP3    H122221   0.179   6.049   2.872 -0.5599  0.2042  0.1054
 7420TIP3    H222222   0.288   6.113   2.790 -0.1901 -0.7708 -0.1677
 7421TIP3   OH222223   7.316   6.514   5.649 -0.4035 -0.0234  0.5076
 7421TIP3    H122224   7.385   6.544   5.707 -1.4482  0.2232  1.6267
 7421TIP3    H222225   7.295   6.426   5.679 -0.2941 -0.2667 -0.1037
 7422TIP3   OH222226   0.175   6.130   4.979 -0.2946  0.8523 -0.1855
 7422TIP3    H122227   0.187   6.138   5.074 -0.7844  2.0297 -0.2163
 7422TIP3    H222228   0.082   6.107   4.969 -0.1119  0.1688 -0.3603
 7423TIP3   OH222229   0.566   6.580   4.067  0.2559  0.1336  0.3312
 7423TIP3    H122230   0.619   6.500   4.074 -0.7958 -0.5406  0.7633
 7423TIP3    H222231   0.546   6.603   4.158  0.0218  0.5151  0.1843
 7424TIP3   OH222232   2.549   5.608   2.005 -0.1719 -0.4565 -0.1786
 7424TIP3    H122233   2.454   5.594   1.994 -0.5095  1.9677 -0.6424
 7424TIP3    H222234   2.559   5.636   2.096  0.1515 -1.1233 -0.0093
 7425TIP3   OH222235   4.058   1.615   4.209 -0.1284 -0.5027 -0.0054
 7425TIP3    H122236   4.026   1.525   4.205 -0.6985 -0.4348  2.1714
 7425TIP3    H222237   4.109   1.626   4.129 -0.5868 -2.5551 -0.6133
 7426TIP3   OH222238   1.486   6.391   4.123  0.3946 -0.0993 -0.5160
 7426TIP3    H122239   1.458   6.331   4.193  1.6837  0.5466  0.5752
 7426TIP3    H222240   1.491   6.336   4.045 -1.8668 -0.6559 -0.3035
 7427TIP3   OH222241   1.536   6.632   5.573  0.3283  0.3563  0.7079
 7427TIP3    H122242   1.617   6.592   5.604  1.7742  2.3636 -0.3199
 7427TIP3    H222243   1.548   6.726   5.591 -1.7927  0.6633  0.5821
 7428TIP3   OH222244   5.876   4.548   1.220 -0.0055  0.0450  0.3900
 7428TIP3    H122245   5.799   4.491   1.219  1.3213 -1.8242  1.9454
 7428TIP3    H222246   5.844   4.631   1.254 -1.0889 -1.1296  2.3431
 7429TIP3   OH222247   0.253   5.073   4.993 -0.3501  0.1229  0.3043
 7429TIP3    H122248   0.274   5.166   4.980 -0.2104 -0.0165 -0.4666
 7429TIP3    H222249   0.306   5.048   5.069  1.7504 -0.0220 -1.1468
 7430TIP3   OH222250   0.360   5.685   4.593 -0.0372  0.0245  1.0444
 7430TIP3    H122251   0.409   5.722   4.666  3.0858  0.2768 -1.0517
 7430TIP3    H222252   0.335   5.760   4.540  0.8664 -0.3779  0.0212
 7431TIP3   OH222253   3.297   7.278   5.102  0.0319 -0.6176 -0.0068
 7431TIP3    H122254   3.252   7.361   5.115 -0.0422 -0.2593 -2.3110
 7431TIP3    H222255   3.270   7.223   5.176 -1.7981  0.5887  0.2376
 7432TIP3   OH222256   3.686   4.930   3.806  0.4413  0.6111 -0.6927
 7432TIP3    H122257   3.778   4.928   3.833  0.6586  0.7004 -1.4174
 7432TIP3    H222258   3.656   4.840   3.819  1.1298  0.1493 -2.1325
 7433TIP3   OH222259   0.599   2.798   0.137  0.5459 -0.1391 -0.2581
 7433TIP3    H122260   0.555   2.817   0.220  1.8905 -0.2459  0.4858
 7433TIP3    H222261   0.571   2.709   0.115 -0.9828  0.4265 -0.6943
 7434TIP3   OH222262   4.998   6.664   2.912 -0.7931  0.1806  0.4066
 7434TIP3    H122263   5.044   6.736   2.868 -0.2977  0.7349  1.8017
 7434TIP3    H222264   5.019   6.587   2.860 -1.4594  1.0586 -1.2030
 7435TIP3   OH222265   5.635   2.406   0.378 -0.5986 -0.5413 -0.1818
 7435TIP3    H122266   5.586   2.370   0.452 -0.6964 -0.0753 -0.0153
 7435TIP3    H222267   5.577   2.473   0.342 -0.7121 -1.0370 -0.9251
 7436TIP3   OH222268   2.855   5.519   3.120 -0.1643 -0.4603 -0.3351
 7436TIP3    H122269   2.923   5.490   3.181 -1.2021 -0.8351  0.6759
 7436TIP3    H222270   2.828   5.440   3.075 -0.0454 -0.3360 -0.6270
 7437TIP3   OH222271   2.815   0.037   5.081 -0.2574  0.3659  0.1257
 7437TIP3    H122272   2.896   0.088   5.078  0.6154 -1.0350 -2.2070
 7437TIP3    H222273   2.816  -0.006   5.166  0.5846  1.7395  0.8119
 7438TIP3   OH222274   1.877   5.815   2.935 -0.0264  0.9029  0.2562
 7438TIP3    H122275   1.820   5.750   2.976  0.3706  0.1869 -0.3185
 7438TIP3    H222276   1.961   5.805   2.980  0.1429  0.7610 -0.0897
 7439TIP3   OH222277   0.281   6.830   3.930  0.8418  0.0690  0.0523
 7439TIP3    H122278   0.195   6.842   3.891  1.3033  0.6419 -0.8162
 7439TIP3    H222279   0.342   6.870   3.867  1.7069 -0.0439  0.8006
 7440TIP3   OH222280   7.288   5.416   5.150 -0.6298 -0.4210  0.3396
 7440TIP3    H122281   7.330   5.497   5.179  0.1194 -0.3993 -0.7875
 7440TIP3    H222282   7.218   5.402   5.213 -2.1784  2.2609 -0.7158
 7441TIP3   OH222283   3.323   4.262   2.997  0.5168 -0.2965  0.2055
 7441TIP3    H122284   3.247   4.270   2.939 -0.1369  0.6497  1.1681
 7441TIP3    H222285   3.381   4.333   2.970 -1.5897  2.7537  3.3051
 7442TIP3   OH222286   4.807   5.581   5.043 -0.2041  0.8025  0.1104
 7442TIP3    H122287   4.846   5.646   4.985  1.8918 -0.2344  0.3215
 7442TIP3    H222288   4.717   5.572   5.011  0.1189  2.2392 -1.2543
 7443TIP3   OH222289   2.434   6.241   3.001  0.1099  0.7774  0.4290
 7443TIP3    H122290   2.462   6.153   3.028 -1.9273  0.0018  0.1247
 7443TIP3    H222291   2.499   6.268   2.936 -0.3946 -1.3883 -1.0319
 7444TIP3   OH222292   2.886   4.268   3.802 -0.2573 -0.3871  0.2423
 7444TIP3    H122293   2.882   4.231   3.891 -0.3603  0.5791  0.6444
 7444TIP3    H222294   2.803   4.243   3.762  0.8283 -3.0663 -0.4986
 7445TIP3   OH222295   6.968   5.305   4.559 -0.0606 -0.4669 -0.7223
 7445TIP3    H122296   6.982   5.218   4.596 -0.1218 -0.7678 -1.3941
 7445TIP3    H222297   7.030   5.311   4.487 -0.3261 -0.1057 -0.9246
 7446TIP3   OH222298   7.764   3.889   2.241  0.8535 -0.1642 -0.1224
 7446TIP3    H122299   7.722   3.851   2.318  2.1902  0.6285  1.0111
 7446TIP3    H222300   7.746   3.826   2.171  1.5991 -2.0892  1.3518
 7447TIP3   OH222301   0.449   5.803   4.843 -0.2999 -0.0632  0.1719
 7447TIP3    H122302   0.391   5.869   4.881 -0.6886 -0.5837  0.5069
 7447TIP3    H222303   0.504   5.775   4.917  1.3633  1.4479 -0.4674
 7448TIP3   OH222304   0.222   3.889   3.087 -0.3554 -0.1804 -0.0591
 7448TIP3    H122305   0.231   3.980   3.116 -0.4902 -0.0708 -0.3597
 7448TIP3    H222306   0.284   3.881   3.014  0.0035 -0.4635  0.2731
 7449TIP3   OH222307   2.835   5.705   5.184  0.4521 -0.1896 -0.2397
 7449TIP3    H122308   2.773   5.731   5.115 -1.9232 -2.4623  0.9666
 7449TIP3    H222309   2.820   5.768   5.255  0.7094  0.2724 -0.5924
 7450TIP3   OH222310   5.829   5.256   4.075 -0.4859  0.1672 -0.2077
 7450TIP3    H122311   5.883   5.229   4.150  0.4107  1.2417 -0.4415
 7450TIP3    H222312   5.795   5.175   4.039  0.1520 -0.4586  0.5744
 7451TIP3   OH222313   0.237   6.451   0.982  0.0783  0.3001 -0.5964
 7451TIP3    H122314   0.249   6.362   0.947 -0.8504 -0.9036  2.0351
 7451TIP3    H222315   0.259   6.508   0.909 -0.7065 -2.1189 -2.8098
 7452TIP3   OH222316   2.327   6.884   5.348  0.2654  0.0032 -0.1470
 7452TIP3    H122317   2.365   6.878   5.260  0.9655 -1.0921  0.2256
 7452TIP3    H222318   2.245   6.932   5.335  1.4070  1.7681 -1.0806
 7453TIP3   OH222319   0.726   5.068   4.340 -0.3854 -0.5224  0.0195
 7453TIP3    H122320   0.761   4.981   4.324  0.8254 -0.2082  0.8148
 7453TIP3    H222321   0.799   5.115   4.381 -1.0130  0.8641 -0.4198
 7454TIP3   OH222322   2.138   0.613   5.856  0.3999  0.1761 -0.1545
 7454TIP3    H122323   2.206   0.672   5.887  0.7512  0.9175 -2.2452
 7454TIP3    H222324   2.101   0.574   5.936  1.6247  1.5799  1.1209
 7455TIP3   OH222325   0.092   5.866   5.695 -0.0098 -0.3455 -0.7793
 7455TIP3    H122326   0.079   5.897   5.605 -1.3913 -0.9833 -0.8018
 7455TIP3    H222327   0.029   5.796   5.706  0.5271 -0.6406  0.5275
 7456TIP3   OH222328   0.043   5.220   5.788 -0.2320 -0.5526  0.5932
 7456TIP3    H122329   0.070   5.278   5.717  0.9664 -0.0062  1.4828
 7456TIP3    H222330   0.017   5.139   5.745 -0.6256  0.1771 -0.5560
 7457TIP3   OH222331   7.055   4.036   2.521 -0.2653 -0.0826  0.1401
 7457TIP3    H122332   7.023   4.058   2.609 -0.8349  2.5403 -0.7076
 7457TIP3    H222333   6.984   4.061   2.462  0.3365 -1.3373 -1.1431
 7458TIP3   OH222334   2.106   4.431   2.641  0.5400 -0.0764 -0.2104
 7458TIP3    H122335   2.138   4.346   2.610  1.2967 -0.1682  0.7833
 7458TIP3    H222336   2.123   4.491   2.569  0.2062 -0.7214 -0.8375
 7459TIP3   OH222337   2.191   7.117   5.577  0.3575 -0.0629 -0.0843
 7459TIP3    H122338   2.281   7.144   5.589  0.0321  0.1967  2.0002
 7459TIP3    H222339   2.171   7.138   5.486  1.1142  3.6892  0.5522
 7460TIP3   OH222340   0.060   5.771   4.352  0.6706  0.1149  0.5653
 7460TIP3    H122341  -0.005   5.777   4.282 -1.0953  1.0639  2.2422
 7460TIP3    H222342   0.103   5.857   4.352  0.1006  0.4048  1.1695
 7461TIP3   OH222343   5.419   2.142   0.278  0.4576 -0.2946 -0.3164
 7461TIP3    H122344   5.505   2.129   0.239 -0.1476 -1.7447 -1.1972
 7461TIP3    H222345   5.436   2.152   0.371  1.4951 -1.6290 -0.3481
 7462TIP3   OH222346   0.367   6.085   3.596  0.1136  0.5342 -0.1364
 7462TIP3    H122347   0.382   6.177   3.576  0.1851  0.6702  0.5203
 7462TIP3    H222348   0.381   6.039   3.513  0.0482  1.1183 -0.4673
 7463TIP3   OH222349   7.341   5.465   0.713 -0.5833 -0.0488 -0.1753
 7463TIP3    H122350   7.311   5.536   0.770 -1.2154 -0.8809  0.5395
 7463TIP3    H222351   7.396   5.508   0.648 -0.3655  1.0004  0.6862
 7464TIP3   OH222352   1.013   5.166   3.221 -0.4730 -0.4083  0.6586
 7464TIP3    H122353   1.066   5.109   3.278  1.3256  0.0810 -0.4712
 7464TIP3    H222354   1.029   5.254   3.254 -1.3714 -0.3416  0.9207
 7465TIP3   OH222355   4.137   1.383   5.759  0.1666  0.4650 -0.1625
 7465TIP3    H122356   4.136   1.407   5.666  1.0091 -0.2408 -0.3657
 7465TIP3    H222357   4.165   1.291   5.759 -0.7238  0.1879  0.7322
 7466TIP3   OH222358   0.772   5.935   4.908 -0.5630 -0.0322 -0.3912
 7466TIP3    H122359   0.774   5.858   4.851 -3.1361 -1.2441  1.0221
 7466TIP3    H222360   0.692   5.982   4.881 -1.5578 -0.3769  1.8270
 7467TIP3   OH222361   2.440   5.057   2.968 -0.0565 -0.0914  0.1981
 7467TIP3    H122362   2.472   5.129   3.022  1.8712 -1.1644  0.5146
 7467TIP3    H222363   2.473   5.076   2.880  0.3856 -0.5468  0.2655
 7468TIP3   OH222364   4.381   0.052   4.479 -0.4529 -0.3480  1.1210
 7468TIP3    H122365   4.348  -0.029   4.440 -0.2340  0.1284 -0.0922
 7468TIP3    H222366   4.390   0.113   4.405 -2.2522  1.3484  2.2518
 7469TIP3   OH222367   1.246   3.880   3.649  0.2217 -0.1986  0.2295
 7469TIP3    H122368   1.168   3.905   3.698  0.2747 -0.0764  0.2520
 7469TIP3    H222369   1.230   3.789   3.624 -0.3477  0.1151 -0.5719
 7470TIP3   OH222370   4.485   2.194   4.541  0.2344  0.4211 -0.5011
 7470TIP3    H122371   4.443   2.121   4.586  0.2455  1.4437  1.1850
 7470TIP3    H222372   4.476   2.268   4.600  0.5970  1.7027 -2.0180
 7471TIP3   OH222373   6.265   0.712   2.026  0.2984 -0.6781  0.1524
 7471TIP3    H122374   6.277   0.621   1.998 -0.5155 -0.9654  0.7340
 7471TIP3    H222375   6.263   0.761   1.944  0.8476 -1.1632 -0.1630
 7472TIP3   OH222376   4.093   2.429   2.315 -0.5981 -0.0103  0.2429
 7472TIP3    H122377   4.006   2.458   2.340 -0.1845  0.6867  0.9120
 7472TIP3    H222378   4.147   2.448   2.392  0.4995  1.2031 -0.7951
 7473TIP3   OH222379   1.459   6.383   4.878  0.1018 -0.0529 -0.8038
 7473TIP3    H122380   1.477   6.342   4.963 -2.8211  1.3772  0.5826
 7473TIP3    H222381   1.485   6.474   4.890 -1.5573  0.4628 -0.9707
 7474TIP3   OH222382   2.908   5.612   6.029 -0.0038 -0.6077  0.0596
 7474TIP3    H122383   2.919   5.611   6.124  1.3254  0.0111 -0.0797
 7474TIP3    H222384   2.960   5.537   5.998  1.3569  0.4777 -0.3427
 7475TIP3   OH222385   2.748   5.301   4.625 -0.7148 -0.1572  0.2288
 7475TIP3    H122386   2.829   5.342   4.656 -0.0206 -1.8019  0.6342
 7475TIP3    H222387   2.755   5.305   4.530  0.4013 -1.3527  0.2539
 7476TIP3   OH222388   2.628   6.453   6.323 -0.3734 -0.1446 -0.2968
 7476TIP3    H122389   2.583   6.530   6.357 -0.2147 -0.8031  1.4557
 7476TIP3    H222390   2.578   6.427   6.246 -1.2032  0.9139 -0.1129
 7477TIP3   OH222391   5.590   2.454   3.020 -0.4184 -0.6946 -0.3749
 7477TIP3    H122392   5.523   2.424   2.958 -2.7300  0.9593  1.2368
 7477TIP3    H222393   5.602   2.547   2.998  0.2016 -0.5897  0.3983
 7478TIP3   OH222394   1.838   4.916   5.507  0.4056 -0.5350 -0.4121
 7478TIP3    H122395   1.870   5.000   5.541 -1.5242 -0.6605  1.8065
 7478TIP3    H222396   1.782   4.881   5.576 -0.6519 -2.6021 -2.2332
 7479TIP3   OH222397   7.047   4.980   3.964 -0.1116  0.0338 -0.3135
 7479TIP3    H122398   6.981   5.027   3.914 -0.4533  1.8482  1.8039
 7479TIP3    H222399   6.998   4.923   4.022  0.1986  0.4914  0.4060
 7480TIP3   OH222400   0.036   6.387   4.402 -0.0845  0.9319 -1.3471
 7480TIP3    H122401   0.049   6.453   4.470 -1.0412 -1.4369  1.2371
 7480TIP3    H222402  -0.042   6.416   4.355  0.1279  2.2024 -0.9286
 7481TIP3   OH222403   7.672   2.805   3.584  0.0518  0.3798  0.3429
 7481TIP3    H122404   7.697   2.715   3.602 -0.5326 -0.0072 -0.7300
 7481TIP3    H222405   7.748   2.857   3.610  0.0431 -0.3368  1.8077
 7482TIP3   OH222406   3.757   5.547   4.794  0.8265  0.0535  0.4664
 7482TIP3    H122407   3.830   5.496   4.756 -0.2899 -1.0966 -0.1796
 7482TIP3    H222408   3.754   5.518   4.885  1.1689  0.0920  0.4932
 7483TIP3   OH222409   0.270   0.795   0.393 -0.2719  0.4339 -0.1211
 7483TIP3    H122410   0.340   0.778   0.456  1.2106  0.1760 -1.7886
 7483TIP3    H222411   0.263   0.891   0.392  0.6066  0.5059 -0.5024
 7484TIP3   OH222412   2.982   5.095   5.004  0.2512  0.6999 -0.2733
 7484TIP3    H122413   2.959   5.019   4.950  0.7878  0.7074 -0.5133
 7484TIP3    H222414   2.898   5.134   5.028 -0.0582 -0.3259  0.3544
 7485TIP3   OH222415   1.524   6.185   2.533  0.0751 -0.5000 -0.6897
 7485TIP3    H122416   1.610   6.143   2.535  0.7456  0.8974  0.1619
 7485TIP3    H222417   1.535   6.266   2.582 -2.0440 -0.8816  0.4836
 7486TIP3   OH222418   4.255   1.321   2.583 -0.1405  0.3268 -0.7010
 7486TIP3    H122419   4.332   1.287   2.629  0.6390  1.9019 -0.8044
 7486TIP3    H222420   4.225   1.394   2.638 -1.6484 -0.3788 -0.5879
 7487TIP3   OH222421   0.278   6.398   4.995  1.0362 -0.9654 -0.2514
 7487TIP3    H122422   0.207   6.337   4.974  0.2586  0.5451 -2.1671
 7487TIP3    H222423   0.241   6.457   5.060  0.7998 -0.6692 -0.6554
 7488TIP3   OH222424   2.048   5.247   6.145 -0.0805 -0.0361 -1.0401
 7488TIP3    H122425   2.120   5.197   6.106  0.3815  0.5699 -0.9718
 7488TIP3    H222426   2.088   5.296   6.216 -0.7301 -0.3381 -0.4532
 7489TIP3   OH222427   5.146   0.558   4.141 -0.3484 -0.0965 -0.6530
 7489TIP3    H122428   5.146   0.612   4.062  1.9699 -1.2964 -1.5101
 7489TIP3    H222429   5.202   0.606   4.202 -0.5796 -0.1332 -0.4125
 7490TIP3   OH222430   0.170   7.271   5.331 -0.1637 -0.2552 -0.0780
 7490TIP3    H122431   0.236   7.274   5.399 -0.7430 -1.7811  0.5760
 7490TIP3    H222432   0.097   7.224   5.370 -1.1070  0.2000 -1.2443
 7491TIP3   OH222433   2.886   7.195   5.296  0.2486  0.1662 -0.0956
 7491TIP3    H122434   2.834   7.165   5.221  0.7663  2.2698 -1.3413
 7491TIP3    H222435   2.888   7.120   5.355 -1.6758 -0.9476 -1.3782
 7492TIP3   OH222436   4.096   0.346   0.276  0.2313  0.3250 -0.0325
 7492TIP3    H122437   4.132   0.298   0.351 -0.9303 -1.0270 -0.3124
 7492TIP3    H222438   4.099   0.437   0.303 -0.8210 -0.2035  1.9760
 7493TIP3   OH222439   4.969   7.313   3.677 -0.0420 -0.4310 -0.3402
 7493TIP3    H122440   4.877   7.302   3.703 -0.6353  4.8155  0.3283
 7493TIP3    H222441   5.015   7.333   3.758  1.7143 -2.8080 -0.7096
 7494TIP3   OH222442   1.521   5.364   5.258 -0.0558 -0.4686  0.1295
 7494TIP3    H122443   1.480   5.287   5.297 -1.3246 -0.6215 -1.4810
 7494TIP3    H222444   1.610   5.336   5.237 -0.0273 -1.0198  0.9511
 7495TIP3   OH222445   7.350   3.131   0.216  0.0971  0.2074 -0.1001
 7495TIP3    H122446   7.273   3.074   0.212  0.1159  0.3673 -3.3369
 7495TIP3    H222447   7.319   3.215   0.182  1.1657  0.9457  0.7009
 7496TIP3   OH222448   5.058   6.246   2.921  0.0813 -0.3329  0.5594
 7496TIP3    H122449   5.149   6.256   2.948  0.8238 -0.7084 -1.6877
 7496TIP3    H222450   5.054   6.157   2.884 -1.4371 -0.6807  1.5074
 7497TIP3   OH222451   4.059   4.552   4.016  0.5045  0.1305 -0.4574
 7497TIP3    H122452   4.070   4.459   3.996  1.0942  0.3989 -1.3983
 7497TIP3    H222453   3.966   4.569   4.003 -0.5917 -1.4054  4.3270
 7498TIP3   OH222454   2.970   6.244   6.028  0.1781  0.0043 -0.3699
 7498TIP3    H122455   3.058   6.267   6.058  0.7456 -0.0400 -1.9420
 7498TIP3    H222456   2.947   6.313   5.967 -0.2112 -0.8481 -1.1984
 7499TIP3   OH222457   0.140   5.693   4.917 -0.2036 -0.5154 -0.3323
 7499TIP3    H122458   0.114   5.643   4.839  0.1285  0.4694 -1.0899
 7499TIP3    H222459   0.087   5.773   4.912 -1.4030 -1.1670  1.3518
 7500TIP3   OH222460   2.455   5.485   5.101  0.4046 -0.1719  0.1824
 7500TIP3    H122461   2.371   5.463   5.140  0.7572 -0.7190  0.6382
 7500TIP3    H222462   2.438   5.565   5.051 -0.3735 -0.2619  0.2986
 7501TIP3   OH222463   3.188   6.635   3.689  0.6306  0.5245 -0.2868
 7501TIP3    H122464   3.131   6.625   3.613  0.5960 -1.1190 -0.0609
 7501TIP3    H222465   3.199   6.729   3.698 -1.1166  0.8213 -1.0343
 7502TIP3   OH222466   2.713   3.961   5.621  0.5667  0.1260 -0.1040
 7502TIP3    H122467   2.644   3.897   5.641  1.2604  0.0737  2.3417
 7502TIP3    H222468   2.794   3.909   5.620  1.0478  0.8306  1.2161
 7503TIP3   OH222469   2.851   5.541   4.443  0.1446 -0.0074 -0.8060
 7503TIP3    H122470   2.835   5.464   4.388 -0.0553 -0.7500  0.2856
 7503TIP3    H222471   2.879   5.609   4.381 -1.2610 -0.4735 -1.9974
 7504TIP3   OH222472   2.769   5.234   3.747 -0.0219 -0.3677  0.3760
 7504TIP3    H122473   2.787   5.172   3.819 -0.0385 -0.5211  0.2495
 7504TIP3    H222474   2.855   5.250   3.707  0.0583  0.0856  0.7257
 7505TIP3   OH222475   5.527   4.674   6.263 -0.5807  0.2956 -0.1153
 7505TIP3    H122476   5.436   4.692   6.288 -0.0998  1.0734  1.0801
 7505TIP3    H222477   5.564   4.759   6.242 -0.3958 -0.1281 -1.6048
 7506TIP3   OH222478   5.344   0.047   6.101 -0.1278 -0.2100 -0.4153
 7506TIP3    H122479   5.395   0.058   6.181 -1.1957 -1.4652  0.4489
 7506TIP3    H222480   5.258   0.085   6.122  0.0288  0.7429 -1.4431
 7507TIP3   OH222481   4.768   4.715   5.412  0.5681  0.1852  0.0512
 7507TIP3    H122482   4.762   4.790   5.472 -1.3516 -0.9259  1.3148
 7507TIP3    H222483   4.735   4.747   5.329 -2.1735  0.2357  1.1191
 7508TIP3   OH222484   1.793   6.481   4.968  0.3910 -0.1630  0.9795
 7508TIP3    H122485   1.877   6.525   4.980 -0.0852  2.0034 -2.8531
 7508TIP3    H222486   1.806   6.394   5.006  3.8960  0.5692  1.6449
 7509TIP3   OH222487   2.639   4.752   4.619  0.1611 -0.1929  0.4500
 7509TIP3    H122488   2.561   4.697   4.607 -0.8605  1.7409 -2.0355
 7509TIP3    H222489   2.641   4.808   4.542  4.4040 -0.6150  0.1534
 7510TIP3   OH222490   0.268   3.024   3.950 -0.1719 -0.0686 -0.3531
 7510TIP3    H122491   0.185   3.026   3.998  0.4345 -1.0266  0.7576
 7510TIP3    H222492   0.277   2.934   3.921  0.3148  0.1098 -0.7596
 7511TIP3   OH222493   2.871   4.876   4.739 -0.2436 -0.6922  0.2733
 7511TIP3    H122494   2.832   4.812   4.798 -0.3521  0.2085  1.1870
 7511TIP3    H222495   2.804   4.943   4.727  0.7571  0.5402  1.3410
 7512TIP3   OH222496   4.050   6.933   5.322  0.7080 -0.7496  0.0577
 7512TIP3    H122497   4.123   6.923   5.383  0.4232  0.0292  0.5434
 7512TIP3    H222498   4.091   6.948   5.237  1.1080 -1.5782  0.1021
 7513TIP3   OH222499   3.668   3.897   4.958 -0.1424 -0.1456  0.1478
 7513TIP3    H122500   3.605   3.845   4.908 -0.5244 -0.3101  0.7814
 7513TIP3    H222501   3.623   3.979   4.976  0.5174  0.4658 -0.9737
 7514TIP3   OH222502   0.158   5.470   5.064  0.0661  0.1691  0.0662
 7514TIP3    H122503   0.249   5.482   5.090  0.5567  0.1725 -1.6038
 7514TIP3    H222504   0.133   5.554   5.024  0.0917 -0.6536 -1.6874
 7515TIP3   OH222505   5.559   3.264   0.450 -0.2856  0.7277  0.2713
 7515TIP3    H122506   5.501   3.265   0.526  1.2912 -0.7791  1.5302
 7515TIP3    H222507   5.551   3.176   0.414  1.1246  0.5252  0.4078
 7516TIP3   OH222508   0.734   6.417   5.571 -0.1989  0.0439  0.1187
 7516TIP3    H122509   0.655   6.372   5.601 -1.0057  1.2242 -0.2034
 7516TIP3    H222510   0.777   6.354   5.514 -0.1918 -1.1101  1.3793
 7517TIP3   OH222511   4.317   0.388   4.235  0.2447  0.4031  0.1777
 7517TIP3    H122512   4.362   0.402   4.319  1.2345 -0.9531 -0.1165
 7517TIP3    H222513   4.224   0.391   4.258  0.4956  0.9256  1.1809
 7518TIP3   OH222514   6.826   0.340   3.935 -0.0283  0.6422  0.2100
 7518TIP3    H122515   6.821   0.416   3.993 -2.9474  0.4414  0.3179
 7518TIP3    H222516   6.866   0.272   3.988 -1.7208  0.7629  1.6979
 7519TIP3   OH222517   0.954   7.235   4.192  0.0331 -0.3451 -0.5253
 7519TIP3    H122518   1.016   7.163   4.181 -1.1766 -1.4063 -0.5182
 7519TIP3    H222519   0.885   7.199   4.247 -0.8130  0.6903 -0.8900
 7520TIP3   OH222520   0.512   6.689   5.987 -0.3882  0.5050  0.1450
 7520TIP3    H122521   0.505   6.597   6.011 -0.8177  0.0323 -1.6635
 7520TIP3    H222522   0.546   6.687   5.897  1.3950  2.1663  0.7540
 7521TIP3   OH222523   7.275   5.549   3.581  0.0585  0.4444  0.9128
 7521TIP3    H122524   7.280   5.485   3.510 -0.4222  1.7438 -0.3253
 7521TIP3    H222525   7.210   5.613   3.551 -0.0279  1.0953  2.4530
 7522TIP3   OH222526   1.652   4.380   2.273 -0.2180  0.0207 -0.5937
 7522TIP3    H122527   1.740   4.360   2.306 -0.8099  1.2599  1.8216
 7522TIP3    H222528   1.663   4.459   2.220 -0.1584  1.3225  1.3112
 7523TIP3   OH222529   4.007   1.056   4.766  0.5080 -0.5027  0.1889
 7523TIP3    H122530   4.011   1.056   4.862  0.7357 -0.2749  0.1791
 7523TIP3    H222531   3.978   1.144   4.743  2.0625 -0.0339 -0.0171
 7524TIP3   OH222532   2.938   6.794   6.278 -0.0826  0.1648  0.0019
 7524TIP3    H122533   2.893   6.757   6.353  0.3331 -1.5256 -0.5638
 7524TIP3    H222534   2.979   6.873   6.311 -0.1516 -0.4101  1.4771
 7525TIP3   OH222535   4.079   2.319   4.120 -0.0143  0.6037 -0.6514
 7525TIP3    H122536   4.119   2.339   4.205 -1.8347 -0.5498  0.5047
 7525TIP3    H222537   4.074   2.404   4.075  0.7973  1.2546  0.4603
 7526TIP3   OH222538   2.265   6.327   4.611 -0.8305  0.4294  0.1310
 7526TIP3    H122539   2.214   6.400   4.575 -0.0340  0.4346 -1.0241
 7526TIP3    H222540   2.200   6.270   4.652 -1.5426  1.4073  0.3858
 7527TIP3   OH222541   4.718   2.988   0.589  0.3631  0.1709 -0.0421
 7527TIP3    H122542   4.794   3.034   0.552  0.0606 -0.2191 -1.1760
 7527TIP3    H222543   4.708   2.912   0.533  1.6546 -2.0189  2.5891
 7528TIP3   OH222544   0.942   5.345   4.929 -0.3920 -0.0703 -0.6039
 7528TIP3    H122545   0.935   5.439   4.944  3.0101 -0.2308  2.7301
 7528TIP3    H222546   1.028   5.334   4.887  0.5607 -1.8945  1.7291
 7529TIP3   OH222547   5.942   2.411   2.010 -0.0202 -0.9470  0.1775
 7529TIP3    H122548   5.968   2.326   1.975  0.0434 -2.0824  2.8186
 7529TIP3    H222549   6.010   2.432   2.075 -0.8361  0.3911  0.6168
 7530TIP3   OH222550   1.994   6.715   3.243  0.0408 -0.0390  0.4209
 7530TIP3    H122551   1.919   6.668   3.280 -0.3249 -0.1982 -0.4983
 7530TIP3    H222552   2.008   6.788   3.303 -0.5445 -0.2913  0.8703
 7531TIP3   OH222553   3.238   5.604   2.617  0.2676  0.3965 -0.0798
 7531TIP3    H122554   3.183   5.676   2.648 -0.2964 -0.2960  0.5702
 7531TIP3    H222555   3.303   5.592   2.687  0.2406  0.1567 -0.0941
 7532TIP3   OH222556   3.076   1.602   2.709 -0.8136  0.0767  0.0390
 7532TIP3    H122557   3.053   1.694   2.707 -0.7699  0.1047  0.7908
 7532TIP3    H222558   3.006   1.560   2.758  0.6262  0.1473  2.2482
 7533TIP3   OH222559   1.752   5.538   4.061  0.3241  0.2280  0.4294
 7533TIP3    H122560   1.812   5.473   4.024 -2.3381 -1.4706 -1.0544
 7533TIP3    H222561   1.757   5.523   4.156  0.7488 -1.2552  0.1905
 7534TIP3   OH222562   2.007   4.732   5.810  0.5158  0.0565  0.2173
 7534TIP3    H122563   2.015   4.825   5.792 -0.4460  0.1187  0.0730
 7534TIP3    H222564   1.970   4.727   5.898 -1.0615 -0.1592 -0.4463
 7535TIP3   OH222565   0.643   6.029   5.202 -0.4828 -0.1162  0.3248
 7535TIP3    H122566   0.618   6.120   5.185 -1.0965 -0.6654 -1.8125
 7535TIP3    H222567   0.737   6.026   5.184 -0.1648  0.4040  1.8096
 7536TIP3   OH222568   1.653   6.296   3.606 -0.8369 -0.2943  0.0619
 7536TIP3    H122569   1.596   6.310   3.530  0.2222  0.0079 -0.6857
 7536TIP3    H222570   1.640   6.204   3.630 -1.0747 -0.4234 -0.5670
 7537TIP3   OH222571   7.180   6.328   4.838  0.0840  0.3824 -0.8013
 7537TIP3    H122572   7.260   6.380   4.849 -0.1988  0.5369  0.7247
 7537TIP3    H222573   7.187   6.259   4.904  0.8545 -2.0839 -3.3957
 7538TIP3   OH222574   0.555   4.167   2.990  0.4355  0.2755 -0.3614
 7538TIP3    H122575   0.629   4.148   3.047  0.3792 -0.7754 -0.6344
 7538TIP3    H222576   0.594   4.173   2.902  0.3618  0.8240 -0.3587
 7539TIP3   OH222577   1.471   4.529   4.889 -0.0324  0.3422 -0.2115
 7539TIP3    H122578   1.472   4.434   4.882  0.7500  0.3145  0.2784
 7539TIP3    H222579   1.448   4.559   4.801  0.1078 -0.2837 -0.4631
 7540TIP3   OH222580   0.248   7.315   5.947  1.0935 -0.2080 -0.5927
 7540TIP3    H122581   0.304   7.390   5.924 -0.7418  0.9578 -1.4003
 7540TIP3    H222582   0.169   7.355   5.983  1.3862 -1.8803  2.0160
 7541TIP3   OH222583   2.336   5.923   4.067  0.4001  0.3494 -0.4370
 7541TIP3    H122584   2.268   5.872   4.112  0.4293 -0.1562 -0.9570
 7541TIP3    H222585   2.392   5.857   4.025  2.5589  0.6690  1.8607
 7542TIP3   OH222586   1.718   6.725   2.293 -0.3094  0.4130 -0.1159
 7542TIP3    H122587   1.711   6.683   2.208  0.5697  1.2360 -0.5980
 7542TIP3    H222588   1.705   6.653   2.356 -1.2013 -0.1505 -0.9216
 7543TIP3   OH222589   1.833   3.478   4.874 -0.1950  0.1579 -0.3391
 7543TIP3    H122590   1.863   3.559   4.916  1.7209 -1.3517  1.3521
 7543TIP3    H222591   1.748   3.500   4.837  0.3299  2.9650 -0.0032
 7544TIP3   OH222592   2.585   6.729   4.591  0.2785 -0.0193  0.0182
 7544TIP3    H122593   2.509   6.685   4.555  0.5102 -0.4657  0.0678
 7544TIP3    H222594   2.622   6.666   4.654  0.2015  0.5191  0.6154
 7545TIP3   OH222595   3.513   6.009   6.312  0.2789 -0.3267  0.1992
 7545TIP3    H122596   3.500   6.002   6.217  2.7840  1.4843 -0.3148
 7545TIP3    H222597   3.474   6.093   6.335  0.9598 -0.0849  0.4966
 7546TIP3   OH222598   4.379   7.365   5.980 -0.3486  0.0321  0.0482
 7546TIP3    H122599   4.301   7.418   5.964  0.3236  2.0411  3.0223
 7546TIP3    H222600   4.347   7.276   5.989 -2.7019  1.1941  3.9151
 7547TIP3   OH222601   4.206   5.648   3.984  0.4378 -0.1815 -0.8165
 7547TIP3    H122602   4.111   5.651   3.988  0.5017  1.3913  0.0731
 7547TIP3    H222603   4.227   5.668   3.893 -0.0553  0.5255 -0.7784
 7548TIP3   OH222604   1.338   6.464   5.503 -0.3211 -0.3099 -0.3436
 7548TIP3    H122605   1.391   6.532   5.545 -0.4935 -0.4077  0.0360
 7548TIP3    H222606   1.277   6.435   5.571 -2.7671  1.7411 -1.5519
 7549TIP3   OH222607   4.612   5.087   3.778  0.4656 -0.0221 -0.4292
 7549TIP3    H122608   4.695   5.125   3.749  0.5464 -0.3942 -0.6927
 7549TIP3    H222609   4.632   4.995   3.793  0.0078 -0.2014 -0.8964
 7550TIP3   OH222610   4.940   4.761   4.539  0.5423  0.2672 -0.3415
 7550TIP3    H122611   4.929   4.667   4.522  0.4070 -0.2102  2.1755
 7550TIP3    H222612   5.031   4.770   4.565  0.4892  0.7924 -0.3402
 7551TIP3   OH222613   2.235   5.571   3.274 -0.6103  0.4319  0.1221
 7551TIP3    H122614   2.166   5.638   3.271  0.1227  1.2444  1.1033
 7551TIP3    H222615   2.317   5.621   3.274 -0.0540 -0.4796  0.4140
 7552TIP3   OH222616   5.384   6.719   4.747 -0.2473  0.3683  0.6924
 7552TIP3    H122617   5.341   6.803   4.760 -1.0403  0.5580 -2.6139
 7552TIP3    H222618   5.471   6.741   4.713 -0.7007 -0.1068 -0.8315
 7553TIP3   OH222619   0.290   4.939   4.266 -0.0938 -0.6200 -0.2084
 7553TIP3    H122620   0.289   4.859   4.213 -0.8133  0.8910 -2.5462
 7553TIP3    H222621   0.203   4.942   4.305  0.0953 -1.2109  0.2757
 7554TIP3   OH222622   3.526   7.259   4.395  0.0808  0.2412  0.5256
 7554TIP3    H122623   3.594   7.264   4.463  1.4703  0.8570 -0.8807
 7554TIP3    H222624   3.482   7.176   4.411 -0.3104  0.8595  2.8270
 7555TIP3   OH222625   4.570   0.961   3.771 -0.2214  0.1779 -0.3298
 7555TIP3    H122626   4.661   0.992   3.763 -0.1302  0.1024  0.3948
 7555TIP3    H222627   4.517   1.038   3.751 -0.0132 -0.0426 -1.8405
 7556TIP3   OH222628   4.886   7.043   2.562 -0.9195  0.2983  0.1075
 7556TIP3    H122629   4.889   7.121   2.507  0.1353 -0.1519 -0.4986
 7556TIP3    H222630   4.805   7.051   2.612 -0.7735  1.8214  0.1122
 7557TIP3   OH222631   3.543   6.117   0.045 -0.3387 -0.4226  0.2022
 7557TIP3    H122632   3.628   6.139   0.082 -0.6061 -0.0089  0.5901
 7557TIP3    H222633   3.485   6.188   0.075 -0.4632  0.1986 -1.4400
 7558TIP3   OH222634   4.993   5.613   3.019  0.1456  0.2750 -0.0814
 7558TIP3    H122635   5.031   5.596   3.105 -0.3130 -1.1983 -0.1573
 7558TIP3    H222636   4.908   5.652   3.037 -0.7260 -1.6624  0.1983
 7559TIP3   OH222637   4.077   4.346   3.230  0.4756 -0.2615 -0.4671
 7559TIP3    H122638   4.118   4.294   3.299 -2.4838 -0.3571  1.2884
 7559TIP3    H222639   4.017   4.404   3.276  0.2596  1.4233 -2.7950
 7560TIP3   OH222640   3.168   6.097   3.923  0.6588  0.5163  0.3280
 7560TIP3    H122641   3.230   6.168   3.904  0.3775  0.6556 -0.0690
 7560TIP3    H222642   3.112   6.093   3.846  0.1494  0.4162  0.7044
 7561TIP3   OH222643   3.723   6.379   4.121 -0.0694  0.4408  0.5312
 7561TIP3    H122644   3.721   6.363   4.027  1.2212  2.3639  0.1560
 7561TIP3    H222645   3.776   6.308   4.157 -0.1331 -0.0001 -0.2386
 7562TIP3   OH222646   4.806   6.078   2.089  0.1402  0.0678 -0.6705
 7562TIP3    H122647   4.780   6.000   2.137 -0.1216  1.0285  0.7662
 7562TIP3    H222648   4.835   6.045   2.004 -1.1967 -1.4744 -0.5578
 7563TIP3   OH222649   7.152   2.915   1.309 -0.2783  0.1531 -0.3529
 7563TIP3    H122650   7.071   2.965   1.299  0.4030  0.8604 -2.7459
 7563TIP3    H222651   7.215   2.979   1.345 -0.0486  0.3872 -1.1547
 7564TIP3   OH222652   5.412   6.471   1.785  0.1601 -0.0814  0.2047
 7564TIP3    H122653   5.438   6.387   1.821  0.9348 -0.7346 -1.7630
 7564TIP3    H222654   5.418   6.532   1.858  0.2855 -1.6088  1.4799
 7565TIP3   OH222655   4.545   0.363   5.063 -0.2017  0.3167 -0.0953
 7565TIP3    H122656   4.578   0.392   4.978  1.6045  1.6323  1.0225
 7565TIP3    H222657   4.463   0.411   5.074 -0.4202  0.1699 -1.0904
 7566TIP3   OH222658   4.305   6.221   2.061 -0.3463 -0.3580  0.0445
 7566TIP3    H122659   4.389   6.211   2.018  0.1960 -0.0384  1.0008
 7566TIP3    H222660   4.326   6.219   2.155 -1.4847 -1.0045  0.2943
 7567TIP3   OH222661   4.176   7.305   4.246  0.3908 -0.1216  0.1671
 7567TIP3    H122662   4.220   7.356   4.178 -1.0621  1.2516  0.2101
 7567TIP3    H222663   4.140   7.229   4.200 -0.4925  0.7472 -0.6119
 7568TIP3   OH222664   1.118   7.123   4.864 -0.3272 -0.0655  0.2018
 7568TIP3    H122665   1.177   7.080   4.926 -1.2214 -0.3939  0.8241
 7568TIP3    H222666   1.030   7.095   4.890 -0.8254  1.0758 -0.2096
 7569TIP3   OH222667   4.148   5.236   4.218 -0.0026  0.6742  0.0508
 7569TIP3    H122668   4.158   5.146   4.250 -0.7580  0.2983 -0.7462
 7569TIP3    H222669   4.079   5.273   4.272 -0.7092  0.3039 -0.5944
 7570TIP3   OH222670   5.183   6.915   4.818 -0.0815 -0.5054  0.0533
 7570TIP3    H122671   5.112   6.908   4.882  1.1172  1.3105  1.6497
 7570TIP3    H222672   5.152   6.979   4.754 -1.4780 -2.6791 -1.4949
 7571TIP3   OH222673   4.283   4.944   2.860  0.0229 -0.7704 -0.5147
 7571TIP3    H122674   4.252   5.003   2.928 -1.7545  0.2895 -2.1954
 7571TIP3    H222675   4.317   5.001   2.791 -1.0985 -1.6888 -1.8635
 7572TIP3   OH222676   3.770   4.439   5.386 -0.3770  0.1248  0.5835
 7572TIP3    H122677   3.683   4.454   5.425  0.2991 -1.5103  2.8178
 7572TIP3    H222678   3.797   4.525   5.355 -1.7368  1.1543  2.1407
 7573TIP3   OH222679   6.789   1.060   3.355  0.4808  0.2962 -0.2926
 7573TIP3    H122680   6.839   0.990   3.396  1.2674  0.8654 -0.2733
 7573TIP3    H222681   6.791   1.040   3.261  0.4758  0.1524 -0.2622
 7574TIP3   OH222682   3.454   4.467   3.331  0.4645  0.5506 -0.2456
 7574TIP3    H122683   3.530   4.506   3.375 -1.1356 -0.0835  3.1929
 7574TIP3    H222684   3.460   4.373   3.350  0.3127  0.0629 -2.3718
 7575TIP3   OH222685   3.352   6.663   5.528  0.5856  0.1238  0.6105
 7575TIP3    H122686   3.427   6.676   5.586  1.4141 -0.7840 -0.2361
 7575TIP3    H222687   3.390   6.631   5.447 -0.8672 -1.9673  0.7212
 7576TIP3   OH222688   5.052   5.206   5.216 -0.4012  0.2788  0.4289
 7576TIP3    H122689   5.081   5.229   5.127  2.1016  0.3716  1.2518
 7576TIP3    H222690   5.006   5.284   5.246 -2.0928 -0.0823 -1.1047
 7577TIP3   OH222691   6.021   0.261   2.548 -0.0569 -0.6649  0.9566
 7577TIP3    H122692   5.930   0.277   2.525 -0.0789  1.3850  2.4074
 7577TIP3    H222693   6.016   0.200   2.621 -0.2468 -0.7375  0.8846
 7578TIP3   OH222694   5.411   5.948   4.518 -0.0257 -0.1201 -0.0907
 7578TIP3    H122695   5.418   5.924   4.611  0.4671  2.6542  0.6439
 7578TIP3    H222696   5.478   5.897   4.474  0.7073 -0.3981  1.3211
 7579TIP3   OH222697   5.138   5.053   2.750 -0.6283  0.5349 -0.5945
 7579TIP3    H122698   5.222   5.094   2.728  0.2397 -1.2925 -0.7039
 7579TIP3    H222699   5.157   4.995   2.823 -1.8305  0.1938 -0.5325
 7580TIP3   OH222700   5.056   5.071   4.699 -0.1003  0.3038 -0.3886
 7580TIP3    H122701   5.090   4.986   4.671 -0.5123 -0.0141  0.0937
 7580TIP3    H222702   5.074   5.129   4.624  0.0454 -0.2335 -0.7731
 7581TIP3   OH222703   3.697   6.690   4.955  0.3325  0.2589  0.0786
 7581TIP3    H122704   3.770   6.751   4.970  0.3105  0.9913 -2.5654
 7581TIP3    H222705   3.627   6.744   4.920 -0.1526 -1.0871 -1.0651
 7582TIP3   OH222706   2.657   6.897   5.248  0.2620  0.7584  0.4727
 7582TIP3    H122707   2.599   6.961   5.207  1.0645  1.1825 -0.0031
 7582TIP3    H222708   2.732   6.891   5.189 -0.7370 -2.1804 -0.5959
 7583TIP3   OH222709   1.947   7.005   5.133  0.3370  0.2388 -0.1335
 7583TIP3    H122710   2.004   6.990   5.210  0.4292  0.0266 -0.2416
 7583TIP3    H222711   1.989   6.955   5.063  1.3201  1.9537 -0.8189
 7584TIP3   OH222712   6.144   0.891   1.778 -0.1512 -0.3727  0.0555
 7584TIP3    H122713   6.053   0.915   1.760 -0.3755 -0.9309  0.4568
 7584TIP3    H222714   6.194   0.967   1.748 -0.8526  0.5663  1.2216
 7585TIP3   OH222715   4.907   0.228   5.761 -0.5517  0.4787 -0.6183
 7585TIP3    H122716   4.880   0.213   5.670  2.1896  0.9133 -1.5431
 7585TIP3    H222717   4.940   0.318   5.761 -1.6132  0.8838  1.1086
 7586TIP3   OH222718   3.702   5.533   4.549 -0.0058 -0.3940 -0.0717
 7586TIP3    H122719   3.700   5.576   4.634  0.1903 -0.7371  0.1062
 7586TIP3    H222720   3.638   5.581   4.496  2.4072  2.1310 -0.8478
 7587TIP3   OH222721   7.374   4.816   0.880  0.4606  0.1498  0.0909
 7587TIP3    H122722   7.330   4.872   0.944 -0.0851 -0.5528  0.3374
 7587TIP3    H222723   7.319   4.738   0.875  1.4532 -0.5502  0.0664
 7588TIP3   OH222724   4.104   6.480   3.472  0.4028  0.0243 -0.2819
 7588TIP3    H122725   4.143   6.548   3.525  0.4363 -0.4462  0.2969
 7588TIP3    H222726   4.011   6.504   3.466  0.6696  0.8571 -1.2255
 7589TIP3   OH222727   5.596   0.762   5.474  0.0750  0.5171  0.0959
 7589TIP3    H122728   5.677   0.741   5.520  0.1537  2.3961  0.8664
 7589TIP3    H222729   5.604   0.717   5.390  1.5874  0.0759  0.4600
 7590TIP3   OH222730   6.544   5.333   2.976  0.0017 -0.1603  0.4998
 7590TIP3    H122731   6.557   5.244   2.945 -2.8921 -0.2245 -0.7229
 7590TIP3    H222732   6.578   5.389   2.906  0.4338 -0.2955  0.6006
 7591TIP3   OH222733   4.731   6.353   4.149 -0.7531 -0.0036 -0.3917
 7591TIP3    H122734   4.668   6.398   4.093 -0.2131  2.4780  0.9307
 7591TIP3    H222735   4.810   6.407   4.144  0.0670 -1.0726  0.8564
 7592TIP3   OH222736   4.251   6.573   1.700  0.2442 -0.6858  1.0172
 7592TIP3    H122737   4.226   6.493   1.746 -0.4292  0.0385  1.9601
 7592TIP3    H222738   4.270   6.636   1.770 -1.8548  0.7758  0.3481
 7593TIP3   OH222739   4.938   5.728   4.832 -0.0660  0.3570  0.0784
 7593TIP3    H122740   4.916   5.720   4.739  2.1847  1.9136 -0.6256
 7593TIP3    H222741   5.031   5.706   4.836 -0.3989 -0.7343  2.1384
 7594TIP3   OH222742   1.034   4.199   0.482 -0.1255  0.3464 -0.1191
 7594TIP3    H122743   0.950   4.154   0.485 -0.5981  1.2909  1.4885
 7594TIP3    H222744   1.028   4.267   0.549  1.7324  0.7641 -0.3263
 7595TIP3   OH222745   4.263   6.285   3.569 -0.4747 -0.7746 -0.1201
 7595TIP3    H122746   4.220   6.356   3.521  2.4411 -0.3714 -2.1913
 7595TIP3    H222747   4.194   6.251   3.626 -2.6236  2.0575 -0.9009
 7596TIP3   OH222748   3.968   4.882   3.812 -0.1666 -0.2574 -0.1763
 7596TIP3    H122749   4.001   4.939   3.743 -2.1924  0.5962 -0.4887
 7596TIP3    H222750   4.026   4.806   3.811  2.1247  1.4639 -0.2350
 7597TIP3   OH222751   4.709   7.145   3.539  0.1828 -0.0403 -0.8909
 7597TIP3    H122752   4.649   7.094   3.594  1.5779 -1.7334 -0.8744
 7597TIP3    H222753   4.688   7.118   3.449 -0.3809  0.8183 -1.0192
 7598TIP3   OH222754   4.704   6.364   4.987  0.9153  0.1274 -0.1970
 7598TIP3    H122755   4.652   6.291   4.952 -0.3891 -0.0039  1.9029
 7598TIP3    H222756   4.790   6.326   5.004  0.4994 -0.7214  0.0809
 7599TIP3   OH222757   7.104   0.712   4.084 -0.3151  0.3889  0.4062
 7599TIP3    H122758   7.155   0.647   4.132  1.7792  1.1290 -0.7530
 7599TIP3    H222759   7.102   0.789   4.142 -0.6857  0.1356  0.7317
 7600TIP3   OH222760   5.595   6.856   4.050  0.1860 -0.8169  0.4394
 7600TIP3    H122761   5.624   6.815   3.968 -0.0284 -2.4733  1.1672
 7600TIP3    H222762   5.590   6.949   4.030  0.0637 -1.2130 -1.4515
 7601TIP3   OH222763   4.789   6.681   5.481  0.1137 -0.4354 -0.5002
 7601TIP3    H122764   4.864   6.686   5.540 -1.5657  1.3362  1.5853
 7601TIP3    H222765   4.771   6.587   5.472  1.5613 -0.8016  0.3176
 7602TIP3   OH222766   2.048   6.261   4.820 -0.3784 -0.3221 -0.3111
 7602TIP3    H122767   1.991   6.197   4.779 -3.3108  1.4458  0.8887
 7602TIP3    H222768   2.022   6.262   4.912  1.1064  1.0408  0.1256
 7603TIP3   OH222769   3.012   5.692   1.522 -0.3687  0.2728  0.1878
 7603TIP3    H122770   3.085   5.723   1.575 -1.7768  0.5695  1.9982
 7603TIP3    H222771   3.049   5.620   1.471  1.5928  1.4747 -0.1628
 7604TIP3   OH222772   5.759  -0.022   2.810  0.2938  0.3496 -0.5513
 7604TIP3    H122773   5.832   0.036   2.787  0.2642  0.8288  0.5197
 7604TIP3    H222774   5.687   0.007   2.754  0.2779  1.3582 -0.0280
 7605TIP3   OH222775   5.139   6.572   4.864  0.5806  0.3270 -0.3165
 7605TIP3    H122776   5.085   6.627   4.920  1.9552  0.5576  0.8156
 7605TIP3    H222777   5.186   6.635   4.808  1.4619  0.2732  0.3497
 7606TIP3   OH222778   0.826   0.094   3.189 -0.0521 -0.1222  0.0282
 7606TIP3    H122779   0.876   0.173   3.210 -0.5473 -0.1006  1.2115
 7606TIP3    H222780   0.886   0.022   3.207  0.9963  0.0166 -2.7653
 7607TIP3   OH222781   3.328   5.214   3.552  0.3118  0.4482  0.0500
 7607TIP3    H122782   3.348   5.308   3.549  1.2529  0.2362 -0.6292
 7607TIP3    H222783   3.409   5.174   3.585  0.7792 -0.3663 -2.0235
 7608TIP3   OH222784   4.698   5.604   5.591  0.2081  0.0136  0.4980
 7608TIP3    H122785   4.735   5.632   5.508 -0.8620 -1.0002 -0.3290
 7608TIP3    H222786   4.606   5.587   5.572 -0.2408  0.5607  2.0716
 7609TIP3   OH222787   6.300   5.923   4.309  0.4276  0.2633  0.1857
 7609TIP3    H122788   6.344   5.878   4.238 -0.1819  0.1888 -0.1457
 7609TIP3    H222789   6.207   5.919   4.287  0.2329  0.2358  0.9846
 7610TIP3   OH222790   4.246   5.498   5.525 -0.1298 -0.0665  0.0306
 7610TIP3    H122791   4.261   5.499   5.619 -1.9767  0.1096  0.3400
 7610TIP3    H222792   4.215   5.586   5.504  2.2637  0.5452 -1.0989
 7611TIP3   OH222793   4.748   6.697   1.839  0.2681  0.2582 -0.5181
 7611TIP3    H122794   4.840   6.681   1.818 -0.3395  0.6862 -3.7758
 7611TIP3    H222795   4.750   6.733   1.928  3.0557 -1.6209  0.2421
 7612TIP3   OH222796   1.748   3.992   2.066 -0.0771  0.1359 -0.2269
 7612TIP3    H122797   1.720   3.903   2.043 -0.9351  0.2525  0.3139
 7612TIP3    H222798   1.695   4.013   2.144  0.1855  1.0828 -0.3071
 7613TIP3   OH222799   6.780   2.626   1.003  0.3893 -0.2239  0.3365
 7613TIP3    H122800   6.701   2.633   1.057  0.2394 -0.4760  0.1499
 7613TIP3    H222801   6.764   2.685   0.930  1.3592  1.5110  1.4954
 7614TIP3   OH222802   3.635   4.658   3.836  0.1029 -0.2617 -0.6436
 7614TIP3    H122803   3.549   4.628   3.806  0.3331 -1.4837 -0.0944
 7614TIP3    H222804   3.653   4.606   3.914  1.0679  0.4349 -0.3896
 7615TIP3   OH222805   5.506   4.126   4.873 -0.1292 -0.3452 -0.0839
 7615TIP3    H122806   5.466   4.134   4.787  1.1549 -2.3393 -0.8983
 7615TIP3    H222807   5.567   4.200   4.879  1.4687 -1.4823 -1.8404
 7616TIP3   OH222808   5.615   4.913   3.418 -0.3644 -0.2680 -0.0700
 7616TIP3    H122809   5.549   4.847   3.435 -0.3039 -0.6331 -1.2400
 7616TIP3    H222810   5.590   4.952   3.335  0.5092  0.0611 -0.1851
 7617TIP3   OH222811   4.798   5.673   3.822 -0.6546 -0.3907 -0.2908
 7617TIP3    H122812   4.857   5.635   3.887  0.2261 -0.2420 -0.9893
 7617TIP3    H222813   4.719   5.695   3.871  0.0316 -0.1958  0.7525
 7618TIP3   OH222814   4.421   6.674   2.759 -0.5335  0.4364 -0.2742
 7618TIP3    H122815   4.485   6.731   2.717 -1.8909  1.1611 -1.4271
 7618TIP3    H222816   4.464   6.589   2.763  0.0255  0.5920 -2.2616
 7619TIP3   OH222817   2.888   3.685   4.864 -0.0908 -0.3573  0.1744
 7619TIP3    H122818   2.840   3.634   4.929 -1.7254  0.6050 -0.2656
 7619TIP3    H222819   2.869   3.641   4.780  2.3891 -1.8833  0.3490
 7620TIP3   OH222820   2.078   4.196   4.532  0.4316 -0.1595  0.4223
 7620TIP3    H122821   2.015   4.172   4.600  0.3459 -0.6515  0.1747
 7620TIP3    H222822   2.157   4.146   4.556 -0.1741 -1.7746 -0.8646
 7621TIP3   OH222823   5.627   4.707   3.832  0.3914  0.1592  0.3099
 7621TIP3    H122824   5.582   4.647   3.891  0.2294 -0.9346 -0.9074
 7621TIP3    H222825   5.559   4.738   3.773  0.9478 -0.4324 -0.6561
 7622TIP3   OH222826   5.332   1.172   4.202  0.0906  0.2874 -0.4758
 7622TIP3    H122827   5.360   1.167   4.293 -0.3278 -0.0772 -0.3620
 7622TIP3    H222828   5.277   1.094   4.190  1.2587 -0.4045 -1.4229
 7623TIP3   OH222829   0.758   3.377   0.596 -0.7383 -0.2606  0.6214
 7623TIP3    H122830   0.844   3.364   0.637 -0.4541 -1.7621 -0.3954
 7623TIP3    H222831   0.777   3.379   0.502 -1.7913 -0.2929  0.4068
 7624TIP3   OH222832   1.025   6.749   5.265 -0.4203 -0.2454  0.6904
 7624TIP3    H122833   0.962   6.689   5.227 -0.3655  0.3796 -0.4147
 7624TIP3    H222834   1.110   6.711   5.243 -0.4047 -0.5467  1.2799
 7625TIP3   OH222835   3.392   5.468   3.624  0.0767  0.5580 -0.1576
 7625TIP3    H122836   3.368   5.459   3.716  1.8626  1.6691  0.4613
 7625TIP3    H222837   3.401   5.562   3.611  2.0131  0.2970 -0.8664
 7626TIP3   OH222838   3.249   4.490   2.780  0.7834 -0.3637 -0.1149
 7626TIP3    H122839   3.164   4.503   2.739  1.5885  0.7271 -1.4702
 7626TIP3    H222840   3.252   4.554   2.851  0.3945 -0.5425  0.0640
 7627TIP3   OH222841   4.478   5.220   2.511  0.0121  0.1225  0.0770
 7627TIP3    H122842   4.453   5.130   2.491  0.5540 -0.3709  1.4900
 7627TIP3    H222843   4.430   5.274   2.449  1.0525 -1.2636 -1.9759
 7628TIP3   OH222844   4.943   5.249   4.096 -0.2553 -0.3063 -0.7165
 7628TIP3    H122845   4.858   5.293   4.086  0.7683  2.0045  0.3457
 7628TIP3    H222846   4.990   5.269   4.015 -0.6737 -1.4827 -1.2522
 7629TIP3   OH222847   4.958   4.731   3.699  0.4130 -0.5913 -0.0180
 7629TIP3    H122848   4.889   4.701   3.758 -0.1252  0.0637 -0.3092
 7629TIP3    H222849   4.916   4.733   3.613  0.6214  0.4176 -0.0916
 7630TIP3   OH222850   4.112   4.741   4.439  0.2556  0.4779  0.3718
 7630TIP3    H122851   4.056   4.664   4.444  0.7250  0.1840  1.2585
 7630TIP3    H222852   4.143   4.743   4.349  0.6760 -0.6867  0.4924
 7631TIP3   OH222853   5.109   5.061   6.303  0.1902  0.3276 -0.3049
 7631TIP3    H122854   5.022   5.021   6.300  0.2076  0.1015  1.4438
 7631TIP3    H222855   5.154   5.027   6.226 -1.7389  1.5980 -2.0746
 7632TIP3   OH222856   3.650   6.424   2.267 -0.1068  0.5533  0.3564
 7632TIP3    H122857   3.606   6.427   2.352 -0.4353 -2.6290  0.3413
 7632TIP3    H222858   3.730   6.374   2.283 -0.3290 -0.3417 -1.2822
 7633TIP3   OH222859   4.789   0.254   5.171 -0.4458 -0.3638 -0.0845
 7633TIP3    H122860   4.822   0.180   5.121 -0.4137 -0.6041  0.2865
 7633TIP3    H222861   4.706   0.276   5.130 -0.5909 -0.7888 -0.0193
 7634TIP3   OH222862   1.572   6.541   4.605 -0.3534 -0.5028  0.8154
 7634TIP3    H122863   1.550   6.611   4.666 -1.4607 -1.6160  1.6919
 7634TIP3    H222864   1.639   6.490   4.650 -0.6899 -0.9291  0.8392
 7635TIP3   OH222865   3.742   7.246   3.677  1.0214  0.4785  0.2557
 7635TIP3    H122866   3.724   7.337   3.699  0.8487  0.4363  0.2855
 7635TIP3    H222867   3.741   7.244   3.581  0.1821  0.3383  0.2623
 7636TIP3   OH222868   1.347   4.691   0.758  0.0043 -0.3030  0.0775
 7636TIP3    H122869   1.417   4.631   0.782 -1.2542 -2.0920 -0.6382
 7636TIP3    H222870   1.290   4.694   0.835 -0.2400 -0.4859 -0.0949
 7637TIP3   OH222871   5.613   5.723   4.967 -0.1811 -0.2148 -0.1062
 7637TIP3    H122872   5.681   5.791   4.979 -1.2138  0.5050  1.8672
 7637TIP3    H222873   5.563   5.725   5.048 -1.7617 -1.6698 -1.0214
 7638TIP3   OH222874   4.319   3.870   2.164  0.0213 -0.0010 -0.2762
 7638TIP3    H122875   4.263   3.898   2.091  1.5909 -0.5494 -1.7158
 7638TIP3    H222876   4.297   3.778   2.178 -1.2964  0.4881  0.8914
 7639TIP3   OH222877   5.165   5.018   1.733 -0.3694  0.0714 -0.3275
 7639TIP3    H122878   5.246   4.969   1.720 -0.1698  0.4500 -0.5418
 7639TIP3    H222879   5.189   5.109   1.715 -1.1977 -0.0112 -1.9386
 7640TIP3   OH222880   0.139   1.945   2.303 -0.3000  0.4686  0.5211
 7640TIP3    H122881   0.071   1.879   2.310  0.4326 -0.3855 -0.3277
 7640TIP3    H222882   0.101   2.014   2.248 -0.8291  0.4684  0.8841
 7641TIP3   OH222883   6.595   0.922   3.888  0.3012  0.0496  0.3995
 7641TIP3    H122884   6.544   1.004   3.892 -0.0087 -0.1106 -0.2568
 7641TIP3    H222885   6.686   0.950   3.899  0.3805  0.6966 -1.6904
 7642TIP3   OH222886   2.436   6.389   4.176 -0.0487 -0.2191  0.0069
 7642TIP3    H122887   2.428   6.308   4.126  1.9539 -1.4220  1.5523
 7642TIP3    H222888   2.472   6.452   4.114  1.1162 -1.3097 -0.4525
 7643TIP3   OH222889   3.518   4.501   5.152  0.1283 -0.2726 -0.5508
 7643TIP3    H122890   3.590   4.537   5.099 -0.5505  1.7167 -0.1778
 7643TIP3    H222891   3.517   4.557   5.230 -0.2557 -1.8430  0.5758
 7644TIP3   OH222892   3.912   5.660   3.924 -0.4116  0.9501  0.0051
 7644TIP3    H122893   3.901   5.589   3.987  0.5942 -1.8376 -2.8221
 7644TIP3    H222894   3.869   5.735   3.965 -0.7962 -1.0506  3.4556
 7645TIP3   OH222895   4.488   0.923   4.032  0.3616 -0.0671 -0.3619
 7645TIP3    H122896   4.507   0.939   3.940 -1.9640 -0.2229 -0.9170
 7645TIP3    H222897   4.410   0.867   4.030  1.1955 -1.3631  1.6852
 7646TIP3   OH222898   5.001   0.823   3.319 -0.4943  0.1557  0.3536
 7646TIP3    H122899   4.960   0.743   3.287  0.7966 -0.6313  0.6494
 7646TIP3    H222900   4.961   0.893   3.267 -0.2356 -0.8623 -1.2351
 7647TIP3   OH222901   0.462   3.167   2.108 -0.3669  0.3785  0.3623
 7647TIP3    H122902   0.530   3.116   2.065 -0.9521  0.2699 -0.4473
 7647TIP3    H222903   0.382   3.148   2.058 -0.8100  1.2141  0.7387
 7648TIP3   OH222904   6.247   0.944   2.612  0.6521  0.2062  0.0124
 7648TIP3    H122905   6.342   0.944   2.595  0.4850 -0.0270 -0.9355
 7648TIP3    H222906   6.235   1.012   2.679  1.4808  0.2731  0.0990
 7649TIP3   OH222907   5.329   0.614   4.366  0.5892 -0.1781 -0.6346
 7649TIP3    H122908   5.403   0.675   4.378  0.8906 -0.8193  0.8964
 7649TIP3    H222909   5.280   0.620   4.448 -0.4637 -0.5771 -1.2276
 7650TIP3   OH222910   2.105   1.186   2.662 -0.0578 -0.2251 -0.0792
 7650TIP3    H122911   2.123   1.158   2.752  1.4531  0.7431 -0.0607
 7650TIP3    H222912   2.114   1.106   2.610 -2.7438 -1.1825  0.8120
 7651TIP3   OH222913   5.800   4.918   1.745  0.0223 -0.2957  0.5234
 7651TIP3    H122914   5.783   4.880   1.831 -1.8885 -0.6340  0.0326
 7651TIP3    H222915   5.799   4.843   1.686  1.2321 -0.0523  0.1924
 7652TIP3   OH222916   6.967   0.230   3.345 -0.7790  0.8989 -0.0344
 7652TIP3    H122917   7.019   0.279   3.408  0.6482  1.2101 -1.4314
 7652TIP3    H222918   6.954   0.291   3.272 -2.3149  0.5064 -0.1094
 7653TIP3   OH222919   0.452   6.579   1.954 -0.3755  0.1432  0.6756
 7653TIP3    H122920   0.384   6.568   2.020  0.6260 -0.3759  1.6257
 7653TIP3    H222921   0.429   6.660   1.909 -3.0333 -1.3055 -0.6792
 7654TIP3   OH222922   3.722   6.942   3.455  0.5036  0.4551 -0.2575
 7654TIP3    H122923   3.803   6.984   3.429  1.5576 -1.3863 -0.0778
 7654TIP3    H222924   3.679   6.919   3.373  1.6177 -1.2124 -0.4109
 7655TIP3   OH222925   4.928   6.251   0.916 -0.7586  0.7482  0.0117
 7655TIP3    H122926   4.929   6.307   0.994 -2.8765  0.4676  0.2858
 7655TIP3    H222927   5.002   6.282   0.864 -0.1199  1.8380  1.5080
 7656TIP3   OH222928   2.033   4.412   3.119  0.3281  0.0124 -0.1816
 7656TIP3    H122929   2.120   4.440   3.090  0.6183 -0.6133  0.1003
 7656TIP3    H222930   2.001   4.357   3.047 -0.5871  1.7219 -1.1210
 7657TIP3   OH222931   5.566   6.659   2.697 -0.5501 -0.7446 -0.1206
 7657TIP3    H122932   5.659   6.661   2.721 -0.4831 -1.2800 -0.3270
 7657TIP3    H222933   5.565   6.659   2.601 -0.7299 -1.6562 -0.1306
 7658TIP3   OH222934   4.153   5.340   5.313 -0.4217 -0.0585  0.0880
 7658TIP3    H122935   4.080   5.399   5.291 -0.3219  0.0301 -0.0088
 7658TIP3    H222936   4.200   5.384   5.383 -0.6158 -0.2419  0.3317
 7659TIP3   OH222937   3.122   6.629   3.174 -0.6143 -0.1668  0.0228
 7659TIP3    H122938   3.216   6.624   3.157 -0.6930  1.1915 -0.8518
 7659TIP3    H222939   3.093   6.706   3.126 -2.2833 -0.9023 -0.1755
 7660TIP3   OH222940   4.885   3.803   3.864 -0.0885 -0.3131 -0.0049
 7660TIP3    H122941   4.955   3.854   3.907  1.3012 -2.7567  0.7140
 7660TIP3    H222942   4.882   3.838   3.775 -0.1011  1.9355  0.8383
 7661TIP3   OH222943   2.691   4.904   5.443 -0.3003 -0.5267  0.0632
 7661TIP3    H122944   2.747   4.829   5.465 -1.4375 -1.7112 -0.9681
 7661TIP3    H222945   2.724   4.934   5.358 -1.0816 -1.1066 -0.4544
 7662TIP3   OH222946   7.683   0.082   2.592  0.0975 -0.8756 -0.6393
 7662TIP3    H122947   7.736   0.157   2.619 -0.0116 -1.0649  0.1034
 7662TIP3    H222948   7.691   0.020   2.664  0.1161 -1.5436 -1.2155
 7663TIP3   OH222949   3.953   5.411   2.794  0.1267 -0.1232  0.2703
 7663TIP3    H122950   3.930   5.493   2.750 -0.7869  0.0574  1.0560
 7663TIP3    H222951   4.049   5.413   2.798  0.2348 -0.1726 -1.7183
 7664TIP3   OH222952   4.892   5.160   2.788 -0.3305 -0.0876  0.1177
 7664TIP3    H122953   4.977   5.123   2.764 -0.2155 -0.0035  0.3923
 7664TIP3    H222954   4.837   5.145   2.711 -0.5380 -1.6231  0.5579
 7665TIP3   OH222955   5.144   5.563   3.251  0.0554  0.0111 -0.4738
 7665TIP3    H122956   5.100   5.555   3.336  1.4563 -1.9467  0.1061
 7665TIP3    H222957   5.193   5.645   3.257 -0.3677  0.2084  0.3491
 7666TIP3   OH222958   6.268   0.451   1.975  0.7835 -0.0876 -0.2496
 7666TIP3    H122959   6.355   0.412   1.981  0.7215 -0.2935 -0.6826
 7666TIP3    H222960   6.224   0.402   1.905  1.1445  1.5934 -1.6829
 7667TIP3   OH222961   3.555   6.850   2.107 -0.3347 -0.3168 -0.2257
 7667TIP3    H122962   3.605   6.912   2.159 -0.3366 -1.2466  0.8955
 7667TIP3    H222963   3.599   6.849   2.022  0.1975  0.5332  0.0376
 7668TIP3   OH222964   2.149   4.813   2.385 -0.9508 -0.6121  0.0434
 7668TIP3    H122965   2.082   4.882   2.382  0.3465  0.6489 -1.8532
 7668TIP3    H222966   2.206   4.839   2.457 -1.7038 -0.9019  0.7447
 7669TIP3   OH222967   4.693   5.661   4.362  0.4705 -0.0272  0.5645
 7669TIP3    H122968   4.758   5.634   4.298  0.4166 -0.4930  0.7032
 7669TIP3    H222969   4.650   5.737   4.323  3.7439  2.7495  2.1442
 7670TIP3   OH222970   4.075   0.346   5.543  0.3324  0.4622 -0.1494
 7670TIP3    H122971   3.980   0.362   5.537  0.2468 -0.1404 -0.4414
 7670TIP3    H222972   4.092   0.279   5.477  0.7281 -0.4196  0.8337
 7671TIP3   OH222973   1.121   6.401   3.704  0.2424  0.4005 -0.3396
 7671TIP3    H122974   1.040   6.353   3.686  0.4210 -0.2019  0.4616
 7671TIP3    H222975   1.111   6.482   3.654 -0.4768 -0.0416 -0.9383
 7672TIP3   OH222976   7.401   0.866   3.949 -0.0120  0.0105  0.7131
 7672TIP3    H122977   7.409   0.789   4.006 -0.3805  1.0154  2.1713
 7672TIP3    H222978   7.486   0.909   3.954 -0.4133  0.7376  1.4678
 7673TIP3   OH222979   4.509   1.761   6.324 -0.4209  0.2914 -0.2999
 7673TIP3    H122980   4.518   1.788   6.232  0.7568 -0.1872 -0.3408
 7673TIP3    H222981   4.458   1.680   6.320  0.6829 -0.4013 -0.6546
 7674TIP3   OH222982   1.461   6.314   1.365 -0.1653 -0.0896 -0.5631
 7674TIP3    H122983   1.447   6.385   1.428 -0.4663 -1.8397  1.3960
 7674TIP3    H222984   1.410   6.340   1.288 -1.5151  1.1013  0.6995
 7675TIP3   OH222985   2.948   7.244   4.858  0.5912 -0.1279 -0.3566
 7675TIP3    H122986   2.925   7.245   4.765  2.3197  0.1518 -0.7986
 7675TIP3    H222987   3.032   7.199   4.862  0.1962 -0.7584  1.1638
 7676TIP3   OH222988   6.327   1.426   2.228 -0.2625 -0.1662  0.6688
 7676TIP3    H122989   6.386   1.406   2.300  0.5338 -0.3360 -0.0321
 7676TIP3    H222990   6.321   1.345   2.178  0.4808  0.4155 -0.3770
 7677TIP3   OH222991   3.301   6.680   4.145 -0.2039 -0.0560 -0.6420
 7677TIP3    H122992   3.326   6.734   4.219 -0.8650 -0.8773  0.1874
 7677TIP3    H222993   3.383   6.664   4.098  0.5903 -1.3098  1.1066
 7678TIP3   OH222994   3.806   5.826   4.628 -0.2568 -0.5311 -0.3494
 7678TIP3    H122995   3.869   5.886   4.667 -1.7033  0.6332  0.2455
 7678TIP3    H222996   3.799   5.754   4.691  0.9654 -0.9830 -0.7335
 7679TIP3   OH222997   4.896   5.892   5.410 -0.2112  0.4715  0.5313
 7679TIP3    H122998   4.806   5.861   5.418 -0.5157  1.6223  1.6362
 7679TIP3    H222999   4.948   5.812   5.404 -1.1194 -0.2420  1.8757
 7680TIP3   OH223000   4.728   5.623   2.362 -0.0387  0.0061  0.7379
 7680TIP3    H123001   4.750   5.531   2.374 -0.0379  0.0692  1.2303
 7680TIP3    H223002   4.785   5.670   2.424 -0.6612  0.2698  1.1155
 7681TIP3   OH223003   2.738   6.253   4.876  0.2285  0.2153 -0.0839
 7681TIP3    H123004   2.743   6.333   4.929 -1.0629 -1.1661  2.1779
 7681TIP3    H223005   2.652   6.258   4.834 -0.1950 -0.3603  0.7015
 7682TIP3   OH223006   3.180   0.865   5.051  0.1960 -0.2461 -0.0709
 7682TIP3    H123007   3.121   0.870   4.975  0.1147  0.1183  0.0168
 7682TIP3    H223008   3.267   0.882   5.014  0.3794 -1.7463 -0.3627
 7683TIP3   OH223009   3.448   5.919   4.626  0.1686 -0.0184 -0.3866
 7683TIP3    H123010   3.398   5.982   4.679  1.9684 -0.6778  2.1701
 7683TIP3    H223011   3.419   5.833   4.656  0.5105 -0.4095 -1.1575
 7684TIP3   OH223012   1.419   5.936   6.339 -0.2056  0.7450  0.4797
 7684TIP3    H123013   1.333   5.903   6.313 -0.3966  1.0370  0.7352
 7684TIP3    H223014   1.430   5.906   6.430  0.5214 -0.3994  0.0287
 7685TIP3   OH223015   2.026   5.295   1.286 -0.7203  0.0957  0.2609
 7685TIP3    H123016   2.094   5.265   1.225  0.1267 -0.2606  1.3697
 7685TIP3    H223017   2.046   5.250   1.368 -3.2367 -1.2716  0.1859
 7686TIP3   OH223018   4.874   5.152   3.768  0.8141  0.8298 -0.3050
 7686TIP3    H123019   4.892   5.078   3.824  1.0817  0.4014 -0.9489
 7686TIP3    H223020   4.927   5.224   3.804  1.8438  0.2634 -0.6647
 7687TIP3   OH223021   0.576   0.052   2.513 -0.2268 -0.4561 -0.0921
 7687TIP3    H123022   0.508   0.113   2.484 -0.0279  0.7678  1.9749
 7687TIP3    H223023   0.530  -0.032   2.521 -1.0588 -0.0542 -0.5277
 7688TIP3   OH223024   3.635   5.359   5.278  0.3310 -0.2131  0.2821
 7688TIP3    H123025   3.590   5.403   5.350 -0.3593  0.3361 -0.4771
 7688TIP3    H223026   3.709   5.314   5.320 -1.1069 -1.4253  1.5964
 7689TIP3   OH223027   3.218   6.376   5.248  0.5660 -0.0592 -0.0152
 7689TIP3    H123028   3.257   6.378   5.335  0.0721  1.5556  0.1868
 7689TIP3    H223029   3.287   6.407   5.189  0.4704  0.1527 -0.0172
 7690TIP3   OH223030   2.774   5.882   5.363 -0.5426  0.0256 -0.3700
 7690TIP3    H123031   2.708   5.860   5.430  1.3766  1.1289  1.9730
 7690TIP3    H223032   2.766   5.977   5.353  0.9657  0.2251  0.2568
 7691TIP3   OH223033   5.238   5.556   2.348  0.1505  0.8806 -0.3287
 7691TIP3    H123034   5.275   5.622   2.288  0.3400  1.1790  0.1180
 7691TIP3    H223035   5.313   5.525   2.399 -0.0137  0.6278 -0.2391
 7692TIP3   OH223036   0.046   1.316   3.909  0.4730 -0.8006  0.3069
 7692TIP3    H123037  -0.014   1.324   3.834  1.1788  1.7857 -0.0261
 7692TIP3    H223038   0.131   1.299   3.869  0.9143  0.9379  0.4873
 7693TIP3   OH223039   0.249   2.648   0.073  0.0483  0.0325  0.2473
 7693TIP3    H123040   0.195   2.708   0.021 -0.1101 -0.1323  0.2229
 7693TIP3    H223041   0.208   2.648   0.159  0.5551  0.6319  0.4958
 7694TIP3   OH223042   5.393   5.303   5.219  0.1275 -0.5842  0.0404
 7694TIP3    H123043   5.460   5.312   5.151 -0.1070 -1.3337 -0.3030
 7694TIP3    H223044   5.361   5.213   5.209  1.3275 -1.2920  2.2941
 7695TIP3   OH223045   1.804   4.705   5.299 -0.7929 -0.2711 -0.0947
 7695TIP3    H123046   1.750   4.779   5.275 -0.9496 -0.2697  0.2642
 7695TIP3    H223047   1.742   4.635   5.320 -0.7023  0.1595  1.7256
 7696TIP3   OH223048   6.504   5.803   4.161 -0.5553 -0.0556 -0.5010
 7696TIP3    H123049   6.583   5.838   4.200 -0.7724 -1.8358  1.6044
 7696TIP3    H223050   6.525   5.793   4.068  0.6465  2.2997 -0.5062
 7697TIP3   OH223051   2.964   5.414   4.805 -0.2483 -0.5082 -0.1502
 7697TIP3    H123052   2.897   5.437   4.870 -0.0357  1.2406 -0.5322
 7697TIP3    H223053   3.034   5.478   4.819  0.4370 -1.0373 -1.1376
 7698TIP3   OH223054   6.714   3.995   0.507  0.2818  0.0883 -0.4211
 7698TIP3    H123055   6.644   4.032   0.561  0.0916  0.0247 -0.6252
 7698TIP3    H223056   6.794   4.027   0.548  0.1967 -1.3630  0.9423
 7699TIP3   OH223057   2.510   6.426   5.365 -0.3346  0.0112  0.1534
 7699TIP3    H123058   2.451   6.501   5.379  1.9126  2.0617 -1.0354
 7699TIP3    H223059   2.501   6.406   5.272  0.9923  0.5041 -0.0905
 7700TIP3   OH223060   6.259   5.168   2.928  1.0822  0.1841 -0.0661
 7700TIP3    H123061   6.260   5.088   2.876 -0.6164 -0.4664  0.8711
 7700TIP3    H223062   6.319   5.151   3.001  1.6150  0.2117 -0.4957
 7701TIP3   OH223063   6.919   0.823   3.689 -0.0850  0.0396  0.0195
 7701TIP3    H123064   6.952   0.840   3.600 -0.8256  0.4594 -0.1753
 7701TIP3    H223065   6.965   0.743   3.716  1.2779  0.7391 -0.1593
 7702TIP3   OH223066   5.340   6.278   2.886 -0.2398 -0.1878  0.2283
 7702TIP3    H123067   5.383   6.352   2.844  0.0713 -0.2419  0.4464
 7702TIP3    H223068   5.379   6.274   2.973 -0.6831 -0.2419  0.4262
 7703TIP3   OH223069   3.084   5.629   5.127 -0.4333  0.1765 -0.1530
 7703TIP3    H123070   3.119   5.596   5.210 -0.9208  1.0880  0.4214
 7703TIP3    H223071   2.991   5.606   5.130 -0.1574 -1.1311 -1.1245
 7704TIP3   OH223072   4.408   0.268   3.660  0.4765  0.0295 -0.1646
 7704TIP3    H123073   4.457   0.186   3.661 -1.2114 -1.0050  0.7812
 7704TIP3    H223074   4.363   0.270   3.745 -2.9776 -0.2929 -1.8667
 7705TIP3   OH223075   7.487   5.816   2.006  0.2181 -0.7576 -0.0754
 7705TIP3    H123076   7.540   5.895   2.002  0.5302 -1.0297 -2.1967
 7705TIP3    H223077   7.539   5.750   1.961 -0.3203 -2.0151  1.1145
 7706TIP3   OH223078   7.094   0.541   3.580  0.1829 -0.1894 -0.1289
 7706TIP3    H123079   7.083   0.471   3.644  0.6520  1.2424  1.5604
 7706TIP3    H223080   7.187   0.565   3.587 -0.4337  2.0468  0.9081
 7707TIP3   OH223081   6.298   1.366   4.337 -0.5155 -0.4114  0.3089
 7707TIP3    H123082   6.232   1.300   4.314 -1.6332  0.4450  1.0039
 7707TIP3    H223083   6.353   1.323   4.403 -2.7195  0.1644  2.5780
 7708TIP3   OH223084   6.029   0.119   2.785 -0.1805  0.2496 -0.4698
 7708TIP3    H123085   6.095   0.059   2.749 -1.7195 -1.7526 -0.1010
 7708TIP3    H223086   6.068   0.152   2.866  0.1034 -1.5167  0.1485
 7709TIP3   OH223087   0.198   1.063   2.656 -0.0801 -0.3324  0.0327
 7709TIP3    H123088   0.134   1.108   2.710  0.1259 -0.3280  0.2771
 7709TIP3    H223089   0.179   1.090   2.566 -0.5483 -0.4917  0.0860
 7710TIP3   OH223090   4.072   6.045   2.819 -0.2288  0.2014 -0.0500
 7710TIP3    H123091   4.080   6.140   2.810 -0.9301  0.4658  1.8304
 7710TIP3    H223092   3.980   6.032   2.843 -0.7650 -1.1671 -2.6549
 7711TIP3   OH223093   1.186   2.157   2.888  0.1928 -0.6157 -0.5484
 7711TIP3    H123094   1.181   2.120   2.976  0.1731 -0.7484 -0.6057
 7711TIP3    H223095   1.279   2.150   2.864  0.1354 -0.9121 -0.6827
 7712TIP3   OH223096   3.705   6.053   3.153  0.1122  0.1676 -0.1584
 7712TIP3    H123097   3.739   6.127   3.102 -0.0750  0.0395 -0.4725
 7712TIP3    H223098   3.744   5.976   3.112  1.3310  0.1582  0.9726
 7713TIP3   OH223099   6.051   4.869   1.120 -0.0348  0.4865  0.5897
 7713TIP3    H123100   5.959   4.872   1.091  0.2245 -0.2695 -0.3494
 7713TIP3    H223101   6.101   4.867   1.039  0.8162  0.8464  1.1061
 7714TIP3   OH223102   0.434   0.402   2.920  0.0884  0.7446  0.0042
 7714TIP3    H123103   0.418   0.308   2.911  0.2693  0.4394  2.4156
 7714TIP3    H223104   0.529   0.411   2.919  0.0611  1.0093 -0.9969
 7715TIP3   OH223105   3.363   6.239   6.310 -0.1202 -0.5020 -0.4329
 7715TIP3    H123106   3.270   6.228   6.330 -0.4139  0.7436 -1.0708
 7715TIP3    H223107   3.365   6.266   6.218  0.9138 -1.1082 -0.5949
 7716TIP3   OH223108   6.090   6.326   4.283 -0.0856 -0.1088  0.8633
 7716TIP3    H123109   6.088   6.370   4.368  1.1755  0.3851  0.6508
 7716TIP3    H223110   6.161   6.263   4.290 -0.4461 -0.5692  0.4099
 7717TIP3   OH223111   4.157   5.737   5.215  0.2146 -0.0678 -0.2130
 7717TIP3    H123112   4.237   5.789   5.221  0.9556 -1.0972 -0.9718
 7717TIP3    H223113   4.132   5.743   5.123 -0.6317  0.3250  0.0458
 7718TIP3   OH223114   5.887   1.001   1.764  0.6914  0.5354 -0.0710
 7718TIP3    H123115   5.795   0.976   1.750  0.9063  0.0071 -0.5913
 7718TIP3    H223116   5.898   1.081   1.713 -0.0995  1.9126  1.8872
 7719TIP3   OH223117   6.828   7.129   2.590 -0.5895 -0.0230  0.0774
 7719TIP3    H123118   6.749   7.074   2.580 -0.1004 -0.7059 -0.1256
 7719TIP3    H223119   6.900   7.070   2.567 -0.1000  0.9013 -0.7897
 7720TIP3   OH223120   5.624   4.306   4.250  0.4846 -0.4721  0.2868
 7720TIP3    H123121   5.635   4.285   4.158  1.0780 -0.9145  0.4480
 7720TIP3    H223122   5.535   4.278   4.271  0.5089 -0.8060 -0.0438
 7721TIP3   OH223123   2.024   6.919   5.388 -0.0290  0.1523  0.2826
 7721TIP3    H123124   2.020   6.937   5.482 -0.3202 -0.0025  0.3015
 7721TIP3    H223125   1.937   6.885   5.367  0.0625  0.1104 -0.0268
 7722TIP3   OH223126   0.376   3.591   0.191  0.1753  0.4710  0.3765
 7722TIP3    H123127   0.409   3.658   0.251 -0.1200 -1.0890  2.3305
 7722TIP3    H223128   0.453   3.538   0.170  0.2807  1.0280 -0.6496
 7723TIP3   OH223129   5.720   6.193   4.093  0.0158  0.6159 -0.5307
 7723TIP3    H123130   5.681   6.142   4.022  1.0645  2.9346 -2.8400
 7723TIP3    H223131   5.646   6.239   4.133 -0.7215 -1.4975  0.5911
 7724TIP3   OH223132   2.933   5.954   3.006  0.0422  0.6056 -0.7976
 7724TIP3    H123133   2.997   6.026   3.010  1.3969 -0.4795 -2.4206
 7724TIP3    H223134   2.849   5.997   3.020  0.9853  2.2901 -0.1268
 7725TIP3   OH223135   4.798   5.978   4.598  0.2003  0.1138 -0.5011
 7725TIP3    H123136   4.760   5.890   4.607 -0.1823  0.4415  1.2451
 7725TIP3    H223137   4.783   6.019   4.683 -0.3865  2.1947 -1.5780
 7726TIP3   OH223138   1.750   4.457   6.140 -0.2121 -0.2453 -0.6900
 7726TIP3    H123139   1.804   4.389   6.179  1.1524  1.0362 -0.2964
 7726TIP3    H223140   1.711   4.415   6.063 -0.5698 -1.8903  0.3590
 7727TIP3   OH223141   2.815   2.857   0.079  0.2694  0.1431 -0.0454
 7727TIP3    H123142   2.734   2.888   0.039  0.1988 -0.7242 -0.5844
 7727TIP3    H223143   2.788   2.782   0.132  0.2912  1.5303  1.9990
 7728TIP3   OH223144   3.877   7.251   1.937 -0.1582  0.2430  0.0986
 7728TIP3    H123145   3.855   7.158   1.946 -2.2084  0.7390  0.4695
 7728TIP3    H223146   3.896   7.280   2.026  1.1742  0.0524 -0.0992
 7729TIP3   OH223147   2.097   5.895   4.756 -0.9487  0.2890  0.0128
 7729TIP3    H123148   2.053   5.901   4.672  0.7365  1.3406 -0.8109
 7729TIP3    H223149   2.176   5.948   4.746  0.1858 -1.0426  1.6653
 7730TIP3   OH223150   2.214   6.447   2.188 -0.8819  0.1419 -0.2498
 7730TIP3    H123151   2.166   6.514   2.237 -0.9988 -0.8594  1.0154
 7730TIP3    H223152   2.270   6.497   2.128  0.9756  1.4681  2.4949
 7731TIP3   OH223153   2.656   5.548   2.475 -0.0374  0.4892 -0.6325
 7731TIP3    H123154   2.733   5.605   2.480  0.8810 -0.8699  0.8351
 7731TIP3    H223155   2.625   5.540   2.565  0.4446 -2.1625 -0.6752
 7732TIP3   OH223156   4.823   1.127   4.444 -0.0499  0.3931  0.0228
 7732TIP3    H123157   4.753   1.187   4.417 -0.5624  0.2789  1.0559
 7732TIP3    H223158   4.778   1.061   4.498  0.5566 -0.7557 -0.8764
 7733TIP3   OH223159   2.449   7.266   4.935 -0.2578  0.2234 -0.0813
 7733TIP3    H123160   2.437   7.192   4.994 -3.8658  0.2458 -0.6590
 7733TIP3    H223161   2.390   7.333   4.970 -0.6492  1.0649 -2.3153
 7734TIP3   OH223162   5.368   5.191   5.756  0.4303 -0.1885  0.3069
 7734TIP3    H123163   5.312   5.185   5.833  0.0940 -0.1470  0.0659
 7734TIP3    H223164   5.311   5.166   5.683  1.3168 -2.4474  0.3327
 7735TIP3   OH223165   6.915   0.243   5.357  0.2059  0.9003  0.5707
 7735TIP3    H123166   6.909   0.226   5.263  0.5350  0.5979  0.6034
 7735TIP3    H223167   6.991   0.192   5.386 -0.7079 -0.1004  1.2463
 7736TIP3   OH223168   4.353   4.759   5.642  0.2265  0.0581 -0.2510
 7736TIP3    H123169   4.420   4.698   5.673 -0.3642  0.1637  1.2800
 7736TIP3    H223170   4.399   4.816   5.579  1.4064 -0.2768  0.2953
 7737TIP3   OH223171   3.271   4.995   5.739 -0.3982 -0.0672 -0.1903
 7737TIP3    H123172   3.311   5.016   5.655 -0.7047 -0.4377 -0.4293
 7737TIP3    H223173   3.177   5.005   5.725 -0.4284  0.2098  0.2018
 7738TIP3   OH223174   4.122   0.182   3.885  0.3808 -0.1982 -0.2893
 7738TIP3    H123175   4.200   0.232   3.913  0.5046 -0.5635  0.0197
 7738TIP3    H223176   4.080   0.157   3.967 -0.4640  0.6270 -0.4655
 7739TIP3   OH223177   2.655   7.294   4.444 -0.4058  0.3014 -0.2224
 7739TIP3    H123178   2.726   7.265   4.500 -0.1971  0.1033 -0.5934
 7739TIP3    H223179   2.575   7.269   4.492 -0.2297 -0.0086 -0.0908
 7740TIP3   OH223180   5.444   0.173   3.888 -0.7887  0.2504  0.0375
 7740TIP3    H123181   5.406   0.139   3.807 -1.9320  0.3498  0.5158
 7740TIP3    H223182   5.460   0.095   3.941  0.3650  0.1477 -0.4357
 7741TIP3   OH223183   7.017   1.220   2.671 -0.3823  0.5734  0.5399
 7741TIP3    H123184   6.945   1.210   2.733  1.1260  1.1858  2.4684
 7741TIP3    H223185   7.070   1.141   2.681  0.3800  1.0958  0.7385
 7742TIP3   OH223186   3.807   0.414   5.447  0.0821  0.0589  0.1335
 7742TIP3    H123187   3.752   0.355   5.498 -0.1030 -0.3916 -0.5870
 7742TIP3    H223188   3.790   0.391   5.356  0.2997  0.9600 -0.1401
 7743TIP3   OH223189   3.106   4.359   5.018 -0.1464 -0.3687  0.1125
 7743TIP3    H123190   3.176   4.318   5.069 -0.7362  0.4069  1.5721
 7743TIP3    H223191   3.047   4.286   4.995 -1.5664 -0.2946  3.3076
 7744TIP3   OH223192   4.714   6.488   5.243 -0.1189 -0.4982  0.0420
 7744TIP3    H123193   4.784   6.551   5.224  0.3371 -0.6275  1.2999
 7744TIP3    H223194   4.714   6.430   5.167  0.5024  0.0829 -0.4128
 7745TIP3   OH223195   5.499   4.530   4.811 -0.1472  0.2068  0.2015
 7745TIP3    H123196   5.551   4.452   4.794  0.1813  0.5341 -0.3134
 7745TIP3    H223197   5.563   4.599   4.827 -0.4366  0.0523  2.1744
 7746TIP3   OH223198   2.327   5.146   4.819  0.1459 -0.5445  0.8108
 7746TIP3    H123199   2.363   5.083   4.757  0.1218 -0.2187  0.4594
 7746TIP3    H223200   2.238   5.115   4.836 -0.2869  0.0325 -0.2803
 7747TIP3   OH223201   3.279   5.417   2.086 -0.1159 -0.4242 -0.5223
 7747TIP3    H123202   3.241   5.503   2.102  0.9511 -0.6910  4.0468
 7747TIP3    H223203   3.207   5.356   2.102  0.2298 -0.5452  0.6608
 7748TIP3   OH223204   2.701   4.325   2.509  0.0581  0.3060  0.0218
 7748TIP3    H123205   2.611   4.323   2.479  0.5012 -1.8434 -1.2327
 7748TIP3    H223206   2.753   4.325   2.429  1.1878 -0.1287  0.7382
 7749TIP3   OH223207   3.511   4.627   5.410 -0.5232  0.1880 -0.0664
 7749TIP3    H123208   3.490   4.590   5.496 -0.6695 -1.3487 -0.7534
 7749TIP3    H223209   3.452   4.703   5.402  0.0418  0.8177  1.5092
 7750TIP3   OH223210   3.754   5.251   3.828 -0.0133 -0.1821  0.0183
 7750TIP3    H123211   3.709   5.292   3.902  0.4742 -0.6718  0.5839
 7750TIP3    H223212   3.687   5.199   3.785 -0.3074  0.1387  0.0858
 7751TIP3   OH223213   6.364   4.036   3.335 -0.0171  0.1161  0.7573
 7751TIP3    H123214   6.323   4.008   3.253 -0.5658  1.7300  0.4645
 7751TIP3    H223215   6.456   4.047   3.313  0.2408 -1.5969  0.9222
 7752TIP3   OH223216   6.466   0.137   5.767 -0.1504 -0.1118  0.2633
 7752TIP3    H123217   6.478   0.230   5.789 -2.2829  0.2842 -0.0701
 7752TIP3    H223218   6.496   0.130   5.676 -0.3834  0.3627  0.1443
 7753TIP3   OH223219   2.061   5.406   4.135  0.4258 -0.6609 -0.3849
 7753TIP3    H123220   2.069   5.469   4.207  0.9582 -0.7104 -0.3954
 7753TIP3    H223221   1.998   5.446   4.075  1.2154  0.1618 -0.6868
 7754TIP3   OH223222   3.055   5.268   3.619  0.1390  0.6186  0.1582
 7754TIP3    H123223   3.142   5.249   3.584 -0.4156 -0.0618 -0.9110
 7754TIP3    H223224   2.998   5.269   3.542 -0.5518  2.6470  0.6549
 7755TIP3   OH223225   3.927   5.605   3.609 -0.2432  0.3793  0.4608
 7755TIP3    H123226   3.888   5.608   3.697 -0.7442 -0.2916  0.2665
 7755TIP3    H223227   4.021   5.606   3.625 -0.3352  0.8493  0.9871
 7756TIP3   OH223228   6.902   0.524   3.348  0.2430 -0.6769 -0.1231
 7756TIP3    H123229   6.939   0.504   3.262  1.4769 -0.2757  0.3064
 7756TIP3    H223230   6.977   0.546   3.402 -0.7186  1.2443  0.4763
 7757TIP3   OH223231   0.058   1.183   5.509 -0.3517 -0.5509  0.1557
 7757TIP3    H123232   0.131   1.203   5.568 -1.3455 -1.1996  1.6325
 7757TIP3    H223233   0.056   1.087   5.505 -1.9307 -0.5814  1.1842
 7758TIP3   OH223234   0.930   7.239   5.716  0.5118 -0.4358  0.1028
 7758TIP3    H123235   0.922   7.215   5.623 -0.5940  0.6246 -0.0994
 7758TIP3    H223236   0.849   7.207   5.756  1.1872 -1.2769  0.7939
 7759TIP3   OH223237   1.973   4.648   4.507  0.2842  0.4270  0.0614
 7759TIP3    H123238   1.973   4.580   4.439 -0.8129 -0.0579  0.5366
 7759TIP3    H223239   1.882   4.650   4.539  0.4619  1.6589  0.5065
 7760TIP3   OH223240   6.403   0.421   5.276 -0.4654 -0.2973  0.6471
 7760TIP3    H123241   6.494   0.445   5.257  0.0382 -3.0948 -0.7252
 7760TIP3    H223242   6.380   0.473   5.353  2.5091 -0.0659  1.4345
 7761TIP3   OH223243   1.436   5.040   4.839  0.7765  0.1311  0.4864
 7761TIP3    H123244   1.463   4.989   4.916 -1.5632 -0.2867  1.0665
 7761TIP3    H223245   1.467   4.989   4.764 -2.6200 -2.8532  1.0205
 7762TIP3   OH223246   3.803   5.947   4.324  0.5522 -0.0496 -0.1026
 7762TIP3    H123247   3.776   6.020   4.269 -0.1607 -0.2681 -0.0495
 7762TIP3    H223248   3.828   5.878   4.262  1.6222  0.3807 -0.1526
 7763TIP3   OH223249   5.679   5.484   1.173  0.2699  0.4512 -0.5413
 7763TIP3    H123250   5.715   5.551   1.115  2.2066 -0.7583 -0.7761
 7763TIP3    H223251   5.751   5.423   1.187 -0.4289  0.2189  2.4102
 7764TIP3   OH223252   0.380   0.106   3.074 -0.8161  0.0703 -0.3906
 7764TIP3    H123253   0.381   0.138   2.984  0.5769  1.7251  0.2097
 7764TIP3    H223254   0.287   0.089   3.092 -1.3719  2.0225 -1.3257
 7765TIP3   OH223255   5.765   5.004   4.578  0.3004 -1.1197  0.1669
 7765TIP3    H123256   5.671   4.988   4.567 -0.0862  1.5028 -0.8194
 7765TIP3    H223257   5.788   4.959   4.659 -2.2062 -0.3013  1.3670
 7766TIP3   OH223258   3.372   1.696   6.306  0.5697  0.3137  0.0876
 7766TIP3    H123259   3.445   1.752   6.331  2.9601 -2.9265  0.8282
 7766TIP3    H223260   3.409   1.607   6.306 -2.5029 -1.1092 -2.9517
 7767TIP3   OH223261   5.602   6.034   6.051  0.0508 -0.5785  0.1357
 7767TIP3    H123262   5.684   5.988   6.066  0.5711  0.0208 -0.8285
 7767TIP3    H223263   5.600   6.050   5.956 -0.3237  1.0116  0.3992
 7768TIP3   OH223264   7.367   1.249   2.590 -0.0977  0.5074  0.0536
 7768TIP3    H123265   7.324   1.323   2.547  0.9966  1.3313  0.3467
 7768TIP3    H223266   7.363   1.270   2.683  3.4656  2.0381 -0.0713
 7769TIP3   OH223267   5.736   5.998   4.395 -0.1463  0.1042  0.1151
 7769TIP3    H123268   5.686   5.982   4.475 -1.4892  0.8647 -0.5692
 7769TIP3    H223269   5.804   6.060   4.422  2.5163 -3.3722  1.8092
 7770TIP3   OH223270   3.688   6.876   4.343  0.1238  0.2111 -0.7476
 7770TIP3    H123271   3.704   6.782   4.332 -0.5406 -0.0109  0.0780
 7770TIP3    H223272   3.657   6.884   4.433 -0.3886  1.1459 -1.0062
 7771TIP3   OH223273   1.291   7.209   3.038 -0.3824  0.0261  0.2584
 7771TIP3    H123274   1.240   7.165   2.970 -0.2881 -1.2098  0.9611
 7771TIP3    H223275   1.382   7.198   3.010 -0.4518  1.5703 -0.6073
 7772TIP3   OH223276   7.274   4.374   3.057 -0.0997  0.0968 -0.5444
 7772TIP3    H123277   7.285   4.300   2.997 -1.3549  0.0764 -0.7625
 7772TIP3    H223278   7.201   4.349   3.112  1.4946 -0.1850  1.4820
 7773TIP3   OH223279   7.214   5.542   2.798  0.6364 -0.2914  0.0853
 7773TIP3    H123280   7.171   5.498   2.872 -0.0354  1.6550  0.8904
 7773TIP3    H223281   7.237   5.471   2.739 -0.1996 -1.7565  1.4565
 7774TIP3   OH223282   6.903   7.272   1.802 -0.2892 -0.8402  0.0907
 7774TIP3    H123283   6.844   7.209   1.844  0.6348 -1.3981  0.5758
 7774TIP3    H223284   6.989   7.253   1.839  0.5366 -1.2525 -1.9487
 7775TIP3   OH223285   7.806   3.998   2.835 -0.6834 -0.3706  0.7056
 7775TIP3    H123286   7.716   3.990   2.866 -0.0687 -1.4560  2.2776
 7775TIP3    H223287   7.848   4.056   2.898 -0.7058  1.5661 -1.0125
 7776TIP3   OH223288   6.725   5.988   3.881 -0.0393 -0.4152 -0.2174
 7776TIP3    H123289   6.656   5.936   3.840 -0.9366  0.8885 -0.3941
 7776TIP3    H223290   6.745   5.942   3.962 -0.9363 -0.9359 -0.2858
 7777TIP3   OH223291   4.272   6.703   1.949 -0.1800 -0.0478  0.7483
 7777TIP3    H123292   4.339   6.701   2.018 -0.5096 -0.0786  1.0726
 7777TIP3    H223293   4.233   6.790   1.957  1.1636  0.7222 -0.7475
 7778TIP3   OH223294   0.937   1.157   2.738  0.2870  0.2753 -0.2335
 7778TIP3    H123295   0.945   1.231   2.798  1.9020 -0.3920  0.4260
 7778TIP3    H223296   0.866   1.104   2.774 -1.5352  1.9879 -1.2661
 7779TIP3   OH223297   7.618   4.262   3.975  0.6129 -0.1151 -0.7048
 7779TIP3    H123298   7.567   4.234   4.051  2.1900 -1.3823 -0.0837
 7779TIP3    H223299   7.647   4.350   3.998  0.6682 -0.2985 -0.0505
 7780TIP3   OH223300   1.199   0.290   1.906 -0.1212  0.4474  0.0484
 7780TIP3    H123301   1.287   0.319   1.933 -0.4401  2.0064 -0.5710
 7780TIP3    H223302   1.215   0.210   1.855  1.0504  1.4188 -1.1418
 7781TIP3   OH223303   7.392   0.047   4.292 -0.0232  0.6915  0.1597
 7781TIP3    H123304   7.302   0.077   4.301 -0.1257  0.3017  0.4792
 7781TIP3    H223305   7.400   0.020   4.201 -0.4441  0.0663  0.2992
 7782TIP3   OH223306   2.166   6.178   3.469  0.7563  0.4433  0.1860
 7782TIP3    H123307   2.074   6.178   3.443  0.7676 -1.3640  0.1305
 7782TIP3    H223308   2.182   6.267   3.501 -0.6123  1.1902 -1.1609
 7783TIP3   OH223309   6.476   5.548   0.134  0.2423 -0.4093 -0.1657
 7783TIP3    H123310   6.470   5.469   0.188  0.3356 -0.3296 -0.0393
 7783TIP3    H223311   6.489   5.619   0.197  1.1652 -0.4121 -0.3564
 7784TIP3   OH223312   3.570   4.642   5.762 -0.2546 -0.3681 -0.3419
 7784TIP3    H123313   3.506   4.687   5.817  0.8054 -0.3272  0.9056
 7784TIP3    H223314   3.582   4.698   5.686 -0.1945  0.6348  0.4035
 7785TIP3   OH223315   3.866   6.982   4.950 -0.5332 -0.0626  0.3482
 7785TIP3    H123316   3.889   7.043   4.880 -0.7387  0.9378  1.1392
 7785TIP3    H223317   3.940   6.922   4.956 -0.6185 -0.3031 -0.8806
 7786TIP3   OH223318   0.953   0.267   1.242 -0.0270  0.0336 -0.0451
 7786TIP3    H123319   0.883   0.202   1.233 -0.9478  0.9800  0.1569
 7786TIP3    H223320   0.976   0.266   1.334  0.9433 -1.0071 -0.2943
 7787TIP3   OH223321   1.539   1.096   4.842 -0.1794 -0.1777 -0.1267
 7787TIP3    H123322   1.517   1.182   4.878 -2.1170 -0.2331 -1.1104
 7787TIP3    H223323   1.562   1.113   4.751  0.1564 -0.5992 -0.1193
 7788TIP3   OH223324   6.929   4.352   3.929 -0.6844  0.1770  0.5963
 7788TIP3    H123325   6.944   4.444   3.948 -1.3729  0.4945 -0.3817
 7788TIP3    H223326   6.941   4.344   3.834 -1.7919 -0.5002  0.5005
 7789TIP3   OH223327   7.314   0.440   2.828  0.5546  0.2755  0.6966
 7789TIP3    H123328   7.357   0.463   2.745  1.8515  0.3381  1.3645
 7789TIP3    H223329   7.371   0.478   2.895  0.1814 -0.8312  1.6545
 7790TIP3   OH223330   5.222   5.951   1.816  0.0813  0.3632 -0.3058
 7790TIP3    H123331   5.238   6.005   1.738  0.1167  0.0437 -0.5183
 7790TIP3    H223332   5.138   5.982   1.850 -0.0231  0.3716 -0.5773
 7791TIP3   OH223333   7.426   0.034   2.831  1.4265  0.0264  0.3625
 7791TIP3    H123334   7.432   0.006   2.922  1.2989  1.8954  0.9498
 7791TIP3    H223335   7.516   0.027   2.798  1.7391  0.7516  1.0504
 7792TIP3   OH223336   5.119   4.776   0.536  0.1849  0.1851  0.2555
 7792TIP3    H123337   5.137   4.709   0.602 -5.1604 -1.8152 -0.0327
 7792TIP3    H223338   5.099   4.855   0.587 -0.6218 -0.4355  0.9151
 7793TIP3   OH223339   7.523   5.218   2.781 -0.3161 -0.2173 -0.2015
 7793TIP3    H123340   7.505   5.297   2.831 -3.1432 -0.6897 -0.3815
 7793TIP3    H223341   7.483   5.148   2.832  0.6323 -1.2967 -0.9155
 7794TIP3   OH223342   6.041   0.112   3.125 -0.0770 -0.4449 -0.1003
 7794TIP3    H123343   6.136   0.116   3.115 -0.0120  0.0205  0.6571
 7794TIP3    H223344   6.021   0.175   3.195 -0.9340 -0.5818 -0.2109
 7795TIP3   OH223345   6.669   4.771   3.558 -0.3107  0.1990 -0.1488
 7795TIP3    H123346   6.588   4.785   3.508 -0.5619 -0.6269  0.0160
 7795TIP3    H223347   6.642   4.771   3.649 -0.3476 -1.4417 -0.1472
 7796TIP3   OH223348   6.801   5.471   2.492  0.3085 -0.4770  0.2982
 7796TIP3    H123349   6.877   5.529   2.494  0.6114 -0.7467 -1.6592
 7796TIP3    H223350   6.744   5.508   2.425 -0.4853 -1.2277  0.5478
 7797TIP3   OH223351   5.668   6.000   3.229  0.2165  0.4021 -0.4169
 7797TIP3    H123352   5.601   5.937   3.203  1.7169 -1.0798 -0.7835
 7797TIP3    H223353   5.649   6.018   3.321 -0.1650 -0.6780 -0.2778
 7798TIP3   OH223354   5.309   5.418   3.669  0.1545 -1.3998 -0.1155
 7798TIP3    H123355   5.261   5.351   3.620  0.2850 -1.1521 -0.5828
 7798TIP3    H223356   5.401   5.395   3.658  0.2071 -1.0401 -0.4232
 7799TIP3   OH223357   4.234   6.381   3.057  0.2282 -0.1583 -0.0163
 7799TIP3    H123358   4.300   6.366   3.124  0.3697  1.7037  0.2950
 7799TIP3    H223359   4.237   6.476   3.041 -2.1362 -0.0815 -0.2194
 7800TIP3   OH223360   0.480   1.771   1.746 -0.1611 -0.3176 -0.0855
 7800TIP3    H123361   0.520   1.837   1.802 -0.2131  1.4440 -2.0333
 7800TIP3    H223362   0.386   1.788   1.752 -0.2231 -0.6759 -0.0304
 7801TIP3   OH223363   6.010   7.189   5.307 -0.0777 -0.2973 -0.8793
 7801TIP3    H123364   6.008   7.277   5.268 -2.4117  0.0756 -0.0240
 7801TIP3    H223365   5.928   7.149   5.278 -0.5772 -0.9917  1.4340
 7802TIP3   OH223366   4.581   5.994   2.675  0.2796  0.0408  0.5541
 7802TIP3    H123367   4.569   6.027   2.586  0.6019  0.8022  0.7821
 7802TIP3    H223368   4.676   5.991   2.687  0.3991 -4.8377 -0.8388
 7803TIP3   OH223369   4.930   6.278   3.148  0.0603 -0.5123 -0.0656
 7803TIP3    H123370   4.977   6.276   3.064  0.1650 -0.5561 -0.0057
 7803TIP3    H223371   4.893   6.367   3.152 -1.2935 -1.0233 -0.8981
 7804TIP3   OH223372   0.837   0.357   4.116 -0.3756  0.1556  0.1024
 7804TIP3    H123373   0.830   0.367   4.022 -0.0592 -0.1485  0.0422
 7804TIP3    H223374   0.827   0.262   4.131 -1.0431  0.2733  0.4286
 7805TIP3   OH223375   0.728   0.162   2.944  0.4814 -0.3646  0.5219
 7805TIP3    H123376   0.774   0.138   3.025  1.4116  0.0041  0.1142
 7805TIP3    H223377   0.752   0.093   2.882  0.4523 -0.1948  0.3204
 7806TIP3   OH223378   6.242   5.888   2.251  0.2827  0.1625  0.3489
 7806TIP3    H123379   6.251   5.959   2.188  3.7504 -1.0474 -0.6375
 7806TIP3    H223380   6.326   5.887   2.299 -0.8241 -1.3918  2.3496
 7807TIP3   OH223381   5.819   5.702   4.026  0.2990  0.3657 -0.1211
 7807TIP3    H123382   5.837   5.706   3.932  1.8714  2.5749  0.2207
 7807TIP3    H223383   5.761   5.777   4.042 -1.5203 -1.1194  0.3812
 7808TIP3   OH223384   6.913   0.959   1.709  0.3333  0.5292 -0.0786
 7808TIP3    H123385   6.904   0.864   1.701 -0.5262  0.6625 -0.7346
 7808TIP3    H223386   6.908   0.992   1.620  2.2024  1.0748 -0.0119
 7809TIP3   OH223387   4.080   5.927   3.692 -0.1238 -0.2911 -0.3101
 7809TIP3    H123388   4.067   5.960   3.603  0.4830  0.3848 -0.1568
 7809TIP3    H223389   4.092   5.833   3.681  0.4831 -0.1425 -1.0105
 7810TIP3   OH223390   5.995   0.117   5.379  0.4204 -0.4433 -0.2452
 7810TIP3    H123391   5.933   0.074   5.319  1.1906 -1.0072 -0.6560
 7810TIP3    H223392   6.020   0.197   5.334 -1.1081  0.5256  0.5730
 7811TIP3   OH223393   6.020   7.373   4.085  0.3806 -0.0598 -0.1235
 7811TIP3    H123394   6.003   7.283   4.112 -1.4383  0.5857  1.0199
 7811TIP3    H223395   5.980   7.380   3.998 -1.5183  0.2612  0.7553
 7812TIP3   OH223396   2.708   5.744   3.139 -0.1830 -0.2052  0.2676
 7812TIP3    H123397   2.754   5.827   3.151 -0.1228 -0.2247  0.1786
 7812TIP3    H223398   2.778   5.678   3.136 -0.1897 -0.1869 -0.3064
 7813TIP3   OH223399   3.612   6.067   4.044  0.2259  0.1541  0.4319
 7813TIP3    H123400   3.555   6.059   3.967  1.2553 -2.2554 -0.1264
 7813TIP3    H223401   3.700   6.077   4.007  0.5670  0.4236  1.3123
 7814TIP3   OH223402   5.346   6.519   4.331  0.2384 -0.4017 -0.2772
 7814TIP3    H123403   5.344   6.538   4.424  1.6018 -0.4047 -0.2451
 7814TIP3    H223404   5.365   6.604   4.289  0.9229 -0.6545 -0.4743
 7815TIP3   OH223405   6.085   5.268   2.718  0.5638 -0.1609 -0.3928
 7815TIP3    H123406   6.121   5.346   2.761  1.7778 -0.7871 -0.2735
 7815TIP3    H223407   6.114   5.195   2.773 -0.4038 -0.7261 -0.6178
 7816TIP3   OH223408   5.234   4.937   3.907 -0.0644  0.1926 -0.0537
 7816TIP3    H123409   5.286   4.917   3.829  0.5518  1.0230  0.1442
 7816TIP3    H223410   5.290   4.913   3.980 -0.6659 -0.6402  0.1436
 7817TIP3   OH223411   4.697   5.212   4.291 -0.3487 -0.1687 -0.0371
 7817TIP3    H123412   4.779   5.171   4.265  0.0596 -0.5938  1.8317
 7817TIP3    H223413   4.693   5.293   4.240  0.3472 -1.0152 -1.4481
 7818TIP3   OH223414   5.067   6.571   0.816 -0.0540 -0.5338  1.1346
 7818TIP3    H123415   5.063   6.574   0.721  2.3772  1.2449  1.0398
 7818TIP3    H223416   5.009   6.641   0.845 -0.1338 -0.5210  0.9423
 7819TIP3   OH223417   7.055   6.837   3.116  0.7627  0.3416  0.4872
 7819TIP3    H123418   7.053   6.775   3.189  1.0830  0.0958  0.2853
 7819TIP3    H223419   6.991   6.904   3.141 -0.8380 -0.9354 -0.0622
 7820TIP3   OH223420   2.329   6.195   5.728  0.0466  0.1349  0.2237
 7820TIP3    H123421   2.373   6.278   5.750  1.0600 -0.3829  0.1408
 7820TIP3    H223422   2.391   6.149   5.672 -0.9035 -0.2894 -0.4924
 7821TIP3   OH223423   7.059   6.728   2.538 -0.1114  0.1185 -0.4741
 7821TIP3    H123424   7.063   6.657   2.474 -0.9490 -1.5036  1.2232
 7821TIP3    H223425   7.151   6.756   2.548 -0.0505  0.9606 -2.9218
 7822TIP3   OH223426   6.083   6.269   5.172  0.6622 -0.3135 -0.4845
 7822TIP3    H123427   6.060   6.176   5.173 -0.2078 -0.1033  1.0522
 7822TIP3    H223428   6.118   6.285   5.259 -0.0585  1.0003 -0.4257
 7823TIP3   OH223429   5.361   6.118   4.258 -0.3810  0.2561 -0.3071
 7823TIP3    H123430   5.365   6.081   4.346 -2.7321 -0.4325 -0.4488
 7823TIP3    H223431   5.341   6.043   4.201  0.6932  0.7607 -1.3675
 7824TIP3   OH223432   4.967   7.106   3.060 -0.0067  0.2092  0.0334
 7824TIP3    H123433   4.893   7.091   3.118  0.5630  0.1773  0.7500
 7824TIP3    H223434   4.973   7.027   3.007 -0.2225  0.0460  0.2557
 7825TIP3   OH223435   5.424   5.348   1.240 -0.1901  0.2850 -0.1954
 7825TIP3    H123436   5.513   5.383   1.243 -0.3713  0.7585 -0.3611
 7825TIP3    H223437   5.376   5.408   1.183 -0.3278 -0.6075 -1.0258
 7826TIP3   OH223438   7.734   5.946   3.085 -0.0301 -0.0368 -0.0696
 7826TIP3    H123439   7.778   5.967   3.167 -0.1339  3.3871 -0.8232
 7826TIP3    H223440   7.805   5.920   3.026  0.1683 -1.3383  0.7182
 7827TIP3   OH223441   5.634   5.029   1.337 -0.0759 -0.1527  0.5623
 7827TIP3    H123442   5.683   5.090   1.392  1.2061 -0.4987 -0.1682
 7827TIP3    H223443   5.543   5.049   1.354  0.2840 -0.2809  2.8432
 7828TIP3   OH223444   6.813   4.071   2.047 -0.2262  0.6322 -0.0977
 7828TIP3    H123445   6.868   4.138   2.088  1.2471 -0.4283 -0.3061
 7828TIP3    H223446   6.727   4.113   2.038  0.8399  2.7599 -0.8587
 7829TIP3   OH223447   0.135   5.119   1.662 -0.2948 -0.5591  0.3230
 7829TIP3    H123448   0.056   5.163   1.632 -1.4347 -2.0533  1.1099
 7829TIP3    H223449   0.202   5.145   1.598 -1.4788  0.4576 -0.5278
 7830TIP3   OH223450   4.865   5.012   3.296 -0.0727 -0.2092 -0.6666
 7830TIP3    H123451   4.946   5.063   3.301 -0.6381  0.6565 -0.0536
 7830TIP3    H223452   4.806   5.067   3.244 -0.3265 -0.7445 -0.9382
 7831TIP3   OH223453   4.984   6.824   3.312 -0.2633 -0.6997 -0.1041
 7831TIP3    H123454   4.899   6.865   3.296 -0.2368 -0.4822  0.2858
 7831TIP3    H223455   5.047   6.892   3.290 -0.2113 -0.6257  0.2593
 7832TIP3   OH223456   5.866   7.044   3.861  0.4586 -0.0560 -0.5844
 7832TIP3    H123457   5.953   7.010   3.838  0.3588  0.5963 -1.9571
 7832TIP3    H223458   5.805   6.985   3.817  0.2891  2.1248 -3.4018
 7833TIP3   OH223459   6.641   6.964   4.952 -0.0522  0.1599 -0.2366
 7833TIP3    H123460   6.734   6.967   4.931  0.0331  1.4362  0.2865
 7833TIP3    H223461   6.634   7.007   5.037 -0.9006 -1.4885  0.5583
 7834TIP3   OH223462   5.600   5.683   3.316  0.1358 -0.3861  0.1571
 7834TIP3    H123463   5.553   5.732   3.384 -0.7102 -0.3629 -0.4390
 7834TIP3    H223464   5.630   5.604   3.360 -0.0521 -0.1800  0.6615
 7835TIP3   OH223465   5.754   4.914   2.291 -0.3788 -0.1027 -0.3622
 7835TIP3    H123466   5.669   4.899   2.250 -0.8840  0.5346  0.4339
 7835TIP3    H223467   5.780   5.002   2.264 -0.4189  0.0724  0.1593
 7836TIP3   OH223468   5.704   5.900   4.672 -0.1431  0.2919 -0.1359
 7836TIP3    H123469   5.767   5.829   4.665 -0.5493 -0.0924  0.0446
 7836TIP3    H223470   5.756   5.976   4.695  0.0586 -0.3643  1.6240
 7837TIP3   OH223471   7.423   1.559   2.267 -0.4896 -0.5893 -0.0024
 7837TIP3    H123472   7.484   1.574   2.195  0.0338 -0.9175  0.3694
 7837TIP3    H223473   7.344   1.608   2.243  0.5187  1.2472  0.3085
 7838TIP3   OH223474   0.261   0.373   2.717 -0.1309  0.5254 -0.3245
 7838TIP3    H123475   0.322   0.427   2.667  1.1009 -0.0858  0.4797
 7838TIP3    H223476   0.288   0.384   2.808  0.5800 -1.9503 -0.2043
 7839TIP3   OH223477   5.519   5.187   2.843 -0.0644 -0.2016  0.0657
 7839TIP3    H123478   5.530   5.146   2.929 -0.4298  0.7793  0.5860
 7839TIP3    H223479   5.541   5.279   2.857 -3.1144  0.6087 -0.1640
 7840TIP3   OH223480   4.422   5.859   4.150 -0.1915 -0.0325 -0.0442
 7840TIP3    H123481   4.440   5.903   4.233 -0.6981 -0.3572  0.2399
 7840TIP3    H223482   4.385   5.774   4.175 -0.5848 -0.0307 -0.6048
 7841TIP3   OH223483   6.633   5.489   2.707  0.0676 -0.7421  0.0250
 7841TIP3    H123484   6.556   5.447   2.669  0.0765  0.0328 -0.8890
 7841TIP3    H223485   6.698   5.488   2.637  0.8330 -1.2371  0.7379
 7842TIP3   OH223486   5.290   5.972   2.388 -0.0506  0.1429 -0.4733
 7842TIP3    H123487   5.370   5.998   2.341  0.3795 -0.6005 -0.1678
 7842TIP3    H223488   5.219   6.000   2.332  0.4513 -0.2852 -1.3425
 7843TIP3   OH223489   6.737   5.229   1.473 -0.2618 -0.3664 -0.7183
 7843TIP3    H123490   6.775   5.209   1.559 -0.7654  2.8931  0.3285
 7843TIP3    H223491   6.809   5.272   1.425 -1.1092  1.2940 -0.5269
 7844TIP3   OH223492   7.003   4.991   4.673  0.0985  0.1547  0.4311
 7844TIP3    H123493   7.088   4.979   4.716 -0.5100 -0.2810  1.5486
 7844TIP3    H223494   7.018   4.962   4.583  1.6181  1.8830  0.1056
 7845TIP3   OH223495   5.507   4.875   2.188  0.6496  0.1147  0.5328
 7845TIP3    H123496   5.465   4.821   2.255  0.7522  0.3715  0.8077
 7845TIP3    H223497   5.446   4.875   2.115 -0.2114  1.1738  1.2450
 7846TIP3   OH223498   0.470   2.024   4.017  0.2845  0.4930  0.6508
 7846TIP3    H123499   0.439   2.052   3.931  0.5905  0.0522  0.3903
 7846TIP3    H223500   0.431   1.937   4.029  0.5411  0.3952  0.7895
 7847TIP3   OH223501   0.254   1.013   2.921  0.1104 -0.7058  0.5497
 7847TIP3    H123502   0.242   1.105   2.946  2.1836 -0.3032  0.1656
 7847TIP3    H223503   0.251   1.013   2.826  2.0468 -0.7223  0.4749
 7848TIP3   OH223504   4.561   6.235   4.588  0.3137  0.1330  0.2287
 7848TIP3    H123505   4.531   6.153   4.548  1.2536 -0.1756  0.1477
 7848TIP3    H223506   4.641   6.256   4.541  0.0151  1.1683  0.1763
 7849TIP3   OH223507   1.786   1.093   3.250 -0.7653  0.3899 -0.2212
 7849TIP3    H123508   1.700   1.135   3.243  0.2042  2.3132 -0.7709
 7849TIP3    H223509   1.836   1.127   3.177  1.6165  2.0179  2.0951
 7850TIP3   OH223510   5.114   7.045   4.227  0.2023 -0.1175  0.1292
 7850TIP3    H123511   5.137   7.006   4.143 -0.3340 -3.1530  1.3412
 7850TIP3    H223512   5.019   7.034   4.233 -0.3227  3.4744 -0.4831
 7851TIP3   OH223513   2.105   1.388   5.871 -0.3223  0.8362 -0.0465
 7851TIP3    H123514   2.200   1.382   5.862 -0.3697  0.6971 -0.4470
 7851TIP3    H223515   2.091   1.394   5.966 -0.0721 -2.1440  0.2251
 7852TIP3   OH223516   5.259   5.780   0.879 -0.4159 -0.5091  0.0113
 7852TIP3    H123517   5.318   5.826   0.819  1.4454 -2.2516  0.3985
 7852TIP3    H223518   5.223   5.848   0.935  0.2564  0.7660 -1.0644
 7853TIP3   OH223519   6.292   0.562   0.072 -0.0950  0.2334  0.1909
 7853TIP3    H123520   6.345   0.529   0.000  1.1709 -2.8929  2.4531
 7853TIP3    H223521   6.353   0.608   0.129 -0.3989 -0.4662  1.1011
 7854TIP3   OH223522   1.702   0.156   3.877 -0.4060 -0.1601 -0.8117
 7854TIP3    H123523   1.732   0.157   3.967 -0.8010 -1.1459 -0.6614
 7854TIP3    H223524   1.763   0.213   3.830  0.8021 -0.9568 -0.2404
 7855TIP3   OH223525   6.891   6.118   2.924 -0.2596 -0.0227 -0.2108
 7855TIP3    H123526   6.868   6.193   2.979  0.1382  1.1321 -1.6026
 7855TIP3    H223527   6.834   6.125   2.848  0.4395 -0.5888 -0.7983
 7856TIP3   OH223528   7.683   0.472   3.235  1.2120  0.0584 -0.1645
 7856TIP3    H123529   7.655   0.478   3.327  1.3389 -1.0165 -0.0533
 7856TIP3    H223530   7.735   0.392   3.231  3.8536  1.7536 -0.4967
 7857TIP3   OH223531   4.576   5.372   4.583 -0.4646  0.5529 -0.5178
 7857TIP3    H123532   4.592   5.375   4.489  1.6116  0.0995 -0.1967
 7857TIP3    H223533   4.488   5.334   4.591 -0.0413 -0.8588 -2.2413
 7858TIP3   OH223534   3.899   5.939   2.562  0.6992 -0.4927  0.1223
 7858TIP3    H123535   3.993   5.946   2.582  0.5241  2.5587  0.0996
 7858TIP3    H223536   3.896   5.934   2.466  0.8227 -0.2331  0.1041
 7859TIP3   OH223537   3.395   7.103   2.717 -0.0135  0.0176 -0.1263
 7859TIP3    H123538   3.377   7.195   2.734 -0.2134 -0.0308 -0.0630
 7859TIP3    H223539   3.341   7.082   2.640  1.3787  0.3987 -1.2242
 7860TIP3   OH223540   7.701   0.234   3.570 -0.0393  0.5819  0.7243
 7860TIP3    H123541   7.772   0.272   3.622  0.8598  1.0062 -0.7604
 7860TIP3    H223542   7.622   0.280   3.598  0.2634  0.0655  2.4371
 7861TIP3   OH223543   4.485   5.980   4.510 -0.0668 -0.6795 -0.2503
 7861TIP3    H123544   4.450   5.896   4.541  0.8319 -1.4202 -1.1909
 7861TIP3    H223545   4.417   6.015   4.453 -1.3770  0.2960  1.8535
 7862TIP3   OH223546   5.004   6.337   3.577  0.0652 -0.3297 -0.0812
 7862TIP3    H123547   4.973   6.427   3.589 -1.4986 -0.7114 -1.1500
 7862TIP3    H223548   5.050   6.338   3.494 -0.0246 -0.5435 -0.1328
 7863TIP3   OH223549   0.724   1.948   4.114 -0.4488 -0.0801  0.0909
 7863TIP3    H123550   0.724   1.977   4.205  2.3498  2.9552 -0.8026
 7863TIP3    H223551   0.646   1.988   4.076 -0.2580  0.7369  0.5465
 7864TIP3   OH223552   6.642   6.903   3.150  0.2089 -0.2337  0.1355
 7864TIP3    H123553   6.723   6.905   3.201  0.1781  0.3258  0.1605
 7864TIP3    H223554   6.671   6.913   3.059  0.0799  1.0938  0.2377
 7865TIP3   OH223555   5.178   5.679   2.801 -0.2758 -0.0107  0.2956
 7865TIP3    H123556   5.157   5.615   2.733 -1.1628  1.1274 -0.5125
 7865TIP3    H223557   5.130   5.647   2.878 -2.3747  0.7556 -0.6487
 7866TIP3   OH223558   7.297   6.460   3.182  0.6625 -0.3145  0.2088
 7866TIP3    H123559   7.388   6.434   3.195  0.8198 -0.1343 -0.5408
 7866TIP3    H223560   7.266   6.404   3.111  0.5370  0.4303 -0.3291
 7867TIP3   OH223561   5.585   6.657   3.551 -0.3575 -0.4614 -0.2365
 7867TIP3    H123562   5.606   6.621   3.465  2.8207 -0.4996  0.4874
 7867TIP3    H223563   5.523   6.728   3.533 -0.0905 -0.7546 -2.4938
 7868TIP3   OH223564   4.287   6.542   0.450  0.3244 -0.4438 -0.0215
 7868TIP3    H123565   4.236   6.616   0.484  0.2494 -0.0990 -0.8798
 7868TIP3    H223566   4.339   6.513   0.525 -0.1307  0.0649  0.4963
 7869TIP3   OH223567   1.084   3.594   2.560 -0.0058 -0.0780  0.0705
 7869TIP3    H123568   1.120   3.655   2.625 -0.3832 -0.0521  0.2580
 7869TIP3    H223569   1.151   3.590   2.491  0.2617  0.1275  0.3169
 7870TIP3   OH223570   4.243   4.099   4.240  0.5538  0.2599 -0.0025
 7870TIP3    H123571   4.161   4.088   4.192  1.0374  0.9563 -1.0251
 7870TIP3    H223572   4.299   4.148   4.180  1.4298  0.5282  1.0127
 7871TIP3   OH223573   3.580   7.314   5.082 -0.0168  0.1756 -0.2627
 7871TIP3    H123574   3.601   7.404   5.105  0.6070 -0.3263  1.1806
 7871TIP3    H223575   3.487   7.304   5.104  0.1370  0.2093  0.3996
 7872TIP3   OH223576   5.267   3.515   2.631  0.6272  0.0528  0.1296
 7872TIP3    H123577   5.326   3.500   2.704  0.3952 -1.5982 -0.0068
 7872TIP3    H223578   5.198   3.570   2.668  1.4496  0.7389  0.6749
 7873TIP3   OH223579   4.512   6.331   2.715  0.3276 -0.4788  0.1838
 7873TIP3    H123580   4.573   6.282   2.770  0.8390 -0.0754 -0.0285
 7873TIP3    H223581   4.433   6.277   2.713  0.0494 -0.1530  1.9199
 7874TIP3   OH223582   6.957   5.349   2.055 -0.1728  0.2221  0.4367
 7874TIP3    H123583   6.944   5.438   2.023 -1.4149 -0.6800 -1.5948
 7874TIP3    H223584   6.871   5.309   2.051  0.3221 -1.0007  1.6509
 7875TIP3   OH223585   7.028   4.324   3.248  0.3458 -0.2472  0.6090
 7875TIP3    H123586   6.991   4.396   3.298  1.1891  0.4938  0.1708
 7875TIP3    H223587   7.071   4.268   3.313  0.8320  0.3406  0.7912
 7876TIP3   OH223588   6.454   5.556   3.129 -0.1714 -0.4448  0.1795
 7876TIP3    H123589   6.358   5.553   3.130 -0.1699 -0.7103 -0.1551
 7876TIP3    H223590   6.480   5.475   3.084  0.2520 -1.0557  1.5028
 7877TIP3   OH223591   2.960   1.616   1.939  0.1824 -0.3842  0.1255
 7877TIP3    H123592   2.880   1.667   1.948  0.2882 -0.4873  1.8532
 7877TIP3    H223593   3.030   1.681   1.936  0.2234 -0.3747  1.1361
 7878TIP3   OH223594   4.845   5.704   1.772 -0.2217  0.1759 -0.5163
 7878TIP3    H123595   4.866   5.652   1.850 -0.6259 -0.2858 -0.7134
 7878TIP3    H223596   4.924   5.698   1.718 -0.4150 -0.5707 -0.7207
 7879TIP3   OH223597   3.878   6.379   2.848  0.0616  0.9133 -0.2784
 7879TIP3    H123598   3.844   6.337   2.928  0.3469  1.8785  0.3506
 7879TIP3    H223599   3.828   6.339   2.777  1.6409 -1.9240  0.1268
 7880TIP3   OH223600   6.251   5.441   2.830  0.1379 -0.1642  0.5141
 7880TIP3    H123601   6.236   5.488   2.912 -1.1849 -2.5764  1.7298
 7880TIP3    H223602   6.295   5.360   2.857 -2.5617 -2.1532 -0.8458
 7881TIP3   OH223603   3.423   7.280   2.443  0.0049  0.4122 -0.7413
 7881TIP3    H123604   3.330   7.297   2.428 -0.0778  0.0013 -0.6988
 7881TIP3    H223605   3.468   7.344   2.388 -0.2876 -1.6457 -3.5147
 7882TIP3   OH223606   0.443   0.229   1.920  1.1489 -0.3719  0.6141
 7882TIP3    H123607   0.394   0.307   1.893  1.2988  0.3759  2.4526
 7882TIP3    H223608   0.535   0.253   1.909  1.2148 -0.0022  1.9345
 7883TIP3   OH223609   1.689   0.345   2.433 -0.1443  0.2614  0.7786
 7883TIP3    H123610   1.756   0.357   2.366  0.1607 -0.7479  0.8929
 7883TIP3    H223611   1.640   0.268   2.404 -1.6520  1.3396  0.3710
 7884TIP3   OH223612   5.566   6.511   3.978 -0.2438  0.1973 -0.1297
 7884TIP3    H123613   5.580   6.491   4.070 -1.0973 -1.3148 -0.3134
 7884TIP3    H223614   5.532   6.430   3.940 -0.9197  1.1137 -1.5458
 7885TIP3   OH223615   5.346   0.435   3.734 -0.3426 -0.1420  0.3165
 7885TIP3    H123616   5.391   0.363   3.690  0.9489  0.5221  0.5063
 7885TIP3    H223617   5.254   0.409   3.735 -0.0835 -1.1634 -0.8079
 7886TIP3   OH223618   5.658   0.570   4.660  0.2207  0.2404 -0.1376
 7886TIP3    H123619   5.732   0.577   4.600  0.3876  1.4735  0.2065
 7886TIP3    H223620   5.593   0.630   4.625 -0.4331 -0.4845 -0.1700
 7887TIP3   OH223621   0.741   0.671   4.497  0.5856  0.3946  0.1752
 7887TIP3    H123622   0.768   0.649   4.408  1.8031 -2.2827  1.1374
 7887TIP3    H223623   0.823   0.691   4.543 -0.0108  1.5879  0.7582
 7888TIP3   OH223624   7.434   0.798   2.763 -0.2360  0.0093  0.2108
 7888TIP3    H123625   7.482   0.726   2.805 -1.6757 -0.2670  1.3885
 7888TIP3    H223626   7.501   0.866   2.750  0.6503 -0.6625  1.1350
 7889TIP3   OH223627   6.762   6.795   2.111  0.1789  0.0205 -0.5783
 7889TIP3    H123628   6.839   6.842   2.078  0.5368  1.1420  1.7142
 7889TIP3    H223629   6.705   6.864   2.145 -1.6661 -0.8414 -1.8729
 7890TIP3   OH223630   6.790   1.023   4.802  0.2755 -0.4192 -0.1180
 7890TIP3    H123631   6.774   1.105   4.756  0.6359 -0.7108 -0.7672
 7890TIP3    H223632   6.728   0.962   4.764  0.7700 -0.7356 -0.4243
 7891TIP3   OH223633   5.476   5.713   3.627 -0.4255  0.0357 -0.2659
 7891TIP3    H123634   5.411   5.672   3.684 -1.4487  1.4594 -0.3813
 7891TIP3    H223635   5.541   5.644   3.611 -1.1203 -0.9457  1.0666
 7892TIP3   OH223636   4.674   6.869   4.920 -0.3817  0.4453 -0.6659
 7892TIP3    H123637   4.698   6.902   4.833  0.6365  0.7027 -0.3025
 7892TIP3    H223638   4.647   6.779   4.904  1.0598  0.0645 -1.1011
 7893TIP3   OH223639   6.604   6.561   2.146 -0.1214  0.0620  0.1447
 7893TIP3    H123640   6.657   6.640   2.139 -1.1329  0.7450  0.0588
 7893TIP3    H223641   6.525   6.589   2.192  0.3037 -1.3161  1.7354
 7894TIP3   OH223642   4.067   6.703   1.188  0.0951 -0.1464  0.0360
 7894TIP3    H123643   4.116   6.784   1.195 -0.1262 -0.0709  0.7607
 7894TIP3    H223644   4.100   6.648   1.260 -0.0521 -0.5354 -0.1899
 7895TIP3   OH223645   1.732   0.839   3.222 -0.0752 -0.2156  0.0316
 7895TIP3    H123646   1.761   0.930   3.227 -0.1750 -0.2034  0.3679
 7895TIP3    H223647   1.721   0.812   3.313 -0.7932 -0.3251 -0.0881
 7896TIP3   OH223648   6.167   1.769   2.259  0.3913  0.0664 -0.0787
 7896TIP3    H123649   6.220   1.845   2.234 -0.0337  0.0571 -1.0296
 7896TIP3    H223650   6.209   1.695   2.216  1.3932 -0.4047  1.6576
 7897TIP3   OH223651   4.595   5.062   3.382  0.3984  0.6063 -0.1403
 7897TIP3    H123652   4.524   5.010   3.420  0.5489 -0.8966 -1.8701
 7897TIP3    H223653   4.667   5.000   3.370  0.9188  1.4168 -1.3167
 7898TIP3   OH223654   0.782   0.029   5.779 -0.0840  0.5715 -0.2169
 7898TIP3    H123655   0.688   0.036   5.795  0.2540  3.2963  0.8524
 7898TIP3    H223656   0.789  -0.019   5.696 -2.2875 -2.0134  1.0373
 7899TIP3   OH223657   5.369   5.452   1.536 -0.4653 -0.8855 -0.5264
 7899TIP3    H123658   5.430   5.525   1.538 -1.8188  0.2597 -0.0028
 7899TIP3    H223659   5.364   5.427   1.444 -0.0800 -0.2454 -0.7213
 7900TIP3   OH223660   1.018   0.102   2.684 -0.2572 -0.5321  0.2329
 7900TIP3    H123661   1.113   0.105   2.697 -0.3200  1.5632  0.3265
 7900TIP3    H223662   1.006   0.133   2.594 -1.0164  1.6223  1.0640
 7901TIP3   OH223663   4.756   6.248   1.380 -0.3114  0.0101 -0.2169
 7901TIP3    H123664   4.794   6.336   1.381  0.4253 -0.3218  1.2579
 7901TIP3    H223665   4.680   6.256   1.321  1.4270  0.9068 -2.3937
 7902TIP3   OH223666   6.648   5.604   3.326 -0.7815 -0.4499  0.2963
 7902TIP3    H123667   6.573   5.567   3.278 -1.1884  0.5132  0.1652
 7902TIP3    H223668   6.629   5.698   3.330  0.3783 -0.2139  0.3477
 7903TIP3   OH223669   3.611   7.114   3.912  0.6987 -0.1509 -0.1673
 7903TIP3    H123670   3.632   7.195   3.865 -3.9298  1.0765 -0.3796
 7903TIP3    H223671   3.590   7.051   3.842  0.1060 -0.2367  0.0855
 7904TIP3   OH223672   6.482   5.050   3.798  0.0979  0.0451  0.3523
 7904TIP3    H123673   6.471   5.129   3.745  2.2347  0.9934  1.3129
 7904TIP3    H223674   6.392   5.027   3.824 -1.0225 -0.4088 -3.5523
 7905TIP3   OH223675   0.883   6.601   2.128 -0.3148 -0.4670 -0.0654
 7905TIP3    H123676   0.979   6.606   2.122 -0.3484  0.3012  0.0232
 7905TIP3    H223677   0.866   6.566   2.216 -0.1260 -0.1720  0.0893
 7906TIP3   OH223678   6.160   6.219   3.482  0.6504  0.3011  0.4681
 7906TIP3    H123679   6.075   6.264   3.475  0.4868  0.0502  0.8577
 7906TIP3    H223680   6.142   6.143   3.537  0.7327 -0.7244 -0.8980
 7907TIP3   OH223681   5.075   6.891   3.621 -0.2700  0.5532 -0.3487
 7907TIP3    H123682   5.085   6.918   3.530 -0.8615  2.6996  0.1999
 7907TIP3    H223683   5.146   6.935   3.668  1.0271 -1.8158  0.0175
 7908TIP3   OH223684   1.129   1.707   2.008 -0.1647  0.1444  0.0310
 7908TIP3    H123685   1.223   1.691   2.021 -0.7345 -1.5568  2.3864
 7908TIP3    H223686   1.096   1.624   1.971 -0.9242  0.3510  0.2425
 7909TIP3   OH223687   6.472   7.327   4.279 -0.0730 -0.0764 -0.0474
 7909TIP3    H123688   6.400   7.264   4.279 -0.6118  0.5179  1.7709
 7909TIP3    H223689   6.513   7.317   4.193 -1.3223 -1.5629 -0.4790
 7910TIP3   OH223690   5.256   5.464   5.381 -0.3552 -0.0522 -0.0374
 7910TIP3    H123691   5.267   5.416   5.299  0.3875 -1.2067  0.7161
 7910TIP3    H223692   5.341   5.457   5.424 -1.3405 -1.3506  1.8174
 7911TIP3   OH223693   7.434   5.021   2.374  0.2582 -0.4330 -0.4917
 7911TIP3    H123694   7.439   5.033   2.279 -0.3496  0.7567 -0.3791
 7911TIP3    H223695   7.343   4.997   2.391  0.0050  0.8320 -0.0535
 7912TIP3   OH223696   5.491   5.632   4.530  0.4374  0.2243 -0.2050
 7912TIP3    H123697   5.396   5.640   4.522  0.3758  0.3011  0.5428
 7912TIP3    H223698   5.510   5.662   4.619  1.2693  1.1482 -0.6830
 7913TIP3   OH223699   5.931   4.035   4.933 -0.0880  0.2525  0.1140
 7913TIP3    H123700   5.879   3.980   4.992  3.2162 -2.5560  0.5094
 7913TIP3    H223701   5.929   3.989   4.849 -0.7841  1.7730 -0.7296
 7914TIP3   OH223702   3.740   6.047   3.414 -0.1432  0.1005  0.1726
 7914TIP3    H123703   3.663   5.992   3.426 -0.1120 -0.2110 -0.9738
 7914TIP3    H223704   3.736   6.074   3.322 -0.7441  2.9140  0.9600
 7915TIP3   OH223705   5.721   6.027   1.750 -0.4015  0.2586  0.0236
 7915TIP3    H123706   5.738   5.988   1.664  0.8929  1.2663 -0.1800
 7915TIP3    H223707   5.791   6.091   1.763 -0.9244  0.5532  1.5722
 7916TIP3   OH223708   5.930   6.382   3.516  0.2171 -0.0289 -0.3981
 7916TIP3    H123709   5.932   6.477   3.527 -0.4712  0.0823 -1.1900
 7916TIP3    H223710   5.844   6.356   3.550  1.3761 -0.6850  2.1803
 7917TIP3   OH223711   5.514   1.760   4.998 -0.2808  0.5037 -0.0436
 7917TIP3    H123712   5.589   1.757   5.057  1.2386  2.5366 -1.7811
 7917TIP3    H223713   5.490   1.669   4.984 -0.5585 -0.0417  3.4946
 7918TIP3   OH223714   5.351   6.898   2.745 -0.4266  0.4888 -0.6156
 7918TIP3    H123715   5.419   6.857   2.799 -0.5233  1.3249  0.1615
 7918TIP3    H223716   5.386   6.896   2.656 -0.1286 -0.6300 -0.4781
 7919TIP3   OH223717   2.511   2.222   2.519  0.1779  0.0757 -0.1335
 7919TIP3    H123718   2.596   2.266   2.521 -0.4852  1.3660  1.4166
 7919TIP3    H223719   2.468   2.257   2.441 -0.1078  1.7943  0.7662
 7920TIP3   OH223720   6.371   5.667   3.443  0.1808 -0.1417 -0.1318
 7920TIP3    H123721   6.327   5.638   3.363  1.2071  1.1829 -1.2072
 7920TIP3    H223722   6.310   5.729   3.483 -0.7329 -1.5010  0.6150
 7921TIP3   OH223723   3.332   0.396   4.399 -0.0988  0.4802  0.1334
 7921TIP3    H123724   3.348   0.312   4.442 -2.3863  0.1630  0.3954
 7921TIP3    H223725   3.353   0.379   4.307  0.3513 -0.1022  0.3319
 7922TIP3   OH223726   5.837   6.672   2.757 -0.4270  0.0519  0.3988
 7922TIP3    H123727   5.878   6.758   2.747 -0.1973 -0.0090  0.8195
 7922TIP3    H223728   5.907   6.610   2.740 -0.7745 -0.0548 -0.6506
 7923TIP3   OH223729   6.817   1.650   4.339 -0.5383 -0.0523  0.3518
 7923TIP3    H123730   6.752   1.719   4.322  0.2579  0.9471  1.2643
 7923TIP3    H223731   6.817   1.642   4.435  1.8164  1.0860  0.4833
 7924TIP3   OH223732   6.135   7.196   2.372  0.0082  0.2735  0.8504
 7924TIP3    H123733   6.083   7.135   2.425 -0.2765 -2.4149 -2.3204
 7924TIP3    H223734   6.080   7.273   2.363 -1.3197 -0.5490  1.7431
 7925TIP3   OH223735   2.685   0.558   4.178  0.0816 -0.4274 -0.2035
 7925TIP3    H123736   2.721   0.474   4.150 -0.5832 -0.4344 -1.0576
 7925TIP3    H223737   2.701   0.561   4.272 -1.9922 -2.5662  0.2590
 7926TIP3   OH223738   4.863   6.336   2.084 -0.1279 -0.3754 -0.4856
 7926TIP3    H123739   4.830   6.246   2.089 -1.6717  0.1996 -0.1354
 7926TIP3    H223740   4.800   6.382   2.028  0.2812  0.6461 -0.1210
 7927TIP3   OH223741   7.095   5.874   1.523 -0.5336  0.1906  0.2250
 7927TIP3    H123742   7.078   5.963   1.552  0.4190  0.5129 -0.1904
 7927TIP3    H223743   7.071   5.819   1.599 -2.5037  0.6677 -0.0302
 7928TIP3   OH223744   6.105   6.667   2.983  0.2158 -0.1596  0.8440
 7928TIP3    H123745   6.116   6.603   2.912 -0.1103  0.8862 -0.1680
 7928TIP3    H223746   6.079   6.748   2.938 -1.5689  0.0904  2.3176
 7929TIP3   OH223747   5.770   7.069   5.245  0.0710 -0.1835  0.0052
 7929TIP3    H123748   5.767   7.109   5.158 -1.4053 -0.3742 -0.0542
 7929TIP3    H223749   5.688   7.019   5.251 -0.0805  0.2305  1.6921
 7930TIP3   OH223750   7.424   6.995   3.084 -0.6340  0.4094  0.2769
 7930TIP3    H123751   7.445   7.011   3.176  1.3080  2.9025 -0.5418
 7930TIP3    H223752   7.420   7.082   3.045  0.8099 -0.6713 -2.4337
 7931TIP3   OH223753   7.680   6.967   4.461 -0.2098 -0.7964  0.4332
 7931TIP3    H123754   7.627   7.004   4.390 -2.3650 -0.7515  2.0230
 7931TIP3    H223755   7.769   6.966   4.426 -0.7480  2.0230 -1.1758
 7932TIP3   OH223756   0.082   5.509   1.404 -0.5893 -0.0154 -0.3006
 7932TIP3    H123757   0.032   5.563   1.466 -0.1230  0.5764 -0.4317
 7932TIP3    H223758   0.170   5.546   1.407 -0.5356 -0.0727 -1.2191
 7933TIP3   OH223759   5.087   6.409   4.650  0.2767  0.5602  0.7133
 7933TIP3    H123760   5.065   6.475   4.716  0.6308 -0.3428  1.7445
 7933TIP3    H223761   5.035   6.434   4.573  0.7851  2.3092  0.9301
 7934TIP3   OH223762   6.144   6.794   2.111  0.2903  0.1661  0.3967
 7934TIP3    H123763   6.068   6.851   2.120 -0.6918 -0.9507 -0.7558
 7934TIP3    H223764   6.119   6.713   2.154  1.2371  0.1559  0.9467
 7935TIP3   OH223765   5.342   6.178   3.458 -0.3337  0.1627 -0.2846
 7935TIP3    H123766   5.297   6.247   3.508 -0.3919  0.2231 -0.4212
 7935TIP3    H223767   5.311   6.190   3.368 -0.9138 -0.5080 -0.1743
 7936TIP3   OH223768   6.531   6.319   5.092  0.2715 -0.3996 -0.0197
 7936TIP3    H123769   6.519   6.261   5.017  0.6066  1.3673 -1.4733
 7936TIP3    H223770   6.625   6.319   5.108  0.4022  0.5941 -0.7366
 7937TIP3   OH223771   7.305   5.066   1.865 -1.4236 -0.3789 -0.1267
 7937TIP3    H123772   7.335   4.998   1.805 -1.3850 -0.0871 -0.4362
 7937TIP3    H223773   7.341   5.148   1.829 -0.6981 -0.3020  0.7442
 7938TIP3   OH223774   1.863   0.548   1.416 -0.5019 -0.4731  0.5718
 7938TIP3    H123775   1.818   0.546   1.332  0.8299 -0.1504 -0.1624
 7938TIP3    H223776   1.799   0.515   1.479 -1.3096 -1.2814 -0.6633
 7939TIP3   OH223777   4.218   5.381   3.355  0.1889  0.0644  0.5836
 7939TIP3    H123778   4.209   5.456   3.415  0.0364  0.4714  0.0563
 7939TIP3    H223779   4.288   5.406   3.296  1.6831 -1.1724  1.8060
 7940TIP3   OH223780   4.455   6.080   5.614  0.3786 -0.1861 -0.1036
 7940TIP3    H123781   4.497   5.995   5.602 -0.3939 -0.5318 -0.3594
 7940TIP3    H223782   4.364   6.067   5.588  0.2182  0.6843 -0.0171
 7941TIP3   OH223783   6.848   5.519   4.633  0.0175  0.1090  0.2726
 7941TIP3    H123784   6.836   5.561   4.547 -1.0304 -1.5979 -0.4528
 7941TIP3    H223785   6.903   5.443   4.614  1.4685  0.8252  1.4867
 7942TIP3   OH223786   7.629   6.341   1.168  0.3392  0.2570  0.0935
 7942TIP3    H123787   7.687   6.402   1.213 -0.2029 -0.7629  2.2071
 7942TIP3    H223788   7.635   6.259   1.218 -3.0215  0.1676  0.4837
 7943TIP3   OH223789   5.795   4.178   3.825  0.1632  0.1339  0.1404
 7943TIP3    H123790   5.711   4.222   3.841 -0.5045 -0.9713 -0.2685
 7943TIP3    H223791   5.827   4.155   3.912  0.5708  1.4827  0.3708
 7944TIP3   OH223792   5.635   6.129   3.477  0.1585  0.3922 -0.2807
 7944TIP3    H123793   5.544   6.159   3.481 -0.2617 -0.8335 -0.3012
 7944TIP3    H223794   5.686   6.208   3.457 -0.9803  0.9585 -1.0010
 7945TIP3   OH223795   6.284   3.588   2.723 -0.1609 -0.1102 -0.2777
 7945TIP3    H123796   6.195   3.573   2.693 -0.7180 -0.1117  1.3654
 7945TIP3    H223797   6.296   3.527   2.796  0.2872  1.7439  1.2351
 7946TIP3   OH223798   5.235   5.637   4.450 -0.6695  0.0998  0.3390
 7946TIP3    H123799   5.235   5.571   4.518  1.8112  0.3416  0.6050
 7946TIP3    H223800   5.174   5.603   4.384 -0.0354 -2.0473  0.8270
 7947TIP3   OH223801   2.660   0.951   2.963 -0.1610 -0.3378  0.1480
 7947TIP3    H123802   2.740   0.987   3.001  0.5221 -1.0415 -0.6078
 7947TIP3    H223803   2.672   0.960   2.868 -0.6285 -1.1592  0.0048
 7948TIP3   OH223804   2.205   0.644   4.383 -0.4312  0.1156 -0.1559
 7948TIP3    H123805   2.150   0.669   4.308 -0.0515  0.0079 -0.4747
 7948TIP3    H223806   2.143   0.622   4.452 -0.7805  0.6189 -0.3098
 7949TIP3   OH223807   1.341   0.466   3.659 -0.4813  0.6160 -0.3992
 7949TIP3    H123808   1.317   0.421   3.577  0.0213  0.5457 -0.5113
 7949TIP3    H223809   1.429   0.498   3.643  1.6114 -3.6056  1.8381
 7950TIP3   OH223810   5.644   5.271   2.582 -0.1713 -0.3872 -0.3291
 7950TIP3    H123811   5.599   5.250   2.664 -1.3625 -0.6097 -1.0251
 7950TIP3    H223812   5.619   5.201   2.522  2.7594 -1.6444 -0.1569
 7951TIP3   OH223813   4.777   6.507   3.412 -0.2533 -1.2213  0.0286
 7951TIP3    H123814   4.696   6.478   3.370  0.2532 -1.2632 -0.9409
 7951TIP3    H223815   4.839   6.516   3.340 -0.3561  2.2394  0.3243
 7952TIP3   OH223816   4.088   6.902   3.604 -0.3185  0.3206 -0.6016
 7952TIP3    H123817   4.057   6.948   3.682  0.3680  1.0654 -0.7761
 7952TIP3    H223818   4.016   6.910   3.542 -0.5489  0.3946 -0.3293
 7953TIP3   OH223819   7.156   5.772   3.460 -1.1851 -0.0120  0.0714
 7953TIP3    H123820   7.114   5.828   3.526 -0.4075  0.3711  0.2409
 7953TIP3    H223821   7.222   5.828   3.420  0.0247 -1.0019  0.6673
 7954TIP3   OH223822   3.812   5.456   3.233  0.3201  0.2253 -1.0359
 7954TIP3    H123823   3.845   5.419   3.314  1.6946 -0.2997 -1.8146
 7954TIP3    H223824   3.888   5.459   3.175 -0.3214  1.8743 -1.8480
 7955TIP3   OH223825   7.277   1.215   2.870  0.0542 -0.2872  0.0131
 7955TIP3    H123826   7.328   1.151   2.921 -2.1431 -1.4621  0.8181
 7955TIP3    H223827   7.210   1.162   2.827 -0.2583  1.1768 -1.3171
 7956TIP3   OH223828   6.326   7.248   5.012 -0.3407  0.4466  0.0885
 7956TIP3    H123829   6.357   7.276   5.098  1.9296  1.5872 -1.0719
 7956TIP3    H223830   6.309   7.329   4.965 -3.1724 -0.1492 -0.0370
 7957TIP3   OH223831   5.464   0.922   3.534  0.6969 -0.0530 -0.1884
 7957TIP3    H123832   5.369   0.929   3.528  0.7929  0.3455 -1.3215
 7957TIP3    H223833   5.492   0.891   3.448  1.5520 -0.6462  0.2921
 7958TIP3   OH223834   1.013   0.504   1.971 -0.2622  0.0569  0.1402
 7958TIP3    H123835   1.078   0.438   1.950  0.1117  0.6602 -0.6392
 7958TIP3    H223836   0.975   0.528   1.886  2.1677  3.4652 -0.0718
 7959TIP3   OH223837   5.185   5.857   5.984 -0.1217  0.5946 -0.0345
 7959TIP3    H123838   5.161   5.767   5.965  0.7942  0.5102 -0.7898
 7959TIP3    H223839   5.279   5.862   5.968  0.4898  0.8394  3.2322
 7960TIP3   OH223840   7.259   5.664   2.008 -0.5361 -0.3316  0.6622
 7960TIP3    H123841   7.340   5.714   2.020 -1.4390  2.0253 -2.2944
 7960TIP3    H223842   7.214   5.670   2.092  1.9720 -1.0044  2.0955
 7961TIP3   OH223843   6.096   7.101   5.044  0.4432  0.0355  0.1725
 7961TIP3    H123844   6.180   7.140   5.023  0.2683 -0.1888 -0.9684
 7961TIP3    H223845   6.090   7.106   5.140  1.3031  0.9546  0.1812
 7962TIP3   OH223846   5.018   3.968   2.763 -0.3518 -0.3141 -0.1037
 7962TIP3    H123847   5.043   3.992   2.852 -0.3366 -1.3536  0.1709
 7962TIP3    H223848   4.924   3.984   2.760 -0.1211  1.0784 -0.3403
 7963TIP3   OH223849   6.591   0.285   1.575 -0.3845 -0.1260 -0.4272
 7963TIP3    H123850   6.673   0.330   1.559 -0.9878  1.1548  0.0492
 7963TIP3    H223851   6.593   0.263   1.668 -0.9376  0.6492 -0.2252
 7964TIP3   OH223852   7.120   0.815   3.190 -0.4192 -0.7562 -0.2103
 7964TIP3    H123853   7.184   0.851   3.129  1.4315  0.6637  2.4440
 7964TIP3    H223854   7.163   0.739   3.228  0.5229  1.2330  2.8985
 7965TIP3   OH223855   7.256   5.309   2.662 -0.9328 -0.0787 -0.1907
 7965TIP3    H123856   7.327   5.285   2.602 -1.1222 -0.6784 -0.1759
 7965TIP3    H223857   7.227   5.226   2.698 -1.8057  0.1495 -0.3694
 7966TIP3   OH223858   5.942   6.068   2.507 -0.4976  0.5606  1.0115
 7966TIP3    H123859   5.898   6.008   2.567 -0.8399  0.0038  0.2115
 7966TIP3    H223860   6.031   6.033   2.499 -1.5107 -1.5857 -1.7408
 7967TIP3   OH223861   0.297   0.040   4.711  0.0679  0.2153  0.6679
 7967TIP3    H123862   0.274   0.037   4.619  0.2785  1.8282  0.5443
 7967TIP3    H223863   0.364  -0.028   4.722  2.5418  2.2841 -1.1168
 7968TIP3   OH223864   6.495   4.052   3.955 -0.2117  0.1317 -0.7960
 7968TIP3    H123865   6.471   4.059   4.047  1.1373  2.3030 -0.5762
 7968TIP3    H223866   6.588   4.031   3.956 -0.7078 -2.2098 -1.6738
 7969TIP3   OH223867   2.443   2.112   6.109  0.3582 -0.5992 -0.2176
 7969TIP3    H123868   2.501   2.036   6.110  1.1967  0.0331  0.0919
 7969TIP3    H223869   2.494   2.181   6.151  0.3985  0.6964 -2.2987
 7970TIP3   OH223870   7.618   1.681   2.736  0.2150 -0.4212  0.5983
 7970TIP3    H123871   7.613   1.632   2.654 -0.3159 -0.9352  0.9356
 7970TIP3    H223872   7.580   1.766   2.716  1.9767  0.2073 -0.2419
 7971TIP3   OH223873   4.840   6.986   4.659  0.0932  0.4511 -0.2723
 7971TIP3    H123874   4.804   7.067   4.623 -1.9148 -1.2893 -2.3464
 7971TIP3    H223875   4.924   6.975   4.614  0.1736  1.1416 -0.3006
 7972TIP3   OH223876   4.671   6.814   2.395 -0.1320  0.4265 -0.3217
 7972TIP3    H123877   4.753   6.862   2.408 -1.1685  1.9207  0.9097
 7972TIP3    H223878   4.659   6.762   2.474 -1.1301  1.3966  0.1821
 7973TIP3   OH223879   5.508   6.140   5.513 -0.0063  0.1675  0.1436
 7973TIP3    H123880   5.507   6.119   5.420  0.0558  0.9656 -0.0465
 7973TIP3    H223881   5.473   6.229   5.517  1.5377  0.7631  0.7092
 7974TIP3   OH223882   4.045   7.312   2.468 -0.0434  0.0281  0.2217
 7974TIP3    H123883   4.101   7.291   2.543 -1.7598 -1.2986  1.1814
 7974TIP3    H223884   4.000   7.392   2.494  0.9354  0.7629 -0.3036
 7975TIP3   OH223885   6.178   6.816   5.272 -0.1010 -0.4665 -0.1295
 7975TIP3    H123886   6.218   6.735   5.304 -0.6350 -0.0528  1.6097
 7975TIP3    H223887   6.086   6.792   5.257 -0.3053 -0.1182  0.5899
 7976TIP3   OH223888   2.159   2.610   2.488 -0.2636  1.1341  0.4476
 7976TIP3    H123889   2.161   2.549   2.414 -1.8669  0.6984  0.7455
 7976TIP3    H223890   2.231   2.671   2.471  1.5199 -0.9962  0.3044
 7977TIP3   OH223891   6.282   6.838   4.687 -1.0619 -0.3309 -0.1369
 7977TIP3    H123892   6.318   6.914   4.731  0.8777 -1.7287  0.7872
 7977TIP3    H223893   6.290   6.767   4.751  1.6172 -2.3611 -2.5800
 7978TIP3   OH223894   7.617   4.647   1.934  0.3349  0.1794 -0.6424
 7978TIP3    H123895   7.649   4.707   1.867 -0.1523 -1.2999 -2.2530
 7978TIP3    H223896   7.676   4.572   1.930 -0.3169 -0.3767 -0.1615
 7979TIP3   OH223897   7.313   6.318   3.821 -0.6808 -0.7162 -0.6140
 7979TIP3    H123898   7.358   6.366   3.892 -1.0236  0.1452 -0.9699
 7979TIP3    H223899   7.369   6.242   3.805 -0.0457 -0.3629 -0.1336
 7980TIP3   OH223900   7.412   6.067   3.449 -0.3574  0.3814  0.2959
 7980TIP3    H123901   7.402   5.989   3.394 -0.5617  0.7401 -0.1772
 7980TIP3    H223902   7.440   6.135   3.389 -1.0756  0.9040  0.5507
 7981TIP3   OH223903   1.108   1.237   2.508  0.0550 -0.2034  0.3272
 7981TIP3    H123904   1.159   1.300   2.559 -0.6228  0.6747 -0.0867
 7981TIP3    H223905   1.043   1.204   2.570 -1.7243  1.9564 -0.3491
 7982TIP3   OH223906   2.508   4.681   1.819  0.7094 -0.2955  0.4180
 7982TIP3    H123907   2.570   4.735   1.770  0.2914 -0.4845 -0.3458
 7982TIP3    H223908   2.528   4.592   1.791 -0.7689 -0.2553 -0.8755
 7983TIP3   OH223909   7.013   4.755   2.658  0.6594  0.2092 -0.1353
 7983TIP3    H123910   6.957   4.827   2.687  0.5546  0.0209  0.1361
 7983TIP3    H223911   7.051   4.721   2.739  1.3702  0.5059 -0.3414
 7984TIP3   OH223912   7.220   6.279   0.687 -0.0372  0.2269 -0.2068
 7984TIP3    H123913   7.224   6.372   0.663  1.4387  0.1331 -0.3640
 7984TIP3    H223914   7.127   6.256   0.677 -0.4643  1.7416  0.0885
 7985TIP3   OH223915   4.147   6.048   1.739 -0.5737 -0.7064 -0.5266
 7985TIP3    H123916   4.106   6.059   1.824 -2.8574 -0.7229 -1.5768
 7985TIP3    H223917   4.189   6.132   1.721 -1.5562 -0.1264 -0.1368
 7986TIP3   OH223918   0.487   6.095   0.579  0.0351  0.7712 -0.6567
 7986TIP3    H123919   0.455   6.185   0.576 -0.3982  0.6840  0.6684
 7986TIP3    H223920   0.467   6.059   0.493 -2.4433  1.0570 -0.2326
 7987TIP3   OH223921   6.082   5.356   3.930 -0.1515  0.0426  0.4522
 7987TIP3    H123922   6.094   5.346   3.836  0.7646  0.0658  0.5602
 7987TIP3    H223923   5.990   5.332   3.946 -0.6334  1.1144 -0.5961
 7988TIP3   OH223924   6.678   7.160   4.108 -0.0350 -0.3540  0.1841
 7988TIP3    H123925   6.638   7.077   4.082 -1.4964  0.0278  1.1644
 7988TIP3    H223926   6.645   7.223   4.044  2.7234 -0.8571 -1.8469
 7989TIP3   OH223927   0.716   1.108   4.279 -0.3085  0.6509  0.3644
 7989TIP3    H123928   0.797   1.122   4.230  0.3644 -1.7261  0.7313
 7989TIP3    H223929   0.742   1.110   4.371 -0.6468 -0.1986  0.4832
 7990TIP3   OH223930   6.825   5.860   3.463  0.4299  0.3746 -0.0605
 7990TIP3    H123931   6.789   5.944   3.491  1.2517  0.8205 -0.3517
 7990TIP3    H223932   6.768   5.833   3.391 -0.3603  0.2644  0.6001
 7991TIP3   OH223933   6.546   7.043   3.732  0.1949 -0.5863  0.1122
 7991TIP3    H123934   6.465   7.094   3.726  0.0843 -0.7668  0.0788
 7991TIP3    H223935   6.545   6.986   3.655  0.5125 -0.3568 -0.0650
 7992TIP3   OH223936   6.478   7.364   1.806 -0.4721 -0.2297  0.3327
 7992TIP3    H123937   6.554   7.387   1.753 -0.3844  0.0395  0.5729
 7992TIP3    H223938   6.460   7.273   1.784  0.0874 -0.3780  0.4782
 7993TIP3   OH223939   1.890   0.355   3.823 -0.1346  0.1119  0.1647
 7993TIP3    H123940   1.875   0.366   3.917 -0.2137  1.2004  0.0331
 7993TIP3    H223941   1.865   0.440   3.785 -1.5923 -0.8217 -1.0123
 7994TIP3   OH223942   6.457   5.394   4.452  0.5020  0.2481  0.7400
 7994TIP3    H123943   6.442   5.448   4.375 -0.7577 -1.8138 -0.5095
 7994TIP3    H223944   6.409   5.437   4.523 -1.0939  0.3713 -0.3994
 7995TIP3   OH223945   4.542   4.700   6.333 -0.2069  0.2720 -0.3894
 7995TIP3    H123946   4.497   4.752   6.399 -0.4637 -0.0523 -0.3041
 7995TIP3    H223947   4.586   4.764   6.277  0.8446  0.5060  0.6890
 7996TIP3   OH223948   7.606   4.766   2.409  0.2125 -0.3450 -0.1284
 7996TIP3    H123949   7.605   4.818   2.329 -0.7602 -1.6138 -0.9631
 7996TIP3    H223950   7.577   4.679   2.382 -0.4307 -0.7177  1.6499
 7997TIP3   OH223951   0.120   5.297   2.234 -0.0276 -0.6329  0.6400
 7997TIP3    H123952   0.186   5.346   2.283  1.1444 -0.0300 -1.4735
 7997TIP3    H223953   0.059   5.364   2.204 -1.1241 -1.0833  1.8088
 7998TIP3   OH223954   0.388   5.820   5.443 -0.4359  0.2253  0.0955
 7998TIP3    H123955   0.418   5.826   5.353  1.2148  1.4078  0.7008
 7998TIP3    H223956   0.346   5.904   5.461 -0.8230 -0.0287  0.4222
 7999TIP3   OH223957   6.396   6.370   2.368  0.2257 -0.1359  0.7227
 7999TIP3    H123958   6.381   6.291   2.317 -1.5549 -0.5076  1.7517
 7999TIP3    H223959   6.491   6.374   2.380  0.8659  0.6780 -3.6676
 8000TIP3   OH223960   2.882   0.272   3.437 -0.0931  0.0603 -0.2558
 8000TIP3    H123961   2.897   0.357   3.477 -0.3438 -0.4220  0.9008
 8000TIP3    H223962   2.848   0.218   3.509 -2.3086 -0.3137 -1.5460
 8001TIP3   OH223963   7.601   4.935   1.243 -0.7914 -0.3302  0.3669
 8001TIP3    H123964   7.510   4.942   1.214 -0.7351  0.4785  0.3700
 8001TIP3    H223965   7.614   4.842   1.260 -1.6251 -0.4491  0.3735
 8002TIP3   OH223966   6.783   5.605   1.480 -0.4034 -0.4379  0.2624
 8002TIP3    H123967   6.862   5.583   1.529  0.4812 -0.1840 -0.9910
 8002TIP3    H223968   6.757   5.691   1.514  0.3166 -0.1687  0.1512
 8003TIP3   OH223969   7.696   5.035   3.076  0.1825  0.3557 -0.3233
 8003TIP3    H123970   7.745   4.953   3.079 -0.9687 -0.3181  0.6382
 8003TIP3    H223971   7.756   5.100   3.111  0.9659 -0.1435 -0.7230
 8004TIP3   OH223972   6.822   6.480   2.666  0.3541  0.1379 -0.0329
 8004TIP3    H123973   6.889   6.533   2.622  0.0160 -0.8204 -1.7769
 8004TIP3    H223974   6.842   6.488   2.759  3.7283 -1.1462 -0.5430
 8005TIP3   OH223975   7.343   6.862   2.859 -0.1036 -0.3710  0.1620
 8005TIP3    H123976   7.304   6.786   2.901 -0.0093  0.4185  1.7293
 8005TIP3    H223977   7.339   6.931   2.926 -0.7477  1.1746 -1.4168
 8006TIP3   OH223978   5.964   6.359   4.026 -0.4271  0.4382 -0.2379
 8006TIP3    H123979   6.010   6.367   4.109 -1.0235 -0.4270  0.1835
 8006TIP3    H223980   5.908   6.283   4.037 -0.5690  0.3652 -1.4095
 8007TIP3   OH223981   1.587   0.909   4.341 -0.1816 -0.8713 -0.7333
 8007TIP3    H123982   1.503   0.943   4.372  2.1390  3.0375  1.5506
 8007TIP3    H223983   1.610   0.966   4.268  1.7084 -0.2622  0.3220
 8008TIP3   OH223984   1.155   5.718   3.269 -0.4456  0.0812  0.4041
 8008TIP3    H123985   1.070   5.755   3.246  0.3408  1.0424 -1.0159
 8008TIP3    H223986   1.209   5.794   3.293  0.2845 -0.4381  0.4452
 8009TIP3   OH223987   2.775   0.233   4.081  0.1541 -0.3618 -0.6345
 8009TIP3    H123988   2.738   0.225   4.169 -0.5001  1.5516 -0.7121
 8009TIP3    H223989   2.844   0.167   4.078  0.4282 -0.2032  1.4350
 8010TIP3   OH223990   7.065   5.352   1.030  0.1921 -0.1638 -0.1897
 8010TIP3    H123991   7.002   5.329   0.962 -0.7592 -0.4459  0.7783
 8010TIP3    H223992   7.130   5.406   0.985  0.0273 -1.0470 -1.4966
 8011TIP3   OH223993   0.733   6.676   1.754  0.3553 -0.4430 -0.4544
 8011TIP3    H123994   0.792   6.607   1.724  0.4646 -0.5211 -0.0610
 8011TIP3    H223995   0.727   6.736   1.680  0.9075 -0.4513 -0.5090
 8012TIP3   OH223996   6.671   5.836   1.595  0.3565 -0.3813  0.0019
 8012TIP3    H123997   6.724   5.911   1.624  0.7058 -0.5502 -0.1967
 8012TIP3    H223998   6.604   5.826   1.662  0.8522 -0.4474  0.4858
 8013TIP3   OH223999   6.733   5.241   3.273 -0.0349 -0.8098 -0.2094
 8013TIP3    H124000   6.812   5.193   3.248  0.1408 -0.2892 -0.6674
 8013TIP3    H224001   6.732   5.316   3.215 -0.4987 -0.4446  0.2702
 8014TIP3   OH224002   0.069   6.256   2.503 -0.0039 -0.0692  0.4765
 8014TIP3    H124003   0.025   6.332   2.465 -0.9117 -0.7648  0.1099
 8014TIP3    H224004  -0.001   6.191   2.512  0.5728 -0.5405  1.6395
 8015TIP3   OH224005   0.614   5.017   3.874  0.1229  0.6651 -0.3118
 8015TIP3    H124006   0.545   5.003   3.939  0.6255  3.2814  0.8612
 8015TIP3    H224007   0.691   4.974   3.911  0.1011  1.1258  0.2859
 8016TIP3   OH224008   0.774   0.003   2.724 -0.0292  0.1051 -0.2273
 8016TIP3    H124009   0.713   0.054   2.670  0.8139  1.2008 -0.1442
 8016TIP3    H224010   0.859   0.044   2.710  0.2479  0.2682  1.7651
 8017TIP3   OH224011   4.922   5.767   2.537  0.1723 -0.3445  0.2407
 8017TIP3    H124012   4.908   5.860   2.553 -0.2211  0.5566 -4.4784
 8017TIP3    H224013   5.017   5.758   2.529  0.1831 -0.2301  0.2423
 8018TIP3   OH224014   6.333   2.925   1.830  0.0110  0.3858 -0.1993
 8018TIP3    H124015   6.305   3.014   1.810  1.3841  0.5890 -1.3536
 8018TIP3    H224016   6.380   2.897   1.751 -0.0537 -1.2017  0.3144
 8019TIP3   OH224017   7.221   7.217   2.334 -0.5395  0.4408  0.0441
 8019TIP3    H124018   7.251   7.127   2.324 -0.4182  0.5874 -0.9049
 8019TIP3    H224019   7.181   7.239   2.250  0.4043  1.6366 -0.1061
 8020TIP3   OH224020   5.190   6.142   6.332  0.1379  0.0105 -0.1840
 8020TIP3    H124021   5.208   6.183   6.417  0.4572 -0.3742 -0.0613
 8020TIP3    H224022   5.270   6.154   6.282 -1.3085  3.4674 -1.7763
 8021TIP3   OH224023   2.318   0.823   4.031  0.2293 -0.3944  0.1888
 8021TIP3    H124024   2.407   0.796   4.008 -0.2858 -0.0844 -2.2844
 8021TIP3    H224025   2.302   0.901   3.979 -1.4718 -0.3812  0.6952
 8022TIP3   OH224026   7.539   5.754   3.933  0.4913  0.2853 -0.0878
 8022TIP3    H124027   7.486   5.687   3.977  1.9663 -2.2468 -2.0530
 8022TIP3    H224028   7.589   5.794   4.004 -0.8493 -0.2714  1.2139
 8023TIP3   OH224029   6.597   6.470   3.223 -0.5550  0.6546  0.6071
 8023TIP3    H124030   6.510   6.440   3.196 -0.0767  0.5148 -0.8051
 8023TIP3    H224031   6.587   6.565   3.234 -0.3030  1.0242 -1.9808
 8024TIP3   OH224032   1.794   7.288   3.930  0.4462 -0.2291 -0.6241
 8024TIP3    H124033   1.808   7.371   3.885 -0.4225  0.2148 -0.0639
 8024TIP3    H224034   1.860   7.287   3.999  1.3557 -0.6222 -1.4792
 8025TIP3   OH224035   2.562   0.478   2.248 -0.0305  0.1073  0.3317
 8025TIP3    H124036   2.550   0.385   2.233  0.5484 -0.1912  1.7141
 8025TIP3    H224037   2.598   0.511   2.165  1.8051 -1.2771  0.5610
 8026TIP3   OH224038   0.124   5.617   1.776  0.2262  0.2092 -0.0086
 8026TIP3    H124039   0.192   5.563   1.735  1.1815  1.9996 -0.8431
 8026TIP3    H224040   0.083   5.663   1.704 -2.6859 -1.6614  0.3690
 8027TIP3   OH224041   1.965   0.255   4.348  0.0646 -0.3769  0.4883
 8027TIP3    H124042   2.016   0.174   4.345  1.9468  0.7292  1.1559
 8027TIP3    H224043   2.013   0.316   4.291 -0.4200  0.7288  1.2369
 8028TIP3   OH224044   0.739   5.559   3.946  0.2353 -0.0897 -0.0178
 8028TIP3    H124045   0.718   5.466   3.938  0.7253 -0.1021 -1.2482
 8028TIP3    H224046   0.655   5.601   3.963 -0.2769 -0.5514 -1.3227
 8029TIP3   OH224047   1.529   6.886   2.418  0.2842 -0.5832 -0.1666
 8029TIP3    H124048   1.437   6.885   2.392  0.8207  0.6624 -2.2843
 8029TIP3    H224049   1.574   6.838   2.348  1.1513 -2.0288  1.3401
 8030TIP3   OH224050   7.677   6.290   3.681  0.7424  0.4877 -0.1838
 8030TIP3    H124051   7.707   6.319   3.767  0.3012  0.9261 -0.1788
 8030TIP3    H224052   7.616   6.218   3.700 -0.6968  1.7124 -0.0352
 8031TIP3   OH224053   5.357   4.817   2.405  0.0275  0.0254 -0.1737
 8031TIP3    H124054   5.338   4.908   2.385  0.6784  0.1985 -0.0439
 8031TIP3    H224055   5.347   4.811   2.501  0.0368 -0.0249 -0.1755
 8032TIP3   OH224056   3.327   0.564   1.920  0.3988 -0.3086 -0.1965
 8032TIP3    H124057   3.361   0.514   1.994  0.7503 -0.9842 -0.8068
 8032TIP3    H224058   3.353   0.513   1.843 -0.7205 -0.0641 -0.7407
 8033TIP3   OH224059   7.400   5.309   1.789 -0.4210  0.5918 -0.4548
 8033TIP3    H124060   7.317   5.352   1.810 -1.5500 -0.6481 -2.2397
 8033TIP3    H224061   7.407   5.316   1.694 -0.6648 -3.0931 -0.8403
 8034TIP3   OH224062   7.562   5.675   3.329 -0.7442  0.2303  0.2527
 8034TIP3    H124063   7.496   5.607   3.346  1.2949 -1.2550  2.4191
 8034TIP3    H224064   7.521   5.731   3.263 -2.5911 -2.9448 -1.4276
 8035TIP3   OH224065   6.683   6.689   1.868  0.7352  0.2034  0.0308
 8035TIP3    H124066   6.713   6.741   1.942  0.6949  1.4943 -0.8424
 8035TIP3    H224067   6.589   6.709   1.861  0.3993 -1.1327  0.6004
 8036TIP3   OH224068   6.550   5.598   2.060  0.3564  0.3663  0.5933
 8036TIP3    H124069   6.612   5.525   2.054 -0.8534 -0.7228  1.0370
 8036TIP3    H224070   6.586   5.665   2.002  0.9791 -0.9782 -0.6224
 8037TIP3   OH224071   7.147   6.182   3.403  0.5640  0.1177  0.3676
 8037TIP3    H124072   7.093   6.136   3.339 -0.4487  3.2452 -1.1115
 8037TIP3    H224073   7.211   6.116   3.432 -0.9599 -2.2532 -1.4624
 8038TIP3   OH224074   6.305   5.774   3.898  0.4290 -0.6385  0.0465
 8038TIP3    H124075   6.230   5.733   3.942 -0.8189  1.1283 -0.3627
 8038TIP3    H224076   6.305   5.864   3.931  2.4929 -0.6698  0.1690
 8039TIP3   OH224077   2.496   0.387   2.659 -0.2857 -0.0058  0.2111
 8039TIP3    H124078   2.516   0.352   2.746  0.8159  1.3917  0.5444
 8039TIP3    H224079   2.574   0.365   2.606  0.3747  1.8186  0.4014
 8040TIP3   OH224080   0.491   6.970   3.794 -0.2974  0.7083  0.2632
 8040TIP3    H124081   0.583   6.959   3.819  0.4659  1.5553 -2.0372
 8040TIP3    H224082   0.469   7.059   3.822 -0.3639  0.5876  0.6029
 8041TIP3   OH224083   7.561   6.740   3.009  0.5486  0.3303 -0.1185
 8041TIP3    H124084   7.493   6.722   2.944  1.1349 -1.0707 -0.3523
 8041TIP3    H224085   7.517   6.795   3.074 -1.1209 -1.3825  0.2643
 8042TIP3   OH224086   5.755   5.711   2.829  0.0617 -0.3439 -0.1642
 8042TIP3    H124087   5.787   5.747   2.747  0.3336  3.0590  1.3300
 8042TIP3    H224088   5.662   5.695   2.815  0.4262 -1.2737 -1.5774
 8043TIP3   OH224089   7.580   4.608   2.770 -0.1436 -0.0604 -0.0678
 8043TIP3    H124090   7.531   4.630   2.849  2.1793  1.1926  1.0559
 8043TIP3    H224091   7.621   4.690   2.743  1.4511 -1.1037 -0.8997
 8044TIP3   OH224092   6.629   4.093   1.294  0.0539 -0.1224  0.3213
 8044TIP3    H124093   6.615   4.015   1.241  0.0335  0.5918 -0.7444
 8044TIP3    H224094   6.648   4.060   1.382 -0.2135 -1.3096 -0.0626
 8045TIP3   OH224095   6.929   5.042   3.137 -0.5058 -0.3351  0.1730
 8045TIP3    H124096   6.998   5.070   3.196 -0.4826 -1.3611  0.6383
 8045TIP3    H224097   6.954   5.078   3.052  0.3504 -0.2976  0.4356
 8046TIP3   OH224098   5.162   6.521   3.851  0.1036  0.1137  0.1595
 8046TIP3    H124099   5.131   6.534   3.761 -0.5027  0.0302  0.3508
 8046TIP3    H224100   5.093   6.559   3.905 -0.2507 -1.1652  0.6325
 8047TIP3   OH224101   7.210   3.067   4.556 -0.1228  0.0812  0.5859
 8047TIP3    H124102   7.159   3.025   4.626  0.4586 -1.2431  0.2438
 8047TIP3    H224103   7.268   3.127   4.601  0.1275 -0.6368  1.2376
 8048TIP3   OH224104   6.946   3.739   5.846 -0.5921 -0.0644  0.5742
 8048TIP3    H124105   6.854   3.715   5.839 -0.5727 -0.2180  0.8703
 8048TIP3    H224106   6.971   3.760   5.756 -0.7133 -0.7602  0.3718
 8049TIP3   OH224107   3.387   6.718   1.929 -0.2877 -0.6658  0.3899
 8049TIP3    H124108   3.398   6.721   2.024  0.1879 -0.8088  0.3421
 8049TIP3    H224109   3.468   6.757   1.895 -0.6348 -0.2476  0.0546
 8050TIP3   OH224110   6.092   3.142   0.583 -0.3484  0.2023  0.6687
 8050TIP3    H124111   6.102   3.233   0.556 -1.3231  0.5842  1.5791
 8050TIP3    H224112   6.180   3.114   0.606  0.4573  0.0019 -2.4361
 8051TIP3   OH224113   7.286   7.093   4.920 -0.0465  0.0713  0.3461
 8051TIP3    H124114   7.306   7.003   4.893 -3.2435 -0.3633 -0.7961
 8051TIP3    H224115   7.293   7.144   4.840  0.8399  0.6838  0.8127
 8052TIP3   OH224116   0.661   5.436   4.523  0.4109  0.2974  0.0668
 8052TIP3    H124117   0.581   5.416   4.571  0.6453  1.1388  0.8239
 8052TIP3    H224118   0.666   5.532   4.524  2.1621  0.2155  1.2381
 8053TIP3   OH224119   5.255   4.046   0.568  0.0152 -0.4486  0.4285
 8053TIP3    H124120   5.192   3.993   0.615 -1.2112  2.0625  1.7033
 8053TIP3    H224121   5.227   4.042   0.477 -1.3148 -0.2610  0.8275
 8054TIP3   OH224122   0.481   6.298   5.624 -0.1933  0.3078 -0.3365
 8054TIP3    H124123   0.391   6.280   5.651 -0.1641 -1.4227 -1.3055
 8054TIP3    H224124   0.472   6.335   5.536 -0.0147  1.3111  0.0606
 8055TIP3   OH224125   6.597   6.567   6.103 -0.9996 -0.2946  0.4514
 8055TIP3    H124126   6.567   6.526   6.022  0.5281 -0.7378  0.0868
 8055TIP3    H224127   6.603   6.495   6.166  1.0269 -0.5422  0.0018
 8056TIP3   OH224128   2.203   7.172   5.247  0.1719 -0.1335 -0.0965
 8056TIP3    H124129   2.187   7.264   5.269  0.0960 -0.0744 -0.3897
 8056TIP3    H224130   2.135   7.151   5.182 -1.1217 -0.9994  1.5099
 8057TIP3   OH224131   7.568   7.369   4.382 -0.2634  0.8331  0.3073
 8057TIP3    H124132   7.597   7.319   4.459 -0.5789 -0.4703 -0.4088
 8057TIP3    H224133   7.644   7.368   4.323 -0.3931  0.8964  0.1395
 8058TIP3   OH224134   1.614   5.195   3.872 -0.5081  0.3756  0.3006
 8058TIP3    H124135   1.576   5.167   3.789 -0.4808  2.0444 -0.2810
 8058TIP3    H224136   1.618   5.290   3.866  2.8579  0.3094  0.7559
 8059TIP3   OH224137   0.256   6.589   4.100 -0.3404  0.4311 -0.1983
 8059TIP3    H124138   0.246   6.632   4.185  0.3437  1.7121 -0.7600
 8059TIP3    H224139   0.256   6.660   4.036 -0.6673 -0.5077 -1.2669
 8060TIP3   OH224140   2.431   6.856   5.596  0.3466  0.2579  0.2655
 8060TIP3    H124141   2.522   6.860   5.569 -0.4936  0.4978 -2.6521
 8060TIP3    H224142   2.381   6.873   5.517 -2.2650 -0.7163  1.6315
 8061TIP3   OH224143   3.627   0.061   4.617 -1.2831  0.1590  0.0193
 8061TIP3    H124144   3.693   0.083   4.551 -1.2278 -0.8990 -0.2886
 8061TIP3    H224145   3.597  -0.026   4.592 -1.1290 -0.3312  1.5107
 8062TIP3   OH224146   7.659   6.948   4.800 -0.4515 -0.0345 -0.4607
 8062TIP3    H124147   7.735   6.898   4.829 -0.3642  0.9763  1.1422
 8062TIP3    H224148   7.593   6.931   4.867 -1.4005 -0.3397 -1.4683
 8063TIP3   OH224149   1.278   6.886   4.272  0.7496 -0.3426  0.4959
 8063TIP3    H124150   1.264   6.870   4.365 -0.9863 -0.3842  0.2299
 8063TIP3    H224151   1.301   6.801   4.236 -2.0616 -1.0452  0.2666
 8064TIP3   OH224152   2.287   1.934   5.122  0.7760 -0.2357  0.1432
 8064TIP3    H124153   2.208   1.881   5.125 -0.7049  1.9352  0.4442
 8064TIP3    H224154   2.320   1.933   5.212 -0.0577  0.5596  0.4557
 8065TIP3   OH224155   7.586   6.200   5.282 -0.6961 -0.3662 -0.4570
 8065TIP3    H124156   7.580   6.128   5.345 -0.7068 -2.4527 -2.7441
 8065TIP3    H224157   7.679   6.204   5.259 -0.7744  0.0378 -0.7049
 8066TIP3   OH224158   0.758   6.096   6.032  0.0492 -0.2875  0.2338
 8066TIP3    H124159   0.669   6.063   6.017  0.8238 -2.3694  0.0935
 8066TIP3    H224160   0.757   6.185   5.997 -1.9816 -0.2934  0.2274
 8067TIP3   OH224161   1.606   7.180   1.368 -0.7981 -0.3166 -0.3412
 8067TIP3    H124162   1.592   7.270   1.398  1.2472 -0.5605  1.4882
 8067TIP3    H224163   1.630   7.189   1.276  0.7414  1.1411  0.1809
 8068TIP3   OH224164   2.622   0.088   3.223 -0.3279 -0.2335  0.1081
 8068TIP3    H124165   2.687   0.158   3.216  0.2387 -0.9447 -2.4538
 8068TIP3    H224166   2.556   0.122   3.284  1.6709  1.1036  1.5600
 8069TIP3   OH224167   5.542   0.857   5.807 -0.2162  0.2155 -0.1970
 8069TIP3    H124168   5.629   0.828   5.779  0.5626  0.7129  1.6770
 8069TIP3    H224169   5.482   0.799   5.760  1.1567 -0.9218 -0.5944
 8070TIP3   OH224170   6.242   0.736   5.266  0.0238  0.1632  0.4851
 8070TIP3    H124171   6.254   0.775   5.179 -0.7852  0.7435  0.6271
 8070TIP3    H224172   6.330   0.732   5.303  0.2996  0.4573 -0.1371
 8071TIP3   OH224173   6.414   5.329   0.665  0.1131 -0.4500 -0.1507
 8071TIP3    H124174   6.428   5.421   0.639 -0.1828 -0.0187  1.2024
 8071TIP3    H224175   6.320   5.324   0.684  0.3501 -0.7245  0.9796
 8072TIP3   OH224176   3.622   0.104   5.252 -0.0083  0.4327 -0.2065
 8072TIP3    H124177   3.540   0.104   5.202  0.9991 -0.4223 -1.9068
 8072TIP3    H224178   3.614   0.028   5.311 -0.1627 -0.0471 -0.8402
 8073TIP3   OH224179   1.893   5.659   2.557  0.2345  0.2757 -0.4265
 8073TIP3    H124180   1.944   5.707   2.622 -1.4998  1.2326  0.2474
 8073TIP3    H224181   1.808   5.645   2.599 -1.0049  1.1461 -2.5668
 8074TIP3   OH224182   6.193   1.230   4.921 -0.3003  0.3039 -0.4258
 8074TIP3    H124183   6.281   1.236   4.958  0.1833  2.3674 -1.8138
 8074TIP3    H224184   6.135   1.257   4.993  0.1604 -1.2280  0.5435
 8075TIP3   OH224185   7.214   6.245   5.760  0.1222  0.8081 -0.2432
 8075TIP3    H124186   7.137   6.287   5.723  0.7000 -0.6872 -3.2713
 8075TIP3    H224187   7.184   6.158   5.787  0.5959  0.4314 -0.9106
 8076TIP3   OH224188   1.682   7.216   4.291  0.0655  0.1209  0.7304
 8076TIP3    H124189   1.599   7.245   4.254 -0.2275  0.6757  1.7929
 8076TIP3    H224190   1.731   7.181   4.217  0.0524  2.4550 -0.4312
 8077TIP3   OH224191   4.780   0.070   4.978 -0.4525  0.6824  0.3204
 8077TIP3    H124192   4.691   0.036   4.964  0.1476 -1.1691  0.7827
 8077TIP3    H224193   4.812   0.089   4.890 -0.6335 -0.4684 -0.0055
 8078TIP3   OH224194   1.979   6.547   5.624 -0.3145  0.2499 -0.7637
 8078TIP3    H124195   2.068   6.570   5.596  1.1486 -0.7647  2.6667
 8078TIP3    H224196   1.944   6.628   5.661 -0.2790  0.3074 -0.8570
 8079TIP3   OH224197   0.783   4.811   3.924  0.2388 -0.3790  0.0312
 8079TIP3    H124198   0.869   4.850   3.911 -0.2626  0.4266 -0.9584
 8079TIP3    H224199   0.790   4.764   4.007  1.5266 -0.0437  0.1205
 8080TIP3   OH224200   3.078   7.082   2.520  0.3977  0.1569 -0.1283
 8080TIP3    H124201   3.049   7.080   2.611 -2.2999  2.1818 -0.8527
 8080TIP3    H224202   3.090   7.175   2.501  1.4259 -0.2778 -1.7028
 8081TIP3   OH224203   3.616   1.302   4.974  1.1756 -0.5259 -0.1903
 8081TIP3    H124204   3.699   1.255   4.981  0.8340 -0.9926  0.8203
 8081TIP3    H224205   3.614   1.335   4.884  3.1367  0.7529  0.2226
 8082TIP3   OH224206   4.459   0.532   3.805  0.0152 -0.3634 -0.3047
 8082TIP3    H124207   4.489   0.451   3.764 -0.2883 -1.7070  2.0672
 8082TIP3    H224208   4.487   0.601   3.745  1.4619 -2.1242 -1.6951
 8083TIP3   OH224209   6.493   2.552   1.078  0.1431  0.0206  0.1012
 8083TIP3    H124210   6.481   2.540   0.984 -0.3533  2.0703 -0.1127
 8083TIP3    H224211   6.468   2.468   1.116  1.8388 -1.3685 -1.6993
 8084TIP3   OH224212   1.472   5.529   2.889  0.2861 -0.6089  0.4642
 8084TIP3    H124213   1.480   5.433   2.884  1.0901 -0.5050 -0.4765
 8084TIP3    H224214   1.379   5.544   2.909  0.2357 -1.5938  1.0071
 8085TIP3   OH224215   4.259   0.821   1.956  0.1661 -0.1491 -0.0218
 8085TIP3    H124216   4.273   0.775   2.039 -1.4196  0.8139  0.7892
 8085TIP3    H224217   4.272   0.913   1.977  1.5899 -0.0378 -1.2664
 8086TIP3   OH224218   0.513   6.862   4.142  0.4867 -0.0786 -0.1064
 8086TIP3    H124219   0.584   6.887   4.083 -0.4451 -0.4486 -1.4119
 8086TIP3    H224220   0.445   6.829   4.084 -0.6914  0.1199  1.1524
 8087TIP3   OH224221   3.393   1.804   5.359 -0.3808 -0.4067 -0.9777
 8087TIP3    H124222   3.429   1.718   5.381  1.4755  0.1888 -1.5253
 8087TIP3    H224223   3.462   1.845   5.306 -1.1524  1.4815 -0.5440
 8088TIP3   OH224224   4.310   0.738   3.922 -0.1126 -0.4814 -0.2601
 8088TIP3    H124225   4.240   0.719   3.984  2.0825 -2.4205  1.7093
 8088TIP3    H224226   4.349   0.653   3.902  1.2006  0.4781 -1.9096
 8089TIP3   OH224227   6.769   1.470   2.890 -0.2171  0.1194  0.5287
 8089TIP3    H124228   6.805   1.420   2.817  1.2811  1.3073  0.4225
 8089TIP3    H224229   6.697   1.520   2.852 -0.4901 -0.4996  0.2274
 8090TIP3   OH224230   0.671   3.815   3.963  0.3877 -0.2032  0.2250
 8090TIP3    H124231   0.646   3.898   4.004  1.5917 -0.2319  1.0542
 8090TIP3    H224232   0.588   3.772   3.944 -0.2152 -0.3627  3.0263
 8091TIP3   OH224233   1.772   7.144   3.320 -0.4141 -0.3436  0.1370
 8091TIP3    H124234   1.706   7.090   3.276 -0.1107  1.0234 -2.0880
 8091TIP3    H224235   1.791   7.214   3.258  1.5551  0.5137  1.6384
 8092TIP3   OH224236   2.529   6.427   5.772  0.0100  0.1128  0.4285
 8092TIP3    H124237   2.460   6.478   5.816 -0.1687  0.9697 -0.8136
 8092TIP3    H224238   2.598   6.491   5.755 -0.1346 -0.0881 -0.9694
 8093TIP3   OH224239   7.671   7.313   5.078 -0.2741  0.1833  0.2478
 8093TIP3    H124240   7.694   7.370   5.152 -0.6884  0.9495 -0.2091
 8093TIP3    H224241   7.675   7.225   5.115 -0.0819  0.5289  1.0876
 8094TIP3   OH224242   4.135   0.978   4.073  0.3503  0.2257  0.2288
 8094TIP3    H124243   4.135   0.947   3.982 -1.7740 -1.2488  0.6951
 8094TIP3    H224244   4.145   0.899   4.125  1.6317  1.0746  1.3167
 8095TIP3   OH224245   0.986   6.953   4.140 -0.1208  0.4969  0.3955
 8095TIP3    H124246   0.993   6.922   4.231 -0.1442 -1.7863 -0.3526
 8095TIP3    H224247   1.077   6.957   4.109 -0.2110 -0.3241  0.0123
 8096TIP3   OH224248   7.781   3.638   0.814  0.1858  0.5361 -0.3294
 8096TIP3    H124249   7.776   3.580   0.738  0.2975 -0.2647  0.2671
 8096TIP3    H224250   7.827   3.716   0.782  0.5980  0.0346 -0.9775
 8097TIP3   OH224251   1.309   6.139   4.110  0.2671  0.3511 -0.0124
 8097TIP3    H124252   1.292   6.178   4.024 -1.3558 -0.8376 -0.2606
 8097TIP3    H224253   1.364   6.064   4.092  1.7357  1.3560  0.2429
 8098TIP3   OH224254   5.336   2.231   5.995 -0.1602 -0.2560  0.5322
 8098TIP3    H124255   5.282   2.264   5.923  0.7290  0.9761  0.4089
 8098TIP3    H224256   5.276   2.177   6.047 -1.3678  0.5979  0.0622
 8099TIP3   OH224257   1.687   6.073   5.464  0.4694 -0.0393  0.4405
 8099TIP3    H124258   1.741   6.122   5.526  2.1931 -2.3367  0.8297
 8099TIP3    H224259   1.687   5.983   5.497  1.3102 -1.3086 -2.7598
 8100TIP3   OH224260   3.702   3.541   1.716  0.0893  0.4755  0.1252
 8100TIP3    H124261   3.690   3.449   1.738 -0.4206  0.4845 -0.1075
 8100TIP3    H224262   3.613   3.577   1.715  0.2420  0.8446 -0.3241
 8101TIP3   OH224263   2.150   5.443   5.194 -0.6067  0.2280  0.6312
 8101TIP3    H124264   2.102   5.522   5.218  0.3343  0.7053  0.9304
 8101TIP3    H224265   2.172   5.401   5.277 -0.7042 -0.1159  0.4860
 8102TIP3   OH224266   0.331   6.087   5.462 -0.2318 -0.2168 -0.5074
 8102TIP3    H124267   0.398   6.149   5.492 -1.6961 -0.3601  3.2868
 8102TIP3    H224268   0.259   6.142   5.431 -0.3224 -0.0122  0.0525
 8103TIP3   OH224269   5.953   0.303   5.923  0.1135 -0.2156 -0.2115
 8103TIP3    H124270   6.007   0.381   5.914 -0.0034 -0.1520 -0.3668
 8103TIP3    H224271   5.938   0.273   5.834 -0.0260 -0.2863 -0.1659
 8104TIP3   OH224272   2.612   6.155   5.795  0.1018 -0.3140  0.0043
 8104TIP3    H124273   2.661   6.146   5.877  0.8436  0.0385 -0.3940
 8104TIP3    H224274   2.587   6.247   5.792  0.6848 -0.1694 -0.5030
 8105TIP3   OH224275   4.990   4.412   2.929  0.3333  0.4935  0.4150
 8105TIP3    H124276   4.924   4.443   2.867  0.1279  0.9960  0.8808
 8105TIP3    H224277   4.958   4.440   3.014  1.0998  0.6466  0.6571
 8106TIP3   OH224278   3.850   0.774   4.850 -1.2471  0.0214 -0.8332
 8106TIP3    H124279   3.912   0.730   4.908 -0.6855  0.7140 -0.8987
 8106TIP3    H224280   3.800   0.832   4.907  0.9101  2.4810 -1.3544
 8107TIP3   OH224281   4.573   0.120   4.078  0.3735  0.0126 -0.1266
 8107TIP3    H124282   4.641   0.054   4.068 -0.1400 -0.3529 -1.3523
 8107TIP3    H224283   4.590   0.160   4.163  1.5983 -0.6569 -0.0495
 8108TIP3   OH224284   1.284   6.967   2.349 -0.4105 -0.4279  0.6877
 8108TIP3    H124285   1.272   7.002   2.260  1.3741  2.7142  1.6185
 8108TIP3    H224286   1.195   6.954   2.381 -1.1024  0.5223 -0.7789
 8109TIP3   OH224287   4.045   2.597   4.465 -0.4433  1.0681 -0.2066
 8109TIP3    H124288   4.067   2.505   4.474  0.5100  1.0459 -2.4543
 8109TIP3    H224289   4.120   2.643   4.504 -0.0658  0.9129 -0.7460
 8110TIP3   OH224290   4.121   1.768   0.028 -0.2854 -0.1537  0.1917
 8110TIP3    H124291   4.093   1.774  -0.063 -0.5460 -3.7655 -0.0291
 8110TIP3    H224292   4.040   1.763   0.078 -0.1316 -0.6839  0.3929
 8111TIP3   OH224293   0.302   6.303   3.028  0.8936 -0.0004 -0.7356
 8111TIP3    H124294   0.260   6.246   2.964  0.0731 -0.5085  0.2284
 8111TIP3    H224295   0.334   6.377   2.977  0.8152 -0.6950 -1.8140
 8112TIP3   OH224296   3.141   5.374   4.217 -0.0231  0.1591 -0.0691
 8112TIP3    H124297   3.204   5.305   4.199  1.0052  1.0783 -0.0370
 8112TIP3    H224298   3.058   5.328   4.230  0.7770 -1.1074  0.6114
 8113TIP3   OH224299   0.511   7.135   4.932 -0.3387  0.4079 -0.0836
 8113TIP3    H124300   0.591   7.082   4.935 -0.5364  0.1384  0.4046
 8113TIP3    H224301   0.463   7.103   4.856 -0.3353  0.0629  0.0593
 8114TIP3   OH224302   5.156   5.240   0.873  0.3197 -0.1337 -0.6935
 8114TIP3    H124303   5.075   5.260   0.920  0.3268 -2.1135  0.1829
 8114TIP3    H224304   5.221   5.299   0.911 -0.5283  0.9515 -0.8949
 8115TIP3   OH224305   3.377   0.135   4.498 -0.2022 -0.0853 -0.2200
 8115TIP3    H124306   3.465   0.106   4.520 -0.2180 -0.7526 -0.9757
 8115TIP3    H224307   3.320   0.091   4.561  0.2073  2.3412  1.8870
 8116TIP3   OH224308   7.331   6.815   4.824  0.1631  0.4675  0.2094
 8116TIP3    H124309   7.255   6.756   4.825 -0.4516  1.1822 -1.9563
 8116TIP3    H224310   7.366   6.807   4.735  1.4828  1.6203  0.6102
 8117TIP3   OH224311   7.035   1.170   3.443 -0.4038 -0.4000  0.3814
 8117TIP3    H124312   6.945   1.162   3.412 -0.3101  1.4209 -0.4124
 8117TIP3    H224313   7.029   1.224   3.521 -0.1967 -1.8225  1.3993
 8118TIP3   OH224314   2.375   6.621   4.474  0.8128  0.4191  0.5276
 8118TIP3    H124315   2.416   6.553   4.421 -2.5999  0.3039 -2.1399
 8118TIP3    H224316   2.291   6.582   4.501 -1.8026  3.8822 -2.1135
 8119TIP3   OH224317   0.561   2.924   0.849  0.6978 -0.5608 -0.5868
 8119TIP3    H124318   0.595   2.868   0.918  0.6978 -0.9341 -0.8840
 8119TIP3    H224319   0.588   3.012   0.873 -1.6023 -0.3287  1.3216
 8120TIP3   OH224320   3.748   0.230   5.639  0.0208 -0.4136 -0.4931
 8120TIP3    H124321   3.818   0.253   5.701  0.0090  0.1087 -0.6655
 8120TIP3    H224322   3.683   0.186   5.692  0.6639 -1.2636 -0.4060
 8121TIP3   OH224323   6.323   4.322   0.027  0.5205 -0.0135  0.3570
 8121TIP3    H124324   6.374   4.336   0.107  0.5647 -0.3125  0.3848
 8121TIP3    H224325   6.348   4.234  -0.001  0.0625 -0.1371  0.3391
 8122TIP3   OH224326   2.161   0.183   6.010 -0.4150 -0.0805 -0.0321
 8122TIP3    H124327   2.187   0.271   6.036 -0.7827 -0.0323  0.1803
 8122TIP3    H224328   2.221   0.125   6.057 -1.0834  0.0046  0.9472
 8123TIP3   OH224329   3.516   0.524   1.689 -0.2072  0.1542 -0.9628
 8123TIP3    H124330   3.546   0.567   1.609 -0.7423 -0.0648 -1.2865
 8123TIP3    H224331   3.535   0.431   1.675 -0.0558  0.1488 -0.7242
 8124TIP3   OH224332   4.045   6.633   4.189  0.2594  0.1270  0.4120
 8124TIP3    H124333   4.127   6.590   4.214 -0.2825 -2.0198 -1.3517
 8124TIP3    H224334   4.051   6.721   4.228  3.9262  0.4558 -0.6883
 8125TIP3   OH224335   0.483   4.125   3.727 -0.4416 -0.3788 -0.1619
 8125TIP3    H124336   0.515   4.174   3.803 -2.8084 -0.5676  1.0087
 8125TIP3    H224337   0.552   4.134   3.662  0.2153  2.5402  0.8569
 8126TIP3   OH224338   3.127   6.887   1.922  0.1256  0.4421 -0.9731
 8126TIP3    H124339   3.159   6.965   1.878  0.9400  0.7322  0.0991
 8126TIP3    H224340   3.194   6.821   1.907  0.0898  0.3481 -0.7287
 8127TIP3   OH224341   1.916   1.258   4.832 -0.0190 -0.0179  0.2759
 8127TIP3    H124342   1.968   1.265   4.752 -1.0227  1.2206 -0.2748
 8127TIP3    H224343   1.967   1.199   4.888  1.1157 -0.2059 -0.9290
 8128TIP3   OH224344   1.761   3.961   0.101  0.2461 -0.0261 -1.0498
 8128TIP3    H124345   1.795   4.051   0.102 -1.3477  0.5806  0.3499
 8128TIP3    H224346   1.723   3.950   0.014  2.0431  0.0195 -1.8705
 8129TIP3   OH224347   1.792   6.593   3.367  0.0667 -0.1868  0.1698
 8129TIP3    H124348   1.757   6.518   3.319  1.6666  0.0604 -1.4204
 8129TIP3    H224349   1.727   6.609   3.436 -1.2115 -1.8648 -0.5941
 8130TIP3   OH224350   6.703   7.044   6.310 -0.0802 -0.0263 -0.2355
 8130TIP3    H124351   6.689   6.962   6.264 -0.0355 -0.6286  0.8119
 8130TIP3    H224352   6.783   7.079   6.271  1.7634 -2.1032  1.5818
 8131TIP3   OH224353   0.702   7.308   5.480 -0.0508 -0.1826  0.7440
 8131TIP3    H124354   0.775   7.273   5.428 -0.3641 -0.2840  0.3709
 8131TIP3    H224355   0.675   7.234   5.535  0.3931 -0.0239  1.1812
 8132TIP3   OH224356   0.478   4.419   3.604  0.0081 -0.3450 -0.6628
 8132TIP3    H124357   0.521   4.338   3.630  2.9376  1.2222 -0.3411
 8132TIP3    H224358   0.410   4.392   3.542  0.8822 -3.0407 -0.4888
 8133TIP3   OH224359   1.158   7.190   1.014 -0.1350  0.0316 -0.0754
 8133TIP3    H124360   1.224   7.252   1.046  0.9676 -0.8897 -0.5535
 8133TIP3    H224361   1.208   7.113   0.988 -0.9914  0.6825 -3.9381
 8134TIP3   OH224362   7.426   4.907   4.248 -0.7737  0.4110  0.0989
 8134TIP3    H124363   7.418   4.943   4.336  0.9249 -1.7648  1.2153
 8134TIP3    H224364   7.519   4.919   4.225 -0.2263 -2.7499  0.3737
 8135TIP3   OH224365   3.035   7.346   3.663 -0.2674 -0.2684  0.9109
 8135TIP3    H124366   2.958   7.330   3.717 -1.5496 -0.5706 -1.0007
 8135TIP3    H224367   3.086   7.265   3.670 -0.7663 -0.5690  1.0875
 8136TIP3   OH224368   1.290   6.630   5.230  0.1259  0.2610 -0.0242
 8136TIP3    H124369   1.385   6.618   5.240  0.3525  2.2341  0.2781
 8136TIP3    H224370   1.254   6.615   5.317  0.0704 -1.2494 -0.2998
 8137TIP3   OH224371   3.996   6.599   3.881  0.1139 -0.1058 -0.5107
 8137TIP3    H124372   4.026   6.630   3.966 -2.3797  0.5919  0.1443
 8137TIP3    H224373   4.062   6.630   3.819  0.6958  1.4647  0.8711
 8138TIP3   OH224374   4.043   1.511   4.968 -0.3184  0.5975 -0.0593
 8138TIP3    H124375   4.102   1.538   4.897 -1.8614  0.9398 -1.2423
 8138TIP3    H224376   3.962   1.559   4.951 -2.0355 -2.2921 -0.3286
 8139TIP3   OH224377   0.668   7.025   5.268 -0.0536  0.4603 -0.7958
 8139TIP3    H124378   0.643   7.109   5.230 -3.0349  0.4077  0.8807
 8139TIP3    H224379   0.596   6.966   5.246  0.9886 -1.0996 -0.1389
 8140TIP3   OH224380   0.819   6.229   0.840  0.0061  0.0190  0.5005
 8140TIP3    H124381   0.761   6.237   0.764  1.0348  0.9468 -0.2152
 8140TIP3    H224382   0.898   6.278   0.815  0.8751 -0.7521  1.6683
 8141TIP3   OH224383   3.843   0.113   2.091  0.4975 -0.1087  0.4075
 8141TIP3    H124384   3.785   0.069   2.028  3.0260 -0.2954 -1.8886
 8141TIP3    H224385   3.842   0.056   2.168  1.2450 -2.5638 -1.3469
 8142TIP3   OH224386   3.121   6.639   2.726  0.6392  0.0413 -0.4018
 8142TIP3    H124387   3.186   6.685   2.780  0.2004  0.2630 -0.0576
 8142TIP3    H224388   3.043   6.694   2.731  0.0961 -0.7608  0.0462
 8143TIP3   OH224389   3.176   6.406   3.832  0.9353  0.2707 -0.3899
 8143TIP3    H124390   3.184   6.433   3.924  1.4638  0.7855 -0.5893
 8143TIP3    H224391   3.176   6.487   3.782  1.5095 -0.0380 -0.9078
 8144TIP3   OH224392   2.426   7.280   3.923  0.0048  0.5680  0.1677
 8144TIP3    H124393   2.403   7.189   3.944  0.6991  0.4270  0.3296
 8144TIP3    H224394   2.472   7.312   4.001 -0.5622  1.1783  0.2548
 8145TIP3   OH224395   0.134   5.548   4.677 -0.1021  0.3279 -0.6450
 8145TIP3    H124396   0.110   5.526   4.587  0.4254  1.2712 -1.0263
 8145TIP3    H224397   0.209   5.607   4.668  0.8696 -0.7096  0.4602
 8146TIP3   OH224398   0.748   5.779   6.314  0.7665  0.6185  0.5340
 8146TIP3    H124399   0.799   5.746   6.240 -0.4641  1.1961 -0.6076
 8146TIP3    H224400   0.661   5.741   6.301 -0.2534  3.0043  0.0468
 8147TIP3   OH224401   0.175   6.646   5.633 -0.2250  0.3229  0.5538
 8147TIP3    H124402   0.155   6.560   5.598 -0.8688  0.8605 -0.4367
 8147TIP3    H224403   0.120   6.655   5.710 -0.2943 -0.0776  0.5489
 8148TIP3   OH224404   6.759   0.606   5.489 -0.1456 -0.1141  0.0358
 8148TIP3    H124405   6.844   0.565   5.508 -0.1608  0.5863  1.6912
 8148TIP3    H224406   6.756   0.683   5.546 -1.9226 -0.1550  0.0311
 8149TIP3   OH224407   4.192   7.218   5.276  0.4292  0.1786  0.2319
 8149TIP3    H124408   4.177   7.285   5.343  1.5878  0.6611  0.0225
 8149TIP3    H224409   4.116   7.223   5.219  0.6673  1.5629  0.0172
 8150TIP3   OH224410   1.221   6.838   3.661 -0.1019  0.0326  0.2647
 8150TIP3    H124411   1.282   6.828   3.733 -1.0108 -1.4396  0.8499
 8150TIP3    H224412   1.167   6.913   3.686  0.1205  0.0441  0.7170
 8151TIP3   OH224413   5.076   2.176   4.818 -0.3230  0.0532  0.6278
 8151TIP3    H124414   5.027   2.256   4.797 -0.0270  0.3184  0.9392
 8151TIP3    H224415   5.012   2.121   4.863 -0.8690 -0.3880 -0.6750
 8152TIP3   OH224416   5.353   0.219   1.757  0.2396  0.3041 -0.3750
 8152TIP3    H124417   5.314   0.181   1.836 -1.9197  1.1462 -1.0114
 8152TIP3    H224418   5.363   0.144   1.698  0.2931 -0.0431  0.0653
 8153TIP3   OH224419   3.083   0.428   5.412 -0.2676  0.1003  0.0394
 8153TIP3    H124420   3.070   0.458   5.322 -2.0356 -0.4203  0.1024
 8153TIP3    H224421   3.126   0.343   5.403  1.4990  0.9914 -0.2335
 8154TIP3   OH224422   5.817   0.736   6.087 -0.0421  0.0651  0.1718
 8154TIP3    H124423   5.827   0.664   6.149  0.7987  1.0989  1.2705
 8154TIP3    H224424   5.722   0.744   6.075 -0.1224 -1.5745 -0.4119
 8155TIP3   OH224425   4.721   1.804   1.666  0.2896  0.0704  0.0879
 8155TIP3    H124426   4.652   1.851   1.620  0.0455  0.3647  0.7484
 8155TIP3    H224427   4.723   1.718   1.626  0.4217  0.4927 -0.8166
 8156TIP3   OH224428   2.047   6.639   5.001 -0.0307  0.3935 -0.1679
 8156TIP3    H124429   2.108   6.638   5.075  4.3591 -0.5239 -3.5944
 8156TIP3    H224430   2.054   6.727   4.966 -1.4037  0.5583 -0.0307
 8157TIP3   OH224431   3.960   0.666   5.068  0.3214 -0.2616  0.1626
 8157TIP3    H124432   4.005   0.598   5.118 -0.1532  0.6596  1.9012
 8157TIP3    H224433   3.919   0.721   5.135 -0.5604  0.8554 -1.2704
 8158TIP3   OH224434   1.527   0.299   1.512 -0.2009  0.3827  0.4420
 8158TIP3    H124435   1.494   0.375   1.464 -1.4067  0.2729  1.0650
 8158TIP3    H224436   1.598   0.333   1.566 -2.2874  1.5781  2.5202
 8159TIP3   OH224437   4.479   0.672   5.239  0.0775 -0.4645  0.6069
 8159TIP3    H124438   4.443   0.626   5.164  1.0333 -1.2985  0.6499
 8159TIP3    H224439   4.565   0.702   5.211 -0.3795  0.9640  0.7127
 8160TIP3   OH224440   6.514   0.060   3.987  0.0713  0.3793  0.0278
 8160TIP3    H124441   6.592   0.015   3.953  0.7954  0.6049  1.3849
 8160TIP3    H224442   6.448   0.046   3.919  0.6576 -1.6456 -0.1702
 8161TIP3   OH224443   5.696   7.180   3.491 -0.2359 -0.0918  0.0880
 8161TIP3    H124444   5.671   7.253   3.435  0.8694 -1.0073 -1.6246
 8161TIP3    H224445   5.791   7.177   3.486 -0.1912 -0.8845  1.1525
 8162TIP3   OH224446   2.130   6.323   5.223  0.6194 -0.9773 -0.3089
 8162TIP3    H124447   2.174   6.405   5.200  1.0730 -1.1052  0.1077
 8162TIP3    H224448   2.116   6.328   5.317  0.5299 -1.3248 -0.3014
 8163TIP3   OH224449   7.096   0.876   5.544  0.7577 -0.3517  0.2364
 8163TIP3    H124450   7.167   0.938   5.525 -0.0269  0.1352 -1.1481
 8163TIP3    H224451   7.109   0.805   5.481 -0.5538  0.1912 -0.6353
 8164TIP3   OH224452   2.372   5.804   5.960  0.3083  0.1030  0.0561
 8164TIP3    H124453   2.308   5.865   5.921 -0.8338  0.2983  2.1645
 8164TIP3    H224454   2.395   5.745   5.888 -4.3067 -1.6888 -0.1654
 8165TIP3   OH224455   5.748   6.806   1.917  0.0168  0.1319 -0.4791
 8165TIP3    H124456   5.797   6.823   1.997 -0.4578 -0.4265 -0.0685
 8165TIP3    H224457   5.741   6.892   1.875  1.6838  0.1406 -0.7463
 8166TIP3   OH224458   7.322   5.953   0.420 -0.3987 -0.2052 -0.1045
 8166TIP3    H124459   7.288   5.943   0.508  0.1204 -1.1178  0.0009
 8166TIP3    H224460   7.289   6.038   0.390 -2.9553 -1.1521 -0.1148
 8167TIP3   OH224461   4.323   0.120   3.428  0.0389  0.3315  0.3366
 8167TIP3    H124462   4.416   0.116   3.403 -0.3838  0.9350 -1.4350
 8167TIP3    H224463   4.289   0.033   3.407 -0.6451  1.2677 -2.7004
 8168TIP3   OH224464   2.852   6.838   3.457 -0.3277  0.0759  0.0157
 8168TIP3    H124465   2.918   6.907   3.446  0.2790 -0.2997  1.2111
 8168TIP3    H224466   2.902   6.758   3.470 -1.0314 -0.4889 -0.7273
 8169TIP3   OH224467   1.932   7.205   3.533  0.1458 -0.5235 -0.0066
 8169TIP3    H124468   2.022   7.206   3.501  0.4993  0.3273  0.9926
 8169TIP3    H224469   1.879   7.193   3.454  1.0493  0.4085 -0.7750
 8170TIP3   OH224470   3.041   5.559   2.166 -0.4888  0.1316  0.0416
 8170TIP3    H124471   3.112   5.590   2.223  0.4686 -1.0301 -0.5055
 8170TIP3    H224472   2.982   5.511   2.225  0.0031 -0.2496  0.2254
 8171TIP3   OH224473   2.807  -0.020   2.790  0.3916  0.4869 -0.1404
 8171TIP3    H124474   2.746  -0.052   2.856  0.2962  0.4490 -0.2465
 8171TIP3    H224475   2.792   0.075   2.786 -1.0560  0.2229 -1.5700
 8172TIP3   OH224476   6.398   0.326   3.197  0.0023  0.4429 -0.3490
 8172TIP3    H124477   6.432   0.412   3.172 -0.1151 -0.0077 -2.1534
 8172TIP3    H224478   6.445   0.305   3.277  0.5032  1.9176 -0.2302
 8173TIP3   OH224479   7.067   2.562   4.348 -0.2294 -0.0369  0.1211
 8173TIP3    H124480   7.021   2.636   4.389  0.5117  0.3689  0.2443
 8173TIP3    H224481   7.079   2.589   4.257 -1.3953 -0.7063 -0.2339
 8174TIP3   OH224482   4.959   0.736   3.794 -0.1326 -0.0586 -0.3470
 8174TIP3    H124483   4.880   0.734   3.740 -0.9165 -0.0667  0.7866
 8174TIP3    H224484   4.927   0.726   3.884  1.0150  1.6895  0.2814
 8175TIP3   OH224485   5.552   0.685   4.129 -0.6503 -0.7068  0.2281
 8175TIP3    H124486   5.478   0.655   4.180 -2.1088  0.1901 -1.3053
 8175TIP3    H224487   5.545   0.638   4.046  0.6485 -0.8082  0.1648
 8176TIP3   OH224488   3.906   7.009   4.257  0.6501 -0.2148  0.3220
 8176TIP3    H124489   3.826   6.965   4.286  0.4426 -0.7232 -0.9580
 8176TIP3    H224490   3.899   7.010   4.161  2.3436 -0.5686  0.1840
 8177TIP3   OH224491   7.630   5.350   4.428  0.4026 -0.2406  0.4922
 8177TIP3    H124492   7.686   5.424   4.404  0.2968 -0.5613 -0.7322
 8177TIP3    H224493   7.692   5.280   4.450  0.4865 -0.2209  0.3147
 8178TIP3   OH224494   6.264   0.434   2.448  0.3429  0.1133 -0.0311
 8178TIP3    H124495   6.307   0.450   2.532  0.1774  2.1270 -0.3022
 8178TIP3    H224496   6.177   0.401   2.470  0.9211 -1.0411  0.5560
 8179TIP3   OH224497   5.962   0.198   3.806 -0.3414 -0.5471  0.3290
 8179TIP3    H124498   5.888   0.174   3.861 -0.7766  1.1811  0.5485
 8179TIP3    H224499   5.960   0.294   3.804  1.0832 -0.5159 -0.7636
 8180TIP3   OH224500   5.585   1.281   2.012  0.0506  0.6138 -0.3204
 8180TIP3    H124501   5.586   1.311   2.103 -1.5107 -0.1771 -0.0216
 8180TIP3    H224502   5.672   1.242   1.999  0.7987  1.9981  0.3752
 8181TIP3   OH224503   2.284   0.790   2.880  0.0354 -0.2878  0.6650
 8181TIP3    H124504   2.214   0.829   2.932  0.9221 -0.6708  2.1941
 8181TIP3    H224505   2.309   0.712   2.930 -0.1277 -1.5148 -1.1411
 8182TIP3   OH224506   6.380   0.393   3.616 -0.3066 -0.0183 -0.5070
 8182TIP3    H124507   6.318   0.465   3.623 -0.4063 -0.0009 -1.5392
 8182TIP3    H224508   6.404   0.374   3.706  0.1465  1.6748 -0.2506
 8183TIP3   OH224509   6.762   0.219   5.949  0.0404 -0.1292  0.2997
 8183TIP3    H124510   6.797   0.222   5.860  1.8186 -0.3689  0.9847
 8183TIP3    H224511   6.753   0.311   5.974 -1.0650 -0.0523 -0.3481
 8184TIP3   OH224512   2.625   6.936   4.299 -0.5492  0.3594 -0.0635
 8184TIP3    H124513   2.634   6.861   4.358  0.0754 -0.9037 -1.7167
 8184TIP3    H224514   2.711   6.976   4.297 -0.0996 -0.6160 -1.3960
 8185TIP3   OH224515   6.974   1.060   2.189  0.2806 -0.1061  0.2816
 8185TIP3    H124516   6.931   0.998   2.130 -1.6288  1.5837 -0.1597
 8185TIP3    H224517   6.911   1.075   2.259  0.9149  0.9718  0.6390
 8186TIP3   OH224518   0.513   5.082   0.341 -0.0373 -0.0696 -0.0023
 8186TIP3    H124519   0.468   5.005   0.377 -1.3671  0.2756 -0.8965
 8186TIP3    H224520   0.579   5.045   0.282 -0.2767 -0.5447  0.0224
 8187TIP3   OH224521   3.496   6.560   5.310 -0.0975 -0.3449  0.9306
 8187TIP3    H124522   3.578   6.559   5.360  0.4036  0.4489  0.1506
 8187TIP3    H224523   3.517   6.515   5.229 -0.1704  0.6794  0.3349
 8188TIP3   OH224524   2.355   5.053   3.658  0.0805 -0.3034  0.0160
 8188TIP3    H124525   2.446   5.077   3.642 -0.0750 -0.8074 -1.7116
 8188TIP3    H224526   2.339   4.979   3.600 -1.8335  0.6668 -0.7700
 8189TIP3   OH224527   5.076   7.268   2.801  0.2148 -0.0656  0.0793
 8189TIP3    H124528   5.165   7.231   2.799  0.0841 -0.3758 -0.1072
 8189TIP3    H224529   5.028   7.210   2.860  0.0550 -0.0824 -0.0675
 8190TIP3   OH224530   6.040   2.431   4.347 -0.4370  0.2619  0.3864
 8190TIP3    H124531   5.993   2.414   4.429 -2.4053  0.9997 -0.5545
 8190TIP3    H224532   6.073   2.520   4.356 -0.8569  0.4287  0.2950
 8191TIP3   OH224533   1.912   6.180   4.219  0.1328 -0.9493 -0.1438
 8191TIP3    H124534   1.966   6.206   4.144  0.3073  1.3725  0.7398
 8191TIP3    H224535   1.972   6.130   4.275  0.6364 -0.6863 -0.4398
 8192TIP3   OH224536   5.529   1.122   3.825 -0.3193 -0.1706 -0.6207
 8192TIP3    H124537   5.542   1.194   3.888  1.7575 -0.0021 -1.2147
 8192TIP3    H224538   5.481   1.056   3.875 -0.9577  1.0063  0.3800
 8193TIP3   OH224539   5.702   2.127   3.727  0.6492  0.0777 -0.4016
 8193TIP3    H124540   5.765   2.172   3.783  1.1000 -2.8946  1.5977
 8193TIP3    H224541   5.631   2.102   3.786 -0.0477 -0.9421 -1.6281
 8194TIP3   OH224542   7.404   3.321   6.369  0.3313  0.1282 -0.0565
 8194TIP3    H124543   7.338   3.390   6.364  0.5776  0.3899  0.3006
 8194TIP3    H224544   7.486   3.364   6.347  0.2351 -0.4251 -1.5291
 8195TIP3   OH224545   4.599   1.693   5.424  0.1636  0.1291 -0.3711
 8195TIP3    H124546   4.671   1.633   5.403 -0.1848 -0.0993 -0.9184
 8195TIP3    H224547   4.581   1.677   5.516  0.7031  0.0636 -0.2751
 8196TIP3   OH224548   6.139   2.022   3.280  0.6409  0.1554  0.3149
 8196TIP3    H124549   6.121   2.023   3.374 -0.8158  1.0895  0.0385
 8196TIP3    H224550   6.233   2.005   3.274  0.1444 -3.7094  1.8428
 8197TIP3   OH224551   0.551   1.183   4.886  0.3972 -0.0074 -0.1159
 8197TIP3    H124552   0.541   1.094   4.852 -2.3830  0.2517 -0.1534
 8197TIP3    H224553   0.524   1.239   4.813 -2.8347  0.6510  1.4892
 8198TIP3   OH224554   4.572   6.438   3.018 -0.0354 -0.1728  0.4552
 8198TIP3    H124555   4.597   6.447   3.110  1.2349 -0.4436  0.1426
 8198TIP3    H224556   4.580   6.526   2.982 -0.2895 -0.1145  0.5394
 8199TIP3   OH224557  -0.017   0.547   4.676 -0.0859 -0.0974 -1.2524
 8199TIP3    H124558  -0.008   0.457   4.710 -2.4417  0.8045  1.9467
 8199TIP3    H224559   0.072   0.582   4.680  0.4348 -1.4697 -0.1964
 8200TIP3   OH224560   3.737   0.574   5.693 -0.8319 -0.4312 -0.5022
 8200TIP3    H124561   3.757   0.497   5.639 -0.5588 -0.9774  0.3692
 8200TIP3    H224562   3.744   0.543   5.783  2.2301  1.3449 -0.0489
 8201TIP3   OH224563   4.003   6.462   3.211 -0.3625 -0.1784 -0.0560
 8201TIP3    H124564   4.059   6.464   3.134  0.7175 -3.0638  0.5707
 8201TIP3    H224565   4.062   6.442   3.284 -2.0100 -2.4745  0.7389
 8202TIP3   OH224566   0.722   3.388   4.495 -0.0775 -0.4925 -0.1336
 8202TIP3    H124567   0.635   3.404   4.460  0.1161 -0.0576 -0.4195
 8202TIP3    H224568   0.722   3.295   4.518 -1.4386  0.0173  2.1853
 8203TIP3   OH224569   6.775   1.008   4.165 -0.5583  0.3976 -0.4026
 8203TIP3    H124570   6.753   1.098   4.141 -2.5904 -0.2398 -1.0181
 8203TIP3    H224571   6.815   0.971   4.087  0.7329  0.9054  0.0106
 8204TIP3   OH224572   2.518   6.657   3.149  0.0246 -0.6744 -0.0205
 8204TIP3    H124573   2.518   6.691   3.060  1.5510  0.6183  0.4447
 8204TIP3    H224574   2.425   6.650   3.173 -0.3796 -0.7371 -1.5774
 8205TIP3   OH224575   3.820   6.086   6.005  0.6561  0.2104  0.7765
 8205TIP3    H124576   3.875   6.025   6.053 -0.8716 -1.9119 -0.1014
 8205TIP3    H224577   3.786   6.146   6.072  0.2846 -1.3655  2.0208
 8206TIP3   OH224578   6.087   0.396   3.074 -0.6879 -0.0057  0.0298
 8206TIP3    H124579   6.116   0.393   2.983 -0.7249  0.8994 -0.0139
 8206TIP3    H224580   6.149   0.339   3.120 -0.6497 -0.4447 -0.5517
 8207TIP3   OH224581   3.895   5.589   5.591 -0.4650 -0.2902  0.1366
 8207TIP3    H124582   3.868   5.498   5.607 -1.5501 -0.2541 -1.3228
 8207TIP3    H224583   3.893   5.597   5.495  1.4589  0.7303  0.1665
 8208TIP3   OH224584   2.179   2.218   4.824  0.5404 -0.2336  0.9387
 8208TIP3    H124585   2.109   2.257   4.876  0.4653  0.4703  0.3081
 8208TIP3    H224586   2.163   2.123   4.831 -0.8503 -0.0605  0.2852
 8209TIP3   OH224587   0.981   0.713   4.078  0.1019  0.0960 -0.0634
 8209TIP3    H124588   1.064   0.667   4.066 -0.9249 -1.4616 -1.6078
 8209TIP3    H224589   0.945   0.721   3.989 -1.5943  0.3336  0.6181
 8210TIP3   OH224590   2.469   5.678   3.270 -0.0118 -0.1043 -0.5306
 8210TIP3    H124591   2.548   5.704   3.222 -1.1541 -1.1435 -3.0564
 8210TIP3    H224592   2.442   5.757   3.316  1.8671  0.5664 -0.5447
 8211TIP3   OH224593   2.751   1.179   3.482  0.7163  0.7342  0.1441
 8211TIP3    H124594   2.729   1.268   3.508 -3.3207 -0.0930 -0.1906
 8211TIP3    H224595   2.727   1.125   3.557 -1.0346 -0.5090 -1.2627
 8212TIP3   OH224596   7.370   2.805   2.398 -0.7763  0.8916  0.2917
 8212TIP3    H124597   7.372   2.896   2.427 -0.5877  1.4655 -1.4630
 8212TIP3    H224598   7.421   2.804   2.318 -0.4276 -0.8565  0.5147
 8213TIP3   OH224599   2.383   4.087   3.544  0.6245 -0.1291 -0.3248
 8213TIP3    H124600   2.292   4.117   3.553  0.6385 -0.2251  0.1416
 8213TIP3    H224601   2.384   4.039   3.461  0.6325  1.2801 -1.1584
 8214TIP3   OH224602   5.560   1.560   5.320 -0.0201  0.4338  0.0433
 8214TIP3    H124603   5.619   1.595   5.254  1.3072  1.9559  2.0081
 8214TIP3    H224604   5.512   1.636   5.353 -1.3539 -0.4472  0.1938
 8215TIP3   OH224605   0.108   0.452   2.374 -0.0844  0.4588  0.2021
 8215TIP3    H124606   0.160   0.521   2.414  1.9793 -0.8619 -0.1140
 8215TIP3    H224607   0.172   0.398   2.327 -2.0029 -0.0065 -1.9745
 8216TIP3   OH224608   3.530   6.824   2.396  0.0087 -0.3612  0.1953
 8216TIP3    H124609   3.479   6.795   2.472 -0.2989 -0.4132 -0.0308
 8216TIP3    H224610   3.548   6.916   2.414 -3.1228  0.6077 -1.3400
 8217TIP3   OH224611   5.726   1.324   3.136 -0.2614 -0.1014 -0.5453
 8217TIP3    H124612   5.706   1.266   3.063 -2.0486 -1.6279  1.1077
 8217TIP3    H224613   5.790   1.274   3.189  0.4778  0.6943 -0.6732
 8218TIP3   OH224614   6.547   0.914   4.292  0.4837  0.3087  0.1298
 8218TIP3    H124615   6.605   0.951   4.226  1.0830  1.0780  1.0955
 8218TIP3    H224616   6.559   0.968   4.370 -1.2023  0.2263  0.4837
 8219TIP3   OH224617   2.874   7.215   4.570 -0.5058 -0.0149 -0.3703
 8219TIP3    H124618   2.875   7.128   4.532 -1.3062 -0.6334  0.9917
 8219TIP3    H224619   2.959   7.252   4.548 -0.3863 -0.9197 -1.4480
 8220TIP3   OH224620   1.508   5.432   4.250 -0.1225 -0.3158 -0.0888
 8220TIP3    H124621   1.587   5.411   4.301  0.2969  1.5642  0.0754
 8220TIP3    H224622   1.486   5.350   4.205  2.8589 -0.4554 -1.3963
 8221TIP3   OH224623   7.449   3.822   0.201 -0.8019  0.1649  0.0067
 8221TIP3    H124624   7.468   3.736   0.162  0.5921  0.0690  0.8634
 8221TIP3    H224625   7.362   3.812   0.239  0.5581 -1.9033  2.8207
 8222TIP3   OH224626   6.130   1.741   1.705  0.3337  0.2620 -0.4313
 8222TIP3    H124627   6.086   1.741   1.620  0.8518  0.9316 -0.7067
 8222TIP3    H224628   6.179   1.658   1.706 -1.9298 -1.1165  0.4251
 8223TIP3   OH224629   3.013   7.199   3.201  0.0997  0.0625 -0.5599
 8223TIP3    H124630   2.961   7.280   3.202  0.2336  0.1595  1.8914
 8223TIP3    H224631   3.088   7.220   3.146 -0.4471  1.2378 -0.8878
 8224TIP3   OH224632   2.032   7.045   1.961  0.7370 -0.3023  0.4543
 8224TIP3    H124633   1.975   7.027   2.035 -0.1188  1.6188  0.2976
 8224TIP3    H224634   2.065   6.959   1.934 -0.5461 -1.2210  1.7656
 8225TIP3   OH224635   4.229   6.235   2.508 -0.1039  0.1689  0.8521
 8225TIP3    H124636   4.196   6.240   2.598 -1.0615 -1.6293  0.6138
 8225TIP3    H224637   4.285   6.312   2.499  2.3377 -1.1201  3.9332
 8226TIP3   OH224638   0.463   2.807   5.003  0.0578  0.3174  0.4288
 8226TIP3    H124639   0.403   2.734   5.019  0.5922 -0.1807  0.1824
 8226TIP3    H224640   0.406   2.883   4.996 -0.7322 -0.4230 -1.6446
 8227TIP3   OH224641   5.471   5.774   2.503  0.5547  0.4222 -0.2451
 8227TIP3    H124642   5.401   5.839   2.509  0.9994  0.8857  0.0172
 8227TIP3    H224643   5.469   5.745   2.412 -0.2764  0.0953 -0.1249
 8228TIP3   OH224644   4.147   0.216   4.894 -0.3040  0.8208 -0.8174
 8228TIP3    H124645   4.093   0.294   4.903 -0.0689  0.8988  0.0162
 8228TIP3    H224646   4.140   0.191   4.802 -0.8858  1.4564 -0.9435
 8229TIP3   OH224647   1.929   0.074   0.891 -0.1032 -0.5024 -0.4345
 8229TIP3    H124648   1.966   0.156   0.925 -1.3508 -0.6884  1.4141
 8229TIP3    H224649   1.984   0.006   0.930 -0.3989 -0.6431 -0.2679
 8230TIP3   OH224650   4.167   7.330   3.847 -0.3134 -0.0229 -0.1238
 8230TIP3    H124651   4.250   7.307   3.889 -1.5176 -1.5175  1.5227
 8230TIP3    H224652   4.190   7.350   3.757  1.9358  0.3047  0.5096
 8231TIP3   OH224653   5.326   7.206   2.203 -0.1442 -0.3228  0.3288
 8231TIP3    H124654   5.305   7.174   2.115  2.9275  0.2602 -0.6699
 8231TIP3    H224655   5.322   7.301   2.195 -0.3996 -0.2803  0.9664
 8232TIP3   OH224656   6.833   1.526   4.072  0.1364  0.3743  0.0834
 8232TIP3    H124657   6.816   1.548   4.163 -0.8899  0.7585 -0.1940
 8232TIP3    H224658   6.914   1.475   4.074 -0.7066 -0.9390  1.3839
 8233TIP3   OH224659   6.756   7.320   3.120 -0.1933  0.1826 -0.1682
 8233TIP3    H124660   6.793   7.236   3.092  0.2811  0.3710 -0.1020
 8233TIP3    H224661   6.794   7.384   3.060 -1.3832  0.2191 -0.9106
 8234TIP3   OH224662   1.349   1.450   3.941 -0.2174  0.4271 -0.3813
 8234TIP3    H124663   1.308   1.451   4.028 -0.8047  0.9711 -0.6554
 8234TIP3    H224664   1.429   1.501   3.952 -0.0531  0.0909 -0.0405
 8235TIP3   OH224665   5.022   6.155   2.594 -0.4285  0.2353 -0.2652
 8235TIP3    H124666   5.006   6.154   2.499 -0.8556 -0.5150 -0.1824
 8235TIP3    H224667   5.053   6.244   2.611  0.1471  0.2251 -1.1939
 8236TIP3   OH224668   2.875   1.739   3.239  0.2208 -0.0527 -0.7692
 8236TIP3    H124669   2.821   1.757   3.163  0.7974  0.7262 -1.0011
 8236TIP3    H224670   2.925   1.819   3.253  1.5201 -0.8438 -0.7355
 8237TIP3   OH224671   4.410   6.852   3.186 -0.2505 -0.6218  0.0454
 8237TIP3    H124672   4.377   6.847   3.276 -0.5700 -1.5538 -0.1188
 8237TIP3    H224673   4.505   6.864   3.196 -0.3412 -0.2951  0.5079
 8238TIP3   OH224674   1.823   0.418   4.125 -0.3819 -0.3256  0.0897
 8238TIP3    H124675   1.891   0.459   4.179 -1.3835  0.3352  0.8565
 8238TIP3    H224676   1.747   0.412   4.183 -0.3471 -3.0070 -0.1001
 8239TIP3   OH224677   7.381   1.033   2.338 -0.1068  0.6473 -0.0773
 8239TIP3    H124678   7.367   1.079   2.421  0.2452  3.6870 -1.6285
 8239TIP3    H224679   7.308   0.971   2.333 -0.5785  0.9793  2.1217
 8240TIP3   OH224680   1.637   1.876   3.284  0.1363 -0.3010 -0.5684
 8240TIP3    H124681   1.666   1.853   3.372 -0.0963  0.1182 -0.3801
 8240TIP3    H224682   1.567   1.813   3.265  0.1432 -0.3506 -0.4305
 8241TIP3   OH224683   7.752   0.165   2.328  0.6914 -0.4115  0.2212
 8241TIP3    H124684   7.699   0.237   2.294 -1.2197 -2.2282 -0.7063
 8241TIP3    H224685   7.713   0.145   2.413  0.7204 -0.8957  0.1192
 8242TIP3   OH224686   4.167   7.262   1.599 -0.2889  0.2123 -0.3209
 8242TIP3    H124687   4.151   7.219   1.683  1.4947 -0.7779 -0.4632
 8242TIP3    H224688   4.243   7.217   1.563 -0.6119  1.0892 -2.1620
 8243TIP3   OH224689   0.576   0.205   3.227  0.7050  0.4618  0.0213
 8243TIP3    H124690   0.663   0.165   3.227  0.6513  0.3449 -0.5168
 8243TIP3    H224691   0.530   0.165   3.153  0.1181  0.3638  0.4310
 8244TIP3   OH224692   1.017   0.062   3.760  0.1975 -0.5614  0.5197
 8244TIP3    H124693   0.983  -0.019   3.797  0.6004 -1.0780 -0.2289
 8244TIP3    H224694   1.104   0.039   3.729 -0.1001 -0.1120 -0.6551
 8245TIP3   OH224695   3.095   2.217   2.412  0.4973  0.1150  0.1738
 8245TIP3    H124696   3.127   2.228   2.322  0.6567 -0.1295  0.2019
 8245TIP3    H224697   3.156   2.157   2.452  0.2233 -0.0515  0.3433
 8246TIP3   OH224698   6.815   6.638   2.327 -0.1936 -0.2211  0.0875
 8246TIP3    H124699   6.820   6.706   2.260 -1.1855 -1.5089 -1.3615
 8246TIP3    H224700   6.904   6.602   2.331  0.8579  2.4643  2.3481
 8247TIP3   OH224701   5.971   7.146   1.855  0.0288 -0.2336  0.2189
 8247TIP3    H124702   5.996   7.197   1.932  0.4929  0.3436 -0.3013
 8247TIP3    H224703   5.876   7.138   1.860  0.1450 -0.9396  1.3028
 8248TIP3   OH224704   7.187   0.390   0.544  0.4576  0.4636  0.1371
 8248TIP3    H124705   7.245   0.420   0.613  1.4612 -0.1937 -0.4026
 8248TIP3    H224706   7.100   0.389   0.584  1.4599 -3.1700  2.4752
 8249TIP3   OH224707   5.005   5.558   3.517 -0.1710  0.4300 -0.6437
 8249TIP3    H124708   4.960   5.479   3.547 -1.1940  1.3255  0.2480
 8249TIP3    H224709   4.951   5.630   3.549  0.8279  1.5012 -1.3066
 8250TIP3   OH224710   6.288   1.141   4.501 -0.3270 -0.4301 -0.1306
 8250TIP3    H124711   6.234   1.147   4.423 -0.2334  0.4466 -0.1388
 8250TIP3    H224712   6.227   1.155   4.574 -0.2062  0.0135 -0.1127
 8251TIP3   OH224713   0.267   0.475   1.918 -0.4065  0.4565  0.0793
 8251TIP3    H124714   0.200   0.461   1.985  0.1482 -0.5637  0.4280
 8251TIP3    H224715   0.335   0.525   1.962  0.1706 -0.6133  0.4210
 8252TIP3   OH224716   0.889   0.602   3.044 -0.6894 -0.6210  0.1835
 8252TIP3    H124717   0.940   0.564   2.973 -1.9690 -1.5868 -0.2263
 8252TIP3    H224718   0.943   0.675   3.075  0.4130 -0.9107 -0.9968
 8253TIP3   OH224719   4.521   6.721   3.462  0.2622  0.7962 -0.4826
 8253TIP3    H124720   4.456   6.791   3.464 -0.2155  0.3435  0.1463
 8253TIP3    H224721   4.605   6.766   3.465 -0.0546  1.3058  1.2151
 8254TIP3   OH224722   7.459   1.156   3.101  0.5653  0.3624 -0.1378
 8254TIP3    H124723   7.545   1.168   3.060  1.0655  0.3530  0.9024
 8254TIP3    H224724   7.426   1.245   3.114  0.7622  0.3889  0.1849
 8255TIP3   OH224725   0.716   1.443   1.158 -0.3417  0.3439  0.2901
 8255TIP3    H124726   0.649   1.385   1.195 -0.5209  0.0506 -0.4685
 8255TIP3    H224727   0.670   1.490   1.088  0.2660  0.0771 -0.2914
 8256TIP3   OH224728   1.926   0.249   1.249  0.2128 -0.1397  0.0486
 8256TIP3    H124729   1.944   0.298   1.330 -0.4818 -0.2794  0.2899
 8256TIP3    H224730   1.986   0.286   1.185 -0.0528  0.7885  0.3288
 8257TIP3   OH224731   7.644   7.015   2.852 -0.0588  0.0474  0.5418
 8257TIP3    H124732   7.688   6.943   2.897 -0.1595  0.7698  1.8478
 8257TIP3    H224733   7.566   7.032   2.905 -0.8392  0.1239 -0.6078
 8258TIP3   OH224734   7.294   0.246   3.121  0.0843  0.3100 -0.6257
 8258TIP3    H124735   7.284   0.153   3.139  0.8737  0.1040 -1.2110
 8258TIP3    H224736   7.369   0.251   3.061 -0.9497  1.1890 -1.8588
 8259TIP3   OH224737   5.755   6.532   2.971 -0.1458 -0.1738  0.7095
 8259TIP3    H124738   5.808   6.452   2.964  1.3856  0.8142  0.6380
 8259TIP3    H224739   5.792   6.591   2.905 -0.5933  0.9635  1.4527
 8260TIP3   OH224740   2.190   0.417   1.194  0.0491 -0.5377  0.2036
 8260TIP3    H124741   2.188   0.451   1.284 -1.9485 -1.0242  0.3671
 8260TIP3    H224742   2.250   0.343   1.198  1.6499  0.7479  0.6415
 8261TIP3   OH224743   7.646   2.128   1.768 -1.0930 -0.1591  0.1073
 8261TIP3    H124744   7.570   2.070   1.759 -2.2039  1.1492  0.7704
 8261TIP3    H224745   7.693   2.094   1.845 -2.1871  0.2846  0.9926
 8262TIP3   OH224746   1.728   0.456   1.651  0.0997 -0.3313  0.1762
 8262TIP3    H124747   1.719   0.544   1.689 -0.6879 -0.6157  0.6654
 8262TIP3    H224748   1.784   0.409   1.714 -1.5715 -0.9358  1.2299
 8263TIP3   OH224749   7.133   6.992   1.267  0.5105  0.0027  0.2776
 8263TIP3    H124750   7.063   6.927   1.269  0.3147  0.1550 -1.1728
 8263TIP3    H224751   7.201   6.956   1.324 -0.5540 -0.3632  1.3144
 8264TIP3   OH224752   2.101   0.678   4.128 -0.2675 -0.6841 -0.0527
 8264TIP3    H124753   2.195   0.687   4.113 -0.3427  0.4084  0.1046
 8264TIP3    H224754   2.063   0.677   4.040 -0.1753 -0.3743 -0.0963
 8265TIP3   OH224755   4.198   6.173   0.674  0.0657 -0.2918  0.0729
 8265TIP3    H124756   4.109   6.145   0.696 -0.1276  0.4708  0.2956
 8265TIP3    H224757   4.254   6.131   0.739 -0.0950 -1.0176 -0.2531
 8266TIP3   OH224758   2.049   6.570   2.384 -0.5331 -0.3421 -0.4271
 8266TIP3    H124759   2.063   6.659   2.417 -1.2608  0.4699 -2.2282
 8266TIP3    H224760   1.981   6.534   2.439 -0.0368  0.1143  0.4992
 8267TIP3   OH224761   1.653   0.907   4.597 -0.5141  0.2390  0.3000
 8267TIP3    H124762   1.680   0.896   4.506  0.1554  1.0720  0.3903
 8267TIP3    H224763   1.602   0.988   4.598 -0.0675  0.5165  0.7674
 8268TIP3   OH224764   1.724   1.422   4.919 -0.1510  0.2542  0.0473
 8268TIP3    H124765   1.786   1.360   4.882 -0.6129 -0.5845  0.6688
 8268TIP3    H224766   1.650   1.421   4.859  0.5526  1.4945 -0.8685
 8269TIP3   OH224767   1.544   4.136   3.873 -0.7890  0.0677 -0.6734
 8269TIP3    H124768   1.628   4.122   3.915 -0.9644  0.4646 -0.1769
 8269TIP3    H224769   1.530   4.059   3.819 -1.3515 -1.2852  1.3452
 8270TIP3   OH224770   7.600   1.220   3.787  0.9198 -0.0750 -0.0203
 8270TIP3    H124771   7.581   1.292   3.727  0.0041 -2.3887 -2.6331
 8270TIP3    H224772   7.518   1.172   3.794  1.5489 -0.9470  1.5806
 8271TIP3   OH224773   1.030   1.292   4.674  0.0233  0.5380  0.7160
 8271TIP3    H124774   0.985   1.212   4.703 -1.2151  0.3842 -1.5660
 8271TIP3    H224775   1.107   1.261   4.627 -0.2274  0.7123  0.1951
 8272TIP3   OH224776   6.450   7.313   3.629 -0.0347  0.1564  0.0839
 8272TIP3    H124777   6.492   7.337   3.546  0.4161 -2.3261 -0.4286
 8272TIP3    H224778   6.516   7.333   3.696  0.8065 -0.8652 -0.4450
 8273TIP3   OH224779   1.554   1.150   4.567 -0.1643 -0.1133  0.1199
 8273TIP3    H124780   1.578   1.224   4.511  1.8247 -1.3457 -0.7094
 8273TIP3    H224781   1.463   1.130   4.544 -1.1027  2.7476  1.1498
 8274TIP3   OH224782   2.045   1.418   5.112  0.1517  0.0855  0.4079
 8274TIP3    H124783   2.070   1.341   5.162  0.4018 -2.6644 -3.7161
 8274TIP3    H224784   1.992   1.385   5.040 -0.4540  3.8490 -1.0219
 8275TIP3   OH224785   4.457   6.744   4.200  0.1628 -0.1959  0.1616
 8275TIP3    H124786   4.385   6.783   4.251 -0.8630 -0.5660 -0.9786
 8275TIP3    H224787   4.535   6.791   4.229 -0.7550  1.2335  0.3702
 8276TIP3   OH224788   7.355   1.375   5.755  0.1830 -0.5192 -0.4141
 8276TIP3    H124789   7.323   1.350   5.668 -0.1131  1.3651 -0.8537
 8276TIP3    H224790   7.440   1.415   5.738  0.0353  0.0329  0.1553
 8277TIP3   OH224791   0.757   1.530   4.362 -0.3044  0.2100  0.4097
 8277TIP3    H124792   0.715   1.492   4.439  0.8570  1.4424  1.6954
 8277TIP3    H224793   0.846   1.495   4.363 -0.2474  0.3235 -0.3140
 8278TIP3   OH224794   6.853  -0.011   3.291 -0.7598 -0.1030  0.0770
 8278TIP3    H124795   6.862   0.082   3.315 -1.0849 -0.1527  0.3906
 8278TIP3    H224796   6.931  -0.052   3.327  0.4262  0.4057 -1.8466
 8279TIP3   OH224797   0.274   1.147   3.422  0.1491  0.0522  0.2881
 8279TIP3    H124798   0.317   1.087   3.483  0.3571  0.0176  0.1134
 8279TIP3    H224799   0.182   1.123   3.425  0.4385 -1.3212 -0.9269
 8280TIP3   OH224800   1.755   0.600   1.168  0.0814 -0.0640  0.1210
 8280TIP3    H124801   1.815   0.611   1.095  0.9759  0.4637  0.9200
 8280TIP3    H224802   1.677   0.648   1.143  0.8703  1.2071  0.0660
 8281TIP3   OH224803   0.720   2.782   2.658 -0.2037 -0.0376 -0.2469
 8281TIP3    H124804   0.690   2.774   2.568 -1.5437  0.7383  0.1252
 8281TIP3    H224805   0.734   2.692   2.686  1.6888 -0.2350 -1.6957
 8282TIP3   OH224806   1.611   1.106   4.159 -0.3234 -0.1974 -0.3468
 8282TIP3    H124807   1.604   1.122   4.065 -1.7250  1.4871  0.0180
 8282TIP3    H224808   1.641   1.189   4.196  1.9911 -1.3722  0.5159
 8283TIP3   OH224809   3.201   6.910   3.662  0.4858  0.3597  0.5044
 8283TIP3    H124810   3.194   6.909   3.567 -0.0868 -0.5458  0.5549
 8283TIP3    H224811   3.207   7.003   3.684 -2.8078  0.7995 -0.1758
 8284TIP3   OH224812   2.908   0.753   2.749  0.5675  0.0351  0.2457
 8284TIP3    H124813   2.845   0.693   2.789  1.0179 -0.2985  0.4517
 8284TIP3    H224814   2.926   0.818   2.818  0.0775  0.4107  0.0215
 8285TIP3   OH224815   7.182   0.877   2.243 -0.5605  0.0432 -0.6139
 8285TIP3    H124816   7.246   0.865   2.172 -0.2525  1.0295 -0.5000
 8285TIP3    H224817   7.148   0.965   2.231 -0.2749  0.3404  0.6529
 8286TIP3   OH224818   5.340   7.169   2.857  0.0831 -0.4230 -0.2854
 8286TIP3    H124819   5.423   7.181   2.810  0.3958  1.8348  0.7890
 8286TIP3    H224820   5.340   7.077   2.882  1.9425 -0.6164 -0.9074
 8287TIP3   OH224821   0.712   1.001   3.760  0.3824  0.0895 -0.1912
 8287TIP3    H124822   0.717   1.075   3.821  0.4876 -1.5341  1.8223
 8287TIP3    H224823   0.720   0.923   3.815 -2.4142 -1.5285 -1.9217
 8288TIP3   OH224824   2.068   6.890   4.932 -0.3282  0.2304  0.1222
 8288TIP3    H124825   2.161   6.913   4.931 -0.2907  0.0886  0.4129
 8288TIP3    H224826   2.040   6.900   4.840  0.3838 -1.3840 -0.2783
 8289TIP3   OH224827   7.290   0.921   3.472  0.3767  0.2511 -0.1555
 8289TIP3    H124828   7.327   1.006   3.496  0.0059 -0.0052  1.3631
 8289TIP3    H224829   7.205   0.942   3.433  1.3287  0.7245 -1.9904
 8290TIP3   OH224830   1.228   0.316   2.660  0.8048  0.0943  0.3889
 8290TIP3    H124831   1.254   0.230   2.695 -1.7902 -1.1970 -0.7554
 8290TIP3    H224832   1.295   0.336   2.594  1.8960 -0.6393  1.2530
 8291TIP3   OH224833   6.050   6.787   3.269 -0.2138  0.3306 -0.6784
 8291TIP3    H124834   6.020   6.751   3.185  0.6905  0.2417 -0.9649
 8291TIP3    H224835   6.031   6.719   3.333  2.3646 -1.0724 -1.3554
 8292TIP3   OH224836   0.162   1.189   2.394  0.0660  0.5574  0.1441
 8292TIP3    H124837   0.068   1.178   2.376  0.5106 -0.2838 -1.7354
 8292TIP3    H224838   0.167   1.270   2.444 -1.6387  0.8169 -0.0697
 8293TIP3   OH224839   6.638   5.196   2.439 -0.0379  0.5206 -0.7800
 8293TIP3    H124840   6.668   5.287   2.439 -0.5115  0.7044 -2.2009
 8293TIP3    H224841   6.622   5.177   2.346  1.0575 -1.3497 -0.6108
 8294TIP3   OH224842   7.676   1.336   5.383 -0.2715 -0.1915 -0.3728
 8294TIP3    H124843   7.713   1.422   5.363 -0.0297 -0.0923  0.4926
 8294TIP3    H224844   7.746   1.289   5.428 -0.6729 -0.5514 -0.1179
 8295TIP3   OH224845   7.711   1.472   4.342 -0.2531  0.3106 -0.0856
 8295TIP3    H124846   7.694   1.562   4.369 -1.1118 -0.3987  1.8680
 8295TIP3    H224847   7.679   1.466   4.252  1.5195  2.4343 -0.8898
 8296TIP3   OH224848   6.087   6.900   3.735  0.6527 -0.6024 -0.0417
 8296TIP3    H124849   6.131   6.901   3.650  1.0460  0.8100  0.1608
 8296TIP3    H224850   6.157   6.893   3.799  0.5495  0.8895  0.2522
 8297TIP3   OH224851   1.112   1.057   4.312  0.1222 -0.2021  0.3727
 8297TIP3    H124852   1.065   0.974   4.308 -0.8542  0.3336  0.4508
 8297TIP3    H224853   1.088   1.102   4.231  0.3537  0.1515  0.5003
 8298TIP3   OH224854   5.538   6.056   1.146  0.1664  0.1893 -0.1081
 8298TIP3    H124855   5.608   6.115   1.118  2.3516 -1.4305  1.7831
 8298TIP3    H224856   5.551   5.977   1.095  1.3935 -1.0966  2.1072
 8299TIP3   OH224857   2.001   2.373   4.971 -0.3313 -0.3941  0.3347
 8299TIP3    H124858   2.023   2.466   4.974 -2.0748  0.0821 -1.0922
 8299TIP3    H224859   1.916   2.367   5.015 -0.4772 -1.2404 -0.0642
 8300TIP3   OH224860   6.299   3.042   0.776 -0.6142  0.0571 -0.0884
 8300TIP3    H124861   6.325   3.132   0.757 -1.3107  0.0500 -1.1559
 8300TIP3    H224862   6.214   3.050   0.820 -1.2846 -0.1181 -1.3298
 8301TIP3   OH224863   5.892   5.704   4.635 -0.4926 -0.5007  0.3033
 8301TIP3    H124864   5.857   5.669   4.553  2.5359  2.3759 -2.3308
 8301TIP3    H224865   5.941   5.630   4.673  1.7745 -0.6576 -2.7462
 8302TIP3   OH224866   6.019   6.454   6.020 -0.7410  0.0699 -0.1092
 8302TIP3    H124867   6.043   6.542   6.050 -1.1684  0.0544  0.2835
 8302TIP3    H224868   6.028   6.458   5.925 -1.7916  0.8537 -0.1868
 8303TIP3   OH224869   1.835   0.184   3.440 -0.0745  0.0280 -0.0203
 8303TIP3    H124870   1.745   0.199   3.470  0.6721  2.7743  0.9552
 8303TIP3    H224871   1.872   0.124   3.504 -0.7554  0.0654  0.4200
 8304TIP3   OH224872   4.356   6.446   1.253  0.5049  0.2185  0.1556
 8304TIP3    H124873   4.382   6.528   1.295 -0.6733  0.0426  1.2601
 8304TIP3    H224874   4.337   6.471   1.162  1.5652  0.8948  0.1098
 8305TIP3   OH224875   1.074   3.490   5.537 -0.1271 -0.2017  0.3568
 8305TIP3    H124876   1.105   3.567   5.489  0.1435 -1.3863 -1.4235
 8305TIP3    H224877   1.105   3.503   5.627  0.5538  1.4034 -0.1035
 8306TIP3   OH224878   1.357   1.539   5.837  0.1823 -0.1811 -0.3041
 8306TIP3    H124879   1.446   1.516   5.864  0.4743 -0.2877 -1.3490
 8306TIP3    H224880   1.314   1.454   5.822 -0.4245 -0.1603  1.2162
 8307TIP3   OH224881   2.605   1.587   5.443  0.4708 -0.1067 -0.5684
 8307TIP3    H124882   2.598   1.627   5.529 -1.0541 -0.0910 -0.6725
 8307TIP3    H224883   2.684   1.624   5.405  0.6681  0.5633  0.4821
 8308TIP3   OH224884   0.075   2.432   6.195 -0.3966 -0.3993 -0.0941
 8308TIP3    H124885   0.093   2.348   6.154  0.3396 -0.2700 -0.0511
 8308TIP3    H224886   0.044   2.410   6.283  0.8877 -0.5988  0.3170
 8309TIP3   OH224887   1.762   2.479   6.335 -0.2605  0.3840 -0.0737
 8309TIP3    H124888   1.734   2.394   6.370 -0.4766  0.6816  0.4833
 8309TIP3    H224889   1.680   2.524   6.314 -0.1668  0.8367  0.5427
 8310TIP3   OH224890   2.257   0.421   6.119  0.0819  0.1842 -0.3758
 8310TIP3    H124891   2.275   0.383   6.205 -0.3161  1.8335  0.4597
 8310TIP3    H224892   2.163   0.437   6.119  0.1579  0.6543 -0.9214
 8311TIP3   OH224893   3.866   5.279   0.761  0.6148  0.0070 -0.0099
 8311TIP3    H124894   3.880   5.186   0.741 -1.1323  0.1152 -1.9125
 8311TIP3    H224895   3.937   5.325   0.716 -0.6069 -0.1352 -2.1235
 8312TIP3   OH224896   6.582   6.716   3.350  0.1756  0.6922  0.5273
 8312TIP3    H124897   6.531   6.775   3.405  0.0141 -0.1488  1.2743
 8312TIP3    H224898   6.594   6.765   3.268 -0.0544  1.7133  1.0934
 8313TIP3   OH224899   3.187   6.976   5.715 -0.2094 -0.4987 -0.6268
 8313TIP3    H124900   3.253   6.933   5.769 -0.8623  1.4937  1.8919
 8313TIP3    H224901   3.236   7.039   5.662  0.1173 -0.2604 -0.0425
 8314TIP3   OH224902   6.352   7.353   5.411 -0.3114  0.0242  0.0856
 8314TIP3    H124903   6.401   7.367   5.330 -0.3965 -1.2547 -0.1897
 8314TIP3    H224904   6.358   7.259   5.427  0.0659  0.3108  1.7904
 8315TIP3   OH224905   3.640   0.498   6.011 -0.2582  0.3445 -0.4120
 8315TIP3    H124906   3.546   0.505   5.993  0.1319  0.8712 -2.4298
 8315TIP3    H224907   3.669   0.426   5.955  0.4629 -0.1102  0.5467
 8316TIP3   OH224908   6.080   3.009   1.516  0.5763 -0.5637 -0.0113
 8316TIP3    H124909   6.008   3.067   1.543  1.2119 -0.2074  0.9608
 8316TIP3    H224910   6.037   2.935   1.475 -0.3530 -0.2920  0.4526
 8317TIP3   OH224911   6.172   4.135   2.227 -0.7290  0.3426 -0.7387
 8317TIP3    H124912   6.079   4.113   2.236 -0.3097 -1.0956  0.2831
 8317TIP3    H224913   6.200   4.090   2.148 -0.6990  0.0708 -0.5735
 8318TIP3   OH224914   6.785   0.250   0.285 -0.1769 -0.1599 -0.3935
 8318TIP3    H124915   6.714   0.256   0.222 -0.5891 -1.3430 -0.0528
 8318TIP3    H224916   6.863   0.231   0.233 -0.6250 -1.7830 -0.5086
 8319TIP3   OH224917   0.752   2.677   4.636  0.5877 -0.2391 -0.0870
 8319TIP3    H124918   0.678   2.708   4.584  0.2825 -0.3941  0.2563
 8319TIP3    H224919   0.742   2.722   4.721  1.3002  0.3190 -0.2927
 8320TIP3   OH224920   7.282   5.094   0.455 -0.5605 -0.6123 -0.1680
 8320TIP3    H124921   7.359   5.079   0.510 -0.2738 -2.4361 -1.0123
 8320TIP3    H224922   7.316   5.139   0.378  0.1834 -3.6855 -1.7395
 8321TIP3   OH224923   2.452   5.099   1.048 -0.6274  0.1352 -0.3392
 8321TIP3    H124924   2.513   5.151   1.099  0.5339  0.1206 -1.6777
 8321TIP3    H224925   2.505   5.062   0.977 -1.8068 -1.3803 -0.4620
 8322TIP3   OH224926   6.766   6.178   0.222 -0.2731  0.1885  0.5817
 8322TIP3    H124927   6.673   6.158   0.227 -0.2655  0.1184  0.4497
 8322TIP3    H224928   6.798   6.167   0.312 -0.7549  2.0172  1.0066
 8323TIP3   OH224929   1.607   2.213   4.986  0.7335  0.4714 -0.1278
 8323TIP3    H124930   1.603   2.241   5.078  2.2897  0.1458  0.0534
 8323TIP3    H224931   1.571   2.124   4.987 -0.1851  0.8309 -0.0111
 8324TIP3   OH224932   0.396   4.398   1.203  0.0572 -0.3073 -0.0093
 8324TIP3    H124933   0.394   4.492   1.219  0.6793  0.0123 -1.6673
 8324TIP3    H224934   0.322   4.364   1.253  0.8725  0.8079  2.0217
 8325TIP3   OH224935   7.354   3.474   1.905 -0.2612 -0.7804 -0.3213
 8325TIP3    H124936   7.391   3.417   1.837  0.7764 -0.5138  0.0062
 8325TIP3    H224937   7.430   3.517   1.944 -0.7826 -1.3756  1.4141
 8326TIP3   OH224938   6.988   4.847   0.827 -0.2959  0.1939  0.4251
 8326TIP3    H124939   6.994   4.870   0.734  0.2128  2.0910  0.9148
 8326TIP3    H224940   6.895   4.850   0.847 -0.1838  2.7733  0.6903
 8327TIP3   OH224941   4.682   5.310   1.199 -0.6275  0.0669  0.5421
 8327TIP3    H124942   4.713   5.228   1.238 -1.6082 -0.5207  0.1075
 8327TIP3    H224943   4.661   5.366   1.274  1.2955  0.4155  0.8405
 8328TIP3   OH224944   4.781   4.221   0.806  0.1437  0.3604 -0.3530
 8328TIP3    H124945   4.744   4.163   0.874  4.1774 -0.2955  1.4092
 8328TIP3    H224946   4.789   4.164   0.729  0.7066 -0.4274  0.2802
 8329TIP3   OH224947   5.859   5.652   0.432  0.0719  0.3913  0.2320
 8329TIP3    H124948   5.949   5.622   0.446  0.7137  1.1594 -2.0944
 8329TIP3    H224949   5.867   5.747   0.424 -1.0756  0.5499  0.8786
 8330TIP3   OH224950   2.162   0.974   5.233  0.5700 -0.6929 -0.0315
 8330TIP3    H124951   2.079   0.985   5.280 -0.2154 -0.0008 -1.5304
 8330TIP3    H224952   2.201   0.895   5.272 -0.1974 -0.3250  1.5339
 8331TIP3   OH224953   7.725   4.189   0.375 -0.0410 -0.3522 -0.4950
 8331TIP3    H124954   7.796   4.162   0.433 -0.0865 -0.1000 -0.3232
 8331TIP3    H224955   7.767   4.246   0.310 -0.1761  0.1935 -0.1020
 8332TIP3   OH224956   3.346   2.832   6.046 -0.2466 -0.1436 -0.1526
 8332TIP3    H124957   3.322   2.830   6.139  0.1458  1.6706 -0.0021
 8332TIP3    H224958   3.428   2.881   6.043 -1.3901  1.7510 -1.6807
 8333TIP3   OH224959   4.593   1.940   5.628  0.0811  0.2071 -0.0539
 8333TIP3    H124960   4.570   2.033   5.626  2.8920  0.9425 -1.0958
 8333TIP3    H224961   4.549   1.902   5.552 -0.8633  0.7292  0.2281
 8334TIP3   OH224962   4.750   4.510   0.814 -0.7968  0.3909 -0.3263
 8334TIP3    H124963   4.693   4.525   0.890 -0.6116 -1.3234  0.1579
 8334TIP3    H224964   4.757   4.415   0.807  1.2967  0.5664 -0.9216
 8335TIP3   OH224965   2.712   0.403   5.848 -0.3560 -0.0775 -0.2876
 8335TIP3    H124966   2.649   0.457   5.895 -0.0347  0.5983 -0.6266
 8335TIP3    H224967   2.698   0.424   5.756 -0.4014 -0.7633 -0.4397
 8336TIP3   OH224968   6.373   6.622   2.258 -0.3911  0.3552  0.0676
 8336TIP3    H124969   6.279   6.626   2.244 -0.6025 -2.8287  0.2581
 8336TIP3    H224970   6.384   6.560   2.331  1.7316  2.2408  1.4150
 8337TIP3   OH224971   3.408   0.692   4.787  0.5667 -1.0016 -0.4526
 8337TIP3    H124972   3.390   0.695   4.693 -2.4065 -0.1853  0.0998
 8337TIP3    H224973   3.442   0.604   4.802 -3.5874 -2.8971 -1.5340
 8338TIP3   OH224974   6.876   6.590   5.860  0.2506  0.0719  0.3454
 8338TIP3    H124975   6.941   6.558   5.797  1.5464  1.5739  0.8842
 8338TIP3    H224976   6.907   6.678   5.883 -2.4512  1.1508 -0.0297
 8339TIP3   OH224977   5.119   1.457   6.188 -0.0350 -0.0614  0.6384
 8339TIP3    H124978   5.096   1.471   6.280  0.5267  2.8575  0.3978
 8339TIP3    H224979   5.039   1.477   6.140  0.5177  1.6028  0.3445
 8340TIP3   OH224980   3.746   6.846   0.282 -0.2337  0.1042 -0.6670
 8340TIP3    H124981   3.803   6.911   0.240  0.1154  1.0301  1.2132
 8340TIP3    H224982   3.667   6.894   0.304  0.8692  0.5040  2.7082
 8341TIP3   OH224983   2.657   2.461   5.879  0.0699 -0.2872  0.3919
 8341TIP3    H124984   2.579   2.437   5.930  0.3188 -2.0104 -0.0078
 8341TIP3    H224985   2.730   2.424   5.929  0.5416  0.3181  0.1596
 8342TIP3   OH224986   6.923   6.209   1.050 -0.6151 -0.0190 -0.0733
 8342TIP3    H124987   6.868   6.213   1.128 -1.7988 -0.1274 -0.8916
 8342TIP3    H224988   6.960   6.121   1.051 -1.5074 -0.4060 -0.2119
 8343TIP3   OH224989   5.851   4.960   0.729 -0.8720 -0.2605  0.0170
 8343TIP3    H124990   5.756   4.956   0.723 -0.9545  0.9011  0.2901
 8343TIP3    H224991   5.878   5.010   0.652 -0.6498  1.0116  0.8919
 8344TIP3   OH224992   4.403   5.104   0.818 -0.7391  0.3354 -0.3914
 8344TIP3    H124993   4.444   5.092   0.733 -1.2823  2.0262 -0.9030
 8344TIP3    H224994   4.438   5.187   0.850  2.3551 -1.9993  2.7289
 8345TIP3   OH224995   6.987   6.170   2.352 -0.1117 -0.2342 -0.2908
 8345TIP3    H124996   7.042   6.236   2.310 -0.1936 -0.2687 -0.4532
 8345TIP3    H224997   7.049   6.101   2.377 -0.0600 -0.2056 -0.3382
 8346TIP3   OH224998   1.893   0.662   5.254  0.3729 -0.1763  0.1681
 8346TIP3    H124999   1.947   0.694   5.325  0.8191  1.0761 -0.7165
 8346TIP3    H225000   1.915   0.569   5.247  0.1878 -0.3540  1.7562
 8347TIP3   OH225001   2.728   0.846   5.282  0.3300 -0.6195  0.0597
 8347TIP3    H125002   2.815   0.885   5.289  0.0081  0.4209 -1.3444
 8347TIP3    H225003   2.697   0.875   5.196 -1.7598 -0.2312  0.9231
 8348TIP3   OH225004   3.659   1.382   5.961  0.1780  0.3140  0.2005
 8348TIP3    H125005   3.593   1.335   5.911  0.5692 -0.9094  0.7889
 8348TIP3    H225006   3.627   1.472   5.967 -0.8854 -0.0214 -0.4453
 8349TIP3   OH225007   7.562   3.412   0.131  0.2154  0.6263  0.1782
 8349TIP3    H125008   7.621   3.487   0.132 -0.7664  1.4130  0.2616
 8349TIP3    H225009   7.569   3.376   0.043 -0.6965  1.9358 -0.4336
 8350TIP3   OH225010   3.139   1.890   5.318 -0.0865 -0.2223  0.3123
 8350TIP3    H125011   3.231   1.868   5.333 -0.5141 -0.8810  2.0265
 8350TIP3    H225012   3.097   1.879   5.403 -1.7929 -0.0895 -0.4901
 8351TIP3   OH225013   1.303   4.991   0.715 -0.3715 -0.1815  0.4839
 8351TIP3    H125014   1.271   4.907   0.683  2.1755 -0.6627 -0.8994
 8351TIP3    H225015   1.341   4.972   0.800 -0.3999 -0.2898  0.4722
 8352TIP3   OH225016   1.834   7.335   6.172 -0.1661  0.1881  0.0685
 8352TIP3    H125017   1.862   7.427   6.165 -0.5882  0.2476 -0.8197
 8352TIP3    H225018   1.910   7.290   6.210 -0.8476  1.3581  2.9912
 8353TIP3   OH225019   1.937   1.594   5.573  0.0861 -0.0921  0.0232
 8353TIP3    H125020   1.882   1.639   5.509 -1.2138  0.0816  1.2313
 8353TIP3    H225021   1.879   1.578   5.647  0.7414 -3.0853 -0.0595
 8354TIP3   OH225022   5.884   2.231   2.718  0.5616  0.0618 -0.2582
 8354TIP3    H125023   5.880   2.274   2.804  0.7703  0.0479 -0.2411
 8354TIP3    H225024   5.815   2.165   2.721  1.6130 -1.0203  0.4918
 8355TIP3   OH225025   5.463   3.974   0.300 -0.1462 -0.0928  0.0030
 8355TIP3    H125026   5.378   3.952   0.338 -1.3155  2.7155 -0.8715
 8355TIP3    H225027   5.443   4.036   0.230  2.5993  0.3090 -0.4872
 8356TIP3   OH225028   4.886   3.768   0.485 -0.0392  0.2089 -0.0809
 8356TIP3    H125029   4.967   3.736   0.525  0.4021  0.5521 -0.6923
 8356TIP3    H225030   4.819   3.754   0.552  0.4109 -0.6474  0.1947
 8357TIP3   OH225031   4.165   6.258   1.527  0.6815  0.3517 -0.1041
 8357TIP3    H125032   4.203   6.178   1.490  0.4399  0.9283 -1.6125
 8357TIP3    H225033   4.235   6.324   1.518  1.0899  0.1786  1.6623
 8358TIP3   OH225034   6.434   4.474   0.807  0.1523  0.4615 -0.4906
 8358TIP3    H125035   6.506   4.535   0.825  0.5518 -0.0347 -0.4081
 8358TIP3    H225036   6.477   4.394   0.777 -0.3792  0.2674 -0.7401
 8359TIP3   OH225037   6.471   5.222   1.857 -0.0559  0.7078 -0.5790
 8359TIP3    H125038   6.432   5.200   1.772 -1.6685  1.0740  0.0578
 8359TIP3    H225039   6.467   5.140   1.907 -0.8674  0.9895 -0.1844
 8360TIP3   OH225040   5.512   4.554   0.427  0.2230  0.2723 -0.1916
 8360TIP3    H125041   5.597   4.575   0.389  0.1795  1.0332  0.1202
 8360TIP3    H225042   5.530   4.537   0.520  0.0211  0.5262 -0.1051
 8361TIP3   OH225043   6.950   6.210   1.396 -0.0260  0.0407 -0.4728
 8361TIP3    H125044   6.954   6.184   1.488 -0.3716 -0.9155 -0.7168
 8361TIP3    H225045   7.041   6.226   1.372  0.0517  0.4628  0.0778
 8362TIP3   OH225046   5.928   4.130   2.619 -0.2154 -0.1317  0.4315
 8362TIP3    H125047   5.960   4.041   2.608  0.0328  0.0159 -0.0488
 8362TIP3    H225048   6.005   4.181   2.642 -0.3270 -0.0108  0.5380
 8363TIP3   OH225049   6.581   3.850   3.058  0.4068 -0.2703  0.1162
 8363TIP3    H125050   6.613   3.869   3.146  0.5209 -0.9005  0.2084
 8363TIP3    H225051   6.578   3.755   3.053 -0.3046 -0.2312 -0.3032
 8364TIP3   OH225052   7.265   5.660   0.038 -0.9135 -0.3314 -0.4845
 8364TIP3    H125053   7.355   5.631   0.023  0.0083  2.5798 -0.9085
 8364TIP3    H225054   7.214   5.579   0.040  1.3022 -1.8721 -2.9121
 8365TIP3   OH225055   1.505   5.567   1.830 -0.2997 -0.0449  0.3619
 8365TIP3    H125056   1.432   5.516   1.795 -0.6107  1.2071 -0.8918
 8365TIP3    H225057   1.492   5.567   1.925 -2.5304  1.0226  0.0941
 8366TIP3   OH225058   6.941   2.176   0.010 -0.0107 -0.2734 -0.8323
 8366TIP3    H125059   6.889   2.252  -0.016  0.3641 -0.1168 -1.1224
 8366TIP3    H225060   7.027   2.211   0.032  0.1104 -0.5922 -0.7896
 8367TIP3   OH225061   6.868   5.765   0.397 -0.0844 -0.2045  0.0826
 8367TIP3    H125062   6.945   5.738   0.446  0.0940  0.4613  0.1723
 8367TIP3    H225063   6.809   5.690   0.402 -0.6371  0.3509  2.4644
 8368TIP3   OH225064   6.219   6.564   1.228  0.6344  0.4301  0.2174
 8368TIP3    H125065   6.150   6.604   1.176  1.8973  1.1257 -0.9643
 8368TIP3    H225066   6.176   6.490   1.272 -1.0582  1.4046  0.2396
 8369TIP3   OH225067   2.006   0.432   6.068  0.2999  0.0563  0.3517
 8369TIP3    H125068   1.949   0.495   6.112  0.6359  0.0900  0.7464
 8369TIP3    H225069   1.956   0.350   6.067 -1.0836  0.8955 -2.2485
 8370TIP3   OH225070   3.015   0.163   5.642 -0.0693 -0.2749 -0.5340
 8370TIP3    H125071   2.925   0.196   5.643 -0.3232 -0.9617  0.7539
 8370TIP3    H225072   3.062   0.220   5.703  0.3764  0.1048 -1.2308
 8371TIP3   OH225073   0.579   5.744   5.197 -0.2178  0.5097 -0.0577
 8371TIP3    H125074   0.654   5.699   5.234 -0.6867 -0.2550 -0.0134
 8371TIP3    H225075   0.600   5.837   5.204  0.3571  0.3228  0.7092
 8372TIP3   OH225076   3.095   3.709   5.938  0.6357  0.4356 -0.3682
 8372TIP3    H125077   3.121   3.634   5.992 -0.6446 -1.0041 -1.7046
 8372TIP3    H225078   3.171   3.727   5.884  0.7518 -0.2458 -0.4299
 8373TIP3   OH225079   5.618   4.527   0.995 -0.0152 -0.4747 -0.8779
 8373TIP3    H125080   5.572   4.603   1.030  0.8990 -0.7145  0.9367
 8373TIP3    H225081   5.562   4.452   1.017  0.5819 -0.6304  0.1707
 8374TIP3   OH225082   3.827   1.228   5.563 -0.3219 -0.0217 -0.1268
 8374TIP3    H125083   3.753   1.190   5.611 -0.4354 -1.0138 -1.0922
 8374TIP3    H225084   3.816   1.323   5.576 -1.8907 -0.1359 -0.4363
 8375TIP3   OH225085   4.019   0.664   5.874 -0.3389 -0.4982 -0.1841
 8375TIP3    H125086   4.042   0.667   5.781  0.6512 -0.4739  0.0514
 8375TIP3    H225087   4.031   0.572   5.899 -1.2432 -0.6337 -0.2333
 8376TIP3   OH225088   0.268   5.016   1.874  0.3608 -0.2920  0.1875
 8376TIP3    H125089   0.202   5.073   1.834  0.9075 -0.0847 -0.4317
 8376TIP3    H225090   0.299   5.065   1.950 -0.1863 -0.3832  0.4722
 8377TIP3   OH225091   0.132   4.123   0.555  0.0479 -0.1758  0.2659
 8377TIP3    H125092   0.207   4.066   0.538 -0.1475 -0.3350 -0.0741
 8377TIP3    H225093   0.169   4.211   0.560  0.2497 -0.2476  0.0359
 8378TIP3   OH225094   7.586   4.559   1.541  0.0019  0.4271  0.2732
 8378TIP3    H125095   7.656   4.576   1.604  0.5002 -1.9700  0.4201
 8378TIP3    H225096   7.522   4.628   1.558  1.1318  1.1312  1.9030
 8379TIP3   OH225097   5.310   4.814   2.004 -0.4571 -0.1982 -0.0604
 8379TIP3    H125098   5.215   4.809   2.019 -0.2546  0.6214  1.6459
 8379TIP3    H225099   5.325   4.759   1.928 -2.5390  0.9158 -1.3454
 8380TIP3   OH225100   3.997   1.726   5.769 -0.5418 -0.0532 -0.1210
 8380TIP3    H125101   4.061   1.704   5.701 -0.1990 -0.4482  0.3301
 8380TIP3    H225102   4.044   1.785   5.827 -1.4224  1.8272 -1.2738
 8381TIP3   OH225103   3.216   1.415   5.892  0.8780 -0.1270 -0.3228
 8381TIP3    H125104   3.182   1.379   5.810 -0.4437 -0.3540  0.3166
 8381TIP3    H225105   3.281   1.480   5.864 -0.4486  0.6927 -1.5975
 8382TIP3   OH225106   4.134   1.934   5.907 -1.1986 -0.2447 -0.0355
 8382TIP3    H125107   4.121   2.019   5.867 -1.7497 -0.2303  0.1709
 8382TIP3    H225108   4.222   1.907   5.879 -1.7390 -0.4152 -1.5551
 8383TIP3   OH225109   6.831   2.350   4.298  0.0270 -0.4424  0.1732
 8383TIP3    H125110   6.883   2.427   4.276 -2.6707  2.1243  2.4162
 8383TIP3    H225111   6.783   2.331   4.218  0.0584  0.7450 -0.1421
 8384TIP3   OH225112   2.127   1.592   6.248  0.2134  0.0900  0.0397
 8384TIP3    H125113   2.162   1.652   6.182 -0.4281 -0.4285 -0.7662
 8384TIP3    H225114   2.032   1.596   6.238  0.1662 -1.2348 -0.1742
 8385TIP3   OH225115   5.843   4.116   0.662  0.3908 -0.0136  0.0512
 8385TIP3    H125116   5.795   4.197   0.679  1.3380  0.8828 -1.4649
 8385TIP3    H225117   5.797   4.077   0.587  0.0172 -0.8145  0.6962
 8386TIP3   OH225118   4.515   3.343   0.932 -0.2133 -0.0003 -0.1044
 8386TIP3    H125119   4.529   3.281   0.860 -1.8266 -2.3030  1.5006
 8386TIP3    H225120   4.420   3.345   0.943  0.0107  0.2157  2.0314
 8387TIP3   OH225121   4.503   2.466   5.906 -0.0174  0.1873 -0.1520
 8387TIP3    H125122   4.456   2.542   5.942 -2.4790 -0.6091 -1.5632
 8387TIP3    H225123   4.493   2.398   5.972  1.0627  0.6637  0.5229
 8388TIP3   OH225124   6.900   4.644   0.317  0.0106  0.8915 -0.6608
 8388TIP3    H125125   6.917   4.598   0.400 -1.4249  3.5875  1.2161
 8388TIP3    H225126   6.986   4.679   0.291  0.8036 -1.4434 -1.2847
 8389TIP3   OH225127   5.734   4.604   0.199  0.8366 -0.0485 -0.1112
 8389TIP3    H125128   5.792   4.590   0.274  0.0995 -1.3602  0.2358
 8389TIP3    H225129   5.756   4.691   0.168  2.4745 -0.2306  0.4742
 8390TIP3   OH225130   2.999   1.904   5.891 -0.2350  0.1383  0.5482
 8390TIP3    H125131   2.952   1.878   5.812  1.5152 -1.8207  0.1202
 8390TIP3    H225132   3.001   1.825   5.945  0.9795  0.7006  1.3539
 8391TIP3   OH225133   0.676   4.277  -0.011 -0.1914 -0.6180 -0.3960
 8391TIP3    H125134   0.761   4.306   0.022 -0.3097 -0.1451 -0.5076
 8391TIP3    H225135   0.660   4.194   0.034  0.9408 -1.3897 -1.3736
 8392TIP3   OH225136   5.106   4.412   0.313 -0.1962 -0.2845 -0.8564
 8392TIP3    H125137   5.039   4.480   0.324 -0.1542 -0.1973 -1.1375
 8392TIP3    H225138   5.074   4.339   0.366 -0.3144 -0.0976 -0.6702
 8393TIP3   OH225139   1.608   2.432   5.634  0.5211  0.4719  0.3858
 8393TIP3    H125140   1.515   2.452   5.643  0.5213  0.4109  0.5107
 8393TIP3    H225141   1.634   2.480   5.555  0.3807  0.4773  0.3418
 8394TIP3   OH225142   6.175   5.424   1.236  0.1431 -0.1858  0.3569
 8394TIP3    H125143   6.159   5.491   1.169  0.4374  1.0277  1.4877
 8394TIP3    H225144   6.141   5.343   1.197 -1.4003  0.8502 -0.5148
 8395TIP3   OH225145   3.160   3.485   5.689 -0.0490  0.0076 -0.2500
 8395TIP3    H125146   3.225   3.546   5.725 -0.1297 -0.7722  1.2618
 8395TIP3    H225147   3.169   3.493   5.594  0.9665  1.2734 -0.0615
 8396TIP3   OH225148   4.811   4.009   0.001 -0.0540  0.1432  0.4413
 8396TIP3    H125149   4.770   4.087   0.040 -1.6663 -0.1382 -0.6327
 8396TIP3    H225150   4.851   3.964   0.075 -0.6154  1.0805  1.3460
 8397TIP3   OH225151   4.886   1.465   6.044 -0.1002 -0.5276  0.3570
 8397TIP3    H125152   4.905   1.417   5.964  2.8108  1.1247 -0.0082
 8397TIP3    H225153   4.837   1.542   6.016  1.0750  0.1441  0.0945
 8398TIP3   OH225154   4.476   2.203   5.565  0.5674 -0.2806  0.2390
 8398TIP3    H125155   4.390   2.174   5.535  1.4761 -3.6798  0.7942
 8398TIP3    H225156   4.461   2.294   5.593 -2.8045 -0.7511  0.2091
 8399TIP3   OH225157   1.641   0.077   4.392 -0.3415  0.3107 -0.3084
 8399TIP3    H125158   1.667   0.162   4.426 -1.1243  1.5931 -2.7353
 8399TIP3    H225159   1.558   0.058   4.436  0.0566  0.5882  0.5694
 8400TIP3   OH225160   0.126   7.175   3.850 -0.2597 -0.1148  0.1232
 8400TIP3    H125161   0.129   7.167   3.755  2.1288  1.8385 -0.0112
 8400TIP3    H225162   0.033   7.162   3.872 -0.8744 -0.3668 -2.4697
 8401TIP3   OH225163   4.549   6.026   1.638  0.1217 -0.1542 -0.1862
 8401TIP3    H125164   4.621   6.035   1.576  0.2465  3.8920  0.4489
 8401TIP3    H225165   4.472   6.011   1.583  0.8439 -0.7801 -1.0530
 8402TIP3   OH225166   1.193   5.560   2.100 -0.6976 -0.1361  0.1758
 8402TIP3    H125167   1.179   5.586   2.008 -1.4140 -4.0326 -0.9060
 8402TIP3    H225168   1.273   5.507   2.097  0.6979  1.7754  2.2903
 8403TIP3   OH225169  -0.031   6.541   1.317  0.2187  0.6344  0.4326
 8403TIP3    H125170   0.009   6.520   1.402 -0.3401  2.1718  1.0869
 8403TIP3    H225171   0.043   6.564   1.261  0.5581 -0.0352  0.5963
 8404TIP3   OH225172   0.437   3.781   0.369  0.3847  0.1626 -0.5230
 8404TIP3    H125173   0.493   3.748   0.440 -2.9434  1.1887  2.7619
 8404TIP3    H225174   0.465   3.872   0.358 -0.7386  0.7471  1.2798
 8405TIP3   OH225175   0.127   5.463   0.686  0.1276 -0.2131  0.4315
 8405TIP3    H125176   0.134   5.526   0.615  0.5406 -0.6292  0.1002
 8405TIP3    H225177   0.110   5.379   0.643 -0.3438 -0.3420  0.8643
 8406TIP3   OH225178   5.777   3.588   2.714 -0.4744  0.3666  0.2020
 8406TIP3    H125179   5.724   3.603   2.792  0.5041 -0.4517  1.0388
 8406TIP3    H225180   5.733   3.517   2.667 -1.2947  1.1405 -0.2193
 8407TIP3   OH225181   1.650   6.407   5.972  0.6121  0.3978  0.1855
 8407TIP3    H125182   1.691   6.328   6.007  2.5820  1.3836  0.1485
 8407TIP3    H225183   1.558   6.382   5.960  1.1809 -1.8691  0.2194
 8408TIP3   OH225184   6.495   2.959   0.944 -0.2182  0.5903 -0.0500
 8408TIP3    H125185   6.442   2.937   1.021  1.0918 -3.1915 -0.1039
 8408TIP3    H225186   6.432   2.993   0.881 -2.4147 -2.3777  0.4148
 8409TIP3   OH225187   1.596   3.550   1.298 -0.6278 -0.0217 -0.2510
 8409TIP3    H125188   1.611   3.580   1.387  0.2714 -1.0703 -0.0382
 8409TIP3    H225189   1.661   3.481   1.285 -0.2760  0.6126 -1.9618
 8410TIP3   OH225190   1.429   5.746   1.625  0.3062  0.1040 -0.4936
 8410TIP3    H125191   1.474   5.826   1.652 -0.1509  0.2537 -0.1511
 8410TIP3    H225192   1.478   5.676   1.667 -0.5054  0.3503  0.9144
 8411TIP3   OH225193   4.017   0.530   4.754  0.1183  0.6223  0.1975
 8411TIP3    H125194   3.953   0.468   4.717  1.2696 -0.1423 -0.5401
 8411TIP3    H225195   3.963   0.595   4.800 -1.1675 -0.2681 -0.0172
 8412TIP3   OH225196   1.065   5.710   1.317  0.4024 -0.1706  0.6730
 8412TIP3    H125197   1.098   5.794   1.286 -2.4292  0.5348 -0.6565
 8412TIP3    H225198   1.060   5.656   1.239 -1.6353 -0.1976  0.7906
 8413TIP3   OH225199   5.210   1.161   5.387  0.2564  0.1326 -0.1325
 8413TIP3    H125200   5.231   1.222   5.458 -2.0831  1.9828 -0.9614
 8413TIP3    H225201   5.270   1.185   5.317  1.6845 -0.8313  0.7404
 8414TIP3   OH225202   4.406   6.709   1.146 -0.3941 -0.3246  0.0448
 8414TIP3    H125203   4.401   6.697   1.241 -2.5045  0.2157  0.0240
 8414TIP3    H225204   4.463   6.785   1.135  1.8191 -1.8224  0.7491
 8415TIP3   OH225205   1.713   7.190   6.391 -0.0602 -0.6950 -0.0319
 8415TIP3    H125206   1.645   7.123   6.384 -0.6725  0.0209 -1.1137
 8415TIP3    H225207   1.758   7.187   6.307  1.4109 -1.3214  0.7623
 8416TIP3   OH225208   5.349   5.822   0.081  0.5839  0.1065  0.2596
 8416TIP3    H125209   5.318   5.905   0.118 -2.3789 -0.1406 -1.5448
 8416TIP3    H225210   5.347   5.761   0.154  1.0265  1.1766  1.1819
 8417TIP3   OH225211   7.504   4.128   0.251  0.1475 -0.6890 -0.3127
 8417TIP3    H125212   7.503   4.220   0.227  0.4042 -0.5126  0.3296
 8417TIP3    H225213   7.597   4.105   0.253  0.1118 -0.7986  0.1265
 8418TIP3   OH225214   3.714   3.047   4.297 -0.1590 -0.1792  0.2129
 8418TIP3    H125215   3.805   3.032   4.271  0.1091 -1.2399  1.6916
 8418TIP3    H225216   3.670   3.070   4.215  1.3126 -0.2056 -0.6227
 8419TIP3   OH225217   1.024   5.638   2.877  0.0960 -0.2445 -0.0696
 8419TIP3    H125218   1.055   5.667   2.791  0.1665 -1.1095 -0.3404
 8419TIP3    H225219   0.933   5.668   2.881  0.6661  1.4498  0.3308
 8420TIP3   OH225220   3.626   4.806   0.875 -0.2441 -0.1330 -0.5440
 8420TIP3    H125221   3.563   4.785   0.806  0.7868 -1.6768 -1.0594
 8420TIP3    H225222   3.604   4.746   0.947 -0.2014  0.2368 -0.2233
 8421TIP3   OH225223   4.316   5.252   0.382 -0.5745 -0.0966  0.3775
 8421TIP3    H125224   4.400   5.289   0.357 -0.7949  0.5046  0.4966
 8421TIP3    H225225   4.259   5.270   0.308 -1.4358  2.3891  1.5690
 8422TIP3   OH225226   5.760   5.610   0.917  0.7287  0.1019  0.4758
 8422TIP3    H125227   5.707   5.611   0.838  0.1237  1.3471  0.8773
 8422TIP3    H225228   5.822   5.682   0.906  0.1218  0.8035  1.4544
 8423TIP3   OH225229   5.324   2.445   5.015 -0.2359  0.1983 -0.1610
 8423TIP3    H125230   5.307   2.499   4.938 -2.0213  0.7168  0.5941
 8423TIP3    H225231   5.239   2.406   5.037 -0.0363  1.0968  2.3429
 8424TIP3   OH225232   6.757   6.150   0.816  0.1056  0.0989  0.5661
 8424TIP3    H125233   6.664   6.168   0.805  0.0872  0.3020  1.0630
 8424TIP3    H225234   6.770   6.145   0.910  0.6844  0.5274  0.5112
 8425TIP3   OH225235   0.541   5.279   4.255  0.2310 -0.1289  0.8378
 8425TIP3    H125236   0.552   5.266   4.349  0.3131  0.3148  0.8883
 8425TIP3    H225237   0.621   5.324   4.228  2.1612 -3.9747 -0.1770
 8426TIP3   OH225238   4.047   2.174   5.798  0.2342  0.2943  0.5630
 8426TIP3    H125239   4.019   2.247   5.743  1.3431 -0.2742 -0.7915
 8426TIP3    H225240   4.075   2.215   5.880 -1.1915  1.1764  0.6183
 8427TIP3   OH225241   2.805   0.539   0.735  0.0209  0.3971 -0.1109
 8427TIP3    H125242   2.830   0.518   0.825 -1.2021  0.4558  0.2541
 8427TIP3    H225243   2.735   0.604   0.744 -0.8307 -0.3706 -1.0724
 8428TIP3   OH225244   0.486   2.273   5.760 -0.4842  0.2103  0.0662
 8428TIP3    H125245   0.517   2.360   5.736 -1.9741  0.1644 -2.1244
 8428TIP3    H225246   0.396   2.287   5.791 -0.1643 -0.3442  1.2931
 8429TIP3   OH225247   0.735   5.693   1.300  0.2612  0.1383  0.2971
 8429TIP3    H125248   0.803   5.748   1.261  0.7674 -1.7598 -1.5788
 8429TIP3    H225249   0.687   5.658   1.225 -3.0602  1.7188  1.5974
 8430TIP3   OH225250   7.150   4.806   0.267  0.5661 -0.0292 -0.0047
 8430TIP3    H125251   7.212   4.748   0.224 -0.4416 -1.0548 -0.0908
 8430TIP3    H225252   7.178   4.894   0.241  1.4329 -0.5266 -0.7841
 8431TIP3   OH225253   1.261   6.420   1.117 -0.5374  0.3139 -0.1641
 8431TIP3    H125254   1.213   6.348   1.075  1.1093 -0.5576 -0.5722
 8431TIP3    H225255   1.309   6.462   1.045 -1.3664  1.7501  0.0928
 8432TIP3   OH225256   7.589   5.220   0.468 -0.0092  0.3584  0.1434
 8432TIP3    H125257   7.605   5.134   0.429 -0.7357  0.0844  0.4480
 8432TIP3    H225258   7.564   5.201   0.559  3.2402  1.0563  1.2605
 8433TIP3   OH225259   3.632   0.385   5.221 -0.1548 -0.4207 -0.4901
 8433TIP3    H125260   3.634   0.291   5.209 -1.2527 -0.4491 -0.5397
 8433TIP3    H225261   3.580   0.398   5.301  1.0752  0.0828  0.2523
 8434TIP3   OH225262   7.471   4.384   0.835  0.2188  0.3491 -0.6716
 8434TIP3    H125263   7.511   4.298   0.829 -2.9399 -1.0612 -2.8625
 8434TIP3    H225264   7.518   4.437   0.770  1.0226 -0.2107 -0.5447
 8435TIP3   OH225265   5.319   1.240   5.871 -0.7157  0.2909  0.5600
 8435TIP3    H125266   5.339   1.220   5.779  0.9178 -0.0104  0.9594
 8435TIP3    H225267   5.321   1.335   5.876 -0.5521  0.3008  0.3282
 8436TIP3   OH225268   2.118   5.303   0.462  0.0351  0.9647  0.3803
 8436TIP3    H125269   2.134   5.285   0.554  1.0913  0.7489  0.1666
 8436TIP3    H225270   2.024   5.320   0.456 -0.1095  0.5337  1.4152
 8437TIP3   OH225271   7.769   6.516   2.774 -0.6170 -0.8715  0.1146
 8437TIP3    H125272   7.806   6.589   2.824 -2.2222 -0.8736  1.3651
 8437TIP3    H225273   7.823   6.510   2.695  2.9852 -1.8824  2.5615
 8438TIP3   OH225274   7.422   3.816   2.193  0.1688  0.4442  0.8765
 8438TIP3    H125275   7.425   3.909   2.217 -0.3110  0.7781 -0.2876
 8438TIP3    H225276   7.330   3.791   2.204 -0.1737  0.7488 -1.0204
 8439TIP3   OH225277   1.065   4.923   1.782 -0.5573 -0.0583 -0.0007
 8439TIP3    H125278   0.977   4.904   1.748 -0.5175 -0.7351  0.2586
 8439TIP3    H225279   1.105   4.837   1.795 -0.4880  0.1806  1.5196
 8440TIP3   OH225280   4.015   0.934   5.066  0.1264 -0.2851 -0.0677
 8440TIP3    H125281   3.961   0.934   5.145  0.5142  1.0392  0.2137
 8440TIP3    H225282   4.030   0.842   5.046 -1.2200 -0.6490  0.5500
 8441TIP3   OH225283   0.474   3.912   0.757 -0.1597  0.0821  0.1734
 8441TIP3    H125284   0.551   3.900   0.700 -0.3037  0.1014 -0.0250
 8441TIP3    H225285   0.456   4.006   0.754 -1.9900 -0.3119 -2.1345
 8442TIP3   OH225286   0.830   4.966   2.739 -0.1389 -0.0880 -0.1560
 8442TIP3    H125287   0.854   4.989   2.829 -0.4832 -0.1762 -0.0434
 8442TIP3    H225288   0.896   4.901   2.713 -0.3653 -0.4718  0.2227
 8443TIP3   OH225289   0.104   4.629   2.188 -0.3025  0.1262 -0.8999
 8443TIP3    H125290   0.120   4.667   2.102 -1.2572  0.3449 -0.9883
 8443TIP3    H225291   0.008   4.630   2.197 -0.3096 -1.5923 -0.6179
 8444TIP3   OH225292   7.580   4.649   0.732 -0.4872  0.5606  0.8668
 8444TIP3    H125293   7.553   4.658   0.641  1.8320  1.7795  0.2529
 8444TIP3    H225294   7.530   4.715   0.779 -2.0855 -0.4335  0.5860
 8445TIP3   OH225295   0.320   1.267   6.011 -0.4262 -0.2450 -0.2740
 8445TIP3    H125296   0.303   1.176   6.033 -1.7940 -0.2494 -1.2336
 8445TIP3    H225297   0.331   1.311   6.096 -1.7901 -0.9424  0.2837
 8446TIP3   OH225298   0.257   4.104   0.988 -0.0889 -0.4981  0.7901
 8446TIP3    H125299   0.336   4.145   1.023  0.6194 -1.7059  0.6211
 8446TIP3    H225300   0.202   4.177   0.960  0.4717  0.3899  1.9639
 8447TIP3   OH225301   6.357   1.771   5.193  0.3254  0.0134  0.4543
 8447TIP3    H125302   6.421   1.832   5.156 -0.4480  1.5779  1.6612
 8447TIP3    H225303   6.279   1.783   5.140 -0.2098  0.9626  1.4375
 8448TIP3   OH225304   5.582   2.331   5.923  0.3591 -0.2580 -0.1497
 8448TIP3    H125305   5.646   2.269   5.887 -1.3555 -2.4854  0.5639
 8448TIP3    H225306   5.502   2.281   5.932 -0.6043  1.5885  2.1568
 8449TIP3   OH225307   5.396   2.592   5.223 -0.3761  0.4813  0.7390
 8449TIP3    H125308   5.325   2.559   5.277 -2.7331  0.9833 -1.9120
 8449TIP3    H225309   5.399   2.532   5.148  2.0487  0.4300  0.8526
 8450TIP3   OH225310   5.198   3.846   4.720 -0.6445 -0.5020  0.3766
 8450TIP3    H125311   5.189   3.902   4.644  0.6036 -2.8648 -1.5853
 8450TIP3    H225312   5.117   3.794   4.721 -1.2182  0.3737  1.4336
 8451TIP3   OH225313   5.536   1.805   5.524  0.5207  0.3312 -0.0727
 8451TIP3    H125314   5.486   1.810   5.606  0.1127  1.2117 -0.3678
 8451TIP3    H225315   5.626   1.825   5.550  0.2055  1.6987 -0.0022
 8452TIP3   OH225316   1.090   3.409   0.186 -0.1001 -0.6458 -0.3063
 8452TIP3    H125317   1.135   3.467   0.125  0.1196  0.9202  1.3076
 8452TIP3    H225318   1.134   3.324   0.177  1.2220  0.0996 -0.8613
 8453TIP3   OH225319   0.254   0.883   5.470  0.3357  0.8126 -0.5425
 8453TIP3    H125320   0.265   0.795   5.507 -1.3655  0.9332  0.2790
 8453TIP3    H225321   0.344   0.913   5.452  0.9822 -0.6651  0.1343
 8454TIP3   OH225322   6.929   0.234   5.717 -0.2712 -0.3050 -0.3033
 8454TIP3    H125323   6.969   0.147   5.723  3.3208  1.1833 -1.4493
 8454TIP3    H225324   6.885   0.234   5.632 -1.2751 -1.3654  0.2002
 8455TIP3   OH225325   7.598   6.220   0.917 -0.7844  0.2222  0.4060
 8455TIP3    H125326   7.618   6.247   1.006 -1.3436 -0.1718  0.6575
 8455TIP3    H225327   7.510   6.254   0.901 -0.9247 -0.2267  0.2176
 8456TIP3   OH225328   5.632   2.066   5.751  0.4464 -0.0498  0.0101
 8456TIP3    H125329   5.558   2.012   5.779 -1.2686  2.5685  0.6425
 8456TIP3    H225330   5.607   2.099   5.665  1.1950  0.2550 -0.0932
 8457TIP3   OH225331   2.494   6.722   2.352  0.1041 -0.6063  0.7499
 8457TIP3    H125332   2.436   6.751   2.282  0.9021  0.8135  0.6490
 8457TIP3    H225333   2.509   6.800   2.405  1.9556 -0.9167  0.7330
 8458TIP3   OH225334   7.528   5.922   0.258 -0.4613 -0.6679 -0.8768
 8458TIP3    H125335   7.552   5.840   0.214 -0.0509 -1.5361  0.9097
 8458TIP3    H225336   7.452   5.899   0.311  0.9536 -0.4504  1.3043
 8459TIP3   OH225337   4.956   1.224   4.681  0.1184 -0.0530  0.0424
 8459TIP3    H125338   5.000   1.229   4.596  0.7386 -1.1325  0.2949
 8459TIP3    H225339   4.874   1.272   4.668  0.0903 -0.4341 -1.2454
 8460TIP3   OH225340   1.357   6.093   0.666 -0.0806 -0.7830  0.3833
 8460TIP3    H125341   1.272   6.067   0.701 -0.5842 -1.0425 -1.0041
 8460TIP3    H225342   1.370   6.182   0.698 -0.5990 -0.9584  1.0938
 8461TIP3   OH225343   6.169   5.638   1.059  0.0193 -0.3451 -0.4525
 8461TIP3    H125344   6.223   5.697   1.007  0.8494 -0.3724  0.3696
 8461TIP3    H225345   6.124   5.583   0.994 -1.3342  1.6626 -1.2460
 8462TIP3   OH225346   2.154   4.788   2.108  1.1030 -0.3266  0.1055
 8462TIP3    H125347   2.152   4.813   2.200  0.7338 -1.0688  0.3038
 8462TIP3    H225348   2.084   4.723   2.099 -1.3153  2.3088 -1.4512
 8463TIP3   OH225349   7.185   6.221   0.082 -0.7127 -0.0977  0.5476
 8463TIP3    H125350   7.228   6.184   0.160 -2.2757  1.4504  2.1866
 8463TIP3    H225351   7.226   6.176   0.009  1.7028 -0.6859  2.2070
 8464TIP3   OH225352   0.771   6.063   1.090 -0.2046 -0.0671  0.0498
 8464TIP3    H125353   0.763   5.969   1.073  0.8917 -0.2966  0.7764
 8464TIP3    H225354   0.801   6.099   1.006 -1.9856 -0.1475 -0.6542
 8465TIP3   OH225355   6.930   1.384   5.247 -0.2486 -0.0762 -0.1069
 8465TIP3    H125356   6.946   1.405   5.339 -0.6727 -0.5275  0.0732
 8465TIP3    H225357   6.860   1.318   5.249  0.3246 -0.7171 -0.7100
 8466TIP3   OH225358   5.944   1.650   4.900 -0.2613  0.1729  0.0744
 8466TIP3    H125359   5.938   1.730   4.848 -0.0428 -0.5338 -1.0554
 8466TIP3    H225360   6.003   1.593   4.850 -0.6051 -0.7851  0.7468
 8467TIP3   OH225361   5.705   1.173   5.801  0.3407 -0.1417 -0.4315
 8467TIP3    H125362   5.712   1.084   5.834  0.7227  0.7399  1.9224
 8467TIP3    H225363   5.779   1.183   5.741  3.1579  0.1114  2.9718
 8468TIP3   OH225364   0.363   7.282   1.174  0.3363  0.6340  0.2271
 8468TIP3    H125365   0.295   7.226   1.210  1.5893 -0.5442  0.7968
 8468TIP3    H225366   0.411   7.315   1.250  1.2719  0.3239 -0.2146
 8469TIP3   OH225367   1.363   4.940   0.354 -0.0322 -0.3294  0.4577
 8469TIP3    H125368   1.280   4.988   0.360  0.2028  0.2918 -1.0891
 8469TIP3    H225369   1.401   4.967   0.270  2.0705 -0.0775  1.4495
 8470TIP3   OH225370   3.800   2.877   6.305 -0.4715  0.1178 -0.1396
 8470TIP3    H125371   3.860   2.828   6.362 -1.6585 -0.6223  0.4974
 8470TIP3    H225372   3.835   2.966   6.305  2.3072 -0.8856 -2.1158
 8471TIP3   OH225373   0.300   5.373   0.890  0.0801 -0.0459 -0.2089
 8471TIP3    H125374   0.245   5.434   0.841 -0.5054  0.7773  1.4576
 8471TIP3    H225375   0.337   5.425   0.961 -0.4947 -1.6502  1.2928
 8472TIP3   OH225376   1.638   5.902   2.019 -0.0510 -0.1535  0.2897
 8472TIP3    H125377   1.692   5.831   1.983 -0.2856 -0.6234  0.8560
 8472TIP3    H225378   1.579   5.926   1.947 -0.5163 -1.0885  0.3445
 8473TIP3   OH225379   5.911   3.339   5.281 -0.3111 -0.1442  0.1437
 8473TIP3    H125380   5.925   3.407   5.216 -2.6237  1.4424  1.2271
 8473TIP3    H225381   5.839   3.286   5.246 -0.3024 -0.4127  0.5283
 8474TIP3   OH225382   6.706   1.005   6.150  0.2305  0.0355  0.5353
 8474TIP3    H125383   6.715   1.096   6.121 -1.2828 -0.4138 -1.4079
 8474TIP3    H225384   6.792   0.966   6.132  0.4541  0.7201  0.0961
 8475TIP3   OH225385   1.014   5.278   0.930  0.1223  0.4128 -0.1227
 8475TIP3    H125386   0.921   5.272   0.905 -0.3137 -0.1304  1.5491
 8475TIP3    H225387   1.060   5.231   0.860 -1.1659 -2.0368  0.5873
 8476TIP3   OH225388   0.737   5.207   0.922  0.2260 -0.2583 -0.6681
 8476TIP3    H125389   0.713   5.137   0.861 -0.7770 -0.6150  0.1193
 8476TIP3    H225390   0.653   5.244   0.950  0.6615 -0.2551  0.6709
 8477TIP3   OH225391   0.602   3.145   2.981  0.6462  0.3280 -0.6588
 8477TIP3    H125392   0.532   3.203   2.951  0.2074  0.6888  1.0421
 8477TIP3    H225393   0.568   3.057   2.964 -0.1992  0.5047  0.1315
 8478TIP3   OH225394   5.421   1.812   6.109  0.4973 -0.4008  0.2178
 8478TIP3    H125395   5.436   1.746   6.041 -1.0634 -0.3878 -0.1392
 8478TIP3    H225396   5.467   1.890   6.077  1.1662 -0.8845 -0.0195
 8479TIP3   OH225397   1.069   4.588   0.912 -0.0827  0.1916 -0.3054
 8479TIP3    H125398   0.988   4.639   0.912 -0.1801  0.0403  0.4996
 8479TIP3    H225399   1.113   4.613   0.993  1.0405  0.8384 -1.1074
 8480TIP3   OH225400   5.685   3.620   2.129 -0.5306  0.5269 -0.0446
 8480TIP3    H125401   5.755   3.677   2.097  1.6136 -2.0259 -0.0615
 8480TIP3    H225402   5.710   3.602   2.220  0.0933 -2.2020 -0.7238
 8481TIP3   OH225403   6.090   1.319   6.067  0.5035 -0.0991  0.6267
 8481TIP3    H125404   6.112   1.362   5.985  0.7525 -2.3180 -0.4958
 8481TIP3    H225405   6.020   1.373   6.104  0.0679  0.6569 -1.2539
 8482TIP3   OH225406   5.021   0.042   6.142  0.0679 -0.5659  0.1915
 8482TIP3    H125407   4.929   0.026   6.121 -0.3334 -0.6944  1.9977
 8482TIP3    H225408   5.020   0.119   6.198  0.8775 -1.6694  1.7606
 8483TIP3   OH225409   6.791   5.565   0.160 -0.1017 -0.2277 -0.4694
 8483TIP3    H125410   6.846   5.626   0.110 -0.6273  1.1045  0.5377
 8483TIP3    H225411   6.704   5.576   0.123 -0.0851 -0.8380 -0.6961
 8484TIP3   OH225412   6.891   2.327   2.135 -0.2064  0.2771 -0.6803
 8484TIP3    H125413   6.821   2.264   2.156 -1.1010  0.9304 -1.6391
 8484TIP3    H225414   6.972   2.277   2.145 -0.8427 -0.6848 -0.2344
 8485TIP3   OH225415   0.640   2.281   0.645 -0.5820  0.3760  0.0667
 8485TIP3    H125416   0.720   2.265   0.695 -0.4021 -0.3473 -0.4508
 8485TIP3    H225417   0.661   2.252   0.556 -0.7986  1.9161 -0.5076
 8486TIP3   OH225418   0.944   4.902   0.936 -0.4233 -0.4508 -0.4712
 8486TIP3    H125419   0.967   4.966   0.868 -0.4978  0.5329  0.4141
 8486TIP3    H225420   0.869   4.855   0.900  0.2507 -0.7268 -1.5469
 8487TIP3   OH225421   5.535   1.217   5.571 -0.1582 -0.3607  0.4496
 8487TIP3    H125422   5.594   1.288   5.596  1.0339 -1.4548  0.8120
 8487TIP3    H225423   5.543   1.153   5.642 -1.5187 -0.6811  0.3238
 8488TIP3   OH225424   0.625   6.618   0.399  0.2441  0.2509  0.0424
 8488TIP3    H125425   0.654   6.540   0.352  1.4968  0.6532  0.1234
 8488TIP3    H225426   0.532   6.604   0.415  0.4096 -1.1034 -0.1697
 8489TIP3   OH225427   1.932   0.333   2.854 -0.1281  0.1691  0.2684
 8489TIP3    H125428   1.988   0.261   2.825 -1.1201 -0.4930 -0.0335
 8489TIP3    H225429   1.993   0.400   2.886  0.7877 -0.9653  0.9306
 8490TIP3   OH225430   6.072   4.328   1.041  0.3007 -0.4439  0.4147
 8490TIP3    H125431   6.130   4.370   0.978 -0.8296  1.4453  0.6170
 8490TIP3    H225432   6.091   4.372   1.124  0.3111 -1.5080  0.9889
 8491TIP3   OH225433   1.326   4.147   0.486  0.3248  0.6305 -0.5491
 8491TIP3    H125434   1.340   4.053   0.493  0.2481  0.6685  0.1850
 8491TIP3    H225435   1.233   4.156   0.463  0.3198  0.5290 -0.5662
 8492TIP3   OH225436   4.948   0.813   6.164 -0.5448  0.5324  0.0700
 8492TIP3    H125437   5.043   0.807   6.158 -0.6128 -0.7307  0.0937
 8492TIP3    H225438   4.918   0.804   6.074 -0.6055  1.8086 -0.0425
 8493TIP3   OH225439   1.202   5.714   0.573 -0.0085 -0.4672 -0.1731
 8493TIP3    H125440   1.155   5.632   0.586 -2.2169  0.3953 -2.2073
 8493TIP3    H225441   1.285   5.702   0.617 -1.1815 -2.9802  1.4529
 8494TIP3   OH225442   1.698   3.215   0.414 -0.6035 -0.3541 -0.2496
 8494TIP3    H125443   1.647   3.296   0.406  0.0097 -0.0082 -0.7536
 8494TIP3    H225444   1.785   3.245   0.443  0.7209 -0.4579 -3.8921
 8495TIP3   OH225445   0.689   4.761   0.798 -1.2375  0.3093  0.0466
 8495TIP3    H125446   0.688   4.831   0.733 -5.1899 -0.1192 -0.4957
 8495TIP3    H225447   0.704   4.681   0.747  0.0824  0.4117  0.2594
 8496TIP3   OH225448   7.552   4.664   0.452 -0.5509 -0.1328 -0.2072
 8496TIP3    H125449   7.635   4.704   0.427  0.0261 -0.9441  0.3786
 8496TIP3    H225450   7.548   4.582   0.402 -0.8461 -0.2554  0.0114
 8497TIP3   OH225451   0.395   4.842   0.396 -0.3612 -0.1938 -0.0628
 8497TIP3    H125452   0.334   4.836   0.470 -0.7213  2.5932 -0.0771
 8497TIP3    H225453   0.339   4.835   0.319 -0.3480 -0.1649 -0.0750
 8498TIP3   OH225454   6.659   2.928   4.084 -0.2720  0.6617 -0.0260
 8498TIP3    H125455   6.708   2.848   4.103 -0.3691  0.2668 -1.3543
 8498TIP3    H225456   6.581   2.922   4.139 -1.0092 -0.8988 -1.2169
 8499TIP3   OH225457   1.632   5.243   0.293  0.2794 -0.3043  0.1672
 8499TIP3    H125458   1.715   5.282   0.320 -0.1025  0.8208 -0.2553
 8499TIP3    H225459   1.587   5.221   0.374  0.2851  0.5977  0.4146
 8500TIP3   OH225460   5.274   0.509   5.784 -0.7321 -0.4681  0.2069
 8500TIP3    H125461   5.316   0.590   5.753 -1.8168  0.5577  1.3671
 8500TIP3    H225462   5.232   0.473   5.705 -0.2211  0.0803 -0.3242
 8501TIP3   OH225463   5.599   2.107   6.315  0.1758  0.6061 -0.0650
 8501TIP3    H125464   5.654   2.184   6.333 -0.3412  1.3771 -1.6561
 8501TIP3    H225465   5.510   2.137   6.331  0.0550  0.0152  0.3705
 8502TIP3   OH225466   6.999   1.517   3.392  0.1838 -0.1486 -0.6327
 8502TIP3    H125467   6.921   1.565   3.364 -1.3205 -2.6977 -0.8739
 8502TIP3    H225468   7.038   1.485   3.311 -0.1218 -1.3320 -0.3096
 8503TIP3   OH225469   0.094   2.159   6.080  0.1523 -0.1593  0.0618
 8503TIP3    H125470   0.023   2.098   6.098  0.4254 -0.6412 -0.4886
 8503TIP3    H225471   0.155   2.110   6.024 -0.3552  1.1024 -1.6245
 8504TIP3   OH225472   1.935   4.350   1.720  0.3943 -0.1949 -0.2332
 8504TIP3    H125473   1.947   4.379   1.629  2.5832  0.5621  0.2454
 8504TIP3    H225474   1.845   4.318   1.724 -0.0164  0.5949 -2.4399
 8505TIP3   OH225475   4.417   1.447   4.516 -0.1795 -0.7987 -0.2948
 8505TIP3    H125476   4.446   1.497   4.592  0.8672  0.7898 -1.7185
 8505TIP3    H225477   4.465   1.364   4.522 -0.0215 -0.6411  0.7068
 8506TIP3   OH225478   4.920   2.163   6.285 -0.3021  0.1394 -0.5718
 8506TIP3    H125479   4.932   2.117   6.369  0.2142 -1.2272 -1.3684
 8506TIP3    H225480   4.864   2.104   6.234 -1.5356  1.4876 -0.7914
 8507TIP3   OH225481   4.403   0.798   4.678  0.1540 -0.1608  0.0966
 8507TIP3    H125482   4.311   0.824   4.683  0.7075  1.5749  1.6665
 8507TIP3    H225483   4.419   0.786   4.584 -1.2185  1.1843 -0.3264
 8508TIP3   OH225484   6.394   1.343   5.428  0.7401  0.4888  0.7634
 8508TIP3    H125485   6.320   1.311   5.479  1.0767 -0.1886  0.8392
 8508TIP3    H225486   6.397   1.437   5.446  0.4925  0.3579  1.5272
 8509TIP3   OH225487   0.806   1.191   5.036 -0.7652 -0.2974  0.7617
 8509TIP3    H125488   0.714   1.176   5.014 -0.9329 -0.3525  1.5057
 8509TIP3    H225489   0.828   1.272   4.991 -1.1442 -0.3507  0.4780
 8510TIP3   OH225490   7.517   4.413   0.076  0.3049 -0.0872 -1.0428
 8510TIP3    H125491   7.590   4.415   0.137 -0.0830  1.4500 -0.5877
 8510TIP3    H225492   7.556   4.433  -0.009  0.2535  2.1770 -0.5810
 8511TIP3   OH225493   1.468   6.427   1.621 -0.2451  0.8540 -0.0800
 8511TIP3    H125494   1.400   6.374   1.663 -0.2539 -1.2571 -2.6495
 8511TIP3    H225495   1.420   6.496   1.576 -0.6967 -0.4464 -1.6233
 8512TIP3   OH225496   3.598   2.956   6.112 -0.0007  0.5083  0.2677
 8512TIP3    H125497   3.646   2.916   6.184  2.9880  0.1896 -1.8444
 8512TIP3    H225498   3.627   3.047   6.110  0.7527  0.2485 -1.1993
 8513TIP3   OH225499   6.286   2.941   5.615 -0.2281  0.7234 -0.0699
 8513TIP3    H125500   6.343   3.009   5.652 -1.2666  1.1703  0.7351
 8513TIP3    H225501   6.246   2.983   5.539  0.5643  0.3817 -0.6857
 8514TIP3   OH225502   0.224   1.444   5.315 -0.1973  0.7782 -0.1320
 8514TIP3    H125503   0.162   1.402   5.255 -0.5777  1.3562 -0.1524
 8514TIP3    H225504   0.306   1.448   5.266 -0.3562  0.7303 -0.4051
 8515TIP3   OH225505   7.108   1.008   5.166 -0.2325  0.3942  0.0831
 8515TIP3    H125506   7.065   0.996   5.251  1.3439  1.0453  0.9833
 8515TIP3    H225507   7.147   0.923   5.147  0.1365  0.4932  0.4065
 8516TIP3   OH225508   6.816   5.620   3.661  0.4623  0.4557  0.4817
 8516TIP3    H125509   6.808   5.696   3.603  0.1604  0.0171 -0.0587
 8516TIP3    H225510   6.727   5.584   3.665  0.6420  0.0205  0.5747
 8517TIP3   OH225511   4.578   1.577   5.682 -0.5039 -0.1252  0.7069
 8517TIP3    H125512   4.615   1.490   5.671 -2.0971 -0.7592  0.2593
 8517TIP3    H225513   4.542   1.578   5.770 -0.7299 -0.0245  0.6156
 8518TIP3   OH225514   7.756   5.142   0.107 -0.5096 -0.4479  0.3648
 8518TIP3    H125515   7.759   5.111   0.197 -0.2313 -0.1534  0.4586
 8518TIP3    H225516   7.828   5.204   0.101 -0.6642 -0.3029  0.0008
 8519TIP3   OH225517   4.574   4.302   5.325  0.0111  0.3179  0.6354
 8519TIP3    H125518   4.491   4.257   5.311  0.4959  0.1366 -1.9629
 8519TIP3    H225519   4.635   4.233   5.350  0.0110  0.0126 -0.1953
 8520TIP3   OH225520   4.825   1.518   5.369  0.2327 -0.2214 -0.3960
 8520TIP3    H125521   4.863   1.439   5.406  0.2551  0.7857  1.8402
 8520TIP3    H225522   4.819   1.501   5.275  0.3909 -2.7800  0.0408
 8521TIP3   OH225523   0.441   5.929   3.365 -0.5290  0.0834 -0.0722
 8521TIP3    H125524   0.453   5.990   3.293 -3.0767 -0.8619 -1.3586
 8521TIP3    H225525   0.530   5.900   3.387  0.3453  0.9920 -2.2852
 8522TIP3   OH225526   0.707   2.633   0.390  0.3386  0.4402  0.2790
 8522TIP3    H125527   0.665   2.713   0.359 -0.3418 -0.8585 -2.2838
 8522TIP3    H225528   0.635   2.579   0.421  0.5278 -0.2453 -0.4788
 8523TIP3   OH225529   7.195   5.383   1.519  0.2340  0.2699 -0.6507
 8523TIP3    H125530   7.286   5.372   1.492  0.4300 -1.5006  0.6962
 8523TIP3    H225531   7.160   5.294   1.523 -1.0854  0.8278  0.4705
 8524TIP3   OH225532   4.379   1.186   6.114 -0.4369 -0.2020 -0.1327
 8524TIP3    H125533   4.453   1.241   6.138 -1.5552  1.0250  0.5260
 8524TIP3    H225534   4.303   1.243   6.120 -1.6421 -1.8530  0.7271
 8525TIP3   OH225535   4.718   6.267   0.160 -0.0768 -0.6902  0.5405
 8525TIP3    H125536   4.680   6.180   0.174  0.4092 -1.2155 -1.1788
 8525TIP3    H225537   4.644   6.320   0.130 -0.1101 -0.8669  0.3040
 8526TIP3   OH225538   1.907   3.101   1.097  0.2175  0.0415  0.8170
 8526TIP3    H125539   1.877   3.120   1.185  0.4671  0.9988  0.7080
 8526TIP3    H225540   1.990   3.149   1.089  0.0954  0.1296 -0.0019
 8527TIP3   OH225541   5.620   1.048   1.678  0.1037 -0.1395 -0.9347
 8527TIP3    H125542   5.550   1.001   1.632 -0.9679  1.1178 -0.6120
 8527TIP3    H225543   5.675   1.084   1.607 -0.2811 -0.0690 -1.1967
 8528TIP3   OH225544   2.701   6.088   6.349  0.0034  0.2086 -0.0734
 8528TIP3    H125545   2.615   6.124   6.327  0.0510  0.1196 -0.4090
 8528TIP3    H225546   2.750   6.163   6.382  0.7995  0.9238 -2.7647
 8529TIP3   OH225547   6.096   2.659   5.296 -0.0336 -0.6744 -0.0567
 8529TIP3    H125548   6.187   2.685   5.278 -0.6111  0.8295 -0.8291
 8529TIP3    H225549   6.058   2.642   5.210 -0.4783 -1.3591  0.2697
 8530TIP3   OH225550   2.786   0.222   2.279 -0.1418 -0.1670 -0.2958
 8530TIP3    H125551   2.861   0.175   2.315  0.8795 -1.2306 -3.6490
 8530TIP3    H225552   2.824   0.283   2.215 -2.0027  0.3821 -0.9198
 8531TIP3   OH225553   6.075   1.018   3.874 -0.0407 -0.0195 -0.4552
 8531TIP3    H125554   6.108   1.028   3.963  0.6874  0.0229 -0.7272
 8531TIP3    H225555   5.987   0.981   3.885 -0.9579  2.3632  0.3669
 8532TIP3   OH225556   1.251   5.529   0.175  0.2821 -0.1034 -0.5794
 8532TIP3    H125557   1.301   5.611   0.174 -0.4422  0.3452 -1.1889
 8532TIP3    H225558   1.316   5.461   0.162  0.7174  0.4919 -1.5621
 8533TIP3   OH225559   0.192   5.298   0.091 -0.2134 -0.2132  0.1502
 8533TIP3    H125560   0.187   5.384   0.049 -1.7945 -0.3123  0.1282
 8533TIP3    H225561   0.246   5.312   0.169  2.3198  0.0842 -1.5871
 8534TIP3   OH225562   0.581   5.162   1.361 -0.4546 -0.3813  0.0395
 8534TIP3    H125563   0.635   5.106   1.305 -0.7362  0.8435 -1.4977
 8534TIP3    H225564   0.638   5.186   1.434 -0.0035 -1.8047  0.1627
 8535TIP3   OH225565   4.127   1.843   4.607  0.2240  0.2044 -0.3365
 8535TIP3    H125566   4.141   1.899   4.684 -1.2639 -0.4736  0.4317
 8535TIP3    H225567   4.061   1.780   4.634  1.3678 -1.5179 -1.4304
 8536TIP3   OH225568   0.461   6.950   2.166 -0.3375  0.0575  0.1573
 8536TIP3    H125569   0.486   6.964   2.257 -0.9088 -1.9487  0.6495
 8536TIP3    H225570   0.515   6.875   2.138  0.6918  1.3940 -1.5199
 8537TIP3   OH225571   7.570   5.408   0.260 -0.0740  0.3330 -0.0406
 8537TIP3    H125572   7.612   5.368   0.336  0.2798 -0.5410 -0.6905
 8537TIP3    H225573   7.625   5.383   0.186 -0.1322  1.6002 -0.5226
 8538TIP3   OH225574   0.195   6.036   1.243  0.4288 -0.0354  0.3929
 8538TIP3    H125575   0.196   6.130   1.227 -1.9080  0.0659  0.6582
 8538TIP3    H225576   0.196   5.997   1.155  0.9018  0.2408  0.2731
 8539TIP3   OH225577   7.017   4.356   1.121 -0.7289  0.0226 -0.0263
 8539TIP3    H125578   6.974   4.272   1.132  1.6369 -0.9675  2.3327
 8539TIP3    H225579   7.104   4.334   1.086 -0.5167  1.5868 -0.5310
 8540TIP3   OH225580   2.965   7.155   5.592 -0.3210  0.0140  0.1737
 8540TIP3    H125581   2.942   7.082   5.536  1.3557  0.3846 -1.0209
 8540TIP3    H225582   2.918   7.138   5.674  1.0910 -3.1151  0.4202
 8541TIP3   OH225583   4.756   3.561   4.641  0.0920 -0.4113 -0.7012
 8541TIP3    H125584   4.744   3.472   4.609 -0.7881  0.0556 -1.7141
 8541TIP3    H225585   4.731   3.558   4.733  3.3608 -1.9541  0.2322
 8542TIP3   OH225586   6.231   0.303   4.250 -0.4450 -0.7667  0.1600
 8542TIP3    H125587   6.320   0.268   4.253 -0.5119 -0.9811 -0.2841
 8542TIP3    H225588   6.179   0.232   4.212 -1.1577 -1.3665  2.1729
 8543TIP3   OH225589   6.751   2.077   2.130 -0.1885  0.6056 -0.1122
 8543TIP3    H125590   6.764   2.078   2.225  1.5882  1.3358 -0.3454
 8543TIP3    H225591   6.660   2.048   2.119 -0.5385  0.8693  1.8165
 8544TIP3   OH225592   0.412   1.273   4.664  0.0152 -0.5822 -0.0209
 8544TIP3    H125593   0.387   1.183   4.642 -0.8674 -0.5109  0.6515
 8544TIP3    H225594   0.358   1.327   4.608  0.1267 -0.4645 -0.0138
 8545TIP3   OH225595   0.730   3.197   1.228  0.0797  0.2315 -0.0669
 8545TIP3    H125596   0.695   3.278   1.190 -0.6458  0.1698  0.4604
 8545TIP3    H225597   0.757   3.222   1.316 -3.3545 -0.8545  1.3735
 8546TIP3   OH225598   7.354   4.953   1.158 -0.4473  0.3555 -0.4742
 8546TIP3    H125599   7.297   5.029   1.168 -0.9191  0.3233 -2.7377
 8546TIP3    H225600   7.296   4.878   1.165 -0.3883  0.2688 -0.9333
 8547TIP3   OH225601   0.623   3.976   1.596  0.5289  0.0242 -0.3033
 8547TIP3    H125602   0.602   4.049   1.537  2.1405  2.1339  1.6504
 8547TIP3    H225603   0.553   3.977   1.661  0.6067 -0.1197 -0.2180
 8548TIP3   OH225604   0.641   5.482   1.175  0.0729  0.2243 -0.1879
 8548TIP3    H125605   0.547   5.488   1.164  0.0667  0.1357 -0.1875
 8548TIP3    H225606   0.672   5.439   1.096 -0.0775 -1.2594  0.5360
 8549TIP3   OH225607   3.848   2.369   5.107 -0.4769  0.2680 -0.1532
 8549TIP3    H125608   3.883   2.351   5.194 -0.5129 -0.4815 -0.2942
 8549TIP3    H225609   3.922   2.355   5.048  0.0993  2.7499 -0.0654
 8550TIP3   OH225610   5.073   1.694   4.843  0.4474 -0.3547  0.4824
 8550TIP3    H125611   5.074   1.767   4.781  0.6390  0.0455  0.9487
 8550TIP3    H225612   4.982   1.687   4.870 -0.2414 -2.5808 -2.2170
 8551TIP3   OH225613   0.783   7.301   1.544 -0.7947  0.1444 -0.5269
 8551TIP3    H125614   0.786   7.392   1.574 -1.2081 -0.0091 -0.0156
 8551TIP3    H225615   0.773   7.249   1.624  0.7330 -0.4377 -0.7077
 8552TIP3   OH225616   4.052   1.976   5.105 -0.0764 -0.1176  0.3438
 8552TIP3    H125617   4.063   1.884   5.129  2.9443 -0.1910 -1.1453
 8552TIP3    H225618   4.092   2.025   5.177 -0.0735 -0.0294  0.2825
 8553TIP3   OH225619   1.571   6.345  -0.010  0.4798 -0.4047 -0.2155
 8553TIP3    H125620   1.659   6.363   0.024  0.1689  3.5163 -1.2752
 8553TIP3    H225621   1.512   6.387   0.053 -0.5739 -1.8658 -0.2159
 8554TIP3   OH225622   0.924   5.764   2.299  0.0728 -0.2851 -0.2527
 8554TIP3    H125623   1.016   5.774   2.324 -0.2536  0.5512  0.6464
 8554TIP3    H225624   0.882   5.729   2.378 -0.7057  1.0354 -0.0624
 8555TIP3   OH225625   6.758   2.524   5.582  0.1811  0.1474  0.5647
 8555TIP3    H125626   6.759   2.616   5.610 -0.4188 -0.0723  1.3143
 8555TIP3    H225627   6.797   2.526   5.494 -2.6659  1.5556 -0.7284
 8556TIP3   OH225628   6.444   1.934   5.602 -0.6435 -0.1551 -0.1171
 8556TIP3    H125629   6.386   1.997   5.646  0.0008 -0.6539  1.4749
 8556TIP3    H225630   6.532   1.962   5.624 -0.3195 -0.8733 -0.4680
 8557TIP3   OH225631   1.480   5.116   0.534  0.5130 -0.2750  0.0015
 8557TIP3    H125632   1.452   5.055   0.466  0.6992 -0.5583  0.1779
 8557TIP3    H225633   1.422   5.099   0.608  1.4845 -1.2470  0.5638
 8558TIP3   OH225634   0.045   2.506   5.848  0.3385 -0.1295 -0.6660
 8558TIP3    H125635   0.050   2.594   5.886 -0.4777  0.3628 -1.6570
 8558TIP3    H225636  -0.047   2.480   5.860  0.2266 -0.2328 -1.6825
 8559TIP3   OH225637   6.578   5.925   0.761 -0.7003 -0.4464 -0.4784
 8559TIP3    H125638   6.577   5.956   0.851  0.2389 -2.1244  0.1196
 8559TIP3    H225639   6.532   5.841   0.763 -0.1700 -0.7774 -1.4383
 8560TIP3   OH225640   7.018   1.830   6.262 -0.0283  0.0937 -0.1212
 8560TIP3    H125641   7.037   1.802   6.351  2.3380 -1.6945 -1.1289
 8560TIP3    H225642   7.084   1.897   6.244 -2.6449  2.9665  0.5977
 8561TIP3   OH225643   6.951   1.136   4.987 -0.7032  0.1333  0.4884
 8561TIP3    H125644   7.018   1.101   5.046 -0.4659  1.3048  0.9306
 8561TIP3    H225645   6.922   1.061   4.936  1.0236 -0.3588  0.2261
 8562TIP3   OH225646   0.198   6.486   0.261 -0.5521 -0.0403  0.6398
 8562TIP3    H125647   0.210   6.542   0.338 -1.2853  1.1933 -0.1151
 8562TIP3    H225648   0.222   6.542   0.187  1.5327 -1.6712  0.0643
 8563TIP3   OH225649   5.647   3.582   2.961  0.2352 -0.3645  0.0360
 8563TIP3    H125650   5.603   3.521   3.019  0.7150 -0.5501  0.2077
 8563TIP3    H225651   5.619   3.669   2.991 -0.0022 -0.4804  0.1483
 8564TIP3   OH225652   5.319   1.493   5.989 -0.4803 -0.4754  0.0079
 8564TIP3    H125653   5.404   1.456   6.014 -0.7115 -0.3710  0.9463
 8564TIP3    H225654   5.271   1.502   6.071 -0.4885  1.7628 -0.2108
 8565TIP3   OH225655   7.340   3.759   0.562 -0.2313  0.3378  0.3206
 8565TIP3    H125656   7.257   3.799   0.588 -0.3677  1.6877 -2.0372
 8565TIP3    H225657   7.317   3.670   0.536 -0.1810 -0.8447  4.0162
 8566TIP3   OH225658   0.684   6.692   2.731 -0.0311 -0.0650 -0.4458
 8566TIP3    H125659   0.732   6.609   2.722 -0.7426 -0.6795  1.2175
 8566TIP3    H225660   0.596   6.666   2.758 -0.2639  1.2379  0.0719
 8567TIP3   OH225661   0.236   6.390   0.604 -0.3567  0.7617  0.0140
 8567TIP3    H125662   0.266   6.324   0.667 -1.2912  0.4715  0.1544
 8567TIP3    H225663   0.144   6.404   0.625 -0.0164  2.5927  0.3976
 8568TIP3   OH225664   5.073   1.963   5.287 -0.4774 -0.2170  0.5567
 8568TIP3    H125665   5.095   1.976   5.194 -0.4700  3.2784  0.9689
 8568TIP3    H225666   5.158   1.949   5.330 -0.5632 -2.8980 -0.0528
 8569TIP3   OH225667   6.998   7.279   0.626  0.5967  0.1976 -0.0293
 8569TIP3    H125668   7.056   7.239   0.562  0.3260 -1.5588  0.7972
 8569TIP3    H225669   7.047   7.277   0.708 -0.9286 -2.1698  0.8831
 8570TIP3   OH225670   3.924   0.715   0.101 -0.3726  0.3748  0.1175
 8570TIP3    H125671   3.952   0.771   0.029  0.7951 -0.6922 -0.2795
 8570TIP3    H225672   3.886   0.638   0.059 -0.4557  0.1192  0.6502
 8571TIP3   OH225673   0.810   6.759   1.086 -0.3499 -0.0999  0.0576
 8571TIP3    H125674   0.797   6.818   1.012  0.1596 -0.3414 -0.2286
 8571TIP3    H225675   0.898   6.780   1.119  0.4639 -1.7328 -1.0058
 8572TIP3   OH225676   0.155   4.428   2.355 -0.6900 -0.1828 -0.2682
 8572TIP3    H125677   0.087   4.442   2.421  1.2584  1.5464  1.4289
 8572TIP3    H225678   0.141   4.497   2.290 -0.4025  0.3373  0.2196
 8573TIP3   OH225679   0.841   4.034   1.038 -0.3688  0.4411 -0.1498
 8573TIP3    H125680   0.844   4.022   0.943 -0.2016  1.7571 -0.3151
 8573TIP3    H225681   0.905   3.971   1.072  0.5814  0.9285 -0.9991
 8574TIP3   OH225682   6.540   6.040   0.519 -0.4460  0.3173 -0.2664
 8574TIP3    H125683   6.566   6.001   0.602  0.8370 -2.4265 -1.8683
 8574TIP3    H225684   6.447   6.060   0.530  0.0522  1.3823  2.3003
 8575TIP3   OH225685   0.547   4.064   1.050 -0.5766 -0.1203 -0.5000
 8575TIP3    H125686   0.628   4.102   1.084 -0.6039  1.1521 -1.8097
 8575TIP3    H225687   0.568   3.972   1.036  0.0129 -0.2483  1.0797
 8576TIP3   OH225688   0.574   6.209   1.227  0.1838  0.4392  0.5414
 8576TIP3    H125689   0.618   6.275   1.280  1.6777 -1.5279  1.8156
 8576TIP3    H225690   0.644   6.166   1.179 -0.9952  1.1650 -1.9090
 8577TIP3   OH225691   1.311   4.960   1.902 -0.3872 -0.5392 -0.1383
 8577TIP3    H125692   1.267   4.963   1.987  0.5039 -2.4896  0.4032
 8577TIP3    H225693   1.250   4.912   1.846  0.1171 -1.4068  0.0555
 8578TIP3   OH225694   1.385   5.511   1.142  0.0575 -0.0902  0.2430
 8578TIP3    H125695   1.425   5.580   1.195  2.5555 -0.2149 -1.4363
 8578TIP3    H225696   1.355   5.556   1.063  0.7331 -0.7534 -0.3884
 8579TIP3   OH225697   5.809   5.116   0.176  0.3834 -0.1014 -0.4200
 8579TIP3    H125698   5.891   5.129   0.128  0.6345 -1.5070 -0.4055
 8579TIP3    H225699   5.751   5.185   0.144  0.6650 -0.7680 -2.4865
 8580TIP3   OH225700   1.224   4.871   0.052 -0.2389 -0.4657  0.3754
 8580TIP3    H125701   1.162   4.841  -0.014 -1.8636  1.4628  0.9519
 8580TIP3    H225702   1.269   4.944   0.011 -2.0136  1.4360  1.7017
 8581TIP3   OH225703   6.108   2.288   5.115 -0.0646 -0.5916 -0.0137
 8581TIP3    H125704   6.185   2.342   5.130  0.1160 -0.4478 -1.4074
 8581TIP3    H225705   6.037   2.351   5.100 -0.6635 -0.7111  2.2185
 8582TIP3   OH225706   5.016   3.527   3.957  0.6614 -0.3051  0.3463
 8582TIP3    H125707   4.965   3.457   3.999  0.6500  0.0931  1.0005
 8582TIP3    H225708   4.979   3.533   3.869 -0.4981  0.0455  0.8437
 8583TIP3   OH225709   5.195   1.040   6.030  0.5462  0.3386 -0.1674
 8583TIP3    H125710   5.100   1.041   6.020  0.3698  1.9884  1.4166
 8583TIP3    H225711   5.227   1.109   5.971  0.7909 -0.3416 -0.8418
 8584TIP3   OH225712   4.221   2.710   5.941  0.2074  0.5991  0.1369
 8584TIP3    H125713   4.168   2.767   5.997 -0.6024  0.5742 -0.5978
 8584TIP3    H225714   4.297   2.687   5.996 -0.5990  0.5219  1.2434
 8585TIP3   OH225715   0.667   2.298   6.150  0.2765  0.2966 -0.2674
 8585TIP3    H125716   0.591   2.256   6.191 -0.1070  1.1133 -0.1412
 8585TIP3    H225717   0.661   2.272   6.058 -1.9316  2.9056 -0.9089
 8586TIP3   OH225718   7.537   3.051   5.927 -0.3721 -0.2955  0.1066
 8586TIP3    H125719   7.602   3.119   5.913 -0.9846  0.2719  0.0259
 8586TIP3    H225720   7.473   3.090   5.986 -0.0313 -1.2466  1.1351
 8587TIP3   OH225721   2.917   4.934   0.220  0.2184 -0.0277 -0.0347
 8587TIP3    H125722   2.918   4.888   0.136  2.0659 -1.8195  0.8998
 8587TIP3    H225723   2.835   4.907   0.262 -0.2806  0.1569 -0.9038
 8588TIP3   OH225724   7.416   2.694   5.754 -0.2680  0.0911 -0.0457
 8588TIP3    H125725   7.443   2.615   5.708 -0.0820 -0.6671  1.3146
 8588TIP3    H225726   7.452   2.683   5.843 -1.5125  0.9973  0.5900
 8589TIP3   OH225727   7.361   0.388   4.906  0.8417 -0.0754 -0.4415
 8589TIP3    H125728   7.399   0.467   4.943  0.2058 -0.3678  0.8524
 8589TIP3    H225729   7.311   0.349   4.978  0.7569 -1.3989 -1.2035
 8590TIP3   OH225730   4.688   7.220   4.991  0.0016 -0.2654  0.0503
 8590TIP3    H125731   4.603   7.238   5.031 -0.7195 -0.4635 -1.3283
 8590TIP3    H225732   4.684   7.267   4.907  0.9706 -0.8784 -0.3356
 8591TIP3   OH225733   2.017   4.707   1.811 -0.0839 -0.2390 -0.2553
 8591TIP3    H125734   1.957   4.721   1.884 -0.2218  0.0031 -0.4178
 8591TIP3    H225735   2.087   4.653   1.849  0.5646  1.0519  0.4156
 8592TIP3   OH225736   6.057   0.958   3.090  0.1054 -0.1230 -0.5122
 8592TIP3    H125737   6.093   0.886   3.039 -1.7072 -1.8210  0.5392
 8592TIP3    H225738   5.963   0.939   3.095 -0.2880  1.9149  0.4213
 8593TIP3   OH225739   3.136   6.705   1.087 -0.0147  0.1477 -0.2127
 8593TIP3    H125740   3.168   6.779   1.036 -0.3497  0.8655  0.6091
 8593TIP3    H225741   3.172   6.719   1.175  1.5043 -1.6678 -0.5050
 8594TIP3   OH225742   0.331   2.554   6.166 -0.6374  0.1411  0.4623
 8594TIP3    H125743   0.386   2.482   6.134  0.9127  0.5054  2.1980
 8594TIP3    H225744   0.243   2.516   6.174 -0.5980 -0.5352 -2.1018
 8595TIP3   OH225745   6.607   3.662   4.690 -0.0231 -0.3478 -0.5192
 8595TIP3    H125746   6.658   3.586   4.661 -0.0825 -0.6198  0.0804
 8595TIP3    H225747   6.535   3.668   4.629  1.6722  1.0820 -2.4500
 8596TIP3   OH225748   3.320   7.314   0.447  0.2804  0.2941 -0.4395
 8596TIP3    H125749   3.356   7.276   0.527 -0.0676 -1.9400 -1.2983
 8596TIP3    H225750   3.228   7.287   0.447  0.2517  0.3631 -1.5190
 8597TIP3   OH225751   7.413   2.743   4.001 -0.2690  0.1302  0.2508
 8597TIP3    H125752   7.484   2.692   4.041 -0.4184 -0.8010 -0.6388
 8597TIP3    H225753   7.456   2.816   3.958 -0.1142  1.1991  2.1957
 8598TIP3   OH225754   5.019   2.456   4.683  0.4005  0.9032  0.4722
 8598TIP3    H125755   5.006   2.547   4.711 -1.6281  0.4473  1.0897
 8598TIP3    H225756   4.947   2.439   4.623  0.2622 -0.5750  1.0471
 8599TIP3   OH225757   0.212   0.864   3.392  0.5477 -0.2355  0.2170
 8599TIP3    H125758   0.301   0.868   3.426  0.0893  0.5149  1.3728
 8599TIP3    H225759   0.215   0.797   3.323  2.1697  0.3619 -0.3118
 8600TIP3   OH225760   6.835   0.639   6.279 -0.3015 -0.0926  0.7676
 8600TIP3    H125761   6.752   0.674   6.247  0.4658  0.5433 -0.5747
 8600TIP3    H225762   6.868   0.706   6.339 -0.1303  0.2615  0.2812
 8601TIP3   OH225763   0.754   1.803   3.857  0.1409  0.1160 -0.0493
 8601TIP3    H125764   0.777   1.802   3.950  0.0221  1.4368  0.0073
 8601TIP3    H225765   0.658   1.810   3.857 -0.0303 -1.8729 -0.2857
 8602TIP3   OH225766   0.242   3.254   6.223  0.4110  0.6877 -0.2675
 8602TIP3    H125767   0.162   3.306   6.214  0.9809  1.5499 -0.2848
 8602TIP3    H225768   0.290   3.295   6.294  0.7007 -0.0277 -0.0412
 8603TIP3   OH225769   3.878   1.889   0.446 -0.3388 -0.2570 -0.0576
 8603TIP3    H125770   3.940   1.905   0.518  0.4621 -2.6130 -0.1462
 8603TIP3    H225771   3.799   1.858   0.489  0.1758 -1.7684 -0.1498
 8604TIP3   OH225772   7.270   2.591   4.585  0.0221 -0.0205  0.6744
 8604TIP3    H125773   7.284   2.640   4.504 -1.4172 -1.5759 -0.5473
 8604TIP3    H225774   7.350   2.540   4.596  0.9380  1.4767  1.1906
 8605TIP3   OH225775   2.681   5.270   1.139  0.6944  0.0163 -0.3004
 8605TIP3    H125776   2.736   5.331   1.189  2.2765 -0.5962 -1.2757
 8605TIP3    H225777   2.705   5.284   1.048 -3.4394  2.3841 -1.1674
 8606TIP3   OH225778   4.325   7.317   4.480  0.2658 -0.1570 -0.2570
 8606TIP3    H125779   4.274   7.324   4.399  0.5810  0.1199 -0.4314
 8606TIP3    H225780   4.280   7.249   4.530 -0.2575  0.0597 -0.4232
 8607TIP3   OH225781   3.870   6.751   0.513  0.1253  0.2788 -0.1951
 8607TIP3    H125782   3.872   6.762   0.418  0.9672  0.1189 -0.2000
 8607TIP3    H225783   3.851   6.839   0.547 -0.8795  0.1919 -0.5403
 8608TIP3   OH225784   0.193   1.925   5.592  0.3226  0.0311  0.4685
 8608TIP3    H125785   0.173   1.865   5.664 -1.1502 -0.1805 -0.0821
 8608TIP3    H225786   0.273   1.890   5.553  0.8243 -0.1605  1.6720
 8609TIP3   OH225787   0.361   2.017   4.934  0.2672  0.0171  0.1632
 8609TIP3    H125788   0.395   2.017   5.023 -2.2299 -0.6864  1.1481
 8609TIP3    H225789   0.266   2.027   4.944 -0.0160  0.2769 -2.4237
 8610TIP3   OH225790   6.783   1.823   5.846 -0.7947 -0.3510  0.1884
 8610TIP3    H125791   6.731   1.889   5.799  1.1761  0.2871 -1.1610
 8610TIP3    H225792   6.848   1.874   5.895  1.7681 -1.3069 -2.1036
 8611TIP3   OH225793   7.654   1.495   4.066 -0.0782 -0.3129  0.7600
 8611TIP3    H125794   7.573   1.530   4.027  0.8667 -0.0002 -0.9532
 8611TIP3    H225795   7.678   1.422   4.009  0.8775 -0.3742  1.2464
 8612TIP3   OH225796   6.902   6.993   4.896 -0.4892  0.0500 -0.0843
 8612TIP3    H125797   6.961   7.004   4.970  0.0544  0.3694 -0.5586
 8612TIP3    H225798   6.960   6.970   4.823 -1.1112 -1.2536 -0.1921
 8613TIP3   OH225799   5.328   1.276   6.212  0.5718 -0.2948  0.2432
 8613TIP3    H125800   5.258   1.336   6.186 -0.7469 -1.2808  1.4240
 8613TIP3    H225801   5.342   1.221   6.135  1.2662  1.0136 -0.5864
 8614TIP3   OH225802   1.088   3.468   4.103  0.4865 -0.2983  0.7453
 8614TIP3    H125803   1.001   3.507   4.096  0.1349 -1.2663 -0.6229
 8614TIP3    H225804   1.136   3.500   4.026  0.6015 -1.4943  0.2943
 8615TIP3   OH225805   0.190   2.645   3.503  0.2231 -0.1626  0.4650
 8615TIP3    H125806   0.145   2.573   3.547 -0.0560 -0.2495  0.0363
 8615TIP3    H225807   0.195   2.714   3.569 -0.0388 -0.3557  0.6879
 8616TIP3   OH225808   0.373   0.415   5.095 -0.1844  0.2075  0.0263
 8616TIP3    H125809   0.402   0.452   5.011  2.3309  0.8317  1.1419
 8616TIP3    H225810   0.295   0.466   5.118 -0.0633  0.9744 -1.2249
 8617TIP3   OH225811   0.082   1.433   5.718  0.1068  0.1638 -0.0686
 8617TIP3    H125812   0.143   1.362   5.697 -1.3979 -1.2959  0.3944
 8617TIP3    H225813   0.028   1.397   5.788 -0.5739  1.8469  0.2768
 8618TIP3   OH225814   1.303   4.537   0.100 -0.0312  0.1599 -0.3054
 8618TIP3    H125815   1.321   4.490   0.181  0.8999  0.0179 -0.5893
 8618TIP3    H225816   1.357   4.615   0.104 -0.7013  0.6282 -0.3643
 8619TIP3   OH225817   1.183   3.240   3.295 -0.1133  0.0309 -0.5884
 8619TIP3    H125818   1.184   3.186   3.217 -0.8783  0.4863 -0.9193
 8619TIP3    H225819   1.244   3.197   3.355  1.2325  0.2393 -1.7958
 8620TIP3   OH225820   1.359   2.531   5.661  0.0028 -0.6795 -0.0702
 8620TIP3    H125821   1.283   2.483   5.627  1.1482 -0.6410 -2.8509
 8620TIP3    H225822   1.336   2.623   5.649 -1.1960 -0.5372  3.0024
 8621TIP3   OH225823   1.037   0.622   5.543  0.3985 -0.3094  0.5757
 8621TIP3    H125824   1.111   0.597   5.487  0.6556  1.4239  0.1061
 8621TIP3    H225825   1.000   0.539   5.573  2.0466 -1.2132  0.1634
 8622TIP3   OH225826   7.752   1.594   4.723 -0.6610 -0.3836 -0.0446
 8622TIP3    H125827   7.709   1.590   4.808  0.6945 -0.1557  0.6762
 8622TIP3    H225828   7.716   1.520   4.673  0.1431 -1.8643  1.5147
 8623TIP3   OH225829   6.003   6.671   3.515 -0.8904  0.0437  0.2158
 8623TIP3    H125830   5.983   6.750   3.566 -1.0138 -0.6670  1.2922
 8623TIP3    H225831   6.088   6.642   3.549 -0.2124  0.4569 -1.1078
 8624TIP3   OH225832   0.418   1.719   5.844  0.2376  0.0067 -0.0751
 8624TIP3    H125833   0.443   1.761   5.761  0.3257 -1.3901 -0.7726
 8624TIP3    H225834   0.464   1.635   5.843 -0.3287 -0.3269  1.0738
 8625TIP3   OH225835   0.259   1.394   4.919  0.1326  0.3655 -0.3935
 8625TIP3    H125836   0.298   1.451   4.852  1.2349  1.3831  1.0800
 8625TIP3    H225837   0.248   1.310   4.875 -0.5152  1.3974 -2.2892
 8626TIP3   OH225838   0.466   2.980   3.205 -0.4696  0.2401  0.1755
 8626TIP3    H125839   0.531   2.913   3.182 -1.3952 -0.4959 -0.3330
 8626TIP3    H225840   0.502   3.061   3.170  0.5470 -0.0312  0.5799
 8627TIP3   OH225841   1.671   1.151   5.691  0.1680 -0.2227  0.0227
 8627TIP3    H125842   1.694   1.085   5.756  0.4733  0.8642  1.0616
 8627TIP3    H225843   1.751   1.165   5.641 -0.2441 -1.5229 -1.0315
 8628TIP3   OH225844   7.273   2.343   5.428 -0.3554  0.0827  0.0309
 8628TIP3    H125845   7.304   2.255   5.407  0.2411  0.0529  0.9721
 8628TIP3    H225846   7.180   2.332   5.445 -0.3589 -0.3080 -0.2364
 8629TIP3   OH225847   0.777   1.828   5.236  0.1941  0.1601  0.0177
 8629TIP3    H125848   0.788   1.843   5.331  1.2159 -2.8518  0.4157
 8629TIP3    H225849   0.739   1.741   5.230  0.2068  0.3117 -2.3903
 8630TIP3   OH225850   4.574   6.741   0.190 -0.3733 -0.0359  0.0494
 8630TIP3    H125851   4.611   6.798   0.122  0.1786 -1.0551 -0.5215
 8630TIP3    H225852   4.545   6.801   0.259  1.5771  0.8480  0.1307
 8631TIP3   OH225853   2.498   7.011   0.066  0.2028 -0.5954  1.1927
 8631TIP3    H125854   2.580   7.061   0.071  0.5683 -0.9656 -0.7575
 8631TIP3    H225855   2.429   7.078   0.065  0.6759 -0.1056 -1.1085
 8632TIP3   OH225856   7.325   1.775   5.212  0.1786  0.7994  0.5911
 8632TIP3    H125857   7.402   1.754   5.265  0.0980  1.1180  0.8355
 8632TIP3    H225858   7.273   1.695   5.211  0.6886  0.4682  0.1282
 8633TIP3   OH225859   7.764   0.316   4.869 -0.0114 -0.1255 -0.2586
 8633TIP3    H125860   7.678   0.280   4.846 -1.0653  2.1935 -0.1736
 8633TIP3    H225861   7.790   0.269   4.948 -0.9987 -1.1536 -0.5323
 8634TIP3   OH225862   3.537   4.891   0.350  0.2715  0.5977  0.1175
 8634TIP3    H125863   3.547   4.949   0.275  0.8977  0.0549 -0.2247
 8634TIP3    H225864   3.625   4.857   0.366 -0.3532 -1.5518 -0.7356
 8635TIP3   OH225865   0.940   1.166   4.113  0.1992 -0.2528 -0.7759
 8635TIP3    H125866   0.911   1.182   4.023 -0.8255  0.9489 -0.2367
 8635TIP3    H225867   0.953   1.254   4.150 -0.7958 -0.7064  0.7036
 8636TIP3   OH225868   7.073   3.082   4.820 -0.2092 -0.2450 -0.5394
 8636TIP3    H125869   7.075   3.162   4.874 -3.2691 -0.2823 -0.2776
 8636TIP3    H225870   7.110   3.014   4.877 -2.3025 -0.0299  1.1511
 8637TIP3   OH225871   4.112   6.197   1.138 -0.4143 -1.1324 -0.5989
 8637TIP3    H125872   4.175   6.266   1.156  1.1289 -2.4617 -0.8046
 8637TIP3    H225873   4.097   6.202   1.043 -1.6342  0.0097 -0.3676
 8638TIP3   OH225874   5.285   1.683   4.611  0.3079 -0.2281  0.3265
 8638TIP3    H125875   5.308   1.636   4.691 -0.3314  0.1007  0.7021
 8638TIP3    H225876   5.248   1.766   4.641 -2.6454 -1.2863 -0.2209
 8639TIP3   OH225877   1.899   2.067   4.349 -0.0402 -0.2812  0.1026
 8639TIP3    H125878   1.846   2.036   4.276 -0.3377 -1.5399  0.8393
 8639TIP3    H225879   1.989   2.047   4.325  0.0328  0.9155 -0.6894
 8640TIP3   OH225880   6.542   2.795   4.565 -0.3450  0.5797 -0.2875
 8640TIP3    H125881   6.585   2.720   4.607 -0.8845 -0.6882 -1.9686
 8640TIP3    H225882   6.533   2.859   4.636 -0.8498 -1.3495  1.4581
 8641TIP3   OH225883   1.783   2.035   6.251 -0.1339  0.2327 -0.1939
 8641TIP3    H125884   1.798   2.024   6.158 -0.6695  0.5269 -0.3180
 8641TIP3    H225885   1.761   1.947   6.283 -1.6871  0.4292 -0.6724
 8642TIP3   OH225886   3.604   7.267   4.810  0.0949 -0.4568  0.5145
 8642TIP3    H125887   3.571   7.256   4.899 -0.2603 -0.8431  0.3368
 8642TIP3    H225888   3.563   7.196   4.760  0.9567 -0.7645  0.2291
 8643TIP3   OH225889   1.336   2.619   5.304  0.4770  0.1989  0.7996
 8643TIP3    H125890   1.257   2.661   5.340 -1.2817 -0.2842 -2.3061
 8643TIP3    H225891   1.342   2.536   5.351 -1.1080  0.0557  0.7974
 8644TIP3   OH225892   6.026   0.424   5.535  0.1512  0.2822  0.8220
 8644TIP3    H125893   5.996   0.340   5.570 -0.9006 -0.2021 -1.1698
 8644TIP3    H225894   6.121   0.420   5.540  0.0938 -0.8966  1.0064
 8645TIP3   OH225895   6.126   1.528   5.267 -0.2534 -0.0383 -0.5880
 8645TIP3    H125896   6.156   1.619   5.263 -1.1031  0.3467  1.3538
 8645TIP3    H225897   6.206   1.477   5.281 -0.0744  0.6479  0.9181
 8646TIP3   OH225898   7.470   1.901   4.859  0.7008  0.5289 -0.3908
 8646TIP3    H125899   7.405   1.941   4.917  0.3770  0.1393 -0.4783
 8646TIP3    H225900   7.535   1.969   4.844  1.4543  0.2417  1.4528
 8647TIP3   OH225901   1.342   5.801   0.150  0.2829 -0.3772  0.3333
 8647TIP3    H125902   1.419   5.848   0.117  0.1703  0.1630  0.8217
 8647TIP3    H225903   1.327   5.838   0.237  0.3909 -1.5612  0.8655
 8648TIP3   OH225904   7.662   1.876   5.273  0.4018 -0.1864 -0.1034
 8648TIP3    H125905   7.648   1.862   5.366  1.1417 -2.3258 -0.2718
 8648TIP3    H225906   7.730   1.812   5.250 -0.4076 -0.3039 -2.2773
 8649TIP3   OH225907   1.839   0.959   4.788 -0.6507 -0.2868  0.3017
 8649TIP3    H125908   1.839   1.054   4.775 -0.5391 -0.3863 -0.4860
 8649TIP3    H225909   1.772   0.927   4.728  1.4764 -0.9864 -1.8185
 8650TIP3   OH225910   7.437   0.687   5.725 -0.6448 -0.0109 -0.2421
 8650TIP3    H125911   7.373   0.710   5.793 -0.5457 -1.6436  0.4270
 8650TIP3    H225912   7.385   0.658   5.651 -0.7689  2.2150 -1.0602
 8651TIP3   OH225913   4.233   1.190   4.272  0.5242 -0.1831 -0.0538
 8651TIP3    H125914   4.242   1.106   4.228 -1.4516  0.1495 -1.1325
 8651TIP3    H225915   4.222   1.168   4.364 -0.5403 -1.1261 -0.4051
 8652TIP3   OH225916   6.553   2.099   4.853 -0.1272 -0.0261  0.0446
 8652TIP3    H125917   6.511   2.105   4.940  1.1472  0.2377  0.6466
 8652TIP3    H225918   6.489   2.137   4.793 -2.0633 -2.4037  0.5040
 8653TIP3   OH225919   4.283   0.773   4.971  0.1689 -0.2882  0.0664
 8653TIP3    H125920   4.252   0.789   4.882 -1.5772  0.0732  0.7170
 8653TIP3    H225921   4.276   0.858   5.014  1.8849 -0.2449  0.3210
 8654TIP3   OH225922   6.066   1.926   6.314  0.3131 -0.0278  0.7133
 8654TIP3    H125923   6.031   1.996   6.258  1.8886 -0.3160 -0.6761
 8654TIP3    H225924   6.058   1.959   6.403  1.0121  1.9225  0.0701
 8655TIP3   OH225925   7.049   6.751   0.155 -0.6248  0.5966  0.0961
 8655TIP3    H125926   7.113   6.793   0.213 -0.3633  0.0504  0.2073
 8655TIP3    H225927   7.053   6.659   0.179 -1.0398  0.4783 -0.2999
 8656TIP3   OH225928   1.733   4.521   0.052  0.2918  0.4370  0.7242
 8656TIP3    H125929   1.757   4.464   0.125  0.5384 -1.1236 -0.5631
 8656TIP3    H225930   1.657   4.570   0.084  0.3638 -0.2720  2.0087
 8657TIP3   OH225931   1.336   6.320   1.989 -0.1812 -0.0857 -0.2118
 8657TIP3    H125932   1.262   6.357   2.037 -1.6261 -0.7072 -1.8659
 8657TIP3    H225933   1.309   6.230   1.970  0.0615  0.3030 -2.6337
 8658TIP3   OH225934   0.472   2.191   5.449 -0.2931  0.2114  0.0162
 8658TIP3    H125935   0.503   2.156   5.532 -1.7126  0.7931  0.8122
 8658TIP3    H225936   0.418   2.122   5.411  2.9256 -1.3096 -1.9886
 8659TIP3   OH225937   2.070   6.885   1.572 -0.1663  0.1091  0.0186
 8659TIP3    H125938   1.999   6.893   1.508  0.4544 -0.1070 -0.7036
 8659TIP3    H225939   2.039   6.936   1.648 -1.3182 -0.4176 -0.0764
 8660TIP3   OH225940   1.811   5.368   1.120 -0.5231  0.1804  0.0426
 8660TIP3    H125941   1.868   5.338   1.192 -2.4374  3.0393  2.8506
 8660TIP3    H225942   1.862   5.436   1.076  0.5454 -1.3918 -1.2286
 8661TIP3   OH225943   4.552   1.199   5.089 -0.1599 -0.4979 -0.2076
 8661TIP3    H125944   4.568   1.280   5.137  0.6910 -0.6907 -0.1574
 8661TIP3    H225945   4.534   1.227   4.999 -0.9489 -0.1871  0.0445
 8662TIP3   OH225946   2.573   5.971   0.051  0.2036 -0.3048  0.1148
 8662TIP3    H125947   2.489   5.937   0.022  0.2143 -0.2664  0.0397
 8662TIP3    H225948   2.560   5.991   0.144  0.4355 -1.2828  0.3625
 8663TIP3   OH225949   1.922   5.758   0.498 -0.1560  0.5351  0.6793
 8663TIP3    H125950   1.980   5.811   0.554 -0.2131  1.1098  0.2044
 8663TIP3    H225951   1.869   5.708   0.560  1.7059 -0.9514  1.1178
 8664TIP3   OH225952   0.584   1.042   6.001  0.6431 -0.5923  0.2014
 8664TIP3    H125953   0.660   0.984   5.998  2.3416  1.5456  0.8179
 8664TIP3    H225954   0.605   1.111   5.938 -0.0638  0.8651  1.5500
 8665TIP3   OH225955   1.185   2.645   4.519 -0.0614 -0.8828  0.1366
 8665TIP3    H125956   1.119   2.582   4.548  0.6528 -0.7120  2.2219
 8665TIP3    H225957   1.167   2.724   4.570 -0.2467  0.2341 -1.6351
 8666TIP3   OH225958   5.804   1.885   5.572 -0.0153 -0.0537 -0.0085
 8666TIP3    H125959   5.833   1.974   5.591 -0.1820 -0.1096  0.5058
 8666TIP3    H225960   5.882   1.831   5.581  0.1386  0.0707 -0.5577
 8667TIP3   OH225961   5.966   1.706   5.992 -0.4773 -0.4200  0.4636
 8667TIP3    H125962   5.949   1.793   5.954 -2.3713 -0.5633  0.9340
 8667TIP3    H225963   5.921   1.645   5.934  0.2955 -1.0366  0.5075
 8668TIP3   OH225964   0.016   0.043   4.437 -0.1197 -0.5255 -0.1812
 8668TIP3    H125965   0.106   0.018   4.457  0.1694 -0.5660 -1.4746
 8668TIP3    H225966  -0.034   0.016   4.514  1.1145  0.4294  0.9759
 8669TIP3   OH225967   1.243   3.627   0.079  0.1975  0.1396  0.5394
 8669TIP3    H125968   1.266   3.642  -0.013 -1.0822 -0.4756  0.1017
 8669TIP3    H225969   1.305   3.679   0.128  1.8008 -0.6121 -0.6381
 8670TIP3   OH225970   4.747   6.797   4.478 -0.3095 -0.5346 -0.0397
 8670TIP3    H125971   4.793   6.835   4.552 -3.2471  0.9388  1.0989
 8670TIP3    H225972   4.721   6.710   4.508  0.2655 -0.7237 -0.0844
 8671TIP3   OH225973   6.315   2.307   5.374  0.3314 -0.0572 -0.1334
 8671TIP3    H125974   6.313   2.343   5.285 -2.4008 -1.9625 -0.9044
 8671TIP3    H225975   6.394   2.253   5.376  0.2352 -0.2688 -1.5386
 8672TIP3   OH225976   0.222   2.847   5.211  0.1758  0.0737 -0.5392
 8672TIP3    H125977   0.246   2.759   5.180 -1.2471 -0.5446  0.0416
 8672TIP3    H225978   0.130   2.838   5.239 -1.0886  2.5741 -3.6183
 8673TIP3   OH225979   0.006   1.915   4.424 -0.1806  0.7853  0.4380
 8673TIP3    H125980  -0.011   2.004   4.455  1.4756  0.7754  1.4481
 8673TIP3    H225981   0.049   1.926   4.339  0.3312  0.9571  0.7200
 8674TIP3   OH225982   4.401   6.664   1.427  0.0800  0.1356 -0.0085
 8674TIP3    H125983   4.322   6.706   1.460  0.1551  0.2065  0.0841
 8674TIP3    H225984   4.473   6.712   1.470  0.1622 -0.2017  0.2337
 8675TIP3   OH225985   1.040   2.117   4.936 -0.1149  0.8692  0.0501
 8675TIP3    H125986   1.040   2.023   4.957 -1.5042  0.6645 -0.8446
 8675TIP3    H225987   1.114   2.128   4.876  2.2463  0.9932  2.8562
 8676TIP3   OH225988   0.515   3.939   5.901  0.2557  1.1889 -0.0013
 8676TIP3    H125989   0.520   3.922   5.995  1.6016 -0.1057 -0.2717
 8676TIP3    H225990   0.598   3.982   5.880  0.2346  0.8992 -0.7013
 8677TIP3   OH225991   3.306   3.163   0.922  0.0175  0.0575 -0.1580
 8677TIP3    H125992   3.277   3.120   0.842  2.1552 -1.1027 -0.3461
 8677TIP3    H225993   3.338   3.249   0.893 -0.1178  0.0193 -0.4162
 8678TIP3   OH225994   5.754   0.154   1.807  0.3461 -0.1660 -0.1823
 8678TIP3    H125995   5.795   0.234   1.841  0.8231 -0.5230  0.0761
 8678TIP3    H225996   5.741   0.173   1.714 -1.4888  1.0287  0.3000
 8679TIP3   OH225997   3.186   2.992   5.523 -0.4023  0.4147 -0.1824
 8679TIP3    H125998   3.248   3.065   5.520 -0.7538  0.7287  0.1765
 8679TIP3    H225999   3.233   2.922   5.568  0.4361 -0.0668 -1.7702
 8680TIP3   OH226000   4.166   7.236   1.930  0.3078 -0.7587 -0.0184
 8680TIP3    H126001   4.076   7.242   1.897  0.3781 -1.2839 -0.3052
 8680TIP3    H226002   4.166   7.290   2.009  0.3030  0.9929 -1.2066
 8681TIP3   OH226003   1.855   1.055   6.368  0.6371 -0.6374 -0.2651
 8681TIP3    H126004   1.870   0.962   6.351  0.0560 -0.2623 -2.9764
 8681TIP3    H226005   1.932   1.098   6.331  0.1410  0.0820 -0.4603
 8682TIP3   OH226006   5.466   5.916   0.724 -0.5686  0.1751 -0.6087
 8682TIP3    H126007   5.553   5.947   0.749 -1.0866 -0.2489  1.8174
 8682TIP3    H226008   5.416   5.995   0.705 -0.3794  0.5430  0.4357
 8683TIP3   OH226009   6.281   6.380   0.497  0.0571 -0.2948 -0.0233
 8683TIP3    H126010   6.223   6.320   0.450 -0.7794 -0.3938  1.1146
 8683TIP3    H226011   6.221   6.446   0.534  0.8233  0.4444 -0.0930
 8684TIP3   OH226012   5.350   0.672   1.433 -0.1221 -0.2433  0.2047
 8684TIP3    H126013   5.425   0.656   1.491  0.8342 -1.0097 -1.2247
 8684TIP3    H226014   5.297   0.736   1.480 -0.2277 -2.0602  2.7009
 8685TIP3   OH226015   5.161   6.763   0.428 -0.3906 -0.3704  0.0722
 8685TIP3    H126016   5.092   6.740   0.366 -1.3442 -0.4287  1.1461
 8685TIP3    H226017   5.151   6.857   0.442 -0.0876 -0.3306  0.0352
 8686TIP3   OH226018   7.293   0.976   1.526  0.2392 -0.0539  0.0932
 8686TIP3    H126019   7.378   1.015   1.507 -0.6666  1.3770 -1.1319
 8686TIP3    H226020   7.262   0.942   1.442 -0.4666 -0.4391  0.5004
 8687TIP3   OH226021   5.809   0.162   2.286  0.4379 -0.6111  0.4906
 8687TIP3    H126022   5.791   0.113   2.206  0.1599 -3.1843  2.0793
 8687TIP3    H226023   5.905   0.172   2.287  0.4609 -0.7541 -0.0512
 8688TIP3   OH226024   2.121   4.056   6.296 -0.4476  0.7789  0.0056
 8688TIP3    H126025   2.193   4.092   6.243 -1.0037  0.3141 -1.0861
 8688TIP3    H226026   2.151   3.969   6.320 -0.4155  0.7897  0.0036
 8689TIP3   OH226027   7.780   2.819   5.371  0.2736  0.5653 -0.1246
 8689TIP3    H126028   7.768   2.813   5.466 -0.5278  0.8742 -0.2010
 8689TIP3    H226029   7.691   2.830   5.336  0.6234  1.1174 -0.8595
 8690TIP3   OH226030   7.549   2.307   4.946  0.4547  0.2902 -0.0591
 8690TIP3    H126031   7.616   2.283   4.882 -1.3907 -0.3820 -1.8187
 8690TIP3    H226032   7.545   2.232   5.006  1.1077  0.2351 -0.0816
 8691TIP3   OH226033   4.470   4.061   1.668  0.0440  0.0692 -0.0344
 8691TIP3    H126034   4.462   4.098   1.580  1.1041  2.2676  0.7628
 8691TIP3    H226035   4.512   3.976   1.654 -0.2656  0.1743 -1.7096
 8692TIP3   OH226036   6.533   0.678   1.608  0.3742  0.4440 -0.3886
 8692TIP3    H126037   6.536   0.600   1.553 -2.8088  0.3600 -0.5321
 8692TIP3    H226038   6.510   0.749   1.547  1.1386  1.1373  0.1091
 8693TIP3   OH226039   0.802   3.317   5.535 -0.1138  0.3766  0.0305
 8693TIP3    H126040   0.829   3.300   5.625 -1.4318 -0.5657  0.2630
 8693TIP3    H226041   0.780   3.410   5.534  0.7283  0.5867  0.4540
 8694TIP3   OH226042   6.083   5.631   0.649  0.4840 -0.0331 -0.2516
 8694TIP3    H126043   6.161   5.638   0.593  1.2296 -0.8020  0.6909
 8694TIP3    H226044   6.109   5.574   0.721  0.0715  2.2757  1.8156
 8695TIP3   OH226045   7.254   2.001   4.156 -0.1365  0.2546  0.2503
 8695TIP3    H126046   7.319   2.064   4.186  0.3621  1.5555 -3.2988
 8695TIP3    H226047   7.297   1.916   4.162  0.4804  0.6577  1.6223
 8696TIP3   OH226048   3.930   7.329   0.109  0.0225 -0.1538 -0.0821
 8696TIP3    H126049   3.878   7.366   0.180 -1.2511  0.1798 -1.1581
 8696TIP3    H226050   4.020   7.350   0.132 -0.4676  1.0680  0.8103
 8697TIP3   OH226051   5.065   0.872   0.926 -0.4500  0.1352 -0.1213
 8697TIP3    H126052   5.081   0.945   0.867 -0.4459  0.0466 -0.2297
 8697TIP3    H226053   5.118   0.892   1.004 -1.0431  0.6245  0.1572
 8698TIP3   OH226054   4.599   6.261   0.520 -0.0946  0.9101 -0.3791
 8698TIP3    H126055   4.516   6.219   0.501 -0.1675  0.6661  0.4434
 8698TIP3    H226056   4.665   6.206   0.477 -0.4806  2.0145 -2.4141
 8699TIP3   OH226057   7.212   0.329   4.629 -0.1393  0.1876  0.1159
 8699TIP3    H126058   7.167   0.258   4.676 -0.6011  1.1021  1.0673
 8699TIP3    H226059   7.251   0.382   4.698 -0.6204  1.4072 -0.5448
 8700TIP3   OH226060   3.936   6.933   0.915  0.5289  0.0488 -0.0371
 8700TIP3    H126061   3.885   6.856   0.891  1.4790 -0.6934  0.2914
 8700TIP3    H226062   3.884   6.976   0.984  1.6523 -2.2301  2.3095
 8701TIP3   OH226063   2.645   3.519   6.026  0.5485 -0.4287 -0.1631
 8701TIP3    H126064   2.609   3.584   5.966  0.2694 -1.3746 -1.0238
 8701TIP3    H226065   2.649   3.565   6.110 -1.2149  0.1782 -0.3796
 8702TIP3   OH226066   7.617   1.366   4.620 -0.1270  0.0016  0.0527
 8702TIP3    H126067   7.526   1.394   4.614 -0.3138 -0.5476  0.2978
 8702TIP3    H226068   7.640   1.341   4.530  0.0829  1.0623 -0.1924
 8703TIP3   OH226069   2.046   2.148   6.339 -0.0644  0.0732  0.0998
 8703TIP3    H126070   1.989   2.071   6.348  0.6432 -0.3036  1.5612
 8703TIP3    H226071   2.061   2.156   6.245 -2.2270 -0.0427 -0.2875
 8704TIP3   OH226072   5.724   5.549   0.648  0.6657 -0.1132 -0.3055
 8704TIP3    H126073   5.774   5.605   0.589  1.3373  0.8567  1.1351
 8704TIP3    H226074   5.653   5.514   0.594  0.6503  1.5672 -1.4169
 8705TIP3   OH226075   2.142   6.502   0.577  0.0922  0.0476  0.3264
 8705TIP3    H126076   2.105   6.419   0.548 -0.0937  0.0006  0.6962
 8705TIP3    H226077   2.131   6.561   0.502  1.2103 -0.5582 -0.3234
 8706TIP3   OH226078   5.349   5.725   0.543 -0.2698 -0.3425  0.0967
 8706TIP3    H126079   5.415   5.698   0.478  0.1026 -0.7877  0.6565
 8706TIP3    H226080   5.396   5.783   0.602 -1.4018  2.6546 -1.8745
 8707TIP3   OH226081   2.106   3.003   5.868 -0.2485  0.7566 -0.0594
 8707TIP3    H126082   2.185   2.949   5.867 -0.3215  0.6606 -1.6045
 8707TIP3    H226083   2.071   2.996   5.780 -2.3594  0.2898  0.8069
 8708TIP3   OH226084   5.251   6.697   1.992  0.2199  0.3056  0.1582
 8708TIP3    H126085   5.257   6.755   2.068 -2.7216  0.7624  0.1196
 8708TIP3    H226086   5.273   6.610   2.026  1.1788  0.8731  1.0109
 8709TIP3   OH226087   2.170   3.305   5.884 -0.5708  0.2117 -0.5142
 8709TIP3    H126088   2.160   3.210   5.883  1.7338 -0.1479  2.9183
 8709TIP3    H226089   2.224   3.324   5.808  0.3955 -1.4391 -0.2675
 8710TIP3   OH226090   0.801   2.890   5.387  0.1013 -0.0462 -0.3526
 8710TIP3    H126091   0.846   2.813   5.423  2.5432  1.7480  0.5345
 8710TIP3    H226092   0.781   2.865   5.297  1.7008 -1.4096 -0.3616
 8711TIP3   OH226093   7.387   0.044   1.553  0.0543 -0.0811 -0.0897
 8711TIP3    H126094   7.347  -0.036   1.519 -0.2831 -0.0940  0.3305
 8711TIP3    H226095   7.478   0.039   1.526 -0.5438  0.6787 -2.3818
 8712TIP3   OH226096   6.932   1.070   1.443 -0.2445 -0.5434  0.2265
 8712TIP3    H126097   6.986   1.138   1.482 -1.1311  0.6005 -0.5021
 8712TIP3    H226098   6.896   1.111   1.364  0.1536 -2.2415 -0.8656
 8713TIP3   OH226099   4.838   6.811   0.549 -0.5424  0.3649  0.4157
 8713TIP3    H126100   4.770   6.874   0.572  0.6410  2.1858 -0.9593
 8713TIP3    H226101   4.920   6.858   0.563  0.3821 -1.1464  0.1384
 8714TIP3   OH226102   2.321   4.709   6.155  0.0791 -0.5526  0.3127
 8714TIP3    H126103   2.316   4.615   6.174 -0.8071 -0.7691 -0.9419
 8714TIP3    H226104   2.248   4.747   6.205 -1.4250 -0.9439 -1.5419
 8715TIP3   OH226105   1.810   4.760   6.324 -0.1998 -0.2834  0.5331
 8715TIP3    H126106   1.898   4.754   6.285 -0.5523  2.2606 -0.7824
 8715TIP3    H226107   1.825   4.793   6.412  0.0937  2.0256 -0.3357
 8716TIP3   OH226108   6.521   1.234   0.421  0.3212 -0.6710 -0.1909
 8716TIP3    H126109   6.426   1.226   0.419  0.3239 -0.8793  0.3509
 8716TIP3    H226110   6.542   1.255   0.512  0.6633  1.2439 -0.6980
 8717TIP3   OH226111   3.868   5.604   0.566  0.0411 -0.1283 -0.1317
 8717TIP3    H126112   3.878   5.611   0.661  0.1027  0.6874 -0.1959
 8717TIP3    H226113   3.934   5.664   0.531 -0.8935  0.5982 -0.6664
 8718TIP3   OH226114   3.990   3.881   5.930 -0.0996  0.4742 -0.0038
 8718TIP3    H126115   3.914   3.939   5.919 -0.1162  0.2816 -1.0102
 8718TIP3    H226116   3.990   3.858   6.022 -0.8688  1.0299  0.1409
 8719TIP3   OH226117   4.616   7.074   0.370  0.3007 -0.1924 -0.3408
 8719TIP3    H126118   4.554   7.002   0.385  2.5554 -2.0157  0.4672
 8719TIP3    H226119   4.614   7.124   0.452 -0.6975  0.2285 -0.6166
 8720TIP3   OH226120   0.728   2.820   5.132  0.3459  0.0502 -0.1653
 8720TIP3    H126121   0.649   2.790   5.089  0.3263  0.6011 -0.5167
 8720TIP3    H226122   0.799   2.781   5.081  0.3272  0.8937 -0.8436
 8721TIP3   OH226123   1.429   5.342   1.466 -0.1043 -0.0423 -0.2343
 8721TIP3    H126124   1.466   5.277   1.525  2.4288  0.9018 -0.7263
 8721TIP3    H226125   1.504   5.394   1.438 -1.8934  2.3021 -0.8263
 8722TIP3   OH226126   3.222   6.542   1.754  0.1865 -0.2439 -0.3467
 8722TIP3    H126127   3.229   6.592   1.673  0.1484 -0.7685 -0.6782
 8722TIP3    H226128   3.271   6.594   1.819 -0.1470  0.3898 -0.6000
 8723TIP3   OH226129   1.173   4.057   5.003 -0.1957 -0.3769  0.2402
 8723TIP3    H126130   1.247   3.995   5.006 -0.5176 -0.8843 -1.4418
 8723TIP3    H226131   1.121   4.027   4.929 -0.4700  1.8021 -0.4756
 8724TIP3   OH226132   6.428   1.331   0.116  0.6700  0.1538  0.2411
 8724TIP3    H126133   6.354   1.374   0.159  0.9035  3.3834 -2.4019
 8724TIP3    H226134   6.484   1.303   0.188 -1.7213  0.1764  2.1974
 8725TIP3   OH226135   1.314   5.960   2.563 -0.0007 -0.3674  0.0893
 8725TIP3    H126136   1.250   6.016   2.606 -1.1887  0.4984 -2.7400
 8725TIP3    H226137   1.395   6.012   2.562  0.4172 -0.8940  2.3243
 8726TIP3   OH226138   5.175   7.128   5.473 -0.3217 -0.3697 -1.1054
 8726TIP3    H126139   5.244   7.068   5.445  1.4247 -0.4391  2.9953
 8726TIP3    H226140   5.100   7.071   5.492  0.3154 -0.9209 -0.2268
 8727TIP3   OH226141   3.291   6.074   0.369  0.4491 -0.6585 -0.0566
 8727TIP3    H126142   3.319   6.076   0.460  1.4179  0.3333 -0.3674
 8727TIP3    H226143   3.287   5.980   0.347 -0.0760 -0.9014  1.0871
 8728TIP3   OH226144   1.673   6.646   0.272 -0.0611  0.7733  0.0747
 8728TIP3    H126145   1.640   6.591   0.343 -0.7471  0.4916 -0.4566
 8728TIP3    H226146   1.595   6.690   0.238 -0.4389 -2.2024 -3.2030
 8729TIP3   OH226147   3.541   1.625   6.015 -0.1388  0.5550 -0.4616
 8729TIP3    H126148   3.462   1.670   6.044 -0.4390  0.1962 -0.7265
 8729TIP3    H226149   3.611   1.689   6.030 -0.4214  0.7331  0.1307
 8730TIP3   OH226150   1.530   0.591   3.887  0.1195 -0.2939  0.4133
 8730TIP3    H126151   1.458   0.651   3.871  1.0698  0.8278  0.2269
 8730TIP3    H226152   1.528   0.577   3.982 -1.1135 -1.2723  0.2466
 8731TIP3   OH226153   1.342   2.349   5.399  0.4813 -0.2631 -0.2592
 8731TIP3    H126154   1.403   2.284   5.365 -1.2421 -1.6413 -0.7710
 8731TIP3    H226155   1.297   2.305   5.471  0.7036  1.0329  0.6941
 8732TIP3   OH226156   2.822   3.380   5.236 -0.1542 -0.0892  0.2110
 8732TIP3    H126157   2.800   3.287   5.232 -1.0144  0.1519 -1.1847
 8732TIP3    H226158   2.804   3.405   5.326  0.8882 -1.4587  0.8193
 8733TIP3   OH226159   6.510   0.779   2.782  0.4762  0.5053  0.2041
 8733TIP3    H126160   6.486   0.787   2.689 -3.3471 -1.7421  0.8468
 8733TIP3    H226161   6.530   0.686   2.793 -1.2064  0.3292  2.0200
 8734TIP3   OH226162   7.449   0.845   0.318  0.2612  0.4426 -0.0937
 8734TIP3    H126163   7.435   0.840   0.412 -0.2072 -1.7883 -0.2601
 8734TIP3    H226164   7.542   0.868   0.309  0.5105 -0.1194  0.9140
 8735TIP3   OH226165   1.055   4.390   5.531  0.1245  0.5563 -0.0415
 8735TIP3    H126166   0.984   4.326   5.536  1.1714 -0.7740 -1.6926
 8735TIP3    H226167   1.011   4.475   5.540 -1.8373 -0.1835 -2.2112
 8736TIP3   OH226168   2.143   1.690   5.160  0.3179 -0.6185 -0.3354
 8736TIP3    H126169   2.092   1.613   5.136 -0.9527 -0.1041  0.6818
 8736TIP3    H226170   2.208   1.657   5.222  0.1581 -0.9832 -0.3608
 8737TIP3   OH226171   3.283   4.724   6.132 -0.2399 -0.3983 -0.3718
 8737TIP3    H126172   3.291   4.664   6.207  2.1679  0.5726  0.1833
 8737TIP3    H226173   3.311   4.809   6.167 -1.5553  0.6071 -1.7239
 8738TIP3   OH226174   4.375   6.717   0.750  0.8367  0.6184  0.0097
 8738TIP3    H126175   4.364   6.694   0.658  2.4452  3.2724 -0.8831
 8738TIP3    H226176   4.336   6.804   0.758 -1.4612 -0.5686  2.4042
 8739TIP3   OH226177   0.627   4.247   5.925 -0.3086 -0.3118  0.3845
 8739TIP3    H126178   0.705   4.297   5.953  0.6630 -1.4664 -0.2356
 8739TIP3    H226179   0.564   4.260   5.996  1.0888 -0.8111  1.7440
 8740TIP3   OH226180   2.604   2.805   2.925 -0.7239 -0.1910 -0.6506
 8740TIP3    H126181   2.683   2.837   2.880 -0.3125 -0.4465 -0.1167
 8740TIP3    H226182   2.566   2.884   2.964 -0.5040 -0.1283 -0.5572
 8741TIP3   OH226183   6.969   0.726   2.132  0.0369 -0.4739 -0.1438
 8741TIP3    H126184   7.014   0.687   2.057  0.3870 -0.2923 -0.0330
 8741TIP3    H226185   7.037   0.779   2.175 -0.0033 -1.0691  0.6576
 8742TIP3   OH226186   5.687   0.839   1.408  0.1792 -0.2729 -0.2047
 8742TIP3    H126187   5.667   0.773   1.342 -0.1593  0.4182 -0.7987
 8742TIP3    H226188   5.774   0.815   1.440  0.4250 -0.5115 -1.0283
 8743TIP3   OH226189   2.320   6.651   2.557  0.0072  0.2539  0.0710
 8743TIP3    H126190   2.286   6.720   2.501 -0.1427  0.0779 -0.0589
 8743TIP3    H226191   2.382   6.603   2.502 -0.8826 -0.5302 -0.2716
 8744TIP3   OH226192   4.201   7.116   0.487 -0.3097 -0.0310 -0.0234
 8744TIP3    H126193   4.116   7.132   0.529 -1.6734  0.3851 -2.8023
 8744TIP3    H226194   4.230   7.202   0.459 -0.2649 -0.4891 -1.4194
 8745TIP3   OH226195   6.257   6.063   2.510 -0.2817 -0.4643  0.1568
 8745TIP3    H126196   6.269   5.968   2.512  0.5680 -0.3589  0.7526
 8745TIP3    H226197   6.321   6.093   2.445  0.1163 -0.2185  0.6603
 8746TIP3   OH226198   2.226   1.746   3.515 -0.1650  0.0404  0.3948
 8746TIP3    H126199   2.191   1.769   3.601 -1.0904 -1.2061  0.3596
 8746TIP3    H226200   2.173   1.796   3.453  2.8134  3.7732  0.6672
 8747TIP3   OH226201   1.540   1.009   6.047 -0.1979 -0.2257  0.6068
 8747TIP3    H126202   1.446   1.016   6.027 -0.7143 -1.1058  2.6195
 8747TIP3    H226203   1.569   0.933   5.998 -0.4651  0.2492 -0.2946
 8748TIP3   OH226204   5.065   5.614   0.722 -0.6185  0.0904  0.2610
 8748TIP3    H126205   5.138   5.594   0.664 -0.9622  0.8861 -0.4493
 8748TIP3    H226206   5.099   5.681   0.781  0.2014 -1.7656  1.9656
 8749TIP3   OH226207   6.930   1.487   1.267  0.3813  0.4747  0.0181
 8749TIP3    H126208   6.843   1.499   1.305 -0.4205  0.5902 -1.8126
 8749TIP3    H226209   6.972   1.573   1.277  0.7416  0.1022  1.9514
 8750TIP3   OH226210   3.322   2.112   6.168  0.3130 -0.0350  0.4695
 8750TIP3    H126211   3.374   2.154   6.237 -0.0904  1.8172 -0.3174
 8750TIP3    H226212   3.386   2.077   6.107  0.7105  2.7755 -0.8141
 8751TIP3   OH226213   3.331   1.476   4.829 -0.2165 -0.1783 -0.2773
 8751TIP3    H126214   3.264   1.426   4.874  1.2146 -1.2402  0.7293
 8751TIP3    H226215   3.362   1.539   4.894  0.7510 -0.6647 -0.2441
 8752TIP3   OH226216   0.610   6.509   4.359  0.1796 -0.2272 -0.3390
 8752TIP3    H126217   0.670   6.435   4.370  0.5940  0.2005  0.3500
 8752TIP3    H226218   0.537   6.489   4.417 -0.2562 -0.6609 -1.0397
 8753TIP3   OH226219   5.272   4.887   0.916  0.0397  0.5772  0.7244
 8753TIP3    H126220   5.198   4.894   0.855 -1.4807  1.2962  2.5881
 8753TIP3    H226221   5.331   4.958   0.891 -0.8955  1.2793  0.4816
 8754TIP3   OH226222   0.807   0.085   5.194 -1.1209  0.2023 -0.6217
 8754TIP3    H126223   0.859   0.156   5.156 -0.6351  0.4128  0.4033
 8754TIP3    H226224   0.723   0.088   5.148 -1.9617  2.9480  0.9797
 8755TIP3   OH226225   4.728   5.035   0.388  0.4933 -0.5999  0.5059
 8755TIP3    H126226   4.800   5.077   0.342 -1.7029  0.4402 -2.1882
 8755TIP3    H226227   4.722   4.948   0.348 -1.0086  0.0766 -0.8532
 8756TIP3   OH226228   6.735   4.551   1.482 -0.2567 -0.5107 -0.4587
 8756TIP3    H126229   6.738   4.469   1.432  1.0300 -1.1950  0.7287
 8756TIP3    H226230   6.806   4.603   1.445 -2.1407  0.7715 -2.3716
 8757TIP3   OH226231   0.784   2.568   4.929  0.1842 -0.2847 -0.4898
 8757TIP3    H126232   0.750   2.553   5.017  1.1953 -0.5466 -0.1320
 8757TIP3    H226233   0.803   2.480   4.896 -1.5181 -0.2911 -1.5270
 8758TIP3   OH226234   0.226   3.394   5.859  0.6541  0.4176  0.3793
 8758TIP3    H126235   0.177   3.464   5.816 -1.7588 -1.3944  0.0683
 8758TIP3    H226236   0.314   3.399   5.821  0.0749  2.2608 -0.7736
 8759TIP3   OH226237   5.565   0.823   2.533 -0.5371  0.2712 -0.2477
 8759TIP3    H126238   5.618   0.803   2.610 -0.2089 -0.0952 -0.5632
 8759TIP3    H226239   5.522   0.740   2.511  0.0379  0.1614 -0.9625
 8760TIP3   OH226240   7.018   0.901   0.384 -0.1805  0.7268  0.8883
 8760TIP3    H126241   6.952   0.865   0.444 -0.5386 -0.0959  0.0179
 8760TIP3    H226242   7.098   0.852   0.403 -1.0213 -1.5853 -1.2671
 8761TIP3   OH226243   7.121   0.625   1.917  0.3124 -0.1421  0.4719
 8761TIP3    H126244   7.173   0.575   1.854 -1.0680 -0.5234 -0.3628
 8761TIP3    H226245   7.100   0.706   1.871 -1.1333 -0.6372  0.2402
 8762TIP3   OH226246   6.852   0.391   1.558 -0.0966 -0.4857  0.5019
 8762TIP3    H126247   6.876   0.368   1.648 -0.0973 -0.1832  0.5814
 8762TIP3    H226248   6.931   0.431   1.522 -0.3982  0.2881  0.6861
 8763TIP3   OH226249   4.560   6.228   1.205  0.4143  0.3741 -0.0155
 8763TIP3    H126250   4.495   6.297   1.215 -0.3549 -0.5440  1.3862
 8763TIP3    H226251   4.597   6.243   1.118 -1.1827  1.3116 -0.5505
 8764TIP3   OH226252   3.660   6.120   1.590  0.9345 -0.0686  0.2171
 8764TIP3    H126253   3.712   6.169   1.527  0.2822  2.0614  1.2705
 8764TIP3    H226254   3.707   6.130   1.673  0.2320 -0.3157  0.6496
 8765TIP3   OH226255   3.008   5.498   0.081 -0.1545  0.5484  0.1781
 8765TIP3    H126256   3.017   5.469   0.172 -1.3687  1.9767  0.7737
 8765TIP3    H226257   3.061   5.577   0.075  0.9925 -0.2594 -0.7364
 8766TIP3   OH226258   4.321   5.575   0.616  0.3513 -0.3084  0.6460
 8766TIP3    H126259   4.357   5.602   0.531  1.6600 -1.0765  0.9370
 8766TIP3    H226260   4.346   5.645   0.676 -0.8730  0.4043  0.3417
 8767TIP3   OH226261   1.138   1.700   4.146  0.1362 -0.1566  0.0716
 8767TIP3    H126262   1.093   1.761   4.204  1.3150  0.0906  0.7386
 8767TIP3    H226263   1.159   1.753   4.069  0.0932 -0.0335  0.1422
 8768TIP3   OH226264   1.873   3.487   5.256 -0.3975 -0.0445  0.3918
 8768TIP3    H126265   1.944   3.424   5.263 -0.5322 -0.1161  1.1692
 8768TIP3    H226266   1.846   3.503   5.346 -4.1945 -3.2538 -0.0468
 8769TIP3   OH226267   1.567   2.641   5.824  0.3101 -0.4164 -0.0675
 8769TIP3    H126268   1.620   2.567   5.796  0.5436  0.8117 -3.0116
 8769TIP3    H226269   1.489   2.638   5.768 -0.4617  0.5899  0.9283
 8770TIP3   OH226270   6.715   6.528   1.580  0.1664  0.0410  0.3303
 8770TIP3    H126271   6.730   6.602   1.638 -0.2011 -0.1194  0.6323
 8770TIP3    H226272   6.640   6.554   1.526  0.6963  0.3109 -0.2774
 8771TIP3   OH226273   2.639   2.895   6.008 -0.6532  0.1642 -0.0148
 8771TIP3    H126274   2.670   2.861   6.092  0.1977  0.0921 -0.3561
 8771TIP3    H226275   2.716   2.895   5.952 -1.0519  0.9254 -0.5740
 8772TIP3   OH226276   7.199   4.730   3.421  0.3409  0.1844  0.6167
 8772TIP3    H126277   7.109   4.749   3.395 -0.2169  0.0429  2.4004
 8772TIP3    H226278   7.218   4.646   3.380  0.0508  0.7256 -0.6638
 8773TIP3   OH226279   4.870   4.598   5.895 -0.2078 -0.3430 -0.4047
 8773TIP3    H126280   4.778   4.611   5.919  0.2247  1.2896  0.3835
 8773TIP3    H226281   4.868   4.580   5.801 -1.1382  1.8927 -0.8354
 8774TIP3   OH226282   6.299   6.557   2.566 -0.2500 -0.2202  0.3216
 8774TIP3    H126283   6.325   6.493   2.499  1.6302 -0.7434  1.5029
 8774TIP3    H226284   6.380   6.575   2.613 -1.3463  0.9354  1.7879
 8775TIP3   OH226285   2.893   2.168   2.681 -0.0044  0.5252  0.6567
 8775TIP3    H126286   2.847   2.237   2.634 -0.1646  1.0940  1.6510
 8775TIP3    H226287   2.977   2.207   2.707  0.3913 -0.0176  0.2089
 8776TIP3   OH226288   1.526   1.803   3.542 -0.2187  0.0425  0.5884
 8776TIP3    H126289   1.433   1.779   3.538 -0.3396  0.3137  1.5666
 8776TIP3    H226290   1.526   1.899   3.540  0.2734  0.0430 -3.5469
 8777TIP3   OH226291   5.817   6.628   0.657  0.1294  0.2439  0.4595
 8777TIP3    H126292   5.900   6.593   0.625 -0.4159  0.6268 -1.4214
 8777TIP3    H226293   5.780   6.675   0.582 -2.7785 -1.6557  0.6122
 8778TIP3   OH226294   3.550   3.656   4.857 -0.1624 -0.2374 -0.1335
 8778TIP3    H126295   3.541   3.588   4.790  0.4549  0.2590 -0.7323
 8778TIP3    H226296   3.605   3.616   4.924  1.0945  0.0104 -0.9846
 8779TIP3   OH226297   7.647   5.596   0.800  0.3381 -0.2648 -0.6052
 8779TIP3    H126298   7.656   5.533   0.728 -0.9060  0.7141 -1.6358
 8779TIP3    H226299   7.690   5.675   0.768 -3.6592  1.5160 -1.9790
 8780TIP3   OH226300   3.328   3.236   5.758  0.2412  0.7013 -0.0344
 8780TIP3    H126301   3.400   3.216   5.698 -0.2249 -0.8386 -0.1167
 8780TIP3    H226302   3.263   3.280   5.704  0.0947 -0.1134 -0.5401
 8781TIP3   OH226303   4.381   1.878   5.836  0.0187  0.7076 -0.6368
 8781TIP3    H126304   4.444   1.915   5.775  0.5062 -0.3297 -0.7547
 8781TIP3    H226305   4.371   1.787   5.810 -2.1724  1.0681 -1.1615
 8782TIP3   OH226306   4.918   0.637   5.577  0.2116  0.8469  0.6117
 8782TIP3    H126307   4.958   0.619   5.492  1.8556 -1.7757  1.8554
 8782TIP3    H226308   4.831   0.671   5.557  0.2623 -0.5169 -2.0926
 8783TIP3   OH226309   2.281   1.000   3.510  0.2672 -0.1588 -0.2394
 8783TIP3    H126310   2.225   0.921   3.509 -0.4754  0.3731 -1.6695
 8783TIP3    H226311   2.269   1.036   3.598 -1.3341 -0.2857 -0.3884
 8784TIP3   OH226312   6.793   5.950   2.137 -0.5292 -0.2246  0.0039
 8784TIP3    H126313   6.847   5.913   2.207  0.9816  0.8214 -0.5610
 8784TIP3    H226314   6.758   6.031   2.174  2.3388  1.6599 -1.2287
 8785TIP3   OH226315   6.911   6.899   0.384  0.4438 -0.4012 -0.1619
 8785TIP3    H126316   6.898   6.804   0.383  0.9175 -0.4744  0.2909
 8785TIP3    H226317   6.983   6.915   0.322 -1.5024 -0.0364 -2.3637
 8786TIP3   OH226318   5.616   5.969   0.210  0.5822 -0.0439 -0.6726
 8786TIP3    H126319   5.592   5.890   0.258  0.5520  0.8331  0.8161
 8786TIP3    H226320   5.601   5.948   0.118 -0.2197 -1.4769 -0.2233
 8787TIP3   OH226321   4.657   3.580   5.758 -0.2088 -0.5458 -0.1278
 8787TIP3    H126322   4.648   3.545   5.846 -1.9094 -2.1568 -0.9117
 8787TIP3    H226323   4.605   3.660   5.758 -0.7959 -0.9256  0.1380
 8788TIP3   OH226324   6.725   6.862   0.807  0.9128  0.2845 -0.1867
 8788TIP3    H126325   6.717   6.788   0.747  2.4348 -1.8018  2.0823
 8788TIP3    H226326   6.636   6.874   0.841  0.7077 -0.7138 -0.3320
 8789TIP3   OH226327   7.237   5.068   0.094  0.0869  0.4073 -0.4495
 8789TIP3    H126328   7.271   5.129   0.160 -0.8908 -0.1835  0.6140
 8789TIP3    H226329   7.304   5.000   0.087 -0.6991 -0.6086  1.4357
 8790TIP3   OH226330   5.200   5.842   3.088  0.1080  0.8091 -0.1260
 8790TIP3    H126331   5.117   5.797   3.074  0.3216 -0.4171  2.1520
 8790TIP3    H226332   5.203   5.910   3.021 -3.3581  1.7522  0.5749
 8791TIP3   OH226333   3.286   2.870   6.317 -0.4046 -0.6352 -0.0316
 8791TIP3    H126334   3.214   2.815   6.347 -0.4754 -0.2518  0.5113
 8791TIP3    H226335   3.244   2.950   6.285 -0.2518 -0.5922 -0.1262
 8792TIP3   OH226336   7.113   5.460   0.341  0.3831 -0.0502  0.3853
 8792TIP3    H126337   7.083   5.402   0.411  1.7635  0.0014  1.0300
 8792TIP3    H226338   7.052   5.443   0.269  1.0962 -2.7276  0.3638
 8793TIP3   OH226339   2.675   0.268   0.561 -0.0391  0.5069 -0.1158
 8793TIP3    H126340   2.615   0.339   0.583 -1.9782 -0.4908 -2.0335
 8793TIP3    H226341   2.627   0.188   0.582  1.5071 -0.3004  0.4683
 8794TIP3   OH226342   7.339   6.367   1.142 -0.2294 -0.0446 -0.3574
 8794TIP3    H126343   7.435   6.370   1.146 -0.1126 -0.9985 -2.0415
 8794TIP3    H226344   7.320   6.298   1.079 -2.0205  0.8400 -0.8134
 8795TIP3   OH226345   2.117   3.379   6.266  0.1446 -0.0073 -0.3789
 8795TIP3    H126346   2.139   3.445   6.201  2.2079  0.0990  0.3825
 8795TIP3    H226347   2.166   3.301   6.239 -2.0214 -1.1765 -1.1007
 8796TIP3   OH226348   6.749   7.104   0.445 -0.3927  0.6705  0.1875
 8796TIP3    H126349   6.824   7.045   0.443 -0.8933  0.0638 -1.2848
 8796TIP3    H226350   6.788   7.192   0.451  0.3827  0.2810  0.9493
 8797TIP3   OH226351   4.417   4.426   4.987 -0.2457  0.1698  0.6264
 8797TIP3    H126352   4.488   4.366   4.965  0.0608  0.2370  1.4079
 8797TIP3    H226353   4.388   4.398   5.073 -0.2409  1.0055  0.9072
 8798TIP3   OH226354   6.119   6.689   0.045 -0.5239 -0.1680 -0.5630
 8798TIP3    H126355   6.072   6.671  -0.037 -0.4574 -1.0774 -0.4109
 8798TIP3    H226356   6.108   6.609   0.096  1.1535 -0.3619 -0.4969
 8799TIP3   OH226357   6.196   6.118   0.376  0.6140 -0.7584 -0.2402
 8799TIP3    H126358   6.209   6.046   0.314 -0.4413 -1.1454 -0.0213
 8799TIP3    H226359   6.185   6.075   0.460 -0.3828 -0.3614 -0.1627
 8800TIP3   OH226360   2.397   5.541   5.734 -0.3985 -0.1412  0.4499
 8800TIP3    H126361   2.354   5.457   5.749 -0.0456  0.2110  3.6549
 8800TIP3    H226362   2.488   5.526   5.760 -0.0006  0.8830 -0.3023
 8801TIP3   OH226363   5.229   2.429   5.510 -0.4080 -0.2382 -0.6511
 8801TIP3    H126364   5.165   2.361   5.490  0.4791 -1.2996  0.0096
 8801TIP3    H226365   5.181   2.511   5.505 -1.9941 -1.0694  0.6151
 8802TIP3   OH226366   6.279   5.860   0.243  0.6169 -0.2095  0.2614
 8802TIP3    H126367   6.303   5.768   0.254 -1.1882 -0.6821  0.3976
 8802TIP3    H226368   6.363   5.906   0.235  1.5077 -2.1311 -1.9935
 8803TIP3   OH226369   1.484   6.485   0.443 -0.3422 -0.0886  0.0984
 8803TIP3    H126370   1.482   6.474   0.348  0.4922  2.5703 -0.2937
 8803TIP3    H226371   1.515   6.401   0.477 -3.7586 -2.1765 -1.7155
 8804TIP3   OH226372   6.657   5.158   2.761 -0.4394  0.0768  0.0140
 8804TIP3    H126373   6.730   5.210   2.728 -0.5127 -0.5241 -1.1368
 8804TIP3    H226374   6.588   5.170   2.695 -0.7807 -0.7073  0.2199
 8805TIP3   OH226375   3.433   1.794   3.674 -0.0653 -0.3091  0.2088
 8805TIP3    H126376   3.521   1.768   3.646 -0.0989 -0.9916  0.7210
 8805TIP3    H226377   3.425   1.886   3.647  1.1503  0.0383  0.9838
 8806TIP3   OH226378   6.615   0.813   0.156  0.0424 -0.0826 -0.2469
 8806TIP3    H126379   6.641   0.895   0.114  2.0046  0.2097  1.4349
 8806TIP3    H226380   6.669   0.746   0.114  0.0618 -0.1716 -0.0817
 8807TIP3   OH226381   6.478   6.105   2.265  0.8380 -0.4556 -0.2030
 8807TIP3    H126382   6.554   6.052   2.289  0.2265 -1.5908 -0.6866
 8807TIP3    H226383   6.498   6.136   2.176  0.5219 -1.2036 -0.5469
 8808TIP3   OH226384   2.212   1.609   4.601 -0.0408 -0.0916 -0.1788
 8808TIP3    H126385   2.287   1.619   4.661  1.1713  2.0753 -1.9824
 8808TIP3    H226386   2.240   1.541   4.540 -0.7895 -1.4340  0.9451
 8809TIP3   OH226387   1.992   6.078   1.050  0.0740  0.0722  0.6178
 8809TIP3    H126388   2.009   6.059   1.142  0.8374  0.3043  0.5279
 8809TIP3    H226389   1.897   6.074   1.042 -0.0930  1.4865  1.7340
 8810TIP3   OH226390   3.696   2.584   4.254 -0.0197 -0.0796 -0.6532
 8810TIP3    H126391   3.690   2.492   4.279 -0.3509  0.2263  0.4706
 8810TIP3    H226392   3.787   2.608   4.273  0.2461 -0.3466 -1.5832
 8811TIP3   OH226393   3.883   6.989   0.656 -0.3373  0.0967  0.2865
 8811TIP3    H126394   3.889   7.082   0.637 -0.1096  0.0673  0.2102
 8811TIP3    H226395   3.915   6.981   0.746  1.7457 -0.1851 -0.4556
 8812TIP3   OH226396   2.554   2.391   5.646  0.4913 -0.3430  0.5554
 8812TIP3    H126397   2.591   2.460   5.590 -2.5346  0.0303 -1.0554
 8812TIP3    H226398   2.597   2.404   5.730  3.1608  0.7762 -0.9146
 8813TIP3   OH226399   7.244   7.108   0.613 -0.7766 -0.1135 -0.5022
 8813TIP3    H126400   7.290   7.106   0.697  1.2484 -1.1536 -1.6145
 8813TIP3    H226401   7.163   7.059   0.629 -0.1404 -0.8042  0.6850
 8814TIP3   OH226402   7.094   0.021   0.230 -0.0070 -0.1111 -0.5114
 8814TIP3    H126403   7.139   0.065   0.302  0.1247 -0.3235 -0.4625
 8814TIP3    H226404   7.162  -0.032   0.188 -0.1967 -0.3847 -0.4772
 8815TIP3   OH226405   6.960   6.207   0.653  0.3300  0.9357 -0.5261
 8815TIP3    H126406   6.939   6.162   0.572 -0.2773 -0.0282  0.1524
 8815TIP3    H226407   6.884   6.190   0.710  1.2234  0.6942  0.6018
 8816TIP3   OH226408   1.279   4.395   3.154  0.0710  0.3063  0.0464
 8816TIP3    H126409   1.371   4.420   3.159 -0.3814  2.0536  0.0103
 8816TIP3    H226410   1.236   4.447   3.221 -0.6291 -1.9607  1.4331
 8817TIP3   OH226411   5.682   6.403   1.670 -0.3964  0.2993  0.1521
 8817TIP3    H126412   5.704   6.488   1.708 -3.9664  1.3763  0.0670
 8817TIP3    H226413   5.590   6.412   1.645 -0.3902 -3.0812 -1.3409
 8818TIP3   OH226414   3.640   2.088   6.228  0.0247  0.2015 -0.2390
 8818TIP3    H126415   3.730   2.054   6.238 -0.7414 -1.8928 -0.1269
 8818TIP3    H226416   3.644   2.141   6.148  1.4839  0.6016  0.0682
 8819TIP3   OH226417   5.262   4.687   6.327 -0.2353 -0.6096 -0.3869
 8819TIP3    H126418   5.282   4.599   6.359  0.4868 -0.8538 -1.4619
 8819TIP3    H226419   5.202   4.672   6.253 -0.4850 -0.1695 -0.2729
 8820TIP3   OH226420   3.444   5.229   4.414  0.1412 -0.5116 -0.0263
 8820TIP3    H126421   3.506   5.158   4.431 -1.1373 -1.5070  0.5975
 8820TIP3    H226422   3.385   5.193   4.348 -0.4266  0.0255  0.1895
 8821TIP3   OH226423   4.274   3.912   5.994 -0.5595  0.6099  0.0973
 8821TIP3    H126424   4.280   3.860   6.075  1.8486 -1.3821 -1.3186
 8821TIP3    H226425   4.180   3.922   5.980 -1.0282  1.4932  3.4616
 8822TIP3   OH226426   7.115   0.217   0.792 -0.0987 -0.2282  0.8150
 8822TIP3    H126427   7.077   0.171   0.717  0.9681 -0.8668  0.6515
 8822TIP3    H226428   7.133   0.147   0.856  2.7016 -0.2571  0.0750
 8823TIP3   OH226429   4.342   1.786   0.640  0.1478  0.2069 -0.2785
 8823TIP3    H126430   4.278   1.727   0.599  2.5435 -2.0273 -0.9019
 8823TIP3    H226431   4.358   1.747   0.726  0.2244  1.1308  0.1376
 8824TIP3   OH226432   7.293   3.386   0.163 -0.1502 -0.3847  0.4721
 8824TIP3    H126433   7.387   3.398   0.172 -0.0677  0.9062 -1.6281
 8824TIP3    H226434   7.256   3.415   0.246  1.2173  0.0124  0.9524
 8825TIP3   OH226435   6.597   6.850   0.324  0.1552  0.8348  0.1268
 8825TIP3    H126436   6.650   6.870   0.247  0.3084  1.3524  0.3618
 8825TIP3    H226437   6.630   6.910   0.391 -0.4041  0.8213  0.4122
 8826TIP3   OH226438   3.311   3.249   6.031 -0.0910 -0.1529  0.3386
 8826TIP3    H126439   3.400   3.241   6.064  0.1036  2.2872  0.5499
 8826TIP3    H226440   3.321   3.259   5.937 -0.0967  0.5262  0.4060
 8827TIP3   OH226441   5.896   4.816   0.103 -0.2776  0.0954 -0.0731
 8827TIP3    H126442   5.986   4.844   0.088  0.1019  0.1473  2.1563
 8827TIP3    H226443   5.855   4.891   0.147 -0.7141 -0.8678  1.1727
 8828TIP3   OH226444   2.817   2.567   6.142  0.0216  0.3871 -0.2925
 8828TIP3    H126445   2.774   2.649   6.166 -1.6138 -0.1779 -1.2126
 8828TIP3    H226446   2.897   2.565   6.195  0.0524  2.5443 -0.2364
 8829TIP3   OH226447   2.889   3.734   5.687  0.5088  0.3301 -0.4973
 8829TIP3    H126448   2.954   3.745   5.756  0.4294 -2.4059  0.0489
 8829TIP3    H226449   2.861   3.643   5.694 -0.8551  0.5133 -2.9558
 8830TIP3   OH226450   5.253   5.982   1.072 -0.3220  0.0617 -0.6492
 8830TIP3    H126451   5.347   5.999   1.081 -0.2575  0.2843 -1.6965
 8830TIP3    H226452   5.215   6.067   1.053 -0.6661 -0.1134 -0.7436
 8831TIP3   OH226453   2.965   1.261   0.378  0.0478 -0.1237  0.2570
 8831TIP3    H126454   2.907   1.226   0.447  1.9467 -0.3908  1.7597
 8831TIP3    H226455   2.977   1.188   0.318 -3.9515  0.9374 -2.0331
 8832TIP3   OH226456   6.650   5.062   1.279 -0.3053  0.2348  0.2737
 8832TIP3    H126457   6.712   5.101   1.218 -0.2935 -0.1061  0.0700
 8832TIP3    H226458   6.653   5.119   1.356 -0.5213  0.8252 -0.1470
 8833TIP3   OH226459   2.230   7.347   2.736 -0.1589 -0.2578  0.0377
 8833TIP3    H126460   2.201   7.307   2.818 -0.2233  1.2149  0.7476
 8833TIP3    H226461   2.206   7.283   2.669  0.2626 -1.6643  1.1954
 8834TIP3   OH226462   4.526   1.424   5.222 -0.3676 -0.3026  0.0597
 8834TIP3    H126463   4.441   1.453   5.255  0.8157  1.5624  1.5911
 8834TIP3    H226464   4.553   1.493   5.162  1.2662  0.5200  1.6814
 8835TIP3   OH226465   7.212   0.468   1.740  0.2190  0.3625  0.7319
 8835TIP3    H126466   7.299   0.448   1.774  0.6013  2.4336  1.0363
 8835TIP3    H226467   7.224   0.474   1.645  0.4519  0.8774  0.7949
 8836TIP3   OH226468   2.253   1.883   4.852  0.5791  0.4723  0.4761
 8836TIP3    H126469   2.256   1.903   4.945 -1.5953 -0.3984  0.7701
 8836TIP3    H226470   2.327   1.823   4.838  0.4394 -0.0369  1.8144
 8837TIP3   OH226471   6.514   6.129   0.244  0.5333  0.2247  0.6199
 8837TIP3    H126472   6.515   6.083   0.328  0.4095  0.2298  0.6243
 8837TIP3    H226473   6.435   6.184   0.248 -0.5922 -1.3097 -0.3234
 8838TIP3   OH226474   2.193   2.513   5.489 -0.5882  0.4849 -0.1985
 8838TIP3    H126475   2.130   2.460   5.441  0.5091 -0.2633 -0.8584
 8838TIP3    H226476   2.251   2.549   5.421 -1.0827  2.2188  0.2755
 8839TIP3   OH226477   2.325   2.441   3.468 -0.0962 -0.0788 -0.0037
 8839TIP3    H126478   2.291   2.375   3.529  1.7127 -0.6870  0.3683
 8839TIP3    H226479   2.376   2.501   3.523  1.8685 -0.8500 -0.9698
 8840TIP3   OH226480   7.036   6.453   0.173 -0.6771 -0.3886 -0.2554
 8840TIP3    H126481   7.094   6.380   0.154  1.9392  1.3552  0.6285
 8840TIP3    H226482   7.027   6.452   0.269 -1.2133  0.0080 -0.2992
 8841TIP3   OH226483   1.950   1.005   5.784 -0.4229 -0.3536 -0.2301
 8841TIP3    H126484   2.032   1.020   5.831 -0.2648 -2.4449  0.1841
 8841TIP3    H226485   1.882   1.021   5.850 -0.3077  0.0109 -0.1980
 8842TIP3   OH226486   0.182   5.098   0.320  0.1783  0.2647  0.5652
 8842TIP3    H126487   0.149   5.119   0.407 -1.8990  1.4824 -0.4724
 8842TIP3    H226488   0.257   5.157   0.308  0.7346 -0.2080  1.6766
 8843TIP3   OH226489   4.317   6.241   0.419 -0.2093 -0.3695 -0.3932
 8843TIP3    H126490   4.338   6.334   0.426 -0.7152 -0.3270  0.6575
 8843TIP3    H226491   4.272   6.220   0.501  0.2049 -1.6182 -0.4652
 8844TIP3   OH226492   7.624   7.285   5.563 -0.2569 -0.2823  0.3951
 8844TIP3    H126493   7.554   7.342   5.593 -0.4965  0.7738 -2.0316
 8844TIP3    H226494   7.649   7.320   5.477  1.7648 -1.9306  0.2567
 8845TIP3   OH226495   3.238   1.751   4.584 -0.3095 -0.2689 -0.6287
 8845TIP3    H126496   3.298   1.801   4.639  0.6674 -1.6386 -0.4232
 8845TIP3    H226497   3.151   1.778   4.613  0.2003  0.0519  0.6396
 8846TIP3   OH226498   3.305   1.868   5.913  0.6769  0.4736  0.0288
 8846TIP3    H126499   3.224   1.907   5.878  0.0659 -1.4408 -0.7565
 8846TIP3    H226500   3.365   1.867   5.838  0.1914 -1.4092 -0.3501
 8847TIP3   OH226501   4.513   3.559   5.986 -0.3955  0.1048  0.4106
 8847TIP3    H126502   4.454   3.490   5.955 -0.4065 -0.0870  0.8552
 8847TIP3    H226503   4.489   3.571   6.078 -1.4485  1.7631 -0.0509
 8848TIP3   OH226504   4.563   3.726   4.522 -0.4215  0.1138 -0.1798
 8848TIP3    H126505   4.620   3.666   4.571  1.6303 -0.5157 -3.1853
 8848TIP3    H226506   4.477   3.686   4.526 -0.0724 -0.5138  1.9055
 8849TIP3   OH226507   5.286   6.517   2.234 -0.0120 -0.5734  0.2529
 8849TIP3    H126508   5.286   6.448   2.168 -1.1781  0.4016 -0.8078
 8849TIP3    H226509   5.339   6.482   2.306  0.3353 -2.1078 -0.7218
 8850TIP3   OH226510   7.446   7.171   0.202 -0.3680  0.1262  0.3655
 8850TIP3    H126511   7.472   7.080   0.189  1.5660  0.6992  0.0962
 8850TIP3    H226512   7.528   7.216   0.222 -1.3366  1.7783  0.6263
 8851TIP3   OH226513   0.877   0.323   0.969  0.1832 -0.6222 -0.4386
 8851TIP3    H126514   0.933   0.249   0.942 -2.1775 -3.4054  1.9177
 8851TIP3    H226515   0.893   0.332   1.062  1.0177  2.4841 -0.8380
 8852TIP3   OH226516   5.318   5.583   0.297 -0.5064 -0.6548 -0.5290
 8852TIP3    H126517   5.252   5.586   0.366 -2.4952 -1.2988 -2.3715
 8852TIP3    H226518   5.299   5.502   0.249  1.5340 -0.7775 -1.1746
 8853TIP3   OH226519   1.960   0.236   2.348 -0.0150  0.0639  0.3683
 8853TIP3    H126520   1.943   0.261   2.257  0.1483 -1.3591 -0.0688
 8853TIP3    H226521   2.032   0.293   2.375  0.1470  0.2849 -0.5022
 8854TIP3   OH226522   2.286   4.428   4.707  0.1239  0.4250  0.9191
 8854TIP3    H126523   2.238   4.506   4.680 -0.1000  0.0159  0.1119
 8854TIP3    H226524   2.340   4.406   4.631 -0.0982 -0.4207  1.0035
 8855TIP3   OH226525   3.798   5.574   5.939  0.7405 -0.0682  0.2008
 8855TIP3    H126526   3.858   5.505   5.909  1.3018  0.1510  0.8094
 8855TIP3    H226527   3.838   5.655   5.907 -0.3558 -0.0863 -1.2312
 8856TIP3   OH226528   3.852   5.693   0.160  0.4130 -0.1239 -0.3779
 8856TIP3    H126529   3.914   5.746   0.110  0.0184 -0.0096 -0.7486
 8856TIP3    H226530   3.804   5.756   0.214  0.1473 -0.1375 -0.5991
 8857TIP3   OH226531   2.275   5.301   5.782 -0.4873 -0.0945  0.3185
 8857TIP3    H126532   2.296   5.209   5.798 -1.1170 -0.2016  0.5414
 8857TIP3    H226533   2.180   5.305   5.786 -0.3795  1.0709  3.0016
 8858TIP3   OH226534   6.764   0.544   4.887 -0.5571  0.5130  0.6507
 8858TIP3    H126535   6.772   0.450   4.876  0.7062  0.7442 -0.4865
 8858TIP3    H226536   6.678   0.565   4.851 -0.8584 -0.2005  0.9431
 8859TIP3   OH226537   0.850   0.687   0.576 -0.0062 -0.3848  0.4543
 8859TIP3    H126538   0.875   0.621   0.641  1.3536  0.8046  1.1429
 8859TIP3    H226539   0.755   0.677   0.569 -0.2429 -0.2602  2.9186
 8860TIP3   OH226540   3.759   2.744   5.852  0.3340  0.0513  0.4782
 8860TIP3    H126541   3.673   2.726   5.891 -0.3993  2.0912 -0.1658
 8860TIP3    H226542   3.755   2.835   5.825  1.7473 -0.6034 -2.0787
 8861TIP3   OH226543   1.705   0.264   0.320  0.0899  0.1952 -0.4713
 8861TIP3    H126544   1.697   0.358   0.301  1.1313  0.7951  1.8987
 8861TIP3    H226545   1.797   0.245   0.302 -0.3117 -0.6021 -1.7742
 8862TIP3   OH226546   3.108   3.608   5.175  0.8040 -0.0926  0.0303
 8862TIP3    H126547   3.051   3.684   5.193  0.4500 -0.4147  0.2753
 8862TIP3    H226548   3.048   3.534   5.171  1.1335 -0.3330 -0.3995
 8863TIP3   OH226549   2.852   6.163   1.548 -0.2920 -0.5947  0.0461
 8863TIP3    H126550   2.772   6.186   1.501  1.2393  2.0183 -1.3499
 8863TIP3    H226551   2.843   6.206   1.634 -0.1946  0.0736 -0.2767
 8864TIP3   OH226552   3.015   2.218   5.423 -0.3799  0.3751 -0.2886
 8864TIP3    H126553   2.961   2.191   5.348 -0.5485  0.9993 -0.3928
 8864TIP3    H226554   2.974   2.298   5.454 -0.7405 -0.2751  0.9236
 8865TIP3   OH226555   1.827   0.637   2.219  0.2145 -0.0302 -0.2074
 8865TIP3    H126556   1.915   0.614   2.246 -0.9676 -3.2845  1.1435
 8865TIP3    H226557   1.789   0.680   2.296  0.0950 -0.1298 -0.2105
 8866TIP3   OH226558   6.233   0.078   0.654  0.0475  0.0717 -0.3419
 8866TIP3    H126559   6.146   0.078   0.693 -0.0844  1.4902 -0.6109
 8866TIP3    H226560   6.241  -0.008   0.612 -0.6558 -0.6129  0.9067
 8867TIP3   OH226561   3.119   1.408   0.781 -0.0883 -0.2021  0.4379
 8867TIP3    H126562   3.106   1.455   0.698 -0.8470 -2.1677 -0.5785
 8867TIP3    H226563   3.037   1.420   0.829 -0.2548 -0.4457  0.2119
 8868TIP3   OH226564   2.992   3.238   6.334  0.1262 -0.8061 -0.0963
 8868TIP3    H126565   2.919   3.213   6.277 -0.6403  0.1730  0.4212
 8868TIP3    H226566   2.971   3.198   6.418  0.5310 -1.0780 -0.1242
 8869TIP3   OH226567   6.936   0.475   0.086  0.2036 -0.0621 -0.2029
 8869TIP3    H126568   6.936   0.380   0.077 -1.1943 -0.3737  2.4645
 8869TIP3    H226569   6.973   0.491   0.173 -1.1290  1.7352  0.0618
 8870TIP3   OH226570   2.473   1.908   4.671  0.0915  0.3465  0.4646
 8870TIP3    H126571   2.391   1.927   4.717 -0.8433 -0.7870 -0.7027
 8870TIP3    H226572   2.446   1.872   4.587  1.7816 -1.1687  0.5397
 8871TIP3   OH226573   1.513   6.521   6.191  0.1924  0.3955  0.4126
 8871TIP3    H126574   1.552   6.474   6.117 -0.7519  1.0597 -0.5366
 8871TIP3    H226575   1.483   6.452   6.250 -1.7923 -0.2588 -1.2860
 8872TIP3   OH226576   4.609   6.790   1.628 -0.7193 -0.5112  0.4194
 8872TIP3    H126577   4.676   6.747   1.574  1.1269  2.0143  0.5959
 8872TIP3    H226578   4.634   6.768   1.718  0.6581  1.4188  0.5476
 8873TIP3   OH226579   7.133   6.977   0.959 -0.5282 -0.2730  0.5724
 8873TIP3    H126580   7.152   6.950   1.049 -0.0708 -1.0833  0.2447
 8873TIP3    H226581   7.195   7.047   0.940  1.3718 -2.0875 -0.0859
 8874TIP3   OH226582   4.231   3.561   5.827  0.5857 -0.5306  0.2586
 8874TIP3    H126583   4.164   3.552   5.896  0.2356  1.5712  0.2305
 8874TIP3    H226584   4.294   3.624   5.863  1.3880 -0.8291 -0.6067
 8875TIP3   OH226585   2.486   3.426   5.427  0.2871 -0.4288 -0.1303
 8875TIP3    H126586   2.473   3.497   5.490  1.9659 -0.1895 -0.0388
 8875TIP3    H226587   2.580   3.407   5.431  0.1274 -1.5291 -1.3565
 8876TIP3   OH226588   5.021   5.224   1.281 -0.3950 -0.4766  0.2113
 8876TIP3    H126589   4.997   5.241   1.190 -1.8086 -0.8956  0.5012
 8876TIP3    H226590   5.027   5.311   1.321 -1.0272 -0.3517  0.0353
 8877TIP3   OH226591   6.505   6.358   1.435 -0.4343  0.0150  0.0322
 8877TIP3    H126592   6.506   6.436   1.490 -1.2641  0.3623 -0.4418
 8877TIP3    H226593   6.487   6.286   1.496 -2.3295  0.5151  0.0850
 8878TIP3   OH226594   6.441   6.210   1.208 -0.0521 -0.6037 -0.1430
 8878TIP3    H126595   6.353   6.182   1.229  0.2483 -0.7833  0.9011
 8878TIP3    H226596   6.474   6.251   1.288  0.7433 -0.3615 -0.5772
 8879TIP3   OH226597   6.061   5.865   0.038  0.6570  0.9801 -0.2421
 8879TIP3    H126598   6.127   5.845  -0.028  1.2003  1.7299  0.0574
 8879TIP3    H226599   6.106   5.850   0.122  0.3364  1.1280 -0.0429
 8880TIP3   OH226600   3.428   5.903   5.715 -0.2077 -0.6979 -0.0236
 8880TIP3    H126601   3.358   5.848   5.749  1.2219 -1.6658  1.4189
 8880TIP3    H226602   3.508   5.852   5.730  0.9785  1.1119 -0.0860
 8881TIP3   OH226603   3.191   2.605   5.672  0.0449 -0.0666 -0.3828
 8881TIP3    H126604   3.173   2.611   5.766 -2.3459  0.1483 -0.8379
 8881TIP3    H226605   3.281   2.636   5.664 -0.1381  1.1374  1.6791
 8882TIP3   OH226606   4.159   5.386   4.627 -0.1234 -0.3516 -0.2721
 8882TIP3    H126607   4.177   5.385   4.721 -0.3016 -0.4910 -0.2374
 8882TIP3    H226608   4.235   5.344   4.587  0.0042 -0.1862 -0.2002
 8883TIP3   OH226609   2.852   2.559   5.188 -0.4028  0.5629  0.2482
 8883TIP3    H126610   2.947   2.550   5.187 -0.2539  1.9311  1.0087
 8883TIP3    H226611   2.833   2.626   5.123 -0.7763  0.8845  0.6842
 8884TIP3   OH226612   4.052   6.459   6.164 -0.3221  0.3418  0.3087
 8884TIP3    H126613   3.956   6.458   6.169 -0.4127  1.2108 -0.9856
 8884TIP3    H226614   4.073   6.393   6.097 -0.0915  1.1267 -0.3959
 8885TIP3   OH226615   1.414   0.295   0.441 -0.1365 -0.7222  0.0968
 8885TIP3    H126616   1.479   0.302   0.512  0.0028  1.3136 -0.1960
 8885TIP3    H226617   1.455   0.338   0.366 -1.6056  0.1415 -0.2386
 8886TIP3   OH226618   2.558   5.154   0.218  0.2578 -0.1534 -0.7035
 8886TIP3    H126619   2.597   5.205   0.147  0.3062 -0.1145 -0.6491
 8886TIP3    H226620   2.502   5.216   0.264 -0.0357 -0.2609 -0.9112
 8887TIP3   OH226621   6.410   1.956   3.344  0.3765  0.7987  1.0284
 8887TIP3    H126622   6.402   2.019   3.415  1.5195 -0.4068  2.2510
 8887TIP3    H226623   6.403   1.871   3.386 -0.3544  0.0892 -0.4977
 8888TIP3   OH226624   2.697   1.638   3.611  0.0554  0.0525 -0.0458
 8888TIP3    H126625   2.624   1.696   3.594 -0.1524 -0.7436 -2.0719
 8888TIP3    H226626   2.657   1.556   3.640 -0.0806 -1.1680 -3.3936
 8889TIP3   OH226627   2.090   1.329   6.373  0.0216  0.2882  0.2793
 8889TIP3    H126628   2.137   1.407   6.345 -0.2630  0.8096  1.2160
 8889TIP3    H226629   2.000   1.357   6.385 -0.3519 -0.4946 -0.6297
 8890TIP3   OH226630   6.263   5.937   0.875  0.2130  0.2923 -0.3048
 8890TIP3    H126631   6.219   6.021   0.882  2.0742  1.2175  0.6048
 8890TIP3    H226632   6.351   5.953   0.909  0.3521 -2.2075  0.6148
 8891TIP3   OH226633   4.218   3.080   6.127  0.1135 -0.5834 -0.2772
 8891TIP3    H126634   4.288   3.048   6.184 -0.9782  0.2826  1.6001
 8891TIP3    H226635   4.141   3.084   6.183 -1.8387 -2.8711 -2.6468
 8892TIP3   OH226636   6.269   7.166   0.264  0.9179 -0.9642  0.7030
 8892TIP3    H126637   6.251   7.087   0.213  1.0553 -2.2022  2.5379
 8892TIP3    H226638   6.339   7.140   0.324  0.1573  0.2134  2.1167
 8893TIP3   OH226639   6.444   5.442   1.254 -0.1882  0.3018 -0.3155
 8893TIP3    H126640   6.489   5.402   1.179 -0.4648 -0.3983 -0.1138
 8893TIP3    H226641   6.351   5.426   1.237 -0.4364  2.3893 -1.1121
 8894TIP3   OH226642   5.481   2.122   4.191  0.2786  0.1552 -0.0375
 8894TIP3    H126643   5.511   2.145   4.103  1.5828  0.0620  0.3620
 8894TIP3    H226644   5.386   2.129   4.187  0.4938  3.7692 -0.4479
 8895TIP3   OH226645   1.728   5.281   5.843 -0.0652 -0.3938  0.3024
 8895TIP3    H126646   1.658   5.338   5.876  0.3124  0.7330 -0.7963
 8895TIP3    H226647   1.743   5.310   5.753  2.4288 -0.0007  0.7900
 8896TIP3   OH226648   4.981   6.120   1.227  0.1694 -0.1793  0.7705
 8896TIP3    H126649   4.974   6.037   1.275 -0.4176  0.6094  2.0630
 8896TIP3    H226650   4.895   6.160   1.235  0.9343  1.3380  1.5956
 8897TIP3   OH226651   0.254   5.808   0.672  0.3362 -0.3332 -0.3568
 8897TIP3    H126652   0.235   5.719   0.702  0.8695 -0.2583  0.2125
 8897TIP3    H226653   0.241   5.863   0.749 -0.4741  0.1510 -0.8295
 8898TIP3   OH226654   3.075   1.518   5.425  0.3062  0.2716  0.0831
 8898TIP3    H126655   3.159   1.522   5.380  0.7593  2.0463  1.0544
 8898TIP3    H226656   3.076   1.592   5.485 -2.8855  1.6883 -1.4890
 8899TIP3   OH226657   3.370   4.980   6.176  0.1450  1.2055  0.0452
 8899TIP3    H126658   3.452   4.971   6.224 -0.0556  0.1625  0.2061
 8899TIP3    H226659   3.322   5.049   6.223  0.2589  0.7089  0.9077
 8900TIP3   OH226660   5.271   4.705   4.942  0.4862 -0.1061  0.2280
 8900TIP3    H126661   5.200   4.640   4.934  0.9447 -0.3332 -2.8966
 8900TIP3    H226662   5.346   4.655   4.974  1.0113 -1.3403 -2.7614
 8901TIP3   OH226663   6.191   7.352   2.001 -0.2864 -0.0049 -0.2645
 8901TIP3    H126664   6.234   7.282   2.050  1.3243 -0.7779 -2.6780
 8901TIP3    H226665   6.263   7.401   1.961 -1.5386  0.6645 -1.7386
 8902TIP3   OH226666   6.943   6.481   0.713 -0.1587 -0.5248 -0.4561
 8902TIP3    H126667   6.931   6.388   0.696  0.4699 -0.6579 -0.1642
 8902TIP3    H226668   6.999   6.512   0.642  0.3464 -0.5500 -0.0719
 8903TIP3   OH226669   3.107   2.141   5.960  0.3907  0.1991 -0.0908
 8903TIP3    H126670   3.066   2.056   5.946 -0.5781  0.5780  0.4324
 8903TIP3    H226671   3.169   2.126   6.032 -1.1811  0.3790  1.3328
 8904TIP3   OH226672   1.497   1.618   0.409 -0.1867  0.0747  0.4591
 8904TIP3    H126673   1.576   1.618   0.356 -0.0016  0.5070  0.7315
 8904TIP3    H226674   1.525   1.651   0.495 -0.7064  0.4793  0.4808
 8905TIP3   OH226675   3.120   0.301   0.523 -0.0775  0.0539  0.8388
 8905TIP3    H126676   3.028   0.285   0.501 -0.2646  1.7861  0.2922
 8905TIP3    H226677   3.156   0.343   0.445  0.6940  1.1465  1.7701
 8906TIP3   OH226678   6.190   7.284   1.525  0.2663  0.0885 -0.2892
 8906TIP3    H126679   6.149   7.217   1.580 -2.2858  0.4034 -1.7444
 8906TIP3    H226680   6.209   7.239   1.442 -1.0058  1.0036 -1.0992
 8907TIP3   OH226681   7.754   0.030   0.183  0.0474 -0.1742  0.3761
 8907TIP3    H126682   7.731   0.072   0.100  2.5779 -0.0356 -0.2932
 8907TIP3    H226683   7.758  -0.063   0.162  0.7019 -0.1382  0.3481
 8908TIP3   OH226684   1.860   1.682   6.111  0.3368  0.1930  0.2974
 8908TIP3    H126685   1.813   1.714   6.035 -0.0583  0.7930  0.7935
 8908TIP3    H226686   1.807   1.709   6.186  0.2432 -1.2017  0.7456
 8909TIP3   OH226687   3.994   5.847   0.460 -0.6171 -0.1323  0.4720
 8909TIP3    H126688   3.932   5.882   0.396 -1.7633 -0.3035  1.4819
 8909TIP3    H226689   3.976   5.894   0.541  2.5334  1.8945  0.0771
 8910TIP3   OH226690   2.799   2.047   5.592  0.1358 -0.5489  0.1634
 8910TIP3    H126691   2.776   2.111   5.525 -1.4502 -2.5308 -1.2414
 8910TIP3    H226692   2.858   1.986   5.549 -1.0119 -1.9181  0.4962
 8911TIP3   OH226693   1.505   1.748   0.658 -0.0879 -0.3189 -0.6727
 8911TIP3    H126694   1.495   1.721   0.749  0.2389  2.0158  0.0922
 8911TIP3    H226695   1.416   1.748   0.622 -0.5095  1.1942  0.3705
 8912TIP3   OH226696   5.109   3.248   5.315 -0.3157  0.4771  0.5675
 8912TIP3    H126697   5.059   3.324   5.284 -0.5884  0.0797  0.0427
 8912TIP3    H226698   5.181   3.287   5.365  0.3891  1.1481 -0.9384
 8913TIP3   OH226699   7.490   6.017   1.691  0.3573 -0.0384 -0.6584
 8913TIP3    H126700   7.474   5.941   1.635 -1.6658 -0.3179  0.2530
 8913TIP3    H226701   7.457   5.991   1.777  0.4603  1.5582 -0.1114
 8914TIP3   OH226702   5.584   3.422   6.322  0.4321 -0.2258 -0.2138
 8914TIP3    H126703   5.548   3.435   6.410 -0.2897 -0.9835 -0.3847
 8914TIP3    H226704   5.546   3.493   6.270 -2.7257 -2.3254 -0.9246
 8915TIP3   OH226705   7.189   5.554   1.272 -0.0399 -0.4830  0.0245
 8915TIP3    H126706   7.187   5.502   1.191 -1.4350 -0.4141  0.0162
 8915TIP3    H226707   7.188   5.489   1.342 -1.2168 -0.4963  0.0067
 8916TIP3   OH226708   7.074   6.113   1.672  0.3970 -0.3784  0.0919
 8916TIP3    H126709   7.139   6.099   1.741  0.3410  0.6967  0.3825
 8916TIP3    H226710   7.055   6.207   1.677 -0.5638 -0.5341 -0.5378
 8917TIP3   OH226711   2.975   4.461   5.842  0.4748 -0.3627  0.0412
 8917TIP3    H126712   3.002   4.377   5.878  1.7758 -0.8274 -1.9620
 8917TIP3    H226713   2.887   4.446   5.807 -0.2430 -0.2569  1.7496
 8918TIP3   OH226714   3.982   3.275   4.147  0.0333  0.3689  0.3701
 8918TIP3    H126715   3.976   3.256   4.053 -1.5497 -2.1361  0.9351
 8918TIP3    H226716   3.922   3.349   4.160  0.0823  0.5768 -0.5598
 8919TIP3   OH226717   5.042   2.525   6.281 -0.1408 -0.0127 -0.4973
 8919TIP3    H126718   5.119   2.471   6.300 -1.8697 -2.2896  0.3516
 8919TIP3    H226719   4.979   2.502   6.349 -1.1046  2.8470 -0.3608
 8920TIP3   OH226720   3.763   5.792   2.334 -0.5885 -0.5242  0.2174
 8920TIP3    H126721   3.785   5.805   2.241  2.5603  1.3405  1.1501
 8920TIP3    H226722   3.800   5.705   2.354 -1.0585 -0.8254 -0.2122
 8921TIP3   OH226723   5.614   4.566   0.680  0.5935  0.2009  0.1367
 8921TIP3    H126724   5.636   4.516   0.758 -0.4640  1.5569  1.3372
 8921TIP3    H226725   5.610   4.657   0.710  0.2511  0.7580 -1.5104
 8922TIP3   OH226726   0.823   0.997   0.528 -0.3927 -0.3185 -0.2731
 8922TIP3    H126727   0.861   1.060   0.589 -1.2372  0.3876 -0.4828
 8922TIP3    H226728   0.866   0.914   0.550 -0.2045  0.0688  0.8365
 8923TIP3   OH226729   6.964   3.358   1.736 -0.2734 -0.3102  0.6846
 8923TIP3    H126730   7.007   3.281   1.773  1.3021  0.5318  0.6178
 8923TIP3    H226731   6.871   3.335   1.735  0.1384 -2.0536  1.0480
 8924TIP3   OH226732   7.432   6.092   0.055  0.4859  0.6024  0.3682
 8924TIP3    H126733   7.455   6.037  -0.019 -0.4557  0.3024  0.2836
 8924TIP3    H226734   7.436   6.034   0.131 -1.2460  0.1919  0.1832
 8925TIP3   OH226735   1.333   2.109   2.049  0.1906 -0.1247 -0.4891
 8925TIP3    H126736   1.384   2.039   2.008 -1.1081 -1.2874 -0.1423
 8925TIP3    H226737   1.371   2.119   2.136  1.5624  0.8662 -1.1952
 8926TIP3   OH226738   4.598   1.347   6.178  0.0163 -0.0073 -0.7871
 8926TIP3    H126739   4.687   1.357   6.145  0.6100  0.7490  0.9467
 8926TIP3    H226740   4.608   1.345   6.273 -1.7432 -0.7430 -0.5928
 8927TIP3   OH226741   5.397   6.848   1.808  0.4344 -0.0742 -0.9484
 8927TIP3    H126742   5.319   6.830   1.859  1.7128 -0.3118  0.9508
 8927TIP3    H226743   5.394   6.943   1.792  0.1746  0.0482 -0.1812
 8928TIP3   OH226744   0.107   0.143   2.783  0.2255 -0.3309  0.4325
 8928TIP3    H126745   0.186   0.193   2.764  0.1800 -0.1970  0.5948
 8928TIP3    H226746   0.036   0.196   2.745  0.3497 -1.1443 -0.9666
 8929TIP3   OH226747   0.903   7.112   1.918 -0.2814 -0.2829  1.0959
 8929TIP3    H126748   0.849   7.149   1.988 -2.0921 -1.1079  0.1946
 8929TIP3    H226749   0.891   7.017   1.927  0.7877 -0.4644  0.6819
 8930TIP3   OH226750   0.952   3.576   1.954 -0.3876  0.3011 -0.2181
 8930TIP3    H126751   0.971   3.488   1.924 -1.0328  0.8162 -2.1832
 8930TIP3    H226752   0.875   3.566   2.010  0.8042 -0.6509  1.3077
 8931TIP3   OH226753   3.064   0.761   5.957 -0.7673  0.2053  0.4724
 8931TIP3    H126754   2.993   0.697   5.967 -1.0346  0.1663 -1.4124
 8931TIP3    H226755   3.059   0.787   5.865  1.6755  0.1873  0.2988
 8932TIP3   OH226756   6.047   6.146   1.880  0.2236  0.1980 -0.0527
 8932TIP3    H126757   6.051   6.058   1.844  2.3523  0.4831 -0.5887
 8932TIP3    H226758   6.076   6.137   1.970 -3.8265 -0.3020  1.3001
 8933TIP3   OH226759   1.505   1.655   6.146  1.0637  0.7657  0.2660
 8933TIP3    H126760   1.563   1.652   6.070  0.2462 -1.2215 -0.2905
 8933TIP3    H226761   1.519   1.572   6.190 -0.7999  0.5842  0.5467
 8934TIP3   OH226762   0.268   4.335   5.024  0.5352 -0.2667 -0.6183
 8934TIP3    H126763   0.334   4.274   5.057 -0.1698 -1.2613 -1.0437
 8934TIP3    H226764   0.208   4.281   4.974  0.3633  0.9075 -1.6993
 8935TIP3   OH226765   7.366   3.759   6.332  0.0714 -0.3454 -0.1189
 8935TIP3    H126766   7.367   3.825   6.401  1.9150 -0.1749 -0.2860
 8935TIP3    H226767   7.395   3.805   6.253  1.0347 -1.2463 -0.3167
 8936TIP3   OH226768   1.180   1.151   0.428 -0.3796  0.2320  0.0718
 8936TIP3    H126769   1.241   1.170   0.356  2.4879 -3.4112  1.3973
 8936TIP3    H226770   1.217   1.197   0.504 -1.0372  0.5630  0.1973
 8937TIP3   OH226771   3.966   3.292   3.515 -0.4743  0.3800 -0.3911
 8937TIP3    H126772   3.956   3.198   3.531  1.1625  0.4686  1.3770
 8937TIP3    H226773   4.053   3.300   3.475 -0.0129  1.2627  0.7571
 8938TIP3   OH226774   3.943   2.368   5.645  0.0247 -0.4421  0.3089
 8938TIP3    H126775   3.964   2.442   5.588 -1.6840 -0.7204 -0.7205
 8938TIP3    H226776   3.890   2.405   5.715  2.1603 -0.0941  1.7812
 8939TIP3   OH226777   5.341   7.154   1.252 -0.2392 -0.0373 -0.1922
 8939TIP3    H126778   5.403   7.215   1.213 -0.9166  2.1099  1.9438
 8939TIP3    H226779   5.256   7.177   1.215 -0.6473  0.9993  1.3398
 8940TIP3   OH226780   6.370   5.132   1.615 -0.7708 -0.0108  0.6858
 8940TIP3    H126781   6.289   5.084   1.600 -0.4398 -0.6864  0.9965
 8940TIP3    H226782   6.439   5.072   1.586 -0.3568  0.3137  0.9827
 8941TIP3   OH226783   7.621   1.257   2.477 -0.1856 -0.2390  0.0291
 8941TIP3    H126784   7.528   1.257   2.502 -0.1291  1.3173  0.2486
 8941TIP3    H226785   7.623   1.208   2.395 -1.6717  2.3318 -1.6076
 8942TIP3   OH226786   2.960   3.859   6.088 -0.1663 -0.3334  0.2048
 8942TIP3    H126787   2.947   3.935   6.032 -1.0070 -0.5991  0.0256
 8942TIP3    H226788   3.022   3.804   6.040 -1.4231 -0.8891 -0.8111
 8943TIP3   OH226789   0.688   0.256   0.665  0.3629 -0.2732  0.0621
 8943TIP3    H126790   0.782   0.254   0.682 -0.0578 -2.3779  2.3655
 8943TIP3    H226791   0.659   0.166   0.683 -1.8887  0.0290 -1.8489
 8944TIP3   OH226792   5.436   4.463   1.526  0.2125  0.2153  0.1197
 8944TIP3    H126793   5.488   4.391   1.562  0.1519  0.2500  0.2766
 8944TIP3    H226794   5.449   4.457   1.431 -0.3775 -0.4618  0.0752
 8945TIP3   OH226795   0.014   4.772   0.368 -0.3111  0.3687 -0.3465
 8945TIP3    H126796   0.054   4.777   0.281  0.3493  0.6969 -0.0272
 8945TIP3    H226797   0.086   4.791   0.429 -0.8055  0.3043  0.2637
 8946TIP3   OH226798   7.470   4.893   0.129  0.0508  0.4091 -0.1698
 8946TIP3    H126799   7.556   4.892   0.087  0.2151 -0.4187  0.1732
 8946TIP3    H226800   7.439   4.802   0.123 -1.1006  0.8388 -0.9012
 8947TIP3   OH226801   5.533   6.234   1.837  0.3826  0.1774  0.1527
 8947TIP3    H126802   5.595   6.287   1.786 -1.3935  1.1429 -1.0380
 8947TIP3    H226803   5.542   6.146   1.801 -0.5065  0.7593 -1.5305
 8948TIP3   OH226804   4.845   6.351   5.808  0.4941  0.2185 -0.6920
 8948TIP3    H126805   4.774   6.398   5.765  0.8684  0.7542 -0.7327
 8948TIP3    H226806   4.811   6.263   5.820  0.3096  0.1003 -1.9374
 8949TIP3   OH226807   5.536   7.210   0.590  0.0393 -1.1089 -0.0476
 8949TIP3    H126808   5.482   7.259   0.528 -1.3535 -1.9060  0.5187
 8949TIP3    H226809   5.508   7.242   0.676  0.7961 -1.1957  0.2352
 8950TIP3   OH226810   6.227   6.566   1.900 -0.2876 -1.1652  0.2725
 8950TIP3    H126811   6.242   6.569   1.995 -0.4795 -1.2098  0.3043
 8950TIP3    H226812   6.143   6.521   1.891 -2.3148  2.4028  0.2929
 8951TIP3   OH226813   5.442   2.232   4.702 -0.3409  0.2300 -0.3536
 8951TIP3    H126814   5.415   2.157   4.754 -0.0057  0.5684  0.3220
 8951TIP3    H226815   5.489   2.288   4.764  2.0562 -0.4209 -1.5167
 8952TIP3   OH226816   4.713   7.149   0.970 -0.2744  0.2813 -0.4742
 8952TIP3    H126817   4.761   7.197   0.903  0.4821  0.0448 -0.1060
 8952TIP3    H226818   4.763   7.162   1.050 -1.8310  1.5615  0.3165
 8953TIP3   OH226819   4.907   1.913   0.458  0.8641 -0.7687 -0.0284
 8953TIP3    H126820   4.952   1.933   0.376  0.6529 -0.5978 -0.1025
 8953TIP3    H226821   4.967   1.855   0.505  1.4653  0.0163  0.1721
 8954TIP3   OH226822   6.718   5.561   1.783 -0.0400 -0.1619 -0.0334
 8954TIP3    H126823   6.728   5.507   1.705 -0.8989  0.1228 -0.3413
 8954TIP3    H226824   6.636   5.607   1.771  0.8777  1.5447  0.0450
 8955TIP3   OH226825   7.012   2.036   1.878 -0.3835 -0.4621  0.5148
 8955TIP3    H126826   7.037   2.122   1.911  0.1405 -0.9518  1.3928
 8955TIP3    H226827   7.019   2.044   1.782 -0.8408  0.6200  0.5785
 8956TIP3   OH226828   1.009   1.582   0.644  0.5260  0.5225  0.5084
 8956TIP3    H126829   1.052   1.542   0.569  1.3996  1.5648  0.4412
 8956TIP3    H226830   0.921   1.604   0.612  0.3160 -0.5904  0.3101
 8957TIP3   OH226831   2.876   4.181   5.016  0.0097 -0.1324 -0.3936
 8957TIP3    H126832   2.862   4.098   4.970 -0.5625 -0.5412  0.5056
 8957TIP3    H226833   2.804   4.237   4.986 -0.6369 -0.5545  0.3473
 8958TIP3   OH226834   4.049   5.209   5.098  0.1240  0.0159  0.2771
 8958TIP3    H126835   4.090   5.250   5.174  0.1567  0.0211  0.2573
 8958TIP3    H226836   3.975   5.160   5.134  1.3008 -1.6133  0.5722
 8959TIP3   OH226837   3.290   3.253   4.846 -0.1915 -0.6233 -0.2568
 8959TIP3    H126838   3.273   3.200   4.924 -0.5871 -0.1323 -0.0005
 8959TIP3    H226839   3.330   3.333   4.880 -0.4948 -0.3501 -0.5443
 8960TIP3   OH226840   6.101   3.176   4.586  0.1375  0.1453 -0.2094
 8960TIP3    H126841   6.079   3.099   4.533 -2.5511  1.0002 -0.4113
 8960TIP3    H226842   6.189   3.200   4.558  1.0492 -2.8888 -0.0900
 8961TIP3   OH226843   3.179   3.087   6.209 -0.3415  0.9387  0.2512
 8961TIP3    H126844   3.120   3.152   6.247 -0.1398  1.2044  0.1068
 8961TIP3    H226845   3.220   3.132   6.135  1.6830  1.4879  1.6667
 8962TIP3   OH226846   5.853   3.519   4.367  0.2372 -0.1659  0.6826
 8962TIP3    H126847   5.817   3.605   4.345  0.6713  0.1080  1.0417
 8962TIP3    H226848   5.922   3.505   4.302 -1.3748 -1.2666 -0.8275
 8963TIP3   OH226849   3.728   3.385   5.546 -0.2226 -0.2749 -0.2326
 8963TIP3    H126850   3.800   3.340   5.502  0.6909  2.8370 -2.0713
 8963TIP3    H226851   3.668   3.408   5.475 -0.1552  2.2346  0.4805
 8964TIP3   OH226852   5.208   3.169   5.879  0.4153  0.1643  0.6216
 8964TIP3    H126853   5.217   3.251   5.830 -0.5945  0.6425  1.2252
 8964TIP3    H226854   5.124   3.177   5.923 -1.2000 -2.5612 -1.8379
 8965TIP3   OH226855   5.277   3.916   5.764  0.0305 -0.2706 -0.0800
 8965TIP3    H126856   5.299   3.945   5.675  0.1737 -1.4082 -0.4291
 8965TIP3    H226857   5.188   3.947   5.778 -0.1355 -0.4200 -0.7736
 8966TIP3   OH226858   5.184   5.111   5.462 -0.4705  0.3702 -0.4347
 8966TIP3    H126859   5.168   5.105   5.368  0.4155  0.1812 -0.5758
 8966TIP3    H226860   5.096   5.117   5.501 -0.9551 -2.2698 -1.0603
 8967TIP3   OH226861   5.926   7.305   0.057 -0.6050 -0.4772  0.5238
 8967TIP3    H126862   5.962   7.247   0.124 -1.0752  0.5259  1.6678
 8967TIP3    H226863   5.840   7.269   0.037  0.1118 -1.5930 -0.5863
 8968TIP3   OH226864   5.066   0.448   1.036  0.2401 -0.4037  0.0252
 8968TIP3    H126865   5.062   0.515   1.104  0.1600  0.2335 -0.6000
 8968TIP3    H226866   5.137   0.389   1.064  1.3055  0.7626 -0.1574
 8969TIP3   OH226867   4.587   1.716   5.118 -0.0379  0.2424 -0.1300
 8969TIP3    H126868   4.645   1.736   5.191 -1.1579 -1.5474  1.2826
 8969TIP3    H226869   4.642   1.723   5.041  1.1048  2.4371  0.8239
 8970TIP3   OH226870   6.334   1.635   4.298  0.9188 -0.1959  0.3764
 8970TIP3    H126871   6.293   1.550   4.311  0.5870 -0.2285 -0.8400
 8970TIP3    H226872   6.344   1.670   4.386  0.6762 -1.3120  0.8606
 8971TIP3   OH226873   0.121   6.006   0.440  0.0358 -0.4433  0.0886
 8971TIP3    H126874   0.030   6.034   0.430  0.3815 -0.0057 -2.2687
 8971TIP3    H226875   0.131   5.988   0.533 -2.0297  0.9844  0.6186
 8972TIP3   OH226876   0.231   4.853   0.161 -0.1127 -0.5642 -0.8293
 8972TIP3    H126877   0.268   4.853   0.072 -0.2619  0.5111 -0.9026
 8972TIP3    H226878   0.221   4.946   0.182  0.7380 -0.7961  0.6643
 8973TIP3   OH226879   2.149   2.975   5.535 -0.7826 -0.1619  0.3860
 8973TIP3    H126880   2.212   2.948   5.602  0.6100 -0.0652 -0.8670
 8973TIP3    H226881   2.069   2.927   5.556 -0.1087 -0.7589  1.6296
 8974TIP3   OH226882   3.456   0.203   0.910  0.2970 -0.0807 -0.0621
 8974TIP3    H126883   3.422   0.216   0.821 -0.1406  4.3530  0.6403
 8974TIP3    H226884   3.380   0.177   0.961 -0.9067  3.5242  0.1799
 8975TIP3   OH226885   2.913   4.172   6.356  0.0956  0.2801  0.4214
 8975TIP3    H126886   2.830   4.139   6.390 -0.9511 -0.1437 -2.4654
 8975TIP3    H226887   2.893   4.259   6.322  0.8417  0.1994 -0.2540
 8976TIP3   OH226888   4.391   2.434   5.668 -0.1646 -0.2137  0.3576
 8976TIP3    H126889   4.402   2.525   5.640 -0.6948 -0.2649 -0.0270
 8976TIP3    H226890   4.432   2.430   5.754  2.1602 -0.2128 -0.7079
 8977TIP3   OH226891   5.064   2.883   5.956 -0.1531 -0.0668 -0.3253
 8977TIP3    H126892   4.991   2.881   5.893 -0.9438  0.1810  0.5674
 8977TIP3    H226893   5.142   2.894   5.902 -0.6495 -1.6754 -1.4151
 8978TIP3   OH226894   0.474   2.896   5.696 -0.0333 -0.0537  0.3818
 8978TIP3    H126895   0.450   2.890   5.603  1.0047  3.2190 -0.1399
 8978TIP3    H226896   0.390   2.910   5.740 -0.1373  2.4021 -0.5148
 8979TIP3   OH226897   4.979   2.687   4.927 -0.5248 -0.5064 -0.6009
 8979TIP3    H126898   4.965   2.694   5.021  2.0033  0.1910 -0.2397
 8979TIP3    H226899   4.954   2.772   4.892  1.4183  0.2598 -0.1511
 8980TIP3   OH226900   1.650   1.005   0.604 -0.6865  0.4150 -0.0518
 8980TIP3    H126901   1.685   1.022   0.692 -0.1964 -1.0442  0.0470
 8980TIP3    H226902   1.693   0.924   0.576 -1.4682  0.4155 -1.3096
 8981TIP3   OH226903   7.336   4.664   0.104  0.5831 -0.6852 -0.1724
 8981TIP3    H126904   7.379   4.579   0.103  0.8117 -0.5613 -1.1693
 8981TIP3    H226905   7.325   4.687   0.012  3.1862  1.6910  0.0307
 8982TIP3   OH226906   7.490   6.352   0.188  0.0665 -0.5027  0.1991
 8982TIP3    H126907   7.581   6.381   0.188  0.0558 -0.4749  0.5968
 8982TIP3    H226908   7.490   6.274   0.133  0.0141  0.5131 -1.2655
 8983TIP3   OH226909   6.010   3.526   4.155  0.4451 -0.0875  0.2419
 8983TIP3    H126910   5.960   3.557   4.079  0.5147  0.2399  0.3287
 8983TIP3    H226911   6.035   3.437   4.132  2.5902  0.8410 -1.2156
 8984TIP3   OH226912   4.235   0.138   6.370 -0.9523 -0.2176  0.4604
 8984TIP3    H126913   4.167   0.150   6.304 -0.6212 -0.5009  0.0684
 8984TIP3    H226914   4.273   0.053   6.351 -1.0036 -0.4028  1.1569
 8985TIP3   OH226915   6.502   2.287   6.140 -0.4979 -0.0478 -0.4525
 8985TIP3    H126916   6.592   2.270   6.114 -0.2797  2.3759 -1.3845
 8985TIP3    H226917   6.480   2.371   6.099 -2.8662 -0.1458  0.5223
 8986TIP3   OH226918   6.663   1.879   4.251 -0.2677 -0.5899  0.1980
 8986TIP3    H126919   6.618   1.815   4.196 -0.4752 -2.3442  2.3422
 8986TIP3    H226920   6.595   1.939   4.279 -0.8934 -1.8658  1.5105
 8987TIP3   OH226921   1.503   0.200   0.077  0.2739 -0.0796 -0.4620
 8987TIP3    H126922   1.470   0.279   0.121  1.2291 -1.2811  2.5040
 8987TIP3    H226923   1.586   0.181   0.120 -0.1812 -2.9956 -0.8082
 8988TIP3   OH226924   4.080   3.460   4.680  0.7568  0.5952  0.5409
 8988TIP3    H126925   4.127   3.543   4.674  2.4687 -0.2524  1.8394
 8988TIP3    H226926   4.147   3.395   4.703 -0.2666 -1.4356 -1.8105
 8989TIP3   OH226927   4.860   3.331   6.142 -0.2863 -0.2096  0.6046
 8989TIP3    H126928   4.784   3.291   6.185  0.2188 -0.7416  1.0128
 8989TIP3    H226929   4.871   3.415   6.188 -0.1301 -0.4943  1.0928
 8990TIP3   OH226930   5.292   4.157   5.406  0.1945 -0.2237  0.0965
 8990TIP3    H126931   5.206   4.185   5.439  0.4672 -0.8611  1.3904
 8990TIP3    H226932   5.347   4.235   5.411 -0.1088 -0.0010 -0.0288
 8991TIP3   OH226933   6.921   3.799   3.603 -0.1562 -0.3868 -0.0777
 8991TIP3    H126934   6.912   3.836   3.516  1.4467  1.2059  0.4146
 8991TIP3    H226935   6.846   3.740   3.612 -1.1921  0.6263 -1.9155
 8992TIP3   OH226936   0.088   0.137   0.639  0.3296  0.0206  0.3642
 8992TIP3    H126937   0.140   0.100   0.710 -1.1157 -0.7487  1.0424
 8992TIP3    H226938   0.150   0.190   0.589  1.7305 -0.8055  1.2009
 8993TIP3   OH226939   6.363   5.358   4.038 -0.1266 -0.2940  0.2927
 8993TIP3    H126940   6.322   5.342   4.123 -1.3028 -0.0575 -0.2092
 8993TIP3    H226941   6.294   5.336   3.974  0.7265 -0.4324 -0.5903
 8994TIP3   OH226942   4.805   0.759   3.550  0.4215  0.0360  0.1508
 8994TIP3    H126943   4.840   0.816   3.481 -2.2631 -0.3288 -1.5885
 8994TIP3    H226944   4.816   0.671   3.515 -2.3300 -0.0713 -0.5248
 8995TIP3   OH226945   5.446   5.486   4.897  0.1571 -0.2185 -0.3899
 8995TIP3    H126946   5.494   5.419   4.946 -0.4783  0.9263  1.8511
 8995TIP3    H226947   5.511   5.553   4.877  0.0235  0.1587  0.4526
 8996TIP3   OH226948   4.535   5.673   6.008 -0.2953  0.6992 -0.2609
 8996TIP3    H126949   4.576   5.728   6.075 -0.7736  0.6747  0.0509
 8996TIP3    H226950   4.529   5.587   6.048 -0.8267  0.7489 -0.2359
 8997TIP3   OH226951   4.394   4.488   6.307  0.3709 -0.0330  0.4223
 8997TIP3    H126952   4.419   4.580   6.294 -0.3630  0.3773  1.7510
 8997TIP3    H226953   4.301   4.492   6.327  0.4365 -1.0223  0.9511
 8998TIP3   OH226954   4.137   4.242   5.787 -0.0734  0.2772  0.2291
 8998TIP3    H126955   4.177   4.209   5.868 -2.2827  0.3714  1.4027
 8998TIP3    H226956   4.172   4.330   5.777  1.2392 -0.2197  0.3447
 8999TIP3   OH226957   2.986   3.901   6.373 -0.7514 -0.1944  0.3372
 8999TIP3    H126958   2.993   3.864   6.285 -0.4177 -0.4247  0.4603
 8999TIP3    H226959   2.970   3.994   6.359  0.3500 -0.0430  0.0376
 9000TIP3   OH226960   5.264   4.383   4.713  0.1786 -0.8692 -0.2680
 9000TIP3    H126961   5.302   4.446   4.775 -0.1936 -0.4565 -0.4532
 9000TIP3    H226962   5.170   4.400   4.718  0.3633  1.3964 -3.3244
 9001TIP3   OH226963   2.007   0.216   0.624 -0.2115 -0.3457  0.4226
 9001TIP3    H126964   2.010   0.148   0.691 -1.3968  0.3515  1.2043
 9001TIP3    H226965   2.096   0.252   0.623 -0.1172 -0.5154  1.4671
 9002TIP3   OH226966   7.467   0.127   6.086 -0.0154  0.2877 -0.1324
 9002TIP3    H126967   7.503   0.039   6.093  1.3149  0.7601 -0.9798
 9002TIP3    H226968   7.462   0.144   5.992 -0.1461  1.1795  0.0332
 9003TIP3   OH226969   4.807   2.960   4.276  0.5175  0.0687  0.2823
 9003TIP3    H126970   4.736   2.969   4.213  2.4975  2.7320 -1.6962
 9003TIP3    H226971   4.767   2.982   4.360 -1.2306  0.5077 -0.6513
 9004TIP3   OH226972   5.679   1.880   4.572  0.2479  0.4939  0.4605
 9004TIP3    H126973   5.634   1.962   4.550 -0.0788  0.1817 -0.0546
 9004TIP3    H226974   5.643   1.816   4.510  0.5578 -0.0213  0.8123
 9005TIP3   OH226975   6.028   6.791   1.499  0.3740  0.6100 -0.0906
 9005TIP3    H126976   6.053   6.709   1.456  1.2890  0.5444  0.5664
 9005TIP3    H226977   5.999   6.847   1.427  1.5357  0.3609 -0.7680
 9006TIP3   OH226978   6.674   6.618   0.690 -0.0725 -0.0541 -0.3427
 9006TIP3    H126979   6.639   6.534   0.659  0.1177 -0.6578  1.0327
 9006TIP3    H226980   6.768   6.604   0.698 -0.3217 -0.4768  2.1632
 9007TIP3   OH226981   5.484   4.705   4.281  0.5624  0.6059  0.0473
 9007TIP3    H126982   5.487   4.653   4.201 -1.3787  0.1326  0.2617
 9007TIP3    H226983   5.440   4.649   4.345  1.6895  1.1513  1.3291
 9008TIP3   OH226984   5.487   6.487   0.268 -0.0931 -0.0758  0.0378
 9008TIP3    H126985   5.412   6.428   0.261 -1.8952  1.8437  2.2549
 9008TIP3    H226986   5.498   6.501   0.362  1.6561  1.4038 -0.3461
 9009TIP3   OH226987   2.686   3.655   5.470  0.8581  0.1869 -0.1572
 9009TIP3    H126988   2.649   3.667   5.383 -0.1637  0.2393  0.2863
 9009TIP3    H226989   2.625   3.698   5.529  0.9464 -0.8381  0.7034
 9010TIP3   OH226990   7.157   2.871   4.973  0.1542 -0.1217  0.0292
 9010TIP3    H126991   7.188   2.796   4.923 -3.8547 -2.4229  0.7976
 9010TIP3    H226992   7.195   2.860   5.059 -0.0971 -1.1118  0.0241
 9011TIP3   OH226993   4.417   3.886   4.309 -0.0275  0.4852 -0.0289
 9011TIP3    H126994   4.452   3.907   4.396  0.9543  0.4855 -0.4244
 9011TIP3    H226995   4.346   3.949   4.296  1.6869  2.3625 -0.4253
 9012TIP3   OH226996   3.593   1.079   2.044 -0.2703  0.2240  0.2240
 9012TIP3    H126997   3.549   1.063   2.128  1.1773 -2.3759  0.5482
 9012TIP3    H226998   3.525   1.062   1.979 -0.3475 -1.8176  0.7858
 9013TIP3   OH226999   6.242   1.881   5.406  0.6105 -0.3422  0.5984
 9013TIP3    H127000   6.300   1.863   5.333  0.3828  1.5799 -0.0978
 9013TIP3    H227001   6.296   1.931   5.468  0.8590 -2.1290  1.8396
 9014TIP3   OH227002   4.536   1.940   4.662 -0.0231  0.3020  0.5286
 9014TIP3    H127003   4.631   1.940   4.674  0.1084  2.1002 -0.2703
 9014TIP3    H227004   4.501   1.910   4.746  1.2476 -0.8386  0.6832
 9015TIP3   OH227005   7.555   3.988   0.004  1.1466  0.0422 -0.0269
 9015TIP3    H127006   7.495   4.061  -0.007 -0.5383 -1.2901  0.0864
 9015TIP3    H227007   7.512   3.931   0.067  2.5926 -0.8743  0.1435
 9016TIP3   OH227008   6.437   2.756   6.222  0.2139 -0.2399  0.7471
 9016TIP3    H127009   6.475   2.668   6.211  1.3866  0.3730 -0.2821
 9016TIP3    H227010   6.343   2.741   6.224  0.3394 -1.3930 -0.8857
 9017TIP3   OH227011   5.400   1.922   5.767  0.3876 -0.4682  0.7121
 9017TIP3    H127012   5.382   1.995   5.708 -0.1442 -1.7688 -0.7437
 9017TIP3    H227013   5.319   1.911   5.816 -0.5749 -2.0090 -1.1796
 9018TIP3   OH227014   5.663   3.467   3.685  0.6909  0.5983 -0.3875
 9018TIP3    H127015   5.712   3.443   3.764  0.9163 -2.6056 -1.4058
 9018TIP3    H227016   5.707   3.544   3.651  2.6969 -0.0072  0.7792
 9019TIP3   OH227017   0.063   2.736   6.041  0.1453 -0.2789 -0.2196
 9019TIP3    H127018   0.086   2.664   6.099  1.3032  0.0426 -0.2691
 9019TIP3    H227019   0.131   2.802   6.056 -0.3378  0.3891 -0.9055
 9020TIP3   OH227020   4.378   3.586   4.693  0.3261 -0.9531 -0.4632
 9020TIP3    H127021   4.306   3.648   4.707 -0.4432 -1.6386 -1.2762
 9020TIP3    H227022   4.398   3.553   4.781 -1.0370 -1.4910 -0.3342
 9021TIP3   OH227023   7.487   2.855   4.899 -0.2414  0.1428 -0.1092
 9021TIP3    H127024   7.478   2.852   4.804 -2.3999  0.6198  0.0615
 9021TIP3    H227025   7.442   2.775   4.929  0.5513 -0.0758  0.5058
 9022TIP3   OH227026   1.602   0.025   0.430  0.3664 -0.5009  0.7923
 9022TIP3    H127027   1.659   0.025   0.508  2.0881 -0.4524 -0.4324
 9022TIP3    H227028   1.623   0.106   0.385 -2.2336  0.5430  1.3729
 9023TIP3   OH227029   6.538   3.023   4.754 -0.3397  0.4689  0.1809
 9023TIP3    H127030   6.633   3.036   4.746 -0.3219 -1.0093 -2.2149
 9023TIP3    H227031   6.502   3.112   4.756  1.0791  1.0457  1.1807
 9024TIP3   OH227032   4.415   2.698   5.575  0.1361 -0.4159  0.0334
 9024TIP3    H127033   4.359   2.719   5.500  1.2848 -0.9344 -0.9881
 9024TIP3    H227034   4.420   2.780   5.625 -0.1265  0.1211 -0.8073
 9025TIP3   OH227035   7.355   2.694   4.356 -0.1392  0.7617  0.2490
 9025TIP3    H127036   7.442   2.670   4.325 -0.5643  0.3569 -0.6748
 9025TIP3    H227037   7.299   2.621   4.329 -1.1813  2.0929 -1.2876
 9026TIP3   OH227038   2.368   0.198  -0.004 -0.6219 -0.7401  0.3146
 9026TIP3    H127039   2.462   0.191   0.012 -0.3901  1.6618  0.3031
 9026TIP3    H227040   2.330   0.210   0.083 -0.8090 -0.8441  0.2459
 9027TIP3   OH227041   4.986   2.584   5.949 -0.2894  0.6932 -0.5254
 9027TIP3    H127042   5.036   2.509   5.916 -0.9487 -1.9785  4.1182
 9027TIP3    H227043   4.904   2.582   5.898 -1.0717 -2.9339  0.6904
 9028TIP3   OH227044   7.776   0.781   1.786  0.1620 -0.5147 -0.3445
 9028TIP3    H127045   7.847   0.844   1.795 -0.8449  0.6645 -0.5452
 9028TIP3    H227046   7.718   0.819   1.720 -1.3636 -0.8128  0.8061
 9029TIP3   OH227047   5.642   3.357   4.006  0.3388  0.4656  0.4851
 9029TIP3    H127048   5.604   3.278   3.969  0.0130  0.6003  0.5340
 9029TIP3    H227049   5.646   3.341   4.100 -1.7804  1.3697  0.7651
 9030TIP3   OH227050   4.656   3.271   2.753 -0.7500  0.2036 -0.1083
 9030TIP3    H127051   4.717   3.345   2.750 -0.5240  0.0113 -0.2458
 9030TIP3    H227052   4.661   3.232   2.666  0.6946 -1.2298  0.5825
 9031TIP3   OH227053   4.651   3.809   5.010  0.9656 -0.6125  0.0568
 9031TIP3    H127054   4.597   3.833   5.085  0.9677  0.4871 -0.2930
 9031TIP3    H227055   4.624   3.720   4.989 -0.6561 -0.0915 -0.0791
 9032TIP3   OH227056   4.119   0.651   5.633  0.0865  0.3339  0.1650
 9032TIP3    H127057   4.075   0.608   5.559  0.7927  1.7706 -1.1087
 9032TIP3    H227058   4.212   0.645   5.612  0.2581  1.3221  0.6273
 9033TIP3   OH227059   5.674   2.739   4.156  0.3006 -0.2243  0.1844
 9033TIP3    H127060   5.601   2.680   4.173  1.0155 -0.5696  2.2101
 9033TIP3    H227061   5.725   2.738   4.237  2.5791 -0.0413 -1.1948
 9034TIP3   OH227062   0.269   6.611   0.759 -0.4656 -0.1570 -0.1109
 9034TIP3    H127063   0.257   6.549   0.687 -1.1725 -1.4280  1.0889
 9034TIP3    H227064   0.237   6.694   0.723 -2.2968 -1.1086 -0.7706
 9035TIP3   OH227065   3.893   3.732   5.057 -0.6369 -0.3300 -0.3663
 9035TIP3    H127066   3.859   3.643   5.050 -0.6733 -0.4392  1.0308
 9035TIP3    H227067   3.817   3.788   5.040 -1.4137 -0.5722  2.1461
 9036TIP3   OH227068   5.287   2.572   4.758 -0.3729 -0.7868 -0.1651
 9036TIP3    H127069   5.222   2.515   4.717 -0.5027 -0.7357 -0.0330
 9036TIP3    H227070   5.335   2.610   4.685 -1.0941 -0.1215 -0.3024
 9037TIP3   OH227071   5.580   2.009   5.143 -0.1527  0.1948  0.7430
 9037TIP3    H127072   5.531   1.943   5.095  0.3229  0.3202  0.0808
 9037TIP3    H227073   5.666   1.970   5.157  0.6936  1.3141 -1.1347
 9038TIP3   OH227074   5.012   1.764   6.153 -0.2019  0.3599 -0.3864
 9038TIP3    H127075   4.966   1.709   6.216  1.3801  1.5963  1.9087
 9038TIP3    H227076   5.004   1.717   6.070 -2.0675 -1.4462  0.7702
 9039TIP3   OH227077   3.849   3.709   2.569  0.0655  0.4554 -0.2016
 9039TIP3    H127078   3.940   3.685   2.555  0.0187 -0.7418  1.3410
 9039TIP3    H227079   3.819   3.741   2.485  1.0716 -2.0032 -1.5598
 9040TIP3   OH227080   4.123   4.510   4.937 -0.0936 -0.0042  0.1063
 9040TIP3    H127081   4.137   4.586   4.880  0.5783  1.1870  1.8006
 9040TIP3    H227082   4.211   4.480   4.960 -0.3546 -1.4753 -0.7545
 9041TIP3   OH227083   7.271   1.331   5.508  0.3254  0.4558 -0.4312
 9041TIP3    H127084   7.188   1.376   5.493  0.3504  0.1568 -1.4436
 9041TIP3    H227085   7.306   1.314   5.421  0.7761 -0.6737 -0.0352
 9042TIP3   OH227086   7.650   7.344   0.271  0.4617 -0.2376 -0.2248
 9042TIP3    H127087   7.716   7.390   0.219  2.0160 -0.5043  1.4517
 9042TIP3    H227088   7.700   7.283   0.325 -1.2142 -0.8605  0.6646
 9043TIP3   OH227089   5.729   2.305   4.654 -0.3274 -0.4789 -0.3696
 9043TIP3    H127090   5.723   2.290   4.749 -0.8978  0.9307 -0.1664
 9043TIP3    H227091   5.662   2.372   4.637 -0.9726 -1.5087 -1.9462
 9044TIP3   OH227092   0.426   5.330   0.604  0.0417 -0.4102 -0.1054
 9044TIP3    H127093   0.504   5.366   0.646 -1.3141 -0.3708  2.4739
 9044TIP3    H227094   0.380   5.407   0.569  0.3693 -0.2854 -0.2658
 9045TIP3   OH227095   4.508   3.855   5.261 -0.0581  0.0240 -0.7861
 9045TIP3    H127096   4.429   3.894   5.299  0.0506  0.3475 -0.8907
 9045TIP3    H227097   4.558   3.822   5.335 -0.2898 -0.1787 -0.7183
 9046TIP3   OH227098   4.242   1.281   5.413 -0.3505  0.9267  0.5276
 9046TIP3    H127099   4.162   1.316   5.373 -0.7189 -1.6952 -1.2053
 9046TIP3    H227100   4.247   1.191   5.380  2.3190  0.4463  2.1175
 9047TIP3   OH227101   4.617   2.752   4.120  0.1073  0.3084  0.0074
 9047TIP3    H127102   4.579   2.837   4.098 -0.8736 -0.0985  0.0953
 9047TIP3    H227103   4.656   2.721   4.038 -0.3144  0.4543 -0.2542
 9048TIP3   OH227104   5.061   5.439   6.135  0.0891 -0.8442  0.1771
 9048TIP3    H127105   5.034   5.352   6.165 -3.9733  0.2355 -0.0529
 9048TIP3    H227106   5.052   5.495   6.213  0.3457 -0.1862 -0.2648
 9049TIP3   OH227107   0.365   5.297   0.288  0.3579 -0.2977 -0.2194
 9049TIP3    H127108   0.421   5.356   0.237  0.6481  0.0318  0.4680
 9049TIP3    H227109   0.421   5.222   0.308  0.5262 -0.0251  0.3607
 9050TIP3   OH227110   5.601   3.689   5.011  0.2540 -0.4332 -0.1817
 9050TIP3    H127111   5.538   3.744   4.965 -0.5318 -1.4820 -0.4074
 9050TIP3    H227112   5.573   3.599   4.989  1.5982 -0.9080  0.0347
 9051TIP3   OH227113   0.783   1.891   5.527  0.6533  0.0777 -0.2546
 9051TIP3    H127114   0.841   1.965   5.546  0.9439 -0.2102 -0.0064
 9051TIP3    H227115   0.829   1.815   5.563  1.1935 -0.4828 -2.0298
 9052TIP3   OH227116   0.132   5.616   0.449  0.2652  0.3978  0.1639
 9052TIP3    H127117   0.103   5.589   0.361  0.9418  1.1633 -0.2966
 9052TIP3    H227118   0.170   5.702   0.436 -0.0666  0.7233  1.3037
 9053TIP3   OH227119   5.385   3.924   6.001 -0.2423  0.7889  0.0739
 9053TIP3    H127120   5.338   3.873   5.934 -0.1826  1.3224 -0.3772
 9053TIP3    H227121   5.475   3.930   5.968 -0.1370  0.7821  0.3574
 9054TIP3   OH227122   5.048   1.830   5.603 -0.5156  0.1155 -0.3490
 9054TIP3    H127123   5.139   1.824   5.573 -0.4141 -1.8235  0.2791
 9054TIP3    H227124   5.054   1.873   5.689 -0.3432  1.3160 -0.9543
 9055TIP3   OH227125   1.255   1.888   3.933  0.2392  0.0444  0.5331
 9055TIP3    H127126   1.273   1.957   3.870  0.0363  0.9947  1.4982
 9055TIP3    H227127   1.175   1.917   3.978 -0.0921 -1.0283  0.6505
 9056TIP3   OH227128   4.195   4.313   3.893 -0.2180 -0.4231  0.2296
 9056TIP3    H127129   4.251   4.266   3.955 -0.5879 -1.5665 -0.2910
 9056TIP3    H227130   4.252   4.329   3.817 -0.5742 -1.5509 -0.2836
 9057TIP3   OH227131   3.708   2.083   5.430  0.0582 -0.0199 -0.5056
 9057TIP3    H127132   3.783   2.072   5.489 -1.0329  1.5958  1.2411
 9057TIP3    H227133   3.642   2.127   5.483 -2.4607 -2.1515 -1.7915
 9058TIP3   OH227134   6.772   6.877   0.083  0.0770 -0.2067 -0.5264
 9058TIP3    H127135   6.841   6.818   0.115 -0.5400 -0.8769 -0.4036
 9058TIP3    H227136   6.818   6.957   0.059  0.8607 -0.5386 -0.1631
 9059TIP3   OH227137   5.346   4.797   3.400  0.9080  0.3017  0.0021
 9059TIP3    H127138   5.275   4.842   3.445  1.5601  0.4414  0.9207
 9059TIP3    H227139   5.342   4.829   3.310 -0.0747  0.4410  0.0962
 9060TIP3   OH227140   5.545   2.499   4.262  0.3536 -0.5948 -0.3039
 9060TIP3    H127141   5.529   2.446   4.184  0.7839 -2.9666  1.1591
 9060TIP3    H227142   5.472   2.479   4.320  0.5649  0.3773  0.3052
 9061TIP3   OH227143   5.026   5.308   3.186 -0.5472  0.7210 -0.5196
 9061TIP3    H127144   5.077   5.287   3.107  1.7751  0.5707  0.9785
 9061TIP3    H227145   5.064   5.390   3.218 -0.0437 -0.3243  1.6236
 9062TIP3   OH227146   6.072   2.898   5.788  0.6211  0.5700  0.5066
 9062TIP3    H127147   6.120   2.889   5.706  0.9643  0.1410  0.7541
 9062TIP3    H227148   6.104   2.979   5.826  0.3380  0.8587  0.1388
 9063TIP3   OH227149   6.963   4.160   6.080 -0.5601  0.1878  0.0001
 9063TIP3    H127150   6.900   4.089   6.066 -1.7753  1.1008  0.7571
 9063TIP3    H227151   6.943   4.224   6.012 -2.2089  1.6704  1.8129
 9064TIP3   OH227152   5.496   6.668   2.389  0.2670  0.0236 -0.1926
 9064TIP3    H127153   5.544   6.610   2.329 -1.4129 -1.1638 -0.3999
 9064TIP3    H227154   5.427   6.706   2.335  2.3183  3.5218 -0.4841
 9065TIP3   OH227155   5.131   4.491   5.007 -0.7625  0.3534 -0.1018
 9065TIP3    H127156   5.135   4.462   5.098 -0.9208  0.5793 -0.0198
 9065TIP3    H227157   5.141   4.412   4.956  0.1665  0.3308  0.1075
 9066TIP3   OH227158   3.885   3.618   5.325  0.2317 -0.5131 -0.9368
 9066TIP3    H127159   3.904   3.685   5.259  0.8230 -0.2422 -0.4951
 9066TIP3    H227160   3.791   3.625   5.340  0.3821  0.5914 -0.4877
 9067TIP3   OH227161   4.770   3.273   5.647 -0.6394 -0.8146 -0.8694
 9067TIP3    H127162   4.681   3.251   5.622 -1.0439  0.2174 -0.3614
 9067TIP3    H227163   4.808   3.313   5.568 -1.3105  0.6866 -0.4538
 9068TIP3   OH227164   6.879   6.345   1.736  0.3426  0.2610 -0.2866
 9068TIP3    H127165   6.815   6.342   1.807  0.8405  0.5458  0.1736
 9068TIP3    H227166   6.846   6.413   1.677 -1.2457 -1.4768 -1.4644
 9069TIP3   OH227167   7.318   6.213   0.933  0.3709 -0.8087  0.6832
 9069TIP3    H127168   7.339   6.120   0.929  1.8120 -0.4207 -1.7805
 9069TIP3    H227169   7.272   6.230   0.851 -0.8028  0.4488  1.5833
 9070TIP3   OH227170   3.137   3.931   5.707 -0.1344  0.2076 -0.1578
 9070TIP3    H127171   3.104   3.995   5.769 -0.4571 -0.9136  0.8556
 9070TIP3    H227172   3.100   3.958   5.623 -0.3377  1.2843  0.2693
 9071TIP3   OH227173   4.911   3.288   4.071 -0.7301 -0.2416 -0.9702
 9071TIP3    H127174   4.851   3.221   4.038 -1.6927 -0.2410  0.7324
 9071TIP3    H227175   4.871   3.319   4.152  1.2985  0.1596 -0.0770
 9072TIP3   OH227176   0.843   5.643   0.224  0.1466  0.8513 -0.1677
 9072TIP3    H127177   0.779   5.711   0.200 -1.0241  0.3855  1.5951
 9072TIP3    H227178   0.890   5.679   0.299  0.2539  0.1491  0.1054
 9073TIP3   OH227179   4.663   2.472   5.188 -0.1279  0.5388  0.0239
 9073TIP3    H127180   4.752   2.480   5.154 -0.1390  0.2516 -0.0685
 9073TIP3    H227181   4.659   2.385   5.228  0.1685  1.2294  1.6034
 9074TIP3   OH227182   4.008   4.398   4.596  0.0463 -0.3201  0.0928
 9074TIP3    H127183   4.053   4.426   4.517  1.4827 -0.9127  0.6830
 9074TIP3    H227184   4.020   4.303   4.598  0.7692 -0.2099  1.4697
 9075TIP3   OH227185   0.476   5.127   2.514 -0.1243 -0.4581  0.4870
 9075TIP3    H127186   0.494   5.159   2.426 -1.9247  1.3479  0.7357
 9075TIP3    H227187   0.542   5.170   2.569  0.6198 -1.1205  0.1290
 9076TIP3   OH227188   3.202   0.138   0.146  0.0518 -0.8932  0.0201
 9076TIP3    H127189   3.285   0.159   0.190  1.4948 -0.8408 -2.6453
 9076TIP3    H227190   3.209   0.045   0.126 -0.5764 -0.9000 -0.1480
 9077TIP3   OH227191   3.288   0.440   0.366 -0.6795  0.3106 -0.2223
 9077TIP3    H127192   3.340   0.390   0.303 -0.6001 -1.6404  1.3815
 9077TIP3    H227193   3.295   0.531   0.335 -0.3253 -0.5552 -2.7984
 9078TIP3   OH227194   4.350   3.742   6.213  0.6278  0.6237  0.0656
 9078TIP3    H127195   4.283   3.677   6.237  0.0323  1.2579  0.1250
 9078TIP3    H227196   4.423   3.725   6.272  1.5542 -1.7680 -1.6744
 9079TIP3   OH227197   4.371   0.706   0.192  0.0832  0.0112 -0.1864
 9079TIP3    H127198   4.300   0.734   0.250  0.4605 -0.7157  0.6395
 9079TIP3    H227199   4.328   0.656   0.123 -0.4466  1.4725 -0.9326
 9080TIP3   OH227200   4.475   3.372   4.264  0.1196  0.0639  0.0033
 9080TIP3    H127201   4.467   3.383   4.359  1.6972 -1.2880  0.3169
 9080TIP3    H227202   4.404   3.313   4.240  0.3918 -0.4892  0.5304
 9081TIP3   OH227203   6.335   6.674   3.142  0.1410  0.4676 -0.2458
 9081TIP3    H127204   6.319   6.732   3.216 -0.4765 -1.4180  1.1392
 9081TIP3    H227205   6.253   6.677   3.091 -0.1749  0.2211  0.2428
 9082TIP3   OH227206   2.081   0.858   0.189 -0.1989 -0.8642 -0.1017
 9082TIP3    H127207   2.015   0.891   0.129 -2.7835 -0.6038  2.7820
 9082TIP3    H227208   2.141   0.932   0.201  0.0568 -0.7495 -1.8786
 9083TIP3   OH227209   2.260   3.981   5.423  0.2578  0.3211  0.2817
 9083TIP3    H127210   2.203   4.005   5.497 -0.0515 -0.5920  0.3459
 9083TIP3    H227211   2.346   4.014   5.448  0.2120 -0.2182  1.1743
 9084TIP3   OH227212   4.880   2.859   6.224 -0.0797  0.3501 -0.3301
 9084TIP3    H127213   4.812   2.885   6.286  0.7468  0.5370  0.5161
 9084TIP3    H227214   4.939   2.935   6.219  0.0720  0.1914 -1.0489
 9085TIP3   OH227215   5.364   2.143   5.598 -0.0356 -0.4483  0.2221
 9085TIP3    H127216   5.416   2.221   5.579  0.9229 -1.2187 -0.3374
 9085TIP3    H227217   5.275   2.175   5.605  0.0759  0.4131 -1.9428
 9086TIP3   OH227218   5.832   5.456   3.273  0.2625  0.5492  0.3674
 9086TIP3    H127219   5.856   5.518   3.205  1.3066  0.1309  0.3451
 9086TIP3    H227220   5.769   5.397   3.231  2.7790 -1.2290 -0.9927
 9087TIP3   OH227221   6.437   4.082   4.298 -0.3189 -0.3685  0.2975
 9087TIP3    H127222   6.422   4.146   4.229  2.3827 -0.7712 -0.7295
 9087TIP3    H227223   6.429   4.132   4.380 -3.0707  0.2004 -0.2530
 9088TIP3   OH227224   1.234   0.090   0.778 -0.5823  0.0716  0.3131
 9088TIP3    H127225   1.321   0.052   0.791 -0.0695  1.3709  0.8751
 9088TIP3    H227226   1.224   0.095   0.683 -0.4265 -0.9457  0.2427
 9089TIP3   OH227227   4.491   4.252   5.838 -0.1988 -0.1136 -0.2751
 9089TIP3    H127228   4.567   4.231   5.892 -2.2152 -2.0760  1.8928
 9089TIP3    H227229   4.425   4.283   5.900 -1.9382 -0.5961 -1.8450
 9090TIP3   OH227230   6.845   6.635   0.376  0.1982  0.2183  0.2847
 9090TIP3    H127231   6.859   6.541   0.387 -0.2195  0.2897  1.4575
 9090TIP3    H227232   6.760   6.641   0.330 -0.4574  0.0580  1.4650
 9091TIP3   OH227233   5.501   3.131   4.372  0.1941  0.1701 -0.2252
 9091TIP3    H127234   5.536   3.220   4.363  1.8416 -0.5894 -1.5023
 9091TIP3    H227235   5.446   3.119   4.294 -0.6685  0.3294  0.3450
 9092TIP3   OH227236   5.236   3.459   5.415 -0.7486  0.2360 -0.0086
 9092TIP3    H127237   5.297   3.506   5.358  0.8131 -1.4057  0.2776
 9092TIP3    H227238   5.263   3.483   5.504 -1.3926  0.5618  0.1064
 9093TIP3   OH227239   4.647   2.234   5.335 -0.4276 -0.2662 -0.0748
 9093TIP3    H127240   4.574   2.224   5.397  1.8057 -0.3611  2.6063
 9093TIP3    H227241   4.696   2.153   5.343  2.0816  1.3036  0.9845
 9094TIP3   OH227242   2.353   2.884   5.724  0.3903 -0.0672  0.0105
 9094TIP3    H127243   2.441   2.852   5.705  0.8833  1.1812  0.0976
 9094TIP3    H227244   2.364   2.941   5.800 -0.3151  0.9032 -0.5891
 9095TIP3   OH227245   4.608   4.806   4.981 -0.1579  0.1460  0.1949
 9095TIP3    H127246   4.653   4.752   4.917 -1.4889 -0.2807 -0.4118
 9095TIP3    H227247   4.561   4.871   4.928 -1.1232 -0.0960  0.7388
 9096TIP3   OH227248   4.037   1.953   3.987  0.4528  0.4659 -0.5474
 9096TIP3    H127249   4.087   1.961   4.068  0.3561  0.2069 -0.4631
 9096TIP3    H227250   4.046   2.039   3.945 -1.3276  1.3666  0.7962
 9097TIP3   OH227251   5.886   3.441   6.222 -0.1770 -0.2700 -0.1209
 9097TIP3    H127252   5.948   3.370   6.238 -0.2305 -0.4163 -0.5507
 9097TIP3    H227253   5.824   3.436   6.294  0.6803  0.2810  0.6759
 9098TIP3   OH227254   4.656   2.164   2.282  0.9614 -0.1418 -0.2101
 9098TIP3    H127255   4.602   2.196   2.354  0.4676  0.5468 -0.8818
 9098TIP3    H227256   4.647   2.069   2.286  0.3845 -0.0731  0.2114
 9099TIP3   OH227257   7.163   5.157   1.206 -0.8787  0.3659  0.6581
 9099TIP3    H127258   7.125   5.229   1.155 -1.5453  0.7484  1.6738
 9099TIP3    H227259   7.113   5.157   1.287 -1.9527 -2.2917  0.0269
 9100TIP3   OH227260   0.470   0.437   0.646  0.1009  0.1084 -0.3862
 9100TIP3    H127261   0.542   0.377   0.626  1.6326  1.2636  1.5494
 9100TIP3    H227262   0.391   0.390   0.618  1.0993 -3.4867  2.4597
 9101TIP3   OH227263   5.352   1.357   4.667 -0.2836  0.4158  0.0521
 9101TIP3    H127264   5.328   1.288   4.605 -0.5799 -0.2863  0.9333
 9101TIP3    H227265   5.277   1.417   4.667 -0.1294  0.6047 -0.5373
 9102TIP3   OH227266   2.808   0.101   0.846  0.5784 -0.9053  0.5296
 9102TIP3    H127267   2.797   0.128   0.937  0.2576  1.4330 -0.1552
 9102TIP3    H227268   2.853   0.175   0.805  2.4228 -2.7296 -0.8006
 9103TIP3   OH227269   6.574   4.015   5.031 -0.1043 -0.3763 -0.7799
 9103TIP3    H127270   6.649   3.958   5.016 -0.5264 -1.1998  0.1187
 9103TIP3    H227271   6.523   4.009   4.951 -0.0726 -1.1654 -0.7490
 9104TIP3   OH227272   0.661   5.802   0.092  0.0614 -0.7190  0.4723
 9104TIP3    H127273   0.694   5.810   0.003  2.6274 -1.4279  1.3048
 9104TIP3    H227274   0.591   5.866   0.098 -0.7215 -1.2551 -2.2989
 9105TIP3   OH227275   5.463   3.828   4.809  0.1259  0.2816  0.1273
 9105TIP3    H127276   5.372   3.826   4.780 -0.4273 -2.7490  1.9406
 9105TIP3    H227277   5.476   3.918   4.838 -2.2165  0.8196 -0.3577
 9106TIP3   OH227278   2.442   7.039   6.216  0.3493  0.2992  0.3019
 9106TIP3    H127279   2.371   7.072   6.161 -1.7307 -1.6637  1.7032
 9106TIP3    H227280   2.510   7.011   6.155 -0.9988  0.2186 -1.1750
 9107TIP3   OH227281   0.759   6.820   0.135  0.2562 -0.8131  0.9022
 9107TIP3    H127282   0.835   6.796   0.188 -0.2505 -1.8359  1.1884
 9107TIP3    H227283   0.728   6.902   0.174  0.0847 -1.3847  1.9966
 9108TIP3   OH227284   3.606   1.131   5.692  0.2014  0.6707  0.2723
 9108TIP3    H127285   3.604   1.039   5.718  0.8764  0.7452  0.5838
 9108TIP3    H227286   3.531   1.170   5.736 -0.1324  0.2526  0.0773
 9109TIP3   OH227287   5.906   6.763   0.872 -0.3103  0.4949  0.3216
 9109TIP3    H127288   5.962   6.799   0.803  0.8043 -1.1564  0.3410
 9109TIP3    H227289   5.850   6.699   0.826  0.1121 -0.2697  0.8486
 9110TIP3   OH227290   3.133   3.499   6.105 -0.0185 -0.3264  0.2668
 9110TIP3    H127291   3.094   3.514   6.191 -1.2380  0.0582 -0.3400
 9110TIP3    H227292   3.186   3.420   6.115  0.3397  0.0676  1.5245
 9111TIP3   OH227293   0.883   6.192   1.667  0.1229 -0.3454  0.4059
 9111TIP3    H127294   0.947   6.125   1.643  0.1098 -0.0357 -0.4950
 9111TIP3    H227295   0.822   6.146   1.725  0.8694 -0.7701  0.8748
 9112TIP3   OH227296   6.048   2.449   4.826 -0.1361  0.1385 -0.1933
 9112TIP3    H127297   6.078   2.519   4.885 -0.7545 -0.2325  0.5689
 9112TIP3    H227298   6.012   2.495   4.750  0.4713  0.6248 -0.1892
 9113TIP3   OH227299   4.406   2.945   6.268  0.0393 -0.4384  0.4987
 9113TIP3    H127300   4.450   2.947   6.353  0.7090 -2.3161  0.2186
 9113TIP3    H227301   4.396   2.852   6.249 -2.3915 -0.0209 -0.3152
 9114TIP3   OH227302   2.659   3.259   6.242  0.1955  0.1451 -0.3582
 9114TIP3    H127303   2.604   3.277   6.166 -0.0890  0.6679 -0.0338
 9114TIP3    H227304   2.651   3.165   6.257  1.5148 -0.2327 -1.9371
 9115TIP3   OH227305   7.770   0.282   1.582 -0.3805 -0.2667  0.3304
 9115TIP3    H127306   7.700   0.263   1.644 -0.7773 -1.8138 -0.5560
 9115TIP3    H227307   7.725   0.298   1.499  0.2737 -0.6124 -0.0990
 9116TIP3   OH227308   3.013   3.383   5.037 -0.2697 -0.3846 -0.0138
 9116TIP3    H127309   3.001   3.377   4.942 -1.3169 -1.0166  0.1468
 9116TIP3    H227310   2.944   3.328   5.073 -1.2253  1.5865  1.1914
 9117TIP3   OH227311   5.868   3.564   5.142 -0.3899 -0.4759  0.4571
 9117TIP3    H127312   5.839   3.548   5.053  1.7080 -4.0023  0.3280
 9117TIP3    H227313   5.917   3.646   5.137 -0.6376 -0.4307 -1.5317
 9118TIP3   OH227314   6.592   6.289   2.996 -0.3793  0.2264 -0.7753
 9118TIP3    H127315   6.529   6.356   2.972  0.4069  1.4574  0.4952
 9118TIP3    H227316   6.662   6.337   3.041  1.1785 -1.1748 -1.6252
 9119TIP3   OH227317   6.888   3.746   4.045 -0.2427  0.0648  0.3379
 9119TIP3    H127318   6.862   3.710   4.130 -0.2487  0.6807  0.5990
 9119TIP3    H227319   6.945   3.820   4.067  1.1297 -0.8084 -0.2181
 9120TIP3   OH227320   4.528   2.865   4.630  0.2556 -0.8850  0.0925
 9120TIP3    H127321   4.570   2.826   4.554 -1.6012 -1.4333 -0.6975
 9120TIP3    H227322   4.461   2.923   4.594 -0.2749 -0.7119  1.2995
 9121TIP3   OH227323   5.383   1.541   5.733  0.2114 -0.2281  0.9858
 9121TIP3    H127324   5.454   1.597   5.764 -0.3551  0.0883  1.7335
 9121TIP3    H227325   5.333   1.520   5.812 -0.3345 -0.7091  0.5141
 9122TIP3   OH227326   2.866   4.422   6.212  0.6795  0.0998  0.3071
 9122TIP3    H127327   2.934   4.414   6.145 -0.5603  1.3115 -1.1153
 9122TIP3    H227328   2.883   4.507   6.253 -0.9813  1.2101 -1.2230
 9123TIP3   OH227329   4.100   2.278   5.030 -0.1415 -0.3800  0.0066
 9123TIP3    H127330   4.072   2.191   5.060 -0.4335 -0.8533 -1.5975
 9123TIP3    H227331   4.171   2.302   5.089  0.4618 -2.0583 -0.0115
 9124TIP3   OH227332   6.062   3.269   4.988  0.2876  0.1783 -0.1130
 9124TIP3    H127333   6.010   3.264   5.067  1.4001 -0.0330  0.6221
 9124TIP3    H227334   6.000   3.295   4.919 -0.6195  0.6227  0.8657
 9125TIP3   OH227335   3.930   3.256   5.395  0.1019 -0.5996 -0.3064
 9125TIP3    H127336   3.989   3.281   5.324 -0.7972 -2.0430 -1.5941
 9125TIP3    H227337   3.968   3.176   5.431 -0.6402 -1.1104 -0.6392
 9126TIP3   OH227338  -0.015   5.970   1.488  0.0187 -0.7438  0.1605
 9126TIP3    H127339  -0.004   6.007   1.575 -0.0019 -0.0262 -0.1388
 9126TIP3    H227340   0.062   6.000   1.439 -0.0113 -1.0716 -0.0943
 9127TIP3   OH227341   0.295   7.205   0.493 -0.1212 -0.7482  0.0090
 9127TIP3    H127342   0.347   7.286   0.500  0.6630 -1.1884 -0.6244
 9127TIP3    H227343   0.292   7.172   0.582  1.9884 -1.4962 -0.1525
 9128TIP3   OH227344   2.634   4.871   0.207  0.0692 -0.0175 -0.3423
 9128TIP3    H127345   2.640   4.966   0.210  1.1677 -0.0865 -0.1841
 9128TIP3    H227346   2.608   4.851   0.116 -0.5559  0.4412 -0.2663
 9129TIP3   OH227347   4.953   2.624   5.231 -0.2280 -0.1304  0.2797
 9129TIP3    H127348   4.883   2.686   5.248 -1.6711 -1.9497  1.2473
 9129TIP3    H227349   4.992   2.607   5.317 -0.4152 -1.1957  0.1688
 9130TIP3   OH227350   6.424   3.361   5.276  0.1462  0.0757  0.2843
 9130TIP3    H127351   6.410   3.452   5.252  2.3656 -0.1384 -2.1505
 9130TIP3    H227352   6.505   3.337   5.231  1.0903 -2.3030  3.1323
 9131TIP3   OH227353   4.006   2.874   6.011 -0.6233 -0.3756 -0.4523
 9131TIP3    H127354   3.983   2.879   6.104  1.0115 -1.7919  0.0543
 9131TIP3    H227355   3.929   2.835   5.969 -1.2576  0.0094  0.3445
 9132TIP3   OH227356   7.303   7.235   2.043 -0.0945  0.8811 -0.2331
 9132TIP3    H127357   7.388   7.192   2.039 -0.2555  0.5487 -0.1520
 9132TIP3    H227358   7.322   7.329   2.035  0.4601  0.9550  1.6871
 9133TIP3   OH227359   1.103   4.772   0.623  0.3406 -0.2099  0.1715
 9133TIP3    H127360   1.059   4.771   0.538  0.2363 -0.8778  0.2354
 9133TIP3    H227361   1.188   4.730   0.606  1.0227  1.1887  0.0156
 9134TIP3   OH227362   7.040   2.728   3.524 -0.2191  0.1379 -0.6400
 9134TIP3    H127363   6.985   2.653   3.502  1.1254 -0.8582 -0.6405
 9134TIP3    H227364   7.037   2.733   3.619 -0.0018 -0.1489 -0.6190
 9135TIP3   OH227365   3.785   0.724   4.589  0.1486  0.3280 -0.0949
 9135TIP3    H127366   3.789   0.733   4.684  1.6419 -0.2556 -0.0962
 9135TIP3    H227367   3.695   0.698   4.571 -0.3878  1.3385  1.0814
 9136TIP3   OH227368   6.702   5.355   1.960 -0.5772 -0.2605 -0.0020
 9136TIP3    H127369   6.706   5.418   1.888 -1.5626  1.2646  1.2334
 9136TIP3    H227370   6.627   5.299   1.938  0.2958 -1.0133 -1.1009
 9137TIP3   OH227371   6.140   6.801   1.053  0.0335  0.2299  0.3011
 9137TIP3    H127372   6.087   6.776   0.977  1.1699  1.6301 -0.9852
 9137TIP3    H227373   6.217   6.745   1.048  0.0521  0.2363  0.4978
 9138TIP3   OH227374   2.643   7.009   0.343 -0.0264 -0.7290  0.1478
 9138TIP3    H127375   2.655   6.936   0.282  0.9764 -1.1093  0.7922
 9138TIP3    H227376   2.549   7.010   0.362 -0.3105 -0.7669 -1.1993
 9139TIP3   OH227377   5.289   1.178   4.482  0.8827 -0.1114  0.0606
 9139TIP3    H127378   5.266   1.092   4.518  2.6231 -0.9330 -0.7267
 9139TIP3    H227379   5.205   1.215   4.454 -0.0971 -0.8275  1.9282
 9140TIP3   OH227380   5.981   4.759   5.097 -0.3301  0.1778 -0.1089
 9140TIP3    H127381   5.918   4.738   5.166 -0.8071  1.5865 -0.1073
 9140TIP3    H227382   6.055   4.700   5.113 -0.5364  0.3408  1.4583
 9141TIP3   OH227383   7.267   5.802   1.022 -0.1712 -0.3938 -0.0296
 9141TIP3    H127384   7.227   5.844   1.098  0.2048  2.4432 -1.3264
 9141TIP3    H227385   7.348   5.852   1.006  1.6174 -3.1871 -0.1687
 9142TIP3   OH227386   4.318   6.370   5.821  0.5083 -0.0512 -0.1163
 9142TIP3    H127387   4.372   6.327   5.887 -0.7784  1.2748  1.8413
 9142TIP3    H227388   4.250   6.306   5.801  0.4909 -0.1844  0.3614
 9143TIP3   OH227389   5.449   4.908   4.499 -0.0106 -0.0628 -0.1960
 9143TIP3    H127390   5.406   4.980   4.454 -1.6330 -1.0741 -0.2885
 9143TIP3    H227391   5.467   4.843   4.431  1.3005  0.1587 -0.0855
 9144TIP3   OH227392   6.043   3.885   6.086  0.3635 -0.0263  0.1757
 9144TIP3    H127393   6.059   3.809   6.142 -0.1867 -0.8832 -0.8095
 9144TIP3    H227394   5.958   3.918   6.114 -0.2055 -0.8336 -0.5527
 9145TIP3   OH227395   5.688   2.867   4.669  0.2367  0.6921 -0.7158
 9145TIP3    H127396   5.595   2.879   4.651 -0.0976  0.3162  0.7470
 9145TIP3    H227397   5.730   2.875   4.583 -1.1799  0.4469 -1.4457
 9146TIP3   OH227398   1.291   6.128   1.610 -0.5457  0.1757 -0.3615
 9146TIP3    H127399   1.244   6.210   1.620 -0.5377  0.1548 -0.1276
 9146TIP3    H227400   1.265   6.095   1.525 -0.4200  0.5033 -0.5266
 9147TIP3   OH227401   5.307   6.935   1.408  0.6757  0.1742  0.9475
 9147TIP3    H127402   5.331   7.015   1.362 -0.0600  0.8017  1.6517
 9147TIP3    H227403   5.311   6.867   1.340  2.2265  0.6256  0.5509
 9148TIP3   OH227404   3.016   4.467   5.263  0.1014 -0.3858 -0.0461
 9148TIP3    H127405   3.093   4.508   5.303 -0.0104 -0.3489  0.1285
 9148TIP3    H227406   3.047   4.439   5.177  0.1327  0.2169 -0.2332
 9149TIP3   OH227407   5.491   5.735   5.219 -0.1325  0.2804  0.1027
 9149TIP3    H127408   5.416   5.677   5.205 -0.2395  1.0156 -2.5038
 9149TIP3    H227409   5.474   5.775   5.305 -0.4089 -2.9552  1.6263
 9150TIP3   OH227410   3.207   5.149   6.320 -0.1011  0.5866 -0.0673
 9150TIP3    H127411   3.185   5.240   6.302  1.6189  0.5896 -2.3221
 9150TIP3    H227412   3.140   5.121   6.383 -3.1204  2.2306 -2.3596
 9151TIP3   OH227413   6.886   4.754   5.511 -0.0812 -0.1136  0.4867
 9151TIP3    H127414   6.792   4.764   5.526  0.1273 -0.8125  2.4736
 9151TIP3    H227415   6.927   4.815   5.573  0.7746  1.0778 -1.2047
 9152TIP3   OH227416   4.734   5.223   5.603 -0.7560  0.0227 -0.2092
 9152TIP3    H127417   4.688   5.273   5.535 -0.3449  1.6986  0.7161
 9152TIP3    H227418   4.679   5.233   5.681  1.1255  1.9970  0.8972
 9153TIP3   OH227419   3.387   5.317   5.709 -0.5393 -0.2507 -0.1508
 9153TIP3    H127420   3.365   5.337   5.800  1.3318  0.1112  0.2538
 9153TIP3    H227421   3.428   5.397   5.676  1.3554 -1.3165 -0.4359
 9154TIP3   OH227422   3.758   5.333   4.228 -0.3684  0.3999 -0.2277
 9154TIP3    H127423   3.786   5.279   4.301  1.4563  0.2411 -1.0361
 9154TIP3    H227424   3.748   5.272   4.154  3.3306  1.3084 -1.5928
 9155TIP3   OH227425   5.785   1.949   4.907 -0.3299  0.2271  0.5798
 9155TIP3    H127426   5.841   2.006   4.960  0.5015 -0.8023  0.8133
 9155TIP3    H227427   5.836   1.934   4.827 -0.6390 -0.0128  0.4297
 9156TIP3   OH227428   7.183   2.267   4.402 -0.1942  0.2580  0.0142
 9156TIP3    H127429   7.136   2.346   4.429  0.2138  0.4439  0.1866
 9156TIP3    H227430   7.159   2.201   4.467 -0.5227  0.2418 -0.1211
 9157TIP3   OH227431   2.236   0.186   0.262  0.6199  0.0900 -0.1811
 9157TIP3    H127432   2.276   0.100   0.273 -1.6578 -0.8697  0.8807
 9157TIP3    H227433   2.267   0.237   0.337 -0.4817 -0.7836  0.8786
 9158TIP3   OH227434   7.067   5.569   2.430 -0.4515  0.7362  0.5321
 9158TIP3    H127435   7.072   5.477   2.403 -0.4421  1.0282 -0.4827
 9158TIP3    H227436   7.054   5.617   2.348 -0.9747  1.5988  1.1142
 9159TIP3   OH227437   6.439   5.297   0.239 -0.1842 -0.5194  0.1519
 9159TIP3    H127438   6.519   5.244   0.239 -1.3728 -2.3688 -0.7552
 9159TIP3    H227439   6.376   5.245   0.290 -0.8693  0.8461  0.7217
 9160TIP3   OH227440   0.279   6.679   0.105 -0.7096  0.0184  0.0787
 9160TIP3    H127441   0.277   6.756   0.048  1.0703  1.3095  1.7082
 9160TIP3    H227442   0.362   6.636   0.084 -0.4237  0.0585  1.1283
 9161TIP3   OH227443   5.996   1.644   6.293  0.1380  0.3685 -0.1478
 9161TIP3    H127444   5.956   1.643   6.206 -0.0917  2.2936 -0.0828
 9161TIP3    H227445   6.029   1.733   6.304  2.3059 -0.4877  0.7885
 9162TIP3   OH227446   6.618   1.451   4.913  0.0926 -0.2922  0.8052
 9162TIP3    H127447   6.596   1.530   4.863 -1.8990 -0.6578  1.0482
 9162TIP3    H227448   6.713   1.451   4.918  0.1521  1.6190  0.0246
 9163TIP3   OH227449   5.436   4.948   4.088  0.1750 -0.2463  0.3810
 9163TIP3    H127450   5.459   4.886   4.157  2.3920 -0.2971 -0.3765
 9163TIP3    H227451   5.514   4.953   4.032 -1.0934  0.8046 -1.3710
 9164TIP3   OH227452   0.562   5.500   0.195 -0.4777  0.1177 -0.2034
 9164TIP3    H127453   0.570   5.562   0.122 -1.0289 -1.5237 -1.7025
 9164TIP3    H227454   0.651   5.490   0.228  0.0244 -0.1831 -1.5846
 9165TIP3   OH227455   5.947   3.910   4.703  0.1630  0.0599 -0.2233
 9165TIP3    H127456   6.007   3.837   4.690 -0.2721 -0.3141 -0.1535
 9165TIP3    H227457   5.861   3.874   4.684 -0.2508  0.0756  1.5514
 9166TIP3   OH227458   3.706   4.876   5.507 -0.1845  0.3779 -0.6833
 9166TIP3    H127459   3.689   4.948   5.446 -0.9813 -1.0097 -2.1193
 9166TIP3    H227460   3.732   4.803   5.452 -0.9998 -0.9349  0.6235
 9167TIP3   OH227461   5.836   3.952   3.180  0.0212  0.1642  0.3515
 9167TIP3    H127462   5.806   4.036   3.214  0.7770  0.3791  0.4968
 9167TIP3    H227463   5.765   3.891   3.202 -1.4721  1.1430 -1.5416
 9168TIP3   OH227464   7.743   5.851   1.100  0.5111  0.4419 -0.2190
 9168TIP3    H127465   7.813   5.896   1.054  0.1509  2.2339  0.9620
 9168TIP3    H227466   7.777   5.763   1.116  2.5238  1.3319  0.4332
 9169TIP3   OH227467   7.277   6.553   1.714 -0.0126  0.1832  0.3022
 9169TIP3    H127468   7.257   6.647   1.707 -0.6305 -0.0018 -0.6160
 9169TIP3    H227469   7.368   6.550   1.744  0.5902  1.1091 -1.3122
 9170TIP3   OH227470   5.782   7.366   0.670 -0.4192  0.0722 -0.0380
 9170TIP3    H127471   5.718   7.313   0.624 -1.2612  1.8839 -0.9943
 9170TIP3    H227472   5.858   7.309   0.679 -1.8485 -1.8225  0.3822
 9171TIP3   OH227473   5.925   3.726   5.493  0.4858  0.3024  0.6123
 9171TIP3    H127474   5.928   3.727   5.397 -1.3721  1.0682  0.5406
 9171TIP3    H227475   5.939   3.818   5.518  1.5358  0.0087  1.0923
 9172TIP3   OH227476   4.561   1.352   5.510  0.1044  0.3260 -0.1257
 9172TIP3    H127477   4.506   1.277   5.534  0.0581  0.8963  1.6069
 9172TIP3    H227478   4.538   1.370   5.419 -1.9759  0.0368  0.3095
 9173TIP3   OH227479   0.082   4.412   5.952 -0.0594 -0.0182  0.1945
 9173TIP3    H127480   0.175   4.416   5.933 -0.1797  1.1752 -0.2197
 9173TIP3    H227481   0.040   4.405   5.867 -0.2759 -2.4209  0.4834
 9174TIP3   OH227482   2.378   6.704   1.366  0.3125 -0.3437 -0.2567
 9174TIP3    H127483   2.350   6.772   1.428 -2.0550 -0.2783 -1.3534
 9174TIP3    H227484   2.435   6.750   1.304  3.2179 -0.5297  2.1597
 9175TIP3   OH227485   5.964   2.720   6.050 -0.2345  0.4183 -0.5324
 9175TIP3    H127486   5.902   2.648   6.042 -1.1153  1.1786 -0.6090
 9175TIP3    H227487   5.969   2.758   5.963  0.1270  0.5435 -0.4606
 9176TIP3   OH227488   4.891   0.818  -0.008 -0.0099  0.1136 -0.4864
 9176TIP3    H127489   4.982   0.844  -0.019 -0.0155 -0.0245 -0.8462
 9176TIP3    H227490   4.849   0.895   0.031  0.0018  0.6201 -1.4629
 9177TIP3   OH227491   6.022   3.162   5.607 -0.5584  0.5635  0.2108
 9177TIP3    H127492   6.017   3.250   5.568 -0.9520  0.2031 -0.5620
 9177TIP3    H227493   6.040   3.104   5.533 -1.6972 -0.1824  0.5102
 9178TIP3   OH227494   5.735   1.669   5.129  0.0297 -0.6001 -0.1713
 9178TIP3    H127495   5.775   1.720   5.199  0.9776 -1.4301 -0.0874
 9178TIP3    H227496   5.793   1.681   5.053 -0.6677 -0.1768 -0.6368
 9179TIP3   OH227497   4.485   3.498   5.191 -0.2573 -0.8213 -0.2972
 9179TIP3    H127498   4.400   3.466   5.221  0.8023 -4.7005 -1.1324
 9179TIP3    H227499   4.527   3.533   5.269 -2.6592  1.3824  0.0744
 9180TIP3   OH227500   0.838   4.031   6.290 -0.1010 -0.1042  0.4439
 9180TIP3    H127501   0.921   4.005   6.249  1.2667  1.2209  2.3365
 9180TIP3    H227502   0.814   3.956   6.345 -0.3742 -0.6432 -0.3976
 9181TIP3   OH227503   1.814   4.402   5.464  0.3517  0.1059  0.2720
 9181TIP3    H127504   1.786   4.311   5.472  0.1041  0.1892  0.3526
 9181TIP3    H227505   1.737   4.448   5.431  0.1652  0.4678  1.1929
 9182TIP3   OH227506   0.365   4.453   5.906 -0.7467  0.5318  0.1678
 9182TIP3    H127507   0.406   4.416   5.984 -1.0448  0.9733  0.5392
 9182TIP3    H227508   0.417   4.420   5.833  0.7742  1.7555  0.6806
 9183TIP3   OH227509   7.225   2.435   3.493  0.3546 -0.4646  0.2758
 9183TIP3    H127510   7.143   2.481   3.510  1.7667  2.5584 -0.8433
 9183TIP3    H227511   7.199   2.344   3.479 -2.9201  0.6196 -1.0276
 9184TIP3   OH227512   7.718   4.095   5.509  0.0474 -0.0719  0.1294
 9184TIP3    H127513   7.665   4.016   5.510  1.9857 -1.4181  0.6146
 9184TIP3    H227514   7.681   4.150   5.577 -1.1264 -0.6952  0.0034
 9185TIP3   OH227515   7.452   0.756   5.164  0.2478 -0.0221  0.2109
 9185TIP3    H127516   7.454   0.763   5.069  2.0830  0.0857  0.2229
 9185TIP3    H227517   7.419   0.668   5.182 -0.0945 -0.0452 -0.5277
 9186TIP3   OH227518   5.745   3.499   5.797  0.6892  0.0365  0.0066
 9186TIP3    H127519   5.698   3.465   5.720  1.5723  0.0229 -0.5440
 9186TIP3    H227520   5.772   3.587   5.771  0.9522  0.0479  0.3164
 9187TIP3   OH227521   1.823   2.520   2.889  0.1395 -0.4641 -0.3122
 9187TIP3    H127522   1.907   2.563   2.879  0.5374 -0.3558  3.1643
 9187TIP3    H227523   1.844   2.434   2.925 -1.2182 -0.5647  0.2739
 9188TIP3   OH227524   5.245   1.226   5.072  0.5434 -0.4366  0.4696
 9188TIP3    H127525   5.296   1.264   5.143  0.6068 -0.7298  0.5827
 9188TIP3    H227526   5.200   1.300   5.032  1.2879 -0.1282  0.1795
 9189TIP3   OH227527   1.023   3.332   5.324 -0.3131  0.1207 -0.0570
 9189TIP3    H127528   1.038   3.370   5.411  2.7977  0.0782 -0.5455
 9189TIP3    H227529   1.039   3.238   5.335 -0.9411 -0.0399 -0.4616
 9190TIP3   OH227530   6.582   1.671   4.767  0.7199 -0.5243 -0.5856
 9190TIP3    H127531   6.517   1.680   4.698  2.9390 -1.0568 -2.8020
 9190TIP3    H227532   6.620   1.758   4.777 -0.1070 -0.2784  0.5014
 9191TIP3   OH227533   0.586   1.785   5.030 -0.3933  0.2320  0.3178
 9191TIP3    H127534   0.649   1.843   5.073 -0.0669  0.3577 -0.3233
 9191TIP3    H227535   0.569   1.827   4.946  1.2209 -1.5565 -0.9115
 9192TIP3   OH227536   4.706   2.038   5.116  0.6423  0.4224  0.4044
 9192TIP3    H127537   4.680   2.119   5.161 -0.6872 -0.2358  0.8504
 9192TIP3    H227538   4.757   1.990   5.181  0.7016  0.5238  0.4326
 9193TIP3   OH227539   5.278   1.922   5.462 -0.2630  0.3779  0.5179
 9193TIP3    H127540   5.327   1.994   5.501  0.0322  0.1069  0.6451
 9193TIP3    H227541   5.342   1.851   5.451 -0.5182  0.1831  0.2628
 9194TIP3   OH227542   6.484   2.836   5.393  0.3065  0.1207  0.6982
 9194TIP3    H127543   6.537   2.877   5.460 -0.8399  1.0552  1.0557
 9194TIP3    H227544   6.400   2.819   5.435 -0.0029 -0.4513 -0.1244
 9195TIP3   OH227545   3.487   6.807   1.496  0.0262  0.3013 -0.0738
 9195TIP3    H127546   3.516   6.796   1.586 -3.0135  0.6489  1.0037
 9195TIP3    H227547   3.473   6.718   1.464  0.0271  0.2133  0.1719
 9196TIP3   OH227548   1.235   2.158   4.730  0.4595  1.0468  0.2524
 9196TIP3    H127549   1.269   2.073   4.756 -0.6242  0.4593 -0.2049
 9196TIP3    H227550   1.275   2.220   4.791 -0.9409 -0.1266  2.4370
 9197TIP3   OH227551   0.383   0.359   3.731 -0.5618  0.1846 -0.0788
 9197TIP3    H127552   0.382   0.409   3.813 -0.6984 -0.9880  0.6377
 9197TIP3    H227553   0.469   0.317   3.729 -0.4517  0.4287 -0.6786
 9198TIP3   OH227554   6.714   3.911   3.321 -0.4202 -0.2640  0.2646
 9198TIP3    H127555   6.808   3.923   3.337 -0.2153  0.3277 -1.2979
 9198TIP3    H227556   6.679   3.999   3.311 -1.0155 -0.5071  0.1566
 9199TIP3   OH227557   5.438   0.591   2.487  0.4046  0.0145 -0.0599
 9199TIP3    H127558   5.471   0.506   2.516  1.2758  0.2731 -0.2590
 9199TIP3    H227559   5.466   0.597   2.395  0.3149  0.4991 -0.0566
 9200TIP3   OH227560   6.736   3.330   6.316 -0.5608  0.1175 -0.2712
 9200TIP3    H127561   6.799   3.402   6.326 -1.1734  0.4397  1.3085
 9200TIP3    H227562   6.650   3.372   6.317 -0.9760 -0.7218  1.7193
 9201TIP3   OH227563   0.791   2.569   6.204  0.0262 -0.1540 -0.2533
 9201TIP3    H127564   0.707   2.533   6.233 -0.1587  0.9050  0.5636
 9201TIP3    H227565   0.856   2.503   6.229 -0.2990  0.0907  1.2811
 9202TIP3   OH227566   1.692   2.382   4.778  0.5857  0.2652  0.6572
 9202TIP3    H127567   1.695   2.306   4.836  1.6297 -1.1479 -1.1781
 9202TIP3    H227568   1.709   2.457   4.835  1.1483 -1.0372  2.2268
 9203TIP3   OH227569   5.698   3.541   5.376 -0.1029 -0.2391  0.1282
 9203TIP3    H127570   5.776   3.543   5.320 -0.4313  0.5709 -0.3088
 9203TIP3    H227571   5.627   3.515   5.317 -0.2717 -0.3892  0.3953
 9204TIP3   OH227572   1.110   4.733   5.450 -0.5454 -0.6903  0.9970
 9204TIP3    H127573   1.187   4.741   5.506  0.5307 -1.1574 -0.3682
 9204TIP3    H227574   1.045   4.791   5.489  0.8567  0.5127  1.5732
 9205TIP3   OH227575   6.531   2.563   4.785 -0.3271  0.3680 -0.1744
 9205TIP3    H127576   6.499   2.643   4.828  0.4786 -0.1866  1.5002
 9205TIP3    H227577   6.481   2.492   4.824  0.4798 -0.1553 -0.0620
 9206TIP3   OH227578   4.441   3.342   4.572  0.2084  0.6302 -0.2267
 9206TIP3    H127579   4.420   3.432   4.595  1.2671  0.0096  3.4357
 9206TIP3    H227580   4.377   3.289   4.620  1.4909 -0.6856  0.0832
 9207TIP3   OH227581   7.282   4.638   5.484 -0.5246 -0.0706  0.4336
 9207TIP3    H127582   7.307   4.629   5.576  0.9509 -1.2289 -0.0445
 9207TIP3    H227583   7.344   4.703   5.449 -0.5499 -0.2336  0.0812
 9208TIP3   OH227584   7.146   5.491   5.460  0.1457 -0.2577 -0.1629
 9208TIP3    H127585   7.101   5.538   5.530  0.1616 -0.0388 -0.2998
 9208TIP3    H227586   7.230   5.537   5.450 -0.0038 -0.0759 -0.5649
 9209TIP3   OH227587   6.456   3.455   5.878  0.3559  0.8699 -0.0124
 9209TIP3    H127588   6.434   3.470   5.786  0.8412  1.4708 -0.0317
 9209TIP3    H227589   6.423   3.532   5.923 -0.8096  0.1089  0.4768
 9210TIP3   OH227590   5.217   3.384   5.708 -0.3456 -0.2629 -0.1119
 9210TIP3    H127591   5.212   3.472   5.745 -0.0441  0.1457 -1.0168
 9210TIP3    H227592   5.163   3.389   5.628 -0.3137 -0.8923 -0.1763
 9211TIP3   OH227593   0.791   2.607   5.918 -0.4786 -0.5966 -0.4961
 9211TIP3    H127594   0.779   2.596   6.012  0.5963 -1.3315 -0.4295
 9211TIP3    H227595   0.703   2.612   5.882 -0.8986  0.1496  0.5980
 9212TIP3   OH227596   6.739   3.398   5.961 -0.1502 -0.0785  0.2378
 9212TIP3    H127597   6.692   3.450   5.896 -0.6210  0.2714  0.8470
 9212TIP3    H227598   6.697   3.313   5.960  0.3790 -0.3311 -0.4987
 9213TIP3   OH227599   0.919   0.137   5.461  0.0972  0.0867  0.1529
 9213TIP3    H127600   1.006   0.098   5.458  1.1895  2.3960  0.6281
 9213TIP3    H227601   0.881   0.117   5.375  0.2331 -2.8053  0.7439
 9214TIP3   OH227602   1.036   1.565   3.687  0.0893  0.2670  0.2673
 9214TIP3    H127603   1.086   1.536   3.611  0.8040  0.9796  0.4558
 9214TIP3    H227604   0.999   1.485   3.724  0.8113 -0.2270 -0.0741
 9215TIP3   OH227605   6.994   3.470   6.379  0.0390  0.0006 -0.3059
 9215TIP3    H127606   7.080   3.469   6.339  0.4562 -0.7621  0.5775
 9215TIP3    H227607   6.942   3.529   6.325  1.2167  0.7531 -0.6243
 9216TIP3   OH227608   0.079   3.213   4.415  0.7217  0.4310 -0.5381
 9216TIP3    H127609   0.025   3.195   4.492  1.5159  2.3177  0.4847
 9216TIP3    H227610   0.022   3.262   4.357  0.8576  1.0830 -0.1220
 9217TIP3   OH227611   2.895   0.141   0.448  0.6707  0.6221  0.7224
 9217TIP3    H127612   2.897   0.143   0.353  1.5878  1.7950  0.7510
 9217TIP3    H227613   2.806   0.171   0.471  0.9934  1.9466  0.2617
 9218TIP3   OH227614   5.280   2.695   5.774 -0.2415  0.1506 -0.6355
 9218TIP3    H127615   5.300   2.649   5.693  0.9796  0.8599 -0.7418
 9218TIP3    H227616   5.306   2.786   5.758 -1.2406  0.5881  0.0870
 9219TIP3   OH227617   5.987   5.689   5.841  0.4745 -0.0520  0.2479
 9219TIP3    H127618   6.021   5.698   5.930  0.1078 -1.5780  0.5497
 9219TIP3    H227619   5.895   5.665   5.853  0.7522 -1.5289 -0.5255
 9220TIP3   OH227620   7.542   3.299   5.813  0.0075  0.3115 -0.3925
 9220TIP3    H127621   7.531   3.389   5.844 -0.2466  0.8022 -1.9033
 9220TIP3    H227622   7.454   3.261   5.818 -0.1464  0.5755 -1.0902
 9221TIP3   OH227623   7.220   4.752   4.179 -0.6022  0.0727  0.6904
 9221TIP3    H127624   7.269   4.834   4.190 -0.8555  0.2982  0.1310
 9221TIP3    H227625   7.283   4.690   4.143 -0.5589  0.1795  0.5822
 9222TIP3   OH227626   5.713   2.570   5.287 -0.0305  0.4443 -0.7992
 9222TIP3    H127627   5.719   2.628   5.363  0.1701  0.5424 -0.8897
 9222TIP3    H227628   5.640   2.606   5.236  0.5549  1.0401 -1.2130
 9223TIP3   OH227629   4.865   3.412   5.442  0.4477  0.2366  0.3401
 9223TIP3    H127630   4.882   3.429   5.349  2.3872 -2.6453  0.1254
 9223TIP3    H227631   4.907   3.486   5.487  0.2744  1.1791 -0.9937
 9224TIP3   OH227632   0.927   2.978   4.821 -0.4756  0.0577 -0.1403
 9224TIP3    H127633   0.942   2.987   4.916 -0.0748  2.2060 -0.3715
 9224TIP3    H227634   0.857   2.913   4.813  0.0952 -0.8014  1.5839
 9225TIP3   OH227635   0.854   1.783   4.662 -0.2424 -0.0220  0.3737
 9225TIP3    H127636   0.910   1.710   4.636 -2.4405 -2.3572  1.8665
 9225TIP3    H227637   0.820   1.818   4.580  1.3226 -0.2412 -0.3932
 9226TIP3   OH227638   2.555   0.385   1.110 -0.1909  0.2642  0.0059
 9226TIP3    H127639   2.465   0.360   1.092  0.2420  0.9885 -3.4635
 9226TIP3    H227640   2.550   0.440   1.188 -2.5325 -0.9879  0.7664
 9227TIP3   OH227641   0.155   3.483   5.413 -0.2958  0.0321  0.2179
 9227TIP3    H127642   0.157   3.556   5.474  1.4189  0.1049  0.1129
 9227TIP3    H227643   0.214   3.418   5.452 -0.6901 -0.7068 -0.4033
 9228TIP3   OH227644   2.396   6.988   0.431 -0.0781 -0.2139 -0.5663
 9228TIP3    H127645   2.406   6.966   0.524 -2.6197  1.9487  0.3100
 9228TIP3    H227646   2.324   6.933   0.401  1.3042 -1.5367 -1.5254
 9229TIP3   OH227647   1.245   4.087   5.365 -0.8696  0.4235  0.0821
 9229TIP3    H127648   1.244   4.151   5.294 -0.7265 -0.6589 -0.9237
 9229TIP3    H227649   1.174   4.026   5.343 -0.2695 -0.4064  0.4144
 9230TIP3   OH227650   6.071   2.190   4.738 -0.0775  0.3077 -0.2313
 9230TIP3    H127651   6.025   2.178   4.656  0.5442 -3.4854 -0.0874
 9230TIP3    H227652   6.047   2.279   4.766 -3.7227  0.0537 -2.3059
 9231TIP3   OH227653   7.548   2.925   3.836 -0.1109 -0.4278 -0.0901
 9231TIP3    H127654   7.557   2.907   3.742  1.1513  0.5200 -0.1654
 9231TIP3    H227655   7.637   2.927   3.869 -0.4094  1.5030  0.6877
 9232TIP3   OH227656   1.024   2.821   5.093  0.4776 -0.0592  0.7429
 9232TIP3    H127657   1.066   2.792   5.174  0.2175 -1.3062  0.4413
 9232TIP3    H227658   1.063   2.766   5.025  1.0683  1.3311 -0.0527
 9233TIP3   OH227659   0.210   3.867   5.267  0.4874  0.1751 -0.3679
 9233TIP3    H127660   0.230   3.950   5.311  0.6558  0.4555 -0.9661
 9233TIP3    H227661   0.174   3.893   5.183  0.7320 -0.3701 -0.6424
 9234TIP3   OH227662   1.024   5.402   0.203 -0.3339  0.3657 -0.5271
 9234TIP3    H127663   0.972   5.474   0.238 -1.3510 -0.7009  0.1671
 9234TIP3    H227664   1.110   5.441   0.187 -0.2818  1.2683  1.7108
 9235TIP3   OH227665   5.263   0.824   0.056  0.4616  0.1684 -0.1279
 9235TIP3    H127666   5.326   0.779   0.112 -1.0202  0.6672  1.9712
 9235TIP3    H227667   5.239   0.759  -0.010 -1.6505 -2.2402  2.8643
 9236TIP3   OH227668   5.415   3.596   5.282 -0.0105  0.0070 -0.2487
 9236TIP3    H127669   5.468   3.650   5.341 -3.1475  1.4871  1.3385
 9236TIP3    H227670   5.353   3.658   5.244 -1.9902 -2.0382 -0.4129
 9237TIP3   OH227671   7.419   2.163   4.685 -0.1580 -0.2009 -0.5606
 9237TIP3    H127672   7.419   2.253   4.652 -1.3009 -0.0390 -0.1484
 9237TIP3    H227673   7.490   2.161   4.749 -0.2392  0.4491 -0.4473
 9238TIP3   OH227674   7.511   3.310   4.855  0.2581  0.3909 -0.3209
 9238TIP3    H127675   7.554   3.385   4.814  0.8375  0.2635  0.0498
 9238TIP3    H227676   7.582   3.260   4.895  0.4000 -2.6316 -4.0901
 9239TIP3   OH227677   7.182   2.979   5.452 -0.2426  0.1501  0.5407
 9239TIP3    H127678   7.199   3.054   5.395 -1.1499  1.1436  1.5406
 9239TIP3    H227679   7.184   3.015   5.540 -1.0917 -0.9251  1.0141
 9240TIP3   OH227680   6.342   1.620   6.343 -0.0234 -0.7416 -0.0838
 9240TIP3    H127681   6.300   1.644   6.425  1.7487 -0.3691  0.7352
 9240TIP3    H227682   6.297   1.671   6.276 -1.1381 -0.6753  0.7167
 9241TIP3   OH227683   1.044   4.003   3.827 -0.4230 -0.7519 -0.7268
 9241TIP3    H127684   1.097   3.973   3.900 -0.7112  0.4378 -0.0147
 9241TIP3    H227685   1.018   4.092   3.851  0.0988 -0.0654 -2.5955
 9242TIP3   OH227686   4.678   1.396   0.680 -0.3696 -0.5345  0.1411
 9242TIP3    H127687   4.692   1.302   0.669 -0.2471 -0.5960  0.7941
 9242TIP3    H227688   4.746   1.424   0.741 -0.8737 -0.1685  0.5500
 9243TIP3   OH227689   5.970   3.451   5.545 -0.2593  0.0618 -0.4078
 9243TIP3    H127690   5.943   3.542   5.539  0.3265  0.2251 -0.5783
 9243TIP3    H227691   5.953   3.415   5.458 -0.1610  0.0972 -0.4410
 9244TIP3   OH227692   7.399   1.770   5.981 -0.2509  0.1942  0.1382
 9244TIP3    H127693   7.385   1.676   5.993  0.1280  0.2304  0.8665
 9244TIP3    H227694   7.453   1.776   5.902  0.0416 -0.2225  0.3048
 9245TIP3   OH227695   7.141   2.352   6.341 -0.0669 -0.5818 -0.6716
 9245TIP3    H127696   7.224   2.306   6.333  0.6662  1.0155 -2.4567
 9245TIP3    H227697   7.115   2.372   6.251 -0.9726  1.3974 -0.0155
 9246TIP3   OH227698   5.199   2.845   4.436  0.4328 -0.1553  0.0231
 9246TIP3    H127699   5.209   2.890   4.352  0.5917  1.5580  0.9240
 9246TIP3    H227700   5.112   2.805   4.431  0.7376 -0.6895 -1.2301
 9247TIP3   OH227701   1.637   4.493   5.099 -0.1659  0.1390  0.0890
 9247TIP3    H127702   1.594   4.523   5.020  1.4659  1.8621 -0.1711
 9247TIP3    H227703   1.730   4.488   5.076  0.3276  0.6527  1.8668
 9248TIP3   OH227704   1.990   6.409   1.567 -0.1905  0.2676  0.0234
 9248TIP3    H127705   1.967   6.473   1.500  0.2008 -0.7910 -1.1506
 9248TIP3    H227706   2.086   6.409   1.570 -0.1558 -0.9042 -0.6454
 9249TIP3   OH227707   0.060   4.916   6.367  0.4051  0.4727 -0.2561
 9249TIP3    H127708   0.064   5.011   6.378 -0.3452  0.6209 -1.1720
 9249TIP3    H227709   0.076   4.903   6.273  0.8348 -0.3262 -0.0703
 9250TIP3   OH227710   7.166   2.692   5.635  0.0888  0.5762  0.6272
 9250TIP3    H127711   7.165   2.753   5.561  0.1954  1.0958  1.0481
 9250TIP3    H227712   7.258   2.680   5.654  0.1503 -1.3085 -0.7396
 9251TIP3   OH227713   1.269   5.421   1.721 -0.2731 -0.2495  0.1614
 9251TIP3    H127714   1.198   5.356   1.720  0.2448 -0.8574  1.2260
 9251TIP3    H227715   1.264   5.463   1.636 -2.3514  0.1986  0.4805
 9252TIP3   OH227716   7.587   4.722   5.143  0.4449 -0.9447 -0.1175
 9252TIP3    H127717   7.635   4.805   5.137  1.9494 -1.6436  1.5317
 9252TIP3    H227718   7.613   4.674   5.064  0.3875 -0.2522 -0.5614
 9253TIP3   OH227719   4.624   3.176   3.435 -0.3373  1.2252  0.0999
 9253TIP3    H127720   4.597   3.148   3.348 -0.5956 -1.2165  0.9273
 9253TIP3    H227721   4.543   3.175   3.487  0.3492 -0.6107  1.1840
 9254TIP3   OH227722   1.104   2.646   4.895  0.6705 -0.3227 -0.2135
 9254TIP3    H127723   1.084   2.672   4.805 -1.5028  1.2483  0.6914
 9254TIP3    H227724   1.062   2.560   4.904 -2.6145  1.2738  0.4824
 9255TIP3   OH227725   5.730   4.305   6.121  0.0352 -0.3943  0.1041
 9255TIP3    H127726   5.657   4.362   6.098  0.1808  0.4926  1.7189
 9255TIP3    H227727   5.704   4.266   6.205  1.2455 -0.3316  0.5286
 9256TIP3   OH227728   7.169   2.627   6.010 -0.3825 -0.3287  0.2003
 9256TIP3    H127729   7.083   2.649   6.046 -0.6532  0.0255 -0.6561
 9256TIP3    H227730   7.208   2.711   5.985  0.8868 -0.3301  2.0398
 9257TIP3   OH227731   6.735   3.390   5.178  0.3127 -0.4400 -0.0727
 9257TIP3    H127732   6.732   3.296   5.160  0.0580 -0.6113  0.8568
 9257TIP3    H227733   6.790   3.426   5.109 -3.5266 -0.5953 -3.4199
 9258TIP3   OH227734   7.013   2.960   4.043  0.0573 -0.1279  0.2606
 9258TIP3    H127735   6.931   2.911   4.045 -0.3904  0.6141  0.0015
 9258TIP3    H227736   7.034   2.977   4.135  0.5925 -1.4249  0.3962
 9259TIP3   OH227737   3.249   3.952   5.220  0.0679 -0.5256 -0.3370
 9259TIP3    H127738   3.226   3.942   5.312 -3.0077  0.7931 -0.8752
 9259TIP3    H227739   3.168   3.932   5.173  0.5407  2.3947 -2.5276
 9260TIP3   OH227740   5.126   0.844   2.431  0.0629  0.1079  0.1681
 9260TIP3    H127741   5.099   0.762   2.389 -3.2556  2.4890 -2.6725
 9260TIP3    H227742   5.122   0.825   2.525 -0.2465 -3.0808 -0.4147
 9261TIP3   OH227743   6.303   6.391   5.678  0.4387 -0.4588  0.1807
 9261TIP3    H127744   6.395   6.368   5.662  0.2157 -2.3360  1.4053
 9261TIP3    H227745   6.265   6.312   5.715 -2.0940 -0.2249 -1.8012
 9262TIP3   OH227746   0.496   4.365   6.130 -0.8218 -0.4089 -0.0065
 9262TIP3    H127747   0.442   4.303   6.179  2.4195 -1.7260  2.0741
 9262TIP3    H227748   0.541   4.416   6.197  1.3686 -0.1412 -1.6156
 9263TIP3   OH227749   7.709   0.954   0.411 -0.6023 -0.8691 -0.0858
 9263TIP3    H127750   7.727   0.902   0.490 -0.4147 -0.0844  0.3896
 9263TIP3    H227751   7.702   1.044   0.443  0.9922 -0.3401 -1.1756
 9264TIP3   OH227752   0.411   4.098   6.148  0.0130 -0.2835  0.3092
 9264TIP3    H127753   0.474   4.034   6.182  0.7683  0.6458  0.6865
 9264TIP3    H227754   0.378   4.143   6.225 -0.1063  0.1575  0.0031
 9265TIP3   OH227755   0.998   6.243   0.129 -0.5146 -0.1189 -0.3771
 9265TIP3    H127756   1.068   6.185   0.099  1.1420  1.4552  0.3899
 9265TIP3    H227757   0.988   6.308   0.059 -0.7583  0.0611 -0.1774
 9266TIP3   OH227758   5.424   3.144   4.768 -0.2817 -0.2870 -0.1848
 9266TIP3    H127759   5.408   3.052   4.745 -1.4483  0.1174 -1.0123
 9266TIP3    H227760   5.341   3.175   4.803 -0.4933  1.0194 -1.8001
 9267TIP3   OH227761   4.479   0.706   4.439 -0.7585  0.6376  0.2124
 9267TIP3    H127762   4.431   0.624   4.428  0.4946 -0.2232  1.0752
 9267TIP3    H227763   4.530   0.716   4.359 -2.1983  1.4649 -0.6317
 9268TIP3   OH227764   7.220   3.612   6.026  0.0280  0.4534 -0.2022
 9268TIP3    H127765   7.194   3.573   5.942 -0.3102  0.0371  0.0914
 9268TIP3    H227766   7.216   3.706   6.011 -0.2382  0.3805 -0.5922
 9269TIP3   OH227767   7.289   2.584   5.292 -0.2443  0.0946 -0.5404
 9269TIP3    H127768   7.313   2.569   5.201 -0.0630 -0.0353 -0.4709
 9269TIP3    H227769   7.274   2.497   5.329 -0.0538  0.1306 -0.3742
 9270TIP3   OH227770   1.073   4.585   6.023 -0.0906  0.4038  0.1024
 9270TIP3    H127771   1.050   4.678   6.020  0.2058  0.4347 -2.4815
 9270TIP3    H227772   1.156   4.583   6.072 -0.1168  1.4872  0.2165
 9271TIP3   OH227773   0.886   5.531   0.535  0.1714  0.1641 -0.1671
 9271TIP3    H127774   0.820   5.490   0.479  0.7234 -0.5903 -0.2659
 9271TIP3    H227775   0.836   5.563   0.611 -0.3550 -0.1071 -0.3964
 9272TIP3   OH227776   0.252   6.318   1.250 -0.0185 -0.0864  0.7878
 9272TIP3    H127777   0.211   6.404   1.236 -0.5200 -0.3939  0.3145
 9272TIP3    H227778   0.317   6.311   1.180 -1.4953 -1.0013 -0.5347
 9273TIP3   OH227779   1.076   6.198   0.404 -0.1523  0.3945  0.4531
 9273TIP3    H127780   1.163   6.192   0.365 -0.1580 -1.3657  0.6686
 9273TIP3    H227781   1.017   6.204   0.330  0.0906  0.8423  0.2901
 9274TIP3   OH227782   0.646   4.915   4.935  0.2425  0.3222  0.3364
 9274TIP3    H127783   0.643   4.973   5.012 -0.5829 -0.5856  1.0035
 9274TIP3    H227784   0.652   4.827   4.972  0.3738 -0.0921 -0.6621
 9275TIP3   OH227785   7.038   5.284   5.937  0.0947 -0.3559  0.1381
 9275TIP3    H127786   6.963   5.232   5.907  0.6027 -1.3931  0.6720
 9275TIP3    H227787   7.113   5.249   5.888  0.4784 -0.3018  0.6867
 9276TIP3   OH227788   6.329   1.673   0.429  0.1812  0.1403 -0.1676
 9276TIP3    H127789   6.257   1.732   0.455  0.6844  0.6672  0.0326
 9276TIP3    H227790   6.372   1.650   0.511  0.8668  0.6298 -0.3931
 9277TIP3   OH227791   0.237   5.571   0.061  0.4286 -0.5044  0.1268
 9277TIP3    H127792   0.276   5.644   0.108 -0.3549  0.4114 -0.6385
 9277TIP3    H227793   0.274   5.576  -0.027 -0.8665 -0.0615 -0.3943
 9278TIP3   OH227794   7.673   2.076   4.824 -0.5978  0.2548 -0.2743
 9278TIP3    H127795   7.735   2.011   4.858  0.8204  2.6874  1.9319
 9278TIP3    H227796   7.711   2.104   4.740 -1.3627 -1.8908 -1.3855
 9279TIP3   OH227797   4.328   2.406   5.163  0.5999  0.2579  0.0227
 9279TIP3    H127798   4.300   2.497   5.175 -0.7211 -0.2889  1.3669
 9279TIP3    H227799   4.423   2.409   5.172  0.6199  1.5874 -0.4749
 9280TIP3   OH227800   6.001   5.468   0.930  0.4765 -0.3063  0.0924
 9280TIP3    H127801   5.985   5.383   0.889 -0.6601  0.0984 -0.3517
 9280TIP3    H227802   5.917   5.513   0.923  0.8678  0.5791  0.9783
 9281TIP3   OH227803   1.016   1.843   4.870  0.3648 -0.2290 -0.0912
 9281TIP3    H127804   1.006   1.756   4.910  1.0803 -0.3967 -0.2670
 9281TIP3    H227805   0.960   1.840   4.792 -0.2488 -0.2487  0.3443
 9282TIP3   OH227806   5.873   1.294   4.367  0.3290 -0.6132  0.2646
 9282TIP3    H127807   5.862   1.287   4.272  0.4264 -0.1647  0.2226
 9282TIP3    H227808   5.826   1.218   4.401 -0.3942 -0.3334 -0.0967
 9283TIP3   OH227809   5.945   4.730   4.798 -0.2382 -0.4755 -0.0707
 9283TIP3    H127810   5.980   4.641   4.790 -0.0997 -0.3943 -0.3526
 9283TIP3    H227811   5.966   4.756   4.887  1.1847 -0.0984 -0.5062
 9284TIP3   OH227812   7.198   3.865   4.843 -0.6647 -0.1069  0.4277
 9284TIP3    H127813   7.255   3.806   4.793  0.9453  1.2569  0.6098
 9284TIP3    H227814   7.147   3.910   4.775  0.4358  0.6453  0.0893
 9285TIP3   OH227815   7.377   4.376   6.147 -0.1239 -0.4354 -0.7620
 9285TIP3    H127816   7.380   4.463   6.106  1.2846 -1.0923 -2.1262
 9285TIP3    H227817   7.415   4.389   6.234 -1.5449  0.6494 -0.2933
 9286TIP3   OH227818   0.564   3.100   5.093  0.3827 -0.0739  0.3403
 9286TIP3    H127819   0.625   3.027   5.103  0.0576 -0.6392 -1.6832
 9286TIP3    H227820   0.619   3.174   5.069  0.4478 -0.2021  0.0931
 9287TIP3   OH227821   6.638   3.903   3.696 -0.2137 -0.3667  0.3588
 9287TIP3    H127822   6.680   3.988   3.711 -3.5465  1.2007  1.4906
 9287TIP3    H227823   6.666   3.878   3.608  3.6135  0.1607  1.3389
 9288TIP3   OH227824   7.021   1.446   5.499  0.5374 -0.2071  0.2108
 9288TIP3    H127825   6.993   1.520   5.552  1.6819 -0.7681  1.6443
 9288TIP3    H227826   7.004   1.369   5.554  2.0565 -0.7748 -0.0879
 9289TIP3   OH227827   7.274   3.962   5.085 -0.0536 -0.0901  0.0173
 9289TIP3    H127828   7.242   3.928   5.002  0.8293 -0.2695 -0.2598
 9289TIP3    H227829   7.369   3.965   5.075 -0.1193  2.7736 -0.0739
 9290TIP3   OH227830   6.425   3.422   6.333  0.4038 -0.2889  0.6580
 9290TIP3    H127831   6.347   3.371   6.353  0.8631 -1.1287  0.3375
 9290TIP3    H227832   6.400   3.477   6.260 -0.2662  0.3602  1.3648
 9291TIP3   OH227833   6.832   3.620   6.211 -0.3419 -0.1150  0.5408
 9291TIP3    H127834   6.857   3.580   6.128  0.4612  0.0641  0.6923
 9291TIP3    H227835   6.752   3.669   6.191  0.7235  1.2331 -0.5174
 9292TIP3   OH227836   5.127   1.913   4.698  0.2109  0.1289 -0.0030
 9292TIP3    H127837   5.129   2.006   4.722  0.7466  0.5716 -1.6856
 9292TIP3    H227838   5.064   1.908   4.626  1.0755 -0.6181 -0.7189
 9293TIP3   OH227839   6.172   2.701   5.591  0.1630  0.1908  0.1760
 9293TIP3    H127840   6.135   2.699   5.503 -2.6176 -1.4180  1.2903
 9293TIP3    H227841   6.224   2.781   5.594 -1.6871  1.5412 -2.1217
 9294TIP3   OH227842   1.680   5.409   0.867 -0.1199 -0.1510  0.0723
 9294TIP3    H127843   1.588   5.384   0.875 -0.5249  1.2199 -0.1608
 9294TIP3    H227844   1.720   5.378   0.948 -0.4987 -1.9016 -0.3891
 9295TIP3   OH227845   2.868   6.654   0.262  0.0038 -0.3462  0.5225
 9295TIP3    H127846   2.798   6.715   0.239  0.2723  0.4818  1.8515
 9295TIP3    H227847   2.833   6.567   0.240 -0.8143  0.1873 -0.3011
 9296TIP3   OH227848   5.269   2.654   6.047 -0.3305 -0.2210  0.2187
 9296TIP3    H127849   5.273   2.663   5.951  1.0543 -0.9803  0.2103
 9296TIP3    H227850   5.347   2.699   6.079 -1.2561  0.8313  1.0702
 9297TIP3   OH227851   5.657   3.924   6.020  0.1148  0.1101  0.1023
 9297TIP3    H127852   5.689   3.834   6.021  0.5190  0.2490 -0.2462
 9297TIP3    H227853   5.705   3.967   6.091  0.3631  0.2042 -0.1239
 9298TIP3   OH227854   5.383   4.166   4.630  0.0521  0.7055 -0.1574
 9298TIP3    H127855   5.327   4.242   4.649  0.0055  1.1754 -2.0465
 9298TIP3    H227856   5.323   4.101   4.594 -0.3363 -1.1959  3.7045
 9299TIP3   OH227857   1.220   6.777   0.043 -0.1373 -0.7152 -0.6697
 9299TIP3    H127858   1.164   6.705   0.073 -0.8719  0.4506  0.8481
 9299TIP3    H227859   1.160   6.851   0.034  0.8970  0.1402 -0.5824
 9300TIP3   OH227860   6.457   4.793   5.313  0.1817 -0.8040 -0.0189
 9300TIP3    H127861   6.440   4.725   5.377 -1.1876  0.0694  0.5552
 9300TIP3    H227862   6.474   4.872   5.364  0.6307 -0.4413 -0.7050
 9301TIP3   OH227863   0.899   5.824   3.181 -0.1440 -0.3256 -0.0266
 9301TIP3    H127864   0.891   5.911   3.140 -1.7341 -0.4175  0.0492
 9301TIP3    H227865   0.855   5.765   3.119  1.8236 -1.2462 -0.5689
 9302TIP3   OH227866   7.313   1.039   5.485  0.5049 -0.0288  0.0843
 9302TIP3    H127867   7.335   1.131   5.502 -0.2259  0.0614  0.5295
 9302TIP3    H227868   7.393   1.003   5.447  0.3224  1.1550 -1.4674
 9303TIP3   OH227869   7.640   5.094   5.336  1.0307  0.6232 -0.1211
 9303TIP3    H127870   7.702   5.160   5.304  0.1412  1.6698  0.2804
 9303TIP3    H227871   7.598   5.061   5.257 -0.4850  2.5244 -0.1507
 9304TIP3   OH227872   5.071   3.970   5.152 -0.1993 -0.0732  0.1500
 9304TIP3    H127873   5.044   4.025   5.225  1.0322 -1.3552  1.6239
 9304TIP3    H227874   5.088   4.031   5.080  0.1798  1.3761  1.4515
 9305TIP3   OH227875   5.615   0.523   0.048  0.3356  0.8252  0.2691
 9305TIP3    H127876   5.661   0.444   0.075 -1.9235 -0.4941  0.3336
 9305TIP3    H227877   5.559   0.546   0.122 -0.6654  1.2117 -0.5893
 9306TIP3   OH227878   5.433   3.063   5.420 -1.0822  0.6679 -0.4859
 9306TIP3    H127879   5.460   2.979   5.384  1.3188  1.3304 -0.2732
 9306TIP3    H227880   5.444   3.125   5.348 -0.1176  1.2945  0.1939
 9307TIP3   OH227881   4.740   2.122   3.226 -0.4916  0.0612  0.1604
 9307TIP3    H127882   4.677   2.139   3.297  0.1224  0.2260  0.6660
 9307TIP3    H227883   4.818   2.171   3.251  0.6205 -1.8952  0.6589
 9308TIP3   OH227884   3.355   7.083   0.114  0.1868 -0.0262 -0.3256
 9308TIP3    H127885   3.340   7.005   0.060  0.8925 -0.3450 -0.0665
 9308TIP3    H227886   3.302   7.151   0.073  2.2583  0.2589 -2.6266
 9309TIP3   OH227887   5.903   4.171   4.629 -0.0341  0.6969  0.4344
 9309TIP3    H127888   5.931   4.084   4.657  1.2659  0.9389 -0.1062
 9309TIP3    H227889   5.825   4.154   4.576  2.2337 -0.4905 -2.6765
 9310TIP3   OH227890   2.991   5.068   5.722 -0.4946  0.2335  0.0834
 9310TIP3    H127891   2.937   5.130   5.771  1.8839  3.3148 -1.0759
 9310TIP3    H227892   2.970   5.085   5.630  0.2477 -0.6382 -0.2530
 9311TIP3   OH227893   0.695   4.145   3.579  0.1159 -0.2552 -0.8579
 9311TIP3    H127894   0.758   4.073   3.577 -0.0604 -0.3891 -1.4963
 9311TIP3    H227895   0.748   4.221   3.604  0.4734 -0.4304 -1.0737
 9312TIP3   OH227896   6.127   0.488   1.551  0.5369  0.3905  0.2012
 9312TIP3    H127897   6.186   0.527   1.615  1.2052  0.4477 -0.4408
 9312TIP3    H227898   6.182   0.427   1.501  0.0455  0.4102 -0.3757
 9313TIP3   OH227899   3.642   4.404   1.108 -0.0889  0.7210  0.4029
 9313TIP3    H127900   3.586   4.357   1.046 -1.1088  2.2269  0.1808
 9313TIP3    H227901   3.608   4.493   1.110  1.1424  1.1890  1.6763
 9314TIP3   OH227902   2.175   6.895   0.279 -0.0854  0.2678  0.2069
 9314TIP3    H127903   2.185   6.919   0.187  0.4918  2.4314  0.7921
 9314TIP3    H227904   2.080   6.887   0.291 -0.2388  1.2919 -0.2712
 9315TIP3   OH227905   3.726   2.652   1.721  0.0334  0.5114  0.0298
 9315TIP3    H127906   3.760   2.709   1.652 -1.0691  2.9300  1.4172
 9315TIP3    H227907   3.647   2.613   1.682  0.8575 -0.2053 -0.9631
 9316TIP3   OH227908   0.185   6.643   1.185  0.0625  0.0799 -0.0499
 9316TIP3    H127909   0.227   6.572   1.136  0.5825 -0.3567  1.0053
 9316TIP3    H227910   0.209   6.723   1.138  0.9626 -0.2894 -0.2280
 9317TIP3   OH227911   2.761   5.250   1.496 -0.0679 -0.3572  0.6007
 9317TIP3    H127912   2.715   5.213   1.571  0.5971 -0.5389  0.9175
 9317TIP3    H227913   2.845   5.279   1.530  0.3347 -0.6596 -0.1233
 9318TIP3   OH227914   7.137   2.328   4.880  0.3267 -0.6286  0.4934
 9318TIP3    H127915   7.184   2.245   4.874 -2.1247 -2.0273  0.1839
 9318TIP3    H227916   7.100   2.341   4.793  0.6040  0.7353  0.5729
 9319TIP3   OH227917   7.740   2.945   4.873 -0.3270  0.3872  0.7680
 9319TIP3    H127918   7.780   2.859   4.861 -0.5367  0.5869 -1.4295
 9319TIP3    H227919   7.646   2.928   4.876 -0.2905  0.3580  2.1071
 9320TIP3   OH227920   3.877   4.468   1.265  0.1339  0.1096 -0.8825
 9320TIP3    H127921   3.830   4.443   1.344  0.3075  1.2947 -0.3919
 9320TIP3    H227922   3.809   4.478   1.198  0.0019 -1.0405 -0.9283
 9321TIP3   OH227923   7.616   2.937   6.220 -0.4236 -0.1814 -0.4054
 9321TIP3    H127924   7.545   2.969   6.276 -0.7358 -2.5136  0.5560
 9321TIP3    H227925   7.608   2.842   6.222  2.6604 -0.5111 -0.3506
 9322TIP3   OH227926   7.669   4.338   5.014  0.2004 -0.3393  0.2401
 9322TIP3    H127927   7.615   4.405   4.971 -1.5061 -0.3491  2.2746
 9322TIP3    H227928   7.740   4.387   5.055 -0.7939  0.2151  1.3406
 9323TIP3   OH227929   6.836   3.383   3.480 -0.0914  0.1486  0.5460
 9323TIP3    H127930   6.801   3.295   3.483 -0.6454  0.2808 -1.5100
 9323TIP3    H227931   6.910   3.378   3.420  0.3739  0.9204  1.0338
 9324TIP3   OH227932   5.289   5.375   2.755  0.6551 -0.2690  0.0565
 9324TIP3    H127933   5.210   5.409   2.713  0.0011 -0.3285  1.2276
 9324TIP3    H227934   5.358   5.389   2.691 -0.2807 -0.0745 -0.9119
 9325TIP3   OH227935   0.230   3.755   5.518 -0.1678 -0.2563 -0.6790
 9325TIP3    H127936   0.321   3.767   5.546 -0.2527 -1.1875  0.0280
 9325TIP3    H227937   0.230   3.780   5.425  1.0303 -1.1671 -0.9453
 9326TIP3   OH227938   1.521   2.609   6.231  0.1646  0.0992  0.0131
 9326TIP3    H127939   1.445   2.666   6.243  0.2671 -0.0286  1.2756
 9326TIP3    H227940   1.495   2.550   6.160 -0.4848  0.7855 -0.3215
 9327TIP3   OH227941   3.764   7.088   1.070 -0.2101  0.3500 -0.2064
 9327TIP3    H127942   3.741   7.042   1.151  0.7397  1.0458  0.4796
 9327TIP3    H227943   3.765   7.181   1.095 -1.4706  0.6982 -1.4095
 9328TIP3   OH227944   6.283   2.029   2.209  0.4500  0.3332  0.6798
 9328TIP3    H127945   6.357   2.052   2.153  0.9768  0.1547  1.2999
 9328TIP3    H227946   6.264   2.110   2.257  1.9106 -0.3120  2.4117
 9329TIP3   OH227947   1.663   4.153   5.610 -0.0060  0.0390 -0.0483
 9329TIP3    H127948   1.672   4.081   5.548 -1.7414 -0.5452  0.3572
 9329TIP3    H227949   1.576   4.189   5.592  0.6400  1.7121  0.0955
 9330TIP3   OH227950   0.887   5.324   4.399  0.2736  0.3666  0.3375
 9330TIP3    H127951   0.859   5.333   4.308  0.7819  0.8433  0.2268
 9330TIP3    H227952   0.814   5.359   4.450  0.6654  1.6166  0.0485
 9331TIP3   OH227953   6.962   2.282   5.332 -0.0434 -0.1401  0.3569
 9331TIP3    H127954   6.922   2.365   5.358 -0.9351 -1.0903  2.1375
 9331TIP3    H227955   6.943   2.275   5.239  0.3158  1.7941  0.1025
 9332TIP3   OH227956   2.690   6.555   0.506 -0.4150  0.0196 -0.5381
 9332TIP3    H127957   2.749   6.629   0.490 -1.4725  1.1806  0.8240
 9332TIP3    H227958   2.722   6.516   0.588 -0.8434 -0.0306 -0.3917
 9333TIP3   OH227959   6.314   4.329   5.405 -0.3080 -0.0774  0.4834
 9333TIP3    H127960   6.341   4.291   5.321 -1.7857  2.3624 -1.1577
 9333TIP3    H227961   6.233   4.284   5.427 -0.1749 -0.3756  0.3652
 9334TIP3   OH227962   6.307   2.706   5.117  0.2414 -0.3902 -0.0229
 9334TIP3    H127963   6.372   2.749   5.061  1.4042  0.2979  1.8006
 9334TIP3    H227964   6.237   2.680   5.057  0.3799  2.3827 -1.4669
 9335TIP3   OH227965   7.616   4.572   4.882 -0.5933  0.4770  0.2245
 9335TIP3    H127966   7.709   4.582   4.860 -0.2528 -1.5197  0.5998
 9335TIP3    H227967   7.571   4.576   4.797  0.1050 -1.0810 -0.2489
 9336TIP3   OH227968   1.387   1.090   5.606 -0.6670  0.1367  0.1266
 9336TIP3    H127969   1.350   1.159   5.550  0.2184  0.9856  0.5781
 9336TIP3    H227970   1.480   1.109   5.611 -0.5125 -0.7207  0.7898
 9337TIP3   OH227971   2.312   2.962   0.447 -0.1619  0.5362 -0.5026
 9337TIP3    H127972   2.300   2.903   0.372  0.5060  0.5997 -0.6608
 9337TIP3    H227973   2.341   2.905   0.517 -1.0665  0.4322 -0.2064
 9338TIP3   OH227974   3.779   6.557   0.301  0.5306  0.0770 -0.1167
 9338TIP3    H127975   3.772   6.652   0.307  2.2354  0.1939  0.0461
 9338TIP3    H227976   3.861   6.541   0.254  0.9538 -1.3312  1.0567
 9339TIP3   OH227977   1.106   4.460   4.877  0.2121  0.5177 -0.1029
 9339TIP3    H127978   1.027   4.509   4.901 -0.3437 -0.6844  0.6035
 9339TIP3    H227979   1.169   4.481   4.946  0.0926  0.4850  0.0145
 9340TIP3   OH227980   7.536   3.551   5.167  0.4053 -0.3949  0.3095
 9340TIP3    H127981   7.563   3.577   5.256  1.4937  0.0628 -0.1476
 9340TIP3    H227982   7.511   3.459   5.176 -0.6857 -0.0162  1.3439
 9341TIP3   OH227983   7.172   1.195   1.853 -0.0631  0.5247  0.8414
 9341TIP3    H127984   7.176   1.226   1.943 -0.9647 -0.9795  1.3969
 9341TIP3    H227985   7.134   1.108   1.858  0.1276  0.3118 -0.9683
 9342TIP3   OH227986   6.432   4.849   4.790  0.1390  0.2101 -0.0286
 9342TIP3    H127987   6.434   4.944   4.800 -0.0258  0.0530  1.6721
 9342TIP3    H227988   6.364   4.833   4.724 -0.1139  1.2537 -0.0235
 9343TIP3   OH227989   6.201   4.159   6.150 -0.3690  0.1594 -0.2525
 9343TIP3    H127990   6.168   4.070   6.145 -0.3994  0.1942 -0.7520
 9343TIP3    H227991   6.142   4.210   6.093  1.0450  0.0612 -1.8370
 9344TIP3   OH227992   0.656   3.895   4.616  0.3761  0.2438  0.2838
 9344TIP3    H127993   0.683   3.804   4.600  3.0739  1.2738 -1.1892
 9344TIP3    H227994   0.614   3.922   4.534 -1.1472  0.1126  0.9992
 9345TIP3   OH227995   6.087   3.269   6.077 -0.1621 -0.4503  0.5510
 9345TIP3    H127996   6.061   3.348   6.029 -1.0504  0.7262  2.8695
 9345TIP3    H227997   6.146   3.223   6.017  0.6047  2.1241 -0.7600
 9346TIP3   OH227998   2.547   2.472   6.241 -0.1503  0.1727 -0.4913
 9346TIP3    H127999   2.636   2.496   6.215 -0.0178  0.3120  0.0667
 9346TIP3    H228000   2.517   2.547   6.293  0.5780 -1.2017  2.0132
 9347TIP3   OH228001   7.396   0.374   5.649 -0.7255  0.1500 -0.2197
 9347TIP3    H128002   7.440   0.320   5.583 -0.6452 -0.0897  0.0276
 9347TIP3    H228003   7.465   0.429   5.686 -0.9407  0.9172 -0.9608
 9348TIP3   OH228004   6.522   3.429   5.564 -0.2181  0.5630 -0.0558
 9348TIP3    H128005   6.442   3.480   5.579 -0.5710  0.1574 -0.5610
 9348TIP3    H228006   6.514   3.397   5.474  1.0704  1.5134 -0.5238
 9349TIP3   OH228007   1.781   6.171   2.346 -0.2979  0.6416 -0.5902
 9349TIP3    H128008   1.767   6.215   2.262 -0.1940 -0.1821 -1.0467
 9349TIP3    H228009   1.872   6.188   2.367 -0.5094  1.4296 -0.3042
 9350TIP3   OH228010   6.267   4.041   5.589  0.3402 -0.2095  0.5213
 9350TIP3    H128011   6.345   4.095   5.597 -0.5564  1.0882  0.6764
 9350TIP3    H228012   6.195   4.104   5.584 -0.8866 -1.4189  2.4501
 9351TIP3   OH228013   7.152   7.318   0.002  0.3277 -0.9106 -0.5922
 9351TIP3    H128014   7.158   7.295   0.095 -0.1035  0.4199 -0.2132
 9351TIP3    H228015   7.240   7.306  -0.032  0.5612 -1.1025  0.0698
 9352TIP3   OH228016   5.857   2.963   5.381 -0.0007 -0.6239 -0.2475
 9352TIP3    H128017   5.804   2.894   5.421 -0.2393  0.9245  2.1988
 9352TIP3    H228018   5.795   3.011   5.326 -0.5074 -0.5432  0.3898
 9353TIP3   OH228019   4.108   0.505   0.857  0.2111  0.3953 -0.2336
 9353TIP3    H128020   4.121   0.433   0.795 -1.5370 -0.2465  0.1084
 9353TIP3    H228021   4.033   0.554   0.822 -0.7179  0.1015  1.2738
 9354TIP3   OH228022   5.061   3.644   5.847  0.2198  0.6100 -0.1784
 9354TIP3    H128023   5.060   3.682   5.935  1.6458 -0.5415  0.3603
 9354TIP3    H228024   5.151   3.653   5.818  0.4282 -1.6336 -0.3369
 9355TIP3   OH228025   7.407   3.017   6.371 -0.2330 -0.0713 -0.4478
 9355TIP3    H128026   7.421   3.111   6.359 -0.6055  0.1287  0.6072
 9355TIP3    H228027   7.314   3.005   6.357 -0.5191  0.0284  1.2375
 9356TIP3   OH228028   7.101   5.814   5.325 -0.1212  0.1578  0.3794
 9356TIP3    H128029   7.022   5.778   5.286  1.1502  0.9921 -3.1958
 9356TIP3    H228030   7.077   5.903   5.352 -0.8734 -0.2121  0.9105
 9357TIP3   OH228031   5.004   2.286   5.394  0.0053 -0.0582 -0.4153
 9357TIP3    H128032   4.965   2.292   5.481  3.3059  0.1495  1.1327
 9357TIP3    H228033   4.998   2.193   5.372 -4.2030  0.4239 -1.6690
 9358TIP3   OH228034   4.544   0.683   1.739  0.6190 -0.3640 -0.1703
 9358TIP3    H128035   4.604   0.725   1.801 -1.1619 -0.3025  1.5454
 9358TIP3    H228036   4.580   0.705   1.653  1.7485  1.6299  0.7692
 9359TIP3   OH228037   5.302   4.430   5.356 -0.8338  0.1185  0.4736
 9359TIP3    H128038   5.252   4.381   5.291 -1.6713 -0.1686  1.3219
 9359TIP3    H228039   5.236   4.476   5.408 -0.0511  2.1092 -0.2769
 9360TIP3   OH228040   5.232   2.791   4.921 -0.0389  0.4211  0.5981
 9360TIP3    H128041   5.265   2.729   4.856  0.6030  0.2547  1.0790
 9360TIP3    H228042   5.151   2.752   4.953 -0.6850  0.7935 -0.5317
 9361TIP3   OH228043   4.037   2.419   6.288  0.4976 -0.0952 -0.4298
 9361TIP3    H128044   3.975   2.437   6.358  2.2096 -0.6220  1.2543
 9361TIP3    H228045   4.093   2.496   6.284  2.0660 -1.1561  0.5936
 9362TIP3   OH228046   6.464   3.141   5.721  0.0026 -0.5063  0.2979
 9362TIP3    H128047   6.514   3.207   5.672 -1.2558  2.1280  2.4295
 9362TIP3    H228048   6.526   3.109   5.787  0.0838 -0.1393  0.4017
 9363TIP3   OH228049   1.025   2.116   5.270  0.5849  0.2401 -0.2186
 9363TIP3    H128050   1.066   2.175   5.207  1.0525 -0.2731 -0.3921
 9363TIP3    H228051   1.075   2.035   5.264 -0.4709 -0.4072 -0.4524
 9364TIP3   OH228052   3.444   6.741   0.141 -0.4992 -0.2676 -0.0520
 9364TIP3    H128053   3.392   6.782   0.072 -0.2450 -0.0153 -0.0950
 9364TIP3    H228054   3.466   6.812   0.200 -0.8482 -0.5128  0.3725
 9365TIP3   OH228055   7.711   1.549   5.169  0.2847 -0.0919 -0.4854
 9365TIP3    H128056   7.655   1.582   5.098  0.8450 -0.7047 -1.2243
 9365TIP3    H228057   7.799   1.572   5.142  0.4610  0.1192  0.2708
 9366TIP3   OH228058   7.270   1.978   6.100 -0.0609 -0.2122 -0.0696
 9366TIP3    H128059   7.359   2.013   6.093 -0.3786  0.5790 -0.1179
 9366TIP3    H228060   7.273   1.898   6.048  1.4930 -1.9284  2.5013
 9367TIP3   OH228061   4.470   5.338   0.647 -0.0747 -0.2948 -0.1982
 9367TIP3    H128062   4.541   5.375   0.594  1.8559 -0.5523  2.0856
 9367TIP3    H228063   4.419   5.414   0.674  0.3238  0.0791 -0.4858
 9368TIP3   OH228064   5.909   1.951   5.895  0.4085 -0.0723 -0.0787
 9368TIP3    H128065   5.833   1.984   5.848  0.0497 -1.4203 -0.4692
 9368TIP3    H228066   5.972   2.023   5.892 -0.5773  0.7856 -0.3798
 9369TIP3   OH228067   5.974   1.331   5.095  0.0698  0.2501 -0.2381
 9369TIP3    H128068   5.986   1.417   5.136 -1.1357 -0.2001  1.0486
 9369TIP3    H228069   5.880   1.316   5.097 -0.0977  0.3659 -3.4996
 9370TIP3   OH228070   6.709   1.685   6.091  0.2145  0.4128 -0.0177
 9370TIP3    H128071   6.753   1.705   6.009 -1.7019  2.0335 -0.6619
 9370TIP3    H228072   6.628   1.735   6.089 -1.0196 -1.4113  1.7915
 9371TIP3   OH228073   1.321   6.592   1.481 -0.2859 -0.0713 -0.0897
 9371TIP3    H128074   1.329   6.687   1.493  0.2884 -0.0304 -0.7921
 9371TIP3    H228075   1.237   6.581   1.436 -0.9549  0.0038  1.1118
 9372TIP3   OH228076   2.946   5.998   0.222 -0.3895  0.1108 -0.0597
 9372TIP3    H128077   2.875   5.992   0.285 -1.0758  1.0917 -0.7183
 9372TIP3    H228078   3.017   5.946   0.260 -1.1164 -0.0724  1.0633
 9373TIP3   OH228079   6.897   4.652   5.878 -0.2099 -0.0809 -0.6899
 9373TIP3    H128080   6.967   4.717   5.889 -1.1968  0.8098  0.5303
 9373TIP3    H228081   6.924   4.578   5.932  0.9329 -0.7231 -2.1040
 9374TIP3   OH228082   7.260   1.093   0.580  0.3860  0.1360  0.0277
 9374TIP3    H128083   7.335   1.096   0.639  0.7416 -0.2256 -0.4014
 9374TIP3    H228084   7.257   1.003   0.548 -0.2510  0.1389  0.0620
 9375TIP3   OH228085   6.410   2.050   5.956  0.3500 -0.0998  0.5685
 9375TIP3    H128086   6.424   2.074   5.865 -0.4161  0.5893  0.6214
 9375TIP3    H228087   6.405   2.134   6.002 -2.3115 -0.3126  0.7714
 9376TIP3   OH228088   1.228   6.012   2.150 -0.1905 -0.0534  0.1016
 9376TIP3    H128089   1.314   6.041   2.180 -0.9154  1.1294  1.0613
 9376TIP3    H228090   1.204   5.942   2.210 -1.6436  2.3149  2.4103
 9377TIP3   OH228091   7.143   2.415   2.678 -0.4271 -0.1083 -0.0147
 9377TIP3    H128092   7.174   2.371   2.756 -1.2530 -1.8838 -0.6713
 9377TIP3    H228093   7.151   2.508   2.698 -0.2622 -0.5511  2.0186
 9378TIP3   OH228094   3.539   0.726   2.287  0.2629 -0.4997  0.1389
 9378TIP3    H128095   3.451   0.695   2.267  0.5716 -1.5299  0.3134
 9378TIP3    H228096   3.528   0.817   2.313 -0.8085 -0.7481  0.5739
 9379TIP3   OH228097   2.732   4.756   4.259 -0.0421 -0.1290  0.1819
 9379TIP3    H128098   2.678   4.680   4.238  0.1044 -0.2131  0.1080
 9379TIP3    H228099   2.814   4.741   4.212  0.0038  0.0528  0.2035
 9380TIP3   OH228100   6.812   1.207   0.769  0.7003  0.5797  0.1945
 9380TIP3    H128101   6.793   1.150   0.843  1.0984 -0.8390 -0.7724
 9380TIP3    H228102   6.907   1.218   0.772  0.7321  0.4006 -0.1925
 9381TIP3   OH228103   7.463   5.556   6.266  0.2332  0.0034  0.8218
 9381TIP3    H128104   7.414   5.485   6.307 -3.1025  1.4885 -0.4029
 9381TIP3    H228105   7.487   5.521   6.180 -1.2822  0.2606  0.2750
 9382TIP3   OH228106   0.286   3.073   5.067 -0.1618 -0.8263  0.4027
 9382TIP3    H128107   0.267   2.994   5.117  0.9260 -1.2141  0.1931
 9382TIP3    H228108   0.376   3.095   5.088  0.2603 -0.9137 -1.2875
 9383TIP3   OH228109   0.022   2.347   5.010  0.1546  0.5673 -0.7895
 9383TIP3    H128110   0.037   2.362   4.917 -0.9619  0.8296 -0.9317
 9383TIP3    H228111  -0.025   2.425   5.040 -0.0317  0.2171 -0.1420
 9384TIP3   OH228112   5.451   4.635   5.573  0.7642 -0.0112 -0.0509
 9384TIP3    H128113   5.466   4.721   5.534  0.4402  0.2270  0.3452
 9384TIP3    H228114   5.494   4.574   5.513 -1.1997  0.2028 -1.7415
 9385TIP3   OH228115   0.249   5.139   6.114  0.2041  0.2202 -0.1566
 9385TIP3    H128116   0.157   5.155   6.136  0.7132 -0.2561  2.4637
 9385TIP3    H228117   0.268   5.204   6.046 -1.2387  2.4422  1.4589
 9386TIP3   OH228118   7.621   3.638   3.409 -0.1343  0.8204  0.0197
 9386TIP3    H128119   7.663   3.563   3.367 -1.0380 -0.3062  1.1030
 9386TIP3    H228120   7.670   3.653   3.489 -2.0873 -0.8728  1.5905
 9387TIP3   OH228121   7.495   1.133   0.739 -0.2760  0.0522 -0.2004
 9387TIP3    H128122   7.488   1.193   0.813 -0.2236 -0.5176  0.2619
 9387TIP3    H228123   7.542   1.057   0.773 -0.1245 -0.1488 -0.8531
 9388TIP3   OH228124   0.719   3.514   6.038  0.1733  0.7002 -0.6734
 9388TIP3    H128125   0.649   3.544   5.979 -1.0455 -0.3912  0.1667
 9388TIP3    H228126   0.775   3.590   6.050 -0.1456  1.2378 -2.4005
 9389TIP3   OH228127   0.810   1.292   3.495  0.1340  0.4095  0.2453
 9389TIP3    H128128   0.720   1.294   3.461  0.1776 -1.3922 -0.0147
 9389TIP3    H228129   0.805   1.338   3.579 -1.5699 -1.8628  1.4323
 9390TIP3   OH228130   4.386   1.296   0.663 -0.1452 -0.1244  0.3966
 9390TIP3    H128131   4.462   1.319   0.610  0.6248 -0.8018  1.1910
 9390TIP3    H228132   4.388   1.200   0.667 -1.6527 -0.2043 -0.4670
 9391TIP3   OH228133   7.683   0.736   1.432 -0.2884  0.1695  0.0726
 9391TIP3    H128134   7.603   0.689   1.411 -0.5902  0.1795  1.1864
 9391TIP3    H228135   7.751   0.693   1.380 -0.7776 -0.6840  0.1399
 9392TIP3   OH228136   6.605   4.499   5.319  0.3940 -0.5419  0.1022
 9392TIP3    H128137   6.680   4.495   5.379 -1.1867 -2.2489  2.0164
 9392TIP3    H228138   6.534   4.533   5.373 -1.0512 -2.0951 -0.8125
 9393TIP3   OH228139   4.679   1.966   0.588  0.3871 -0.2645  0.4197
 9393TIP3    H128140   4.654   2.056   0.565  2.0481  0.1997  0.3367
 9393TIP3    H228141   4.763   1.953   0.544  0.1570 -1.8573  0.4505
 9394TIP3   OH228142   0.867   5.831   3.816  0.1529 -0.4482 -0.5134
 9394TIP3    H128143   0.899   5.822   3.906  0.7756 -2.9482 -0.9404
 9394TIP3    H228144   0.800   5.899   3.821 -1.0582 -1.7758  2.1836
 9395TIP3   OH228145   2.226   6.602   0.284  0.1276  0.2321  0.7247
 9395TIP3    H128146   2.213   6.695   0.265  2.3087  0.6184  1.0947
 9395TIP3    H228147   2.219   6.559   0.198 -1.2395  0.6753  0.6019
 9396TIP3   OH228148   1.333   1.005   4.480  0.4167  0.3033 -0.4126
 9396TIP3    H128149   1.291   0.950   4.546  0.9837 -0.2503 -0.5065
 9396TIP3    H228150   1.264   1.023   4.416 -0.0361  0.5377  0.1398
 9397TIP3   OH228151   1.314   4.941   3.899  0.0438 -0.7238 -0.5543
 9397TIP3    H128152   1.302   4.940   3.994 -1.5664  0.3000 -0.7374
 9397TIP3    H228153   1.408   4.930   3.887  0.0870 -2.4696  1.1145
 9398TIP3   OH228154   5.412   0.745   0.280 -0.1013  0.1170 -0.0987
 9398TIP3    H128155   5.367   0.756   0.364 -0.4863 -0.0746 -0.2837
 9398TIP3    H228156   5.388   0.657   0.251  1.7643 -0.6768  0.6424
 9399TIP3   OH228157   2.010   5.690   5.230 -0.0773  0.1612  0.1442
 9399TIP3    H128158   2.014   5.777   5.270 -0.7527  0.0804  0.3914
 9399TIP3    H228159   2.010   5.708   5.135 -1.1586  0.4842  0.1964
 9400TIP3   OH228160   6.712   6.307   4.560 -0.2088  1.2467 -0.2201
 9400TIP3    H128161   6.622   6.284   4.582  0.6574 -0.5501  1.6508
 9400TIP3    H228162   6.734   6.252   4.486 -0.4815  1.3014 -0.3410
 9401TIP3   OH228163   5.679   1.177   0.411 -0.2517 -0.0478  0.0863
 9401TIP3    H128164   5.716   1.098   0.452  1.8084 -0.2283 -2.0423
 9401TIP3    H228165   5.688   1.162   0.317 -2.3354  1.5884 -0.4171
 9402TIP3   OH228166   6.232   2.006   4.492  0.2620  0.2763 -0.1168
 9402TIP3    H128167   6.195   2.086   4.453 -1.2995 -0.2695  0.2025
 9402TIP3    H228168   6.169   1.938   4.470  1.2107 -0.7351  0.2620
 9403TIP3   OH228169   1.013   2.435   3.836 -0.0043  0.7069 -0.0564
 9403TIP3    H128170   0.971   2.443   3.922  1.3094  0.8916  0.5798
 9403TIP3    H228171   1.103   2.410   3.855  0.4830  1.4003 -1.3618
 9404TIP3   OH228172   0.129   2.977   5.753 -0.5421  0.5182 -0.2252
 9404TIP3    H128173   0.166   3.039   5.690  1.8122  1.0567  1.5988
 9404TIP3    H228174   0.090   3.033   5.820 -1.3104 -0.0189 -0.2252
 9405TIP3   OH228175   3.062   7.299   1.485 -0.1652 -0.3162 -0.4533
 9405TIP3    H128176   2.972   7.318   1.507  0.1242  1.1794 -0.5325
 9405TIP3    H228177   3.060   7.209   1.450 -1.4452 -0.6437  0.4488
 9406TIP3   OH228178   7.038   3.997   5.233  0.2730 -0.8375 -0.2465
 9406TIP3    H128179   6.990   3.924   5.193 -0.4838  0.9056 -2.6003
 9406TIP3    H228180   7.120   4.000   5.184 -0.1675  0.5767 -0.9146
 9407TIP3   OH228181   7.675   5.083   3.977  0.4502 -0.1365 -0.7766
 9407TIP3    H128182   7.626   5.155   4.016  1.2244  0.2884 -0.5608
 9407TIP3    H228183   7.680   5.017   4.047  2.3687  0.8795  0.1042
 9408TIP3   OH228184   5.260   0.263   1.068  0.0680 -0.1193  0.1457
 9408TIP3    H128185   5.302   0.349   1.075 -2.0443  1.0259 -0.7199
 9408TIP3    H228186   5.332   0.203   1.049  1.6243  1.4018  1.0549
 9409TIP3   OH228187   4.845   1.547   0.867 -0.0092  0.6942  0.1325
 9409TIP3    H128188   4.833   1.637   0.837 -0.1662  0.2921 -1.0491
 9409TIP3    H228189   4.928   1.519   0.827 -1.1907 -0.4897 -1.5438
 9410TIP3   OH228190   7.758   4.012   4.719  0.0926  0.5916  0.0310
 9410TIP3    H128191   7.758   3.949   4.791  2.5004  0.1443 -0.3100
 9410TIP3    H228192   7.687   3.982   4.662 -1.4093  0.5714  1.8461
 9411TIP3   OH228193   0.806   5.164   4.681 -0.0019 -0.5344  0.0758
 9411TIP3    H128194   0.713   5.181   4.697 -0.3057  0.4134 -2.5000
 9411TIP3    H228195   0.850   5.203   4.757 -1.5218  1.3036  0.0567
 9412TIP3   OH228196   7.343   3.602   3.897 -0.4975 -0.0893  0.1027
 9412TIP3    H128197   7.270   3.566   3.948 -2.6099  0.4726 -2.3995
 9412TIP3    H228198   7.305   3.677   3.851  2.2901  1.6684  0.5388
 9413TIP3   OH228199   6.799   1.051   2.392  0.0138 -0.0226 -0.3185
 9413TIP3    H128200   6.734   0.984   2.416  0.7063 -0.5726  0.0388
 9413TIP3    H228201   6.829   1.086   2.476  0.7763 -0.3504 -0.4508
 9414TIP3   OH228202   7.610   2.492   0.425  0.1663 -0.1415 -0.3697
 9414TIP3    H128203   7.591   2.545   0.348  1.2987  1.2125  0.2521
 9414TIP3    H228204   7.685   2.438   0.399 -0.2184 -0.5630 -0.6074
 9415TIP3   OH228205   2.241   6.601   3.170 -0.1530  0.0855  0.1204
 9415TIP3    H128206   2.150   6.622   3.187 -0.2919  0.4247 -0.9703
 9415TIP3    H228207   2.243   6.506   3.161 -0.9245  0.2822 -2.6334
 9416TIP3   OH228208   4.612   2.437   6.188 -0.1904  0.5171 -0.0657
 9416TIP3    H128209   4.588   2.359   6.237 -2.0301  0.8967 -0.3323
 9416TIP3    H228210   4.692   2.412   6.141  0.5496 -0.4303  1.6635
 9417TIP3   OH228211   7.582   5.031   5.868  0.2609 -0.3894  0.4374
 9417TIP3    H128212   7.493   5.001   5.888 -0.8076  1.8164 -0.7794
 9417TIP3    H228213   7.593   5.014   5.775  2.0420 -2.7977  1.0247
 9418TIP3   OH228214   7.427   1.472   0.109  0.3143 -0.5134  0.5691
 9418TIP3    H128215   7.485   1.520   0.167 -0.0478  0.5446  0.0548
 9418TIP3    H228216   7.448   1.504   0.021 -1.9894  0.8966  0.4918
 9419TIP3   OH228217   3.461   0.194   0.245 -0.2584 -0.2327 -0.5750
 9419TIP3    H128218   3.550   0.167   0.264  0.5344  0.0251 -3.5965
 9419TIP3    H228219   3.470   0.266   0.182 -2.5658  0.4683 -0.1754
 9420TIP3   OH228220   2.614   5.126   5.891 -0.4465 -0.0920  0.4121
 9420TIP3    H128221   2.681   5.194   5.899 -0.0675 -0.2317 -1.2757
 9420TIP3    H228222   2.635   5.062   5.959  1.7519 -0.6446 -0.7411
 9421TIP3   OH228223   4.561   5.744   1.701  0.2912  0.3945  0.3174
 9421TIP3    H128224   4.624   5.706   1.762 -2.2481  0.8132  3.3305
 9421TIP3    H228225   4.571   5.839   1.713 -0.8138  0.4633  0.7362
 9422TIP3   OH228226   1.380   2.329   4.880 -0.2212  0.1914  0.7028
 9422TIP3    H128227   1.468   2.309   4.913  0.6848  0.3917 -1.5226
 9422TIP3    H228228   1.379   2.424   4.869 -0.0593  0.0033 -1.0500
 9423TIP3   OH228229   7.073   1.271   1.568  0.0003  0.2019 -0.1574
 9423TIP3    H128230   7.131   1.313   1.504  0.4987  0.0407  0.1916
 9423TIP3    H228231   7.120   1.276   1.651 -0.2230 -0.4636  0.0137
 9424TIP3   OH228232   3.481   6.334   3.236 -0.6707  0.1571  0.1648
 9424TIP3    H128233   3.397   6.305   3.271 -0.6375 -0.8495 -0.5642
 9424TIP3    H228234   3.528   6.370   3.311 -2.6721  2.9448  0.1737
 9425TIP3   OH228235   7.133   1.287   2.109 -0.2081  0.2734 -0.1058
 9425TIP3    H128236   7.077   1.217   2.141 -2.1592  1.9564  0.2932
 9425TIP3    H228237   7.096   1.367   2.147  2.0304  1.5144 -0.4401
 9426TIP3   OH228238   7.799   1.663   2.911 -0.1354  0.3179 -0.0792
 9426TIP3    H128239   7.828   1.749   2.880  1.0123 -0.3154 -0.7756
 9426TIP3    H228240   7.722   1.643   2.858 -0.6150  1.0528  0.3170
 9427TIP3   OH228241   4.228   7.296   0.195 -0.0573 -0.0505  0.2639
 9427TIP3    H128242   4.316   7.334   0.198 -0.4835  0.9278  0.4918
 9427TIP3    H228243   4.243   7.201   0.187  1.0314 -0.0002  1.5281
 9428TIP3   OH228244   7.523   1.969   0.206 -0.4383  0.2908  0.1163
 9428TIP3    H128245   7.557   2.039   0.262 -0.6969  0.1203  0.4828
 9428TIP3    H228246   7.428   1.981   0.207 -0.6272 -1.1351  1.6092
 9429TIP3   OH228247   5.806   0.932   0.458 -0.6954 -0.0979 -0.1566
 9429TIP3    H128248   5.900   0.916   0.444 -0.2626  0.8046  1.6299
 9429TIP3    H228249   5.764   0.853   0.425  0.7135 -0.6443 -0.7104
 9430TIP3   OH228250   1.514   7.286   1.733 -0.0610 -0.1196 -0.7595
 9430TIP3    H128251   1.532   7.229   1.809 -0.3607 -0.1942 -0.7426
 9430TIP3    H228252   1.444   7.344   1.763 -1.4182 -1.3194 -1.5526
 9431TIP3   OH228253   2.443   7.144   1.200 -0.1048  0.7070 -0.6139
 9431TIP3    H128254   2.473   7.235   1.198  0.2043  0.6963  2.1642
 9431TIP3    H228255   2.357   7.146   1.158 -0.0655  2.2795 -0.6391
 9432TIP3   OH228256   0.539   0.575   2.281  0.0256 -0.4666  0.1859
 9432TIP3    H128257   0.632   0.593   2.267  0.0042  0.4506  1.1361
 9432TIP3    H228258   0.498   0.596   2.197  0.1316  3.2248  0.9544
 9433TIP3   OH228259   2.864   6.232   0.691  0.1374 -0.1224 -0.0616
 9433TIP3    H128260   2.779   6.192   0.673  0.0296 -0.2794  0.7759
 9433TIP3    H228261   2.867   6.241   0.786  0.6619  0.7686 -0.1568
 9434TIP3   OH228262   5.983   1.141   0.761 -0.5757 -0.3614  0.6263
 9434TIP3    H128263   6.012   1.117   0.849 -0.9960 -0.1176  0.8310
 9434TIP3    H228264   6.063   1.142   0.709 -0.1260  0.8552  1.3217
 9435TIP3   OH228265   2.891   3.461   5.720  0.1120 -0.0846  0.0773
 9435TIP3    H128266   2.896   3.401   5.795  0.3937 -0.6339 -0.3828
 9435TIP3    H228267   2.982   3.472   5.692  0.0064  0.1257 -0.1809
 9436TIP3   OH228268   2.654   0.358   6.197  0.4997 -0.2114 -0.0668
 9436TIP3    H128269   2.600   0.326   6.269 -0.1091  2.8199  0.8712
 9436TIP3    H228270   2.744   0.354   6.230  0.1390  2.1081  1.2603
 9437TIP3   OH228271   6.309   1.438   2.906 -0.3011 -0.1635  0.0032
 9437TIP3    H128272   6.326   1.423   2.999  1.1020 -0.3450 -0.2613
 9437TIP3    H228273   6.365   1.513   2.883 -0.5842 -0.1584 -0.7002
 9438TIP3   OH228274   1.238   0.344   0.881  0.0057 -0.6383 -0.2200
 9438TIP3    H128275   1.254   0.256   0.848  1.0150 -0.1769 -0.9950
 9438TIP3    H228276   1.234   0.334   0.976  2.4964 -1.1773 -0.1393
 9439TIP3   OH228277   1.242   4.011   5.941 -0.6335 -0.1052 -0.3136
 9439TIP3    H128278   1.268   4.089   5.891  2.0471 -0.0298  1.1034
 9439TIP3    H228279   1.241   3.940   5.877  2.0633  0.1204 -0.6444
 9440TIP3   OH228280   1.155   2.222   0.083 -0.1132 -0.3126  0.2763
 9440TIP3    H128281   1.092   2.250   0.017 -0.1160 -0.5312  0.1857
 9440TIP3    H228282   1.133   2.273   0.161  0.5692  0.7371 -0.2081
 9441TIP3   OH228283   6.085   3.100   0.910  0.3922  0.4746  0.2030
 9441TIP3    H128284   6.051   3.027   0.962 -0.1596 -0.0037 -0.8215
 9441TIP3    H228285   6.021   3.112   0.840  0.3176  2.1550  0.5441
 9442TIP3   OH228286   3.905   7.278   2.219  0.4692 -0.6617  0.1869
 9442TIP3    H128287   3.846   7.325   2.278  1.5619  1.2569 -0.2144
 9442TIP3    H228288   3.992   7.306   2.246  1.0234 -0.5670 -1.6789
 9443TIP3   OH228289   2.262   7.249   0.370  0.4068 -0.0512  0.3154
 9443TIP3    H128290   2.194   7.217   0.429  0.6967 -0.0104  0.6681
 9443TIP3    H228291   2.314   7.171   0.349  1.1779  0.2040  1.2586
 9444TIP3   OH228292   5.684   3.028   0.815 -0.4699 -0.1052  0.4449
 9444TIP3    H128293   5.625   3.067   0.879 -0.7333  1.1366 -0.5453
 9444TIP3    H228294   5.715   3.101   0.762  0.9094 -0.9206  0.0908
 9445TIP3   OH228295   5.139   0.187   1.499 -0.3577  0.1932 -0.3632
 9445TIP3    H128296   5.127   0.274   1.538 -0.4185  0.3889 -0.8056
 9445TIP3    H228297   5.223   0.157   1.533 -0.7451  0.0515  0.4798
 9446TIP3   OH228298   5.389   6.766   4.208  0.1390 -0.0892  0.3189
 9446TIP3    H128299   5.341   6.751   4.126  0.0168  0.8677  0.2107
 9446TIP3    H228300   5.474   6.801   4.180  0.9286 -1.7755  0.5104
 9447TIP3   OH228301   4.514   7.006   1.924  0.4030 -0.1831 -0.6734
 9447TIP3    H128302   4.563   7.051   1.992  0.2344  0.4221 -0.9392
 9447TIP3    H228303   4.426   6.995   1.960 -0.4450  2.5381 -1.7656
 9448TIP3   OH228304   0.383   1.177   0.854  0.1614  0.0256 -0.2485
 9448TIP3    H128305   0.442   1.195   0.781  0.7802 -1.4691 -0.1292
 9448TIP3    H228306   0.438   1.136   0.920 -0.8176 -0.4703  0.2669
 9449TIP3   OH228307   3.500   2.536   2.276 -0.1690 -0.4136 -0.0574
 9449TIP3    H128308   3.566   2.532   2.345 -1.3932 -0.8377  1.1246
 9449TIP3    H228309   3.542   2.497   2.200  0.7277 -1.2374  0.8517
 9450TIP3   OH228310   1.903   2.981   5.179  0.2862 -0.0574 -0.2111
 9450TIP3    H128311   1.892   3.040   5.105 -1.6520 -1.4187 -1.0614
 9450TIP3    H228312   1.986   3.006   5.218 -0.0164  2.5242 -1.1590
 9451TIP3   OH228313   4.131   6.749   0.609 -0.3104  0.2333 -0.1802
 9451TIP3    H128314   4.045   6.713   0.588  0.6232 -1.3912 -1.3190
 9451TIP3    H228315   4.116   6.843   0.616 -1.7294  0.2565 -2.8246
 9452TIP3   OH228316   5.925   2.157   0.588  0.2032  0.0357 -0.6445
 9452TIP3    H128317   5.897   2.162   0.496 -0.7247 -0.1176 -0.3811
 9452TIP3    H228318   5.878   2.229   0.630  0.6324  0.1061 -0.2919
 9453TIP3   OH228319   0.396   0.268   0.875 -0.2178  0.0282  0.0591
 9453TIP3    H128320   0.445   0.274   0.957  2.0615 -2.9179 -1.0223
 9453TIP3    H228321   0.426   0.344   0.824  2.0640 -0.8492  0.0504
 9454TIP3   OH228322   6.492   0.564   3.092  0.1113  0.2269 -0.4527
 9454TIP3    H128323   6.426   0.634   3.093  0.3431  0.4497  1.0121
 9454TIP3    H228324   6.565   0.601   3.142  1.5300  0.1580 -2.4715
 9455TIP3   OH228325   0.437   2.285   0.116  0.2677 -0.2354  0.4379
 9455TIP3    H128326   0.362   2.244   0.073 -0.4236 -0.0305  1.4452
 9455TIP3    H228327   0.501   2.215   0.126 -0.1925 -0.6391  0.5161
 9456TIP3   OH228328   1.275   6.260   6.191  0.1174 -0.1995  0.2715
 9456TIP3    H128329   1.274   6.323   6.263 -3.2492  2.4446 -1.9234
 9456TIP3    H228330   1.190   6.215   6.197 -0.7588  0.9289 -2.6836
 9457TIP3   OH228331   4.241   4.485   5.725 -0.2029 -0.5326  0.1949
 9457TIP3    H128332   4.180   4.506   5.654 -1.4098  0.1873  1.4358
 9457TIP3    H228333   4.324   4.467   5.680 -0.3365  2.2108 -1.2355
 9458TIP3   OH228334   0.096   0.619   2.735  0.4614  0.1150  0.1629
 9458TIP3    H128335   0.163   0.625   2.803  1.8416 -1.5568 -1.0183
 9458TIP3    H228336   0.092   0.525   2.714 -0.8040  0.4700 -1.2098
 9459TIP3   OH228337   4.666   6.268   0.958 -0.1021  0.0729 -0.3145
 9459TIP3    H128338   4.647   6.328   0.886  0.9291  0.2337 -0.4655
 9459TIP3    H228339   4.749   6.227   0.933  0.4644  0.4148  0.9581
 9460TIP3   OH228340   1.941   7.259   1.455  0.0027 -0.7854 -0.2243
 9460TIP3    H128341   1.881   7.263   1.381 -1.1742 -0.6965  0.7249
 9460TIP3    H228342   1.905   7.321   1.518  2.5141  1.1987 -0.6638
 9461TIP3   OH228343   5.553   1.840   0.663  0.0332 -0.8886 -0.0155
 9461TIP3    H128344   5.501   1.821   0.741 -1.0005  1.1534 -0.1856
 9461TIP3    H228345   5.614   1.909   0.690 -0.3966 -0.1040 -1.0348
 9462TIP3   OH228346   0.998   2.782   5.902 -0.2843  0.0652  0.0382
 9462TIP3    H128347   0.930   2.715   5.908  0.9618 -1.2060  0.2730
 9462TIP3    H228348   0.951   2.865   5.911 -1.8339 -0.7750 -0.1485
 9463TIP3   OH228349   3.589   6.167   2.069 -0.2892 -0.0307 -0.6220
 9463TIP3    H128350   3.577   6.262   2.070  1.2248  0.1700 -0.3989
 9463TIP3    H228351   3.631   6.150   1.985  0.3171 -0.3899 -0.2466
 9464TIP3   OH228352   0.547   4.624   5.498 -0.0371  0.4022  0.3051
 9464TIP3    H128353   0.612   4.691   5.477 -0.8655  1.2137  0.3004
 9464TIP3    H228354   0.569   4.597   5.587  0.2273  0.7674  0.3541
 9465TIP3   OH228355   6.231   1.339   1.540  0.5166 -0.0884 -0.3532
 9465TIP3    H128356   6.163   1.342   1.473  0.5257 -2.0086 -0.4931
 9465TIP3    H228357   6.272   1.253   1.528  0.3975 -0.5460  2.2070
 9466TIP3   OH228358   2.805   5.295   5.851 -0.1974  0.1930  0.1448
 9466TIP3    H128359   2.886   5.342   5.869 -0.6934  0.6598  1.1904
 9466TIP3    H228360   2.745   5.363   5.817 -0.3465 -0.0227 -0.0221
 9467TIP3   OH228361   6.821   1.978   0.804 -0.0778 -0.1297  0.2186
 9467TIP3    H128362   6.865   1.921   0.741  0.6069 -1.1531  1.6178
 9467TIP3    H228363   6.736   1.997   0.763 -0.2375 -1.9764 -0.3349
 9468TIP3   OH228364   0.711   2.008   2.627  0.3373  0.6393  0.0051
 9468TIP3    H128365   0.705   1.912   2.633 -1.9756  0.5494 -2.6683
 9468TIP3    H228366   0.788   2.024   2.572  0.8827  0.3464  0.6735
 9469TIP3   OH228367   5.470   1.274   0.944  0.3727 -0.0350  0.6056
 9469TIP3    H128368   5.436   1.355   0.982  1.5760 -0.2105  2.0913
 9469TIP3    H228369   5.481   1.294   0.851 -2.7679  0.3459  0.2517
 9470TIP3   OH228370   5.922   1.705   3.330 -0.1731  0.6422 -0.1994
 9470TIP3    H128371   5.827   1.697   3.336 -0.0980  1.0731  1.9545
 9470TIP3    H228372   5.954   1.678   3.416  1.6483  0.7388 -0.8172
 9471TIP3   OH228373   2.451   6.612   2.787  0.1632  0.4988 -0.1668
 9471TIP3    H128374   2.408   6.685   2.831  0.3246  0.6682 -0.2959
 9471TIP3    H228375   2.414   6.613   2.698  0.5096  0.7040 -0.3074
 9472TIP3   OH228376   1.831   0.009   2.474 -0.1494 -0.2674 -0.2616
 9472TIP3    H128377   1.879  -0.062   2.430 -0.0800  0.3452 -1.1662
 9472TIP3    H228378   1.875   0.089   2.446  0.6185  0.0764  1.7887
 9473TIP3   OH228379   5.372   1.023   2.527 -0.3875  0.4569  0.0949
 9473TIP3    H128380   5.437   0.953   2.515  0.2549  1.1024 -0.2158
 9473TIP3    H228381   5.290   0.984   2.498 -0.1044 -0.2881  0.2616
 9474TIP3   OH228382   6.141   2.015   2.716 -0.0641 -0.3916  0.9017
 9474TIP3    H128383   6.118   2.105   2.696  0.0153 -0.3629  0.9394
 9474TIP3    H228384   6.092   1.963   2.653 -0.4019 -0.3434  1.1216
 9475TIP3   OH228385   6.037   1.067   2.468  0.6676 -0.1266 -0.4186
 9475TIP3    H128386   6.103   1.000   2.489 -0.1085 -0.4629  0.9895
 9475TIP3    H228387   6.067   1.146   2.513  0.1500 -0.2621  0.1684
 9476TIP3   OH228388   5.669   0.797   0.243  0.2422 -0.2976  0.7159
 9476TIP3    H128389   5.687   0.704   0.258 -0.6424 -0.3388  1.5908
 9476TIP3    H228390   5.574   0.801   0.234  0.2880  0.5167  0.6330
 9477TIP3   OH228391   0.823   3.785   6.010  0.3252  0.1167 -0.3394
 9477TIP3    H128392   0.893   3.824   6.062 -0.7721  0.9440  0.5179
 9477TIP3    H228393   0.811   3.846   5.937 -0.0533  0.3818 -0.0547
 9478TIP3   OH228394   1.004   3.079   5.426 -0.0052  0.5109 -0.3435
 9478TIP3    H128395   0.941   3.020   5.386 -0.3870  1.3450 -0.9889
 9478TIP3    H228396   0.956   3.121   5.497  0.5741 -0.7219  0.7952
 9479TIP3   OH228397   1.289   5.190   5.654 -0.2824  0.1451  0.4332
 9479TIP3    H128398   1.249   5.276   5.640  0.4336  0.4074 -0.0282
 9479TIP3    H228399   1.320   5.193   5.745  1.7155  1.2019 -0.2556
 9480TIP3   OH228400   2.761   1.306   4.689 -0.1591  0.0377 -0.0432
 9480TIP3    H128401   2.701   1.263   4.750  0.0270 -1.8149 -1.1392
 9480TIP3    H228402   2.704   1.337   4.618  0.0652 -0.9018 -0.6333
 9481TIP3   OH228403   4.539   5.112   2.979 -0.0172  0.4236 -0.9072
 9481TIP3    H128404   4.619   5.149   3.015 -0.2035  0.4030 -0.4688
 9481TIP3    H228405   4.560   5.020   2.964 -0.0672  0.3397 -0.4649
 9482TIP3   OH228406   4.256   7.329   1.034  0.4421  0.3666 -0.3419
 9482TIP3    H128407   4.239   7.237   1.016  1.9994 -0.0747  0.3178
 9482TIP3    H228408   4.198   7.377   0.974 -0.0975 -1.0337 -0.9534
 9483TIP3   OH228409   5.402   1.044   2.183 -0.3261 -0.3806  0.1697
 9483TIP3    H128410   5.442   1.063   2.268  1.0549  0.8391 -0.7273
 9483TIP3    H228411   5.470   0.997   2.135  0.4715  2.5807 -1.7239
 9484TIP3   OH228412   5.211   2.204   1.269 -0.7790  0.8914  0.4284
 9484TIP3    H128413   5.298   2.242   1.279 -0.4841  0.4512 -0.3926
 9484TIP3    H228414   5.157   2.275   1.237 -0.4561  0.8752 -0.1580
 9485TIP3   OH228415   0.067   0.707   0.218 -0.1343 -0.1598  0.5041
 9485TIP3    H128416  -0.011   0.758   0.238 -0.0601  0.2749 -0.2839
 9485TIP3    H228417   0.135   0.745   0.273  0.0622  0.9966 -0.5137
 9486TIP3   OH228418   5.764   1.879   0.367  0.1936  0.2217 -0.6821
 9486TIP3    H128419   5.736   1.788   0.374 -0.2621  0.3698 -0.5818
 9486TIP3    H228420   5.849   1.875   0.324 -0.1628 -0.2024 -1.3461
 9487TIP3   OH228421   3.995   4.514   4.329 -0.1395 -0.0449  0.1340
 9487TIP3    H128422   3.910   4.470   4.332  0.3101 -0.8678  1.1725
 9487TIP3    H228423   4.014   4.523   4.236 -0.8502 -0.8693 -0.1022
 9488TIP3   OH228424   1.718   5.003   5.814  0.4064  0.4265 -0.9060
 9488TIP3    H128425   1.808   4.981   5.789  0.4286 -0.9161  0.2619
 9488TIP3    H228426   1.717   5.098   5.819  2.8758  0.3586  2.9349
 9489TIP3   OH228427   0.308   5.218   5.428  0.4801 -0.8729  0.0721
 9489TIP3    H128428   0.257   5.259   5.497  0.4216  0.3268 -0.6699
 9489TIP3    H228429   0.396   5.252   5.439  0.6423 -1.2770  0.0319
 9490TIP3   OH228430   5.507   0.179   1.014 -0.3762 -0.1816 -0.2581
 9490TIP3    H128431   5.567   0.248   0.983  0.3235 -0.1947  1.0230
 9490TIP3    H228432   5.560   0.127   1.074 -1.6722 -0.1883  0.9117
 9491TIP3   OH228433   4.157   2.597   1.886 -0.5429 -0.5138  0.2526
 9491TIP3    H128434   4.198   2.541   1.820  2.3015 -0.0796  1.5706
 9491TIP3    H228435   4.205   2.680   1.880 -1.3583  0.0805  1.7355
 9492TIP3   OH228436   6.663   1.112   1.536  0.1301  0.3829 -0.1162
 9492TIP3    H128437   6.723   1.123   1.462  0.8743  0.4167  0.4909
 9492TIP3    H228438   6.699   1.166   1.606  0.3836 -0.9873  0.8366
 9493TIP3   OH228439   6.428   4.213   5.861  0.3537 -0.0302 -0.6179
 9493TIP3    H128440   6.360   4.241   5.800  0.7509 -0.5743 -1.3118
 9493TIP3    H228441   6.461   4.294   5.898  0.5722  0.3521 -1.6252
 9494TIP3   OH228442   5.879   3.954   1.387  0.8836 -0.0627 -0.1116
 9494TIP3    H128443   5.823   3.888   1.428  0.9643  0.4271  0.8034
 9494TIP3    H228444   5.850   3.957   1.296 -0.3144 -0.0987  0.2558
 9495TIP3   OH228445   0.072   4.898   5.834 -0.2067 -0.0333  0.4171
 9495TIP3    H128446   0.083   4.805   5.815 -1.3174 -0.2824  0.9729
 9495TIP3    H228447   0.161   4.934   5.832 -0.0142 -0.4951 -2.8337
 9496TIP3   OH228448   7.488   2.273   2.067  0.2905 -0.8474 -0.3575
 9496TIP3    H128449   7.471   2.299   1.977  0.3268  1.1738  0.2113
 9496TIP3    H228450   7.401   2.261   2.106  0.2275  1.0873  0.1320
 9497TIP3   OH228451   1.238   5.590   6.188 -0.1649 -0.2720  0.6025
 9497TIP3    H128452   1.196   5.662   6.141  1.5671  0.4959  0.1598
 9497TIP3    H228453   1.270   5.630   6.269  0.3633 -0.6430  0.5842
 9498TIP3   OH228454   0.100   4.859   5.474  0.1340 -0.1789 -0.4864
 9498TIP3    H128455   0.139   4.849   5.387  2.0750  1.4085  0.1710
 9498TIP3    H228456   0.146   4.795   5.528 -0.0108 -0.1194 -0.2934
 9499TIP3   OH228457   2.460   5.191   5.081 -0.0350  0.3739 -0.1383
 9499TIP3    H128458   2.458   5.287   5.079  1.2663  0.4159 -0.1560
 9499TIP3    H228459   2.426   5.164   4.995  0.0160  0.8309 -0.3021
 9500TIP3   OH228460   1.435   0.302   5.373  0.3801 -0.0341 -0.3301
 9500TIP3    H128461   1.407   0.318   5.283  1.0748  0.0234 -0.5410
 9500TIP3    H228462   1.528   0.323   5.374  0.1508  0.9699  0.6652
 9501TIP3   OH228463   5.698   0.553   0.367 -0.1002  0.6003  0.1382
 9501TIP3    H128464   5.634   0.568   0.437 -0.0954 -2.1067  0.7612
 9501TIP3    H228465   5.778   0.529   0.413  0.8309  2.0273 -0.7146
 9502TIP3   OH228466   7.610   0.343   2.183 -0.0433 -0.0205  0.2264
 9502TIP3    H128467   7.523   0.345   2.223  0.7019  0.6097  1.8314
 9502TIP3    H228468   7.622   0.431   2.147  0.2018  0.1015  0.6038
 9503TIP3   OH228469   0.568   3.537   6.331  0.0207 -0.2564  0.4764
 9503TIP3    H128470   0.538   3.608   6.387 -1.6725 -0.3149 -0.3463
 9503TIP3    H228471   0.615   3.580   6.260 -0.6218  0.0130  0.2151
 9504TIP3   OH228472   7.593   6.187   6.108  0.3808 -0.8049  0.5965
 9504TIP3    H128473   7.665   6.242   6.138 -0.2213 -0.1345  0.8063
 9504TIP3    H228474   7.637   6.110   6.070  1.2508  0.3607 -0.8099
 9505TIP3   OH228475   2.006   5.293   5.873  0.3946 -0.2172  0.7185
 9505TIP3    H128476   1.910   5.300   5.867  0.5794  0.7859 -1.2810
 9505TIP3    H228477   2.027   5.331   5.958 -1.1712 -2.5426  2.1983
 9506TIP3   OH228478   7.148   1.564   0.164 -0.0078 -0.0322 -0.1454
 9506TIP3    H128479   7.230   1.517   0.146  0.8868  0.8859  1.4543
 9506TIP3    H228480   7.175   1.641   0.214 -1.9951 -0.4465  1.6417
 9507TIP3   OH228481   6.719   0.972   1.202 -0.2356 -0.5347  0.9672
 9507TIP3    H128482   6.756   1.059   1.187 -2.5052  0.5728  1.6170
 9507TIP3    H228483   6.753   0.919   1.130  0.4211  1.1132  0.0235
 9508TIP3   OH228484   1.061   3.930   5.250 -0.2251  0.0716  0.3888
 9508TIP3    H128485   1.022   3.843   5.242  1.2007 -0.5051 -0.5193
 9508TIP3    H228486   1.021   3.981   5.180  1.3090 -0.7889 -1.1610
 9509TIP3   OH228487   0.090   1.904   2.820  0.0812 -0.1717 -0.2410
 9509TIP3    H128488   0.157   1.957   2.778 -0.4374  2.4729  2.1289
 9509TIP3    H228489   0.019   1.965   2.839 -0.9077 -1.8893  1.7873
 9510TIP3   OH228490   3.971   6.271   0.505  0.2476  0.5091  0.1840
 9510TIP3    H128491   4.057   6.250   0.542  0.2918 -0.8077 -0.6369
 9510TIP3    H228492   3.981   6.255   0.411 -0.6707  1.1111 -0.0199
 9511TIP3   OH228493   6.015   0.948   0.135  0.4634 -0.1287 -0.4703
 9511TIP3    H128494   6.022   0.885   0.206  1.7418 -1.6863 -1.9526
 9511TIP3    H228495   6.098   0.996   0.137 -0.0633  0.7874 -0.0465
 9512TIP3   OH228496   1.131   3.267   5.903  0.1295 -0.2934  0.2601
 9512TIP3    H128497   1.217   3.276   5.863 -0.0114  2.3778  0.4836
 9512TIP3    H228498   1.134   3.325   5.980 -2.1886  0.6577 -0.3206
 9513TIP3   OH228499   4.827   2.513   1.024  0.4319  0.2467  0.1997
 9513TIP3    H128500   4.744   2.554   1.050  1.0020  1.5855 -0.0569
 9513TIP3    H228501   4.872   2.496   1.106 -0.8854 -2.2415  0.4659
 9514TIP3   OH228502   0.015   1.540   3.172 -0.1706  0.0215 -0.0290
 9514TIP3    H128503  -0.007   1.540   3.079  1.6160 -1.1042 -0.4801
 9514TIP3    H228504   0.110   1.554   3.174  0.0765 -1.7067  1.5355
 9515TIP3   OH228505   7.592   1.290   1.975 -0.2359  0.0144  0.4124
 9515TIP3    H128506   7.661   1.284   2.041 -0.4381 -3.0869  0.4001
 9515TIP3    H228507   7.520   1.238   2.011 -0.0912 -2.3560 -2.5342
 9516TIP3   OH228508   0.317   5.642   5.674 -0.7040 -0.0628  0.1659
 9516TIP3    H128509   0.241   5.681   5.717 -1.6918  0.7717 -2.2119
 9516TIP3    H228510   0.324   5.689   5.590  1.2385 -1.4820 -0.5230
 9517TIP3   OH228511   6.540   4.661   4.505 -0.0987 -0.6186  0.7264
 9517TIP3    H128512   6.587   4.658   4.589  1.1097  1.1332  0.1500
 9517TIP3    H228513   6.523   4.754   4.491 -1.2820 -0.9972 -0.4460
 9518TIP3   OH228514   1.022   1.480   1.902 -0.2894 -0.3845  0.2848
 9518TIP3    H128515   0.950   1.465   1.840  0.2748 -0.0822 -0.4445
 9518TIP3    H228516   1.097   1.501   1.848  0.4189 -0.9313  1.0443
 9519TIP3   OH228517   6.655   5.405   6.124  0.3955  0.6848 -0.4466
 9519TIP3    H128518   6.747   5.428   6.108  0.4911  1.2751  0.8887
 9519TIP3    H228519   6.633   5.345   6.053  1.5907  1.1286 -1.2141
 9520TIP3   OH228520   1.665   6.827   1.706 -0.4789 -0.4567  0.2828
 9520TIP3    H128521   1.672   6.815   1.611 -1.8295  1.7137 -0.1348
 9520TIP3    H228522   1.726   6.899   1.725 -0.0607 -1.0157  1.1100
 9521TIP3   OH228523   5.082   7.210   1.133 -0.2281 -0.1346 -0.1597
 9521TIP3    H128524   5.091   7.292   1.182  0.3248 -1.0709  1.3302
 9521TIP3    H228525   5.012   7.163   1.177 -0.0995 -0.7496 -0.6040
 9522TIP3   OH228526   5.152   0.521   2.385 -0.4272  0.0893  0.6078
 9522TIP3    H128527   5.233   0.470   2.384 -1.2298 -1.1952  0.2535
 9522TIP3    H228528   5.121   0.520   2.295 -1.1423  0.0740  0.8467
 9523TIP3   OH228529   6.567   1.024   2.034 -0.3558  0.4665  0.0535
 9523TIP3    H128530   6.575   0.930   2.048  0.2238  0.8625  2.7727
 9523TIP3    H228531   6.651   1.050   1.995  0.9876  0.3627  2.7315
 9524TIP3   OH228532   1.254   5.584   5.758  0.0478  0.3513 -0.2925
 9524TIP3    H128533   1.238   5.549   5.846 -2.1912  2.4403  0.2163
 9524TIP3    H228534   1.208   5.524   5.699  3.2693 -2.2351 -0.3276
 9525TIP3   OH228535   1.183   1.279   1.290  0.0997  0.1439 -0.4995
 9525TIP3    H128536   1.130   1.237   1.222 -0.2289  0.0004 -0.1583
 9525TIP3    H228537   1.216   1.206   1.343 -1.5380  0.3738  0.8817
 9526TIP3   OH228538   0.445   1.495   1.438 -0.1850 -0.1461 -0.0693
 9526TIP3    H128539   0.354   1.523   1.429 -0.0820  0.5079  0.7597
 9526TIP3    H228540   0.453   1.419   1.381 -1.1288  0.0679 -0.5011
 9527TIP3   OH228541   0.206   1.281   3.043  0.3945 -0.4149  0.7526
 9527TIP3    H128542   0.128   1.252   3.091  0.0228 -1.4145 -0.4371
 9527TIP3    H228543   0.230   1.363   3.085 -3.1569  1.5724 -0.8549
 9528TIP3   OH228544   1.671   5.721   6.144  0.1838  0.3401  0.4140
 9528TIP3    H128545   1.713   5.757   6.222 -0.0929 -0.9925  1.1877
 9528TIP3    H228546   1.625   5.642   6.174 -1.2222  0.6611 -0.7951
 9529TIP3   OH228547   0.335   1.421   0.668 -0.0266 -0.1147 -0.1765
 9529TIP3    H128548   0.347   1.370   0.748  0.9157 -1.8685 -1.4041
 9529TIP3    H228549   0.240   1.424   0.655 -0.0827 -2.4949 -0.6405
 9530TIP3   OH228550   6.235   0.628   1.153  0.3816 -0.0888 -0.1847
 9530TIP3    H128551   6.280   0.546   1.169  0.1905  0.0539  1.0873
 9530TIP3    H228552   6.283   0.668   1.080  2.3215  0.0607  1.1444
 9531TIP3   OH228553   5.989   2.759   1.425 -0.1152  0.1562  0.3994
 9531TIP3    H128554   5.951   2.702   1.358 -0.3832 -0.2251  0.8675
 9531TIP3    H228555   5.986   2.706   1.505 -0.6959  0.9688  0.9159
 9532TIP3   OH228556   0.818   6.247   5.375 -0.4803 -0.1175 -0.1389
 9532TIP3    H128557   0.808   6.277   5.285 -0.0413 -1.1702 -0.5528
 9532TIP3    H228558   0.851   6.157   5.367 -0.6431 -0.2982  1.0651
 9533TIP3   OH228559   1.447   3.761   5.699 -0.0230  0.3949  0.1526
 9533TIP3    H128560   1.372   3.814   5.675  0.8705  0.4865 -2.6617
 9533TIP3    H228561   1.511   3.823   5.733 -0.4840  0.5866  0.6583
 9534TIP3   OH228562   6.062   1.230   1.952  0.1093  0.1289 -0.1785
 9534TIP3    H128563   6.040   1.166   2.020  1.8854 -1.3240 -0.9350
 9534TIP3    H228564   6.152   1.209   1.927 -0.5451  0.5691 -3.0948
 9535TIP3   OH228565   5.515   0.068   2.714 -0.0466 -0.5435  0.0622
 9535TIP3    H128566   5.431   0.040   2.677  0.0464  0.2687 -0.7971
 9535TIP3    H228567   5.491   0.118   2.792 -0.5026  1.3476 -1.2377
 9536TIP3   OH228568   4.664   6.425   0.738  1.0429  0.2055  0.0969
 9536TIP3    H128569   4.654   6.344   0.688  3.2558  0.0321 -0.0775
 9536TIP3    H228570   4.689   6.491   0.674 -0.3877  0.9663  0.2998
 9537TIP3   OH228571   2.022   2.362   5.336 -0.4979 -0.7260  0.4258
 9537TIP3    H128572   1.948   2.388   5.280  1.2613 -0.8823 -2.0570
 9537TIP3    H228573   2.056   2.283   5.295  1.6953 -0.0572  0.8825
 9538TIP3   OH228574   4.375   6.954   0.349  0.2004  0.0617 -0.4979
 9538TIP3    H128575   4.312   6.938   0.279  0.0761 -0.7914 -0.1965
 9538TIP3    H228576   4.325   7.001   0.416  0.1333  0.2356 -0.6702
 9539TIP3   OH228577   7.164   0.190   1.925 -0.1826  0.1714  0.0736
 9539TIP3    H128578   7.239   0.201   1.866 -1.2474  1.6087 -1.0656
 9539TIP3    H228579   7.109   0.125   1.881 -0.9996  1.2771 -0.5407
 9540TIP3   OH228580   4.862   4.065   6.175 -0.0920 -0.1618 -0.2822
 9540TIP3    H128581   4.936   4.126   6.179 -0.9536  0.8095  1.7655
 9540TIP3    H228582   4.887   3.992   6.232 -0.9581  0.4798  0.9409
 9541TIP3   OH228583   5.767   6.247   0.054 -0.6177  0.3052 -0.0166
 9541TIP3    H128584   5.739   6.158   0.076  0.1830  0.3240  1.1375
 9541TIP3    H228585   5.859   6.237   0.028 -0.8434  0.6436 -0.9767
 9542TIP3   OH228586   6.976   4.510   2.560 -0.0401  0.3483  0.1770
 9542TIP3    H128587   7.019   4.596   2.560 -0.9499  0.8107 -0.3581
 9542TIP3    H228588   6.965   4.490   2.467 -0.8157  0.1432  0.3165
 9543TIP3   OH228589   2.250   1.896   4.513 -0.4986 -0.0022  0.5530
 9543TIP3    H128590   2.229   1.866   4.424 -0.0067  0.0517  0.4164
 9543TIP3    H228591   2.210   1.830   4.570  2.1033 -1.9548  0.2261
 9544TIP3   OH228592   5.957   1.312   0.044  0.0047 -0.0530  0.2655
 9544TIP3    H128593   5.973   1.279   0.132 -0.9664 -0.4232  0.3080
 9544TIP3    H228594   5.890   1.380   0.055 -2.0378 -1.8588 -0.4664
 9545TIP3   OH228595   3.129   6.520   0.840  0.0900 -0.1754 -0.5992
 9545TIP3    H128596   3.115   6.562   0.925 -1.5789  1.1256 -1.4797
 9545TIP3    H228597   3.100   6.430   0.853 -1.3854  0.3539 -0.1124
 9546TIP3   OH228598   7.366   1.007   1.146 -0.0672 -0.1031 -0.2834
 9546TIP3    H128599   7.300   0.978   1.210 -0.3416  0.3468 -0.3585
 9546TIP3    H228600   7.334   0.974   1.062  0.7560 -1.4798 -0.0867
 9547TIP3   OH228601   6.416   3.609   0.163  0.5401  0.0071  0.7324
 9547TIP3    H128602   6.341   3.564   0.124  1.8588 -0.1876 -1.6211
 9547TIP3    H228603   6.490   3.550   0.149  1.6794  1.4861  0.4745
 9548TIP3   OH228604   7.592   1.469   0.815 -0.5272 -0.1746 -0.2045
 9548TIP3    H128605   7.552   1.437   0.734  0.3022  0.1472 -0.7536
 9548TIP3    H228606   7.546   1.423   0.885 -1.1212 -0.6015 -0.8740
 9549TIP3   OH228607   0.217   5.405   5.957  0.3818  0.0402 -0.0171
 9549TIP3    H128608   0.137   5.444   5.992  0.4526  0.7462 -0.6165
 9549TIP3    H228609   0.186   5.347   5.886  0.1729 -2.0172  1.7107
 9550TIP3   OH228610   6.654   1.938   0.340  0.3341  0.2405 -0.2446
 9550TIP3    H128611   6.621   2.020   0.302 -0.5714 -0.7188 -1.5580
 9550TIP3    H228612   6.729   1.916   0.285 -0.2317 -0.4977 -0.7327
 9551TIP3   OH228613   5.316   1.529   1.607 -0.2404  0.0008  0.2233
 9551TIP3    H128614   5.282   1.603   1.657 -0.3798 -0.1884  0.4098
 9551TIP3    H228615   5.343   1.466   1.674  0.6036  0.2078  0.0837
 9552TIP3   OH228616   1.627   3.395   5.163 -0.2273  0.4496 -0.1669
 9552TIP3    H128617   1.707   3.428   5.204 -0.0851  0.5368 -0.5188
 9552TIP3    H228618   1.651   3.379   5.072 -0.4116 -0.2060 -0.1067
 9553TIP3   OH228619   4.704   7.221   0.128  0.1989  0.4253  0.5695
 9553TIP3    H128620   4.703   7.161   0.203  0.9046 -0.0625  0.1928
 9553TIP3    H228621   4.697   7.164   0.051 -1.0024  0.9563  0.2823
 9554TIP3   OH228622   5.443   6.785   0.524  0.2741 -0.1765  0.0229
 9554TIP3    H128623   5.360   6.739   0.536  0.2547 -0.6945 -1.8850
 9554TIP3    H228624   5.418   6.878   0.518  0.1592 -0.0364  2.3791
 9555TIP3   OH228625   3.729   6.664   0.031 -0.0171  0.4198  0.3183
 9555TIP3    H128626   3.638   6.694   0.037 -0.8952 -1.7673 -1.1644
 9555TIP3    H228627   3.754   6.680  -0.060  1.3950  1.8375  0.9555
 9556TIP3   OH228628   1.862   6.690   1.454  0.0864 -0.3246 -0.2253
 9556TIP3    H128629   1.938   6.660   1.404 -0.0324  0.5932 -0.9554
 9556TIP3    H228630   1.812   6.744   1.393 -0.9315 -0.5667  0.3824
 9557TIP3   OH228631   1.524   6.931   0.677  0.0100  0.7310  0.7507
 9557TIP3    H128632   1.606   6.899   0.640 -1.2146  0.4298 -1.7857
 9557TIP3    H228633   1.519   7.022   0.650 -0.0330  1.0206  1.7305
 9558TIP3   OH228634   5.957   1.281   1.719 -0.2144 -0.1270  0.4068
 9558TIP3    H128635   6.001   1.250   1.798 -0.6869 -0.8899  0.3773
 9558TIP3    H228636   6.026   1.320   1.666  0.2692 -0.5230  0.7516
 9559TIP3   OH228637   3.463   2.768   3.295  0.3348 -0.1587  0.1213
 9559TIP3    H128638   3.442   2.830   3.364  0.7610 -2.0820  2.0192
 9559TIP3    H228639   3.557   2.778   3.281 -0.2276  2.3545 -2.3539
 9560TIP3   OH228640   5.390   1.274   2.403  0.1943  0.1606 -0.4070
 9560TIP3    H128641   5.388   1.187   2.443 -1.8327 -0.6490 -2.1445
 9560TIP3    H228642   5.481   1.287   2.378  0.5978 -1.2930  0.2377
 9561TIP3   OH228643   6.880   0.693   1.720  0.0616 -0.2858  0.2397
 9561TIP3    H128644   6.880   0.627   1.651  0.4479 -0.4352  0.3835
 9561TIP3    H228645   6.830   0.654   1.791 -2.1785  0.6926 -0.7396
 9562TIP3   OH228646   2.018   5.019   5.743 -0.2737 -0.1423 -0.5737
 9562TIP3    H128647   2.103   4.990   5.710  0.0243 -0.3508  0.3485
 9562TIP3    H228648   2.030   5.111   5.764 -0.2975 -0.1496 -0.5273
 9563TIP3   OH228649   0.004   5.372   4.851  0.1240 -0.2177  0.1148
 9563TIP3    H128650   0.068   5.382   4.781  1.5295  2.0793  1.6482
 9563TIP3    H228651   0.056   5.357   4.930 -1.2442  0.6973  1.2363
 9564TIP3   OH228652   5.005   0.465   6.140  0.4862  0.0678  0.2807
 9564TIP3    H128653   4.965   0.514   6.068  0.1689  1.2091  1.2071
 9564TIP3    H228654   4.930   0.431   6.189  0.6343  1.3452  1.4395
 9565TIP3   OH228655   7.243   2.053   0.295 -0.1097  0.1366  0.1648
 9565TIP3    H128656   7.170   2.024   0.349  0.3636  2.9650  2.4308
 9565TIP3    H228657   7.218   2.140   0.265  1.3049  0.1544 -1.0416
 9566TIP3   OH228658   1.156   1.653   0.358 -0.2579 -0.7436 -0.4163
 9566TIP3    H128659   1.236   1.642   0.410  0.0962  0.1774 -0.7533
 9566TIP3    H228660   1.152   1.747   0.340 -1.3425 -0.8059 -0.5280
 9567TIP3   OH228661   7.517   0.085   3.363 -0.3826  0.7441  0.3903
 9567TIP3    H128662   7.569   0.144   3.417  0.2233  0.1980  0.4102
 9567TIP3    H228663   7.476   0.025   3.425  0.5890 -0.1034  0.2448
 9568TIP3   OH228664   7.672   1.775   3.628  0.0706  0.3852  0.1147
 9568TIP3    H128665   7.707   1.695   3.589  0.1281  0.7043 -0.4861
 9568TIP3    H228666   7.697   1.768   3.721  1.1854  0.3154 -0.1812
 9569TIP3   OH228667   0.734   0.106   1.242  0.1546 -0.5733 -0.3438
 9569TIP3    H128668   0.682   0.106   1.322  1.5873  1.5789  0.6305
 9569TIP3    H228669   0.733   0.015   1.213 -0.9435 -1.2625  1.7574
 9570TIP3   OH228670   7.452   1.247   0.988  0.5873  0.4688 -0.1693
 9570TIP3    H128671   7.387   1.183   1.017  1.1922 -0.2675 -0.4493
 9570TIP3    H228672   7.456   1.311   1.059 -1.0549  0.9726 -0.5077
 9571TIP3   OH228673   6.181   0.665   0.426 -0.2292 -0.2269 -0.0296
 9571TIP3    H128674   6.243   0.636   0.492 -0.1732  0.4723  0.2336
 9571TIP3    H228675   6.229   0.661   0.344 -0.3854 -1.3679 -0.0733
 9572TIP3   OH228676   6.508   0.748   2.513  0.1557 -0.7707  0.0718
 9572TIP3    H128677   6.604   0.739   2.515  0.7776  4.6329 -0.2415
 9572TIP3    H228678   6.485   0.736   2.421  0.7741 -0.1213 -0.1732
 9573TIP3   OH228679   1.378   1.456   1.047  0.2685  0.0566  0.1071
 9573TIP3    H128680   1.459   1.439   1.094  0.2830 -2.6686 -0.8400
 9573TIP3    H228681   1.321   1.498   1.111  1.5153 -0.4105  1.5339
 9574TIP3   OH228682   1.168   2.731   0.968  0.8177 -0.2355  0.0619
 9574TIP3    H128683   1.097   2.772   0.919  0.6023  0.0375  0.5983
 9574TIP3    H228684   1.149   2.751   1.059  2.4662  1.2781  0.1147
 9575TIP3   OH228685   0.582   1.195   0.646 -0.4756  0.3281 -0.0473
 9575TIP3    H128686   0.582   1.203   0.551  2.7741 -3.7656 -0.5424
 9575TIP3    H228687   0.650   1.254   0.676 -0.3323  0.3578 -0.4354
 9576TIP3   OH228688   4.066   3.521   6.070 -0.1238 -0.1991 -0.1714
 9576TIP3    H128689   4.037   3.431   6.064  0.4141 -0.3352 -0.6863
 9576TIP3    H228690   4.088   3.533   6.163  0.4461 -0.7951 -0.2287
 9577TIP3   OH228691   2.248   5.088   6.031 -0.0924 -0.1874 -0.2073
 9577TIP3    H128692   2.305   5.112   6.104 -0.2151  1.4290 -0.6339
 9577TIP3    H228693   2.307   5.055   5.964  0.1277 -0.5693  0.1692
 9578TIP3   OH228694   4.200   5.555   6.208 -0.4606 -0.0173 -0.3034
 9578TIP3    H128695   4.190   5.616   6.281  0.7340 -0.4932  0.2642
 9578TIP3    H228696   4.148   5.479   6.232 -1.4819  0.5418 -0.7467
 9579TIP3   OH228697   1.370   6.318   5.933 -0.0497  0.1526  0.2446
 9579TIP3    H128698   1.378   6.232   5.892 -1.4978  0.1748 -0.1026
 9579TIP3    H228699   1.319   6.303   6.012 -0.7549  0.7718 -0.0834
 9580TIP3   OH228700   7.371   0.610   0.171  0.1498 -1.1986 -0.8098
 9580TIP3    H128701   7.398   0.680   0.230 -1.2818 -2.5029  1.4886
 9580TIP3    H228702   7.389   0.643   0.084 -0.7761  2.1351  0.2014
 9581TIP3   OH228703   5.714   7.026   0.474 -0.3432 -0.2631  0.8722
 9581TIP3    H128704   5.793   7.043   0.525 -1.2810 -2.0911  3.0228
 9581TIP3    H228705   5.651   7.091   0.505  0.3404  1.3232 -0.9830
 9582TIP3   OH228706   3.545   6.059   1.343 -0.6940  0.6721 -0.0136
 9582TIP3    H128707   3.473   6.119   1.360 -0.5401  1.0083 -0.5199
 9582TIP3    H228708   3.624   6.108   1.366 -0.6069  0.4410  0.1786
 9583TIP3   OH228709   5.976   1.220   0.289  0.3878 -0.0558 -0.2681
 9583TIP3    H128710   6.057   1.176   0.312 -0.4466 -0.6452  1.6267
 9583TIP3    H228711   5.912   1.150   0.277  0.0110  0.4283 -1.2384
 9584TIP3   OH228712   0.707   1.651   1.931 -0.2722 -0.3502  0.2380
 9584TIP3    H128713   0.632   1.622   1.983  0.5676 -1.6237  0.7649
 9584TIP3    H228714   0.728   1.577   1.875 -0.2014  0.4666 -0.8347
 9585TIP3   OH228715   7.564   5.680   0.147  0.1724  0.2510 -0.3845
 9585TIP3    H128716   7.527   5.619   0.211 -0.8104 -0.1375 -1.3130
 9585TIP3    H228717   7.641   5.635   0.112 -0.3487 -0.3192 -0.8091
 9586TIP3   OH228718   0.776   0.590   2.079  0.7423  0.5134 -0.1502
 9586TIP3    H128719   0.850   0.538   2.049 -0.3170 -0.2871 -1.4108
 9586TIP3    H228720   0.705   0.570   2.018 -0.4308  1.5092  0.8410
 9587TIP3   OH228721   7.575   0.344   1.414 -0.7972 -0.0161 -0.0451
 9587TIP3    H128722   7.554   0.379   1.328 -0.5065  1.0276  0.2884
 9587TIP3    H228723   7.540   0.409   1.475  1.1829  0.5207  0.5622
 9588TIP3   OH228724   1.279   5.768   5.295 -0.1557  0.3296 -0.1091
 9588TIP3    H128725   1.358   5.756   5.242 -0.4107  0.9625 -0.6322
 9588TIP3    H228726   1.284   5.859   5.325 -0.5044  0.2585  0.1633
 9589TIP3   OH228727   5.578   6.825   3.233  0.2531  0.2459  0.2172
 9589TIP3    H128728   5.589   6.739   3.192  0.3250  0.4359 -0.1664
 9589TIP3    H228729   5.647   6.830   3.298 -0.8123 -0.6946  1.4448
 9590TIP3   OH228730   6.247   1.487   0.244 -0.2498 -0.0144 -0.4639
 9590TIP3    H128731   6.166   1.526   0.211 -0.6674 -0.0322  0.5328
 9590TIP3    H228732   6.289   1.557   0.294  0.5805  0.1328 -1.3417
 9591TIP3   OH228733   7.366   6.580   0.698 -0.1574 -0.0848  0.0698
 9591TIP3    H128734   7.432   6.637   0.659 -0.8637 -0.1002 -1.1981
 9591TIP3    H228735   7.298   6.573   0.630 -1.8635  0.6106  1.6790
 9592TIP3   OH228736   0.334   3.162   0.692 -0.4092  0.2581 -0.2018
 9592TIP3    H128737   0.270   3.212   0.743 -0.6744 -0.8965  0.6313
 9592TIP3    H228738   0.340   3.078   0.738  0.4936 -0.2397 -1.2136
 9593TIP3   OH228739   1.494   0.127   2.216  0.4223 -0.0608 -0.0456
 9593TIP3    H128740   1.416   0.177   2.242  0.8166  0.1191  0.8085
 9593TIP3    H228741   1.531   0.096   2.298  1.1327 -0.3402 -0.4665
 9594TIP3   OH228742   1.165   1.932   0.365  0.3418 -0.3403  0.3532
 9594TIP3    H128743   1.226   1.975   0.425 -0.8228  0.9996  0.6140
 9594TIP3    H228744   1.183   1.971   0.280 -0.6608  0.6370  0.5747
 9595TIP3   OH228745   6.821   1.613   1.685 -0.7534  0.6400  0.5459
 9595TIP3    H128746   6.909   1.646   1.706 -1.1583  1.0994  1.5515
 9595TIP3    H228747   6.766   1.645   1.757 -1.7296  0.2930 -0.0458
 9596TIP3   OH228748   0.514   5.065   6.112  0.2172 -0.0578 -0.2309
 9596TIP3    H128749   0.525   4.985   6.164  1.6276 -0.1793 -0.6862
 9596TIP3    H228750   0.424   5.092   6.129  0.8939  0.3872  2.9529
 9597TIP3   OH228751   1.313   0.866   0.376 -0.2438  0.4981 -0.2976
 9597TIP3    H128752   1.383   0.931   0.381  1.0424 -0.8163 -0.5494
 9597TIP3    H228753   1.322   0.816   0.457 -2.7151  2.0749  0.9982
 9598TIP3   OH228754   0.620   1.728   1.271  0.4397  0.0371  0.6628
 9598TIP3    H128755   0.645   1.636   1.273 -3.7699 -1.2323 -0.8457
 9598TIP3    H228756   0.552   1.736   1.338  0.4395  1.9725  0.4641
 9599TIP3   OH228757   0.390   1.046   1.199  0.2145 -0.0953 -0.3260
 9599TIP3    H128758   0.337   0.997   1.136  0.4157  1.1554 -1.4820
 9599TIP3    H228759   0.360   1.014   1.285 -1.6749 -0.1746 -0.9830
 9600TIP3   OH228760   2.638   4.334   6.305  0.1793  0.2831  0.0042
 9600TIP3    H128761   2.637   4.358   6.398 -0.6721  0.7966 -0.1298
 9600TIP3    H228762   2.715   4.378   6.270  0.2430  0.4715  0.3715
 9601TIP3   OH228763   4.080   4.592   5.501  0.3375 -0.8538  0.0831
 9601TIP3    H128764   4.146   4.649   5.461 -0.4397  0.3280  0.4609
 9601TIP3    H228765   3.996   4.632   5.477 -0.1839 -1.1981  1.3116
 9602TIP3   OH228766   6.252   1.172   0.637  0.1703  0.2167  0.0888
 9602TIP3    H128767   6.324   1.227   0.668 -0.5436  0.5943  1.1148
 9602TIP3    H228768   6.238   1.200   0.546  1.2707  0.1709 -0.1067
 9603TIP3   OH228769   6.491   1.898   2.757 -0.2277  0.1527  0.0372
 9603TIP3    H128770   6.418   1.843   2.730  0.4730 -1.6676  1.7379
 9603TIP3    H228771   6.461   1.941   2.837  0.2204  0.1343  0.2172
 9604TIP3   OH228772   6.340   1.206   1.839  0.1346  0.2771  1.0455
 9604TIP3    H128773   6.383   1.154   1.771  1.5899  1.0864  1.3341
 9604TIP3    H228774   6.365   1.164   1.921 -1.0556 -0.2815  1.1428
 9605TIP3   OH228775   1.540   0.175   0.949  0.8533  0.8940 -0.3470
 9605TIP3    H128776   1.611   0.231   0.916  0.9664  0.1495 -1.3854
 9605TIP3    H228777   1.580   0.126   1.021  1.2855  0.7701 -0.6667
 9606TIP3   OH228778   0.045   0.241   3.227  0.5350  0.9837  0.6147
 9606TIP3    H128779   0.021   0.148   3.234  0.9115  0.6881 -1.5495
 9606TIP3    H228780   0.141   0.239   3.219  0.5003  1.5051  0.0472
 9607TIP3   OH228781   2.911   6.742   5.900 -0.1791 -0.1700  0.2803
 9607TIP3    H128782   2.868   6.809   5.953  1.3258  0.9732  0.1002
 9607TIP3    H228783   2.965   6.693   5.962 -0.0960 -0.2170  0.1709
 9608TIP3   OH228784   5.008   0.404   2.838 -0.6643 -0.1174 -0.5845
 9608TIP3    H128785   4.929   0.458   2.837 -0.2652  0.5761  2.3025
 9608TIP3    H228786   5.079   0.465   2.861 -0.1651 -1.7393  2.4083
 9609TIP3   OH228787   3.366   5.644   4.665  0.2003  0.1087  0.2219
 9609TIP3    H128788   3.324   5.613   4.745 -0.3305  0.9037  0.2525
 9609TIP3    H228789   3.374   5.565   4.610  1.5119 -0.6541  1.4511
 9610TIP3   OH228790   2.726   4.455   4.626 -0.1412 -0.2120 -0.1213
 9610TIP3    H128791   2.674   4.431   4.549  0.8668  1.2158 -1.2739
 9610TIP3    H228792   2.721   4.550   4.630 -0.3831 -0.2875  1.7496
 9611TIP3   OH228793   0.944   1.593   1.214 -0.4831 -0.1223  0.0420
 9611TIP3    H128794   0.987   1.601   1.129 -0.1543 -1.3996  0.0907
 9611TIP3    H228795   0.862   1.548   1.195 -1.5660  1.7718  0.0378
 9612TIP3   OH228796   5.895   3.383   0.374  0.1174 -0.4033 -0.2725
 9612TIP3    H128797   5.875   3.306   0.320  0.9700  0.5861 -2.0358
 9612TIP3    H228798   5.867   3.457   0.321 -0.4489  0.5402  1.3178
 9613TIP3   OH228799   6.815   2.424   1.879 -0.3689  0.1485  0.5441
 9613TIP3    H128800   6.805   2.392   1.969 -0.6714  0.1010  0.4939
 9613TIP3    H228801   6.837   2.517   1.889 -0.0560  0.0628  0.6739
 9614TIP3   OH228802   4.829   7.275   2.427 -0.2059 -0.3758  0.0738
 9614TIP3    H128803   4.902   7.334   2.448  0.2928 -1.7509  2.2957
 9614TIP3    H228804   4.752   7.333   2.423  0.3469  0.5033  1.8015
 9615TIP3   OH228805   6.436   1.159   2.560 -0.1369 -0.1218  0.1773
 9615TIP3    H128806   6.350   1.198   2.542 -0.3341 -0.7645 -0.2641
 9615TIP3    H228807   6.498   1.214   2.511 -0.1221  1.2380  1.6628
 9616TIP3   OH228808   2.717   6.594   5.723  0.1531  0.3170 -0.8926
 9616TIP3    H128809   2.684   6.661   5.663 -1.7280  0.1768 -0.0560
 9616TIP3    H228810   2.788   6.637   5.771 -0.3503  1.3844 -1.0993
 9617TIP3   OH228811   2.216   5.134   5.299  0.8119  0.1505 -0.1084
 9617TIP3    H128812   2.205   5.199   5.368  1.0616 -0.9443  0.9853
 9617TIP3    H228813   2.276   5.175   5.237  0.6147  1.1317  0.3384
 9618TIP3   OH228814   0.993   5.906   5.659 -0.5163 -0.3563  0.6872
 9618TIP3    H128815   0.915   5.857   5.632 -1.5436  0.6668  1.7573
 9618TIP3    H228816   1.046   5.914   5.580 -1.6182 -0.8274 -0.0982
 9619TIP3   OH228817   3.929   5.311   5.910 -0.4511 -0.0271  0.5784
 9619TIP3    H128818   3.916   5.228   5.865  1.0490  0.9952 -1.8013
 9619TIP3    H228819   4.024   5.317   5.922 -0.5789  1.1696  1.0681
 9620TIP3   OH228820   6.088   6.444   0.180  0.6611  0.3082 -0.6591
 9620TIP3    H128821   6.038   6.372   0.143 -1.1599  0.8997  0.6138
 9620TIP3    H228822   6.174   6.407   0.199 -0.1077 -1.3911 -0.4492
 9621TIP3   OH228823   7.230   2.591   0.654 -0.4958  0.3152 -0.5715
 9621TIP3    H128824   7.278   2.570   0.573 -0.0252 -0.0762 -0.1921
 9621TIP3    H228825   7.297   2.590   0.722 -1.0324 -0.1567 -0.0516
 9622TIP3   OH228826   7.140   0.033   0.989  0.4128 -0.3589 -0.2490
 9622TIP3    H128827   7.047   0.030   1.012  0.0568  1.5110 -1.3392
 9622TIP3    H228828   7.170  -0.058   0.998 -1.7897 -1.2029 -1.0319
 9623TIP3   OH228829  -0.002   1.237   1.350  0.7196 -0.4181 -0.9349
 9623TIP3    H128830  -0.027   1.145   1.340 -1.3623 -0.2400  2.0017
 9623TIP3    H228831   0.088   1.234   1.385  0.2628 -1.3946  0.1982
 9624TIP3   OH228832   0.086   0.426   0.137 -0.0595 -0.3790  0.5015
 9624TIP3    H128833   0.067   0.513   0.171  2.3468  0.0268  0.8808
 9624TIP3    H228834   0.000   0.385   0.127 -1.0508  0.8637  3.3812
 9625TIP3   OH228835   4.690   5.403   4.063  0.0787  0.2636 -0.1025
 9625TIP3    H128836   4.701   5.477   4.003  0.5649 -0.2245 -0.6295
 9625TIP3    H228837   4.598   5.406   4.089  0.2047  1.3132  0.2239
 9626TIP3   OH228838   3.974   6.600   0.103  0.3413  0.1782  0.6801
 9626TIP3    H128839   3.884   6.630   0.091  0.8076  1.6299  0.7243
 9626TIP3    H228840   3.978   6.518   0.053 -1.1653 -0.2319  1.1870
 9627TIP3   OH228841   6.326   0.006   1.284 -0.1179  0.2484 -0.1116
 9627TIP3    H128842   6.310   0.095   1.254  1.0687  0.7791  0.7833
 9627TIP3    H228843   6.413   0.009   1.324  0.3921 -1.5516 -1.0059
 9628TIP3   OH228844   7.033   2.016   1.600 -0.0344  0.4065  0.4245
 9628TIP3    H128845   7.068   2.065   1.525 -0.4420 -1.9678 -1.3674
 9628TIP3    H228846   6.938   2.022   1.589 -0.1342  1.4152  1.6932
 9629TIP3   OH228847   7.328   1.838   0.863  0.5017  0.3346 -0.3183
 9629TIP3    H128848   7.261   1.774   0.842  0.1255  0.5999  0.0585
 9629TIP3    H228849   7.304   1.871   0.949  0.1419  1.6825 -0.9202
 9630TIP3   OH228850   6.966   6.659   0.915  0.3735  0.0775  0.4889
 9630TIP3    H128851   6.986   6.607   0.993  2.7796 -0.0698 -0.1926
 9630TIP3    H228852   6.936   6.595   0.851 -1.7815  0.2189  1.3241
 9631TIP3   OH228853   6.236   5.892   1.450 -0.2018  0.1298 -0.0835
 9631TIP3    H128854   6.167   5.841   1.493  1.8024  0.0454  3.2158
 9631TIP3    H228855   6.304   5.828   1.430 -0.1357  0.5719 -1.2915
 9632TIP3   OH228856   1.975   0.246   0.355 -0.8469  0.4187 -0.0215
 9632TIP3    H128857   2.055   0.238   0.305 -0.6753  0.9820  0.1613
 9632TIP3    H228858   1.998   0.215   0.443 -1.3969 -1.5062 -0.5206
 9633TIP3   OH228859   4.057   2.383   5.977  0.4094  0.5910  0.1223
 9633TIP3    H128860   4.115   2.426   6.040  0.5965 -0.7206  0.8616
 9633TIP3    H228861   4.043   2.449   5.909  0.3389  1.9740  1.4444
 9634TIP3   OH228862   5.389   0.489   1.096 -0.0531 -0.2675  0.4896
 9634TIP3    H128863   5.385   0.580   1.125  2.3128 -0.5209  1.8327
 9634TIP3    H228864   5.481   0.476   1.072 -0.4138 -2.2090  0.0734
 9635TIP3   OH228865   1.637   4.958   5.322  0.8502 -0.3372 -0.2492
 9635TIP3    H128866   1.557   4.990   5.361  1.4858  1.7191 -0.5940
 9635TIP3    H228867   1.694   4.938   5.396  1.8989  3.1489 -0.0510
 9636TIP3   OH228868   2.275   5.422   4.797  0.1419  0.3917 -0.2170
 9636TIP3    H128869   2.294   5.334   4.831  0.5095  0.8986  0.9066
 9636TIP3    H228870   2.344   5.438   4.733  3.0765  1.8424  3.1637
 9637TIP3   OH228871   6.465   0.714   0.918 -0.4157  0.7122  0.4740
 9637TIP3    H128872   6.448   0.620   0.912 -1.8011  0.9085  0.9920
 9637TIP3    H228873   6.482   0.742   0.828  1.5635 -0.3016  0.5201
 9638TIP3   OH228874   5.514   2.953   1.436  0.6305  0.0291  0.2634
 9638TIP3    H128875   5.456   3.011   1.386  0.0206 -0.5867  0.2405
 9638TIP3    H228876   5.487   2.865   1.410  0.6918 -0.2831  1.2626
 9639TIP3   OH228877   1.269   3.229   4.842  0.3707 -0.3373  0.7286
 9639TIP3    H128878   1.317   3.311   4.855  0.5628 -0.6947  2.3377
 9639TIP3    H228879   1.328   3.174   4.791  0.2385  0.5284 -0.3718
 9640TIP3   OH228880   5.242   6.320   2.053 -0.1954  0.1887  0.4871
 9640TIP3    H128881   5.151   6.290   2.047 -0.6880  1.6166  0.4919
 9640TIP3    H228882   5.295   6.241   2.044 -1.4546 -0.7182  0.9438
 9641TIP3   OH228883   7.451   0.416   1.846 -0.7192  0.0898  0.3597
 9641TIP3    H128884   7.534   0.456   1.870 -0.9401  0.8573 -0.1470
 9641TIP3    H228885   7.471   0.322   1.838  0.3178  0.3944 -0.7261
 9642TIP3   OH228886   2.977   1.642   0.084 -0.1194 -0.1806  0.8237
 9642TIP3    H128887   2.963   1.638   0.179  0.5274 -1.3771  0.8770
 9642TIP3    H228888   3.062   1.601   0.070  0.4816  1.3529 -0.1325
 9643TIP3   OH228889   6.953   1.762   2.945 -0.0973  0.2431 -0.0414
 9643TIP3    H128890   7.042   1.743   2.974 -0.8746  0.5807  2.6899
 9643TIP3    H228891   6.900   1.691   2.983 -1.0356  0.0887 -1.5678
 9644TIP3   OH228892   4.134   5.052   3.654 -0.6816 -0.1781  0.3178
 9644TIP3    H128893   4.092   5.138   3.651 -1.8860 -0.7843 -0.5920
 9644TIP3    H228894   4.225   5.071   3.675 -0.2032  1.5825 -2.9497
 9645TIP3   OH228895   3.864   3.480   4.307 -0.3778  0.7741 -1.0077
 9645TIP3    H128896   3.936   3.526   4.351  1.9125 -1.1824 -2.5452
 9645TIP3    H228897   3.817   3.436   4.377  1.2243  0.3631 -0.1752
 9646TIP3   OH228898   0.726   1.421   0.773  0.0814 -0.6273  0.0084
 9646TIP3    H128899   0.756   1.365   0.845  1.4093  1.1671  0.8867
 9646TIP3    H228900   0.662   1.480   0.814  0.8483  0.4032 -0.2431
 9647TIP3   OH228901   7.323   0.182   1.129  0.2446  0.2855 -0.1669
 9647TIP3    H128902   7.282   0.174   1.216  1.9021 -2.7035  0.4086
 9647TIP3    H228903   7.261   0.141   1.069 -0.5563  1.6730 -0.3065
 9648TIP3   OH228904   1.585   2.643   0.144  0.1355 -0.1178  0.4216
 9648TIP3    H128905   1.674   2.624   0.115 -1.0451 -0.2830 -3.3748
 9648TIP3    H228906   1.576   2.738   0.132 -0.5433 -0.2664 -0.2632
 9649TIP3   OH228907   2.521   3.905   6.307 -0.8918 -0.1777  0.4542
 9649TIP3    H128908   2.431   3.873   6.296 -0.8707  0.0245 -0.3901
 9649TIP3    H228909   2.517   3.997   6.283 -0.2094 -0.4856 -0.8965
 9650TIP3   OH228910   1.278   1.653   1.242  1.1903 -0.4328  0.5060
 9650TIP3    H128911   1.261   1.747   1.242 -0.8656 -0.7895 -0.3760
 9650TIP3    H228912   1.245   1.622   1.326  0.7629 -0.5464  0.2989
 9651TIP3   OH228913   6.818   1.756   2.366  0.1555  0.0111  0.4952
 9651TIP3    H128914   6.790   1.844   2.390  1.9581  0.2181  1.9316
 9651TIP3    H228915   6.821   1.757   2.271  1.2004  1.8449  0.5337
 9652TIP3   OH228916   7.534   0.557   0.523 -0.1626 -0.0285  0.4472
 9652TIP3    H128917   7.626   0.584   0.526  0.0593 -0.6647 -0.4498
 9652TIP3    H228918   7.538   0.464   0.500 -1.0373 -0.0272  0.2962
 9653TIP3   OH228919   0.178   0.625   1.684  0.0865  0.3407  0.1777
 9653TIP3    H128920   0.212   0.581   1.762  0.5303 -0.3805 -0.4220
 9653TIP3    H228921   0.085   0.639   1.703 -0.6777 -3.2568 -0.7140
 9654TIP3   OH228922   2.510   4.427   5.401  0.4869  0.7256 -0.0629
 9654TIP3    H128923   2.583   4.444   5.340  1.3307 -0.0551  0.7164
 9654TIP3    H228924   2.432   4.432   5.346  1.2704 -0.4516 -1.3378
 9655TIP3   OH228925   0.599   0.302   1.060 -0.0884  0.4152 -0.6519
 9655TIP3    H128926   0.648   0.282   1.140 -0.4797 -0.6165 -0.6672
 9655TIP3    H228927   0.667   0.323   0.995  0.2737  0.2223 -0.3371
 9656TIP3   OH228928   5.595   0.500   3.036 -0.4969 -0.1006  0.0222
 9656TIP3    H128929   5.670   0.487   2.978 -0.2928  1.9827 -0.2384
 9656TIP3    H228930   5.568   0.590   3.019 -0.8896  0.3122  2.6469
 9657TIP3   OH228931   3.199   3.096   4.644 -0.0650 -0.7377 -0.0102
 9657TIP3    H128932   3.234   3.160   4.707  0.3522 -0.8647 -0.1122
 9657TIP3    H228933   3.123   3.058   4.688 -1.3131  1.0031 -0.5783
 9658TIP3   OH228934   3.438   1.016   1.309  0.6123  0.1936  0.0638
 9658TIP3    H128935   3.514   1.075   1.311  1.0803 -0.4325  0.5648
 9658TIP3    H228936   3.416   1.002   1.400  1.7734 -2.0495  0.0225
 9659TIP3   OH228937   0.535   2.486   1.322 -0.5571 -0.2383 -0.2047
 9659TIP3    H128938   0.495   2.453   1.403 -0.3480  2.0758  0.8738
 9659TIP3    H228939   0.565   2.574   1.344 -2.5119  1.3353 -3.4485
 9660TIP3   OH228940   7.481   1.396   1.470 -0.2570  0.0640 -0.1162
 9660TIP3    H128941   7.551   1.391   1.535  0.0817 -0.2916 -0.5098
 9660TIP3    H228942   7.427   1.469   1.500  0.8692  1.0298 -0.3910
 9661TIP3   OH228943   5.474   2.101   0.960 -0.0109  0.0727 -0.0005
 9661TIP3    H128944   5.385   2.114   0.927  0.1508  1.5576  0.1133
 9661TIP3    H228945   5.465   2.029   1.023 -0.7717 -1.0888 -1.4071
 9662TIP3   OH228946   2.328   3.442   6.047  0.7367 -0.0477  0.1127
 9662TIP3    H128947   2.415   3.414   6.016  0.9497  0.0158  0.6407
 9662TIP3    H228948   2.267   3.389   5.997  1.1506 -1.8548  1.4660
 9663TIP3   OH228949   0.235   0.313   1.637  0.0671  0.1132  0.3056
 9663TIP3    H128950   0.241   0.349   1.725 -1.6021  0.5304  0.2609
 9663TIP3    H228951   0.142   0.294   1.625  0.1869  0.6890 -1.6130
 9664TIP3   OH228952   0.052   0.210   0.963  0.2289  0.4161  0.3144
 9664TIP3    H128953   0.036   0.172   1.050  3.2839 -1.6456  0.0594
 9664TIP3    H228954   0.127   0.161   0.929 -0.2280  1.9158 -3.0715
 9665TIP3   OH228955   1.081   6.620   5.640  0.1325 -0.8184  0.6066
 9665TIP3    H128956   1.069   6.545   5.581  1.1240 -1.5646  1.3414
 9665TIP3    H228957   1.117   6.582   5.720  1.5392  0.5620  0.6464
 9666TIP3   OH228958   4.210   1.054   4.524 -0.0608 -0.1239  0.2992
 9666TIP3    H128959   4.157   1.051   4.604  1.2734  0.0608  1.2141
 9666TIP3    H228960   4.285   0.998   4.543  1.2115  1.4006 -0.1118
 9667TIP3   OH228961   2.695   5.515   4.961 -0.0249 -0.2309  0.2329
 9667TIP3    H128962   2.714   5.606   4.983 -0.3559 -0.2103  0.4297
 9667TIP3    H228963   2.669   5.475   5.044  2.4953 -1.1145  0.6577
 9668TIP3   OH228964   7.525   1.122   1.434  0.4148 -0.4811 -0.1145
 9668TIP3    H128965   7.495   1.107   1.344 -0.0383  0.5549 -0.1476
 9668TIP3    H228966   7.487   1.207   1.458  1.4533 -0.2169  0.6512
 9669TIP3   OH228967   0.739   3.370   2.171  0.1293  0.0761 -0.0825
 9669TIP3    H128968   0.651   3.332   2.165  0.1015  0.3655 -1.7431
 9669TIP3    H228969   0.728   3.461   2.142  0.4992  0.9085  2.2691
 9670TIP3   OH228970   0.268   2.107   1.955  0.4797 -0.1164  0.7260
 9670TIP3    H128971   0.288   2.038   1.893  0.9027  0.3849  0.3016
 9670TIP3    H228972   0.221   2.173   1.904  3.6359  1.7941  0.1387
 9671TIP3   OH228973   3.855   3.332   6.156 -0.3138 -0.1032  0.2106
 9671TIP3    H128974   3.818   3.420   6.163 -1.8454 -0.4929 -2.1609
 9671TIP3    H228975   3.779   3.275   6.144  0.7570 -1.5455  0.0984
 9672TIP3   OH228976   4.616   2.479   1.358 -0.2604  0.2956  0.1642
 9672TIP3    H128977   4.571   2.560   1.384 -0.4194 -0.0107  0.8298
 9672TIP3    H228978   4.567   2.449   1.281 -0.1634  0.8660 -0.1238
 9673TIP3   OH228979   4.081   5.278   6.289  0.5813 -0.6386  0.4424
 9673TIP3    H128980   4.005   5.264   6.345 -0.8677  1.2559 -0.9837
 9673TIP3    H228981   4.153   5.296   6.350 -0.4421 -0.9768  1.7673
 9674TIP3   OH228982   4.191   7.027   0.998 -0.5484 -0.4755 -0.1541
 9674TIP3    H128983   4.118   6.984   0.952 -0.9224  0.5543 -0.5313
 9674TIP3    H228984   4.264   7.020   0.936 -0.9613  0.6044 -0.7732
 9675TIP3   OH228985   6.523   1.713   2.188  0.0417 -0.1591 -0.0387
 9675TIP3    H128986   6.432   1.699   2.160  0.0843  0.8956 -0.7366
 9675TIP3    H228987   6.516   1.747   2.277 -0.2275 -0.4103  0.0375
 9676TIP3   OH228988   4.544   3.840   5.895 -0.4938 -0.0262  0.1129
 9676TIP3    H128989   4.536   3.771   5.961 -1.6032  0.0560  0.0777
 9676TIP3    H228990   4.457   3.879   5.890 -0.2717  0.3565 -0.9850
 9677TIP3   OH228991   4.657   2.803   6.053 -0.1402  0.0295  0.6600
 9677TIP3    H128992   4.730   2.829   6.108  0.9417 -0.7060 -0.4091
 9677TIP3    H228993   4.697   2.769   5.973 -1.6266 -0.8773  0.2686
 9678TIP3   OH228994   6.926   0.425   1.816 -0.0718 -0.3180 -0.2413
 9678TIP3    H128995   6.900   0.386   1.900  0.5439  0.0342  0.1180
 9678TIP3    H228996   6.994   0.488   1.839  2.2826 -2.3875 -1.3512
 9679TIP3   OH228997   4.022   2.621   5.777 -0.2432 -0.0670  0.0750
 9679TIP3    H128998   4.111   2.643   5.804 -0.4746  0.0588  0.7469
 9679TIP3    H228999   3.966   2.674   5.834 -0.7674 -1.0272  0.4553
 9680TIP3   OH229000   5.957   1.879   4.726  0.3847 -0.8093  0.1936
 9680TIP3    H129001   6.045   1.878   4.688  0.4739 -2.0681  0.4132
 9680TIP3    H229002   5.899   1.895   4.651  0.9405  2.3037  0.3869
 9681TIP3   OH229003   4.179   3.768   4.438 -0.1128 -0.0745 -0.6200
 9681TIP3    H129004   4.106   3.780   4.378 -0.3475 -0.2189 -0.3632
 9681TIP3    H229005   4.255   3.801   4.390 -0.0805 -1.4276 -1.5085
 9682TIP3   OH229006   7.062   1.048   0.786 -0.2536  0.0470 -0.0574
 9682TIP3    H129007   7.103   1.084   0.707 -0.8788 -0.3068 -0.5438
 9682TIP3    H229008   7.014   0.971   0.756 -1.7745  0.7966  0.4009
 9683TIP3   OH229009   2.973   5.119   6.086  0.5809 -0.1136  0.3560
 9683TIP3    H129010   2.919   5.050   6.124 -0.0600  0.7099  0.9418
 9683TIP3    H229011   3.039   5.071   6.035 -0.3713 -1.1350  0.0543
 9684TIP3   OH229012   4.232   6.099   4.820  0.2926 -0.0951 -0.0713
 9684TIP3    H129013   4.287   6.024   4.798  1.4703  0.7739 -0.1838
 9684TIP3    H229014   4.239   6.106   4.915  0.4246  0.0330 -0.0886
 9685TIP3   OH229015   6.553   6.028   1.013 -0.7482 -0.0682  0.5414
 9685TIP3    H129016   6.516   6.097   1.068 -1.3690 -0.4984  0.6767
 9685TIP3    H229017   6.557   5.951   1.071 -2.4868 -0.8320 -0.3232
 9686TIP3   OH229018   1.367   4.321   3.940 -0.0006 -0.1198  0.3984
 9686TIP3    H129019   1.434   4.270   3.893  0.3226  0.7438 -0.0838
 9686TIP3    H229020   1.333   4.260   4.005 -2.0693 -2.0977 -2.4085
 9687TIP3   OH229021   3.602   3.566   5.332 -0.4134 -0.3365  0.4620
 9687TIP3    H129022   3.527   3.507   5.324 -0.4058 -0.0971 -1.9605
 9687TIP3    H229023   3.566   3.653   5.318  0.2372 -0.1874 -0.3613
 9688TIP3   OH229024   3.145   5.458   6.303 -0.2694 -0.2161  0.1148
 9688TIP3    H129025   3.205   5.509   6.357 -0.4822  1.4109 -1.1588
 9688TIP3    H229026   3.060   5.502   6.311 -0.8470 -1.3328  0.3156
 9689TIP3   OH229027   6.508   5.739   0.346  0.0838 -0.6436  0.3491
 9689TIP3    H129028   6.571   5.809   0.365 -1.6355  1.8657 -2.5749
 9689TIP3    H229029   6.462   5.724   0.428  1.3249  0.8237  1.3329
 9690TIP3   OH229030   2.728   4.757   6.107 -0.2584 -0.8255  0.6304
 9690TIP3    H129031   2.813   4.718   6.087 -0.2373 -0.9339  0.9357
 9690TIP3    H229032   2.666   4.685   6.101 -0.3681 -0.6927  0.1419
 9691TIP3   OH229033   5.349   0.817   2.938 -0.5326 -0.0556  0.2566
 9691TIP3    H129034   5.339   0.878   2.864 -0.0949 -0.9113 -0.5141
 9691TIP3    H229035   5.321   0.868   3.014 -0.3390  1.0577 -0.4003
 9692TIP3   OH229036   1.521   0.712   1.113 -0.7302 -0.2677  0.0354
 9692TIP3    H129037   1.538   0.693   1.021  1.3717  0.0284  0.3430
 9692TIP3    H229038   1.449   0.653   1.137  0.0965 -1.8420 -1.2543
 9693TIP3   OH229039   3.712   5.277   4.669  0.3774 -0.1888  0.5931
 9693TIP3    H129040   3.634   5.295   4.721 -0.0275 -0.1280 -0.0232
 9693TIP3    H229041   3.715   5.348   4.604  0.8159 -0.3178  0.4647
 9694TIP3   OH229042   4.805   1.954   6.177  0.0499 -0.6848  0.1538
 9694TIP3    H129043   4.714   1.933   6.154  0.3588 -0.4335 -1.3749
 9694TIP3    H229044   4.854   1.875   6.156  0.4049 -0.3026 -0.4868
 9695TIP3   OH229045   2.106   3.619   6.097  0.3115  0.1045  0.2839
 9695TIP3    H129046   2.140   3.707   6.084 -2.3563  1.2391  0.4983
 9695TIP3    H229047   2.046   3.605   6.023 -1.7661 -0.2103  1.9553
 9696TIP3   OH229048   1.277   1.079   1.450 -0.4021 -0.1053  0.2329
 9696TIP3    H129049   1.357   1.048   1.492 -0.1368  1.5646  1.0011
 9696TIP3    H229050   1.208   1.056   1.512 -0.4323 -0.7383 -0.0233
 9697TIP3   OH229051   0.497   2.532   0.528 -0.0356 -0.3348  0.1481
 9697TIP3    H129052   0.546   2.474   0.585  2.4536  1.5242  0.0001
 9697TIP3    H229053   0.474   2.607   0.583 -0.0804  0.1723 -0.5468
 9698TIP3   OH229054   7.568   1.694   0.655  0.1317 -0.2122  0.1795
 9698TIP3    H129055   7.594   1.644   0.733 -0.4791  0.1988  0.6534
 9698TIP3    H229056   7.570   1.785   0.684 -1.3169 -0.1363  0.0846
 9699TIP3   OH229057   5.835   2.212   0.335 -0.0309  0.2646  0.2098
 9699TIP3    H129058   5.787   2.135   0.304 -0.3906  0.8462 -0.6867
 9699TIP3    H229059   5.766   2.274   0.362  0.2545  0.3318  0.7939
 9700TIP3   OH229060   7.698   0.976   1.571 -0.1940  0.0750  0.6447
 9700TIP3    H129061   7.674   0.908   1.508  0.2813  0.3571  0.1519
 9700TIP3    H229062   7.637   1.047   1.554 -0.7863 -0.2847  1.2597
 9701TIP3   OH229063   2.634   7.193   3.532 -0.0520  0.8466  0.0410
 9701TIP3    H129064   2.597   7.123   3.585 -2.2550  0.9451 -1.3025
 9701TIP3    H229065   2.724   7.165   3.514 -0.1095 -0.4066  1.6183
 9702TIP3   OH229066   0.484   0.508   0.281  0.2803  0.1799  0.1792
 9702TIP3    H129067   0.444   0.452   0.348 -0.2541  0.4731  0.1111
 9702TIP3    H229068   0.481   0.455   0.201 -1.9049  0.9674 -0.3029
 9703TIP3   OH229069   0.367   1.077   0.333  0.3050  0.1933  0.1129
 9703TIP3    H129070   0.392   1.124   0.413  0.9912  0.1684 -0.0764
 9703TIP3    H229071   0.447   1.031   0.307 -0.1398 -0.4479 -0.1411
 9704TIP3   OH229072   6.215   4.602   4.520  0.8728 -0.0016  0.7625
 9704TIP3    H129073   6.163   4.682   4.528  1.8144  0.5052  2.0117
 9704TIP3    H229074   6.156   4.532   4.544  0.1747  0.3623  0.1264
 9705TIP3   OH229075   6.515   5.406   1.585  0.0309  0.4269  0.0562
 9705TIP3    H129076   6.601   5.404   1.543  0.0546  1.8560 -0.0060
 9705TIP3    H229077   6.483   5.316   1.580  0.8656  0.1932 -1.2834
 9706TIP3   OH229078   0.939   6.025   5.125 -0.0793  0.1608 -0.1109
 9706TIP3    H129079   0.905   6.112   5.106  0.7765  0.2135 -1.5056
 9706TIP3    H229080   0.926   5.976   5.044  1.8763 -0.2152 -0.2134
 9707TIP3   OH229081   3.753   2.897   5.559  0.5434 -0.6326 -0.3969
 9707TIP3    H129082   3.684   2.928   5.501 -0.2664 -0.5785  0.5853
 9707TIP3    H229083   3.726   2.925   5.647  2.6964  1.0314 -0.1937
 9708TIP3   OH229084   6.316   7.010   0.716 -0.7634  0.1385 -0.0276
 9708TIP3    H129085   6.371   6.931   0.721 -0.3162  0.5569  1.9451
 9708TIP3    H229086   6.334   7.046   0.629 -0.9208 -1.8896 -0.9325
 9709TIP3   OH229087   6.718   5.728   1.205 -0.5942 -0.2853  0.6237
 9709TIP3    H129088   6.810   5.738   1.182 -0.8443  0.8528  0.0769
 9709TIP3    H229089   6.719   5.695   1.295  0.3526 -1.2487  0.2693
 9710TIP3   OH229090   5.100   7.280   0.684 -0.0291 -0.6492 -0.3984
 9710TIP3    H129091   5.150   7.241   0.755  1.5252  1.5006 -0.2638
 9710TIP3    H229092   5.153   7.354   0.654 -0.8384 -1.2220 -3.5223
 9711TIP3   OH229093   0.564   0.212   0.420  0.4813  0.4580 -0.3147
 9711TIP3    H129094   0.604   0.213   0.333  2.7972 -2.5561  0.6170
 9711TIP3    H229095   0.637   0.194   0.479 -1.5517 -0.5763  1.9506
 9712TIP3   OH229096   4.925   3.214   5.897 -0.1286 -0.0511 -0.1889
 9712TIP3    H129097   4.884   3.270   5.831 -0.3152  1.5677  1.2458
 9712TIP3    H229098   4.914   3.263   5.979  0.6066 -1.7493  0.9374
 9713TIP3   OH229099   3.781   3.018   5.842 -0.4614 -0.1272  0.3356
 9713TIP3    H129100   3.837   3.087   5.807 -1.5477  0.1055 -1.0135
 9713TIP3    H229101   3.733   3.059   5.913  2.0557 -0.7057  2.4232
 9714TIP3   OH229102   5.856   0.370   1.091 -0.2125 -0.5821  0.4028
 9714TIP3    H129103   5.842   0.277   1.106 -1.2382 -0.1559  2.2645
 9714TIP3    H229104   5.875   0.406   1.178 -0.5423  1.0627 -0.1870
 9715TIP3   OH229105   6.021   0.053   0.037 -0.4072  0.5195  0.2840
 9715TIP3    H129106   6.012   0.090   0.125 -0.9715 -1.0725  0.9089
 9715TIP3    H229107   6.086  -0.016   0.046  0.3698  1.0838 -0.7994
 9716TIP3   OH229108   7.563   7.070   0.458 -0.4234  0.6972  0.0469
 9716TIP3    H129109   7.629   7.101   0.520  1.7530 -0.9282 -1.3813
 9716TIP3    H229110   7.497   7.139   0.456  1.3202  2.4460  1.3667
 9717TIP3   OH229111   4.672   7.176   1.460  0.1717  0.0454 -0.3323
 9717TIP3    H129112   4.601   7.127   1.500  1.2656 -1.6780 -0.4435
 9717TIP3    H229113   4.710   7.116   1.395  1.1908  1.2312 -0.8665
 9718TIP3   OH229114   7.431   7.218   2.908 -0.0919  0.1219 -0.0636
 9718TIP3    H129115   7.494   7.275   2.864  0.9260 -2.7000 -2.4133
 9718TIP3    H229116   7.351   7.226   2.855 -0.5699  0.8809  0.7672
 9719TIP3   OH229117   1.824   0.469   0.489  0.3589 -0.7959 -0.5624
 9719TIP3    H129118   1.859   0.386   0.521  0.0945 -0.7802 -0.2347
 9719TIP3    H229119   1.873   0.485   0.408  0.0134 -1.5539 -0.9307
 9720TIP3   OH229120   7.371   4.973   4.510  0.3731  0.3404  0.4154
 9720TIP3    H129121   7.434   4.970   4.582 -0.2162  0.3980  0.9349
 9720TIP3    H229122   7.360   5.067   4.492  0.6038  0.3235  0.1645
 9721TIP3   OH229123   0.761   4.800   5.368 -0.1736  0.3780  0.0752
 9721TIP3    H129124   0.801   4.770   5.286  0.4361  1.4847 -0.0343
 9721TIP3    H229125   0.790   4.891   5.377  0.7821 -0.1114  2.1581
 9722TIP3   OH229126   3.979   1.293   4.608  0.6166 -0.0431 -0.1825
 9722TIP3    H129127   3.901   1.348   4.598  0.0076 -0.5511  1.4911
 9722TIP3    H229128   4.042   1.329   4.546  0.1557  2.4082  0.7030
 9723TIP3   OH229129   1.154   4.396   4.169 -0.1175  0.1261 -0.0337
 9723TIP3    H129130   1.087   4.356   4.225 -0.6367 -1.4668 -1.7389
 9723TIP3    H229131   1.111   4.405   4.084  1.3253  0.6114 -0.7141
 9724TIP3   OH229132   5.770   1.631   1.673  0.0089  0.8640  0.1773
 9724TIP3    H129133   5.749   1.584   1.753 -2.0140  2.2658  0.5020
 9724TIP3    H229134   5.694   1.618   1.616 -0.5192  3.5222  0.2064
 9725TIP3   OH229135   0.134   2.541   0.575 -0.0770 -0.1647 -0.1424
 9725TIP3    H129136   0.093   2.455   0.569 -1.2502  0.1948  2.1289
 9725TIP3    H229137   0.215   2.526   0.625 -0.5301  0.1007  0.6907
 9726TIP3   OH229138   0.922   2.466   0.578  0.1852  0.3299  0.4142
 9726TIP3    H129139   0.901   2.444   0.669  2.0553  1.7926  1.2283
 9726TIP3    H229140   0.838   2.460   0.532 -1.0007  0.7591  2.4685
 9727TIP3   OH229141   3.504   4.410   6.108  0.2950 -0.5525  0.6058
 9727TIP3    H129142   3.596   4.397   6.086 -0.0034 -1.1512 -0.3326
 9727TIP3    H229143   3.489   4.354   6.184  0.3789 -1.4720 -0.0542
 9728TIP3   OH229144   1.066   3.253   0.656  0.2264 -0.3581 -0.0306
 9728TIP3    H129145   1.001   3.191   0.689 -1.3350  1.2271 -0.0397
 9728TIP3    H229146   1.120   3.273   0.732 -0.2782 -0.4890  0.3650
 9729TIP3   OH229147   0.286   3.343   1.382  0.5297  0.2220 -0.5825
 9729TIP3    H129148   0.241   3.426   1.367 -0.6524 -0.4541 -0.8531
 9729TIP3    H229149   0.289   3.335   1.478  0.4269  0.4471 -0.5590
 9730TIP3   OH229150   0.529   3.075   2.444  0.1393 -0.1380 -0.0150
 9730TIP3    H129151   0.496   3.011   2.381  0.3896 -0.5379  0.2602
 9730TIP3    H229152   0.457   3.088   2.505  0.1817 -0.3488  0.0781
 9731TIP3   OH229153   4.221   5.210   5.671 -0.2192  0.1533  0.5267
 9731TIP3    H129154   4.214   5.298   5.634 -0.7407 -0.2539 -0.3438
 9731TIP3    H229155   4.220   5.224   5.766  2.7913  1.3495  0.4523
 9732TIP3   OH229156   3.742   7.137   6.034 -0.4245  0.3394  0.2451
 9732TIP3    H129157   3.808   7.191   5.992  1.0023 -0.5806  1.2506
 9732TIP3    H229158   3.661   7.187   6.026  0.7362  2.3217  0.6190
 9733TIP3   OH229159   2.251   3.221   5.608 -0.4561  0.7765  0.6440
 9733TIP3    H129160   2.338   3.216   5.567 -0.7521  3.1877 -0.4041
 9733TIP3    H229161   2.216   3.133   5.601  0.2613  0.6874 -2.7130
 9734TIP3   OH229162   6.248   5.730   1.893  0.3596 -0.5039  0.1198
 9734TIP3    H129163   6.255   5.719   1.988 -0.9662 -1.0909  0.1679
 9734TIP3    H229164   6.200   5.652   1.864 -1.9021  1.1100 -0.6350
 9735TIP3   OH229165   6.735   1.581   1.418 -0.1589  0.2118 -0.0704
 9735TIP3    H129166   6.765   1.604   1.506  0.1889 -0.3331 -0.0468
 9735TIP3    H229167   6.641   1.569   1.427  0.2270 -2.6288  0.8525
 9736TIP3   OH229168   0.916   1.108   0.757  0.3444 -0.3983 -0.1829
 9736TIP3    H129169   0.995   1.152   0.726  0.2740  1.6457  2.3434
 9736TIP3    H229170   0.895   1.152   0.840 -1.0667 -3.6851  1.2921
 9737TIP3   OH229171   4.594   5.354   5.402  0.3872 -0.0526  0.0897
 9737TIP3    H129172   4.637   5.299   5.337 -0.2006  0.2885 -0.5950
 9737TIP3    H229173   4.503   5.324   5.403 -0.1189  1.3889 -0.8464
 9738TIP3   OH229174   5.485   2.619   0.332  0.6663 -0.7606 -0.5089
 9738TIP3    H129175   5.541   2.675   0.386  0.6578 -1.6480  0.4532
 9738TIP3    H229176   5.398   2.659   0.338  0.8615 -0.3160 -0.6421
 9739TIP3   OH229177   4.202   5.747   6.007  0.6796  0.7537  0.0114
 9739TIP3    H129178   4.220   5.673   6.065  0.2987 -0.1811 -1.0462
 9739TIP3    H229179   4.165   5.707   5.928 -0.5159  2.1553 -0.1612
 9740TIP3   OH229180   1.786   1.131   1.432 -0.2489 -0.1371  0.0132
 9740TIP3    H129181   1.771   1.199   1.497 -0.0927  1.0126 -1.1414
 9740TIP3    H229182   1.881   1.118   1.432 -0.0961  0.8905 -0.9945
 9741TIP3   OH229183   5.346   7.151   2.466 -0.4148  0.0605 -0.0740
 9741TIP3    H129184   5.355   7.201   2.385  0.4042 -1.3453 -0.8567
 9741TIP3    H229185   5.270   7.095   2.450  0.1934 -0.7466 -0.1584
 9742TIP3   OH229186   6.275   5.962   0.599  0.4227 -0.3082 -0.1270
 9742TIP3    H129187   6.265   5.960   0.694 -0.0061  1.5563 -0.1103
 9742TIP3    H229188   6.307   5.874   0.576  0.4917 -0.7859  1.7173
 9743TIP3   OH229189   0.612   0.964   0.387  0.3369 -0.0236  0.1022
 9743TIP3    H129190   0.627   0.880   0.344 -0.6710 -0.6493  0.9616
 9743TIP3    H229191   0.686   0.974   0.447 -0.6605 -1.3171  1.5714
 9744TIP3   OH229192   1.583   3.293   5.605 -0.3360  0.2462  0.1204
 9744TIP3    H129193   1.594   3.254   5.518 -1.0975  1.3241 -0.4695
 9744TIP3    H229194   1.650   3.250   5.658  0.0850 -0.4945 -0.9699
 9745TIP3   OH229195   3.423   2.600   5.216 -0.1117 -0.2746  0.1021
 9745TIP3    H129196   3.461   2.685   5.235  0.5212 -0.4893 -0.1813
 9745TIP3    H229197   3.493   2.537   5.236  0.2062 -0.5796 -1.8422
 9746TIP3   OH229198   1.142   1.635   2.457  0.3867  0.5203  0.4183
 9746TIP3    H129199   1.063   1.618   2.405  0.6105 -1.8634  0.7691
 9746TIP3    H229200   1.214   1.621   2.396  0.6251 -1.4584  1.1028
 9747TIP3   OH229201   3.410   4.188   6.294 -0.2454  0.5277 -0.3455
 9747TIP3    H129202   3.316   4.208   6.288 -0.5359 -0.3807  0.9288
 9747TIP3    H229203   3.424   4.121   6.227 -0.1075  1.9866 -1.8130
 9748TIP3   OH229204   0.613   4.808   6.276  0.4068 -0.0577 -0.1319
 9748TIP3    H129205   0.683   4.869   6.298  0.6737 -1.0315  1.7410
 9748TIP3    H229206   0.579   4.778   6.360 -1.4618 -0.5318 -1.0153
 9749TIP3   OH229207   3.374   4.782   5.877 -0.2792 -0.4019 -0.2868
 9749TIP3    H129208   3.331   4.853   5.828  1.1352  0.8776  0.2778
 9749TIP3    H229209   3.350   4.798   5.968  0.3392 -0.4197 -0.1170
 9750TIP3   OH229210   7.316   0.907   2.001  0.2243 -0.1498  0.3181
 9750TIP3    H129211   7.287   0.888   1.912  1.4130 -0.5440  0.0047
 9750TIP3    H229212   7.377   0.979   1.992 -0.4221  0.4924  0.9442
 9751TIP3   OH229213   6.707   0.925   2.940 -0.0281  0.4523  0.2801
 9751TIP3    H129214   6.770   0.854   2.950  0.5159  0.7977 -0.6645
 9751TIP3    H229215   6.634   0.887   2.891  0.4507  0.6573 -0.5939
 9752TIP3   OH229216   6.984   0.117   1.539 -0.2312 -0.2482 -0.5780
 9752TIP3    H129217   6.904   0.143   1.494 -0.4693  0.7043  0.3772
 9752TIP3    H229218   6.954   0.061   1.610 -0.0016 -0.3785 -0.5853
 9753TIP3   OH229219   0.148   1.897   3.376 -0.2033 -0.8394  0.3031
 9753TIP3    H129220   0.222   1.850   3.414  0.5425  0.3014  0.2900
 9753TIP3    H229221   0.092   1.828   3.341 -0.0091 -1.8148  1.8472
 9754TIP3   OH229222   0.222   2.947   0.847  0.3081  0.2713  0.0149
 9754TIP3    H129223   0.164   2.899   0.906 -0.4610  0.9191 -0.2018
 9754TIP3    H229224   0.279   2.997   0.905  0.6384 -0.3543  0.2297
 9755TIP3   OH229225  -0.023   0.659   0.520  0.0956  0.4656 -0.1383
 9755TIP3    H129226   0.034   0.653   0.596  0.0597  0.5053 -0.1079
 9755TIP3    H229227   0.031   0.699   0.452  0.6539 -1.1151 -0.6560
 9756TIP3   OH229228   1.116   6.494   5.868 -0.0307  0.1226 -0.1992
 9756TIP3    H129229   1.175   6.418   5.870 -0.4183 -0.1964 -0.7190
 9756TIP3    H229230   1.115   6.526   5.958  0.4035 -0.2824 -0.0487
 9757TIP3   OH229231   4.881   2.604   0.563 -0.4587  0.4271 -0.4357
 9757TIP3    H129232   4.874   2.550   0.642 -0.5002  1.0236 -0.0182
 9757TIP3    H229233   4.895   2.542   0.492 -0.1023 -0.1030  0.0866
 9758TIP3   OH229234   1.548   5.633   5.719  0.2615  0.2675 -0.0560
 9758TIP3    H129235   1.463   5.596   5.695 -0.2127  0.5047  1.1935
 9758TIP3    H229236   1.591   5.565   5.770  0.9282  0.0616 -0.8798
 9759TIP3   OH229237   0.075   2.025   0.316 -0.5509  0.0800  0.0812
 9759TIP3    H129238   0.166   1.996   0.319 -1.1242 -1.7581  0.7465
 9759TIP3    H229239   0.057   2.037   0.222  0.0021 -0.7977 -0.1421
 9760TIP3   OH229240   0.401   0.339   2.275  0.3115 -0.2713  0.0008
 9760TIP3    H129241   0.457   0.416   2.267  0.9033 -0.6298  0.7479
 9760TIP3    H229242   0.442   0.273   2.220 -0.6575  0.1955 -1.3269
 9761TIP3   OH229243   6.420   2.530   0.808 -0.4898  0.1801  0.1647
 9761TIP3    H129244   6.335   2.564   0.834  0.4965  2.6898  0.2589
 9761TIP3    H229245   6.446   2.584   0.733  0.6436 -1.1041 -0.4002
 9762TIP3   OH229246   5.113   1.190   6.382  0.0307  0.5008 -0.1092
 9762TIP3    H129247   5.182   1.150   6.328  1.0196 -1.1353  2.2613
 9762TIP3    H229248   5.140   1.281   6.391  0.9490  0.2981 -0.6837
 9763TIP3   OH229249   6.864   1.754   0.636  0.5375 -0.1342  0.5289
 9763TIP3    H129250   6.777   1.719   0.618  0.0146  1.3423  0.1365
 9763TIP3    H229251   6.924   1.697   0.588 -0.4036  0.3255 -1.2027
 9764TIP3   OH229252   3.890   2.370   2.855  0.1094  0.1053 -0.2330
 9764TIP3    H129253   3.973   2.340   2.892 -0.3377  0.4222  1.0297
 9764TIP3    H229254   3.855   2.294   2.809  1.4845  0.1967 -1.4743
 9765TIP3   OH229255   5.278   4.726   5.785  0.0401 -0.0713 -0.2163
 9765TIP3    H129256   5.320   4.781   5.851  0.0825 -0.3999  0.0288
 9765TIP3    H229257   5.332   4.736   5.707  1.1233 -1.2556  0.3734
 9766TIP3   OH229258   0.057   1.022   0.641 -0.3917 -0.3297 -0.1155
 9766TIP3    H129259   0.148   0.992   0.638 -0.2899 -0.0449  0.1062
 9766TIP3    H229260   0.064   1.116   0.660 -0.7712 -0.5879  1.3289
 9767TIP3   OH229261   2.577   3.107   5.551 -0.6182  0.4240 -0.0844
 9767TIP3    H129262   2.623   3.071   5.626 -1.3767  1.0264  0.6824
 9767TIP3    H229263   2.623   3.188   5.530 -2.2803  1.8710  1.7056
 9768TIP3   OH229264   6.954   0.179   0.070  0.0244 -0.2405 -0.3570
 9768TIP3    H129265   6.995   0.130   0.141  0.9518 -0.2794 -0.9104
 9768TIP3    H229266   7.010   0.163  -0.006 -0.5045  0.4564 -0.9053
 9769TIP3   OH229267   7.086   6.579   2.315 -0.1533 -0.0975  0.8126
 9769TIP3    H129268   7.116   6.639   2.248  0.6778 -2.1463 -0.7075
 9769TIP3    H229269   7.128   6.496   2.294 -0.4892 -0.9972  3.4131
 9770TIP3   OH229270   0.030   7.159   0.373  0.3723 -0.5286  0.0501
 9770TIP3    H129271  -0.004   7.071   0.389  1.2662 -0.7231  0.8996
 9770TIP3    H229272   0.092   7.174   0.444 -0.0529  0.9388  0.1145
 9771TIP3   OH229273   2.747   4.167   5.255  0.3392 -0.3756  0.6084
 9771TIP3    H129274   2.808   4.173   5.181 -0.3638  0.5239  0.0843
 9771TIP3    H229275   2.716   4.257   5.268 -0.9229 -0.8208  0.8126
 9772TIP3   OH229276   4.968   1.597   0.276  0.2600 -0.0517  0.0105
 9772TIP3    H129277   4.902   1.611   0.344  0.2104 -0.9023  0.1472
 9772TIP3    H229278   5.032   1.537   0.316  0.2533 -0.5206 -0.6667
 9773TIP3   OH229279   5.165   7.129   0.073  0.2809  0.5204 -0.3412
 9773TIP3    H129280   5.090   7.084   0.113  0.3058  1.1158  0.3933
 9773TIP3    H229281   5.210   7.061   0.023  0.3616 -0.3007  0.8321
 9774TIP3   OH229282   4.287   3.433   6.389  0.5112  0.2776  0.3169
 9774TIP3    H129283   4.340   3.421   6.310  2.5189  1.0062  1.5187
 9774TIP3    H229284   4.231   3.508   6.370  2.1012  1.4350  0.1412
 9775TIP3   OH229285   1.114   6.588   6.134 -0.0995  0.5594  0.6284
 9775TIP3    H129286   1.036   6.642   6.146 -0.2651  0.2511  0.9399
 9775TIP3    H229287   1.178   6.625   6.194 -0.8525 -0.8352  2.3099
 9776TIP3   OH229288   0.180   1.762   0.099  0.0330  0.1691 -0.0404
 9776TIP3    H129289   0.238   1.748   0.173 -1.0044  0.0814  0.7715
 9776TIP3    H229290   0.172   1.675   0.058 -1.6133 -0.4277  1.4310
 9777TIP3   OH229291   5.016   5.950   1.489 -0.0420 -0.2364 -0.0381
 9777TIP3    H129292   5.074   6.006   1.542  0.3983  0.9033 -1.7090
 9777TIP3    H229293   5.037   5.861   1.519  1.7418  0.2379  0.2296
 9778TIP3   OH229294   7.189   0.919   1.774  0.0096  0.4406 -0.2431
 9778TIP3    H129295   7.096   0.936   1.758  0.1411  0.9163 -0.5358
 9778TIP3    H229296   7.231   0.941   1.691  0.4733  0.9846  0.1372
 9779TIP3   OH229297   0.831   4.417   6.031 -0.5250  0.6638  0.1128
 9779TIP3    H129298   0.906   4.472   6.007 -0.7535  1.6471  1.6240
 9779TIP3    H229299   0.854   4.381   6.116 -1.1460 -0.2050 -0.0866
 9780TIP3   OH229300   5.705   6.758   0.450 -0.3413  0.1171 -0.4841
 9780TIP3    H129301   5.616   6.746   0.484 -0.0511  0.2231  0.3007
 9780TIP3    H229302   5.714   6.853   0.442  0.7903  0.2790  2.3235
 9781TIP3   OH229303   7.559   0.193   0.894  0.5388 -0.0447  0.3469
 9781TIP3    H129304   7.550   0.224   0.984  1.2748 -0.1637  0.4639
 9781TIP3    H229305   7.653   0.200   0.875  0.3984 -0.1039 -0.3801
 9782TIP3   OH229306   3.972   3.906   6.199 -0.5347  0.3016  0.2429
 9782TIP3    H129307   3.881   3.908   6.229 -0.2918  1.1108  0.9397
 9782TIP3    H229308   4.024   3.925   6.277  0.2724 -0.7690 -0.0193
 9783TIP3   OH229309   4.358   6.726   5.007  1.1159 -0.1856  0.1158
 9783TIP3    H129310   4.308   6.709   5.086 -1.6814  0.6474 -1.4155
 9783TIP3    H229311   4.421   6.794   5.032  0.7982 -0.5093  1.8035
 9784TIP3   OH229312   0.512   2.773   1.143 -0.2884 -0.5382  0.0920
 9784TIP3    H129313   0.434   2.720   1.127 -1.1447  0.7603 -0.0383
 9784TIP3    H229314   0.489   2.827   1.219  0.5101 -0.2142  0.1100
 9785TIP3   OH229315   3.644   6.022   4.902 -0.5199 -0.0052 -0.3859
 9785TIP3    H129316   3.641   6.017   4.807  0.3052 -0.8273 -0.3687
 9785TIP3    H229317   3.689   5.942   4.930  0.8596  1.0878  0.5995
 9786TIP3   OH229318   0.812   0.920   0.919 -0.5540  0.4170  0.4486
 9786TIP3    H129319   0.858   0.975   0.856  0.5061  1.3138  1.9733
 9786TIP3    H229320   0.882   0.874   0.966 -1.2783  0.4536  1.5939
 9787TIP3   OH229321   4.081   5.055   5.493 -0.2311  0.8396  0.4661
 9787TIP3    H129322   4.139   4.980   5.488  0.6231  1.5050  0.2854
 9787TIP3    H229323   4.119   5.111   5.561 -1.9028  0.2375  1.9430
 9788TIP3   OH229324   1.350   6.059   5.837 -0.0618  0.3168  0.0328
 9788TIP3    H129325   1.391   6.019   5.914 -1.0948  0.5372  0.7090
 9788TIP3    H229326   1.338   5.987   5.776  0.0534 -0.0055  0.3898
 9789TIP3   OH229327   2.972   3.573   5.447  0.0227  0.2071  0.1149
 9789TIP3    H129328   2.879   3.587   5.432 -0.1464 -0.6403  0.3743
 9789TIP3    H229329   2.996   3.636   5.515 -0.1990  0.9192 -0.4612
 9790TIP3   OH229330   1.463   2.859   1.250  0.1828  0.2417  0.2310
 9790TIP3    H129331   1.463   2.771   1.212 -2.5822 -0.3133  1.4140
 9790TIP3    H229332   1.443   2.917   1.176 -0.4686 -0.3634 -0.0721
 9791TIP3   OH229333   4.826   3.034   5.489  0.3913  0.2679 -0.5325
 9791TIP3    H129334   4.872   3.117   5.494 -0.4896  0.6894  0.8902
 9791TIP3    H229335   4.735   3.055   5.510  0.0253 -0.9434 -0.8499
 9792TIP3   OH229336   5.016   4.187   4.388  0.2211  0.0031 -0.4598
 9792TIP3    H129337   4.923   4.205   4.398  0.0037  0.0238 -2.3858
 9792TIP3    H229338   5.054   4.271   4.364  0.7470 -0.0199  0.2560
 9793TIP3   OH229339   3.193   5.767   4.485  0.2649  0.2970 -0.4234
 9793TIP3    H129340   3.201   5.671   4.486 -1.8425  0.0884 -0.2609
 9793TIP3    H229341   3.219   5.794   4.573 -0.7016 -0.2891  0.0498
 9794TIP3   OH229342   6.345   4.046   4.886 -0.0170  0.1874  0.8471
 9794TIP3    H129343   6.303   4.076   4.967 -2.3303  0.4817 -0.4308
 9794TIP3    H229344   6.281   3.987   4.846  0.1789  1.7594 -1.8771
 9795TIP3   OH229345   3.645   5.586   6.196  0.0416 -0.0796  0.4624
 9795TIP3    H129346   3.672   5.546   6.113  1.2767  0.0388  0.8043
 9795TIP3    H229347   3.723   5.629   6.229 -0.0201 -1.4203  2.4400
 9796TIP3   OH229348   7.698   1.032   1.038  0.0708  0.6164  0.4318
 9796TIP3    H129349   7.724   0.999   1.123  0.6973  0.8065  0.3166
 9796TIP3    H229350   7.645   1.109   1.057 -0.8807 -0.0933  0.6809
 9797TIP3   OH229351   1.974   1.213   1.774  0.8233  0.2184 -0.0845
 9797TIP3    H129352   2.028   1.290   1.757  0.9525  0.4770  1.4426
 9797TIP3    H229353   2.030   1.154   1.824  0.1152 -0.0462  0.4229
 9798TIP3   OH229354   3.411   2.201   0.515  0.8079 -0.2057  0.3030
 9798TIP3    H129355   3.417   2.246   0.431  1.2676 -0.0117  0.4378
 9798TIP3    H229356   3.498   2.211   0.554  0.5742 -0.2276  0.8340
 9799TIP3   OH229357   5.237   6.425   5.106  0.5728 -0.1226 -0.1699
 9799TIP3    H129358   5.191   6.492   5.055  0.6149 -0.7144 -0.9853
 9799TIP3    H229359   5.231   6.346   5.053  0.9467 -0.6532  0.5694
 9800TIP3   OH229360   0.670   2.076   1.036 -0.5913  0.1000 -0.1212
 9800TIP3    H129361   0.596   2.055   1.094 -1.5678  0.1826 -1.3261
 9800TIP3    H229362   0.692   2.166   1.057 -0.9760  0.1459  0.0928
 9801TIP3   OH229363   5.445   5.464   6.267 -0.0714 -0.6227 -0.4330
 9801TIP3    H129364   5.477   5.401   6.332 -0.3445 -0.7978 -0.4705
 9801TIP3    H229365   5.356   5.484   6.294  0.1380  0.0190 -0.2199
 9802TIP3   OH229366   1.351   1.101   0.779 -0.2549 -0.3025 -0.3299
 9802TIP3    H129367   1.446   1.088   0.774 -0.3255 -0.4583 -1.3734
 9802TIP3    H229368   1.339   1.154   0.858  0.7784  0.4357 -0.6486
 9803TIP3   OH229369   1.043   2.763   0.567 -0.1750 -0.0425  0.3662
 9803TIP3    H129370   1.054   2.669   0.560 -1.2754 -0.2008  0.7381
 9803TIP3    H229371   0.950   2.776   0.585 -0.4740  1.2303 -1.8869
 9804TIP3   OH229372   1.757   6.155   6.012 -0.0040 -0.2518  0.2759
 9804TIP3    H129373   1.834   6.192   6.054 -0.2431  0.6585 -0.0829
 9804TIP3    H229374   1.690   6.154   6.081 -0.1203  0.3729  0.1729
 9805TIP3   OH229375   4.359   4.605   5.980 -0.4500  0.0164  0.1792
 9805TIP3    H129376   4.301   4.588   5.906 -0.3976  0.8037 -0.0391
 9805TIP3    H229377   4.330   4.688   6.016 -1.6610 -1.2308  2.1909
 9806TIP3   OH229378   5.490   4.587   5.097  0.4076 -0.2282  0.4486
 9806TIP3    H129379   5.564   4.536   5.131 -0.3929  0.2433  3.0604
 9806TIP3    H229380   5.526   4.635   5.023  2.1088 -1.7789  0.2167
 9807TIP3   OH229381   5.065   1.014   0.040  0.2966  0.5968  0.5360
 9807TIP3    H129382   5.155   0.981   0.034  0.6365  1.4813  0.7273
 9807TIP3    H229383   5.057   1.076  -0.032  0.0162  0.9218  0.8435
 9808TIP3   OH229384   1.776   1.865   0.682 -0.2465  0.7309 -0.1771
 9808TIP3    H129385   1.831   1.803   0.730 -0.5472  0.9001  0.4013
 9808TIP3    H229386   1.686   1.833   0.696 -0.3094  0.5106 -1.0329
 9809TIP3   OH229387   3.192   5.032   5.364 -0.2795  0.0395  0.8537
 9809TIP3    H129388   3.223   5.100   5.304  0.8871 -0.2191  1.1423
 9809TIP3    H229389   3.123   5.074   5.416 -0.8214  0.4600 -0.2046
 9810TIP3   OH229390   5.257   6.098   3.881  0.0276  0.1074  0.4634
 9810TIP3    H129391   5.195   6.068   3.947 -1.4817 -2.2607 -1.9892
 9810TIP3    H229392   5.343   6.070   3.915 -0.7082 -1.0173  1.4265
 9811TIP3   OH229393   2.813   2.845   5.529 -0.4063  0.2072 -0.0108
 9811TIP3    H129394   2.735   2.793   5.509  0.3913 -1.0956  0.2348
 9811TIP3    H229395   2.880   2.811   5.469 -0.2938  2.0305 -0.9662
 9812TIP3   OH229396   4.791   5.974   4.880  0.0426  0.2712  0.3608
 9812TIP3    H129397   4.853   6.018   4.939  1.2685  0.1950 -0.8528
 9812TIP3    H229398   4.825   5.885   4.872 -1.6728 -0.5424  1.7230
 9813TIP3   OH229399   4.934   2.686   3.803  0.5513 -0.1309 -0.3579
 9813TIP3    H129400   5.015   2.723   3.767  1.0132 -0.7277  0.0558
 9813TIP3    H229401   4.962   2.644   3.885  0.0535 -1.5133 -0.8882
 9814TIP3   OH229402   3.883   4.882   3.077  0.1525  0.1044  0.2817
 9814TIP3    H129403   3.951   4.892   3.143 -1.4768  1.5657  1.7981
 9814TIP3    H229404   3.819   4.823   3.118 -0.4078  0.2507 -0.3721
 9815TIP3   OH229405   6.119   4.341   6.361  0.2376 -0.3612 -0.3006
 9815TIP3    H129406   6.152   4.425   6.327  0.2712 -0.0768  0.4305
 9815TIP3    H229407   6.162   4.275   6.307  1.7238  0.0231  0.3754
 9816TIP3   OH229408   2.470   3.368   0.263 -0.1201 -0.2865 -0.0833
 9816TIP3    H129409   2.476   3.275   0.284  0.9956 -0.2092 -0.0213
 9816TIP3    H229410   2.378   3.382   0.244 -0.0646 -1.7392 -1.6120
 9817TIP3   OH229411   3.723   3.955   6.304 -0.0980  0.6128 -0.2123
 9817TIP3    H129412   3.684   4.019   6.363  0.6474  1.2805 -0.4390
 9817TIP3    H229413   3.699   3.870   6.341 -1.6179  1.0079 -0.2579
 9818TIP3   OH229414   6.637   3.683   0.501 -0.3074 -0.1513 -0.1039
 9818TIP3    H129415   6.546   3.702   0.477 -0.2800  0.3822  0.2060
 9818TIP3    H229416   6.677   3.769   0.513 -0.1131 -0.4008  1.0623
 9819TIP3   OH229417   1.743   0.759   1.648 -0.2962 -0.0191  0.4739
 9819TIP3    H129418   1.735   0.777   1.554 -1.8070 -1.1225  0.3723
 9819TIP3    H229419   1.740   0.846   1.689 -1.3063  0.3752 -0.4017
 9820TIP3   OH229420   6.299   4.283   3.463 -0.0103  0.0664 -0.0732
 9820TIP3    H129421   6.318   4.254   3.552  0.9206  0.5998 -0.0977
 9820TIP3    H229422   6.283   4.201   3.415 -0.9027 -0.1999  0.6661
 9821TIP3   OH229423   1.524   1.996   0.083  0.1632 -0.0081 -0.4574
 9821TIP3    H129424   1.554   2.087   0.082 -0.4654  0.1944 -0.6147
 9821TIP3    H229425   1.590   1.950   0.135  0.8335  0.4121 -0.9277
 9822TIP3   OH229426   4.138   7.268   5.540 -0.4522 -0.0123  0.6766
 9822TIP3    H129427   4.059   7.306   5.501 -0.5180 -1.2481 -0.4556
 9822TIP3    H229428   4.106   7.219   5.615 -0.8495 -0.9790 -0.1083
 9823TIP3   OH229429   3.976   6.097   5.212 -0.0037  0.2068  0.0357
 9823TIP3    H129430   3.929   6.024   5.172  0.6326 -0.3299  0.2602
 9823TIP3    H229431   4.065   6.089   5.179  0.0925  0.8334  0.1349
 9824TIP3   OH229432   5.226   5.075   2.338  0.5627 -0.5210  0.3211
 9824TIP3    H129433   5.148   5.021   2.328  1.1748 -1.3252 -0.1260
 9824TIP3    H229434   5.199   5.161   2.305 -0.2315 -0.6965  0.4882
 9825TIP3   OH229435   2.890   3.334   4.323 -0.5233  0.2123  0.4545
 9825TIP3    H129436   2.926   3.350   4.410  0.5784  0.8223 -0.1028
 9825TIP3    H229437   2.803   3.374   4.326 -0.4161  0.4035  1.2077
 9826TIP3   OH229438   4.702   4.885   5.209 -0.5045  0.0790  0.2220
 9826TIP3    H129439   4.792   4.916   5.217 -1.1525  1.9204  0.7085
 9826TIP3    H229440   4.698   4.842   5.124  0.7059  0.4138 -0.0086
 9827TIP3   OH229441   2.855   0.800   1.965  0.1711  0.1326  0.7793
 9827TIP3    H129442   2.824   0.878   2.011  0.3368  0.4317  0.3820
 9827TIP3    H229443   2.777   0.745   1.957 -0.9103  1.9905 -2.4956
 9828TIP3   OH229444   1.533   1.687   0.966 -0.1356 -0.1681  0.2009
 9828TIP3    H129445   1.546   1.615   1.028 -0.6527 -0.4834 -0.0585
 9828TIP3    H229446   1.442   1.713   0.978 -0.0705  0.1641 -0.0103
 9829TIP3   OH229447   5.328   5.142   4.830 -0.3170  0.3384 -0.1570
 9829TIP3    H129448   5.278   5.199   4.889 -1.3518 -1.5347  0.8064
 9829TIP3    H229449   5.404   5.195   4.806 -0.9724  1.9408  1.1295
 9830TIP3   OH229450   2.342   1.864   0.284  0.2130 -0.1659 -0.1303
 9830TIP3    H129451   2.379   1.948   0.312  2.9767 -1.3328 -0.1370
 9830TIP3    H229452   2.247   1.878   0.285  0.5353  2.2395  2.1199
 9831TIP3   OH229453   4.437   5.780   6.381 -0.3818  0.8423  0.3616
 9831TIP3    H129454   4.516   5.821   6.415 -0.1089 -0.8765  1.8812
 9831TIP3    H229455   4.417   5.828   6.301  1.3052  2.2998  0.7970
 9832TIP3   OH229456   3.725   6.911   5.797  0.0383  0.2923  0.3245
 9832TIP3    H129457   3.649   6.960   5.767  0.2423  0.8054  0.6398
 9832TIP3    H229458   3.764   6.966   5.865  1.4343  0.6237 -0.7272
 9833TIP3   OH229459   5.391   1.035   4.880 -0.1769 -0.2827 -0.2598
 9833TIP3    H129460   5.414   0.966   4.943  0.1181 -0.0886 -0.1548
 9833TIP3    H229461   5.351   1.103   4.934  1.6291  0.6209 -0.0444
 9834TIP3   OH229462   1.709   0.764   3.491 -0.1321 -0.0483 -0.1833
 9834TIP3    H129463   1.663   0.826   3.547 -0.3155 -0.6416  0.3375
 9834TIP3    H229464   1.651   0.687   3.488  0.3996 -0.4536 -0.2642
 9835TIP3   OH229465   4.990   3.084   5.152  0.9772  0.0248  0.6035
 9835TIP3    H129466   5.044   3.126   5.220  1.1311 -0.5220  0.8276
 9835TIP3    H229467   4.940   3.017   5.200 -0.6659  1.2015  0.5665
 9836TIP3   OH229468   7.563   7.357   6.144  0.2782 -0.1096  0.4590
 9836TIP3    H129469   7.482   7.355   6.195  0.8348 -1.5571  1.3352
 9836TIP3    H229470   7.570   7.269   6.106  0.0214  0.8815 -1.9049
 9837TIP3   OH229471   5.109   7.074   4.607  0.1143 -0.2580 -0.1731
 9837TIP3    H129472   5.203   7.090   4.595 -0.1708  1.4165 -0.2652
 9837TIP3    H229473   5.072   7.160   4.627 -1.2555 -1.0522  0.8647
 9838TIP3   OH229474   5.887   7.040   0.192 -0.3316 -0.0905 -0.1060
 9838TIP3    H129475   5.839   7.059   0.272  1.0426 -0.2935  0.7869
 9838TIP3    H229476   5.866   6.949   0.172  0.4548 -0.4870  0.8368
 9839TIP3   OH229477   6.207   4.777   2.272  0.7193 -0.3324  0.0261
 9839TIP3    H129478   6.280   4.718   2.254  0.0229 -1.5898  1.2281
 9839TIP3    H229479   6.129   4.728   2.247  0.2239  0.7168 -0.5353
 9840TIP3   OH229480   3.974   6.799   4.652 -0.4324  0.4371  0.3812
 9840TIP3    H129481   3.930   6.744   4.588 -0.8147  0.2626  0.7887
 9840TIP3    H229482   4.043   6.743   4.688 -0.2162  0.5363  0.1201
 9841TIP3   OH229483   5.610   3.393   4.295  0.2324 -0.4674  0.0872
 9841TIP3    H129484   5.572   3.480   4.286  0.0542 -0.7119 -1.6748
 9841TIP3    H229485   5.695   3.408   4.336 -0.5793  0.3412  1.5046
 9842TIP3   OH229486   7.363   1.519   1.111  0.3253  0.4111 -0.1766
 9842TIP3    H129487   7.290   1.499   1.052 -0.5608  0.5543  0.8652
 9842TIP3    H229488   7.330   1.589   1.167  0.5062 -0.9782  1.7237
 9843TIP3   OH229489   5.604   2.486   5.672  0.1175  0.0841  0.2371
 9843TIP3    H129490   5.592   2.405   5.622 -1.5810  0.7787 -0.4861
 9843TIP3    H229491   5.570   2.465   5.759  0.6482 -0.2913  0.3621
 9844TIP3   OH229492   2.188   1.071   0.307 -0.1890 -0.3275 -0.3378
 9844TIP3    H129493   2.213   1.055   0.398 -2.2163  0.5928  0.4211
 9844TIP3    H229494   2.239   1.148   0.282  0.6178 -0.7781 -0.0792
 9845TIP3   OH229495   5.180   0.898   5.580  0.0033 -0.0574 -0.7448
 9845TIP3    H129496   5.090   0.878   5.556 -0.2638 -0.6238  0.7063
 9845TIP3    H229497   5.208   0.963   5.515 -1.6541  0.5912 -0.8260
 9846TIP3   OH229498   1.075   2.438   0.277  0.0696  1.0413 -0.0895
 9846TIP3    H129499   1.154   2.486   0.252 -0.1914  2.3268  1.4563
 9846TIP3    H229500   1.003   2.497   0.256 -0.5190 -0.2248 -1.7249
 9847TIP3   OH229501   1.747   1.276   0.517 -0.4444  0.0279  0.2201
 9847TIP3    H129502   1.776   1.186   0.501 -0.8045  0.0746 -0.6835
 9847TIP3    H229503   1.716   1.274   0.608  0.0605 -0.6227  0.3902
 9848TIP3   OH229504   5.168   4.177   4.996  0.0801  0.1631 -0.2976
 9848TIP3    H129505   5.239   4.165   4.933  0.3902 -0.5915  0.1935
 9848TIP3    H229506   5.090   4.191   4.941  0.2834 -0.8722 -0.8558
 9849TIP3   OH229507   1.881   1.271   0.091 -0.1857 -0.7243 -0.4083
 9849TIP3    H129508   1.929   1.334   0.146 -0.7475 -0.6778  0.0394
 9849TIP3    H229509   1.795   1.264   0.133 -1.2845  0.7471 -2.3414
 9850TIP3   OH229510   2.361   4.522   5.663 -0.7139  0.0081 -0.2543
 9850TIP3    H129511   2.360   4.618   5.667  0.0113  0.0388 -0.6682
 9850TIP3    H229512   2.420   4.502   5.591 -0.1523 -0.7608  0.4092
 9851TIP3   OH229513   5.283   5.470   1.034  0.1437  0.6243  0.0968
 9851TIP3    H129514   5.348   5.491   0.968 -0.5495  0.2549 -0.7039
 9851TIP3    H229515   5.234   5.551   1.047 -0.1936  0.4932 -0.3690
 9852TIP3   OH229516   3.619   4.653   6.166  0.5380 -0.2599  0.4999
 9852TIP3    H129517   3.533   4.690   6.183  0.4447 -0.9851  1.6596
 9852TIP3    H229518   3.603   4.560   6.150  0.9634 -0.1509 -0.6202
 9853TIP3   OH229519   1.408   7.037   5.741 -0.3102  0.0692 -0.2669
 9853TIP3    H129520   1.360   7.065   5.663  0.5739 -0.3850 -0.9934
 9853TIP3    H229521   1.358   6.962   5.774 -1.2528  0.8922  0.2040
 9854TIP3   OH229522   2.548   5.461   4.722  0.1103 -0.5254  0.6544
 9854TIP3    H129523   2.596   5.384   4.692 -1.3210 -1.3298  0.3416
 9854TIP3    H229524   2.577   5.474   4.812  0.7933 -1.0867  0.5157
 9855TIP3   OH229525   5.271   4.292   5.937 -0.4803 -0.2565 -0.1393
 9855TIP3    H129526   5.337   4.226   5.918 -0.6133 -0.8232  1.2562
 9855TIP3    H229527   5.295   4.324   6.024 -1.0843  0.7093 -0.3286
 9856TIP3   OH229528   1.968   1.838   0.019  0.3748  0.1570  0.1754
 9856TIP3    H129529   1.939   1.918   0.062 -0.8064 -0.6198  0.8533
 9856TIP3    H229530   2.064   1.841   0.023  0.3074  0.9147  1.3402
 9857TIP3   OH229531   0.026   4.319   6.214  0.7734  0.0144  0.0015
 9857TIP3    H129532   0.033   4.230   6.180 -0.5717 -0.1351  0.0684
 9857TIP3    H229533   0.046   4.375   6.139  0.9315 -0.3346 -0.2191
 9858TIP3   OH229534   4.431   5.433   6.116 -0.2132  0.5524 -0.2380
 9858TIP3    H129535   4.350   5.483   6.121 -1.0632 -0.9469  1.6817
 9858TIP3    H229536   4.451   5.411   6.207  0.8802 -1.3737 -0.9087
 9859TIP3   OH229537   4.097   4.110   3.691 -0.2538 -0.4414  0.2524
 9859TIP3    H129538   4.095   4.026   3.736  0.5957 -0.9811 -0.6985
 9859TIP3    H229539   4.177   4.153   3.724  0.2013 -0.7070 -0.4977
 9860TIP3   OH229540   1.623   1.500   1.158  0.1860  0.4955 -0.1982
 9860TIP3    H129541   1.594   1.531   1.244 -1.0743 -1.7458  0.2097
 9860TIP3    H229542   1.696   1.441   1.177  0.6148  0.8441 -0.7533
 9861TIP3   OH229543   5.867   4.472   5.848  0.0009 -0.0857  0.2040
 9861TIP3    H129544   5.784   4.515   5.869  0.2464  0.9205 -0.8329
 9861TIP3    H229545   5.854   4.438   5.759  0.0952 -1.4554  0.7047
 9862TIP3   OH229546   3.508   6.500   5.973  0.2312  0.0539 -0.5832
 9862TIP3    H129547   3.574   6.437   5.944  1.2327  0.7840  0.0867
 9862TIP3    H229548   3.547   6.543   6.049  0.5925  3.1838 -2.4259
 9863TIP3   OH229549   6.340   3.750   4.094 -0.2552 -0.2145 -0.3865
 9863TIP3    H129550   6.393   3.750   4.014  2.5184 -1.8654  1.3784
 9863TIP3    H229551   6.331   3.657   4.116  1.3735  0.2922  2.6795
 9864TIP3   OH229552   4.572   3.026   5.130  0.3169 -0.9888 -0.0421
 9864TIP3    H129553   4.555   3.108   5.177  1.3992 -0.6038 -0.2974
 9864TIP3    H229554   4.502   2.967   5.158 -0.8380  0.2233 -0.3280
 9865TIP3   OH229555   4.367   5.187   5.416 -0.0528  0.0617  0.0055
 9865TIP3    H129556   4.303   5.234   5.362  0.9273  0.5187 -0.7859
 9865TIP3    H229557   4.327   5.182   5.502  0.1896  3.1725  0.3533
 9866TIP3   OH229558   6.959   5.391   3.563  0.4384  0.1203 -0.0359
 9866TIP3    H129559   6.931   5.386   3.471  1.4807  1.0397 -0.4252
 9866TIP3    H229560   6.909   5.463   3.599 -1.4631 -1.5301  0.6861
 9867TIP3   OH229561   4.968   6.757   4.986 -0.3997 -0.0409 -0.1863
 9867TIP3    H129562   4.961   6.733   5.078  0.1452  0.1170 -0.1021
 9867TIP3    H229563   4.878   6.779   4.960 -0.2562  1.9628  0.8773
 9868TIP3   OH229564   5.962   4.239   6.027 -0.2063  0.5323  0.1668
 9868TIP3    H129565   5.946   4.295   5.951 -0.0243  1.7060  0.9749
 9868TIP3    H229566   5.883   4.250   6.080  0.5254  1.3186  1.1075
 9869TIP3   OH229567   1.902   2.406   1.297  0.1428  0.2072 -0.1332
 9869TIP3    H129568   1.836   2.347   1.259  1.1008 -2.5714  2.2974
 9869TIP3    H229569   1.966   2.418   1.227 -0.6625 -0.7237 -1.0526
 9870TIP3   OH229570   1.924   1.352   0.956  0.1965 -0.6897  0.1128
 9870TIP3    H129571   2.010   1.314   0.939  0.8317  0.6952  0.1416
 9870TIP3    H229572   1.926   1.375   1.049  0.3513  0.7027 -0.2284
 9871TIP3   OH229573   4.700   4.146   4.717 -0.1435  0.1577  0.2585
 9871TIP3    H129574   4.736   4.179   4.634  1.3558 -1.6682  0.1527
 9871TIP3    H229575   4.655   4.066   4.693  0.5026 -0.5079  1.2479
 9872TIP3   OH229576   5.425   5.753   4.268  0.5093 -0.1008  0.1717
 9872TIP3    H129577   5.360   5.715   4.328  0.9666 -3.0917 -1.1082
 9872TIP3    H229578   5.392   5.731   4.181  2.2443  0.0511 -0.5355
 9873TIP3   OH229579   5.146   6.248   4.891  0.0836  0.2056  0.1324
 9873TIP3    H129580   5.109   6.264   4.804 -1.7055 -0.1758  0.7946
 9873TIP3    H229581   5.077   6.275   4.952  1.2309  0.2788  1.4446
 9874TIP3   OH229582   3.000   5.957   5.486  0.1483 -0.1478  0.0550
 9874TIP3    H129583   2.966   6.035   5.529  1.6053  0.7340 -0.3691
 9874TIP3    H229584   2.932   5.933   5.423 -0.4495  0.5953  0.4078
 9875TIP3   OH229585   4.329   5.802   4.681  0.1271  0.3601 -0.1298
 9875TIP3    H129586   4.415   5.765   4.662  0.1053  0.1766  0.1146
 9875TIP3    H229587   4.270   5.761   4.618  0.6116  2.2568 -1.8669
 9876TIP3   OH229588   5.450   5.884   6.280  0.1629  0.5173  0.3357
 9876TIP3    H129589   5.480   5.965   6.238 -0.1207  1.3993  1.7917
 9876TIP3    H229590   5.525   5.825   6.273 -0.2648  0.2261 -2.4191
 9877TIP3   OH229591   5.949   0.403   4.937  0.2643  0.2292 -0.5340
 9877TIP3    H129592   5.944   0.390   5.031 -0.3369 -0.2382 -0.6244
 9877TIP3    H229593   5.963   0.497   4.926 -1.9688  0.6625 -0.0342
 9878TIP3   OH229594   3.535   4.237   0.172  0.2962 -0.2438  0.0880
 9878TIP3    H129595   3.550   4.206   0.083 -1.3968 -0.9900  0.0478
 9878TIP3    H229596   3.526   4.157   0.224 -2.7386  0.1403  0.2224
 9879TIP3   OH229597   1.492   2.024   1.486 -0.1142  0.1345  0.2761
 9879TIP3    H129598   1.399   2.031   1.507 -0.3029  0.8445 -0.7919
 9879TIP3    H229599   1.535   2.072   1.557 -0.5539 -0.2864  0.8324
 9880TIP3   OH229600   5.807   5.824   6.064 -0.5089 -0.6115  0.0180
 9880TIP3    H129601   5.767   5.744   6.031 -1.3430 -0.2396  0.1082
 9880TIP3    H229602   5.899   5.802   6.075 -0.4827 -1.1680 -1.2083
 9881TIP3   OH229603   4.781   3.402   3.405  0.6363  0.6125  0.1555
 9881TIP3    H129604   4.871   3.402   3.436  0.6262 -1.3305  0.2772
 9881TIP3    H229605   4.757   3.309   3.402 -1.4415  1.1113  0.3894
 9882TIP3   OH229606   4.938   5.517   5.713 -0.6897 -0.5801 -0.1990
 9882TIP3    H129607   4.973   5.527   5.625  0.0055  0.0819  0.1408
 9882TIP3    H229608   4.843   5.516   5.702 -0.6384  0.7465 -0.8231
 9883TIP3   OH229609   3.693   4.193   5.832  0.3071 -0.6664 -0.2543
 9883TIP3    H129610   3.611   4.217   5.788  0.1705  1.8342  1.2256
 9883TIP3    H229611   3.759   4.194   5.763 -0.6930 -1.5182 -1.2431
 9884TIP3   OH229612   6.172   5.627   4.410 -0.1940 -0.2822  0.3974
 9884TIP3    H129613   6.195   5.581   4.491  1.3502  0.4278  0.3903
 9884TIP3    H229614   6.187   5.719   4.431 -0.4531 -0.0384 -0.4900
 9885TIP3   OH229615   1.892   0.197   1.757  0.4584  0.1231  0.5708
 9885TIP3    H129616   1.879   0.167   1.667  2.5183 -0.4827  0.4296
 9885TIP3    H229617   1.843   0.135   1.810  0.9832 -0.8110 -0.0135
 9886TIP3   OH229618   5.014   5.816   5.719 -0.4958 -0.3541 -0.3365
 9886TIP3    H129619   5.053   5.865   5.646 -0.3723 -1.2336 -0.8713
 9886TIP3    H229620   5.034   5.724   5.699  2.5909 -0.4123  2.5874
 9887TIP3   OH229621   6.836   2.449   0.066 -0.3741  0.0459  0.0221
 9887TIP3    H129622   6.899   2.430   0.135 -0.3828  0.0718  0.0375
 9887TIP3    H229623   6.750   2.441   0.109 -0.3999 -0.5799 -0.1466
 9888TIP3   OH229624   3.305   6.636   6.177  0.4325 -0.2472  0.1482
 9888TIP3    H129625   3.382   6.588   6.147  0.1461 -0.1250 -0.7813
 9888TIP3    H229626   3.327   6.661   6.267  0.8570 -1.5351  0.4207
 9889TIP3   OH229627   6.579   0.871   5.482  0.6734  0.0627 -0.1224
 9889TIP3    H129628   6.552   0.810   5.414  3.7853  0.6355 -1.9439
 9889TIP3    H229629   6.522   0.947   5.470 -2.0021 -1.6843  1.0226
 9890TIP3   OH229630   3.423   3.977   6.094 -0.8634 -0.5984 -0.0897
 9890TIP3    H129631   3.427   3.908   6.160  0.3194 -1.1864 -0.7650
 9890TIP3    H229632   3.419   3.930   6.011  1.5031  0.1228 -0.6424
 9891TIP3   OH229633   2.631   1.104   0.231  0.2975  0.5468 -0.0922
 9891TIP3    H129634   2.671   1.189   0.245 -1.4823  1.5061 -0.6350
 9891TIP3    H229635   2.621   1.097   0.136  2.2057 -1.1262 -0.1971
 9892TIP3   OH229636   5.548   6.064   3.956 -0.3485  0.3197 -0.2660
 9892TIP3    H129637   5.566   5.996   4.021  2.2927  1.3348  0.1188
 9892TIP3    H229638   5.568   6.022   3.872 -0.2844  0.1484 -0.1651
 9893TIP3   OH229639   4.477   4.927   5.426 -0.0889 -0.1717 -0.1065
 9893TIP3    H129640   4.562   4.930   5.382  0.5502 -1.3677  1.0342
 9893TIP3    H229641   4.449   5.019   5.431  0.8952  0.1798 -0.9164
 9894TIP3   OH229642   3.905   4.769   4.825 -0.0298  0.0152 -0.7167
 9894TIP3    H129643   3.868   4.700   4.770 -1.9940  0.3948  0.0897
 9894TIP3    H229644   3.854   4.847   4.803 -1.3528 -0.0005  2.1665
 9895TIP3   OH229645   5.220   5.872   5.540 -0.2232 -0.3869  0.3535
 9895TIP3    H129646   5.294   5.812   5.531 -1.2497 -1.3065 -2.8556
 9895TIP3    H229647   5.260   5.959   5.542  0.9732 -0.8530 -1.5021
 9896TIP3   OH229648   5.443   4.876   5.975  0.0783 -0.3847 -0.4178
 9896TIP3    H129649   5.511   4.922   6.023  0.6973 -2.1728  0.4766
 9896TIP3    H229650   5.367   4.879   6.033  0.5175 -1.6393  0.2343
 9897TIP3   OH229651   2.588   5.704   5.471  0.2500 -0.2379 -0.2060
 9897TIP3    H129652   2.604   5.704   5.565  1.1859 -1.8243 -0.3592
 9897TIP3    H229653   2.524   5.774   5.458  1.1775  0.9389  1.4127
 9898TIP3   OH229654   2.993   4.707   6.024  0.0975  0.1292  0.0415
 9898TIP3    H129655   3.086   4.718   6.042 -0.2882 -0.7849  2.8620
 9898TIP3    H229656   2.990   4.643   5.952  1.6367 -0.3753  0.4032
 9899TIP3   OH229657   6.327   1.696   5.736  0.2197  0.1520 -0.2287
 9899TIP3    H129658   6.331   1.763   5.804 -0.6922  0.9614 -0.9599
 9899TIP3    H229659   6.418   1.677   5.715  0.4920  0.7005  0.4286
 9900TIP3   OH229660   6.604   7.259   0.246 -0.1801 -0.1238 -0.1770
 9900TIP3    H129661   6.574   7.191   0.306  0.2982  0.4971  0.7810
 9900TIP3    H229662   6.681   7.295   0.289 -0.2917  0.8551 -0.8032
 9901TIP3   OH229663   5.652   5.289   3.173  0.6001  0.4382  0.1097
 9901TIP3    H129664   5.665   5.340   3.093 -2.3636 -0.3124 -0.9466
 9901TIP3    H229665   5.614   5.206   3.143 -1.2463  0.4188  2.2931
 9902TIP3   OH229666   4.006   5.880   4.951 -0.1104 -0.0746 -0.1802
 9902TIP3    H129667   3.919   5.867   4.987 -0.9346  0.6989 -1.8275
 9902TIP3    H229668   3.993   5.941   4.878  1.6442 -0.7990 -1.1271
 9903TIP3   OH229669   3.082   4.769   5.456  0.5792 -0.6061 -0.5442
 9903TIP3    H129670   3.167   4.748   5.495 -0.0374  0.1568  1.2209
 9903TIP3    H229671   3.097   4.854   5.414  0.4986 -0.1619  0.3321
 9904TIP3   OH229672   1.329   1.425   1.513 -0.1731  0.7344 -0.0989
 9904TIP3    H129673   1.332   1.342   1.562 -0.3586  0.6239 -0.2775
 9904TIP3    H229674   1.266   1.409   1.443  1.9356  0.0474 -1.9138
 9905TIP3   OH229675   6.836   1.942   0.136 -0.3495  0.4168 -0.1306
 9905TIP3    H129676   6.893   1.881   0.089 -2.9427 -1.9541 -0.3304
 9905TIP3    H229677   6.863   2.029   0.105  1.4336 -0.7916 -2.0868
 9906TIP3   OH229678   6.496   0.370   5.926  0.2544  0.3764  0.2101
 9906TIP3    H129679   6.522   0.461   5.911 -1.3036  0.8932  0.5220
 9906TIP3    H229680   6.469   0.368   6.018 -1.3708  0.0331 -0.2488
 9907TIP3   OH229681   6.098   2.867   2.246 -0.0745 -0.0259  0.5885
 9907TIP3    H129682   6.089   2.820   2.163 -1.2730 -0.2887  0.8593
 9907TIP3    H229683   6.165   2.933   2.229 -0.7830  0.3461 -0.7851
 9908TIP3   OH229684   4.327   6.961   4.553  0.4227 -0.0223 -0.2309
 9908TIP3    H129685   4.273   6.889   4.523  0.1461  0.6151 -1.2779
 9908TIP3    H229686   4.405   6.959   4.498  1.3188 -0.7103  1.0270
 9909TIP3   OH229687   3.496   1.373   1.231  0.3937 -0.2859 -0.2026
 9909TIP3    H129688   3.525   1.375   1.140 -0.4381  0.9627 -0.4562
 9909TIP3    H229689   3.576   1.385   1.282  1.0705 -2.4162 -0.7010
 9910TIP3   OH229690   6.564   4.982   4.371 -0.2438 -0.6345 -0.4444
 9910TIP3    H129691   6.650   4.945   4.355 -0.3977 -0.4299 -1.8247
 9910TIP3    H229692   6.581   5.067   4.412  0.2968  0.5044 -2.9762
 9911TIP3   OH229693   1.846   1.374   1.276  0.0845  0.2197  0.4754
 9911TIP3    H129694   1.830   1.299   1.333 -1.3307 -1.0098 -1.5164
 9911TIP3    H229695   1.941   1.386   1.278  0.1539 -0.4879  2.2007
 9912TIP3   OH229696   4.687   4.651   3.216  0.1732 -0.0202 -0.1798
 9912TIP3    H129697   4.627   4.582   3.189  1.1744 -0.1116 -2.2923
 9912TIP3    H229698   4.640   4.733   3.199 -0.4894 -0.1368  1.0363
 9913TIP3   OH229699   3.693   6.311   5.882 -0.6370  0.8353  0.0293
 9913TIP3    H129700   3.690   6.305   5.787 -0.8729  2.7678 -0.1018
 9913TIP3    H229701   3.750   6.239   5.909 -0.8584  0.0652 -1.5487
 9914TIP3   OH229702   0.181   3.841   0.450 -0.4508 -0.6352  0.1365
 9914TIP3    H129703   0.261   3.807   0.411 -0.4398 -1.5788  0.9756
 9914TIP3    H229704   0.110   3.803   0.397 -0.4028 -1.0525  0.3772
 9915TIP3   OH229705   5.539   6.749   6.175  0.0028  0.4100  0.3274
 9915TIP3    H129706   5.531   6.814   6.105 -0.8608  0.6613  0.6394
 9915TIP3    H229707   5.600   6.788   6.238  1.6264 -0.2892 -0.7852
 9916TIP3   OH229708   3.934   6.731   5.717  0.1898 -0.0674  0.5443
 9916TIP3    H129709   3.845   6.752   5.746  0.3518  2.1338 -0.4341
 9916TIP3    H229710   3.962   6.809   5.669  2.1946 -1.2294 -0.2198
 9917TIP3   OH229711   3.042   5.368   5.984 -0.0476 -0.2206 -0.3081
 9917TIP3    H129712   3.032   5.277   6.012  3.8814 -0.9802 -1.0521
 9917TIP3    H229713   3.120   5.398   6.030 -0.6271  2.4152 -0.9901
 9918TIP3   OH229714   3.910   5.619   5.308  0.0997  0.5078 -0.1384
 9918TIP3    H129715   3.866   5.704   5.306 -0.0186  0.4342 -1.7555
 9918TIP3    H229716   4.001   5.638   5.286  0.3083  0.3442  0.5718
 9919TIP3   OH229717   2.987   2.067   1.221 -0.2460 -0.0468 -0.0185
 9919TIP3    H129718   2.950   2.021   1.296  1.4695 -1.9167 -0.2735
 9919TIP3    H229719   2.973   2.007   1.147 -1.0136  1.3324 -1.0278
 9920TIP3   OH229720   1.774   2.347   0.523 -0.2152 -0.3421  0.3062
 9920TIP3    H129721   1.785   2.335   0.429 -1.0912  0.5861  0.0743
 9920TIP3    H229722   1.680   2.355   0.536  0.0501  2.5063  0.8516
 9921TIP3   OH229723   3.146   4.298   6.297  0.0312 -0.7932 -0.1334
 9921TIP3    H129724   3.085   4.312   6.370  0.7474 -1.7655  0.6693
 9921TIP3    H229725   3.213   4.365   6.309  1.0406 -1.9991  1.0833
 9922TIP3   OH229726   4.534   3.123   5.506 -0.1414 -0.2789 -0.1809
 9922TIP3    H129727   4.453   3.154   5.464  1.0269  0.9779 -1.5495
 9922TIP3    H229728   4.504   3.072   5.580 -2.2208 -0.1410 -0.8941
 9923TIP3   OH229729   3.787   1.288   0.067  0.2017 -0.5656  0.5269
 9923TIP3    H129730   3.742   1.264   0.147 -1.5774 -0.6207 -0.4552
 9923TIP3    H229731   3.718   1.289  -0.000  1.4506  0.4816 -0.7912
 9924TIP3   OH229732   2.606   1.992   0.854  0.2897  0.5582  0.3211
 9924TIP3    H129733   2.638   1.916   0.903 -0.0376  0.0605 -0.2307
 9924TIP3    H229734   2.511   1.984   0.858  0.2468 -0.6582 -2.1690
 9925TIP3   OH229735   3.762   4.357   6.062  0.0185 -0.2979  0.5374
 9925TIP3    H129736   3.739   4.298   5.991 -0.1559  3.5460 -2.7515
 9925TIP3    H229737   3.858   4.360   6.062  0.0604 -1.3230  1.3942
 9926TIP3   OH229738   4.576   4.366   3.608  0.1252 -0.5142 -0.4439
 9926TIP3    H129739   4.640   4.359   3.679 -0.3849 -0.6522  0.0048
 9926TIP3    H229740   4.548   4.458   3.609 -1.9497 -1.1076  1.3675
 9927TIP3   OH229741   1.373   5.233   5.963  0.6917 -0.2474  0.0133
 9927TIP3    H129742   1.292   5.258   6.006 -0.2407 -0.3886 -1.6262
 9927TIP3    H229743   1.426   5.312   5.963  0.9539 -0.3959  1.9213
 9928TIP3   OH229744   2.071   1.914   0.286 -0.0442  0.6730  0.0417
 9928TIP3    H129745   1.985   1.873   0.296 -0.6192  2.1936  1.5332
 9928TIP3    H229746   2.057   2.006   0.307  2.3289  0.5622  2.4782
 9929TIP3   OH229747   5.032   4.430   5.259  0.4991  0.1595  0.1662
 9929TIP3    H129748   5.058   4.505   5.311 -0.1790  1.4518 -1.3193
 9929TIP3    H229749   4.954   4.459   5.212 -0.7373 -2.0118  0.8061
 9930TIP3   OH229750   3.426   0.677   0.256  0.0245  0.5425  0.2436
 9930TIP3    H129751   3.444   0.683   0.162 -2.7099  2.6612 -0.2214
 9930TIP3    H229752   3.512   0.667   0.296  1.1636 -1.8271 -2.5376
 9931TIP3   OH229753   5.572   5.262   4.730 -0.3010  0.2737  0.1358
 9931TIP3    H129754   5.606   5.183   4.773  0.0766  1.1001  1.4134
 9931TIP3    H229755   5.607   5.334   4.783 -2.2948  1.2313  0.2013
 9932TIP3   OH229756   0.673   7.207   0.111  0.2363  0.5114 -0.0230
 9932TIP3    H129757   0.762   7.227   0.137  0.0240 -0.2570  1.3092
 9932TIP3    H229758   0.637   7.154   0.182 -1.5437  1.4939 -0.1450
 9933TIP3   OH229759   4.536   5.828   5.737  0.1195 -0.6779 -0.1016
 9933TIP3    H129760   4.571   5.750   5.781  0.4412 -0.5478 -0.1307
 9933TIP3    H229761   4.522   5.800   5.647 -2.7091 -1.6417  0.5851
 9934TIP3   OH229762   1.290   4.995   6.215  0.8181  0.5955 -0.3656
 9934TIP3    H129763   1.203   4.992   6.175  0.6401  0.3184  0.0385
 9934TIP3    H229764   1.273   4.989   6.309  1.3212 -0.2428 -0.3279
 9935TIP3   OH229765   4.603   7.009   6.263 -0.4025  0.3696 -0.2491
 9935TIP3    H129766   4.677   7.040   6.315  2.6645 -1.8515 -3.0599
 9935TIP3    H229767   4.607   6.914   6.271 -3.0008  0.2160 -0.4634
 9936TIP3   OH229768   7.114   3.641   1.056 -0.0146  0.0774  0.5747
 9936TIP3    H129769   7.052   3.676   0.992 -0.2515  0.7325  1.1514
 9936TIP3    H229770   7.074   3.560   1.087 -0.8487  0.7667  1.3342
 9937TIP3   OH229771   6.352   5.880   4.594 -0.1978  0.3338  0.0908
 9937TIP3    H129772   6.431   5.832   4.572  0.4154  1.8439 -1.0761
 9937TIP3    H229773   6.314   5.905   4.510 -2.0049 -0.4820  0.6257
 9938TIP3   OH229774   5.700   6.527   4.354 -0.0062 -0.2512 -0.0496
 9938TIP3    H129775   5.667   6.531   4.444 -1.4812  0.8079 -0.6060
 9938TIP3    H229776   5.679   6.439   4.324 -1.1068 -0.0430  0.0773
 9939TIP3   OH229777   3.584   6.621   6.220  0.1578 -0.3616 -0.2392
 9939TIP3    H129778   3.626   6.587   6.299 -1.3844 -0.4644  0.5727
 9939TIP3    H229779   3.620   6.709   6.210 -0.0983 -0.1049  0.9578
 9940TIP3   OH229780   6.227   3.606   5.345 -0.6553 -0.5529 -0.1437
 9940TIP3    H129781   6.214   3.700   5.352 -0.5290 -0.5689  0.3587
 9940TIP3    H229782   6.234   3.576   5.436  0.5034 -0.8741 -0.3284
 9941TIP3   OH229783   5.281   5.676   4.015  0.0980  0.1105 -0.1281
 9941TIP3    H129784   5.232   5.666   3.933 -1.0152 -0.6023  0.6088
 9941TIP3    H229785   5.354   5.615   4.007 -0.5033 -0.6129 -0.2417
 9942TIP3   OH229786   4.986   5.495   4.329  0.1027  0.2121 -0.4869
 9942TIP3    H129787   4.951   5.420   4.378 -0.0703  0.8037  0.3132
 9942TIP3    H229788   5.035   5.456   4.257  0.1432 -0.6795  0.0134
 9943TIP3   OH229789   4.951   4.934   3.902 -0.1927  0.4752  0.1462
 9943TIP3    H129790   4.947   4.856   3.847  1.1515  1.0204 -0.7650
 9943TIP3    H229791   5.044   4.943   3.925 -0.5312  1.0499  1.3478
 9944TIP3   OH229792   6.574   5.515   3.569  0.3869  0.3696  0.5173
 9944TIP3    H129793   6.502   5.578   3.571 -1.4651 -1.7046  0.6414
 9944TIP3    H229794   6.615   5.529   3.483 -0.7795  0.8788  0.0300
 9945TIP3   OH229795   4.890   6.040   6.105  0.1234 -0.2773  1.0167
 9945TIP3    H129796   4.896   5.967   6.165  1.0247 -0.4785  0.6888
 9945TIP3    H229797   4.797   6.061   6.101 -0.0632 -1.0084  1.5811
 9946TIP3   OH229798   6.477   6.144   4.895 -0.7322 -0.6901  0.1237
 9946TIP3    H129799   6.472   6.049   4.887  0.1050 -0.5864 -1.7689
 9946TIP3    H229800   6.510   6.174   4.811 -0.2936  1.2316  0.9542
 9947TIP3   OH229801   0.040   1.774   1.808 -0.4275  0.4979 -0.4401
 9947TIP3    H129802  -0.053   1.792   1.816 -0.5407 -0.6505  1.0293
 9947TIP3    H229803   0.065   1.736   1.892  0.9203 -1.1839 -1.5578
 9948TIP3   OH229804   3.533   4.131   5.029  0.0786 -0.3889 -0.7761
 9948TIP3    H129805   3.443   4.109   5.055 -0.3151 -0.1705 -1.9455
 9948TIP3    H229806   3.577   4.151   5.112 -0.8317 -0.9308 -0.1529
 9949TIP3   OH229807   7.043   6.192   3.699 -0.2350  0.1442  0.0377
 9949TIP3    H129808   7.072   6.104   3.676 -0.2498  0.2438 -0.3766
 9949TIP3    H229809   7.124   6.243   3.707 -0.2522  0.2287 -0.3050
 9950TIP3   OH229810   4.128   5.074   4.710 -0.0730 -0.3095 -0.0869
 9950TIP3    H129811   4.032   5.077   4.715 -0.0522  1.2863 -0.2815
 9950TIP3    H229812   4.154   5.008   4.774 -1.1857  0.9449  1.7112
 9951TIP3   OH229813   5.557   2.979   5.667 -0.1887  0.1330 -0.0106
 9951TIP3    H129814   5.516   3.017   5.589  0.3100  0.6719 -0.0138
 9951TIP3    H229815   5.629   3.039   5.688 -0.7168  0.3335  1.2450
 9952TIP3   OH229816   4.129   1.059   0.221  0.0290 -0.5398  0.4339
 9952TIP3    H129817   4.161   1.108   0.145 -1.6148  3.8426  2.4227
 9952TIP3    H229818   4.209   1.024   0.261  1.6041  2.7075  0.3335
 9953TIP3   OH229819   2.824   0.812   2.307 -0.3723 -0.1903  0.4642
 9953TIP3    H129820   2.911   0.810   2.268  0.1388 -1.2831  1.6385
 9953TIP3    H229821   2.834   0.866   2.386 -0.3471 -1.7850  1.5588
 9954TIP3   OH229822   0.714   2.313   1.162 -0.1862 -0.1037 -0.8871
 9954TIP3    H129823   0.627   2.351   1.176  1.1141  3.5436 -2.1292
 9954TIP3    H229824   0.737   2.274   1.247 -2.9072 -0.9158 -0.4778
 9955TIP3   OH229825   3.893   3.899   4.695 -0.0966 -0.0106  0.2543
 9955TIP3    H129826   3.916   3.929   4.783 -4.0065 -1.0476  1.7043
 9955TIP3    H229827   3.854   3.975   4.652 -1.7544 -0.5466  0.7922
 9956TIP3   OH229828   5.840   4.796   3.518  0.0391  0.0529 -0.0419
 9956TIP3    H129829   5.770   4.844   3.474  0.0898 -1.0877 -1.4008
 9956TIP3    H229830   5.917   4.807   3.462  0.2494 -0.9477  0.0428
 9957TIP3   OH229831   2.136   1.462   0.202  0.1180 -0.1131 -0.2668
 9957TIP3    H129832   2.168   1.372   0.212  1.9926  0.4209 -1.2859
 9957TIP3    H229833   2.184   1.512   0.269 -0.3228  0.2725 -0.2347
 9958TIP3   OH229834   0.589   0.887   0.688 -0.4206 -0.0354  0.0291
 9958TIP3    H129835   0.625   0.956   0.633 -1.6112  0.3412 -0.3058
 9958TIP3    H229836   0.610   0.914   0.777  0.4972 -0.0503 -0.1828
 9959TIP3   OH229837   5.824   3.990   6.260 -0.1623 -0.0589 -0.8358
 9959TIP3    H129838   5.778   4.060   6.306  3.2056  0.3668  2.0472
 9959TIP3    H229839   5.796   3.910   6.304  0.0082 -0.0185 -0.6508
 9960TIP3   OH229840   5.176   4.005   4.490  0.6232  0.1715  0.1147
 9960TIP3    H129841   5.101   4.054   4.457  0.7333 -0.3750 -0.9887
 9960TIP3    H229842   5.210   3.960   4.413  0.4954 -1.6609  1.0989
 9961TIP3   OH229843   5.283   6.134   0.711  0.1959  0.3580 -0.0593
 9961TIP3    H129844   5.275   6.188   0.790 -0.1560  0.8323 -0.4132
 9961TIP3    H229845   5.194   6.103   0.695  0.6128 -1.3300  0.8336
 9962TIP3   OH229846   6.471   4.889   3.233 -0.2501 -0.1883  0.3601
 9962TIP3    H129847   6.509   4.825   3.173  1.1333  0.0825  0.9223
 9962TIP3    H229848   6.457   4.967   3.180 -0.4672 -0.4417  0.0430
 9963TIP3   OH229849   7.326   1.637   1.782  0.1543  0.0529 -0.0779
 9963TIP3    H129850   7.243   1.606   1.816 -0.2034  0.7723 -0.2877
 9963TIP3    H229851   7.384   1.560   1.786  0.1975  0.1815  2.3294
 9964TIP3   OH229852   0.305   2.246   1.028  0.2626 -0.4500  0.2477
 9964TIP3    H129853   0.290   2.259   1.121  0.7577  0.2507  0.2320
 9964TIP3    H229854   0.289   2.153   1.014  0.5495 -0.6303  1.0959
 9965TIP3   OH229855   2.100   2.926   0.780 -0.6040 -0.1003  0.2092
 9965TIP3    H129856   2.138   2.935   0.868 -1.5240  2.0050  0.4169
 9965TIP3    H229857   2.130   3.003   0.733 -3.3064  0.8385 -0.0859
 9966TIP3   OH229858   7.724   2.401   1.721 -0.2808 -0.1602  0.0548
 9966TIP3    H129859   7.728   2.412   1.627 -1.0424  0.8477  0.1433
 9966TIP3    H229860   7.677   2.318   1.734 -0.5636 -0.0739 -0.4375
 9967TIP3   OH229861   2.649   6.408   0.108  0.7319  0.6715  0.0773
 9967TIP3    H129862   2.601   6.457   0.174  2.1229 -0.4528  1.9887
 9967TIP3    H229863   2.583   6.382   0.044 -0.6409  1.7844  1.0171
 9968TIP3   OH229864   4.389   4.068   5.652 -0.0298  0.1022  0.3306
 9968TIP3    H129865   4.420   4.138   5.709 -1.1078  0.4282  0.5237
 9968TIP3    H229866   4.298   4.090   5.634 -0.3088 -1.1300  0.2010
 9969TIP3   OH229867   0.775   1.241   0.973  0.2314  0.1796  0.4506
 9969TIP3    H129868   0.740   1.299   1.041 -1.2982 -0.0144 -0.1643
 9969TIP3    H229869   0.718   1.165   0.973  0.1841  0.1898 -1.0875
 9970TIP3   OH229870   5.197   5.722   5.140 -0.0653  0.1624 -0.4505
 9970TIP3    H129871   5.214   5.816   5.150 -0.8664  0.3551 -0.8461
 9970TIP3    H229872   5.133   5.703   5.208  1.7857 -0.5860  1.1302
 9971TIP3   OH229873   3.541   7.126   5.397 -0.1533 -0.0319  0.1699
 9971TIP3    H129874   3.490   7.050   5.369 -1.4468  0.6150  0.7428
 9971TIP3    H229875   3.613   7.130   5.335 -0.8372 -0.9179 -0.7033
 9972TIP3   OH229876   1.110   3.689   1.048 -0.2287 -0.5177 -0.5318
 9972TIP3    H129877   1.151   3.605   1.027  1.1535  0.6224 -2.4659
 9972TIP3    H229878   1.017   3.667   1.062 -0.1960 -2.1541 -2.6049
 9973TIP3   OH229879   4.244   4.183   6.063 -0.3306  1.0160  0.2395
 9973TIP3    H129880   4.214   4.188   6.153 -2.0983  0.9372 -0.3175
 9973TIP3    H229881   4.267   4.090   6.050 -1.9267  0.6261  0.0655
 9974TIP3   OH229882   3.940   7.235   0.555  0.2339 -0.4390  0.3978
 9974TIP3    H129883   3.961   7.326   0.535  0.1996 -0.6057 -0.3945
 9974TIP3    H229884   3.859   7.218   0.507 -0.1067 -0.7014  1.0542
 9975TIP3   OH229885   0.195   3.170   0.153 -0.0134 -0.0890 -0.3955
 9975TIP3    H129886   0.138   3.223   0.209 -0.4215 -1.6024  0.6395
 9975TIP3    H229887   0.240   3.111   0.213  2.4902  0.9153 -1.2400
 9976TIP3   OH229888   5.143   5.435   4.632 -0.1302  0.0224  0.4444
 9976TIP3    H129889   5.132   5.477   4.717 -1.7032 -0.0749  0.3090
 9976TIP3    H229890   5.055   5.405   4.609  0.2306  0.3148 -1.3553
 9977TIP3   OH229891   5.571   5.243   5.953 -0.0766 -0.0556 -0.0272
 9977TIP3    H129892   5.650   5.227   5.902 -0.1023 -0.1694 -0.0305
 9977TIP3    H229893   5.499   5.220   5.894 -0.0628 -2.1081  0.7433
 9978TIP3   OH229894   5.949   3.899   4.383  0.3069 -0.2909 -0.3721
 9978TIP3    H129895   6.023   3.873   4.328  0.4013  0.3382 -0.5464
 9978TIP3    H229896   5.989   3.929   4.465  0.1199 -2.0947  0.4052
 9979TIP3   OH229897   4.209   5.552   3.051  0.1485 -0.4278  0.1387
 9979TIP3    H129898   4.294   5.525   3.086  1.1797 -0.3917 -2.2402
 9979TIP3    H229899   4.222   5.643   3.024 -0.1393 -0.8941 -1.6767
 9980TIP3   OH229900   3.517   5.561   5.887 -0.0845  0.1333 -0.2015
 9980TIP3    H129901   3.609   5.569   5.912 -0.3501  0.5812  0.6385
 9980TIP3    H229902   3.474   5.525   5.964 -0.9804  1.9582  0.1869
 9981TIP3   OH229903   3.718   4.961   6.129  0.4685  0.1166 -0.0521
 9981TIP3    H129904   3.726   4.918   6.044 -1.1669 -0.4201  0.0413
 9981TIP3    H229905   3.713   4.889   6.192 -1.5308  0.4207  0.1785
 9982TIP3   OH229906   4.987   3.743   5.295 -0.4420 -0.3286  0.3308
 9982TIP3    H129907   4.919   3.782   5.350 -0.4572 -1.3572  1.0659
 9982TIP3    H229908   4.994   3.802   5.220 -2.9005 -0.7691 -0.2995
 9983TIP3   OH229909   5.114   3.375   4.378  0.3669  0.6338 -0.1662
 9983TIP3    H129910   5.087   3.291   4.341 -0.0385  0.4101  0.6035
 9983TIP3    H229911   5.166   3.417   4.310  0.3267 -0.1206 -0.6637
 9984TIP3   OH229912   6.998   7.194   1.155  0.0154 -0.1633  0.1665
 9984TIP3    H129913   7.050   7.134   1.209  2.6379 -0.0764 -2.2123
 9984TIP3    H229914   6.939   7.137   1.106  1.3652 -0.6797 -0.8651
 9985TIP3   OH229915   3.015   4.585   4.869  0.7482  0.2629 -0.0872
 9985TIP3    H129916   3.036   4.504   4.914 -0.4273 -1.0868 -1.8664
 9985TIP3    H229917   2.923   4.601   4.890  0.0641 -0.5960 -2.2001
 9986TIP3   OH229918   4.022   4.072   4.074  0.3653 -0.4317 -0.6848
 9986TIP3    H129919   3.936   4.114   4.075  0.5691 -0.0122 -0.8035
 9986TIP3    H229920   4.014   4.003   4.008  1.1468  1.7874 -3.1962
 9987TIP3   OH229921   6.590   3.794   4.357 -0.0194  0.1553 -0.1487
 9987TIP3    H129922   6.534   3.731   4.401  0.2759 -1.2107 -1.6776
 9987TIP3    H229923   6.537   3.874   4.351 -0.1471  0.3108  2.3920
 9988TIP3   OH229924   4.935   7.162   5.233  0.5738 -0.2331  0.1628
 9988TIP3    H129925   4.896   7.095   5.175  0.0511  0.4414 -0.2752
 9988TIP3    H229926   5.019   7.125   5.258  0.5422 -0.8128 -0.5440
 9989TIP3   OH229927   7.471   4.862   3.755  0.3659 -0.5371 -0.4294
 9989TIP3    H129928   7.447   4.875   3.663 -0.3888  0.4761 -0.0969
 9989TIP3    H229929   7.562   4.834   3.752  0.7477  0.7435 -1.4223
 9990TIP3   OH229930   2.146   0.376   2.508  0.0460  0.4072 -0.2142
 9990TIP3    H129931   2.185   0.293   2.536  1.6674  0.6601 -1.6030
 9990TIP3    H229932   2.165   0.436   2.580  1.5498  0.3225 -0.5288
 9991TIP3   OH229933   5.017   5.151   5.903 -0.1762  0.3355  0.2017
 9991TIP3    H129934   5.004   5.182   5.814 -0.2764  0.4255  0.2485
 9991TIP3    H229935   4.929   5.133   5.936  0.0372 -3.3892 -1.0404
 9992TIP3   OH229936   3.002   4.093   5.872 -0.5547  0.3762 -0.3177
 9992TIP3    H129937   3.023   4.162   5.935  0.1904 -1.7265  1.8028
 9992TIP3    H229938   2.908   4.101   5.859 -0.7492  0.7542  1.1837
 9993TIP3   OH229939   4.960   1.180   0.560  0.0391  0.3610 -0.2941
 9993TIP3    H129940   4.918   1.264   0.543  1.0341  1.1360  0.9144
 9993TIP3    H229941   5.007   1.160   0.479  0.7172  1.5559 -0.2206
 9994TIP3   OH229942   3.990   2.132   0.346  0.3513  0.2553 -0.1114
 9994TIP3    H129943   3.974   2.039   0.332 -1.2450  0.4517  0.3737
 9994TIP3    H229944   4.056   2.155   0.280  1.2189 -1.3446  0.1616
 9995TIP3   OH229945   5.700   3.138   5.166 -0.5856  0.0218  1.3774
 9995TIP3    H129946   5.608   3.164   5.176 -1.4260 -2.4185  0.5746
 9995TIP3    H229947   5.704   3.100   5.078  1.2951  0.4588  1.2527
 9996TIP3   OH229948   7.157   3.519   5.776  0.0813  0.6729 -0.2421
 9996TIP3    H129949   7.148   3.555   5.688 -0.2688  0.4278 -0.3059
 9996TIP3    H229950   7.078   3.468   5.790 -0.6682  2.0696  0.8497
 9997TIP3   OH229951   6.491   4.123   6.186  0.3780 -0.1328 -0.1843
 9997TIP3    H129952   6.414   4.175   6.166  0.2590  0.0168  0.6519
 9997TIP3    H229953   6.468   4.034   6.158 -0.1487 -0.1148  0.1870
 9998TIP3   OH229954   7.487   5.290   4.801  0.3627 -0.0024 -0.1265
 9998TIP3    H129955   7.544   5.217   4.825 -0.0404  0.2474  1.6563
 9998TIP3    H229956   7.529   5.366   4.841  0.2463  0.6037 -1.1456
 9999TIP3   OH229957   4.779   4.922   5.588  0.1655  0.0141  0.1732
 9999TIP3    H129958   4.798   5.015   5.587  1.7774 -0.3035 -0.7661
 9999TIP3    H229959   4.838   4.886   5.655  0.6755 -0.5388 -0.5633
10000TIP3   OH229960   5.715   4.550   4.344  0.6986 -0.2422 -0.0094
10000TIP3    H129961   5.693   4.460   4.322  0.2775  0.0261 -0.6758
10000TIP3    H229962   5.632   4.598   4.338  0.8690  0.1436  0.5870
10001TIP3   OH229963   5.020   2.828   0.502  0.2078  0.1553 -0.6540
10001TIP3    H129964   4.970   2.753   0.535 -0.4290  0.9303  0.1554
10001TIP3    H229965   4.960   2.873   0.443  0.6119  0.0016 -1.1878
10002TIP3   OH229966   5.735   3.500   4.595 -1.0280 -0.1044 -0.1742
10002TIP3    H129967   5.789   3.506   4.517 -0.8984  0.1083 -0.0693
10002TIP3    H229968   5.791   3.459   4.661 -1.0993 -0.1767 -0.1584
10003TIP3   OH229969   0.659   4.709   4.447 -0.4907 -0.0867 -0.6079
10003TIP3    H129970   0.674   4.744   4.359 -1.0954 -1.1591 -1.1507
10003TIP3    H229971   0.672   4.784   4.505  1.7847  0.2123 -1.4447
10004TIP3   OH229972   1.275   7.205   0.211 -0.4306  0.4414  0.3865
10004TIP3    H129973   1.259   7.167   0.124  0.3285 -0.3142  0.5679
10004TIP3    H229974   1.366   7.184   0.230 -0.6689  0.3566  1.4831
10005TIP3   OH229975   5.559   3.681   5.547 -0.3462  0.1511  0.1227
10005TIP3    H129976   5.594   3.707   5.632 -0.5825 -0.1083  0.3016
10005TIP3    H229977   5.629   3.630   5.506 -0.3342  0.0416  0.2781
10006TIP3   OH229978   0.135   2.175   3.258 -0.6081  0.9909 -0.2407
10006TIP3    H129979   0.043   2.171   3.230 -0.9892 -0.5832  1.1386
10006TIP3    H229980   0.150   2.091   3.302  1.3010  1.5121  0.1437
10007TIP3   OH229981   4.764   4.523   4.835 -0.5752 -0.5093 -0.0691
10007TIP3    H129982   4.675   4.545   4.810 -0.7503 -1.7195 -0.5186
10007TIP3    H229983   4.761   4.513   4.930 -0.8651 -0.3419 -0.0620
10008TIP3   OH229984   6.437   5.154   4.812 -0.1413 -0.0515  0.6299
10008TIP3    H129985   6.499   5.218   4.777 -0.0747 -0.5312 -0.1361
10008TIP3    H229986   6.479   5.122   4.892  1.1773 -1.2414 -0.4991
10009TIP3   OH229987   6.211   4.973   3.786 -0.1141  0.1747 -0.1693
10009TIP3    H129988   6.141   4.919   3.750  0.6596 -0.3093 -0.9664
10009TIP3    H229989   6.190   5.062   3.759 -0.7067  0.1034  0.0521
10010TIP3   OH229990   4.404   5.091   3.596 -0.0843  0.0740  0.2859
10010TIP3    H129991   4.398   5.001   3.564 -1.7371  0.1547  0.3490
10010TIP3    H229992   4.495   5.099   3.627  0.4932 -1.1022 -1.0609
10011TIP3   OH229993   0.008   3.861   3.367  0.9539  0.1574  0.0678
10011TIP3    H129994  -0.042   3.779   3.367  1.0561  0.0352  3.5256
10011TIP3    H229995   0.099   3.834   3.358  0.7582  0.1314 -2.0913
10012TIP3   OH229996   2.232   1.046   0.600 -0.0282  0.4088 -0.3713
10012TIP3    H129997   2.247   0.996   0.681 -0.7343 -1.6926 -1.4928
10012TIP3    H229998   2.265   1.134   0.620 -0.4893  0.0304  2.3074
10013TIP3   OH229999   2.375   4.820   5.922  0.2247 -0.3160 -0.6709
10013TIP3    H130000   2.330   4.775   5.994  1.4074 -0.4284  0.0065
10013TIP3    H230001   2.409   4.749   5.868 -1.6907 -0.2368 -2.0061
10014TIP3   OH230002   7.508   4.149   6.025  0.1490  0.6443 -0.3873
10014TIP3    H130003   7.466   4.222   6.071  0.7380  0.2595  0.7865
10014TIP3    H230004   7.445   4.078   6.032  0.3744  0.4929  0.1018
10015TIP3   OH230005   4.196   0.699   1.002 -0.1665 -0.3662 -0.7992
10015TIP3    H130006   4.266   0.705   0.937 -1.3104 -1.5821 -2.1924
10015TIP3    H230007   4.159   0.612   0.988 -1.0415 -0.2653  0.8621
10016TIP3   OH230008   1.243   3.171   0.151  0.9757 -0.7598 -0.1628
10016TIP3    H130009   1.240   3.123   0.234 -1.2565  1.9261  1.4348
10016TIP3    H230010   1.268   3.106   0.086  2.2888 -3.0682  2.5318
10017TIP3   OH230011   6.452   4.561   4.746  0.5389 -0.5630 -0.8563
10017TIP3    H130012   6.368   4.548   4.701 -0.6106 -0.3162  1.1488
10017TIP3    H230013   6.447   4.650   4.780  0.4801 -1.4654  1.5732
10018TIP3   OH230014   7.679   3.584   5.795 -0.0627  0.1848 -0.3279
10018TIP3    H130015   7.718   3.661   5.754 -2.5277  1.5693 -0.1394
10018TIP3    H230016   7.668   3.521   5.724 -1.0011  1.2222 -1.1082
10019TIP3   OH230017   5.999   4.400   4.473 -0.4473 -0.6730  0.4393
10019TIP3    H130018   5.923   4.458   4.471  0.5152  0.5900  0.3845
10019TIP3    H230019   5.973   4.329   4.533 -1.0862  0.5578  1.6373
10020TIP3   OH230020   0.072   4.204   4.901  0.0172 -0.4558 -0.6953
10020TIP3    H130021   0.047   4.187   4.810 -0.1182  0.2731 -0.8020
10020TIP3    H230022  -0.004   4.248   4.939  0.2169 -0.4153 -0.3382
10021TIP3   OH230023   7.253   5.197   5.786  0.1716  0.0767 -0.7744
10021TIP3    H130024   7.249   5.112   5.831 -0.6576  0.4238 -0.1874
10021TIP3    H230025   7.323   5.244   5.831  0.5726 -0.2479 -1.0414
10022TIP3   OH230026   5.914   4.945   6.103 -0.0011 -0.0137 -0.0291
10022TIP3    H130027   5.989   4.982   6.057 -0.8175 -0.6410 -1.9016
10022TIP3    H230028   5.935   4.957   6.196  3.2056 -1.7352 -0.4409
10023TIP3   OH230029   5.467   7.354   4.181 -0.0887 -0.4256 -0.6660
10023TIP3    H130030   5.372   7.343   4.179 -0.2891  0.6569  1.1325
10023TIP3    H230031   5.502   7.269   4.156 -1.5323 -1.0956 -0.4554
10024TIP3   OH230032   7.200   4.999   6.201  0.4899 -0.1272  0.0901
10024TIP3    H130033   7.228   4.974   6.113 -0.7176 -0.9762 -0.0538
10024TIP3    H230034   7.211   5.094   6.204  1.6741 -0.2452 -0.5682
10025TIP3   OH230035   6.256   5.471   5.638 -0.0436 -0.9635 -0.1114
10025TIP3    H130036   6.343   5.509   5.627  0.6042 -2.6089 -0.8957
10025TIP3    H230037   6.242   5.472   5.733  0.0484  0.9578 -0.0953
10026TIP3   OH230038   6.502   5.593   5.605  0.0081  0.7441  0.0494
10026TIP3    H130039   6.454   5.661   5.651  0.5234  1.7746 -0.9096
10026TIP3    H230040   6.562   5.557   5.671  0.7664  2.2281  0.2100
10027TIP3   OH230041   6.378   4.724   3.437 -0.1582 -0.1523 -0.6101
10027TIP3    H130042   6.406   4.773   3.359 -0.7490  0.2488 -0.5672
10027TIP3    H230043   6.385   4.632   3.410  1.8926 -0.0904 -0.3679
10028TIP3   OH230044   6.886   6.017   4.968 -0.0665  0.4209  0.2045
10028TIP3    H130045   6.951   6.056   5.025  1.5874 -0.5442 -0.9862
10028TIP3    H230046   6.867   6.084   4.902  0.7949  0.1996 -0.2771
10029TIP3   OH230047   4.536   6.523   3.274  0.2269  0.4971 -0.1854
10029TIP3    H130048   4.527   6.598   3.333 -0.5514  2.2188 -2.4166
10029TIP3    H230049   4.463   6.466   3.297  0.1511  0.9537  0.7657
10030TIP3   OH230050   5.798   5.930   5.002 -0.2246  0.0860 -0.6813
10030TIP3    H130051   5.873   5.947   5.060 -0.0677 -3.4972  0.2551
10030TIP3    H230052   5.805   5.997   4.934  2.7342  0.9994  0.4472
10031TIP3   OH230053   7.030   3.820   5.616  0.4071 -0.4800 -0.2030
10031TIP3    H130054   6.994   3.747   5.565  0.2866 -1.0995  0.7536
10031TIP3    H230055   7.003   3.898   5.568 -1.7121 -0.9584  0.1554
10032TIP3   OH230056   5.942   2.218   5.905  0.0144  0.0253 -0.1305
10032TIP3    H130057   5.997   2.296   5.914  3.5358 -2.1418 -1.5749
10032TIP3    H230058   5.934   2.204   5.811  0.6861 -2.1398  0.0947
10033TIP3   OH230059   5.758   5.044   4.865 -0.0512 -0.0979 -0.3929
10033TIP3    H130060   5.695   4.997   4.920  0.8525  2.2269  2.7995
10033TIP3    H230061   5.833   5.060   4.923  1.9198  0.5064 -3.0036
10034TIP3   OH230062   4.135   2.326   0.209 -0.2719 -0.2937  0.0225
10034TIP3    H130063   4.225   2.348   0.234 -0.2179 -2.1575  1.5975
10034TIP3    H230064   4.081   2.391   0.254  0.2056  0.2610 -0.1886
10035TIP3   OH230065   6.299   4.239   3.047  1.0737  0.6044 -0.4041
10035TIP3    H130066   6.392   4.219   3.037  1.1552  0.4332  0.6355
10035TIP3    H230067   6.254   4.172   2.995  1.4642 -0.4701  0.6269
10036TIP3   OH230068   6.038   2.918   3.593 -0.2169  0.0162  0.1500
10036TIP3    H130069   5.991   2.900   3.511  0.5666 -1.2777 -0.0216
10036TIP3    H230070   6.128   2.936   3.566  0.5227 -2.4467  0.8738
10037TIP3   OH230071   0.051   3.625   3.909  0.7882 -0.4983  0.1167
10037TIP3    H130072   0.124   3.566   3.927  0.4684 -0.6921  0.8303
10037TIP3    H230073  -0.023   3.585   3.955  0.0574 -0.7064 -1.2182
10038TIP3   OH230074   3.917   5.012   5.852  0.5746 -0.0324 -0.7750
10038TIP3    H130075   3.886   4.944   5.911  1.9485 -0.7672 -0.8666
10038TIP3    H230076   3.991   4.971   5.806 -0.3994  0.5426 -2.9154
10039TIP3   OH230077   7.308   0.321   3.391 -0.6210 -0.1255 -0.1038
10039TIP3    H130078   7.336   0.245   3.443 -0.3319 -0.5499 -0.8628
10039TIP3    H230079   7.350   0.308   3.306  0.8938  1.8403  0.3245
10040TIP3   OH230080   1.860   0.197   4.773 -0.1599 -0.2725  0.3125
10040TIP3    H130081   1.825   0.114   4.803 -0.5936 -0.7275 -1.3931
10040TIP3    H230082   1.954   0.181   4.761  0.0394 -0.0495  1.5063
10041TIP3   OH230083   1.152   0.427   4.095  0.3854 -0.3760  0.2875
10041TIP3    H130084   1.058   0.419   4.077  0.4135  0.9069 -0.5158
10041TIP3    H230085   1.163   0.391   4.183 -1.1260  0.9264  1.0349
10042TIP3   OH230086   1.151   4.084   0.934 -0.0960  0.5877 -0.1437
10042TIP3    H130087   1.195   4.169   0.930 -0.6406  0.9142  0.5577
10042TIP3    H230088   1.157   4.049   0.845 -0.6680  1.7713 -0.6635
10043TIP3   OH230089   5.866   6.254   5.716 -0.2455 -0.2448  0.4112
10043TIP3    H130090   5.921   6.332   5.726  1.2357 -1.3817  1.1955
10043TIP3    H230091   5.815   6.251   5.796  1.3276 -1.3306  1.3926
10044TIP3   OH230092   6.644   4.407   4.843 -0.2280  0.6363 -0.3376
10044TIP3    H130093   6.579   4.456   4.794 -1.1219  1.0530  1.2258
10044TIP3    H230094   6.603   4.391   4.928  0.9446 -0.8190 -0.0262
10045TIP3   OH230095   6.596   6.295   6.258 -0.2152  0.6315  0.1060
10045TIP3    H130096   6.679   6.315   6.302 -0.6101 -1.3107  1.7894
10045TIP3    H230097   6.619   6.293   6.165  1.4066  1.1493  0.4636
10046TIP3   OH230098   7.531   4.907   6.159  0.2899  0.1068 -0.1683
10046TIP3    H130099   7.456   4.918   6.101  1.0520  1.6703 -0.8766
10046TIP3    H230100   7.499   4.934   6.245  0.3193  1.7516 -0.6624
10047TIP3   OH230101   4.512   1.130   1.705 -0.0107 -0.3544  0.0725
10047TIP3    H130102   4.475   1.049   1.669 -2.2038 -0.9168  3.4052
10047TIP3    H230103   4.459   1.200   1.668  1.2809 -0.4330 -2.0568
10048TIP3   OH230104   7.768   5.979   6.078 -0.1437  0.6853  0.3487
10048TIP3    H130105   7.766   5.891   6.041 -0.8483  0.5611  0.6772
10048TIP3    H230106   7.772   5.966   6.173 -2.4062  0.9838  0.5260
10049TIP3   OH230107   7.589   6.754   5.813 -0.0024  0.2558  0.0709
10049TIP3    H130108   7.616   6.666   5.788  1.0663  0.7606 -0.5975
10049TIP3    H230109   7.664   6.789   5.860 -0.0334  1.1687 -0.5519
10050TIP3   OH230110   5.697   4.716   4.925 -0.1216 -0.0525  0.4705
10050TIP3    H130111   5.776   4.664   4.934 -0.6839 -0.7671  1.3494
10050TIP3    H230112   5.687   4.760   5.009  0.8510  2.2268 -0.5679
10051TIP3   OH230113   7.708   4.929   4.207  0.2629  0.1039 -0.3390
10051TIP3    H130114   7.757   4.847   4.196  1.1524  0.7433 -1.1308
10051TIP3    H230115   7.738   4.963   4.292 -1.1548 -1.0856  0.6804
10052TIP3   OH230116   4.281   1.603   0.973  0.3371 -0.1228  0.0764
10052TIP3    H130117   4.370   1.637   0.979  0.1441  0.6407 -1.1946
10052TIP3    H230118   4.237   1.636   1.052  0.6080  1.2195 -0.3224
10053TIP3   OH230119   6.766   3.434   4.651 -0.6423  0.9079  0.3127
10053TIP3    H130120   6.742   3.370   4.718 -0.5878  1.6868  1.0872
10053TIP3    H230121   6.850   3.404   4.617  0.3428  1.6273  2.0481
10054TIP3   OH230122   5.284   3.663   5.619  0.1632 -0.0154  0.1719
10054TIP3    H130123   5.240   3.748   5.610  0.4976  0.0305 -1.1087
10054TIP3    H230124   5.373   3.678   5.587  0.2340 -0.8382 -0.0299
10055TIP3   OH230125   5.475   3.490   4.614  0.0513 -0.4094 -0.8033
10055TIP3    H130126   5.444   3.527   4.531  1.6328  0.8307 -0.8633
10055TIP3    H230127   5.570   3.483   4.603  0.4100  0.8488  1.3257
10056TIP3   OH230128   0.486   6.299   5.105 -0.5477 -0.1985 -0.2616
10056TIP3    H130129   0.432   6.311   5.183 -1.2827 -0.4638 -0.7246
10056TIP3    H230130   0.432   6.329   5.033 -1.0387 -2.7767 -1.0186
10057TIP3   OH230131   5.056   4.428   3.844  0.1795  0.4129  0.0358
10057TIP3    H130132   5.027   4.420   3.753 -0.9996  0.4384  0.4003
10057TIP3    H230133   5.074   4.339   3.872  1.8190  0.5198 -0.6194
10058TIP3   OH230134   5.603   5.965   3.704 -0.2619 -0.0994 -0.4257
10058TIP3    H130135   5.560   5.884   3.679 -1.7329  0.2726  0.8480
10058TIP3    H230136   5.579   6.027   3.634 -2.9514  0.4700  0.9294
10059TIP3   OH230137   6.011   5.509   4.782 -0.6012  0.7007 -0.7551
10059TIP3    H130138   6.067   5.573   4.826  0.1790 -0.3866 -0.1432
10059TIP3    H230139   6.070   5.435   4.763 -1.8508 -0.4835 -0.0599
10060TIP3   OH230140   7.676   5.362   5.977 -0.2301  0.0515  0.0954
10060TIP3    H130141   7.730   5.325   5.908  0.8690  1.7514  0.0055
10060TIP3    H230142   7.690   5.457   5.970 -1.7226  0.3805  1.3099
10061TIP3   OH230143   7.502   3.909   5.563 -0.2848  0.5326 -0.6332
10061TIP3    H130144   7.473   3.853   5.635  0.3793  3.5861  2.1262
10061TIP3    H230145   7.424   3.960   5.539 -0.4257 -0.2578 -1.9076
10062TIP3   OH230146   5.583   6.351   4.951  0.1980 -0.3212 -0.2407
10062TIP3    H130147   5.502   6.357   4.900  1.3072  1.4675 -1.8420
10062TIP3    H230148   5.588   6.434   4.997  0.1362 -1.2204  1.4267
10063TIP3   OH230149   4.852   4.534   5.616  0.5157  0.2320 -0.1262
10063TIP3    H130150   4.937   4.515   5.575  0.6612 -1.2031  0.7796
10063TIP3    H230151   4.802   4.580   5.549  1.7838  0.5092 -0.8919
10064TIP3   OH230152   4.832   1.606   0.526 -0.3118  0.0508 -0.2891
10064TIP3    H130153   4.900   1.572   0.584 -0.3025  1.4398  0.5606
10064TIP3    H230154   4.756   1.550   0.541  0.9381 -2.1715 -2.0323
10065TIP3   OH230155   6.895   4.196   4.143  0.1734 -0.7546  0.0320
10065TIP3    H130156   6.898   4.261   4.213  2.1955  0.0683 -0.7946
10065TIP3    H230157   6.884   4.248   4.063  0.8685 -1.4937 -0.5414
10066TIP3   OH230158   5.532   4.451   6.038  0.4489  0.6844  0.1059
10066TIP3    H130159   5.511   4.450   5.944 -1.7364 -0.9464  0.5589
10066TIP3    H230160   5.518   4.542   6.065  0.8302  1.1070 -1.0974
10067TIP3   OH230161   7.306   4.967   5.269 -0.1331 -0.2381  0.3680
10067TIP3    H130162   7.381   4.918   5.304 -1.4935 -2.1365  0.6932
10067TIP3    H230163   7.244   4.970   5.342 -0.0612  2.0184  0.3585
10068TIP3   OH230164   4.487   4.471   5.616 -0.1003  0.9628  0.4698
10068TIP3    H130165   4.556   4.507   5.561 -1.3801  1.0334 -1.1162
10068TIP3    H230166   4.530   4.403   5.669  1.3102  1.5149  0.0254
10069TIP3   OH230167   4.967   4.148   4.798  0.2591  0.2623 -0.0622
10069TIP3    H130168   4.873   4.141   4.779  0.2789 -0.2769  0.0308
10069TIP3    H230169   5.000   4.059   4.787  0.9053  0.5915 -0.8579
10070TIP3   OH230170   4.769   6.364   4.413  0.1749  0.0921  0.0266
10070TIP3    H130171   4.749   6.334   4.324 -0.3990  0.2115  0.1127
10070TIP3    H230172   4.850   6.415   4.404  1.4096 -1.8519 -0.0486
10071TIP3   OH230173   6.661   5.152   5.315  0.0962  0.5763 -0.3417
10071TIP3    H130174   6.612   5.091   5.370  0.5246  0.8026  0.3025
10071TIP3    H230175   6.751   5.121   5.318  0.2820  1.1355 -0.1611
10072TIP3   OH230176   6.215   6.171   6.391  0.2126 -0.3252 -0.3923
10072TIP3    H130177   6.195   6.185   6.299  3.1284 -1.1740 -1.2101
10072TIP3    H230178   6.280   6.239   6.412 -0.1478 -0.3729  0.9442
10073TIP3   OH230179   4.545   2.233   0.502 -0.3279  0.1072  0.0379
10073TIP3    H130180   4.468   2.219   0.556 -0.4426 -0.0768 -0.1692
10073TIP3    H230181   4.597   2.297   0.549 -1.1234  1.0454 -0.3447
10074TIP3   OH230182   6.625   3.147   3.942 -0.1634  0.2098  0.1711
10074TIP3    H130183   6.706   3.150   3.891  0.6026 -0.6442  1.3156
10074TIP3    H230184   6.622   3.058   3.977 -1.9362  0.0375 -0.3972
10075TIP3   OH230185   5.801   4.769   5.339  0.0042  0.1977 -0.0624
10075TIP3    H130186   5.808   4.853   5.385  2.9408  0.0354 -0.1274
10075TIP3    H230187   5.795   4.704   5.409  0.3635  0.2787  0.0480
10076TIP3   OH230188   6.447   4.794   2.838  0.0938  0.1460  0.2328
10076TIP3    H130189   6.366   4.824   2.797 -0.0836 -1.4936 -0.6799
10076TIP3    H230190   6.502   4.767   2.764  2.2617  3.0705  0.7058
10077TIP3   OH230191   5.511   5.538   5.988  0.0379  0.2247  0.3363
10077TIP3    H130192   5.474   5.533   6.076 -0.9986 -0.3244 -0.1262
10077TIP3    H230193   5.492   5.453   5.948  0.1512  0.6083 -0.5572
10078TIP3   OH230194   3.915   4.674   5.299 -0.0722  0.3604 -0.5943
10078TIP3    H130195   3.873   4.654   5.215 -0.0340 -0.4337 -0.4248
10078TIP3    H230196   3.947   4.764   5.289 -0.7279  0.5327 -1.1643
10079TIP3   OH230197   5.437   1.067   0.149  0.1703  0.3297  0.1338
10079TIP3    H130198   5.363   1.115   0.112  0.6017  0.6173 -0.3466
10079TIP3    H230199   5.401   1.028   0.229 -1.1248 -1.3201 -1.1976
10080TIP3   OH230200   1.008   5.187   6.306  0.2449 -0.1166 -0.3690
10080TIP3    H130201   1.042   5.102   6.333 -0.3365 -0.1688  0.2147
10080TIP3    H230202   0.949   5.213   6.377  0.1278  0.5974 -0.7211
10081TIP3   OH230203   6.814   3.936   6.039  0.1162 -0.1939  0.5212
10081TIP3    H130204   6.767   3.861   6.077  1.7632 -0.7357  1.5626
10081TIP3    H230205   6.859   3.899   5.962 -1.1204  0.3207 -0.4694
10082TIP3   OH230206   7.496   4.804   5.394 -0.0770  0.0368  0.0264
10082TIP3    H130207   7.576   4.787   5.443  0.0221 -2.0114 -0.7733
10082TIP3    H230208   7.516   4.776   5.305 -0.5865  2.7298 -0.9992
10083TIP3   OH230209   3.963   1.309   0.620  0.2849 -0.4831 -0.1262
10083TIP3    H130210   4.007   1.349   0.545  1.7262  0.0194  0.9658
10083TIP3    H230211   3.989   1.216   0.616  2.2160 -0.0180  1.0232
10084TIP3   OH230212   6.203   4.983   2.754 -0.1785 -0.0866 -0.3483
10084TIP3    H130213   6.197   4.990   2.659  0.2166 -3.7175 -0.7206
10084TIP3    H230214   6.126   4.933   2.780  0.4301 -0.3072  1.0953
10085TIP3   OH230215   7.404   5.536   4.075 -0.2658  0.0520 -0.2384
10085TIP3    H130216   7.361   5.565   4.156 -0.6570 -0.2856 -0.3198
10085TIP3    H230217   7.349   5.464   4.044 -0.4790  0.6028 -1.1468
10086TIP3   OH230218   5.585   4.706   5.840 -0.0910 -0.0448 -0.5944
10086TIP3    H130219   5.527   4.634   5.812 -1.1593 -0.1169  1.6933
10086TIP3    H230220   5.526   4.770   5.879  1.0195  1.4979 -1.3904
10087TIP3   OH230221   5.449   6.157   4.734  0.4206  0.1777 -0.2720
10087TIP3    H130222   5.387   6.115   4.674  0.6026  0.2049 -0.4811
10087TIP3    H230223   5.448   6.249   4.709  1.0932  0.0542 -0.7644
10088TIP3   OH230224   6.524   4.833   6.156  0.0504  0.9535 -0.1161
10088TIP3    H130225   6.430   4.812   6.163  0.1608  0.6683  0.4983
10088TIP3    H230226   6.544   4.880   6.236  0.7358 -0.1462  0.3734
10089TIP3   OH230227   5.539   3.984   3.956  0.7163  0.0706 -0.0914
10089TIP3    H130228   5.525   4.079   3.954  2.5198  0.3558 -0.1629
10089TIP3    H230229   5.581   3.964   3.873  0.4623 -0.7696 -0.0198
10090TIP3   OH230230   7.348   6.030   5.880 -0.2000 -0.4215 -0.4031
10090TIP3    H130231   7.378   5.940   5.889  0.0719 -0.2850  0.0709
10090TIP3    H230232   7.279   6.038   5.946  0.4084 -0.0120  0.1861
10091TIP3   OH230233   7.188   6.754   4.201  0.3192  0.3843 -0.1042
10091TIP3    H130234   7.153   6.843   4.197  1.2574  0.7020 -1.4291
10091TIP3    H230235   7.143   6.707   4.131  1.1262  0.2829 -0.5568
10092TIP3   OH230236   5.448   5.791   4.762 -0.0244 -0.4807  0.2742
10092TIP3    H130237   5.502   5.784   4.841 -0.2613 -1.0990  0.3792
10092TIP3    H230238   5.363   5.820   4.794  0.4832  1.4112  0.0171
10093TIP3   OH230239   6.428   6.485   2.952  0.2196 -0.1153  0.4964
10093TIP3    H130240   6.419   6.554   3.018 -1.8494 -0.2590  0.4116
10093TIP3    H230241   6.414   6.530   2.868  1.5916 -0.1546  0.2421
10094TIP3   OH230242   6.156   4.958   2.474  0.1231 -0.6995 -0.0315
10094TIP3    H130243   6.066   4.964   2.506 -0.1600  0.3722 -0.9825
10094TIP3    H230244   6.152   4.890   2.407 -0.2994  0.3137 -1.0604
10095TIP3   OH230245   1.340   4.260   5.780  0.9251 -0.5379  1.1043
10095TIP3    H130246   1.350   4.293   5.691  1.0905 -0.3542  1.1887
10095TIP3    H230247   1.294   4.331   5.827 -0.4866 -1.2328  0.8055
10096TIP3   OH230248   1.610   4.809   5.638  0.0372  1.1835  0.3055
10096TIP3    H130249   1.600   4.878   5.703 -0.0839 -1.6150  3.3810
10096TIP3    H230250   1.522   4.773   5.626 -0.1617  2.4138 -2.3582
10097TIP3   OH230251   7.143   3.601   4.488  0.2799  0.0282  0.3015
10097TIP3    H130252   7.191   3.653   4.552 -0.0560 -0.8276  1.2487
10097TIP3    H230253   7.198   3.604   4.409  1.4691 -0.2464  1.1158
10098TIP3   OH230254   6.478   5.809   3.001  0.5905 -0.3844 -0.1736
10098TIP3    H130255   6.479   5.739   3.067  0.5251  0.1844  0.4328
10098TIP3    H230256   6.387   5.836   2.996  1.3155  3.0077  3.1640
10099TIP3   OH230257   6.005   3.445   5.840 -0.4044  0.4532  0.5922
10099TIP3    H130258   6.011   3.380   5.769  0.6030  0.3082  0.7965
10099TIP3    H230259   5.911   3.459   5.852 -0.5828  0.2942 -0.6037
10100TIP3   OH230260   5.991   2.159   5.647 -0.6135 -0.0564  0.0247
10100TIP3    H130261   5.950   2.215   5.581 -0.8124 -0.0748  0.1340
10100TIP3    H230262   6.076   2.137   5.609 -0.8138 -0.2416 -0.3225
10101TIP3   OH230263   6.808   4.291   3.098  0.1160 -0.1086 -0.9326
10101TIP3    H130264   6.892   4.262   3.132 -0.6173  0.9663  1.9875
10101TIP3    H230265   6.821   4.383   3.076 -0.7679  0.6064  1.3869
10102TIP3   OH230266   5.608   4.080   5.135 -0.1452  0.5441  0.1318
10102TIP3    H130267   5.592   4.072   5.041  1.0042  0.7937 -0.0916
10102TIP3    H230268   5.529   4.046   5.176 -0.1468 -0.7507 -0.9209
10103TIP3   OH230269   5.273   2.999   5.086  0.3380  0.5202 -0.8092
10103TIP3    H130270   5.188   3.039   5.066 -1.1596 -2.4295 -0.5730
10103TIP3    H230271   5.282   2.928   5.022  2.2199  0.2040 -0.2276
10104TIP3   OH230272   4.381   0.994   0.352 -0.2323  0.7070  0.0079
10104TIP3    H130273   4.466   0.949   0.359 -0.1023  0.9861  0.2124
10104TIP3    H230274   4.401   1.085   0.371 -0.4508  0.9016 -0.6702
10105TIP3   OH230275   7.760   5.003   2.478  0.3798 -0.0012 -0.5192
10105TIP3    H130276   7.693   4.935   2.490  1.6097 -1.5752 -2.2404
10105TIP3    H230277   7.718   5.067   2.420 -0.4119  0.1842  0.2467
10106TIP3   OH230278   6.832   3.685   4.309  0.3020 -0.0855  0.1372
10106TIP3    H130279   6.881   3.693   4.391  0.9555  0.0230 -0.2638
10106TIP3    H230280   6.750   3.731   4.326  0.1523 -0.6392  0.9576
10107TIP3   OH230281   6.291   5.487   2.324  0.8406 -0.7134 -0.2801
10107TIP3    H130282   6.281   5.392   2.314 -0.7356 -0.7656  1.4140
10107TIP3    H230283   6.332   5.498   2.409 -0.9808  0.1725  0.5141
10108TIP3   OH230284   4.676   5.259   6.300 -0.8507  0.3044  0.1057
10108TIP3    H130285   4.660   5.338   6.352 -0.5784 -0.1343  0.8647
10108TIP3    H230286   4.749   5.215   6.344  0.1784  0.5165 -1.3132
10109TIP3   OH230287   6.000   6.605   5.418  0.0747  0.2203  0.1713
10109TIP3    H130288   5.973   6.691   5.386  0.1537 -0.2679 -1.2214
10109TIP3    H230289   5.926   6.548   5.397  0.3388 -0.2057  0.4036
10110TIP3   OH230290   4.194   6.622   5.511  0.1910  0.0496  0.3595
10110TIP3    H130291   4.167   6.561   5.579 -1.9027  0.2174 -0.2687
10110TIP3    H230292   4.182   6.708   5.550 -1.4406  0.1603 -0.3231
10111TIP3   OH230293   5.857   5.279   3.676  0.0062 -0.0062 -0.3745
10111TIP3    H130294   5.949   5.300   3.659  0.2333 -1.2518 -0.7355
10111TIP3    H230295   5.828   5.234   3.597 -0.3462 -1.4333  0.5589
10112TIP3   OH230296   0.497   5.436   3.765  0.0845  0.0162  0.9177
10112TIP3    H130297   0.436   5.378   3.719 -0.6328  0.6543  1.0662
10112TIP3    H230298   0.441   5.498   3.811  0.8492  0.5979  1.0649
10113TIP3   OH230299   4.949   5.489   5.293  0.2073  0.0187 -0.1400
10113TIP3    H130300   4.946   5.554   5.223 -0.3759 -0.0781 -0.2120
10113TIP3    H230301   4.998   5.532   5.363  1.2437 -0.0829 -0.7970
10114TIP3   OH230302   6.056   3.198   2.781 -0.3118  0.4618  0.0751
10114TIP3    H130303   6.036   3.270   2.840 -0.8758  0.9637 -0.7270
10114TIP3    H230304   6.114   3.141   2.832  0.0828  1.4413  0.7335
10115TIP3   OH230305   0.214   4.771   5.238 -0.0048  0.4703 -0.1368
10115TIP3    H130306   0.218   4.679   5.266 -1.9137  1.0450  2.2143
10115TIP3    H230307   0.224   4.767   5.143 -0.8493 -2.2752 -0.1636
10116TIP3   OH230308   6.246   6.923   4.042 -0.2928 -0.1271 -0.4343
10116TIP3    H130309   6.155   6.896   4.052  0.2924 -1.4928  1.3380
10116TIP3    H230310   6.293   6.841   4.025  0.9382  0.2778  1.0254
10117TIP3   OH230311   6.979   4.274   3.664  0.0070 -0.1625 -0.5794
10117TIP3    H130312   7.040   4.207   3.634 -1.0091 -1.1112 -0.5474
10117TIP3    H230313   6.893   4.231   3.664 -0.5899  0.9946 -0.1158
10118TIP3   OH230314   7.367   3.891   6.079 -0.1986 -0.1337 -0.9118
10118TIP3    H130315   7.389   3.873   5.988 -2.5823 -1.8917 -1.1826
10118TIP3    H230316   7.272   3.895   6.081 -0.1171  1.9185  1.1494
10119TIP3   OH230317   6.193   4.431   4.271  0.0490  0.1093 -0.1345
10119TIP3    H130318   6.102   4.450   4.251 -0.1231  0.4455  0.9484
10119TIP3    H230319   6.191   4.388   4.356  1.0417  1.9047  0.8283
10120TIP3   OH230320   6.034   4.781   4.545  0.4535 -0.0199 -0.2013
10120TIP3    H130321   5.974   4.760   4.617 -0.3428  1.1067 -0.5186
10120TIP3    H230322   5.985   4.759   4.466  1.2363 -1.0190 -0.4072
10121TIP3   OH230323   5.923   4.906   3.760  0.1611 -0.5436  0.1249
10121TIP3    H130324   5.874   4.984   3.787  0.2800 -0.1110 -0.8940
10121TIP3    H230325   5.876   4.875   3.682 -0.6643 -2.2461  1.2939
10122TIP3   OH230326   6.552   5.543   3.891  0.3393 -0.3743  0.1532
10122TIP3    H130327   6.489   5.506   3.953  0.3358 -1.1794 -0.3331
10122TIP3    H230328   6.513   5.528   3.805  1.6878 -1.8663 -0.2243
10123TIP3   OH230329   6.108   1.808   5.064 -0.4948 -0.2703 -0.3673
10123TIP3    H130330   6.037   1.749   5.041 -1.5859  0.5547  0.8211
10123TIP3    H230331   6.069   1.896   5.058  0.4790  0.2008  0.1059
10124TIP3   OH230332   7.389   4.632   6.041  0.3664 -0.1364  0.4232
10124TIP3    H130333   7.480   4.663   6.043  0.3280  0.0330 -0.2202
10124TIP3    H230334   7.336   4.712   6.044  0.2807  0.0596 -3.4768
10125TIP3   OH230335   4.999   0.487   0.752 -0.0001  0.2744  0.3427
10125TIP3    H130336   4.933   0.545   0.714  1.2977  0.8101 -1.1692
10125TIP3    H230337   4.975   0.479   0.844 -2.9199 -0.5874 -0.4579
10126TIP3   OH230338   5.691   3.777   4.659 -0.5369 -0.1201 -0.3985
10126TIP3    H130339   5.702   3.682   4.651 -0.7425 -0.2737  1.0037
10126TIP3    H230340   5.622   3.787   4.724 -0.7689  0.9912 -0.8190
10127TIP3   OH230341   7.107   4.292   5.636 -0.0230 -0.0566 -0.1512
10127TIP3    H130342   7.075   4.210   5.673 -0.7316 -0.3500 -1.3778
10127TIP3    H230343   7.144   4.339   5.710  0.3431 -1.4585  0.5749
10128TIP3   OH230344   4.793   0.944   0.911  0.0211  0.1946  0.2997
10128TIP3    H130345   4.878   0.905   0.929  0.6790  0.8548 -1.2308
10128TIP3    H230346   4.793   1.027   0.959  0.2781  0.2367  0.2238
10129TIP3   OH230347   7.592   6.460   5.793  0.0924  0.2229  0.0001
10129TIP3    H130348   7.531   6.424   5.857  0.0700  2.0148  1.0188
10129TIP3    H230349   7.623   6.384   5.744 -2.7844 -0.7426 -0.4129
10130TIP3   OH230350   3.337   0.206   0.657 -0.1391 -1.0298  0.2796
10130TIP3    H130351   3.264   0.240   0.604 -1.0584  0.1357  2.2558
10130TIP3    H230352   3.298   0.136   0.709  0.2819 -0.7512  0.9607
10131TIP3   OH230353   0.049   4.275   5.313 -0.0552 -0.8892  0.1849
10131TIP3    H130354  -0.000   4.231   5.383 -0.3773  0.1867  0.6365
10131TIP3    H230355   0.131   4.225   5.307  0.3493 -0.4824  1.9322
10132TIP3   OH230356   7.279   4.987   4.822 -0.3721 -0.3888 -0.0720
10132TIP3    H130357   7.364   4.997   4.865  0.9590  0.1217 -2.7359
10132TIP3    H230358   7.215   5.007   4.891  1.6425 -0.7576  1.9649
10133TIP3   OH230359   3.485   2.391   0.320 -0.0800 -0.0967  0.5705
10133TIP3    H130360   3.566   2.382   0.271  0.1089  1.4435  0.5820
10133TIP3    H230361   3.507   2.448   0.394 -1.3500  0.9955  0.1340
10134TIP3   OH230362   4.662   6.557   4.569  0.2058 -0.7190 -0.4211
10134TIP3    H130363   4.679   6.475   4.523  0.3271 -0.8392 -0.1700
10134TIP3    H230364   4.632   6.529   4.656  2.1573 -0.5058  0.3480
10135TIP3   OH230365   6.166   4.532   5.878  0.1201  0.0517  0.0930
10135TIP3    H130366   6.112   4.607   5.855 -0.0737  0.4286  1.6877
10135TIP3    H230367   6.123   4.495   5.956  1.0484 -0.8151  0.2062
10136TIP3   OH230368   5.655   4.906   5.109  0.0300 -0.2633  0.3795
10136TIP3    H130369   5.730   4.913   5.169 -0.0387 -0.9060  0.5387
10136TIP3    H230370   5.607   4.988   5.122  0.6742  0.1305  0.3140
10137TIP3   OH230371   3.658   2.240   0.632  0.3137  0.3381  0.0160
10137TIP3    H130372   3.716   2.291   0.576 -0.2854 -1.2269 -2.0969
10137TIP3    H230373   3.714   2.170   0.668  0.2729  0.2427 -0.1069
10138TIP3   OH230374   5.503   3.792   4.179 -0.3535 -0.3894 -0.2777
10138TIP3    H130375   5.530   3.847   4.105 -0.2048 -1.5288 -1.0956
10138TIP3    H230376   5.555   3.822   4.253 -1.4131  1.6346 -0.3063
10139TIP3   OH230377   3.894   0.328   0.057 -0.0629  0.9507 -0.3254
10139TIP3    H130378   3.920   0.397  -0.003  0.4588  1.4191  0.4306
10139TIP3    H230379   3.969   0.317   0.116 -0.0653 -0.3841 -0.5505
10140TIP3   OH230380   5.641   4.138   5.842 -0.4594  0.6090 -0.0673
10140TIP3    H130381   5.682   4.203   5.899  1.4452  0.6872 -1.4578
10140TIP3    H230382   5.672   4.054   5.875 -0.4434  0.5845 -0.1428
10141TIP3   OH230383   0.431   5.076   4.069  0.0350 -0.1855  0.0816
10141TIP3    H130384   0.474   5.149   4.113 -0.4849  0.1115  0.0935
10141TIP3    H230385   0.374   5.038   4.135  0.7413 -0.9621  0.2474
10142TIP3   OH230386   0.432   4.776   4.031  0.0364 -0.0057  0.2543
10142TIP3    H130387   0.418   4.699   3.975  1.1879  0.4723 -0.7200
10142TIP3    H230388   0.371   4.841   3.998  1.1864  0.5062 -0.9302
10143TIP3   OH230389   0.015   3.619   4.606 -0.0543 -0.2101 -0.4348
10143TIP3    H130390   0.099   3.588   4.639  0.4577  1.5133 -0.0461
10143TIP3    H230391   0.026   3.624   4.511  0.6617  1.0361 -0.2976
10144TIP3   OH230392   5.818   6.605   3.894 -0.1465  0.0970  0.2255
10144TIP3    H130393   5.856   6.554   3.965  0.1988 -1.3956 -1.0216
10144TIP3    H230394   5.730   6.568   3.881 -0.0698  0.1196 -0.3778
10145TIP3   OH230395   7.140   3.751   2.183  0.5683  0.4357  0.1873
10145TIP3    H130396   7.118   3.669   2.140  0.0413 -0.3619  1.9172
10145TIP3    H230397   7.058   3.780   2.224  1.0023  1.2585  0.4893
10146TIP3   OH230398   7.468   6.111   3.719 -0.4142  0.5213 -0.3471
10146TIP3    H130399   7.425   6.102   3.634 -2.0248  1.2326  0.3797
10146TIP3    H230400   7.477   6.021   3.751 -1.3709  0.3708 -0.4995
10147TIP3   OH230401   7.204   4.904   2.496 -0.5129  0.0629 -0.1289
10147TIP3    H130402   7.182   4.832   2.555  0.5294  1.0347  1.4798
10147TIP3    H230403   7.120   4.948   2.480 -1.2327 -1.7034 -1.4663
10148TIP3   OH230404   0.335   5.337   4.879  0.4736 -0.1592  0.0669
10148TIP3    H130405   0.389   5.410   4.848  0.1616 -0.0444 -0.2109
10148TIP3    H230406   0.261   5.380   4.923  1.8701 -0.3091  2.6831
10149TIP3   OH230407   4.208   1.554   0.567 -0.2952  0.6644 -0.1104
10149TIP3    H130408   4.165   1.505   0.498 -2.5536 -0.5022  2.0721
10149TIP3    H230409   4.274   1.494   0.602 -0.7593  0.3968  0.3099
10150TIP3   OH230410   6.121   2.999   5.403 -0.6835 -0.0539 -0.0041
10150TIP3    H130411   6.163   3.035   5.325  0.8731 -2.8139 -0.5204
10150TIP3    H230412   6.030   2.982   5.376  0.2521 -2.5337 -1.8336
10151TIP3   OH230413   5.476   4.197   5.625 -0.1148 -0.0418 -0.1250
10151TIP3    H130414   5.540   4.187   5.554  0.0293 -1.4908  0.1874
10151TIP3    H230415   5.522   4.164   5.703 -0.5364  0.8330  0.4968
10152TIP3   OH230416   5.615   4.396   2.878  0.0586 -0.2177  0.5323
10152TIP3    H130417   5.572   4.321   2.837 -0.3913 -0.5845  1.6571
10152TIP3    H230418   5.708   4.377   2.873  0.0947  0.3368 -1.4574
10153TIP3   OH230419   5.586   1.993   1.601  0.1595  0.1350  0.4387
10153TIP3    H130420   5.640   1.954   1.670 -0.4358 -1.9848 -0.2515
10153TIP3    H230421   5.639   1.987   1.522 -0.4369 -0.5016  0.0737
10154TIP3   OH230422   7.611   5.075   4.941  0.4089  0.0870 -0.4658
10154TIP3    H130423   7.571   5.128   5.009  1.7477  1.7520 -0.9482
10154TIP3    H230424   7.661   5.008   4.989 -1.8129 -1.1782  0.1363
10155TIP3   OH230425   4.233   3.914   3.421  0.3363 -0.1100 -0.4246
10155TIP3    H130426   4.266   3.886   3.506 -1.7464 -0.9753  0.1196
10155TIP3    H230427   4.285   3.864   3.358  0.4814 -1.0100  0.3896
10156TIP3   OH230428   5.010   4.861   5.795 -0.1319 -0.2418 -0.1188
10156TIP3    H130429   5.104   4.854   5.808 -0.1004 -1.7612 -0.9784
10156TIP3    H230430   4.973   4.795   5.854 -0.5319 -0.8538 -1.0367
10157TIP3   OH230431   4.774   5.184   4.924 -0.2332 -0.0120  0.1101
10157TIP3    H130432   4.776   5.141   4.838  0.5323 -1.0660  0.6406
10157TIP3    H230433   4.865   5.203   4.944 -0.5969  2.1311 -0.2321
10158TIP3   OH230434   3.019   2.445   0.686  0.1754 -0.3788  0.3258
10158TIP3    H130435   2.987   2.360   0.715 -2.0311 -0.1117 -1.1656
10158TIP3    H230436   3.032   2.435   0.592  1.9704  0.3363  0.4736
10159TIP3   OH230437   2.635   1.742   0.307 -0.4100  0.4919 -0.1181
10159TIP3    H130438   2.638   1.832   0.340  0.2040  0.1825  0.6701
10159TIP3    H230439   2.711   1.699   0.346 -0.1318 -0.1065 -1.2733
10160TIP3   OH230440   6.605   3.941   4.755  0.0565 -0.5189  0.4236
10160TIP3    H130441   6.510   3.936   4.757 -0.0218 -1.0097 -2.2835
10160TIP3    H230442   6.633   3.852   4.736  1.2094 -0.8609  3.4087
10161TIP3   OH230443   4.199   5.697   4.934 -0.0360 -0.4265  0.3428
10161TIP3    H130444   4.248   5.733   4.860 -0.6740 -1.6925 -0.7236
10161TIP3    H230445   4.115   5.744   4.933 -1.1148 -2.3076 -1.4287
10162TIP3   OH230446   3.541   0.074   0.538  0.4316  0.0082 -0.7858
10162TIP3    H130447   3.526   0.129   0.461  1.8205  0.5740 -0.6682
10162TIP3    H230448   3.490   0.116   0.608 -0.4290 -0.2204 -1.2818
10163TIP3   OH230449   3.255   1.999   0.516 -0.3731  0.4361  0.2759
10163TIP3    H130450   3.304   2.079   0.530  0.5657  0.0973 -0.9542
10163TIP3    H230451   3.315   1.942   0.467 -2.2717  0.3545 -2.0685
10164TIP3   OH230452   7.380   4.071   4.744 -0.3668  0.8270  0.3765
10164TIP3    H130453   7.462   4.062   4.793 -0.1585  0.0378 -0.0998
10164TIP3    H230454   7.313   4.033   4.801 -0.2691  0.7098  0.4125
10165TIP3   OH230455   2.708   1.023   1.099  0.4883 -1.0002 -0.0226
10165TIP3    H130456   2.767   1.049   1.028  2.1245 -0.5260  1.4784
10165TIP3    H230457   2.655   1.100   1.116  3.0325  0.3445  2.1361
10166TIP3   OH230458   7.142   3.501   4.052  0.5554  0.0642 -0.4092
10166TIP3    H130459   7.070   3.563   4.038  0.8649  0.5683  0.2255
10166TIP3    H230460   7.107   3.417   4.021  0.1013  0.5321 -1.1740
10167TIP3   OH230461   0.489   4.122   5.002 -0.0837 -0.0369  0.1745
10167TIP3    H130462   0.571   4.121   4.952 -0.0621  0.0810  0.2074
10167TIP3    H230463   0.468   4.030   5.017  0.8214 -0.0351  1.4656
10168TIP3   OH230464   4.430   0.100   0.060  0.3913 -0.1986 -0.3879
10168TIP3    H130465   4.501   0.097  -0.005 -0.3170  0.0031 -1.1827
10168TIP3    H230466   4.375   0.025   0.038 -0.3865  0.4449 -0.6445
10169TIP3   OH230467   6.211   4.187   2.497  0.1608  0.0739  0.6355
10169TIP3    H130468   6.218   4.105   2.545 -1.4432  0.2034  1.1205
10169TIP3    H230469   6.217   4.162   2.405 -1.0039 -0.6626  0.7588
10170TIP3   OH230470   5.873   3.762   3.791  0.0238 -0.5743  0.0476
10170TIP3    H130471   5.883   3.671   3.764  1.0210 -0.0852 -1.2185
10170TIP3    H230472   5.857   3.757   3.886  0.2357 -2.0503  0.0091
10171TIP3   OH230473   1.044   3.974   4.751  0.1515 -0.2810 -0.2429
10171TIP3    H130474   0.989   3.907   4.792  1.2164 -0.4745  0.8987
10171TIP3    H230475   1.071   3.935   4.668 -2.4215  0.3019 -1.4063
10172TIP3   OH230476   6.493   2.883   4.322  0.1673  0.2577  0.1114
10172TIP3    H130477   6.480   2.851   4.411  1.0577  0.1364  0.1976
10172TIP3    H230478   6.528   2.971   4.332  1.3429 -0.1807 -0.1094
10173TIP3   OH230479   5.629   6.644   5.346 -0.3946 -0.2241  0.1582
10173TIP3    H130480   5.562   6.577   5.340  0.4958 -1.1233  0.2154
10173TIP3    H230481   5.702   6.610   5.294 -0.4490  1.3145 -0.9744
10174TIP3   OH230482   4.749   3.968   5.737 -0.2226  0.5705  0.0053
10174TIP3    H130483   4.678   3.918   5.778 -1.2098  1.7608 -0.2065
10174TIP3    H230484   4.819   3.969   5.801 -0.6863  0.0198  0.5262
10175TIP3   OH230485   6.040   4.033   5.847  0.3314  0.0374  0.8717
10175TIP3    H130486   6.062   3.990   5.930  0.3116  0.7032  1.2200
10175TIP3    H230487   6.099   4.108   5.843  2.2637 -1.4999 -1.0093
10176TIP3   OH230488   5.070   6.090   3.636  0.3376 -0.5118 -0.4839
10176TIP3    H130489   5.031   6.177   3.642 -1.1524 -1.2874  1.7163
10176TIP3    H230490   5.156   6.100   3.677 -0.4602 -0.4141  1.2064
10177TIP3   OH230491   0.120   6.563   6.316  0.5503  0.4242  0.3837
10177TIP3    H130492   0.124   6.650   6.277  1.5849  0.5395  0.7237
10177TIP3    H230493   0.207   6.526   6.301 -0.0410 -0.7473 -0.2127
10178TIP3   OH230494   3.859   1.887   1.264  0.4961  0.0764 -0.1545
10178TIP3    H130495   3.799   1.880   1.190  0.5899  0.1640 -0.2404
10178TIP3    H230496   3.941   1.848   1.233 -0.2807 -2.4363  0.8404
10179TIP3   OH230497   1.487   6.801   0.148  0.4568  0.5438 -0.3111
10179TIP3    H130498   1.402   6.773   0.113  0.9775 -0.5702 -0.7037
10179TIP3    H230499   1.529   6.847   0.076 -0.1577  1.8513  0.1511
10180TIP3   OH230500   6.859   5.242   4.274 -0.2212  0.5214 -0.6753
10180TIP3    H130501   6.801   5.312   4.245  1.0754  1.9285  0.0587
10180TIP3    H230502   6.827   5.219   4.361  0.4129  1.4338 -0.1892
10181TIP3   OH230503   4.962   0.561   0.480  0.1050  0.5384  0.0044
10181TIP3    H130504   4.928   0.604   0.402 -1.5524  1.5065  1.2292
10181TIP3    H230505   4.886   0.518   0.519  0.5623  1.4904  2.0006
10182TIP3   OH230506   7.683   4.206   4.322  0.4810  0.5754 -0.5222
10182TIP3    H130507   7.705   4.298   4.303 -0.0896  0.9334  0.4982
10182TIP3    H230508   7.595   4.195   4.285  0.3940  0.5538 -0.3086
10183TIP3   OH230509   5.631   1.532   0.706 -0.3614 -0.6864 -0.8266
10183TIP3    H130510   5.631   1.590   0.630 -2.0614  2.4001  1.4021
10183TIP3    H230511   5.561   1.469   0.689 -1.8619  1.0172 -1.1227
10184TIP3   OH230512   7.753   4.083   6.111  0.3288  0.0092  0.1225
10184TIP3    H130513   7.661   4.109   6.114 -0.2198 -1.7820 -0.3889
10184TIP3    H230514   7.770   4.064   6.019  0.8882 -0.7415  0.3714
10185TIP3   OH230515   6.353   3.148   0.242  0.1781  0.2800  0.1815
10185TIP3    H130516   6.416   3.113   0.178  1.9571  1.5987  1.1673
10185TIP3    H230517   6.267   3.127   0.205  1.1863 -0.8986 -1.5641
10186TIP3   OH230518   4.686   1.514   1.075 -0.4383  0.4387 -0.1437
10186TIP3    H130519   4.749   1.520   1.004  0.7590 -0.5229  0.8218
10186TIP3    H230520   4.736   1.477   1.149 -1.6845  1.2621  1.1411
10187TIP3   OH230521   6.526   1.668   0.155  0.4682 -0.3311  0.1729
10187TIP3    H130522   6.557   1.658   0.246  1.0344  0.3302  0.0594
10187TIP3    H230523   6.488   1.583   0.133 -1.2911  0.0454  1.6308
10188TIP3   OH230524   0.371   4.721   4.705 -0.2893  0.3208 -0.1755
10188TIP3    H130525   0.397   4.805   4.668 -0.3413  0.6741  0.5833
10188TIP3    H230526   0.389   4.658   4.636  0.7839  0.8081 -0.3522
10189TIP3   OH230527   7.283   5.073   3.869 -0.2436 -0.5979  0.2710
10189TIP3    H130528   7.199   5.036   3.897 -1.4740  1.0968 -1.1073
10189TIP3    H230529   7.332   4.997   3.836 -1.5092 -1.4853  0.3922
10190TIP3   OH230530   0.283   6.015   4.094 -0.1025  0.1431 -0.2493
10190TIP3    H130531   0.248   6.051   4.013  0.7842 -0.6954 -1.0233
10190TIP3    H230532   0.378   6.011   4.079  0.2533  1.5704  1.4645
10191TIP3   OH230533   3.053   3.471   0.441 -0.0095  0.0866 -0.8806
10191TIP3    H130534   2.982   3.442   0.384 -1.0004  0.6133  0.0588
10191TIP3    H230535   3.020   3.553   0.479  0.8991  0.0776 -0.0654
10192TIP3   OH230536   6.853   0.073   0.573  0.5013 -0.3294  0.1974
10192TIP3    H130537   6.840   0.104   0.483 -2.0202 -1.9399 -0.0362
10192TIP3    H230538   6.946   0.051   0.577  0.0666 -3.0774 -2.9862
10193TIP3   OH230539   1.371   3.894   4.323 -0.4509  0.0374 -0.2054
10193TIP3    H130540   1.343   3.876   4.233 -2.4018 -1.1942  0.6148
10193TIP3    H230541   1.310   3.961   4.354  0.7290  1.0546 -0.0606
10194TIP3   OH230542   6.568   4.408   3.749 -0.3864  0.7731  0.9026
10194TIP3    H130543   6.498   4.347   3.722 -0.7447  2.1825 -1.4986
10194TIP3    H230544   6.529   4.494   3.741  2.2338  1.7540 -2.6759
10195TIP3   OH230545   6.618   4.148   3.268  0.3666  0.7193 -0.0938
10195TIP3    H130546   6.628   4.192   3.184 -0.5835  0.4696 -0.3432
10195TIP3    H230547   6.645   4.214   3.333 -0.2598  1.3982 -0.5117
10196TIP3   OH230548   2.096   2.717   4.648 -0.7810 -0.4041  0.7796
10196TIP3    H130549   2.036   2.642   4.643 -1.6643  0.2531  1.4869
10196TIP3    H230550   2.064   2.769   4.721  0.6101  0.0012  1.1230
10197TIP3   OH230551   7.406   0.118  -0.002 -0.1969  0.2396 -0.6080
10197TIP3    H130552   7.454   0.047  -0.045  0.6967  0.9052 -0.7338
10197TIP3    H230553   7.360   0.076   0.071  1.3714 -0.2633  0.1093
10198TIP3   OH230554   7.443   6.729   4.117  0.4202 -0.2669  0.1994
10198TIP3    H130555   7.370   6.726   4.179  2.1383  0.3082  2.2908
10198TIP3    H230556   7.421   6.800   4.058 -0.7012 -0.0898  0.8186
10199TIP3   OH230557   0.273   4.181   3.076 -0.1212  0.0582 -0.2513
10199TIP3    H130558   0.228   4.244   3.021  0.9997  1.4122  0.3482
10199TIP3    H230559   0.360   4.173   3.038  0.3154  0.2067  0.6882
10200TIP3   OH230560   1.624   3.939   5.798 -0.0872 -0.1042 -0.4932
10200TIP3    H130561   1.629   3.936   5.894 -0.8043  0.9594 -0.4187
10200TIP3    H230562   1.614   4.031   5.777  1.0792 -0.2235 -1.6600
10201TIP3   OH230563   6.292   4.423   4.942  0.4366 -0.1366 -0.7818
10201TIP3    H130564   6.372   4.425   4.995 -0.1399 -2.1699  0.2433
10201TIP3    H230565   6.303   4.347   4.885  0.0892  0.7508 -2.0289
10202TIP3   OH230566   4.517   1.850  -0.010  0.9515  0.2887 -0.2268
10202TIP3    H130567   4.507   1.934  -0.056 -1.8116  1.5358  2.4881
10202TIP3    H230568   4.542   1.874   0.079  2.4199 -1.9294 -0.0031
10203TIP3   OH230569   6.241   7.039   5.605  0.1478 -0.4076  0.2421
10203TIP3    H130570   6.307   7.029   5.673 -0.2664 -0.4001  0.6550
10203TIP3    H230571   6.254   6.965   5.546 -1.0261 -1.7737  1.6478
10204TIP3   OH230572   6.523   3.455   2.264  0.9425 -0.1762 -0.0582
10204TIP3    H130573   6.485   3.502   2.339  1.4376 -0.1143  0.1519
10204TIP3    H230574   6.495   3.364   2.277 -0.8045  0.2189 -0.9667
10205TIP3   OH230575   6.200   2.752   4.680  0.0270 -0.3444  0.4779
10205TIP3    H130576   6.187   2.679   4.620 -0.0799  0.7370 -0.8555
10205TIP3    H230577   6.170   2.829   4.631  0.4419  0.6380  1.7238
10206TIP3   OH230578   7.163   5.942   3.673 -0.0518  0.2984 -0.1434
10206TIP3    H130579   7.148   5.874   3.739 -1.3765  1.9865  1.3631
10206TIP3    H230580   7.258   5.947   3.665  0.0523 -1.8157 -0.3751
10207TIP3   OH230581   0.678   4.565   5.749  0.3118 -0.1176 -0.4810
10207TIP3    H130582   0.673   4.473   5.777  0.9782 -0.4535 -1.4542
10207TIP3    H230583   0.715   4.610   5.825 -0.1871 -0.6207  0.0711
10208TIP3   OH230584   0.205   3.541   5.072  0.5948  0.0112 -0.2733
10208TIP3    H130585   0.174   3.580   5.154  0.2544  0.3666 -0.5686
10208TIP3    H230586   0.299   3.559   5.070  0.4161  0.9466 -0.4762
10209TIP3   OH230587   6.810   5.788   2.370  0.0864  0.0868  0.3163
10209TIP3    H130588   6.724   5.748   2.357 -0.0586  0.4575  0.1305
10209TIP3    H230589   6.791   5.871   2.414  0.1191  1.4055 -2.0675
10210TIP3   OH230590   4.191   6.641   3.663 -0.1343  0.2380  0.1667
10210TIP3    H130591   4.189   6.730   3.626  1.6006 -1.5700 -4.6377
10210TIP3    H230592   4.280   6.632   3.697  0.8183 -0.7947 -2.5147
10211TIP3   OH230593   7.084   7.023   5.099  0.1957  0.3134 -0.0572
10211TIP3    H130594   7.153   7.045   5.037  1.7020 -0.9090  1.1353
10211TIP3    H230595   7.085   7.094   5.163  0.2580  0.3566 -0.1065
10212TIP3   OH230596   0.022   5.577   3.430 -0.1095  0.2554  0.1098
10212TIP3    H130597  -0.064   5.602   3.398 -0.5339 -1.4966 -0.2008
10212TIP3    H230598   0.047   5.502   3.376 -0.6471 -2.4905  3.4602
10213TIP3   OH230599   6.899   0.661   0.435  0.0342  0.5945  0.2023
10213TIP3    H130600   6.988   0.638   0.407  0.1531  0.0417  1.0066
10213TIP3    H230601   6.867   0.582   0.479 -1.0133  0.6517 -0.4471
10214TIP3   OH230602   7.484   4.493   3.661  0.2870  0.1766 -0.1035
10214TIP3    H130603   7.410   4.497   3.601  1.5072  0.7713 -1.5967
10214TIP3    H230604   7.554   4.451   3.611  1.2192  0.3743  1.0067
10215TIP3   OH230605   0.492   5.698   3.970 -0.0841 -0.0721  0.0804
10215TIP3    H130606   0.445   5.680   4.051  1.6678 -0.5528  1.0222
10215TIP3    H230607   0.485   5.792   3.958  0.0137  0.0667  1.0463
10216TIP3   OH230608   5.374   0.747   1.174 -0.1336 -0.0362 -1.0939
10216TIP3    H130609   5.363   0.842   1.167 -1.1959 -0.0461  0.3868
10216TIP3    H230610   5.387   0.730   1.267  0.8587 -1.2663 -1.4383
10217TIP3   OH230611   0.494   7.240   5.184  0.4588  0.5966  0.2659
10217TIP3    H130612   0.496   7.217   5.091  2.1084  1.2387  0.1361
10217TIP3    H230613   0.483   7.335   5.185  0.9448  0.6466  0.7305
10218TIP3   OH230614   7.647   5.038   3.400 -0.2528 -0.6096 -0.0186
10218TIP3    H130615   7.641   5.041   3.304  1.0085  0.5291 -0.0821
10218TIP3    H230616   7.648   5.130   3.426  1.1007 -0.8968  0.9629
10219TIP3   OH230617   1.257   5.664   4.470 -0.0131  0.1552  0.2249
10219TIP3    H130618   1.308   5.708   4.538  0.0272  2.7619 -1.4253
10219TIP3    H230619   1.300   5.580   4.459  1.3088  0.5754  1.8904
10220TIP3   OH230620   6.532   4.799   1.162 -0.0303  0.3104  0.3541
10220TIP3    H130621   6.549   4.893   1.172  0.7946  0.4879 -2.3235
10220TIP3    H230622   6.437   4.791   1.170 -0.1639  1.4634  0.0099
10221TIP3   OH230623   2.009   2.688   5.578  0.1138  0.2408 -0.2229
10221TIP3    H130624   2.088   2.634   5.575  0.3821  0.6001  0.2571
10221TIP3    H230625   1.940   2.627   5.604 -0.0832 -0.4207 -2.2708
10222TIP3   OH230626   6.791   6.806   2.599  0.1262 -0.7619  0.4653
10222TIP3    H130627   6.722   6.854   2.553  1.9774 -0.3135 -1.8962
10222TIP3    H230628   6.840   6.762   2.530  1.2426 -2.3867  2.2572
10223TIP3   OH230629   6.793   5.611   2.906  0.5352 -0.0345 -0.4387
10223TIP3    H130630   6.730   5.556   2.860 -0.0134 -0.1258  0.4158
10223TIP3    H230631   6.805   5.687   2.849 -1.3462  0.6122  0.0092
10224TIP3   OH230632   6.091   5.484   5.417 -0.0102  0.9761  0.1262
10224TIP3    H130633   6.144   5.487   5.498  0.1262 -0.1147  0.0905
10224TIP3    H230634   6.032   5.410   5.430 -1.1729  1.8588 -0.0656
10225TIP3   OH230635   0.609   4.053   4.104  1.4838 -0.3598  0.3585
10225TIP3    H130636   0.637   4.145   4.105  1.5370 -0.3064 -2.1478
10225TIP3    H230637   0.514   4.057   4.116  1.3456  0.1146 -0.8152
10226TIP3   OH230638   4.682   2.764   0.442 -0.3629 -0.3235 -0.2089
10226TIP3    H130639   4.712   2.781   0.353  0.9616  0.0262  0.2922
10226TIP3    H230640   4.729   2.684   0.467 -1.3907 -0.9079 -0.1276
10227TIP3   OH230641   6.162   6.786   5.756  0.0701 -0.3563 -0.0708
10227TIP3    H130642   6.130   6.700   5.783 -0.4069 -0.2563 -0.3235
10227TIP3    H230643   6.255   6.785   5.780 -0.5327  0.0666  2.4672
10228TIP3   OH230644   5.211   4.834   4.644  0.3632  0.5548 -0.2539
10228TIP3    H130645   5.298   4.849   4.607  0.4071  1.6952  0.2912
10228TIP3    H230646   5.227   4.791   4.727  0.5480  2.7863  0.9112
10229TIP3   OH230647   1.072   4.813   4.003 -0.6904 -0.3304 -0.8435
10229TIP3    H130648   1.074   4.810   4.098 -0.0141 -0.7398 -0.8633
10229TIP3    H230649   1.118   4.894   3.980  1.0857 -1.3116 -0.8657
10230TIP3   OH230650   0.969   1.419   2.849  0.4366  0.5019  0.4484
10230TIP3    H130651   1.031   1.471   2.798 -0.3779  0.4885 -0.5899
10230TIP3    H230652   0.959   1.465   2.932  1.7852  0.5316  0.5975
10231TIP3   OH230653   7.043   3.934   4.618  0.5958  0.3911  0.0220
10231TIP3    H130654   6.975   3.937   4.551 -1.0382  2.0280  1.6969
10231TIP3    H230655   7.072   4.025   4.627 -1.1188  0.6791  3.3904
10232TIP3   OH230656   6.757   6.356   3.959 -0.6914 -0.1439 -0.2024
10232TIP3    H130657   6.778   6.444   3.928  2.1781 -0.2675  1.1294
10232TIP3    H230658   6.834   6.304   3.936 -2.7765 -2.5732 -1.8703
10233TIP3   OH230659   6.318   5.494   4.634  0.1993 -0.3375 -0.0740
10233TIP3    H130660   6.271   5.415   4.661  0.0538 -0.1570  0.2071
10233TIP3    H230661   6.380   5.511   4.704  1.0579 -0.8758 -0.7015
10234TIP3   OH230662   6.822   7.041   5.415 -0.1477 -0.5080  0.0365
10234TIP3    H130663   6.865   6.971   5.367 -1.4013 -1.7736  0.7101
10234TIP3    H230664   6.889   7.075   5.474  0.7804 -0.3788 -1.0798
10235TIP3   OH230665   3.748   3.399   1.430 -0.1548  0.1765  0.8768
10235TIP3    H130666   3.762   3.328   1.492 -1.3634  1.6153  2.8802
10235TIP3    H230667   3.831   3.446   1.428  1.0993 -2.0798 -1.5418
10236TIP3   OH230668   6.372   1.109   3.104 -0.0280 -0.4458  0.0428
10236TIP3    H130669   6.302   1.137   3.162 -0.2625 -1.9864  0.5089
10236TIP3    H230670   6.351   1.149   3.020 -0.7543  0.1562  0.5041
10237TIP3   OH230671   7.605   3.555   1.517 -0.2333  0.1837  0.3175
10237TIP3    H130672   7.527   3.500   1.512 -0.3211  0.3983 -0.7102
10237TIP3    H230673   7.624   3.579   1.427  0.3924  1.0261  0.6600
10238TIP3   OH230674   5.140   3.429   1.528 -0.6552 -0.0681 -0.1901
10238TIP3    H130675   5.130   3.522   1.550 -2.0128 -0.3196  0.3493
10238TIP3    H230676   5.220   3.425   1.476  1.0722  0.9650  2.2874
10239TIP3   OH230677   5.357   1.764   0.909  0.1064  0.5386  0.4135
10239TIP3    H130678   5.362   1.826   0.982  1.8658  0.5545  0.3002
10239TIP3    H230679   5.329   1.682   0.949  0.4804  0.7006  1.0129
10240TIP3   OH230680   5.727   2.449   1.747 -0.1189  0.0324 -0.0720
10240TIP3    H130681   5.727   2.524   1.806 -2.0278 -0.5163  0.6729
10240TIP3    H230682   5.726   2.372   1.805 -0.4893 -0.5244 -0.8003
10241TIP3   OH230683   5.224   2.087   0.105  0.4465 -0.0878  0.4214
10241TIP3    H130684   5.274   2.114   0.182  1.2028 -1.5508  0.4688
10241TIP3    H230685   5.249   1.996   0.091  0.1402  0.0901 -1.4241
10242TIP3   OH230686   4.606   0.066   5.692  0.0889 -0.7644  0.3620
10242TIP3    H130687   4.606  -0.005   5.628  2.3351 -3.0444  2.7646
10242TIP3    H230688   4.699   0.089   5.701 -0.2575 -0.0923  2.3730
10243TIP3   OH230689   6.388   3.578   0.686 -0.6068 -0.6376 -0.1708
10243TIP3    H130690   6.306   3.627   0.689 -0.1527  0.1260 -0.2942
10243TIP3    H230691   6.427   3.600   0.602  0.3319  0.0018  0.4156
10244TIP3   OH230692   4.777   0.964   0.629 -0.6171  0.2319  0.1452
10244TIP3    H130693   4.770   0.980   0.723  0.2398  0.4203  0.1763
10244TIP3    H230694   4.818   1.043   0.594 -2.9501  1.1244 -0.7084
10245TIP3   OH230695   2.070   7.353   2.233  0.0904 -0.4687 -0.1935
10245TIP3    H130696   2.005   7.292   2.267 -1.0949  1.8267  1.8073
10245TIP3    H230697   2.123   7.377   2.309  1.7132 -0.4311 -1.3163
10246TIP3   OH230698   2.868   1.331   5.385 -0.2283  0.0414 -0.0118
10246TIP3    H130699   2.935   1.400   5.379 -0.0423 -0.1474 -0.0928
10246TIP3    H230700   2.916   1.250   5.372 -0.6325 -0.0267 -1.2102
10247TIP3   OH230701   5.523   0.085   5.377  0.5202 -0.2870  0.1565
10247TIP3    H130702   5.528   0.062   5.470 -0.5381  0.4655  0.4142
10247TIP3    H230703   5.514   0.001   5.332  1.4050 -0.6809  0.6990
10248TIP3   OH230704   0.337   4.955   5.822  1.0721  0.2410 -0.1337
10248TIP3    H130705   0.372   4.873   5.855 -0.8101 -0.1707  0.9040
10248TIP3    H230706   0.397   5.022   5.854  1.7851 -0.5871  0.2660
10249TIP3   OH230707   2.694   2.358   5.005  0.0451  0.4001 -0.0252
10249TIP3    H130708   2.726   2.432   5.056  0.4823 -0.4379  0.9477
10249TIP3    H230709   2.614   2.390   4.963 -0.6126  0.9531  1.6038
10250TIP3   OH230710   7.277   0.908   0.919  0.1967  0.4996 -0.1526
10250TIP3    H130711   7.321   0.861   0.849 -0.9955  0.1813 -0.7112
10250TIP3    H230712   7.206   0.956   0.875 -1.7538 -1.1972  1.0319
10251TIP3   OH230713   6.904   6.854   5.235  1.1357  0.2461 -0.1501
10251TIP3    H130714   6.955   6.922   5.190  0.4880  0.7594 -0.1156
10251TIP3    H230715   6.878   6.793   5.166 -0.1151  1.1916 -0.5361
10252TIP3   OH230716   4.936   3.083   1.846 -0.1161 -0.8222  0.4695
10252TIP3    H130717   4.997   3.138   1.796  0.6405  0.2345  2.4947
10252TIP3    H230718   4.855   3.134   1.849 -0.5824 -1.4727 -0.7761
10253TIP3   OH230719   1.775   6.649   6.353  0.7165 -0.1907 -0.2640
10253TIP3    H130720   1.826   6.638   6.273  2.6885  2.1246  0.6593
10253TIP3    H230721   1.691   6.685   6.323  0.4361 -1.8174 -1.5254
10254TIP3   OH230722   7.346   5.687   5.418  0.1538 -0.3464 -0.4417
10254TIP3    H130723   7.410   5.682   5.348 -0.3381 -2.6214 -0.7472
10254TIP3    H230724   7.264   5.708   5.375  0.1186 -0.3489 -0.3769
10255TIP3   OH230725   6.328   5.285   6.007  0.4404 -0.6859  0.2359
10255TIP3    H130726   6.272   5.216   5.971  0.7434 -1.5635  1.4035
10255TIP3    H230727   6.362   5.248   6.088 -1.4971  1.8678  2.2847
10256TIP3   OH230728   4.383   0.459   5.848  0.3590  0.2877  0.1262
10256TIP3    H130729   4.408   0.493   5.762  1.6216  0.5512  0.5845
10256TIP3    H230730   4.426   0.374   5.854  0.7701  0.5311  0.7262
10257TIP3   OH230731   6.835   6.135   5.427 -0.6251  0.7130  0.3131
10257TIP3    H130732   6.775   6.077   5.380 -0.9101  0.6389  0.7663
10257TIP3    H230733   6.922   6.110   5.395 -0.8972  1.4884 -1.0816
10258TIP3   OH230734   6.137   0.529   3.632 -0.6428  0.2542 -0.4686
10258TIP3    H130735   6.064   0.512   3.692  0.2284 -1.2513  0.2102
10258TIP3    H230736   6.095   0.552   3.549 -1.8925 -0.7429 -0.1303
10259TIP3   OH230737   4.687   3.130   2.537 -0.2506  0.0916 -0.1279
10259TIP3    H130738   4.708   3.188   2.463 -0.6525 -0.0651 -0.3685
10259TIP3    H230739   4.699   3.042   2.502  1.3295  0.0387  0.5312
10260TIP3   OH230740   5.075   1.730   1.101 -0.4528 -0.5539  0.6260
10260TIP3    H130741   5.115   1.643   1.107 -1.2420 -0.8395  1.9056
10260TIP3    H230742   5.107   1.765   1.018  1.0308 -1.4919  0.7687
10261TIP3   OH230743   4.076   1.929   0.642  0.3997 -0.3731 -0.0130
10261TIP3    H130744   4.116   1.923   0.729  0.2768 -1.9838 -0.0453
10261TIP3    H230745   4.144   1.968   0.587  1.1604 -1.0855  0.4057
10262TIP3   OH230746   5.072   3.611   0.094 -0.5367 -0.1664 -0.0348
10262TIP3    H130747   5.021   3.551   0.040 -2.5692 -1.2423  2.9382
10262TIP3    H230748   5.138   3.555   0.136 -0.1984  0.3108  0.0776
10263TIP3   OH230749   5.186   0.702   0.731 -0.2084  0.7013  0.6006
10263TIP3    H130750   5.123   0.632   0.716  0.1991  0.1465  1.4591
10263TIP3    H230751   5.157   0.745   0.811 -0.4743  1.5371  0.0579
10264TIP3   OH230752   6.669   5.406   5.209  0.1843 -0.5592 -0.4254
10264TIP3    H130753   6.732   5.413   5.137  0.2089 -1.0868 -0.4597
10264TIP3    H230754   6.649   5.313   5.214  0.9240 -0.6590  0.8916
10265TIP3   OH230755   3.379   0.596   6.122 -0.3737 -0.2128  0.0029
10265TIP3    H130756   3.315   0.597   6.193 -1.4098  0.4802 -0.9336
10265TIP3    H230757   3.449   0.654   6.153  0.2555 -1.6771  1.4090
10266TIP3   OH230758   5.209   2.173   0.655 -0.1440 -0.0001 -0.1013
10266TIP3    H130759   5.206   2.091   0.704  1.4718 -0.6197 -1.0114
10266TIP3    H230760   5.118   2.189   0.630 -0.4852 -1.4745  0.1561
10267TIP3   OH230761   6.952   4.108   0.699 -0.2495  0.7074  0.7160
10267TIP3    H130762   6.893   4.108   0.775  1.0703  1.0394  1.7649
10267TIP3    H230763   7.021   4.170   0.722  0.5916  0.2243 -0.4295
10268TIP3   OH230764   7.692   5.053   5.601 -1.0581 -0.6284 -0.6755
10268TIP3    H130765   7.746   4.974   5.605  1.0603  0.7931 -0.7451
10268TIP3    H230766   7.669   5.061   5.508  2.9804  1.5683 -1.6139
10269TIP3   OH230767   0.722   4.996   0.658 -0.1703  0.2094  0.0063
10269TIP3    H130768   0.653   5.010   0.593  0.5308  1.3755 -0.5047
10269TIP3    H230769   0.802   4.984   0.606  0.5574  2.1010  0.6493
10270TIP3   OH230770   0.056   5.279   5.262 -0.0847  0.8471  0.0639
10270TIP3    H130771   0.069   5.348   5.196  1.7253 -0.4099 -0.9156
10270TIP3    H230772   0.142   5.268   5.302  0.0729 -1.9788 -0.9480
10271TIP3   OH230773   5.239   1.453   2.234  0.4009  0.0377  0.0176
10271TIP3    H130774   5.275   1.385   2.291 -0.1304  1.1463  1.7234
10271TIP3    H230775   5.316   1.492   2.191  0.7421 -1.2804 -0.5754
10272TIP3   OH230776   5.643   1.440   0.211  0.4842 -0.1527  0.0185
10272TIP3    H130777   5.562   1.398   0.241  0.6184  0.8297  1.8387
10272TIP3    H230778   5.617   1.488   0.132 -1.2728  1.9884  1.8081
10273TIP3   OH230779   6.146   2.205   0.764 -0.0955 -0.3301 -0.2980
10273TIP3    H130780   6.198   2.260   0.706  1.0440 -0.6127  0.4356
10273TIP3    H230781   6.071   2.178   0.711 -0.1483  1.1094 -0.9666
10274TIP3   OH230782   7.492   5.301   5.656  0.0621 -0.2261 -0.0843
10274TIP3    H130783   7.541   5.219   5.646  0.1333  0.0088 -1.6786
10274TIP3    H230784   7.402   5.279   5.631  0.1149  0.2243 -0.6720
10275TIP3   OH230785   6.086   1.681   0.737  0.4052  0.2637 -0.2743
10275TIP3    H130786   6.024   1.754   0.739 -0.3586 -0.2855 -2.2448
10275TIP3    H230787   6.032   1.603   0.746  1.3344 -0.0799  3.0840
10276TIP3   OH230788   6.505   3.494   1.060  0.2596 -0.4080 -0.2935
10276TIP3    H130789   6.513   3.487   0.965 -0.2986 -0.0825 -0.3680
10276TIP3    H230790   6.425   3.545   1.073  0.0697 -0.8711  0.3542
10277TIP3   OH230791   6.431   2.269   1.087 -0.0605 -0.2377 -0.0594
10277TIP3    H130792   6.376   2.267   1.165 -2.1476  0.9165 -1.4256
10277TIP3    H230793   6.387   2.210   1.026  1.1048 -0.5182 -0.6387
10278TIP3   OH230794   3.194   1.436   0.519 -0.1753  0.4358  0.4317
10278TIP3    H130795   3.140   1.392   0.454  0.4314 -0.0571  0.2585
10278TIP3    H230796   3.272   1.381   0.528  0.3169  1.1503  0.6507
10279TIP3   OH230797   0.645   4.663   6.059 -0.1020 -0.3851  0.4316
10279TIP3    H130798   0.619   4.720   6.132  0.1309  0.5204 -0.1830
10279TIP3    H230799   0.652   4.576   6.098  1.9832  0.4191  1.9592
10280TIP3   OH230800   4.914   2.441   0.776  0.0523  0.7344 -0.4749
10280TIP3    H130801   4.878   2.442   0.864 -1.2660 -1.7514 -0.9383
10280TIP3    H230802   5.008   2.429   0.789  0.3555  3.9339  0.6414
10281TIP3   OH230803   5.009   0.816   0.282  0.0199  0.3885  0.6455
10281TIP3    H130804   5.058   0.787   0.206  1.1757  0.4236  1.3744
10281TIP3    H230805   4.996   0.910   0.268 -0.7371  0.1882 -0.0389
10282TIP3   OH230806   5.795   3.200   0.210 -0.2196 -0.0203 -0.3274
10282TIP3    H130807   5.713   3.247   0.198 -0.6163  0.0415  2.2505
10282TIP3    H230808   5.773   3.109   0.190 -0.7352  0.1012 -0.3175
10283TIP3   OH230809   5.344   4.355   1.158 -0.3427 -0.3782 -0.2241
10283TIP3    H130810   5.255   4.345   1.190 -0.4318 -1.6593 -0.8653
10283TIP3    H230811   5.342   4.324   1.068  0.7094 -0.2192 -0.3150
10284TIP3   OH230812   4.781   0.643   4.978  0.4865 -0.6359 -0.2407
10284TIP3    H130813   4.762   0.721   5.029 -0.5978 -1.7291  1.0721
10284TIP3    H230814   4.761   0.667   4.888 -2.1425 -0.0943  0.4370
10285TIP3   OH230815   5.653   1.576   3.089  0.1284 -0.4945 -0.1903
10285TIP3    H130816   5.623   1.597   3.177 -0.9193  0.0616 -0.6657
10285TIP3    H230817   5.706   1.497   3.099 -0.1808 -0.5631  0.9003
10286TIP3   OH230818   2.201   0.016   3.564  0.1830 -0.2048 -0.0967
10286TIP3    H130819   2.132   0.019   3.630  0.5412  0.8633  0.2428
10286TIP3    H230820   2.253   0.095   3.580  0.4194 -0.0614 -1.4939
10287TIP3   OH230821   7.397   6.528   4.928  0.4789  0.3649 -0.6430
10287TIP3    H130822   7.458   6.496   4.995  1.0948  2.8188  0.0007
10287TIP3    H230823   7.453   6.554   4.855  0.0119  0.3617 -1.0025
10288TIP3   OH230824   7.101   2.162   1.314 -0.7915  0.2381  0.5921
10288TIP3    H130825   7.118   2.233   1.252 -0.2507  0.3173  0.8319
10288TIP3    H230826   7.011   2.135   1.295 -1.2715  1.4964  1.0007
10289TIP3   OH230827   4.823   4.356   0.062  0.4623  0.5998  0.0532
10289TIP3    H130828   4.860   4.406  -0.011  0.6009  1.6775  0.8449
10289TIP3    H230829   4.786   4.422   0.121  0.1170 -0.2659  0.8385
10290TIP3   OH230830   4.530   3.760   1.946  0.2151 -0.2371 -0.0683
10290TIP3    H130831   4.530   3.703   2.023  2.0378  0.5852  0.5687
10290TIP3    H230832   4.533   3.849   1.982  1.2262  0.1519 -1.0833
10291TIP3   OH230833   5.630   0.816   3.753  0.3489 -0.7580  0.3712
10291TIP3    H130834   5.628   0.894   3.698  0.1899 -1.6798 -0.9388
10291TIP3    H230835   5.549   0.769   3.732  1.1994 -2.0691 -0.0197
10292TIP3   OH230836   5.538   4.276   0.388  0.2966  0.0871 -0.0743
10292TIP3    H130837   5.530   4.362   0.430 -1.0692 -0.0897  0.0401
10292TIP3    H230838   5.521   4.293   0.295 -1.3966 -0.2780  0.1572
10293TIP3   OH230839   3.815   0.349   6.316  0.1086 -0.4082 -0.0910
10293TIP3    H130840   3.852   0.287   6.379  1.8541  0.2062 -0.4893
10293TIP3    H230841   3.891   0.389   6.274 -1.0197  0.7801 -1.0397
10294TIP3   OH230842   4.857   2.414   4.154  0.0191 -0.0491  0.4457
10294TIP3    H130843   4.911   2.484   4.115 -0.4370  0.2324  0.3168
10294TIP3    H230844   4.920   2.350   4.186  0.4453  0.4714  0.6511
10295TIP3   OH230845   0.249   6.344   6.095 -0.2163 -0.5004 -0.2399
10295TIP3    H130846   0.314   6.365   6.161 -0.7410  2.4623 -0.6189
10295TIP3    H230847   0.171   6.320   6.144 -0.0805 -0.0365  0.1949
10296TIP3   OH230848   6.701   7.287   5.056 -0.1874  0.6420 -0.2235
10296TIP3    H130849   6.692   7.279   4.961 -0.9123  0.4209 -0.1440
10296TIP3    H230850   6.674   7.201   5.089  3.0766 -0.3473  0.0208
10297TIP3   OH230851   3.731   1.339   0.827 -0.0476 -0.0719 -0.3412
10297TIP3    H130852   3.686   1.255   0.821  0.5580 -0.2816 -2.0552
10297TIP3    H230853   3.680   1.389   0.891 -0.2740 -1.8073  0.8730
10298TIP3   OH230854   0.456   0.671   0.771 -0.4242 -0.5561 -0.6611
10298TIP3    H130855   0.504   0.741   0.726  1.5831 -1.2367  0.3472
10298TIP3    H230856   0.500   0.590   0.743 -1.9150 -1.3235 -0.8386
10299TIP3   OH230857   0.755   5.765   5.670 -0.0766  0.0087 -0.5914
10299TIP3    H130858   0.770   5.695   5.734 -0.4837 -0.3803 -0.9228
10299TIP3    H230859   0.691   5.822   5.711  1.0188  0.7561  0.1175
10300TIP3   OH230860   6.761   2.216   1.068  0.0463 -0.0034 -0.4593
10300TIP3    H130861   6.679   2.218   1.018 -0.4490  1.4158  0.3633
10300TIP3    H230862   6.749   2.145   1.131 -0.3239 -0.1681 -0.7140
10301TIP3   OH230863   4.698   0.043   5.411 -0.2729  1.0064 -0.2133
10301TIP3    H130864   4.748   0.123   5.426 -1.1653  1.2415  1.7258
10301TIP3    H230865   4.608   0.073   5.396 -0.3430  0.4597 -0.8955
10302TIP3   OH230866   1.651   3.623   1.558  0.0608 -0.1412  1.1445
10302TIP3    H130867   1.625   3.712   1.581 -0.0828 -0.3098  1.6358
10302TIP3    H230868   1.745   3.620   1.575  0.0582 -0.0941  1.1673
10303TIP3   OH230869   2.777   5.230   6.253  0.1085  0.1129  0.2440
10303TIP3    H130870   2.762   5.142   6.287 -1.0849  0.5236  0.7828
10303TIP3    H230871   2.837   5.216   6.179  0.2343 -1.1056  0.5575
10304TIP3   OH230872   6.298   1.526   1.720 -1.2488 -0.4427  0.4861
10304TIP3    H130873   6.377   1.494   1.763 -0.9892 -0.8782 -0.3025
10304TIP3    H230874   6.252   1.447   1.691 -1.4315 -0.1599 -0.0098
10305TIP3   OH230875   5.117   0.309   0.045  0.4387 -0.5590  0.3818
10305TIP3    H130876   5.118   0.323  -0.050  0.7415  0.6804  0.5608
10305TIP3    H230877   5.065   0.381   0.079  1.6459 -0.1064  1.2999
10306TIP3   OH230878   0.870   4.569   4.642 -0.3594 -0.5453 -0.2618
10306TIP3    H130879   0.817   4.648   4.630 -0.1877  0.1118  2.7293
10306TIP3    H230880   0.959   4.596   4.620 -0.7801 -0.8490 -2.4475
10307TIP3   OH230881   6.759   3.162   0.934 -0.1280  0.1171  0.1582
10307TIP3    H130882   6.726   3.219   0.866 -0.8263 -0.0051  0.3916
10307TIP3    H230883   6.696   3.090   0.938 -1.2248  1.1316  2.3146
10308TIP3   OH230884   5.213   0.764   0.465 -0.1931 -0.0724 -0.3908
10308TIP3    H130885   5.132   0.742   0.421 -0.6667  1.6108 -0.4041
10308TIP3    H230886   5.200   0.738   0.556 -0.4874 -0.4345 -0.5397
10309TIP3   OH230887   6.325   2.929   2.104  0.4643 -0.2420 -0.2068
10309TIP3    H130888   6.354   2.839   2.114 -0.7105 -0.5551  0.5028
10309TIP3    H230889   6.321   2.943   2.009 -0.0027 -1.1546 -0.3212
10310TIP3   OH230890   5.981   1.610   1.068  0.4631 -0.1714 -0.0660
10310TIP3    H130891   5.908   1.600   1.007  0.1289 -1.2918  0.4973
10310TIP3    H230892   6.029   1.527   1.060  1.0192  0.1035  0.4194
10311TIP3   OH230893   5.217   2.743   1.981  0.1666 -0.1987  0.2934
10311TIP3    H130894   5.194   2.671   2.040  0.9150  0.1782  1.0514
10311TIP3    H230895   5.134   2.770   1.943  0.1061 -2.8307 -1.5849
10312TIP3   OH230896   1.003   4.890   6.262 -0.1895  0.6141 -0.0568
10312TIP3    H130897   0.920   4.936   6.273 -0.1929  1.0021 -1.5868
10312TIP3    H230898   0.995   4.845   6.177  1.6192  1.6692 -0.8293
10313TIP3   OH230899   0.653   4.498   6.330 -0.3374 -0.1983 -0.1262
10313TIP3    H130900   0.685   4.551   6.402 -0.6421 -0.5862  0.2945
10313TIP3    H230901   0.715   4.425   6.324 -1.5274 -1.3510  1.1645
10314TIP3   OH230902   6.849   4.928   0.233 -0.6135 -0.2790 -0.5629
10314TIP3    H130903   6.892   4.851   0.270  0.5627  0.2911 -0.7121
10314TIP3    H230904   6.797   4.894   0.160 -0.8777 -1.0519 -0.0165
10315TIP3   OH230905   5.785   2.934   0.109  0.0485  0.2531 -0.5051
10315TIP3    H130906   5.859   2.898   0.061 -0.2984 -1.9717  0.5646
10315TIP3    H230907   5.795   2.900   0.198 -2.2558 -0.1473 -0.3494
10316TIP3   OH230908   0.327   6.170   0.278 -0.6676 -0.4288  0.2150
10316TIP3    H130909   0.258   6.126   0.327 -1.0925 -0.0945 -0.0758
10316TIP3    H230910   0.288   6.253   0.250  0.2289  0.3024  1.0608
10317TIP3   OH230911   1.713   6.880   1.153 -0.4635 -0.1129 -0.0004
10317TIP3    H130912   1.642   6.883   1.089  0.7109 -1.5389 -1.4071
10317TIP3    H230913   1.670   6.865   1.237 -1.8665 -0.2966 -0.7424
10318TIP3   OH230914   3.776   5.505   5.069 -1.0751 -0.0442 -0.5733
10318TIP3    H130915   3.701   5.450   5.090  0.8427 -3.1605 -1.5802
10318TIP3    H230916   3.826   5.509   5.151  0.5700 -2.7715 -1.3922
10319TIP3   OH230917   5.098   2.852   2.313  0.6173  0.0308  0.5249
10319TIP3    H130918   5.035   2.832   2.243  0.1435 -2.2024  1.5266
10319TIP3    H230919   5.140   2.933   2.286 -1.9547  0.9948 -0.7014
10320TIP3   OH230920   1.957   5.989   4.516 -0.7063 -0.3327  0.0564
10320TIP3    H130921   1.917   5.931   4.451 -0.2212  1.3202 -1.7535
10320TIP3    H230922   1.883   6.031   4.560 -1.0181 -0.3134 -0.4810
10321TIP3   OH230923   3.309   7.197   5.544  0.1575 -0.5375  0.4998
10321TIP3    H130924   3.257   7.182   5.464  1.3219  0.0342 -0.3758
10321TIP3    H230925   3.400   7.191   5.515  0.6421  2.4406  1.1870
10322TIP3   OH230926   0.654   4.097   0.489 -0.0356 -0.3520 -0.4372
10322TIP3    H130927   0.596   4.064   0.420 -2.2870  1.1127  0.6837
10322TIP3    H230928   0.650   4.192   0.480  2.2651 -0.2125 -0.3487
10323TIP3   OH230929   6.268   6.105   5.731 -0.0886 -0.0859 -0.5193
10323TIP3    H130930   6.195   6.065   5.778 -0.5448 -1.5392 -2.4179
10323TIP3    H230931   6.292   6.040   5.665  1.1070  1.5492 -1.7079
10324TIP3   OH230932   4.175   1.066   5.758  0.3003 -0.2477  0.1139
10324TIP3    H130933   4.114   1.028   5.695 -0.4572  2.1377 -0.6536
10324TIP3    H230934   4.135   1.049   5.843 -0.5232 -0.2803 -0.2730
10325TIP3   OH230935   6.745   3.212   0.659 -0.3193  0.4612 -0.0555
10325TIP3    H130936   6.740   3.304   0.632 -0.4685  0.9868  1.6519
10325TIP3    H230937   6.786   3.167   0.585 -0.2941  1.8927 -0.9364
10326TIP3   OH230938   7.024   4.133   0.428  0.1806  0.0179  0.6908
10326TIP3    H130939   7.048   4.041   0.420  3.0249  0.8527 -1.0451
10326TIP3    H230940   7.004   4.144   0.521 -3.1369 -2.9555  0.4372
10327TIP3   OH230941   6.222   4.348   1.861  0.1269  0.2513  0.0601
10327TIP3    H130942   6.131   4.323   1.874  0.0479 -0.0919 -1.0340
10327TIP3    H230943   6.217   4.427   1.806  0.5212 -1.1255 -2.0200
10328TIP3   OH230944   2.029   5.336   4.941  0.0864  0.0206 -0.0637
10328TIP3    H130945   2.061   5.372   5.024 -1.7278  0.8025  0.3227
10328TIP3    H230946   2.080   5.382   4.874  1.2764 -0.3270  0.5893
10329TIP3   OH230947   6.876   3.898   0.280 -0.2814  0.6671  0.1914
10329TIP3    H130948   6.839   3.902   0.192  0.8948 -0.0816 -0.3373
10329TIP3    H230949   6.812   3.946   0.334 -0.5359  1.9760 -1.2129
10330TIP3   OH230950   6.549   3.029   0.629  0.1736 -0.4826  0.8831
10330TIP3    H130951   6.484   3.069   0.688  0.7426 -1.4876  2.2113
10330TIP3    H230952   6.627   3.084   0.639 -0.1238  0.1114  0.0637
10331TIP3   OH230953   4.819   3.555   1.266 -0.0880 -0.0581 -0.5154
10331TIP3    H130954   4.897   3.607   1.249 -0.2515 -0.0233 -1.1795
10331TIP3    H230955   4.834   3.473   1.218  0.6266 -1.0451  1.3654
10332TIP3   OH230956   5.465   0.117   4.338 -0.3625 -0.1560 -0.3006
10332TIP3    H130957   5.385   0.075   4.369 -0.2196  0.1835  0.5574
10332TIP3    H230958   5.436   0.194   4.291 -0.5394  0.0327  0.1169
10333TIP3   OH230959   1.113   0.926   0.957 -0.3084  0.1481 -0.2521
10333TIP3    H130960   1.154   0.856   0.906  0.1093  0.4735 -0.3589
10333TIP3    H230961   1.163   1.004   0.936  0.4925  0.1017  1.4022
10334TIP3   OH230962   7.786   2.734   0.936 -0.8212  0.3488  0.2909
10334TIP3    H130963   7.809   2.671   0.867  3.5032  3.7977 -1.7085
10334TIP3    H230964   7.720   2.790   0.896  0.7712  1.5661 -0.7336
10335TIP3   OH230965   2.315   6.893   5.831 -0.1722  0.3960  0.4185
10335TIP3    H130966   2.337   6.893   5.738 -0.7922 -1.7596  0.2536
10335TIP3    H230967   2.313   6.801   5.856 -2.7149  0.8023  1.9051
10336TIP3   OH230968   6.983   2.666   0.488  0.1580  0.0158  0.1486
10336TIP3    H130969   6.928   2.740   0.512 -0.5037 -0.2195 -0.6283
10336TIP3    H230970   7.043   2.655   0.562 -0.2170  0.8669  0.5780
10337TIP3   OH230971   4.840   3.326   1.435  0.0592 -0.4470  0.0801
10337TIP3    H130972   4.801   3.404   1.396 -0.5372 -1.5722 -1.6034
10337TIP3    H230973   4.896   3.360   1.505  2.1433  1.7048 -2.5310
10338TIP3   OH230974   6.857   2.425   1.223  0.5605  0.0011  0.2330
10338TIP3    H130975   6.817   2.355   1.172  3.9000 -0.3587 -2.0744
10338TIP3    H230976   6.863   2.499   1.162 -0.3200  1.3804  1.7685
10339TIP3   OH230977   0.527   2.426   2.162 -0.7315 -0.4513 -0.2842
10339TIP3    H130978   0.536   2.506   2.111 -0.9727 -1.5587 -2.0805
10339TIP3    H230979   0.578   2.443   2.242 -1.8932  1.9814 -0.0290
10340TIP3   OH230980   2.757   6.998   5.804 -0.3616  0.5025  0.3036
10340TIP3    H130981   2.676   7.033   5.768 -1.5901 -0.7850  1.7352
10340TIP3    H230982   2.736   6.975   5.894  1.9238  1.2015  1.0584
10341TIP3   OH230983   5.404   0.958   5.413 -0.2730  0.1913  0.4693
10341TIP3    H130984   5.458   0.886   5.446 -1.2029 -1.0916 -0.7642
10341TIP3    H230985   5.437   1.035   5.459  2.1087 -0.6896  0.3311
10342TIP3   OH230986   7.616   1.206   0.508  0.0185 -0.5213 -0.3058
10342TIP3    H130987   7.549   1.247   0.453 -0.3684 -1.3434 -0.4567
10342TIP3    H230988   7.567   1.170   0.582  0.6122  1.0959  0.8987
10343TIP3   OH230989   6.344   1.003   0.904 -0.2382 -0.7627 -0.3896
10343TIP3    H130990   6.396   0.925   0.923  0.9701 -0.0049 -0.5311
10343TIP3    H230991   6.318   0.993   0.813  0.4496 -0.7141 -0.5978
10344TIP3   OH230992   3.700   6.306   5.580  0.4222 -0.0770 -0.2078
10344TIP3    H130993   3.686   6.366   5.506 -2.5752  0.8093  0.9900
10344TIP3    H230994   3.632   6.239   5.569  1.1506 -0.9919  0.7276
10345TIP3   OH230995   7.186   2.297   0.412  1.1318 -0.1096 -0.2866
10345TIP3    H130996   7.133   2.257   0.481 -0.4294  2.1420 -0.1623
10345TIP3    H230997   7.272   2.309   0.452  1.8493 -3.8034 -0.5070
10346TIP3   OH230998   2.648   5.895   5.667  0.0870  0.5812 -0.4080
10346TIP3    H130999   2.622   5.965   5.727 -0.5579 -1.3466  1.6095
10346TIP3    H231000   2.740   5.879   5.687  0.0449  0.3633 -0.3870
10347TIP3   OH231001   7.320   4.017   0.411 -0.4431 -0.0374  0.0347
10347TIP3    H131002   7.394   4.029   0.350  1.1290 -0.6906  1.7573
10347TIP3    H231003   7.302   3.923   0.409  0.1631 -0.1922  1.1562
10348TIP3   OH231004   7.686   1.645   0.411 -0.0049 -0.3870 -0.4848
10348TIP3    H131005   7.752   1.713   0.426 -1.3142  0.8150 -0.0999
10348TIP3    H231006   7.644   1.634   0.496 -0.3790 -1.0612 -0.7591
10349TIP3   OH231007   1.057   3.466   1.302 -0.7510  0.2206  0.3829
10349TIP3    H131008   1.013   3.475   1.217  1.2472 -0.5694 -0.7943
10349TIP3    H231009   1.129   3.529   1.298  0.3965 -1.0284  0.7716
10350TIP3   OH231010   2.777   6.540   5.331  0.2257 -0.3732  0.4039
10350TIP3    H131011   2.685   6.564   5.337  0.5116  0.9723 -0.3215
10350TIP3    H231012   2.790   6.475   5.400 -1.3203 -0.7784  0.3242
10351TIP3   OH231013   1.094   1.315   0.765  0.1074  0.1667  0.1269
10351TIP3    H131014   1.079   1.408   0.748  0.8385  0.4386  0.9695
10351TIP3    H231015   1.185   1.301   0.742 -0.7004 -0.9655 -2.6334
10352TIP3   OH231016   5.697   2.544   2.274  0.0396  0.4541  0.2518
10352TIP3    H131017   5.611   2.570   2.240 -0.5097  0.3779  1.5299
10352TIP3    H231018   5.717   2.610   2.341 -0.0211 -0.7189  1.4576
10353TIP3   OH231019   2.486   3.674   0.657 -0.3150  0.1702 -0.1142
10353TIP3    H131020   2.423   3.646   0.591 -0.9951 -1.3017  1.1521
10353TIP3    H231021   2.468   3.768   0.669 -0.7545  0.2535 -1.3746
10354TIP3   OH231022   7.277   1.535   2.502  0.4237 -0.4796 -0.3477
10354TIP3    H131023   7.306   1.562   2.415 -3.1875  1.0065 -1.1999
10354TIP3    H231024   7.324   1.592   2.562 -1.3248  2.5247 -1.7245
10355TIP3   OH231025   5.157   1.987   6.066  0.0117  0.1420 -0.4506
10355TIP3    H131026   5.225   1.925   6.091  0.3352  0.5530 -0.3173
10355TIP3    H231027   5.085   1.970   6.127  0.5254  0.6572  0.2967
10356TIP3   OH231028   0.331   2.365   0.350  1.0432 -0.4717 -0.6219
10356TIP3    H131029   0.365   2.345   0.263  1.2331  0.1427 -0.6897
10356TIP3    H231030   0.391   2.431   0.385 -0.3110  0.9467 -0.9110
10357TIP3   OH231031   1.111   5.797   5.872 -0.2228  0.1536 -0.8992
10357TIP3    H131032   1.063   5.831   5.797  0.1258 -0.5004 -1.4259
10357TIP3    H231033   1.190   5.757   5.835  0.5635  0.9109 -0.0758
10358TIP3   OH231034   0.074   0.532   2.112  0.1917  0.2505 -0.0883
10358TIP3    H131035   0.047   0.499   2.198 -0.5666 -0.9631 -0.7820
10358TIP3    H231036   0.075   0.627   2.122  1.7934  0.0782  1.7687
10359TIP3   OH231037   0.604   7.330   5.909 -0.3773  0.7118  0.1831
10359TIP3    H131038   0.562   7.248   5.932  0.2006  0.1788 -0.6519
10359TIP3    H231039   0.595   7.336   5.814  1.4490  0.5726 -0.0108
10360TIP3   OH231040   2.683   5.076   4.734  0.0780 -0.2376  0.4180
10360TIP3    H131041   2.710   5.160   4.698 -0.6346 -0.5547 -0.8721
10360TIP3    H231042   2.595   5.062   4.699 -0.5088 -0.6965  2.0324
10361TIP3   OH231043   7.810   2.048   1.291 -0.0303 -0.7752 -0.8706
10361TIP3    H131044   7.731   2.054   1.237  0.0506  2.5472 -0.7276
10361TIP3    H231045   7.778   2.021   1.377 -0.7064 -1.7812 -1.4284
10362TIP3   OH231046   5.878   0.262   4.717 -0.1314  0.1471  0.1576
10362TIP3    H131047   5.932   0.289   4.792 -1.4367  1.6133  0.5998
10362TIP3    H231048   5.788   0.283   4.744 -0.6612  0.2789 -1.6418
10363TIP3   OH231049   6.010   1.871   0.178  0.6971 -0.1951  0.1301
10363TIP3    H131050   6.062   1.882   0.257  1.9102 -0.6092 -0.5996
10363TIP3    H231051   6.015   1.956   0.134 -1.2710  0.5289  1.2502
10364TIP3   OH231052   1.028   2.139   0.951  0.6054  0.1433  0.6598
10364TIP3    H131053   0.986   2.053   0.947  2.6462 -0.8678  0.1100
10364TIP3    H231054   1.050   2.151   1.043 -0.5815  0.5342  0.8969
10365TIP3   OH231055   1.277   4.022   1.936  0.8143 -0.0344 -0.0607
10365TIP3    H131056   1.261   4.013   2.030 -1.0672  1.1360 -0.2492
10365TIP3    H231057   1.230   3.949   1.896  1.2094 -0.2463 -0.1477
10366TIP3   OH231058   7.688   2.876   0.356 -0.6306 -0.4987  0.0488
10366TIP3    H131059   7.664   2.965   0.331 -1.9503 -0.3307  1.8172
10366TIP3    H231060   7.635   2.858   0.433  2.9748 -1.1185  2.5156
10367TIP3   OH231061   5.700   1.161   5.232  0.0734 -0.1420 -0.2489
10367TIP3    H131062   5.714   1.246   5.190  0.5973 -0.5617 -0.9501
10367TIP3    H231063   5.747   1.099   5.176  0.3632 -0.7862  0.6930
10368TIP3   OH231064   2.485   6.337   4.791 -0.4587  0.2191 -0.2787
10368TIP3    H131065   2.438   6.401   4.845  1.2232  0.2126  1.2248
10368TIP3    H231066   2.460   6.360   4.701 -2.7571  0.6567  0.4272
10369TIP3   OH231067   3.067   0.575   4.709  0.2300  0.0315 -0.0521
10369TIP3    H131068   3.092   0.527   4.788 -2.1655 -0.1512  0.6253
10369TIP3    H231069   3.032   0.658   4.741  1.0276  0.7480 -1.0255
10370TIP3   OH231070   1.320   3.566   1.293  0.0159 -0.3711  0.0285
10370TIP3    H131071   1.409   3.595   1.277 -0.2050  0.9838  1.0688
10370TIP3    H231072   1.269   3.647   1.299 -1.2317 -1.1103 -0.3105
10371TIP3   OH231073   4.965  -0.022   5.876 -0.3337 -0.2355 -0.0487
10371TIP3    H131074   4.987  -0.000   5.967 -0.2961 -0.5779  0.0266
10371TIP3    H231075   4.966   0.062   5.830 -2.8320  0.2900  0.7759
10372TIP3   OH231076   0.035   3.321   0.317  0.2002 -0.1655 -0.6445
10372TIP3    H131077   0.046   3.414   0.299 -1.0990  0.4735  1.6219
10372TIP3    H231078   0.109   3.299   0.375  0.5231 -0.5489 -1.2005
10373TIP3   OH231079   5.337   3.159   1.328 -0.0945 -0.0405  0.3091
10373TIP3    H131080   5.314   3.073   1.292  3.3624 -0.5165 -0.9714
10373TIP3    H231081   5.283   3.221   1.280 -0.4198 -1.2544 -0.9282
10374TIP3   OH231082   3.258   2.576   1.074  0.3224  0.6561  0.0282
10374TIP3    H131083   3.220   2.553   1.159  2.4212  1.5503  1.2465
10374TIP3    H231084   3.233   2.668   1.060 -0.0050  0.5167 -0.3203
10375TIP3   OH231085   1.538   7.050   5.999 -0.0575  0.4062  0.1965
10375TIP3    H131086   1.552   7.141   6.025 -1.1317  0.9374 -1.0364
10375TIP3    H231087   1.477   7.055   5.926  0.5045 -1.2585 -0.4147
10376TIP3   OH231088   0.344   6.967   5.634 -0.4178 -0.2856  0.5230
10376TIP3    H131089   0.342   7.056   5.597 -1.4375  0.1045  1.4746
10376TIP3    H231090   0.434   6.938   5.623  0.2408  1.3826  1.4157
10377TIP3   OH231091   2.892   7.015   4.367  0.3825  0.2184 -0.0862
10377TIP3    H131092   2.952   6.947   4.398 -0.6908 -1.9652 -2.5608
10377TIP3    H231093   2.939   7.057   4.295 -0.0924  0.1212 -0.4576
10378TIP3   OH231094   6.023   3.414   1.413 -0.1637 -0.1516 -0.5812
10378TIP3    H131095   6.045   3.326   1.384  1.1842  0.1407 -0.4644
10378TIP3    H231096   6.087   3.471   1.371 -0.6985  0.7190 -0.2395
10379TIP3   OH231097   7.348   2.918   0.396  0.3510  0.9233  0.1385
10379TIP3    H131098   7.336   2.829   0.365  0.2033  0.9335  0.1647
10379TIP3    H231099   7.363   2.970   0.317 -0.4535  1.0189  0.0484
10380TIP3   OH231100   3.978   7.128   3.759 -0.0335 -0.2233  0.1373
10380TIP3    H131101   4.028   7.202   3.793 -3.4451  0.9486  2.9678
10380TIP3    H231102   3.904   7.170   3.714 -1.4586 -1.8933  0.8973
10381TIP3   OH231103   7.351   1.823   0.558  0.1668  0.0446  0.0524
10381TIP3    H131104   7.296   1.836   0.635  2.6767  0.2707  1.8395
10381TIP3    H231105   7.404   1.746   0.579  1.7332  0.8318 -0.9519
10382TIP3   OH231106   0.781   5.678   5.374 -0.1274 -0.6056  0.2375
10382TIP3    H131107   0.764   5.660   5.467 -0.8670 -0.1925  0.1888
10382TIP3    H231108   0.857   5.736   5.374 -0.1734 -0.5443  0.5931
10383TIP3   OH231109   7.724   2.385   1.059 -0.2653 -0.0789  0.0100
10383TIP3    H131110   7.649   2.341   1.098 -0.3066  0.3417  0.4058
10383TIP3    H231111   7.748   2.453   1.122  0.0935  0.1573 -0.3753
10384TIP3   OH231112   0.660   5.365   5.051 -0.1830  0.3828 -0.0093
10384TIP3    H131113   0.719   5.385   5.124  0.0545  1.2253 -0.4299
10384TIP3    H231114   0.711   5.309   4.993 -0.1838  0.1733  0.1915
10385TIP3   OH231115   7.383   2.459   0.129  0.2773  0.2466 -0.7841
10385TIP3    H131116   7.440   2.480   0.202 -0.0291 -0.6599 -0.2695
10385TIP3    H231117   7.440   2.459   0.052  1.4056 -2.6574 -0.0081
10386TIP3   OH231118   7.547   1.856   1.821  0.1505 -0.2111 -0.1545
10386TIP3    H131119   7.472   1.797   1.814 -0.0264 -0.2024  1.6153
10386TIP3    H231120   7.548   1.884   1.912  2.1423  0.0097 -0.2210
10387TIP3   OH231121   1.669   3.843   1.140  0.8424 -0.0048 -0.0187
10387TIP3    H131122   1.637   3.790   1.068  1.2258 -1.4032  0.8103
10387TIP3    H231123   1.591   3.861   1.193  0.9155 -0.8224  0.3729
10388TIP3   OH231124   7.207   4.727   1.138 -0.4459 -0.3697  0.5695
10388TIP3    H131125   7.201   4.657   1.073 -2.1710 -1.1272  1.5282
10388TIP3    H231126   7.119   4.765   1.141  0.3831  1.6282  0.3132
10389TIP3   OH231127   0.841   0.843   1.795  0.1463  0.3938  0.4774
10389TIP3    H131128   0.897   0.818   1.868 -0.9502 -1.0703  0.8344
10389TIP3    H231129   0.895   0.828   1.717  0.7573  0.4254  0.8908
10390TIP3   OH231130   1.060   4.271   3.624 -0.4821  0.0476 -0.3489
10390TIP3    H131131   1.122   4.332   3.664 -1.0539 -0.3390  1.1640
10390TIP3    H231132   1.023   4.223   3.698 -1.2251 -1.0086 -1.3956
10391TIP3   OH231133   6.955   3.052   1.173 -0.3236 -0.0789 -0.1431
10391TIP3    H131134   6.896   2.984   1.206  0.0657 -0.7814 -0.8905
10391TIP3    H231135   6.932   3.061   1.081 -1.6145  2.0933  0.3602
10392TIP3   OH231136   7.395   1.299   0.368  0.1253 -0.4855  0.0125
10392TIP3    H131137   7.363   1.210   0.354 -1.6983  0.1628 -0.0308
10392TIP3    H231138   7.387   1.342   0.282 -1.2907  0.4282  0.5910
10393TIP3   OH231139   7.372   4.393   0.395 -0.1944 -0.0563 -0.1523
10393TIP3    H131140   7.365   4.475   0.346  0.1118 -0.8558 -1.5756
10393TIP3    H231141   7.326   4.329   0.340  0.9253 -1.1635  0.1718
10394TIP3   OH231142   6.044   2.754   2.490  0.3234  0.3490 -0.3868
10394TIP3    H131143   6.017   2.791   2.406 -0.1122  1.1601  0.1032
10394TIP3    H231144   6.027   2.660   2.481 -0.7329  0.5690 -0.8219
10395TIP3   OH231145   6.202   3.431   0.076  0.0818  0.7624 -0.1248
10395TIP3    H131146   6.152   3.512   0.075  0.0688  0.7741  0.9967
10395TIP3    H231147   6.140   3.363   0.049 -0.0426  1.0476 -0.5546
10396TIP3   OH231148   7.181   2.307   0.036 -0.0291 -0.2941  0.1940
10396TIP3    H131149   7.214   2.320  -0.053  1.5220  0.8985  0.9219
10396TIP3    H231150   7.223   2.375   0.087 -3.3166  0.9935  1.2757
10397TIP3   OH231151   6.785   4.078   0.905 -0.3706 -0.3991  0.0382
10397TIP3    H131152   6.692   4.098   0.906 -0.4110 -0.4647 -1.3674
10397TIP3    H231153   6.812   4.082   0.997 -1.2929  1.7915  0.2404
10398TIP3   OH231154   6.222   1.161   6.257 -0.0112  0.0636 -0.6311
10398TIP3    H131155   6.172   1.210   6.323 -0.4783 -0.0037 -0.9324
10398TIP3    H231156   6.192   1.196   6.173  0.1057 -0.3095 -0.8285
10399TIP3   OH231157   4.751   0.924   5.789 -0.2360 -0.2014 -0.0306
10399TIP3    H131158   4.668   0.960   5.822 -0.5487  1.2688 -2.2724
10399TIP3    H231159   4.761   0.963   5.702  3.0599  0.0203  0.3713
10400TIP3   OH231160   0.156   1.209   0.204  0.2197 -0.1531 -0.3777
10400TIP3    H131161   0.237   1.165   0.230  0.8403  0.8882 -0.5049
10400TIP3    H231162   0.125   1.251   0.285  0.0605 -0.1567 -0.4367
10401TIP3   OH231163   2.137   4.205   1.476 -0.3002 -0.0908 -0.1856
10401TIP3    H131164   2.181   4.198   1.561  0.1970 -0.8467 -0.4987
10401TIP3    H231165   2.129   4.299   1.461  1.1067  0.0570 -0.0626
10402TIP3   OH231166   5.532   4.083   0.606  0.0305  0.1708 -0.1857
10402TIP3    H131167   5.444   4.115   0.628 -0.4310 -0.6182 -0.8811
10402TIP3    H231168   5.546   4.110   0.516  1.2310  1.8585  0.4680
10403TIP3   OH231169   5.916   0.905   4.148  0.0030  0.1820  0.7102
10403TIP3    H131170   5.863   0.873   4.221 -1.5616  1.5286  0.1852
10403TIP3    H231171   5.897   0.846   4.076  0.4299 -0.2727  0.9667
10404TIP3   OH231172   2.123   4.481   6.036 -0.1913  0.1844  0.4446
10404TIP3    H131173   2.158   4.480   6.126 -1.0717  0.4827  0.8003
10404TIP3    H231174   2.061   4.554   6.036 -0.9574 -0.4626 -0.1213
10405TIP3   OH231175   0.297   5.173   3.042 -0.1517 -0.4136 -0.0629
10405TIP3    H131176   0.294   5.209   2.953 -2.2100  1.1415  0.5776
10405TIP3    H231177   0.324   5.083   3.030 -0.4568 -0.2557 -2.3022
10406TIP3   OH231178   7.075   3.213   2.031  0.1509 -0.3373 -0.3982
10406TIP3    H131179   7.162   3.197   1.994 -0.3822 -1.4178 -1.2162
10406TIP3    H231180   7.032   3.127   2.028 -1.2407  0.3652 -0.7679
10407TIP3   OH231181   4.948   1.282   5.434  0.3082 -0.4792 -0.4565
10407TIP3    H131182   5.036   1.304   5.404 -0.4351  0.4836 -2.0205
10407TIP3    H231183   4.945   1.186   5.432  1.4806 -0.5256  0.1113
10408TIP3   OH231184   5.777   7.203   5.010  0.2820  0.0441  0.0079
10408TIP3    H131185   5.730   7.270   4.961  0.3359  0.7197  0.8673
10408TIP3    H231186   5.834   7.161   4.945 -0.0753  0.5312 -0.6213
10409TIP3   OH231187   0.999   3.362   2.298  0.4716 -0.7137  0.4427
10409TIP3    H131188   0.999   3.307   2.377 -1.0420 -1.4977 -0.0790
10409TIP3    H231189   0.921   3.335   2.250 -0.2150  1.7886  0.0747
10410TIP3   OH231190   3.972   4.709   0.640  0.4373 -0.2941  0.1947
10410TIP3    H131191   4.025   4.688   0.717 -1.1188  1.0540  1.6849
10410TIP3    H231192   3.919   4.630   0.625  2.0778 -1.2555 -0.6676
10411TIP3   OH231193   0.572   2.063   0.197  0.1382 -0.0727  0.3021
10411TIP3    H131194   0.564   2.015   0.279 -0.9177 -0.5147 -0.0433
10411TIP3    H231195   0.658   2.039   0.163  0.4348 -0.1548  1.1142
10412TIP3   OH231196   0.016   1.928   0.869 -0.1538  0.1705 -0.6073
10412TIP3    H131197   0.085   1.943   0.805  0.3814  0.6424  0.0672
10412TIP3    H231198   0.062   1.899   0.948 -0.7832 -0.1816 -0.3630
10413TIP3   OH231199   4.561   0.565   6.067  0.8777 -0.1918  0.0981
10413TIP3    H131200   4.499   0.550   5.996  1.7466  0.4312 -0.8014
10413TIP3    H231201   4.646   0.573   6.024  1.5101 -0.5038  1.2708
10414TIP3   OH231202   6.979   1.441   2.267  0.4933  0.4946  0.4507
10414TIP3    H131203   6.961   1.360   2.315  0.5825  0.1003 -0.1790
10414TIP3    H231204   6.894   1.484   2.258  0.6528  1.1975  2.0764
10415TIP3   OH231205   2.933   6.938   5.392 -0.0366  0.0987  0.0342
10415TIP3    H131206   3.014   6.892   5.413  0.2947  0.0963 -1.1719
10415TIP3    H231207   2.908   6.905   5.305 -1.0487  0.4782  0.1632
10416TIP3   OH231208   6.025   1.604   0.127 -0.0512 -0.4675  0.6987
10416TIP3    H131209   6.025   1.697   0.151  2.6791 -0.2542  0.0272
10416TIP3    H231210   5.958   1.597   0.059  1.4317  1.5425 -1.0453
10417TIP3   OH231211   0.098   3.337   0.775  0.0050  0.3196 -0.4241
10417TIP3    H131212   0.021   3.282   0.790  0.6665 -1.0889 -2.0220
10417TIP3    H231213   0.065   3.411   0.723 -0.7715  1.1670  1.2240
10418TIP3   OH231214   6.071   0.821   5.579 -0.1578 -0.2851  0.5866
10418TIP3    H131215   6.108   0.735   5.560 -0.9713 -0.5798  0.2993
10418TIP3    H231216   5.977   0.809   5.569 -0.3814  0.3028  1.9240
10419TIP3   OH231217   6.443   1.586   1.479  0.1827  0.0250  0.0711
10419TIP3    H131218   6.409   1.561   1.393  0.9141  0.0157 -0.2192
10419TIP3    H231219   6.388   1.538   1.541  0.4206 -0.9039 -0.4261
10420TIP3   OH231220   3.045   5.139   0.733  0.3279 -0.1231  0.5311
10420TIP3    H131221   2.964   5.176   0.770  0.8854  1.9321 -0.2332
10420TIP3    H231222   3.110   5.208   0.744  1.1270 -0.4221 -2.0267
10421TIP3   OH231223   7.096   3.006   0.594  0.6125 -0.1689 -0.5628
10421TIP3    H131224   7.186   2.997   0.564 -0.1826 -1.0324 -2.8252
10421TIP3    H231225   7.071   2.918   0.623 -0.0731 -0.3601 -1.6981
10422TIP3   OH231226   7.605   2.620   0.181 -0.4875  0.7041 -0.6853
10422TIP3    H131227   7.616   2.576   0.096  0.3150  2.1372 -1.3444
10422TIP3    H231228   7.652   2.702   0.171 -2.7323  2.1443  0.2097
10423TIP3   OH231229   0.883   2.295   0.802 -0.0603  0.5561  0.4222
10423TIP3    H131230   0.870   2.384   0.834  1.0543  0.4907  1.0747
10423TIP3    H231231   0.931   2.251   0.872  1.5159  0.1274 -0.9046
10424TIP3   OH231232   5.753   0.154   4.285 -0.3363  0.1510 -0.7161
10424TIP3    H131233   5.767   0.105   4.365  1.1710  1.8721  0.1291
10424TIP3    H231234   5.666   0.192   4.294 -0.6707 -0.6785 -0.4557
10425TIP3   OH231235   2.244   5.761   5.639 -0.5574 -0.6992 -0.0572
10425TIP3    H131236   2.306   5.792   5.572  1.4283  1.9888  2.8379
10425TIP3    H231237   2.290   5.688   5.682 -0.8549 -0.9384 -0.1477
10426TIP3   OH231238   0.726   7.000   5.522 -0.4614  0.2834 -0.5492
10426TIP3    H131239   0.711   7.004   5.427 -0.4758 -0.2419 -0.5664
10426TIP3    H231240   0.797   6.937   5.533 -0.9182 -0.1628 -0.1584
10427TIP3   OH231241   5.418   2.182   2.626 -0.1646 -0.0277 -0.4285
10427TIP3    H131242   5.490   2.119   2.619  0.1581  0.2967 -0.0248
10427TIP3    H231243   5.451   2.261   2.585 -0.5808 -0.1226 -0.9547
10428TIP3   OH231244   5.241   0.774   4.839 -0.7582 -0.1293 -0.4890
10428TIP3    H131245   5.261   0.705   4.902  0.4101 -0.8336 -1.5918
10428TIP3    H231246   5.229   0.853   4.891  0.7709 -0.5837  0.5614
10429TIP3   OH231247   2.842   0.223   4.755  0.0089 -0.3964 -0.9015
10429TIP3    H131248   2.774   0.180   4.807  0.3436  0.0165 -0.1129
10429TIP3    H231249   2.918   0.228   4.814  0.4782 -0.1769 -1.5235
10430TIP3   OH231250   0.473   5.675   6.262 -0.6540 -0.2340  0.5630
10430TIP3    H131251   0.378   5.678   6.248 -0.8685  2.1283  2.1388
10430TIP3    H231252   0.510   5.668   6.175 -2.2306  1.5198 -0.2998
10431TIP3   OH231253   4.019   7.323   5.948 -0.5409  0.6931  0.0127
10431TIP3    H131254   4.002   7.412   5.916 -1.1068  0.7695  0.5094
10431TIP3    H231255   3.956   7.311   6.019 -0.0121  0.1404  0.3942
10432TIP3   OH231256   5.731   2.297   2.151  0.3791  0.2399 -0.5250
10432TIP3    H131257   5.751   2.307   2.058  1.8076  1.7670 -0.0640
10432TIP3    H231258   5.734   2.385   2.186  0.0910 -0.3570  1.0276
10433TIP3   OH231259   5.045   3.251   4.859 -0.1289 -0.1177  0.0265
10433TIP3    H131260   4.957   3.291   4.857 -0.1371 -0.1253  0.2971
10433TIP3    H231261   5.079   3.266   4.770 -0.6767 -0.7289 -0.2954
10434TIP3   OH231262   1.760   5.610   5.919 -0.0451 -0.4158  0.1680
10434TIP3    H131263   1.777   5.673   5.849 -0.7460 -1.0938 -0.6199
10434TIP3    H231264   1.714   5.661   5.986 -3.7627 -0.8296 -1.9456
10435TIP3   OH231265   1.617   2.915   2.357 -0.2829 -0.0691 -0.3096
10435TIP3    H131266   1.655   3.000   2.338  0.0621 -0.2788 -0.5710
10435TIP3    H231267   1.541   2.934   2.412 -0.7403  0.4720 -1.1217
10436TIP3   OH231268   0.124   2.488   0.878 -0.0063 -0.0236 -0.0411
10436TIP3    H131269   0.190   2.512   0.942 -0.0241  1.9333 -0.7301
10436TIP3    H231270   0.052   2.452   0.930  0.1916  1.0574  0.9772
10437TIP3   OH231271   2.732   1.202   3.981 -0.0893  0.6469  0.9621
10437TIP3    H131272   2.822   1.187   4.010 -0.5530  0.4969  2.3129
10437TIP3    H231273   2.726   1.297   3.967  0.3429  0.6256  0.6271
10438TIP3   OH231274   1.355   7.098   5.272 -0.0890  0.4312  0.0626
10438TIP3    H131275   1.387   7.180   5.234  0.7063  0.2377  0.3042
10438TIP3    H231276   1.406   7.030   5.229 -1.0916  0.0282 -0.4878
10439TIP3   OH231277   2.270   7.082   6.025  0.8171 -0.4269  0.0266
10439TIP3    H131278   2.277   7.022   5.951  1.1309  0.9714 -1.0879
10439TIP3    H231279   2.266   7.169   5.986  0.2272  0.2925  1.6191
10440TIP3   OH231280   1.757   6.062   5.197 -0.0076 -0.1094 -0.5686
10440TIP3    H131281   1.716   5.984   5.159 -0.8546 -0.0247  0.1692
10440TIP3    H231282   1.727   6.064   5.288  2.1946 -0.4265  0.1926
10441TIP3   OH231283   0.188   2.017   0.642 -0.0531  0.1877  0.3114
10441TIP3    H131284   0.219   2.073   0.572  0.9638 -0.7191  0.0222
10441TIP3    H231285   0.251   2.029   0.713 -0.1258 -0.1831  0.4424
10442TIP3   OH231286   4.685   0.151   1.985 -0.2581  0.1944  0.2368
10442TIP3    H131287   4.686   0.117   2.074  2.1783  0.3269  0.2953
10442TIP3    H231288   4.681   0.073   1.929 -3.3682  0.1602  0.4400
10443TIP3   OH231289   6.396   1.619   5.425  0.2783 -0.7564  0.1003
10443TIP3    H131290   6.347   1.684   5.476 -1.3207 -1.8054 -0.0441
10443TIP3    H231291   6.410   1.661   5.341  1.1899  0.2348  0.7350
10444TIP3   OH231292   4.120   0.594   6.221  0.2721  0.2446 -0.0816
10444TIP3    H131293   4.151   0.684   6.224 -1.3095  0.8008 -0.1681
10444TIP3    H231294   4.049   0.591   6.286 -0.6804 -0.5524 -1.1509
10445TIP3   OH231295   1.014   1.130   1.140  0.3765 -0.0040 -0.1895
10445TIP3    H131296   1.032   1.044   1.100  0.3178  0.3842 -1.0475
10445TIP3    H231297   0.940   1.165   1.091  0.6202  0.6911 -0.0677
10446TIP3   OH231298   3.286   5.164   5.964 -0.3175 -0.4236  0.0060
10446TIP3    H131299   3.325   5.100   6.023  1.3197  0.6235  0.0887
10446TIP3    H231300   3.282   5.119   5.879 -0.1736 -1.0098  0.3083
10447TIP3   OH231301   3.731   1.498   5.637  0.5453  0.1197  0.6058
10447TIP3    H131302   3.711   1.527   5.726  1.5457 -0.5512  1.0628
10447TIP3    H231303   3.730   1.579   5.585 -4.3478  0.0059  0.3467
10448TIP3   OH231304   6.790   0.788   5.193 -0.2381  0.6624  0.0656
10448TIP3    H131305   6.829   0.847   5.258  0.8744  0.6635 -0.6028
10448TIP3    H231306   6.698   0.780   5.221 -0.0535  1.5765  0.9732
10449TIP3   OH231307   7.116   3.772   1.684  0.6390  0.4905  0.3237
10449TIP3    H131308   7.047   3.758   1.749  2.1173 -0.0557  1.8215
10449TIP3    H231309   7.125   3.687   1.640 -0.9996  1.1125 -1.2777
10450TIP3   OH231310   3.718   2.412   4.561  0.2321  0.3292 -0.2301
10450TIP3    H131311   3.686   2.466   4.633  0.8823 -0.9935  1.0787
10450TIP3    H231312   3.640   2.374   4.522 -0.1088  0.8769 -0.0825
10451TIP3   OH231313   1.632   1.749   2.172  0.8538  0.4068 -0.2142
10451TIP3    H131314   1.641   1.659   2.204  0.3711  0.8504  1.1958
10451TIP3    H231315   1.682   1.802   2.233  0.9489  1.1302 -0.9112
10452TIP3   OH231316   7.129   4.249   4.685  0.3244  0.5693  0.0033
10452TIP3    H131317   7.056   4.248   4.747  0.8180  0.4790  0.5874
10452TIP3    H231318   7.100   4.308   4.615 -0.6592 -0.1432 -0.2041
10453TIP3   OH231319   1.118   3.948   1.164 -0.3586 -0.3106 -0.2006
10453TIP3    H131320   1.132   4.005   1.089 -2.0001  1.0112  0.4862
10453TIP3    H231321   1.123   3.859   1.127  1.6953  0.2569 -1.3511
10454TIP3   OH231322   1.462   2.209   0.771 -0.3925  0.1200 -0.1165
10454TIP3    H131323   1.553   2.181   0.770 -0.0108  0.9584  3.5594
10454TIP3    H231324   1.418   2.150   0.709  2.1345 -2.0788  0.1061
10455TIP3   OH231325   7.384   3.670   1.076  0.2376  0.2955 -0.0438
10455TIP3    H131326   7.360   3.759   1.100  1.4065  0.9635 -1.2748
10455TIP3    H231327   7.300   3.626   1.059 -0.4690  0.5165  2.6150
10456TIP3   OH231328   7.477   1.824   1.509 -0.0306 -0.3983 -0.2394
10456TIP3    H131329   7.406   1.888   1.505 -0.5928 -0.9493  0.6655
10456TIP3    H231330   7.488   1.806   1.603  1.3573 -0.2592 -0.3639
10457TIP3   OH231331   4.360   3.489   0.333  0.2402  0.3445  0.6769
10457TIP3    H131332   4.434   3.550   0.335  0.5053  0.0690 -0.3530
10457TIP3    H231333   4.399   3.406   0.307 -0.8644  0.8388 -2.7664
10458TIP3   OH231334   0.900   2.042   3.851 -0.2082  0.5052  0.0290
10458TIP3    H131335   0.864   2.110   3.793 -0.1426  1.3669  0.9928
10458TIP3    H231336   0.851   1.963   3.828  1.1509  0.3481 -2.5903
10459TIP3   OH231337   6.420   0.058   6.179  0.1972 -0.4208 -0.0783
10459TIP3    H131338   6.436   0.151   6.195 -3.3667  0.0625  1.3215
10459TIP3    H231339   6.358   0.057   6.107  0.4157 -1.7311 -0.2480
10460TIP3   OH231340   6.423   1.025   1.635  0.1712 -0.5336  0.1975
10460TIP3    H131341   6.510   1.053   1.604  0.4014 -0.6397  0.7311
10460TIP3    H231342   6.369   1.021   1.556  0.4982  0.1028 -0.0627
10461TIP3   OH231343   6.574   4.452   0.469  0.3201  0.0927  0.0533
10461TIP3    H131344   6.636   4.444   0.542 -0.3744  1.3863  0.8194
10461TIP3    H231345   6.503   4.507   0.504 -1.7371 -2.1089 -0.4979
10462TIP3   OH231346   1.009   2.234   1.808 -0.2501 -0.5022 -0.0892
10462TIP3    H131347   1.016   2.145   1.844 -0.2662 -0.1629  0.7443
10462TIP3    H231348   1.100   2.264   1.801 -0.3364  0.1292  1.4015
10463TIP3   OH231349   7.317   2.203   1.099  0.2283 -0.0574 -0.5642
10463TIP3    H131350   7.309   2.108   1.106 -1.0929  0.1338  0.8067
10463TIP3    H231351   7.234   2.231   1.062  0.0713  0.6751  0.3135
10464TIP3   OH231352   7.174   0.395   2.108 -1.0880 -0.6094  0.8060
10464TIP3    H131353   7.167   0.312   2.060  1.7453  0.5911 -1.8177
10464TIP3    H231354   7.136   0.460   2.049  1.7053  0.7677  0.4254
10465TIP3   OH231355   6.061   2.476   0.459  0.0370 -0.1883  0.1317
10465TIP3    H131356   6.069   2.461   0.365 -1.8570  0.1202 -0.1009
10465TIP3    H231357   6.128   2.421   0.499  1.3666  0.2812 -1.4460
10466TIP3   OH231358   5.764   0.666   2.726 -0.3512  0.5693  0.0597
10466TIP3    H131359   5.811   0.743   2.693  0.8228  0.3571  1.1828
10466TIP3    H231360   5.732   0.693   2.812  1.5008 -0.7225  1.1849
10467TIP3   OH231361   7.618   3.217   1.425  0.4395  0.2148  0.1376
10467TIP3    H131362   7.637   3.301   1.383  1.4305 -0.2763 -0.4299
10467TIP3    H231363   7.698   3.195   1.472  0.4924 -0.8118 -0.4162
10468TIP3   OH231364   4.378   3.281   5.779 -0.1046  0.1255 -0.3362
10468TIP3    H131365   4.372   3.285   5.684 -2.8773  0.2861 -0.1852
10468TIP3    H231366   4.310   3.342   5.810  2.5878  2.2085  1.7468
10469TIP3   OH231367   6.440   2.665   2.149  0.2692 -0.3429 -0.5783
10469TIP3    H131368   6.535   2.657   2.160  0.4149  1.4818 -0.3443
10469TIP3    H231369   6.410   2.702   2.231 -0.4477  0.4705 -1.2037
10470TIP3   OH231370   6.068   4.863   0.456  0.2159  0.3755  0.0781
10470TIP3    H131371   6.093   4.831   0.542 -0.1241  1.7957  0.7219
10470TIP3    H231372   6.030   4.787   0.412  2.1804 -0.8681  0.4542
10471TIP3   OH231373   6.418   0.425   1.177 -0.7950 -0.3614 -0.3770
10471TIP3    H131374   6.478   0.471   1.234  0.3595 -1.8726 -0.3316
10471TIP3    H231375   6.450   0.442   1.088 -0.0917 -1.4329 -0.3357
10472TIP3   OH231376   6.797   2.522   4.850 -0.3302 -0.2878 -0.2167
10472TIP3    H131377   6.708   2.557   4.848 -0.2969 -0.2161 -0.4744
10472TIP3    H231378   6.789   2.434   4.814 -0.3557 -0.4176  0.1002
10473TIP3   OH231379   3.007   7.272   6.267 -1.2978 -0.0244  0.0477
10473TIP3    H131380   2.988   7.278   6.360 -0.8531  0.6056  0.1002
10473TIP3    H231381   3.076   7.337   6.252  0.7315 -2.1459 -0.1548
10474TIP3   OH231382   2.258   3.729   1.443  0.9374 -0.0189 -0.5341
10474TIP3    H131383   2.295   3.642   1.431  0.4767 -0.1514 -0.9836
10474TIP3    H231384   2.217   3.750   1.360  1.4485  0.8257 -0.5871
10475TIP3   OH231385   1.768   5.870   4.370  0.0587 -0.3562 -0.0991
10475TIP3    H131386   1.682   5.898   4.399 -0.5373 -0.8077 -1.3603
10475TIP3    H231387   1.756   5.848   4.277  0.7763 -3.4446  0.4802
10476TIP3   OH231388   6.244   2.671   5.903 -0.1425  0.3145  0.1555
10476TIP3    H131389   6.211   2.673   5.814 -1.9997 -0.4854  0.7895
10476TIP3    H231390   6.219   2.756   5.941  1.4111  1.0003 -0.3378
10477TIP3   OH231391   1.944   4.467   0.543  0.2952 -0.2839  0.3520
10477TIP3    H131392   1.987   4.493   0.462  0.1120  0.0182  0.3520
10477TIP3    H231393   1.990   4.388   0.570 -0.0825 -0.7771 -0.4134
10478TIP3   OH231394   4.665   0.892   5.107  0.1499 -0.2067  1.2942
10478TIP3    H131395   4.616   0.922   5.184 -1.4529  0.4061  0.0459
10478TIP3    H231396   4.656   0.963   5.043  1.6380 -0.6255  0.5870
10479TIP3   OH231397   4.899   1.961   5.830 -0.1350  0.2906 -0.1417
10479TIP3    H131398   4.887   1.963   5.735 -0.3851  1.3251 -0.0914
10479TIP3    H231399   4.833   2.021   5.864  0.3620  0.3983  0.6531
10480TIP3   OH231400   6.471   0.989   5.845 -0.3887 -0.1174 -0.4704
10480TIP3    H131401   6.388   1.023   5.878  0.8754  1.8654  0.7436
10480TIP3    H231402   6.529   1.065   5.842  0.8744 -1.1067 -3.0261
10481TIP3   OH231403   6.287   0.050   5.941 -0.1814  0.0528  0.0510
10481TIP3    H131404   6.217   0.021   5.882  0.3355  1.0579 -1.0737
10481TIP3    H231405   6.350   0.093   5.884  1.3734 -0.8499  1.0622
10482TIP3   OH231406   7.422   3.436   0.591  0.1479 -0.4941 -0.0531
10482TIP3    H131407   7.506   3.394   0.571 -0.0356 -0.7852 -0.2134
10482TIP3    H231408   7.426   3.453   0.685 -1.1566 -4.0023  0.7417
10483TIP3   OH231409   2.335   6.773   6.238  0.1717  0.0394 -0.2387
10483TIP3    H131410   2.424   6.767   6.275  0.6832  0.5076 -1.3738
10483TIP3    H231411   2.323   6.866   6.221 -0.7007  0.0250  0.2813
10484TIP3   OH231412   1.885   5.486   5.364  0.2819  0.4203  0.2609
10484TIP3    H131413   1.844   5.434   5.296 -1.1215  0.7140  0.8741
10484TIP3    H231414   1.938   5.550   5.317  0.1998 -0.0783 -0.5194
10485TIP3   OH231415   2.798   6.162   5.423  0.1071 -0.1269 -0.1442
10485TIP3    H131416   2.779   6.208   5.341  3.4073 -0.4787 -1.1970
10485TIP3    H231417   2.799   6.232   5.489 -0.7261  0.4384 -0.7110
10486TIP3   OH231418   3.504   6.353   4.587  0.6749  0.0464 -0.5138
10486TIP3    H131419   3.485   6.352   4.493  0.0491  0.8958 -0.3959
10486TIP3    H231420   3.568   6.423   4.597  1.6166 -0.8008 -0.4620
10487TIP3   OH231421   2.726   5.491   5.381 -0.2864 -0.1003  0.0926
10487TIP3    H131422   2.683   5.556   5.437  1.6586  0.2000  1.2936
10487TIP3    H231423   2.765   5.543   5.311  0.9720  0.0069  0.8611
10488TIP3   OH231424   0.959   0.265   0.608  0.3471  0.3024 -0.3756
10488TIP3    H131425   0.920   0.285   0.523  0.9801  0.3101 -0.6638
10488TIP3    H231426   1.053   0.274   0.595  0.6002 -1.7668 -0.2361
10489TIP3   OH231427   2.822   4.631   1.899 -0.4696 -0.1810  0.1259
10489TIP3    H131428   2.833   4.701   1.836  2.4355  0.2181  0.9984
10489TIP3    H231429   2.830   4.673   1.985  0.1339 -1.3609  0.6761
10490TIP3   OH231430   0.453   3.534   0.717 -0.5433  0.4512  0.2695
10490TIP3    H131431   0.381   3.591   0.743 -0.8082  0.6880 -0.9445
10490TIP3    H231432   0.430   3.505   0.629  0.0116 -0.8486  0.5405
10491TIP3   OH231433   7.370   1.383   0.620 -0.7561  0.6941 -0.1739
10491TIP3    H131434   7.317   1.318   0.666  0.3761 -0.5642 -0.6072
10491TIP3    H231435   7.397   1.339   0.539  0.9483  1.2919  0.0499
10492TIP3   OH231436   6.653   2.484   1.507  0.2459  0.5096  0.6761
10492TIP3    H131437   6.570   2.515   1.543 -0.1019  1.3325 -0.8124
10492TIP3    H231438   6.633   2.399   1.469  0.4945 -0.1125  1.9113
10493TIP3   OH231439   1.157   5.326   6.128 -0.1060 -0.1163 -0.0496
10493TIP3    H131440   1.134   5.291   6.214 -0.4544 -0.0771 -0.1300
10493TIP3    H231441   1.178   5.418   6.144  2.8545 -0.8384  0.5298
10494TIP3   OH231442   6.720   2.193   1.799  0.1643  0.0187 -0.1917
10494TIP3    H131443   6.813   2.178   1.786  0.3036  0.1799  0.5651
10494TIP3    H231444   6.711   2.288   1.804 -0.1104  0.0211 -0.7645
10495TIP3   OH231445   3.942   4.305   5.012  0.2202  0.3259 -0.0772
10495TIP3    H131446   3.995   4.233   4.979  1.2656  0.4099  1.3846
10495TIP3    H231447   3.989   4.384   4.983 -0.1940  0.4088 -0.5186
10496TIP3   OH231448   5.435   3.818   0.710  0.4244 -0.4000 -0.2327
10496TIP3    H131449   5.411   3.765   0.633 -0.0745 -1.0445  0.3599
10496TIP3    H231450   5.421   3.908   0.682 -0.8969 -0.6738 -0.5324
10497TIP3   OH231451   3.832   7.097   5.315 -0.0153  0.3549  0.1712
10497TIP3    H131452   3.892   7.027   5.340 -0.9947 -0.5127  0.1062
10497TIP3    H231453   3.875   7.140   5.241 -0.8490 -2.1905 -1.8600
10498TIP3   OH231454   0.753   2.880   1.159 -0.0814 -0.6291  0.2675
10498TIP3    H131455   0.755   2.910   1.249  0.7313  3.3056 -0.9668
10498TIP3    H231456   0.664   2.849   1.145 -0.4632 -0.3902  2.1538
10499TIP3   OH231457   0.657   3.927   2.346  0.9242  0.1633 -0.0018
10499TIP3    H131458   0.580   3.948   2.399  1.5695 -0.5178  1.2235
10499TIP3    H231459   0.622   3.902   2.261 -0.2924 -1.2158  0.8821
10500TIP3   OH231460   5.827   2.641   1.921  0.6513  0.2311  0.1561
10500TIP3    H131461   5.843   2.571   1.985 -0.1470  1.4180  1.6995
10500TIP3    H231462   5.913   2.683   1.909  0.8823 -0.2392  0.1485
10501TIP3   OH231463   3.767   0.037   4.871 -0.0593 -0.0473 -0.2036
10501TIP3    H131464   3.759  -0.059   4.865 -3.2500  0.1045  0.9946
10501TIP3    H231465   3.748   0.068   4.783 -3.3193 -0.3195  0.3531
10502TIP3   OH231466   7.231   2.076   0.660  0.4140 -0.2697  0.1359
10502TIP3    H131467   7.241   2.046   0.750  0.2732 -0.7628 -0.0148
10502TIP3    H231468   7.147   2.121   0.658  0.1253 -0.8213  0.0912
10503TIP3   OH231469   0.209   1.127   1.505  0.1767 -0.0448 -0.0592
10503TIP3    H131470   0.239   1.037   1.489  0.7550  0.0949  0.2212
10503TIP3    H231471   0.288   1.181   1.496  0.0146  0.3298  0.6671
10504TIP3   OH231472   0.266   0.011   0.812  0.6891 -0.3464 -0.5390
10504TIP3    H131473   0.302   0.100   0.814  1.1401 -0.5078 -1.2594
10504TIP3    H231474   0.336  -0.044   0.847 -0.6277 -0.0806  2.5886
10505TIP3   OH231475   1.042   2.868   0.102 -0.4660 -0.2132  0.6048
10505TIP3    H131476   1.058   2.808   0.174 -0.2733  0.5654  1.2106
10505TIP3    H231477   0.962   2.915   0.126 -0.7199 -0.3539  0.0476
10506TIP3   OH231478   2.275   4.428   0.732 -0.7156 -0.5682  0.7589
10506TIP3    H131479   2.211   4.375   0.685 -1.5180 -1.6601  2.9997
10506TIP3    H231480   2.225   4.506   0.760 -0.1878  0.1820 -0.3600
10507TIP3   OH231481   6.747   2.862   0.443  0.1373  0.1247 -0.3412
10507TIP3    H131482   6.785   2.950   0.442  1.7965 -0.5273  1.3916
10507TIP3    H231483   6.672   2.869   0.502  1.5239 -0.0759  1.4887
10508TIP3   OH231484   5.378   4.172   0.104 -0.3270  0.0384  0.5011
10508TIP3    H131485   5.304   4.218   0.063 -0.9927  0.7349  2.3990
10508TIP3    H231486   5.450   4.236   0.100  0.1779 -0.6078 -1.2715
10509TIP3   OH231487   2.749   6.108   5.162 -0.1656 -0.0335 -0.0445
10509TIP3    H131488   2.835   6.068   5.177  0.3805  1.5425  1.1754
10509TIP3    H231489   2.744   6.117   5.067  0.3454 -1.5913 -0.2308
10510TIP3   OH231490   1.801   6.175   4.746  0.1217  0.1803 -0.2182
10510TIP3    H131491   1.772   6.252   4.697 -0.6670  0.6021  0.8595
10510TIP3    H231492   1.723   6.149   4.796  0.9705 -0.0649  0.9960
10511TIP3   OH231493   3.650   7.196   0.437  0.1448  1.0233 -0.2585
10511TIP3    H131494   3.561   7.164   0.445 -0.0084  1.3142 -0.8296
10511TIP3    H231495   3.694   7.131   0.382  0.5936  0.2639  0.9710
10512TIP3   OH231496   0.434   1.427   0.160 -0.1134 -0.0592 -0.1757
10512TIP3    H131497   0.349   1.388   0.179 -1.1599  1.5382 -1.3856
10512TIP3    H231498   0.478   1.431   0.245 -1.6598  0.0365  0.6484
10513TIP3   OH231499   1.624   4.845   6.061 -0.5528  0.1411 -0.1744
10513TIP3    H131500   1.643   4.901   5.986 -1.9685  1.7159  0.6349
10513TIP3    H231501   1.573   4.772   6.024 -0.7603  0.6189 -0.8309
10514TIP3   OH231502   4.188   0.599   1.439  0.7545  0.1663 -0.4212
10514TIP3    H131503   4.188   0.606   1.534 -0.5299 -0.9759 -0.3208
10514TIP3    H231504   4.136   0.674   1.409 -0.3996 -0.4955 -0.1141
10515TIP3   OH231505   1.201   5.885   6.145  0.2726  0.9756  0.3104
10515TIP3    H131506   1.114   5.924   6.142 -0.9516 -1.5416  1.3128
10515TIP3    H231507   1.236   5.898   6.057 -1.2178  1.7927 -0.1789
10516TIP3   OH231508   3.090   6.317   1.618 -0.0629  0.2717 -0.1303
10516TIP3    H131509   3.015   6.376   1.625 -1.3694 -1.7804  5.5011
10516TIP3    H231510   3.160   6.361   1.667 -0.0960 -1.3964  1.4660
10517TIP3   OH231511   4.742   4.370   3.821 -0.7336 -0.0019 -0.1050
10517TIP3    H131512   4.797   4.448   3.828 -0.8582  0.1774 -0.9938
10517TIP3    H231513   4.801   4.297   3.838 -0.2369  0.1972 -0.9127
10518TIP3   OH231514   6.141   3.406   0.499  0.3641  0.5156  0.2502
10518TIP3    H131515   6.156   3.495   0.530  0.9814  1.0516 -1.5420
10518TIP3    H231516   6.057   3.411   0.453  0.4689  0.2235  0.0252
10519TIP3   OH231517   2.545   0.722   5.458 -0.0342  0.1478 -0.3113
10519TIP3    H131518   2.611   0.747   5.394  0.2628  0.0994 -0.0240
10519TIP3    H231519   2.463   0.760   5.424 -0.0139 -0.5108 -1.1006
10520TIP3   OH231520   0.111   1.738   0.529  0.0545  0.2876  0.2768
10520TIP3    H131521   0.192   1.731   0.478  0.0560 -2.3200  0.5745
10520TIP3    H231522   0.086   1.830   0.521  1.8325  0.6488 -1.6802
10521TIP3   OH231523   5.095   1.446   4.985  0.2034  0.2683 -0.2052
10521TIP3    H131524   5.002   1.468   4.981  0.6272  2.0333 -0.6144
10521TIP3    H231525   5.133   1.511   5.044  0.7976 -1.8803  1.8927
10522TIP3   OH231526   3.372   0.086   5.120 -0.1817  0.2769  0.0650
10522TIP3    H131527   3.375   0.133   5.037  0.7806  0.1141 -0.0019
10522TIP3    H231528   3.392  -0.005   5.097  1.5479  0.4788  0.6330
10523TIP3   OH231529   7.380   1.380   1.819  0.2615  0.4217  0.3101
10523TIP3    H131530   7.313   1.312   1.830  0.5265  0.1240  0.0914
10523TIP3    H231531   7.453   1.351   1.873  1.4123 -0.8431 -1.8909
10524TIP3   OH231532   7.170   1.752   3.827 -0.2989  0.1280 -0.1288
10524TIP3    H131533   7.130   1.818   3.883  1.2269  0.0896  1.0319
10524TIP3    H231534   7.255   1.790   3.802  0.9916 -1.7218  1.2700
10525TIP3   OH231535   1.277   7.132   5.522 -0.8243  0.1439  0.5132
10525TIP3    H131536   1.299   7.095   5.437 -0.1491 -1.1763  1.2347
10525TIP3    H231537   1.287   7.226   5.512  0.3446 -0.0853 -0.5490
10526TIP3   OH231538   6.921   2.400   1.478 -0.4642 -0.1868 -0.1702
10526TIP3    H131539   6.906   2.380   1.386 -0.9966 -0.9972  0.0871
10526TIP3    H231540   6.836   2.430   1.511 -0.0107  1.1884 -0.2089
10527TIP3   OH231541   2.856   3.466   1.288 -0.2904 -0.0460 -0.1797
10527TIP3    H131542   2.884   3.490   1.199 -1.8955 -0.9547 -0.9405
10527TIP3    H231543   2.843   3.372   1.284 -1.4866  0.0720  0.7149
10528TIP3   OH231544   3.201   7.327   5.949 -0.3280 -0.3589 -0.1551
10528TIP3    H131545   3.228   7.251   6.001 -0.2763 -0.4124 -0.2603
10528TIP3    H231546   3.105   7.327   5.956 -0.4102 -1.1807 -1.1993
10529TIP3   OH231547   3.686   5.071   4.073 -0.1771 -0.2676  0.1530
10529TIP3    H131548   3.690   5.054   3.979  1.5775  0.9363 -0.0163
10529TIP3    H231549   3.594   5.062   4.095 -0.4257 -1.9697 -1.4095
10530TIP3   OH231550   2.605   1.811   0.014  0.1831  0.1920 -0.0457
10530TIP3    H131551   2.669   1.868   0.056  2.3886 -2.5361  0.4537
10530TIP3    H231552   2.573   1.755   0.085 -1.2257  0.1258 -0.7120
10531TIP3   OH231553   7.543   1.338   6.087  0.1457  0.3393 -0.0300
10531TIP3    H131554   7.616   1.311   6.031  0.3937 -0.5807  0.7336
10531TIP3    H231555   7.524   1.262   6.141 -1.8505  0.3306 -0.7075
10532TIP3   OH231556   0.695   3.838   0.557 -0.9448  0.4013 -0.1312
10532TIP3    H131557   0.750   3.784   0.501 -1.5054 -0.7261  0.3831
10532TIP3    H231558   0.710   3.928   0.527 -0.1632 -0.0589 -1.1332
10533TIP3   OH231559   2.936   6.691   4.906 -0.2508  0.0166 -0.0478
10533TIP3    H131560   2.949   6.600   4.880 -0.4673 -0.4547  1.4849
10533TIP3    H231561   3.024   6.725   4.922 -0.3223 -0.7749  2.1975
10534TIP3   OH231562   7.025   1.800   1.383  0.0670  0.3621 -0.0744
10534TIP3    H131563   6.930   1.797   1.369  0.2513 -2.4202 -1.0401
10534TIP3    H231564   7.036   1.784   1.477 -0.3565 -1.1542 -0.2725
10535TIP3   OH231565   5.445   0.845   5.083  0.0208  0.3275  0.0863
10535TIP3    H131566   5.523   0.803   5.045  0.6477  1.3788  0.2009
10535TIP3    H231567   5.465   0.856   5.175 -0.0757  1.0167  0.0320
10536TIP3   OH231568   6.889   1.000   5.346  0.0550 -0.0592  0.0334
10536TIP3    H131569   6.947   0.966   5.415  0.3076 -0.0966 -0.1992
10536TIP3    H231570   6.816   1.039   5.394 -0.4600 -1.3197  0.2966
10537TIP3   OH231571   6.183   5.274   4.696  0.8009  0.1986  0.1935
10537TIP3    H131572   6.268   5.233   4.712  1.1426  0.3565 -1.1659
10537TIP3    H231573   6.133   5.208   4.648  0.4204  0.3847  0.3319
10538TIP3   OH231574   6.229   6.262   4.738 -0.2254  0.0909 -0.1708
10538TIP3    H131575   6.272   6.203   4.800  0.1660  0.8387  0.2723
10538TIP3    H231576   6.205   6.338   4.790 -2.8439 -0.6538 -0.2282
10539TIP3   OH231577   5.805   5.726   4.382 -0.3648  0.2894 -0.4081
10539TIP3    H131578   5.812   5.814   4.419  0.9085  0.4814 -1.0653
10539TIP3    H231579   5.881   5.718   4.324 -1.9024 -0.2751 -2.3982
10540TIP3   OH231580   3.766   6.595   4.300  0.1184 -0.1176  0.1838
10540TIP3    H131581   3.757   6.521   4.239 -0.5050  1.5017 -1.7662
10540TIP3    H231582   3.860   6.610   4.306  0.1609  0.0944 -0.8946
10541TIP3   OH231583   0.329   2.550   1.045 -0.3100  0.2739  0.0843
10541TIP3    H131584   0.327   2.475   1.104  1.7725  0.1892  0.0813
10541TIP3    H231585   0.412   2.542   0.998  0.1207  2.7320  0.3199
10542TIP3   OH231586   4.439   5.979   3.878  1.0749 -0.0808 -0.0842
10542TIP3    H131587   4.406   6.069   3.882  2.7546  0.5853 -0.4779
10542TIP3    H231588   4.435   5.948   3.969 -0.6742 -0.0465 -0.1475
10543TIP3   OH231589   6.454   4.470   5.929  0.0664  0.2366 -0.3767
10543TIP3    H131590   6.504   4.544   5.895  0.1364  0.2315 -0.2872
10543TIP3    H231591   6.363   4.498   5.924  0.1015  0.3759 -0.2329
10544TIP3   OH231592   3.881   5.174   5.335  0.6638 -0.1347 -0.0623
10544TIP3    H131593   3.938   5.112   5.379 -0.1185 -0.0044  1.1407
10544TIP3    H231594   3.800   5.126   5.318  1.5802 -0.7399 -2.9941
10545TIP3   OH231595   6.991   0.478   5.480  0.2678  0.5371  0.6936
10545TIP3    H131596   7.026   0.436   5.559  0.8419  0.6315  0.4870
10545TIP3    H231597   6.947   0.406   5.433  1.2183  0.1707  0.3601
10546TIP3   OH231598   1.606   3.615   0.221  0.0855  0.0289  0.0509
10546TIP3    H131599   1.685   3.629   0.168 -0.1745  0.0857 -0.3280
10546TIP3    H231600   1.548   3.565   0.164  0.4456 -1.3461  0.8893
10547TIP3   OH231601   7.519   1.611   5.381 -0.2803  0.6533  0.2796
10547TIP3    H131602   7.591   1.603   5.319  0.0400 -0.0789  0.7383
10547TIP3    H231603   7.471   1.529   5.373 -0.1789  0.5139  1.0656
10548TIP3   OH231604   2.524   0.231   1.476  0.4138 -0.2273  0.1474
10548TIP3    H131605   2.484   0.212   1.561  0.8841 -0.3070  0.3512
10548TIP3    H231606   2.556   0.320   1.484  0.5716 -0.2792  0.0960
10549TIP3   OH231607   2.275   6.911   4.421  0.1781  0.1892 -0.4002
10549TIP3    H131608   2.265   6.965   4.343 -1.8147 -0.6757 -0.7714
10549TIP3    H231609   2.312   6.829   4.389 -1.4624 -0.4923 -0.5818
10550TIP3   OH231610   4.791   0.735   4.702 -0.5991  0.0395  0.0905
10550TIP3    H131611   4.838   0.658   4.668 -1.6439 -0.5036 -0.1404
10550TIP3    H231612   4.860   0.789   4.740 -0.0160 -1.7007  1.5843
10551TIP3   OH231613   2.798   2.001   0.098 -0.3946 -0.3720  0.3689
10551TIP3    H131614   2.893   1.999   0.106 -0.1475 -0.1984 -2.1169
10551TIP3    H231615   2.777   2.093   0.078 -1.2583 -0.0456  2.6984
10552TIP3   OH231616   2.717   5.215   5.415  0.3958  0.1124 -0.4813
10552TIP3    H131617   2.662   5.200   5.491  0.5014 -0.3875 -0.5060
10552TIP3    H231618   2.705   5.308   5.395 -2.2337 -0.4707 -1.8851
10553TIP3   OH231619   4.562   7.076   2.681 -0.0807 -0.3467  0.3810
10553TIP3    H131620   4.509   7.115   2.751  0.0789  0.6442 -0.0447
10553TIP3    H231621   4.542   6.982   2.686 -2.4292  0.0706 -0.2216
10554TIP3   OH231622   7.664  -0.021   4.669 -0.0603  0.3167  0.3684
10554TIP3    H131623   7.741  -0.026   4.725  0.1783  0.7176  0.0821
10554TIP3    H231624   7.613   0.052   4.705  0.9888  1.7893 -1.0248
10555TIP3   OH231625   4.284   6.373   4.749  0.0897  0.0352  0.4347
10555TIP3    H131626   4.267   6.284   4.780  1.1489 -0.2765  0.1418
10555TIP3    H231627   4.280   6.366   4.654  0.0657  0.3289  0.4136
10556TIP3   OH231628   5.476   7.332   2.618 -0.1845  0.2120  0.2210
10556TIP3    H131629   5.413   7.374   2.677  0.6367  0.1733  1.1297
10556TIP3    H231630   5.424   7.267   2.570 -0.5892 -0.7897  1.9505
10557TIP3   OH231631   5.369   5.454   2.001 -0.4308  0.7214  0.0519
10557TIP3    H131632   5.355   5.415   1.915 -1.1549  0.6599  0.1909
10557TIP3    H231633   5.345   5.546   1.990 -3.3136  0.1266  0.8665
10558TIP3   OH231634   1.760   2.140   0.764  0.3699 -0.5557  0.0140
10558TIP3    H131635   1.781   2.047   0.760 -0.1648 -0.6496 -0.8900
10558TIP3    H231636   1.789   2.175   0.679 -0.7353 -0.1923 -0.2286
10559TIP3   OH231637   3.608   4.873   3.442  0.0344  0.0559  0.0865
10559TIP3    H131638   3.637   4.964   3.432  1.1091 -0.2232  0.5520
10559TIP3    H231639   3.642   4.828   3.365 -1.0063  0.1663 -0.4433
10560TIP3   OH231640   2.758   6.029   6.023  0.4537 -0.0992 -0.1471
10560TIP3    H131641   2.696   5.994   6.088  0.7184 -0.4664 -0.0921
10560TIP3    H231642   2.820   6.081   6.073  0.0631  0.4464 -0.2277
10561TIP3   OH231643   4.789   6.423   5.495 -0.3704  0.2039 -0.0444
10561TIP3    H131644   4.816   6.331   5.494 -1.4308 -0.1184 -0.0178
10561TIP3    H231645   4.768   6.443   5.404 -3.0094 -0.4797  0.3512
10562TIP3   OH231646   5.894   0.003   4.723 -0.2182 -0.0172 -0.4352
10562TIP3    H131647   5.973   0.014   4.776  0.3156  1.2801 -1.4738
10562TIP3    H231648   5.861   0.091   4.710 -1.4734 -0.4964 -0.5822
10563TIP3   OH231649   7.387   1.323   5.253 -0.2969 -0.1230 -0.4622
10563TIP3    H131650   7.365   1.269   5.177 -0.8644 -1.7865  0.8539
10563TIP3    H231651   7.483   1.326   5.253 -0.2985  0.1616 -1.4234
10564TIP3   OH231652   6.684   0.482   5.231 -0.3136  0.0743 -0.2307
10564TIP3    H131653   6.731   0.527   5.302 -0.0486  0.0333 -0.3803
10564TIP3    H231654   6.743   0.487   5.156  0.8838 -2.8534  0.4463
10565TIP3   OH231655   0.794   4.941   0.002  0.3914  0.9650 -0.4552
10565TIP3    H131656   0.778   4.965   0.093  0.9657  0.0814 -0.1083
10565TIP3    H231657   0.797   4.845   0.003 -1.4853  0.8845 -1.7370
10566TIP3   OH231658   2.795   7.113   5.037  0.3306 -0.4900  0.7748
10566TIP3    H131659   2.720   7.105   4.978  0.0088 -2.5509  1.4336
10566TIP3    H231660   2.846   7.186   5.001 -0.6350 -0.7397 -1.1590
10567TIP3   OH231661   3.421   7.337   5.763 -0.0156  0.3706  0.5277
10567TIP3    H131662   3.347   7.368   5.816 -0.5804  0.7163 -0.4596
10567TIP3    H231663   3.381   7.289   5.691  0.7734 -0.4919  0.6615
10568TIP3   OH231664   0.565   4.517   0.247  0.0951 -0.0814 -0.3791
10568TIP3    H131665   0.481   4.543   0.208 -1.4323 -1.8867  1.5730
10568TIP3    H231666   0.614   4.478   0.175 -0.4493  1.6061 -1.7029
10569TIP3   OH231667   7.727   4.470   0.262 -0.4502  0.3713 -0.1751
10569TIP3    H131668   7.806   4.428   0.229 -1.2583 -2.3709  1.2100
10569TIP3    H231669   7.757   4.551   0.302  1.3214  0.5523 -1.8276
10570TIP3   OH231670   6.184   5.547   3.067 -0.1226 -0.1996  0.4701
10570TIP3    H131671   6.100   5.539   3.023 -0.2236 -1.3164  0.8661
10570TIP3    H231672   6.182   5.634   3.107 -1.6365 -0.7432  1.6096
10571TIP3   OH231673   3.508   5.917   5.329  0.1000  0.0492 -0.2551
10571TIP3    H131674   3.417   5.893   5.346  0.4488  0.3719  2.2938
10571TIP3    H231675   3.524   5.992   5.387  2.1852 -0.4574 -0.1422
10572TIP3   OH231676   1.779   5.572   4.342 -0.4517  0.3130  0.1121
10572TIP3    H131677   1.760   5.665   4.350  0.2192  0.3628  1.1812
10572TIP3    H231678   1.874   5.567   4.340 -0.4028 -0.5502  2.8310
10573TIP3   OH231679   5.841   0.042   6.330 -0.3175  0.0630 -0.2020
10573TIP3    H131680   5.909  -0.018   6.359 -0.7214  0.1915  1.0494
10573TIP3    H231681   5.873   0.077   6.247  0.0207 -1.6833 -0.8078
10574TIP3   OH231682   7.104   1.023   6.317 -0.6946 -0.4413 -0.3287
10574TIP3    H131683   7.105   1.004   6.224  0.3816  0.4470 -0.5098
10574TIP3    H231684   7.043   0.959   6.354 -0.0240 -1.7421 -1.4253
10575TIP3   OH231685   2.133   5.044   0.170 -0.5466 -0.0599 -0.1328
10575TIP3    H131686   2.049   5.035   0.125 -0.1675  2.1672 -1.3312
10575TIP3    H231687   2.196   5.001   0.112 -0.6349 -0.4701  0.0745
10576TIP3   OH231688   4.173   6.885   5.592 -0.3460  0.0527  0.1554
10576TIP3    H131689   4.130   6.944   5.654  1.0453  4.2471 -2.5635
10576TIP3    H231690   4.267   6.898   5.607  0.0065  0.5671 -2.2133
10577TIP3   OH231691   7.170   2.070   4.594 -0.0916 -0.3550  0.2047
10577TIP3    H131692   7.148   1.993   4.648  1.2287 -0.6386  0.3602
10577TIP3    H231693   7.259   2.093   4.621 -0.9661  2.1111  1.1797
10578TIP3   OH231694   5.669   6.373   3.639  0.4344 -0.1794  0.4613
10578TIP3    H131695   5.641   6.460   3.609  1.4300 -0.1217 -0.3344
10578TIP3    H231696   5.602   6.347   3.703 -1.1196  0.1766 -0.9956
10579TIP3   OH231697   3.786   5.850   5.296 -0.0167 -0.0604  0.0550
10579TIP3    H131698   3.784   5.925   5.356  0.3220 -0.5838  0.7230
10579TIP3    H231699   3.695   5.840   5.267  0.0829  1.1466 -0.7125
10580TIP3   OH231700   2.712   5.552   5.758  0.3835  0.1240 -0.2551
10580TIP3    H131701   2.778   5.590   5.701 -0.0213  1.7601  0.3494
10580TIP3    H231702   2.709   5.609   5.835 -0.5952 -0.8302  0.4449
10581TIP3   OH231703   1.243   4.727   1.350 -0.9057  0.2157  0.2336
10581TIP3    H131704   1.168   4.776   1.315 -0.5822  0.1959 -0.4914
10581TIP3    H231705   1.317   4.787   1.340 -0.9196  0.4550  1.4841
10582TIP3   OH231706   2.649   3.158   1.419  0.3562  0.2515  0.5364
10582TIP3    H131707   2.677   3.136   1.330  0.5776 -0.0060  0.6692
10582TIP3    H231708   2.622   3.075   1.458  1.7265  0.1107  1.2185
10583TIP3   OH231709   1.547   2.272   0.039 -0.0760 -0.7565  0.1511
10583TIP3    H131710   1.597   2.318   0.106 -1.6355  2.0627 -0.5253
10583TIP3    H231711   1.606   2.267  -0.036 -0.3609  1.6264 -0.2945
10584TIP3   OH231712   3.500   6.446   4.310 -0.0899  0.2220 -0.7684
10584TIP3    H131713   3.567   6.402   4.258 -0.9965 -1.2493 -0.6946
10584TIP3    H231714   3.537   6.533   4.326  1.0129  0.0622 -2.2790
10585TIP3   OH231715   4.452   6.871   3.849 -0.0671 -0.1354  0.5725
10585TIP3    H131716   4.424   6.863   3.940  1.6992  0.0960  1.1673
10585TIP3    H231717   4.530   6.814   3.843 -0.0890 -0.0415 -0.7481
10586TIP3   OH231718   6.117   4.742   3.060 -0.1826 -0.0754  0.4142
10586TIP3    H131719   6.075   4.775   2.980  0.3929  0.7119  0.4373
10586TIP3    H231720   6.159   4.660   3.033 -1.3726 -0.6655  0.2918
10587TIP3   OH231721   1.024   3.655   0.685 -0.5074  0.2832  0.0416
10587TIP3    H131722   1.056   3.572   0.720 -0.9108  0.1804  0.1664
10587TIP3    H231723   1.018   3.640   0.590  1.5743  0.8923 -0.2117
10588TIP3   OH231724   3.164   6.792   5.032 -0.3531 -0.2111 -0.1169
10588TIP3    H131725   3.123   6.737   5.098  0.0326 -1.0232 -0.5471
10588TIP3    H231726   3.246   6.821   5.073 -0.1083 -0.7228 -0.2376
10589TIP3   OH231727   3.022   6.748   5.634  0.0228  0.6225 -0.1409
10589TIP3    H131728   3.068   6.831   5.644  2.0434 -0.5696  0.9100
10589TIP3    H231729   2.993   6.725   5.722  0.9091 -0.5493 -0.1331
10590TIP3   OH231730   2.690   4.793   5.794 -0.1331 -0.1732 -0.3318
10590TIP3    H131731   2.750   4.787   5.868 -0.7844  1.1945  0.3276
10590TIP3    H231732   2.738   4.754   5.721  2.4964  2.9740 -0.3679
10591TIP3   OH231733   6.140   0.820   5.898  0.7455 -0.2272  0.2761
10591TIP3    H131734   6.188   0.767   5.834 -0.9897  0.2209 -1.4414
10591TIP3    H231735   6.117   0.759   5.968  0.0014 -1.4203 -0.9990
10592TIP3   OH231736   3.610   7.039   5.038 -0.2761 -0.4098 -0.2098
10592TIP3    H131737   3.701   7.027   5.010 -0.5179 -2.0184 -0.3589
10592TIP3    H231738   3.608   7.127   5.076  1.1513 -0.0451 -0.9454
10593TIP3   OH231739   4.428   5.505   5.789  0.0480  0.1893  0.0265
10593TIP3    H131740   4.452   5.570   5.854 -0.7880  0.0561  0.4809
10593TIP3    H231741   4.476   5.426   5.814  0.9727  0.5936 -0.4612
10594TIP3   OH231742   1.106   1.894   1.167  0.1303  0.1423  0.6944
10594TIP3    H131743   1.014   1.890   1.195  0.2632 -1.5381  0.9285
10594TIP3    H231744   1.115   1.822   1.105  0.9276  1.2458 -0.4887
10595TIP3   OH231745   6.722   2.675   0.236 -0.1380 -0.1854 -0.3071
10595TIP3    H131746   6.797   2.615   0.229 -0.8710 -1.0283 -1.2293
10595TIP3    H231747   6.749   2.741   0.298  1.7217  0.0154 -1.2969
10596TIP3   OH231748   2.403   2.286   0.098 -0.6266 -0.5962  0.5196
10596TIP3    H131749   2.438   2.199   0.080  1.8995  0.4296  0.2765
10596TIP3    H231750   2.440   2.341   0.030 -4.2680  0.2468 -0.8751
10597TIP3   OH231751   5.521   6.164   5.228 -0.6682 -0.4542  0.7809
10597TIP3    H131752   5.485   6.120   5.150 -1.1305  0.3666  0.5155
10597TIP3    H231753   5.613   6.178   5.207 -0.4612 -1.4936  0.9634
10598TIP3   OH231754   6.869   3.300   0.257  0.5950  0.4092 -0.0200
10598TIP3    H131755   6.816   3.290   0.178  0.3486  0.0797  0.1880
10598TIP3    H231756   6.820   3.361   0.312 -0.1802 -0.8490  0.7024
10599TIP3   OH231757   6.348   0.783   5.710  0.2548  0.5275 -0.2926
10599TIP3    H131758   6.395   0.861   5.742  0.5042  0.3569 -0.2381
10599TIP3    H231759   6.271   0.818   5.666  0.4766  0.8179 -0.4568
10600TIP3   OH231760   0.419   0.072   4.978 -0.6261  0.5460  0.7112
10600TIP3    H131761   0.402   0.136   4.910 -1.2647  1.4309  1.6928
10600TIP3    H231762   0.466   0.120   5.046  0.5030 -0.4538  0.6607
10601TIP3   OH231763   3.239   6.353   6.070 -0.1108  0.6417  0.3117
10601TIP3    H131764   3.268   6.423   6.129  1.2114  1.5000 -1.3091
10601TIP3    H231765   3.230   6.396   5.985 -3.1436 -0.3195  0.0884
10602TIP3   OH231766   0.613   3.161   0.578 -0.4665  0.1707  0.3097
10602TIP3    H131767   0.522   3.190   0.591 -0.3851  2.2313 -3.1570
10602TIP3    H231768   0.665   3.240   0.587  0.7647 -0.5810 -0.0749
10603TIP3   OH231769   7.631   3.141   0.238  0.0860 -0.1379 -0.8906
10603TIP3    H131770   7.676   3.226   0.244  0.3582 -0.4363  2.6058
10603TIP3    H231771   7.540   3.164   0.218 -0.3631  1.2420  2.3277
10604TIP3   OH231772   4.182   3.598   2.212 -0.5159 -0.1678 -0.0023
10604TIP3    H131773   4.090   3.591   2.187 -0.0031 -1.2453 -1.6708
10604TIP3    H231774   4.199   3.520   2.264 -0.6238  0.2349  0.6555
10605TIP3   OH231775   4.481   6.980   5.070  0.4847 -0.5416 -0.0722
10605TIP3    H131776   4.496   7.074   5.067  1.3619 -0.6694  0.3531
10605TIP3    H231777   4.551   6.943   5.017 -0.4022 -0.9013 -1.0136
10606TIP3   OH231778   6.201   1.292   5.609 -0.0997  0.0697 -0.0206
10606TIP3    H131779   6.177   1.357   5.675  0.7575  0.8627 -0.4705
10606TIP3    H231780   6.187   1.208   5.652 -3.1747  0.4711 -0.0947
10607TIP3   OH231781   2.702   5.052   5.157  0.3224 -0.1234 -0.0431
10607TIP3    H131782   2.609   5.059   5.136  0.2496 -0.0141  0.3078
10607TIP3    H231783   2.714   5.113   5.230  0.5062 -0.7179  0.4286
10608TIP3   OH231784   3.045   5.475   5.491 -0.0465  0.0361 -0.0280
10608TIP3    H131785   3.132   5.512   5.475 -0.3791  0.4110 -1.0266
10608TIP3    H231786   3.005   5.537   5.553  0.5217 -0.3405  0.7329
10609TIP3   OH231787   2.981   4.668   4.213  0.1923  0.3569  0.1329
10609TIP3    H131788   3.070   4.645   4.239  0.2819  0.8075  0.2236
10609TIP3    H231789   2.928   4.595   4.246  0.4456  0.3891  0.6249
10610TIP3   OH231790   4.728   6.881   4.213 -0.3022  0.6503 -0.5138
10610TIP3    H131791   4.766   6.874   4.300 -0.3815 -0.8440 -0.5942
10610TIP3    H231792   4.803   6.889   4.154 -0.0660 -2.4441 -0.6871
10611TIP3   OH231793   3.544   6.730   4.580 -0.0572 -0.2427 -0.6494
10611TIP3    H131794   3.530   6.772   4.665 -0.9026 -0.9458 -0.4394
10611TIP3    H231795   3.603   6.657   4.600  1.4350  0.8213 -1.0196
10612TIP3   OH231796   0.034   3.626   1.100 -0.7625 -0.2223  0.2821
10612TIP3    H131797   0.011   3.631   1.007  0.2710 -0.5383 -0.0038
10612TIP3    H231798   0.114   3.678   1.107 -0.6827 -0.4343  0.9489
10613TIP3   OH231799   7.597   1.500   5.646  0.0584 -0.0852  0.4230
10613TIP3    H131800   7.677   1.462   5.680  0.6294 -0.9206 -1.7540
10613TIP3    H231801   7.613   1.510   5.552 -1.5229  1.9257  0.3234
10614TIP3   OH231802   0.340   1.604   4.739 -0.0417 -0.4125  0.4978
10614TIP3    H131803   0.257   1.652   4.748 -0.8062 -1.7573  0.7370
10614TIP3    H231804   0.374   1.630   4.654  0.0137  1.2518  0.9981
10615TIP3   OH231805   5.046   0.307   4.185 -0.5285  0.6346  0.2334
10615TIP3    H131806   4.976   0.316   4.120  1.2567 -0.3447 -1.8924
10615TIP3    H231807   5.097   0.387   4.176  0.7055 -0.2412 -0.8243
10616TIP3   OH231808   5.943   6.098   5.504 -0.5470  0.8474  0.0091
10616TIP3    H131809   5.913   6.145   5.582 -0.0191  0.3661  0.5066
10616TIP3    H231810   6.010   6.155   5.465  0.1165  0.4999  0.6300
10617TIP3   OH231811   3.209   6.899   4.035 -0.3488  0.1568  0.5340
10617TIP3    H131812   3.158   6.857   3.967  0.3606  0.8147 -0.4144
10617TIP3    H231813   3.247   6.826   4.085  0.5865 -0.3487 -0.8775
10618TIP3   OH231814   4.309   6.932   3.450 -0.2886  0.4017  0.1368
10618TIP3    H131815   4.282   7.014   3.409 -2.3697 -0.0724  0.5316
10618TIP3    H231816   4.234   6.906   3.503  1.1934 -0.6203  1.7657
10619TIP3   OH231817   2.354   5.911   3.738 -0.5147 -0.1744 -0.0487
10619TIP3    H131818   2.375   5.829   3.782 -1.6093 -0.7574 -0.5783
10619TIP3    H231819   2.438   5.942   3.704  0.2626  0.0352  1.9753
10620TIP3   OH231820   3.003   6.759   3.934  0.6873 -0.2908 -0.0382
10620TIP3    H131821   2.927   6.723   3.979 -1.1068  3.2207 -0.1247
10620TIP3    H231822   3.041   6.684   3.888 -1.1493 -2.6319  2.1063
10621TIP3   OH231823   2.170   3.618   0.067 -0.1209  0.0913 -0.1891
10621TIP3    H131824   2.093   3.627   0.009  0.0770 -0.0688 -0.4786
10621TIP3    H231825   2.198   3.527   0.054 -1.0106 -0.4257  1.3344
10622TIP3   OH231826   7.723   1.801   5.547 -0.1706  0.1199 -0.3177
10622TIP3    H131827   7.740   1.708   5.539 -1.5258 -0.0600 -1.2314
10622TIP3    H231828   7.804   1.837   5.585  0.4167 -1.3797 -0.1117
10623TIP3   OH231829   0.839   0.387   4.779 -0.4696  0.2232 -0.3010
10623TIP3    H131830   0.753   0.394   4.822 -0.7687  0.0766 -0.8714
10623TIP3    H231831   0.824   0.328   4.705  0.2489 -0.2227 -0.0959
10624TIP3   OH231832   6.498   0.110   5.481  0.1925  0.2536 -0.1096
10624TIP3    H131833   6.520   0.157   5.400  1.4970 -0.6865 -0.3375
10624TIP3    H231834   6.404   0.096   5.476  0.0764  1.2461 -0.8971
10625TIP3   OH231835   5.217   5.678   3.753  0.2835  0.3149  0.6220
10625TIP3    H131836   5.173   5.732   3.687  0.7153  1.2980  1.1263
10625TIP3    H231837   5.208   5.588   3.720 -2.7124  0.4019  1.0625
10626TIP3   OH231838   3.959   6.451   5.690 -0.2378  0.5045  0.2852
10626TIP3    H131839   3.937   6.540   5.720  0.0247  1.8208 -3.1774
10626TIP3    H231840   3.876   6.416   5.658  0.6505  1.7050 -3.5598
10627TIP3   OH231841   5.917   5.534   2.170  0.3498 -0.9038  0.3795
10627TIP3    H131842   5.874   5.583   2.100 -0.9706  0.8971  2.3838
10627TIP3    H231843   5.999   5.580   2.184  0.9568 -1.7138 -0.4725
10628TIP3   OH231844   0.393   1.827   1.464  0.5356 -0.0888  0.2347
10628TIP3    H131845   0.302   1.795   1.466 -0.0085  1.3828 -0.2871
10628TIP3    H231846   0.428   1.804   1.550 -0.4882 -0.2669  0.6173
10629TIP3   OH231847   3.396   4.781   5.129  0.2338 -0.0428 -0.2562
10629TIP3    H131848   3.420   4.690   5.110  1.3522  0.5108 -1.6564
10629TIP3    H231849   3.420   4.793   5.221 -1.3688 -1.5894  0.4058
10630TIP3   OH231850   1.290   0.677   2.360 -0.2975  0.0897  0.0902
10630TIP3    H131851   1.337   0.745   2.407  0.0319  0.4205 -0.7141
10630TIP3    H231852   1.333   0.595   2.387  1.7422  0.4994 -1.7947
10631TIP3   OH231853   4.781   0.358   4.006  0.2544  0.2394 -0.1536
10631TIP3    H131854   4.708   0.301   4.033 -0.3578  0.4128 -1.3858
10631TIP3    H231855   4.767   0.439   4.053 -1.7768  1.1504 -2.1927
10632TIP3   OH231856   6.045   0.669   5.045  0.3896 -0.2160 -0.9735
10632TIP3    H131857   6.103   0.616   5.100  1.0080 -0.3528 -1.7525
10632TIP3    H231858   6.008   0.734   5.105 -1.0702 -2.0629  0.1815
10633TIP3   OH231859   2.197   6.042   5.301 -0.5958 -0.0282 -0.0288
10633TIP3    H131860   2.109   6.011   5.323 -1.3675  2.5321  0.6195
10633TIP3    H231861   2.183   6.103   5.228  0.9417 -1.4447 -1.5513
10634TIP3   OH231862   4.686   6.111   5.805 -0.1957  0.4646 -0.1585
10634TIP3    H131863   4.604   6.130   5.852 -0.0480  0.9869 -0.1110
10634TIP3    H231864   4.661   6.046   5.739 -0.5018  0.0786  0.3341
10635TIP3   OH231865   3.609   6.219   5.302  0.1315 -0.7989  0.1942
10635TIP3    H131866   3.564   6.166   5.236 -0.4387 -1.6608  1.2633
10635TIP3    H231867   3.567   6.196   5.385  1.2062 -0.1331  0.9457
10636TIP3   OH231868   5.509   6.336   4.225 -0.5236  0.5184  0.2143
10636TIP3    H131869   5.458   6.261   4.194  1.1343 -0.2873 -0.6711
10636TIP3    H231870   5.445   6.393   4.267 -1.5614 -2.2428  2.5650
10637TIP3   OH231871   1.607   6.902   5.602  0.0692  1.0683  0.3930
10637TIP3    H131872   1.673   6.901   5.671 -0.6302 -0.7110  1.0631
10637TIP3    H231873   1.530   6.943   5.643 -0.8258 -1.3068  1.1616
10638TIP3   OH231874   5.111   6.239   5.334 -1.1581 -0.3419  0.3277
10638TIP3    H131875   5.030   6.205   5.371 -1.2717 -0.6175 -0.1762
10638TIP3    H231876   5.119   6.327   5.371 -1.5671 -0.4012  0.5563
10639TIP3   OH231877   5.299   5.134   4.248 -0.0659  0.3286 -0.1193
10639TIP3    H131878   5.303   5.096   4.161 -0.4588  0.9100 -0.3942
10639TIP3    H231879   5.373   5.194   4.252 -0.3896  0.7458 -0.2713
10640TIP3   OH231880   3.398   6.345   4.851  0.0828 -0.5023  0.3372
10640TIP3    H131881   3.443   6.346   4.767 -2.0061 -1.0846 -0.8314
10640TIP3    H231882   3.459   6.386   4.912  1.3804  0.4832 -1.5864
10641TIP3   OH231883   1.546   6.235   6.194  0.5777 -0.2828  0.5900
10641TIP3    H131884   1.452   6.219   6.202  0.5450  0.2077  1.1613
10641TIP3    H231885   1.584   6.198   6.274  0.8625 -0.3790  0.4120
10642TIP3   OH231886   7.423   5.757   5.920  0.2966 -0.1879 -0.3544
10642TIP3    H131887   7.383   5.672   5.902 -0.2612 -0.0038  0.0084
10642TIP3    H231888   7.512   5.736   5.948 -0.6286 -0.8271  2.2663
10643TIP3   OH231889   3.242   6.242   5.592  0.1305  0.9713 -0.4729
10643TIP3    H131890   3.190   6.315   5.558 -1.0519  0.4311  0.1333
10643TIP3    H231891   3.197   6.216   5.672  1.5057  0.6540  0.2152
10644TIP3   OH231892   6.138   0.048   4.160  0.2675  0.0700 -0.0419
10644TIP3    H131893   6.170  -0.010   4.228 -0.9671  0.0156  0.5053
10644TIP3    H231894   6.044   0.055   4.176  0.4142  2.3463  0.0024
10645TIP3   OH231895   6.570   0.643   5.939 -0.2566 -0.6729  0.4275
10645TIP3    H131896   6.602   0.644   6.029  2.3094  1.1425 -0.4543
10645TIP3    H231897   6.517   0.722   5.932 -0.2765 -0.7006  0.2670
10646TIP3   OH231898   4.374   6.659   4.503 -0.3420 -0.2193  0.4322
10646TIP3    H131899   4.468   6.649   4.517 -0.2407 -0.7766 -0.6391
10646TIP3    H231900   4.335   6.631   4.586  0.4852  1.2026  1.3230
10647TIP3   OH231901   2.786   4.965   6.263 -0.0748 -0.1288 -1.1592
10647TIP3    H131902   2.796   4.892   6.203  0.7892 -1.1288  0.1798
10647TIP3    H231903   2.804   4.928   6.349  0.0733  1.5945 -0.4304
10648TIP3   OH231904   0.720   2.831   3.168  0.2683 -0.0856 -0.2490
10648TIP3    H131905   0.754   2.827   3.079  1.0303 -0.4753  0.0584
10648TIP3    H231906   0.783   2.781   3.221 -1.4103 -1.9052  0.1153
10649TIP3   OH231907   0.863   2.867   1.647 -0.3639 -0.0047 -0.5009
10649TIP3    H131908   0.798   2.936   1.661 -1.4037 -1.6520  3.7449
10649TIP3    H231909   0.823   2.808   1.584 -1.3894  0.9732 -0.7731
10650TIP3   OH231910   6.064   0.495   6.081 -0.4507  0.6299  1.0519
10650TIP3    H131911   6.146   0.504   6.131 -1.0127 -0.6030  2.2324
10650TIP3    H231912   6.011   0.436   6.134 -0.2854 -2.4341 -1.9946
10651TIP3   OH231913   3.735   5.733   3.461 -0.4719 -0.1089  0.8972
10651TIP3    H131914   3.814   5.686   3.488  0.3976  0.2531 -0.9002
10651TIP3    H231915   3.714   5.790   3.534  0.5380 -0.7145  1.6747
10652TIP3   OH231916   0.780   3.015   0.109  0.1725 -0.1414  0.1646
10652TIP3    H131917   0.712   2.949   0.097  0.5055 -0.3877 -0.3930
10652TIP3    H231918   0.818   2.994   0.194 -0.6278  0.1643  0.6039
10653TIP3   OH231919   6.463   1.088   5.371 -0.2118  0.8391 -0.2860
10653TIP3    H131920   6.434   1.114   5.284 -0.3917  2.1935  0.1738
10653TIP3    H231921   6.479   1.170   5.418  0.2406  0.1302  0.8433
10654TIP3   OH231922   3.351   6.891   5.915  0.0042  0.0061 -0.3609
10654TIP3    H131923   3.314   6.821   5.969 -0.9842  0.8810  0.1167
10654TIP3    H231924   3.374   6.959   5.977 -1.1248  1.0126 -1.0239
10655TIP3   OH231925   3.672   5.817   4.087  0.0748 -0.2718  0.3228
10655TIP3    H131926   3.632   5.902   4.073  1.5028  0.2422 -0.7719
10655TIP3    H231927   3.629   5.759   4.024  0.2969  0.0456 -0.1278
10656TIP3   OH231928   6.078   2.185   1.915 -0.1716 -0.4572 -0.0861
10656TIP3    H131929   6.172   2.167   1.910  0.0141  0.5864 -0.4554
10656TIP3    H231930   6.045   2.122   1.980  1.0280  0.1460  1.1188
10657TIP3   OH231931   4.680   6.068   3.694  0.0458 -0.3362 -0.1696
10657TIP3    H131932   4.649   6.083   3.783  0.2710 -1.1394  0.0472
10657TIP3    H231933   4.677   5.973   3.683 -0.2551 -0.2250 -1.1177
10658TIP3   OH231934   4.097   4.895   5.253 -0.6927 -0.3860 -0.1168
10658TIP3    H131935   4.187   4.890   5.222 -1.1562 -1.7569 -1.2636
10658TIP3    H231936   4.089   4.985   5.286  0.6129  0.2693 -1.4859
10659TIP3   OH231937   2.678   6.587   4.804 -0.3367 -0.4586 -0.4269
10659TIP3    H131938   2.681   6.545   4.890 -2.6828 -0.9857 -0.5715
10659TIP3    H231939   2.769   6.587   4.774  0.5774  0.1052  2.2138
10660TIP3   OH231940   0.937   1.977   0.599  0.0119 -0.6867 -0.2721
10660TIP3    H131941   0.911   2.050   0.542  1.4071  0.1870  0.1782
10660TIP3    H231942   0.863   1.964   0.658 -0.1727  0.4913 -0.2419
10661TIP3   OH231943   2.159   3.233   0.642  0.8508 -0.1990  0.4350
10661TIP3    H131944   2.246   3.218   0.679  0.5542 -0.4745  1.0406
10661TIP3    H231945   2.110   3.275   0.713  1.1115  1.9577 -0.6280
10662TIP3   OH231946   4.146   5.982   4.102 -0.5294  0.4058 -0.0383
10662TIP3    H131947   4.130   5.919   4.032 -0.4644  0.7865 -0.3989
10662TIP3    H231948   4.210   6.043   4.065  0.5991 -0.2178  0.8494
10663TIP3   OH231949   3.959   5.877   6.106 -0.0749  0.1004  0.3019
10663TIP3    H131950   4.041   5.845   6.069  1.8167  1.0391  3.4879
10663TIP3    H231951   3.921   5.800   6.150 -0.1770  0.0195  0.0739
10664TIP3   OH231952   3.929   5.537   4.171  0.1249 -0.2747 -0.2393
10664TIP3    H131953   3.958   5.547   4.261 -1.7594  2.3120  0.1259
10664TIP3    H231954   3.871   5.461   4.172 -0.7560  0.4083  0.9482
10665TIP3   OH231955   6.140   1.508   5.866 -0.3082 -0.1926  0.2517
10665TIP3    H131956   6.117   1.582   5.922 -1.1286  0.2651 -0.6789
10665TIP3    H231957   6.217   1.537   5.818 -0.1356 -0.2556  0.4886
10666TIP3   OH231958   0.856   2.571   0.888  0.1135 -0.3324 -0.4333
10666TIP3    H131959   0.865   2.663   0.866 -1.3275 -0.2923 -0.9327
10666TIP3    H231960   0.842   2.570   0.983  1.7666 -0.1695 -0.1774
10667TIP3   OH231961   2.054   3.171   0.200  0.6313  0.3583  0.1864
10667TIP3    H131962   1.969   3.212   0.216  0.5121 -0.6539  2.2838
10667TIP3    H231963   2.033   3.085   0.164  0.7233 -0.5107  2.1906
10668TIP3   OH231964   3.556   6.657   5.718  0.2125  0.3733  0.2089
10668TIP3    H131965   3.547   6.603   5.796 -0.0904 -1.1235 -0.8379
10668TIP3    H231966   3.562   6.746   5.751  0.7833 -0.2998  1.9752
10669TIP3   OH231967   0.820   2.228   0.414  0.2312  0.3093 -0.7644
10669TIP3    H131968   0.897   2.283   0.405  0.9725 -0.5276  0.3294
10669TIP3    H231969   0.806   2.192   0.326  0.9621  0.6376 -1.0184
10670TIP3   OH231970   4.462   4.989   6.010  0.0300 -0.0670  0.5530
10670TIP3    H131971   4.394   4.921   6.016  0.1488 -0.2092  0.3312
10670TIP3    H231972   4.449   5.043   6.088 -0.7137  0.2552  0.2108
10671TIP3   OH231973   1.956   2.633   0.324  0.9003  0.2264  0.2811
10671TIP3    H131974   1.896   2.700   0.293 -0.1782 -1.0879 -0.5165
10671TIP3    H231975   1.962   2.647   0.418  0.9412  1.6300  0.0770
10672TIP3   OH231976   2.312   4.094   1.288 -0.4513  0.0045 -0.4655
10672TIP3    H131977   2.246   4.131   1.346 -0.7760  0.2064 -0.9655
10672TIP3    H231978   2.396   4.121   1.326 -0.6933  2.3512 -1.5514
10673TIP3   OH231979   3.147   6.488   5.522 -0.2729  0.1199  0.5147
10673TIP3    H131980   3.062   6.528   5.541 -1.0571 -0.8420 -0.8827
10673TIP3    H231981   3.208   6.561   5.521 -0.7140  0.6137  3.4582
10674TIP3   OH231982   1.542   1.176   3.143 -0.0621 -0.3473  0.3332
10674TIP3    H131983   1.460   1.129   3.128 -1.1243  0.6537  2.8077
10674TIP3    H231984   1.569   1.207   3.056 -3.6048  1.4572 -0.1938
10675TIP3   OH231985   2.011   3.033   0.489 -0.0999  0.3262  0.0078
10675TIP3    H131986   2.004   3.127   0.504  0.5131 -0.0493  2.7907
10675TIP3    H231987   2.103   3.019   0.467 -0.3807  0.4669 -1.3296
10676TIP3   OH231988   2.500   0.822   0.999 -0.1176 -0.1831  0.4172
10676TIP3    H131989   2.452   0.807   1.080  0.4080 -1.1683  0.5445
10676TIP3    H231990   2.572   0.880   1.024  0.3765 -0.9462  0.7666
10677TIP3   OH231991   7.134   1.421   4.505 -0.2813 -0.2301  0.0207
10677TIP3    H131992   7.097   1.333   4.517 -1.2153  0.2026  0.3797
10677TIP3    H231993   7.068   1.480   4.541  0.9356  0.5544  1.0206
10678TIP3   OH231994   7.727   0.476   4.305  0.1383  0.0564  0.5735
10678TIP3    H131995   7.668   0.547   4.329 -1.4642 -0.0990 -2.6775
10678TIP3    H231996   7.680   0.396   4.328 -0.0039 -0.0373 -0.0495
10679TIP3   OH231997   5.675   1.447   5.606  0.9189 -0.0111  0.1761
10679TIP3    H131998   5.598   1.489   5.567  1.2147  0.0888 -0.2939
10679TIP3    H231999   5.742   1.450   5.538  1.1269 -0.7314  0.3426
10680TIP3   OH232000   1.888   5.199   0.642 -0.1371  0.1301 -0.5978
10680TIP3    H132001   1.952   5.218   0.710  0.2913 -0.1934 -0.8998
10680TIP3    H232002   1.853   5.284   0.616 -2.4605  0.0474  2.0553
10681TIP3   OH232003   6.410   5.915   5.562  0.3215  0.1264 -0.1344
10681TIP3    H132004   6.483   5.975   5.573 -0.9103  1.6988 -0.3302
10681TIP3    H232005   6.425   5.873   5.477  0.7134  0.8328 -0.4140
10682TIP3   OH232006   4.177   5.775   5.509  0.0098 -0.0859  0.2496
10682TIP3    H132007   4.182   5.864   5.546  0.9731  0.5352 -1.3461
10682TIP3    H232008   4.131   5.786   5.426 -1.7878 -1.4190  1.0358
10683TIP3   OH232009   2.905   6.880   5.131 -0.2687 -0.2668  0.2783
10683TIP3    H132010   2.915   6.815   5.060 -0.0909  0.1017 -0.0337
10683TIP3    H232011   2.893   6.963   5.086 -0.2012 -0.0367  0.6857
10684TIP3   OH232012   5.080   5.256   4.943 -0.5209  0.1759 -0.4771
10684TIP3    H132013   5.079   5.351   4.928  0.8419 -0.0129 -1.7727
10684TIP3    H232014   5.070   5.218   4.856 -0.7204 -0.8864  0.0086
10685TIP3   OH232015   5.414   5.433   4.296 -0.0767 -0.3475 -0.3430
10685TIP3    H132016   5.332   5.417   4.249 -0.2838  1.5863 -0.6823
10685TIP3    H232017   5.410   5.374   4.372 -1.4358 -0.8043 -0.7612
10686TIP3   OH232018   4.472   5.120   6.238  0.1194  0.1051 -0.2194
10686TIP3    H132019   4.475   5.075   6.323  1.0542  1.1417  0.3083
10686TIP3    H232020   4.532   5.193   6.248 -0.2980  0.6372 -1.5601
10687TIP3   OH232021   2.016   3.434   1.281  0.1851 -0.7449 -0.0403
10687TIP3    H132022   1.988   3.525   1.276  0.2761 -0.6536  1.0692
10687TIP3    H232023   1.935   3.384   1.289  0.1575 -0.7379 -0.2680
10688TIP3   OH232024   5.710   5.363   4.424 -0.0006 -0.2461  0.0796
10688TIP3    H132025   5.638   5.301   4.438 -0.4562  0.5086  1.0792
10688TIP3    H232026   5.781   5.329   4.479 -0.4934  0.5269  1.1970
10689TIP3   OH232027   6.166   4.869   4.300  0.2616 -0.6977 -0.6982
10689TIP3    H132028   6.079   4.832   4.291  0.3621 -1.3133  0.8296
10689TIP3    H232029   6.164   4.948   4.246 -0.2901 -2.2828 -3.1075
10690TIP3   OH232030   1.334   2.938   0.696  0.3669  0.3688 -0.3369
10690TIP3    H132031   1.422   2.954   0.664 -0.3280  2.8784 -1.1127
10690TIP3    H232032   1.280   3.004   0.652 -1.5390  0.2610  1.7212
10691TIP3   OH232033   4.611   6.295   2.262 -0.8677  0.2011 -0.3399
10691TIP3    H132034   4.585   6.265   2.174  0.7060  0.7700 -1.0219
10691TIP3    H232035   4.555   6.371   2.279 -0.8508  0.3760 -1.0508
10692TIP3   OH232036   6.130   6.083   4.560  0.1227 -0.4046 -0.2482
10692TIP3    H132037   6.157   6.153   4.620  1.1287 -1.3586  0.4281
10692TIP3    H232038   6.049   6.116   4.520  0.7072  1.2371 -0.1192
10693TIP3   OH232039   1.553   2.455   2.458  0.4855 -0.3913 -0.0276
10693TIP3    H132040   1.468   2.412   2.468  0.6135 -0.6833 -0.2113
10693TIP3    H232041   1.537   2.546   2.486 -0.1509 -0.1587 -1.1290
10694TIP3   OH232042   2.202   0.586   0.350 -0.5429  0.3802  0.4906
10694TIP3    H132043   2.221   0.587   0.256 -2.3291 -0.3413  0.1012
10694TIP3    H232044   2.242   0.666   0.384  2.4755 -0.6952 -0.4030
10695TIP3   OH232045   5.763   0.137   5.196 -0.0760 -0.3179  0.2504
10695TIP3    H132046   5.824   0.207   5.218 -0.4173  0.0113  0.1458
10695TIP3    H232047   5.701   0.135   5.269  0.1837 -0.7984  0.4643
10696TIP3   OH232048   2.396   6.658   5.978  0.3621 -0.2551 -0.1288
10696TIP3    H132049   2.407   6.589   6.044  1.3212  0.1519  0.1419
10696TIP3    H232050   2.396   6.739   6.028  1.0590  0.0557 -0.6296
10697TIP3   OH232051   7.608   2.281   0.829 -0.2234  0.0105 -0.3443
10697TIP3    H132052   7.664   2.281   0.751  0.8195 -0.0151  0.3889
10697TIP3    H232053   7.669   2.268   0.902 -1.0724  1.0605  0.5647
10698TIP3   OH232054   4.479   7.248   5.167 -0.2250  0.3556 -0.1005
10698TIP3    H132055   4.525   7.292   5.238  0.6644  1.1385 -1.1613
10698TIP3    H232056   4.401   7.210   5.209  1.0769 -0.5249  1.5880
10699TIP3   OH232057   5.073   5.638   5.483 -0.3350 -0.4740  0.5438
10699TIP3    H132058   5.126   5.718   5.490 -0.3540 -0.4872  0.8373
10699TIP3    H232059   5.136   5.570   5.457 -0.4801 -0.1800 -0.6035
10700TIP3   OH232060   3.453   5.814   5.083 -0.1635  0.3047  0.5927
10700TIP3    H132061   3.378   5.868   5.057 -0.5729 -0.9304 -0.8808
10700TIP3    H232062   3.468   5.837   5.175 -0.7130  2.4491  0.1780
10701TIP3   OH232063   5.416   1.493   4.896  0.2499 -0.2722 -0.0111
10701TIP3    H132064   5.336   1.533   4.931 -0.5663 -1.2642 -0.7135
10701TIP3    H232065   5.385   1.426   4.836  1.6248 -0.3829 -0.6164
10702TIP3   OH232066   2.763   1.979   0.405 -0.2212 -0.1195  0.9512
10702TIP3    H132067   2.827   2.037   0.448 -2.4724  2.3746  1.0522
10702TIP3    H232068   2.802   1.959   0.320  0.2522  2.2069  0.6027
10703TIP3   OH232069   6.948   3.374   1.011 -0.1417 -0.5327  0.2250
10703TIP3    H132070   6.997   3.399   0.933  1.9689 -0.2949  1.5994
10703TIP3    H232071   6.891   3.303   0.982  0.5300 -0.3630 -1.5544
10704TIP3   OH232072   1.211   3.185   0.897 -0.0893  0.2066  0.3737
10704TIP3    H132073   1.269   3.150   0.964 -2.2026 -0.1947  2.0501
10704TIP3    H232074   1.122   3.169   0.931 -1.1892  0.8183 -2.0883
10705TIP3   OH232075   1.712   2.385   0.228  0.2608  0.0494  0.4672
10705TIP3    H132076   1.770   2.448   0.185 -0.5867  0.6466  0.1873
10705TIP3    H232077   1.656   2.439   0.283 -1.8039 -0.2491 -1.2940
10706TIP3   OH232078   4.085   6.229   5.793 -0.1093 -0.3961 -0.0765
10706TIP3    H132079   4.068   6.222   5.887 -2.1747 -0.8142 -0.4693
10706TIP3    H232080   4.032   6.303   5.765  0.7419 -0.0817 -0.8704
10707TIP3   OH232081   4.098   6.841   4.364  0.0012  0.2003 -0.1112
10707TIP3    H132082   4.032   6.908   4.345  0.4558  0.5879 -0.3092
10707TIP3    H232083   4.179   6.874   4.325  0.1441 -0.6345 -0.5266
10708TIP3   OH232084   6.898   1.388   4.963  0.1037 -0.0931 -0.4228
10708TIP3    H132085   6.913   1.417   5.053 -1.9223  0.0877 -0.1304
10708TIP3    H232086   6.914   1.293   4.965 -1.3764 -0.3381  0.4787
10709TIP3   OH232087   2.164   4.034   0.485 -0.6602  0.2654 -0.1923
10709TIP3    H132088   2.201   4.033   0.397 -1.1033  1.7305 -0.4049
10709TIP3    H232089   2.073   4.007   0.473 -0.2488 -1.3280  0.0725
10710TIP3   OH232090   1.006   3.737   0.225 -0.0998 -0.3878  0.5593
10710TIP3    H132091   1.082   3.683   0.201 -0.4608 -0.6928  0.0873
10710TIP3    H232092   0.997   3.798   0.152 -0.0905 -0.1177  0.7853
10711TIP3   OH232093   3.543   5.720   4.367  0.0238 -0.3465  0.2787
10711TIP3    H132094   3.467   5.667   4.341 -0.4367  0.3886  0.1197
10711TIP3    H232095   3.579   5.751   4.284 -0.1775  0.2387  0.4102
10712TIP3   OH232096   2.610   2.152   2.186 -0.6144 -0.2323  0.3877
10712TIP3    H132097   2.610   2.163   2.091  1.2365  2.9150  0.6894
10712TIP3    H232098   2.700   2.128   2.208 -1.2681 -1.9946  1.2758
10713TIP3   OH232099   5.552   2.100   4.463  0.3236 -0.3625  0.7776
10713TIP3    H132100   5.461   2.107   4.434  0.5818 -1.3423 -0.2661
10713TIP3    H232101   5.556   2.156   4.541 -1.2987 -0.7174  1.1322
10714TIP3   OH232102   6.742   1.156   5.170 -0.4539 -0.2220  0.0144
10714TIP3    H132103   6.789   1.089   5.220 -0.0164  0.8307  1.0450
10714TIP3    H232104   6.803   1.181   5.101 -0.1642 -0.0836  0.3168
10715TIP3   OH232105   0.089   1.658   6.037  0.1332  0.2580 -0.7612
10715TIP3    H132106   0.073   1.573   6.077 -1.0736  0.0070 -1.7642
10715TIP3    H232107   0.147   1.703   6.099 -0.9437 -0.4826  0.8317
10716TIP3   OH232108   3.293   4.669   5.606  0.5657 -0.1818  0.3470
10716TIP3    H132109   3.255   4.581   5.613  0.9515 -0.3959 -0.2613
10716TIP3    H232110   3.318   4.691   5.696 -1.1422  0.0386  0.7867
10717TIP3   OH232111   1.746   4.104   1.032  0.0977  0.4217  0.3308
10717TIP3    H132112   1.734   4.017   1.072  1.2889 -0.1008 -0.4208
10717TIP3    H232113   1.657   4.137   1.021 -0.3098  0.4201  3.0470
10718TIP3   OH232114   3.971   6.034   4.720  0.1377  0.0517  0.5339
10718TIP3    H132115   4.058   6.071   4.731 -0.3560  1.7249 -0.9164
10718TIP3    H232116   3.925   6.097   4.664 -1.2830 -1.8929 -0.5709
10719TIP3   OH232117   7.717   2.011   0.011  0.3694 -0.6979  0.0860
10719TIP3    H132118   7.653   2.044  -0.052  0.7619 -0.1121 -0.0165
10719TIP3    H232119   7.667   1.956   0.071  0.0126 -1.3405 -0.8025
10720TIP3   OH232120   0.866   1.898   0.349  0.1956  0.4348 -0.4803
10720TIP3    H132121   0.932   1.907   0.280  1.3270 -0.0220  0.5119
10720TIP3    H232122   0.915   1.912   0.430 -0.6171 -1.5168  0.3614
10721TIP3   OH232123   3.384   0.208   5.636  0.1295 -0.6611  0.1795
10721TIP3    H132124   3.319   0.166   5.581  1.0346 -0.7923 -0.8090
10721TIP3    H232125   3.464   0.159   5.621  0.6459 -0.0231  0.7868
10722TIP3   OH232126   7.665   2.987   0.840  0.6423  0.4500 -0.2421
10722TIP3    H132127   7.582   2.963   0.800  1.0314  0.0569 -0.8162
10722TIP3    H232128   7.660   3.082   0.851  1.4204  0.8929 -3.2865
10723TIP3   OH232129   3.433   6.016   3.837 -0.4903  0.4395 -0.7644
10723TIP3    H132130   3.424   6.111   3.834  0.2969  0.5462 -0.0208
10723TIP3    H232131   3.351   5.985   3.877 -0.4518  0.8668 -0.3497
10724TIP3   OH232132   2.649   6.736   3.988  0.9377  0.1182 -0.0755
10724TIP3    H132133   2.731   6.703   4.023  0.0309  0.0414  2.0179
10724TIP3    H232134   2.598   6.657   3.968  0.0744  0.1712  1.8059
10725TIP3   OH232135   2.049   2.248   1.102  0.5778  0.3987 -0.4715
10725TIP3    H132136   2.048   2.240   1.197  0.0805 -1.5676 -0.6112
10725TIP3    H232137   1.957   2.267   1.079  0.1883 -1.7263 -0.7296
10726TIP3   OH232138   5.369   6.686   3.915 -0.1845 -0.1774  0.6554
10726TIP3    H132139   5.445   6.634   3.940 -1.8302 -1.3268  3.4971
10726TIP3    H232140   5.303   6.621   3.888 -0.8382  0.6924  0.1258
10727TIP3   OH232141   7.005   0.170   4.044  0.0810 -0.5538  0.0114
10727TIP3    H132142   7.025   0.162   4.137 -0.8413  1.3091  0.3793
10727TIP3    H232143   7.086   0.204   4.005  0.3443 -0.9794  0.1807
10728TIP3   OH232144   4.007   6.010   3.457  0.1747  0.0141  0.0150
10728TIP3    H132145   3.914   6.029   3.442 -0.0015  0.9762  2.1971
10728TIP3    H232146   4.035   5.968   3.376 -2.4142 -1.2791 -0.2716
10729TIP3   OH232147   5.585   6.220   3.067 -0.1042 -0.7344 -0.3966
10729TIP3    H132148   5.637   6.149   3.104  0.3950 -0.4980 -0.6265
10729TIP3    H232149   5.634   6.246   2.989 -0.5135 -0.4322 -0.5513
10730TIP3   OH232150   7.570   1.947   0.735  0.4193 -0.2447  0.1730
10730TIP3    H132151   7.657   1.949   0.773  0.9776 -1.5445 -1.0177
10730TIP3    H232152   7.513   1.917   0.806  1.0669 -0.1996  0.7092
10731TIP3   OH232153   5.107   0.038   3.703  0.0048 -0.2677  0.3412
10731TIP3    H132154   5.103  -0.030   3.636 -1.4240  0.3672 -0.2531
10731TIP3    H232155   5.063  -0.000   3.779 -1.7209  0.3197 -0.3264
10732TIP3   OH232156   2.243   0.096   0.771  0.1184  0.0204  0.1967
10732TIP3    H132157   2.225   0.013   0.816  0.7669  1.3243  2.9239
10732TIP3    H232158   2.327   0.125   0.805  0.0895  1.6309 -1.0256
10733TIP3   OH232159   7.040   7.248   4.553  0.1359  0.3470  0.0547
10733TIP3    H132160   7.004   7.325   4.510  1.1241  0.0132 -1.4137
10733TIP3    H232161   7.095   7.207   4.486 -0.6614 -1.8209  0.6839
10734TIP3   OH232162   7.319   5.760   6.183  0.1192 -0.1434  0.0263
10734TIP3    H132163   7.378   5.780   6.111  1.1159 -0.2427  0.8048
10734TIP3    H232164   7.369   5.701   6.240 -0.2251  0.8735  1.4116
10735TIP3   OH232165   3.993   6.324   3.940  0.0207  0.0454 -0.2606
10735TIP3    H132166   3.983   6.418   3.924 -0.6771  0.0168 -0.0278
10735TIP3    H232167   3.978   6.283   3.855 -2.4269 -0.0275  0.1730
10736TIP3   OH232168   0.628   7.043   6.083  0.2600  0.5442 -0.3506
10736TIP3    H132169   0.688   6.991   6.029  1.1590  1.4952 -0.2850
10736TIP3    H232170   0.549   7.051   6.030 -0.0075 -1.1393 -0.2390
10737TIP3   OH232171   0.176   0.171   3.958 -0.2909 -0.1715  0.0395
10737TIP3    H132172   0.140   0.240   4.013  0.1699  0.7077 -0.7388
10737TIP3    H232173   0.235   0.123   4.015 -0.6869  0.0252  0.6163
10738TIP3   OH232174   2.900   3.571   1.024 -0.0535  0.0702  0.3283
10738TIP3    H132175   2.939   3.656   1.004 -1.7320  0.7061 -0.3099
10738TIP3    H232176   2.845   3.551   0.948  0.4235 -1.6591  0.4073
10739TIP3   OH232177   6.771   4.750   4.721  0.5712  0.2093 -0.5548
10739TIP3    H132178   6.850   4.799   4.743 -0.8119  2.0493  0.3897
10739TIP3    H232179   6.763   4.686   4.792  1.6808 -0.6171 -1.1374
10740TIP3   OH232180   7.003   6.788   3.961 -0.2930 -0.0796  0.5040
10740TIP3    H132181   6.983   6.709   3.912  0.0457  0.2018 -0.0941
10740TIP3    H232182   6.929   6.798   4.022 -1.6356  0.5708 -1.2045
10741TIP3   OH232183   6.086   4.488   4.785  0.2846  0.0097  0.2417
10741TIP3    H132184   6.169   4.495   4.832  0.6188 -1.9535 -0.0356
10741TIP3    H232185   6.040   4.416   4.828 -0.7067  0.2076 -0.4759
10742TIP3   OH232186   6.452   5.253   3.596 -0.0703 -0.1561  0.0539
10742TIP3    H132187   6.492   5.186   3.540  2.0991 -0.2492  1.6536
10742TIP3    H232188   6.517   5.324   3.599 -0.8420  0.5217  1.1855
10743TIP3   OH232189   6.519   0.324   3.856  0.7080 -0.4157 -0.1417
10743TIP3    H132190   6.611   0.349   3.857  0.1822  1.6225  0.5955
10743TIP3    H232191   6.512   0.257   3.924  1.1696  1.3624  1.7188
10744TIP3   OH232192   7.046   5.482   4.123 -0.1402  0.1851  0.6404
10744TIP3    H132193   7.101   5.428   4.066 -0.2236  2.0276 -1.2535
10744TIP3    H232194   6.976   5.423   4.152 -0.4697 -0.6513 -1.7230
10745TIP3   OH232195   3.636   3.314   0.919 -0.3576  0.2845  0.3880
10745TIP3    H132196   3.554   3.354   0.892  0.1290  0.9719 -0.1056
10745TIP3    H232197   3.661   3.361   0.999 -0.6173 -0.1611  0.7333
10746TIP3   OH232198   1.551   4.322   4.588 -0.6313 -0.5700 -0.5859
10746TIP3    H132199   1.478   4.289   4.535 -1.0594 -1.0975  0.3187
10746TIP3    H232200   1.556   4.262   4.662  0.1152  0.0206 -0.1502
10747TIP3   OH232201   3.757   5.326   5.559 -0.3847 -0.6560  0.0636
10747TIP3    H132202   3.707   5.279   5.625 -1.9642 -1.7108 -1.8520
10747TIP3    H232203   3.802   5.258   5.510  0.5275  0.1019 -0.1801
10748TIP3   OH232204   4.703   6.673   3.822  0.1202 -0.0832 -0.0099
10748TIP3    H132205   4.672   6.583   3.806  0.6373 -0.4125  0.8093
10748TIP3    H232206   4.720   6.708   3.735  2.2230 -1.6144 -0.2529
10749TIP3   OH232207   6.440   5.798   5.291 -0.3539 -0.2030  0.0687
10749TIP3    H132208   6.392   5.717   5.272  1.2052 -1.0060 -0.5524
10749TIP3    H232209   6.382   5.868   5.261 -1.1971 -1.1422 -0.5320
10750TIP3   OH232210   3.446   3.019   0.482  0.2269  0.2543  0.7392
10750TIP3    H132211   3.504   2.967   0.537 -0.0702 -0.1340  0.6913
10750TIP3    H232212   3.455   2.980   0.394 -2.7496 -2.1133  1.3960
10751TIP3   OH232213   0.905   7.241   3.882 -0.1648 -0.1072 -0.6564
10751TIP3    H132214   0.873   7.289   3.806 -0.4459 -1.9121 -1.6898
10751TIP3    H232215   0.848   7.269   3.954 -1.5324 -0.3059 -1.6415
10752TIP3   OH232216   5.474   7.278   4.479  0.1343  0.0007 -0.3428
10752TIP3    H132217   5.426   7.196   4.489 -2.0448  1.2508 -0.3225
10752TIP3    H232218   5.541   7.259   4.414 -0.8802 -1.5752 -0.9520
10753TIP3   OH232219   5.488   6.621   5.018 -0.0757  0.4321 -0.2934
10753TIP3    H132220   5.417   6.651   4.961 -0.1265  1.4950  0.3031
10753TIP3    H232221   5.446   6.607   5.103 -0.1294 -1.7748 -0.6579
10754TIP3   OH232222   0.705   0.438   5.255  0.3832  0.3796  0.0486
10754TIP3    H132223   0.774   0.443   5.189  1.2651  0.8598  1.0010
10754TIP3    H232224   0.644   0.374   5.220  1.9883 -1.0619 -0.1653
10755TIP3   OH232225   0.763   0.193   4.603 -0.1699 -0.1795  0.3648
10755TIP3    H132226   0.758   0.178   4.508  1.0302 -0.5611  0.3585
10755TIP3    H232227   0.748   0.107   4.641  2.2434 -0.5897  0.4389
10756TIP3   OH232228   6.954   0.716   4.962  0.4557  0.3657 -0.2256
10756TIP3    H132229   6.892   0.741   5.030  1.4527  0.6226  0.6128
10756TIP3    H232230   6.910   0.647   4.914 -0.5030  0.5861  0.3165
10757TIP3   OH232231   6.528   6.228   3.645  0.0114 -0.4221 -0.2380
10757TIP3    H132232   6.615   6.189   3.648  0.5952  0.8271 -0.5557
10757TIP3    H232233   6.476   6.178   3.707  1.0137 -1.0515  0.0896
10758TIP3   OH232234   4.425   7.099   3.675 -0.5384  0.7619 -0.0081
10758TIP3    H132235   4.397   7.008   3.676  0.2994  0.4895 -1.1738
10758TIP3    H232236   4.393   7.134   3.759 -1.0211 -0.5376  0.3683
10759TIP3   OH232237   7.238  -0.013   4.774 -0.2357 -0.0706  0.2447
10759TIP3    H132238   7.239  -0.036   4.681 -0.1067 -1.0627  0.4891
10759TIP3    H232239   7.165   0.049   4.782 -0.9462 -0.8292 -0.3189
10760TIP3   OH232240   1.095   0.676   5.112  0.1610 -0.2934 -0.4874
10760TIP3    H132241   1.161   0.660   5.179  1.6119 -0.0683 -1.8255
10760TIP3    H232242   1.125   0.756   5.067 -1.1803 -0.0133 -0.9060
10761TIP3   OH232243   5.918   5.935   3.203  0.3407 -0.1989 -0.0655
10761TIP3    H132244   5.962   6.003   3.254  2.1239  0.1714 -2.0100
10761TIP3    H232245   5.825   5.950   3.218  0.7460  1.9625  0.4657
10762TIP3   OH232246   7.083   4.067   5.801  0.2925  0.0670  0.0349
10762TIP3    H132247   7.103   3.998   5.739  1.9194 -0.1586  0.7942
10762TIP3    H232248   7.112   4.033   5.886  0.4865  1.4020  0.5232
10763TIP3   OH232249   2.455   5.860   5.057 -0.2875  0.2966  0.5448
10763TIP3    H132250   2.400   5.795   5.013 -0.5350  1.1143 -0.3449
10763TIP3    H232251   2.398   5.936   5.069  0.4446  0.8969  0.2544
10764TIP3   OH232252   4.055   7.159   3.219 -0.1888  0.2167  0.0029
10764TIP3    H132253   4.031   7.140   3.128 -1.9500  1.4831  0.1716
10764TIP3    H232254   4.129   7.219   3.213  3.5116 -4.0970 -0.5373
10765TIP3   OH232255   4.795   7.247   4.561 -0.9040 -0.3616 -0.0167
10765TIP3    H132256   4.874   7.299   4.575 -0.6562 -0.9832  1.0030
10765TIP3    H232257   4.768   7.267   4.471  0.9920 -0.9154 -0.7360
10766TIP3   OH232258   6.294   6.079   3.893  0.0297  0.0203 -0.4582
10766TIP3    H132259   6.290   6.163   3.846  1.4195  0.1698 -0.3242
10766TIP3    H232260   6.229   6.088   3.963 -0.1431  0.8150 -0.7149
10767TIP3   OH232261   2.888   6.340   0.258  0.2986  0.3277 -0.0303
10767TIP3    H132262   2.885   6.250   0.289  1.0983  0.5029  0.5845
10767TIP3    H232263   2.827   6.343   0.185 -1.3637 -0.1891  1.3166
10768TIP3   OH232264   5.626   6.690   5.837  0.1768  0.0248  0.1464
10768TIP3    H132265   5.696   6.668   5.775  0.1041 -1.5693  0.5918
10768TIP3    H232266   5.631   6.785   5.846  3.2754 -0.1725  1.2939
10769TIP3   OH232267   1.256   2.640   4.130  0.0349 -0.4232  0.4537
10769TIP3    H132268   1.210   2.557   4.136  1.3344 -1.2384 -0.5125
10769TIP3    H232269   1.300   2.650   4.214 -2.6300  0.8412  1.7646
10770TIP3   OH232270   7.710   6.821   6.148  0.2958  0.3730 -0.1623
10770TIP3    H132271   7.722   6.854   6.059  0.8423 -1.9728 -0.9806
10770TIP3    H232272   7.798   6.797   6.177  0.1146  1.0928  1.0043
10771TIP3   OH232273   6.182   7.166   4.485 -0.2415  0.5189 -0.3796
10771TIP3    H132274   6.244   7.228   4.524 -0.2903  0.8972 -0.9044
10771TIP3    H232275   6.200   7.169   4.391 -0.5952  0.1203 -0.4608
10772TIP3   OH232276   5.435   6.055   4.999  0.1763  0.0043  0.1634
10772TIP3    H132277   5.514   6.015   4.962 -0.3613 -1.4248  0.5379
10772TIP3    H232278   5.388   6.091   4.924  0.1428 -1.0099 -0.2994
10773TIP3   OH232279   7.049   6.896   4.696  0.3444  1.1822 -0.4073
10773TIP3    H132280   7.123   6.877   4.638  0.3778 -1.0345  0.2917
10773TIP3    H232281   6.977   6.844   4.661  0.0732  0.6633  0.8827
10774TIP3   OH232282   5.415   5.275   4.508 -0.4232  0.4877 -0.2853
10774TIP3    H132283   5.325   5.272   4.538 -0.6871 -0.5829 -1.1689
10774TIP3    H232284   5.467   5.242   4.582 -0.8855 -0.2663 -0.2960
10775TIP3   OH232285   3.106   4.058   0.492  0.2853  0.1700 -0.4753
10775TIP3    H132286   3.169   3.990   0.468 -0.5223 -0.6918 -0.2243
10775TIP3    H232287   3.047   4.064   0.417  0.2214  0.4337 -0.4055
10776TIP3   OH232288   2.343   0.205   5.008 -0.0297 -0.6469 -0.7798
10776TIP3    H132289   2.254   0.193   5.042  0.5665  1.2439  1.5040
10776TIP3    H232290   2.392   0.130   5.041 -0.0051  0.0034  0.6704
10777TIP3   OH232291   7.501   2.998   5.151  0.1361 -0.2412  0.0023
10777TIP3    H132292   7.479   2.956   5.067 -0.8669  0.2246  0.0308
10777TIP3    H232293   7.507   2.925   5.213 -3.4913 -0.2276  0.4709
10778TIP3   OH232294   0.600   0.413   4.526 -0.2765 -0.6979 -0.3346
10778TIP3    H132295   0.643   0.330   4.547 -0.3316 -0.6371  0.0181
10778TIP3    H232296   0.671   0.477   4.521 -0.6171  0.1839  3.9621
10779TIP3   OH232297   6.301   0.117   3.076 -0.2977 -0.0589  0.5028
10779TIP3    H132298   6.347   0.198   3.100 -1.3944  0.8393 -0.3765
10779TIP3    H232299   6.355   0.078   3.008  0.5863 -0.4206  1.3962
10780TIP3   OH232300   0.516   0.716   5.218  0.5129 -0.1003 -0.5346
10780TIP3    H132301   0.603   0.727   5.179  0.9096 -1.7981 -0.1996
10780TIP3    H232302   0.456   0.753   5.154  1.3362 -0.8706 -1.7836
10781TIP3   OH232303   5.861   7.213   1.226 -0.4669  0.0290 -0.9607
10781TIP3    H132304   5.801   7.166   1.284 -1.6294  0.6856 -1.6045
10781TIP3    H232305   5.880   7.151   1.155  0.8341 -0.7184  0.0258
10782TIP3   OH232306   7.301   4.389   5.141 -0.8469  0.5654 -0.3621
10782TIP3    H132307   7.257   4.408   5.224  1.6017  0.6238  0.9655
10782TIP3    H232308   7.326   4.297   5.147  0.0218  0.7720 -0.6902
10783TIP3   OH232309   0.338   0.332   4.708 -0.2601  0.4411 -0.2522
10783TIP3    H132310   0.384   0.324   4.624 -1.0541 -0.3733 -0.6203
10783TIP3    H232311   0.304   0.244   4.725  0.6719  0.3792  1.3815
10784TIP3   OH232312   4.095   4.808   5.743  0.2069  0.1581 -0.6978
10784TIP3    H132313   4.177   4.774   5.707 -0.1650 -0.4059 -1.0061
10784TIP3    H232314   4.037   4.733   5.746 -0.4818  0.6798 -0.9993
10785TIP3   OH232315   4.943   6.027   5.127 -0.1402 -0.3472 -0.2895
10785TIP3    H132316   5.028   5.982   5.132 -0.8163 -1.6402 -0.1481
10785TIP3    H232317   4.904   6.014   5.213  0.2099  1.6765  0.1878
10786TIP3   OH232318   0.897   0.382   5.070  0.3151 -0.2661  0.3462
10786TIP3    H132319   0.971   0.440   5.087 -1.0677  1.5519  0.3013
10786TIP3    H232320   0.891   0.378   4.974  0.5805 -0.7397  0.3446
10787TIP3   OH232321   1.254   0.299   4.314  0.8129  0.0755  0.2860
10787TIP3    H132322   1.284   0.208   4.308  0.0129 -0.3249  2.0668
10787TIP3    H232323   1.271   0.324   4.405  2.3694  2.2085 -0.5571
10788TIP3   OH232324   6.797   6.658   3.485 -0.1134  0.4894 -0.1356
10788TIP3    H132325   6.711   6.681   3.449  0.1667  1.3786 -0.2348
10788TIP3    H232326   6.795   6.562   3.491 -1.5872  0.5715  1.0646
10789TIP3   OH232327   4.253   5.137   3.067 -0.0877  0.0042 -0.2046
10789TIP3    H132328   4.342   5.166   3.045 -0.6017  0.9741 -1.0905
10789TIP3    H232329   4.248   5.146   3.162  0.3284  1.2623 -0.2897
10790TIP3   OH232330   5.228   6.002   5.175  0.5597  0.2879  0.0697
10790TIP3    H132331   5.309   6.015   5.126 -1.2986  1.0684 -2.8925
10790TIP3    H232332   5.217   6.083   5.225  1.3480  0.3934  0.0751
10791TIP3   OH232333   2.357   1.287   0.251 -0.1063 -0.0279 -0.3035
10791TIP3    H132334   2.437   1.318   0.295 -0.2113 -0.4445  0.1846
10791TIP3    H232335   2.387   1.254   0.167  0.5279 -2.0566  0.6925
10792TIP3   OH232336   6.711   6.787   6.196 -0.4499  0.9076 -0.4424
10792TIP3    H132337   6.806   6.776   6.201 -0.6489 -0.2764  0.8824
10792TIP3    H232338   6.678   6.701   6.171 -1.3349  0.7354  1.2566
10793TIP3   OH232339   2.937   0.991   2.485 -0.0241  0.0261  0.5129
10793TIP3    H132340   2.924   1.085   2.471 -1.6578 -0.3593 -0.7115
10793TIP3    H232341   3.028   0.984   2.513  0.4691  1.8705 -0.5015
10794TIP3   OH232342   5.971   6.885   6.144  0.3207  0.0345 -0.7739
10794TIP3    H132343   5.881   6.917   6.139  0.6967  1.1557 -0.5257
10794TIP3    H232344   6.019   6.940   6.082  0.6488 -1.2540 -1.6878
10795TIP3   OH232345   5.710   6.814   3.780 -0.0406  0.2024 -0.3911
10795TIP3    H132346   5.648   6.770   3.722 -1.2828 -0.1813  1.1911
10795TIP3    H232347   5.770   6.744   3.808 -1.4681 -0.3390  1.4067
10796TIP3   OH232348   7.124   6.093   5.136 -0.3126  0.1626 -0.6347
10796TIP3    H132349   7.125   6.066   5.228 -0.2223  0.5934 -0.5109
10796TIP3    H232350   7.209   6.135   5.122  0.3777 -1.4101 -1.3643
10797TIP3   OH232351   2.896   7.175   3.463  0.3707 -0.5692 -0.3141
10797TIP3    H132352   2.952   7.233   3.514 -0.4412  1.0165 -1.2118
10797TIP3    H232353   2.937   7.170   3.377  0.9737 -2.1332  0.0381
10798TIP3   OH232354   3.638   1.283   2.694  0.5967 -0.3553  0.3371
10798TIP3    H132355   3.628   1.341   2.619  0.1181 -1.4754 -0.4962
10798TIP3    H232356   3.549   1.252   2.712  0.6975 -0.0240  1.4266
10799TIP3   OH232357   2.265   2.406   1.754 -0.0963 -0.0217 -0.7261
10799TIP3    H132358   2.240   2.365   1.671 -1.6178  2.1156 -1.3346
10799TIP3    H232359   2.317   2.482   1.728  0.0853  0.2073  0.3135
10800TIP3   OH232360   7.288   6.792   4.528  0.1437  0.1423  0.0580
10800TIP3    H132361   7.377   6.770   4.498  0.2695 -1.6796  1.6466
10800TIP3    H232362   7.237   6.713   4.512 -0.2929 -0.1358  2.4977
10801TIP3   OH232363   5.329   7.040   4.455  0.4465 -0.4593  0.0182
10801TIP3    H132364   5.389   7.039   4.380  0.8264 -1.5044  0.3222
10801TIP3    H232365   5.245   7.013   4.418  0.7628 -1.5247  0.0670
10802TIP3   OH232366   6.452   6.547   4.233 -0.1841 -0.2858 -0.1937
10802TIP3    H132367   6.532   6.499   4.212  0.8588  1.2925  0.0401
10802TIP3    H232368   6.443   6.539   4.328  0.8970  1.3112  0.0626
10803TIP3   OH232369   0.635   5.630   6.038 -0.1634  0.0464  0.2615
10803TIP3    H132370   0.702   5.588   5.984 -1.0819  0.6607 -1.3973
10803TIP3    H232371   0.619   5.714   5.995 -2.1330 -0.1731  0.5349
10804TIP3   OH232372   0.989   0.260   5.894 -0.0244  0.0092 -0.6420
10804TIP3    H132373   0.992   0.337   5.951  0.4508 -0.7884  0.4181
10804TIP3    H232374   0.966   0.295   5.807  0.2860  1.3496 -0.1866
10805TIP3   OH232375   7.121   7.045   5.890 -0.1964 -0.1869  0.1255
10805TIP3    H132376   7.140   7.095   5.969  0.2115  0.2264 -0.2288
10805TIP3    H232377   7.204   7.005   5.866  0.9721  3.6514 -2.8330
10806TIP3   OH232378   5.839   5.615   5.498 -0.2255  0.1904  0.5991
10806TIP3    H132379   5.929   5.588   5.516 -0.0759  1.4469  1.7425
10806TIP3    H232380   5.825   5.590   5.407  1.5737  0.7667  0.1419
10807TIP3   OH232381   7.459   0.898   4.465  0.3787  0.8543 -0.5198
10807TIP3    H132382   7.544   0.935   4.443  0.1637  0.8627 -1.3626
10807TIP3    H232383   7.475   0.844   4.543  1.5499 -0.6746 -1.7850
10808TIP3   OH232384   0.529   0.953   5.411  0.1240  0.1797  0.1854
10808TIP3    H132385   0.601   0.932   5.470  0.6642 -1.2408 -0.9494
10808TIP3    H232386   0.522   0.876   5.354 -1.5785  0.7602 -0.4158
10809TIP3   OH232387   4.241   2.014   1.341  0.2698 -0.1892  0.5503
10809TIP3    H132388   4.203   2.093   1.377 -1.2275 -0.2665 -0.8176
10809TIP3    H232389   4.292   1.977   1.413  0.6648  1.7951  1.3101
10810TIP3   OH232390   6.612   6.975   5.904  0.1018  0.1676  0.4335
10810TIP3    H132391   6.698   6.934   5.896 -0.6049 -1.4476  0.8877
10810TIP3    H232392   6.557   6.908   5.945 -1.3028  1.2797  0.4160
10811TIP3   OH232393   0.857   1.527   5.812 -0.7033  0.1521 -0.0476
10811TIP3    H132394   0.896   1.460   5.868 -0.2283  0.8673  0.4795
10811TIP3    H232395   0.845   1.602   5.870 -0.0182  0.9669 -0.9615
10812TIP3   OH232396   4.291   6.518   6.264 -0.2514  0.2147  0.0272
10812TIP3    H132397   4.204   6.500   6.231  0.1872  0.8682 -1.5190
10812TIP3    H232398   4.319   6.597   6.218  1.1388  0.0419  0.5419
10813TIP3   OH232399   4.938   5.792   4.141 -0.1268 -0.1154  0.0298
10813TIP3    H132400   4.929   5.806   4.235  2.3952  0.9733  0.1380
10813TIP3    H232401   4.923   5.878   4.102 -0.4162 -0.4090 -0.5204
10814TIP3   OH232402   6.631   5.834   4.535 -0.0158 -0.2689  0.0875
10814TIP3    H132403   6.680   5.768   4.487  0.6645 -0.1323  0.5834
10814TIP3    H232404   6.623   5.907   4.475 -1.1762 -0.9720 -0.6314
10815TIP3   OH232405   2.639   4.626   0.344 -0.2502 -0.4035 -0.5580
10815TIP3    H132406   2.715   4.640   0.400 -1.0955 -0.6448  0.6820
10815TIP3    H232407   2.628   4.709   0.297  0.1969 -0.0370 -0.0252
10816TIP3   OH232408   1.875   0.157   3.167  0.0888  0.4310  0.1954
10816TIP3    H132409   1.886   0.148   3.261  1.1057  0.8174  0.1110
10816TIP3    H232410   1.963   0.172   3.133  0.2202 -2.9098 -1.1776
10817TIP3   OH232411   0.573   7.245   2.616 -0.3074  0.3289 -0.8746
10817TIP3    H132412   0.493   7.193   2.609 -0.9319  1.2715 -0.9688
10817TIP3    H232413   0.567   7.287   2.702  0.1847  0.2322 -0.7949
10818TIP3   OH232414   5.147   5.955   2.828  0.2021 -0.0119 -0.3752
10818TIP3    H132415   5.172   5.865   2.808  2.2208  0.4922 -0.1818
10818TIP3    H232416   5.207   6.009   2.777  0.0177  1.2316  0.6908
10819TIP3   OH232417   4.405   6.911   5.345 -0.0026 -0.2813  0.2051
10819TIP3    H132418   4.420   6.947   5.257  1.0067 -0.8031  0.1434
10819TIP3    H232419   4.369   6.824   5.329  1.2328 -0.8197  0.2757
10820TIP3   OH232420   3.239   6.152   4.472  0.5369  0.3718  0.0706
10820TIP3    H132421   3.309   6.177   4.532  0.0182 -1.0636  1.3051
10820TIP3    H232422   3.273   6.076   4.425  0.9611  1.5187 -1.5289
10821TIP3   OH232423   0.382   1.116   2.224  0.1489 -0.1000 -0.6390
10821TIP3    H132424   0.334   1.136   2.144 -0.2230  1.5088 -0.0485
10821TIP3    H232425   0.315   1.084   2.285  0.3833 -1.0489 -0.8763
10822TIP3   OH232426   1.925   0.534   4.350 -0.2983 -0.3365 -0.2588
10822TIP3    H132427   1.951   0.460   4.404 -2.7668 -0.4398  0.8647
10822TIP3    H232428   1.932   0.610   4.408  0.6231  0.1005 -0.9221
10823TIP3   OH232429   4.358   2.804   0.570 -0.0788  0.1796 -0.3762
10823TIP3    H132430   4.302   2.784   0.646  0.0839 -1.5049 -0.6986
10823TIP3    H232431   4.301   2.856   0.512 -0.6297  0.3104  0.2675
10824TIP3   OH232432   4.721   1.025   0.089 -0.2657  0.3923  1.1852
10824TIP3    H132433   4.662   0.957   0.057 -1.5183  1.9607  0.0335
10824TIP3    H232434   4.714   1.020   0.184 -0.6193 -0.8369  1.1082
10825TIP3   OH232435   0.090   2.435   3.961 -0.1063  0.0643 -0.2726
10825TIP3    H132436   0.075   2.442   4.055  1.5929 -0.6761  0.0627
10825TIP3    H232437   0.042   2.356   3.935 -2.9236  1.8196 -0.5558
10826TIP3   OH232438   5.615   5.997   5.792 -0.1488 -0.0908  0.5154
10826TIP3    H132439   5.563   5.924   5.827  0.8019 -1.2314 -0.3662
10826TIP3    H232440   5.651   5.962   5.711  0.8223  1.1718  0.4007
10827TIP3   OH232441   4.245   6.191   3.935 -0.4377 -0.0675  0.1175
10827TIP3    H132442   4.312   6.246   3.894 -0.0508 -1.5521 -1.2869
10827TIP3    H232443   4.164   6.243   3.929  0.0782  0.6743 -0.4453
10828TIP3   OH232444   6.284   0.392   5.621 -0.3476  0.0457  0.2461
10828TIP3    H132445   6.295   0.394   5.716 -0.5798 -1.0151  0.3028
10828TIP3    H232446   6.363   0.434   5.587 -0.6991  1.2689  0.9284
10829TIP3   OH232447   6.519   6.120   3.220  0.1283 -0.0426 -0.1442
10829TIP3    H132448   6.570   6.156   3.147 -0.9374  1.8769  0.0091
10829TIP3    H232449   6.436   6.168   3.217 -1.5769 -2.8982 -0.2056
10830TIP3   OH232450   3.025   0.960   4.841  0.1605 -0.3811 -0.2913
10830TIP3    H132451   3.054   0.958   4.750  0.5338  0.8357 -0.2182
10830TIP3    H232452   2.986   1.047   4.851  0.2941 -0.4357  0.7547
10831TIP3   OH232453   6.197   6.179   3.201  0.7417  0.0407 -0.4351
10831TIP3    H132454   6.136   6.253   3.206 -0.5605 -0.9495 -1.3157
10831TIP3    H232455   6.219   6.159   3.292  0.5188  1.0258 -0.1578
10832TIP3   OH232456   3.470   1.882   0.342  0.2181 -0.3210 -0.4669
10832TIP3    H132457   3.499   1.962   0.298 -2.2496  1.7292  1.4366
10832TIP3    H232458   3.429   1.830   0.274  3.0906 -0.6166 -2.0115
10833TIP3   OH232459   5.013   6.601   5.632 -0.0532 -0.1829 -0.1381
10833TIP3    H132460   4.935   6.555   5.663 -0.8755  0.3606 -1.3560
10833TIP3    H232461   5.071   6.604   5.708 -0.7390 -1.6154  0.4633
10834TIP3   OH232462   6.222   0.033   5.538  0.0226  0.0176 -0.2673
10834TIP3    H132463   6.156   0.025   5.469 -0.7133  0.4651  0.3707
10834TIP3    H232464   6.172   0.052   5.617  0.9169  0.3818  0.2242
10835TIP3   OH232465   1.822   1.306   3.771 -0.0576 -0.1674  0.3995
10835TIP3    H132466   1.765   1.229   3.763  0.4493 -0.6748  1.6279
10835TIP3    H232467   1.908   1.270   3.789  0.4141  0.6612 -0.1625
10836TIP3   OH232468   5.663   6.946   6.349 -0.0658 -0.3630 -1.0512
10836TIP3    H132469   5.739   6.987   6.391 -1.3427  0.2934  0.6930
10836TIP3    H232470   5.612   7.020   6.314 -0.7885 -0.6589 -0.6466
10837TIP3   OH232471   0.458   5.409   6.076  0.2878  0.2170 -0.0084
10837TIP3    H132472   0.519   5.482   6.062  1.1554 -0.6150 -0.6567
10837TIP3    H232473   0.389   5.423   6.011  0.0574  0.8852  0.3818
10838TIP3   OH232474   6.492   5.501   4.836 -0.0758 -0.2140  0.0279
10838TIP3    H132475   6.524   5.590   4.822 -1.3606  0.3168  0.4766
10838TIP3    H232476   6.567   5.446   4.812  1.0777  1.0019  0.7201
10839TIP3   OH232477   3.867   6.512   4.836 -0.6049 -0.6915  0.5071
10839TIP3    H132478   3.903   6.484   4.920  0.4451 -0.9036 -0.0111
10839TIP3    H232479   3.817   6.591   4.856  1.4483  0.5109  0.9871
10840TIP3   OH232480   6.368   5.501   5.295  0.1680  0.0907  0.1670
10840TIP3    H132481   6.365   5.470   5.205  0.8440 -1.3677  0.6237
10840TIP3    H232482   6.281   5.480   5.330  0.6915 -1.5813  0.5379
10841TIP3   OH232483   5.359   6.894   2.215  0.7739  0.0147  0.0104
10841TIP3    H132484   5.286   6.909   2.275  1.5933 -0.2137  1.0885
10841TIP3    H232485   5.401   6.979   2.207 -0.2885  0.4080 -1.5331
10842TIP3   OH232486   5.061   6.204   4.364 -0.4597 -0.2291  0.2787
10842TIP3    H132487   5.144   6.197   4.318 -1.0026 -0.1938 -0.7295
10842TIP3    H232488   5.046   6.299   4.373 -0.7217 -0.2291 -0.1534
10843TIP3   OH232489   6.556   6.082   4.367  0.3502 -0.1547 -0.3756
10843TIP3    H132490   6.587   6.131   4.290 -0.1936 -0.5345 -0.8426
10843TIP3    H232491   6.464   6.065   4.348  0.5113 -1.2686 -0.1719
10844TIP3   OH232492   5.420   7.305   6.090  1.0923  0.0128 -0.1728
10844TIP3    H132493   5.444   7.347   6.007 -0.3082  1.2597  0.0378
10844TIP3    H232494   5.350   7.244   6.067  2.7829 -1.9010 -0.3941
10845TIP3   OH232495   6.526   3.846   2.792  0.3277  0.1995  0.4081
10845TIP3    H132496   6.608   3.800   2.771  1.5128  2.4162  0.0772
10845TIP3    H232497   6.525   3.848   2.888 -0.6060 -1.9970  0.4809
10846TIP3   OH232498   6.325   4.923   4.551 -0.5231  0.7563 -0.3595
10846TIP3    H132499   6.246   4.920   4.498 -0.0188  1.2507 -1.1510
10846TIP3    H232500   6.393   4.954   4.491  0.2606  0.3690  0.3168
10847TIP3   OH232501   2.111   1.104   4.932 -0.4544 -0.6205  0.3655
10847TIP3    H132502   2.093   1.058   5.014  1.5825 -0.3913  0.9717
10847TIP3    H232503   2.125   1.035   4.868 -1.2875 -0.8046  0.3737
10848TIP3   OH232504   3.118   1.686   0.440  0.0336 -0.2831  0.1997
10848TIP3    H132505   3.164   1.610   0.476 -0.7929 -0.1211  1.6213
10848TIP3    H232506   3.149   1.760   0.493  0.0936  0.2261 -0.5346
10849TIP3   OH232507   5.730   5.850   5.579 -0.0498  0.5690  0.0245
10849TIP3    H132508   5.771   5.766   5.557 -0.3723 -0.0744  1.8024
10849TIP3    H232509   5.799   5.915   5.562  0.4771 -0.1379 -0.5655
10850TIP3   OH232510   5.656   5.495   3.619  0.0798 -0.2591  0.1473
10850TIP3    H132511   5.707   5.431   3.667  1.7011  0.0084 -1.1684
10850TIP3    H232512   5.626   5.448   3.541 -0.3068  0.0451  0.1132
10851TIP3   OH232513   6.892   0.084   5.104 -0.2677 -0.0281  0.0003
10851TIP3    H132514   6.847   0.075   5.020  0.1831  0.8145 -0.3396
10851TIP3    H232515   6.947   0.006   5.109  1.3254  0.9507 -1.5055
10852TIP3   OH232516   1.404   3.267   5.791  0.1391 -0.0654 -0.4202
10852TIP3    H132517   1.466   3.223   5.850  0.0150  1.3288  0.7831
10852TIP3    H232518   1.453   3.277   5.709  1.2247  0.2500  0.2475
10853TIP3   OH232519   4.796   7.112   6.076  0.0550 -0.3072  0.2356
10853TIP3    H132520   4.775   7.101   5.983  0.3984  1.0093  0.0026
10853TIP3    H232521   4.732   7.057   6.121  0.9692 -2.3638 -0.8449
10854TIP3   OH232522   5.573   6.466   6.230  0.1643 -0.5104 -0.2144
10854TIP3    H132523   5.573   6.547   6.178 -1.0097 -1.1656 -1.2668
10854TIP3    H232524   5.548   6.494   6.318 -1.5065  0.1126 -0.8659
10855TIP3   OH232525   6.401   4.731   4.220 -0.2239 -0.3646  0.1524
10855TIP3    H132526   6.451   4.799   4.175  0.9535 -0.2077  1.6478
10855TIP3    H232527   6.322   4.777   4.249 -0.7860 -0.3609 -1.3320
10856TIP3   OH232528   7.164   0.052   3.804  0.6079  0.5445  0.1382
10856TIP3    H132529   7.128   0.056   3.716  0.3745  0.4215  0.2276
10856TIP3    H232530   7.188   0.143   3.824 -1.6818  1.0127  0.9123
10857TIP3   OH232531   4.566   6.164   4.879  0.2599 -0.1162 -0.0953
10857TIP3    H132532   4.530   6.199   4.797 -0.0738  0.0954  0.1405
10857TIP3    H232533   4.623   6.092   4.851 -3.1477 -2.8515 -0.2547
10858TIP3   OH232534   5.345   6.116   5.729  0.0148  0.3490 -0.3353
10858TIP3    H132535   5.400   6.104   5.806  0.4815 -0.1258 -0.7413
10858TIP3    H232536   5.404   6.103   5.655 -0.1382  2.1264 -0.7803
10859TIP3   OH232537   1.960   1.026   3.715 -0.1843 -0.1776  0.3033
10859TIP3    H132538   1.896   1.004   3.783  0.5066 -1.0641  0.6749
10859TIP3    H232539   2.044   1.020   3.759  0.3811 -2.2129 -0.9765
10860TIP3   OH232540   7.055   6.463   5.045 -0.1843  0.6053 -0.2552
10860TIP3    H132541   7.118   6.438   5.112 -1.1156 -1.0177  0.0690
10860TIP3    H232542   7.099   6.444   4.962 -0.7124 -1.8899 -0.0224
10861TIP3   OH232543   7.729   6.191   4.236 -0.1236 -0.2387 -0.5814
10861TIP3    H132544   7.765   6.248   4.304 -2.6469  1.6399 -0.7343
10861TIP3    H232545   7.665   6.136   4.282 -0.8427  0.0954 -1.1643
10862TIP3   OH232546  -0.010   1.091   6.332  0.0081  0.1570 -0.7426
10862TIP3    H132547  -0.021   0.997   6.343  2.7234 -0.2969 -1.6065
10862TIP3    H232548   0.084   1.104   6.325 -0.4159  2.7398 -2.4074
10863TIP3   OH232549   6.755   6.822   1.510  0.1026  0.6116 -0.1183
10863TIP3    H132550   6.698   6.786   1.442  0.9043  1.6539 -1.3762
10863TIP3    H232551   6.723   6.911   1.524  0.9183  0.9443 -0.2890
10864TIP3   OH232552   6.416   6.822   3.523  0.3960  0.2253 -0.3216
10864TIP3    H132553   6.375   6.739   3.549  1.6376 -0.2007  0.3114
10864TIP3    H232554   6.368   6.889   3.571  1.9133 -0.4623  2.2255
10865TIP3   OH232555   6.240   7.122   3.089  0.4359  0.0263 -0.4127
10865TIP3    H132556   6.247   7.068   3.010  1.1698  0.2364 -0.4911
10865TIP3    H232557   6.249   7.212   3.057  0.9342  0.1012 -0.0605
10866TIP3   OH232558   6.859   6.573   3.800  0.3394  0.0177  0.8561
10866TIP3    H132559   6.898   6.510   3.739  1.0464 -0.7363  2.0659
10866TIP3    H232560   6.870   6.658   3.757  1.0724 -0.4684  0.0595
10867TIP3   OH232561   5.729   6.678   4.903  0.3727  0.3404 -0.0448
10867TIP3    H132562   5.641   6.677   4.940  0.0973 -0.2283 -0.7148
10867TIP3    H232563   5.728   6.751   4.841  1.2772  2.2583  2.1031
10868TIP3   OH232564   1.878   5.507   2.995  0.0207  0.2226  0.6826
10868TIP3    H132565   1.961   5.478   2.956  0.3932  0.4823  1.2745
10868TIP3    H232566   1.867   5.451   3.072 -0.6787 -0.2463  0.2464
10869TIP3   OH232567   5.209   7.366   5.354 -0.2467  0.3412 -0.3617
10869TIP3    H132568   5.298   7.390   5.381 -1.3380  1.5529  2.3094
10869TIP3    H232569   5.192   7.282   5.398 -0.4694  0.1584 -0.7877
10870TIP3   OH232570   5.922   7.314   3.796 -0.4022 -0.3207  0.1398
10870TIP3    H132571   5.936   7.328   3.703 -1.4853 -0.6711 -0.0753
10870TIP3    H232572   5.912   7.220   3.806  0.3171 -0.3488  0.7026
10871TIP3   OH232573   0.622   6.718   2.125 -0.3150  0.5628  0.3990
10871TIP3    H132574   0.716   6.703   2.127 -0.4038  0.0109  0.4948
10871TIP3    H232575   0.592   6.672   2.047 -0.4367  1.1392  0.1061
10872TIP3   OH232576   7.586   6.486   4.350 -0.8233 -0.2078  0.3251
10872TIP3    H132577   7.505   6.479   4.298 -1.0425 -1.2859  0.7964
10872TIP3    H232578   7.574   6.564   4.403 -0.6754  0.8122 -1.1029
10873TIP3   OH232579   3.336   0.504   3.909 -0.1046  0.2323 -0.1152
10873TIP3    H132580   3.308   0.496   4.001  0.2727 -0.2181 -0.0388
10873TIP3    H232581   3.427   0.476   3.909 -0.4099 -0.7988 -0.8036
10874TIP3   OH232582   6.432   4.006   0.313  0.7938 -0.0313  0.2504
10874TIP3    H132583   6.491   3.972   0.246 -0.4953  1.3130 -1.6269
10874TIP3    H232584   6.449   3.953   0.391  1.5692 -2.3262 -1.4653
10875TIP3   OH232585   5.472   4.046   1.137 -0.1291  0.1617  0.6464
10875TIP3    H132586   5.454   4.123   1.190 -0.0722  0.1872  0.6292
10875TIP3    H232587   5.407   4.049   1.067  1.4134  1.5459 -0.7633
10876TIP3   OH232588   1.195   6.276   5.646  0.7229  0.6819  0.5269
10876TIP3    H132589   1.135   6.246   5.714  0.8533  0.2353  0.4482
10876TIP3    H232590   1.276   6.228   5.663  0.3334 -0.4588 -0.7564
10877TIP3   OH232591   5.620   3.390   1.132  0.2949  0.0796  0.0793
10877TIP3    H132592   5.527   3.369   1.130  0.5716 -1.1481 -0.6286
10877TIP3    H232593   5.628   3.459   1.198 -0.8796 -1.0651  1.4620
10878TIP3   OH232594   0.655   7.325   4.691 -0.0011 -0.1658 -0.0773
10878TIP3    H132595   0.559   7.324   4.692  0.0069 -0.5824  0.5426
10878TIP3    H232596   0.680   7.233   4.700  0.4665  0.0948  1.3517
10879TIP3   OH232597   6.590   3.365   2.745 -0.3615 -0.2129  0.1337
10879TIP3    H132598   6.643   3.382   2.667  0.9088 -1.8823  0.6073
10879TIP3    H232599   6.599   3.443   2.798  1.5085 -0.4232  0.1352
10880TIP3   OH232600   6.826   6.753   4.568 -0.7533 -0.6506 -0.0299
10880TIP3    H132601   6.762   6.761   4.639  0.1445 -0.2369  0.7469
10880TIP3    H232602   6.785   6.796   4.493 -1.2880 -0.1824  0.5238
10881TIP3   OH232603   6.468   0.580   5.527  0.3673 -0.4458 -0.2028
10881TIP3    H132604   6.562   0.594   5.515  0.4166 -0.8990 -0.3790
10881TIP3    H232605   6.441   0.649   5.587  0.8828 -0.5133  0.1140
10882TIP3   OH232606   1.536   4.531   0.842 -0.2692  0.1231  0.5268
10882TIP3    H132607   1.619   4.576   0.822 -0.6872  0.6065 -0.1496
10882TIP3    H232608   1.547   4.499   0.932  1.5199 -1.7844 -0.3330
10883TIP3   OH232609   7.311   2.029   1.497 -0.6100 -0.1832 -0.1144
10883TIP3    H132610   7.227   2.044   1.455 -0.8360 -0.1014  0.3569
10883TIP3    H232611   7.324   2.106   1.552 -1.0408 -0.9814  1.1271
10884TIP3   OH232612   4.848   2.341   6.079 -0.0291  0.5192  0.8081
10884TIP3    H132613   4.912   2.406   6.049  0.6657 -0.2853  0.5517
10884TIP3    H232614   4.891   2.296   6.151  0.1337 -0.8030 -0.1104
10885TIP3   OH232615   1.396   5.304   0.134  0.2379  0.6292  0.6520
10885TIP3    H132616   1.409   5.262   0.049 -0.1779 -2.0005  1.8489
10885TIP3    H232617   1.484   5.306   0.173  0.4718  2.0657  0.0840
10886TIP3   OH232618   4.945   0.495   5.146  0.0429 -0.2709  0.0369
10886TIP3    H132619   4.897   0.541   5.077 -0.2916 -0.7260 -0.0313
10886TIP3    H232620   4.905   0.408   5.150  2.0929 -1.3025 -1.3159
10887TIP3   OH232621   0.247   5.825   0.210  0.3636 -0.2548  0.1262
10887TIP3    H132622   0.193   5.868   0.276 -0.2214 -0.7511 -0.0320
10887TIP3    H232623   0.336   5.858   0.227  0.2880 -0.7197  1.4399
10888TIP3   OH232624   0.489   3.622   1.301  0.4258 -0.1757 -0.7546
10888TIP3    H132625   0.447   3.665   1.377  0.1076  0.4911 -1.2981
10888TIP3    H232626   0.568   3.673   1.286  0.0597  0.2183 -1.3879
10889TIP3   OH232627   6.526   1.703   4.119 -0.2577  0.3027  0.3547
10889TIP3    H132628   6.535   1.636   4.051 -2.7017  0.6030 -0.3030
10889TIP3    H232629   6.467   1.664   4.183  0.6753  0.6875  1.4520
10890TIP3   OH232630   0.407   2.859   1.394  0.2192  0.4269  0.0538
10890TIP3    H132631   0.347   2.923   1.355 -0.2885  0.6591  1.2071
10890TIP3    H232632   0.350   2.795   1.437  0.7333 -0.6665 -0.8530
10891TIP3   OH232633   0.691   5.481   0.887  0.2039  0.1987  0.6847
10891TIP3    H132634   0.692   5.557   0.828 -0.6928 -0.2211  0.1085
10891TIP3    H232635   0.729   5.410   0.835  1.3911  0.3406  1.3529
10892TIP3   OH232636   5.880   2.534   5.692 -0.1363 -0.0235  0.6428
10892TIP3    H132637   5.914   2.618   5.661  2.1671 -1.5992 -1.2683
10892TIP3    H232638   5.785   2.548   5.698  0.3783  3.3689  2.5985
10893TIP3   OH232639   0.986   6.110   1.254  0.1692  0.5464 -0.0568
10893TIP3    H132640   0.906   6.096   1.205 -0.4856  0.5607  0.9918
10893TIP3    H232641   0.967   6.184   1.312  1.2298  1.1283 -0.4379
10894TIP3   OH232642   5.260   0.541   6.262  0.5329  0.1869  0.0919
10894TIP3    H132643   5.308   0.557   6.181  0.3774 -2.1451 -0.5036
10894TIP3    H232644   5.168   0.536   6.235  0.3850  0.3993  0.5570
10895TIP3   OH232645   6.856   4.299   0.267  0.2644  0.0068 -0.2306
10895TIP3    H132646   6.905   4.241   0.326  1.1638  0.2107 -0.7735
10895TIP3    H232647   6.853   4.252   0.184  0.6529  0.5552 -0.5605
10896TIP3   OH232648   3.036   7.027   5.958 -0.5568  0.4422 -0.5317
10896TIP3    H132649   3.078   7.005   5.875 -0.5042 -1.6205 -0.0040
10896TIP3    H232650   2.943   7.017   5.941 -0.6160  1.1681 -0.6484
10897TIP3   OH232651   7.643   4.941   0.865  0.0761 -0.3764 -0.2896
10897TIP3    H132652   7.550   4.921   0.875 -0.2408  0.2965 -1.7603
10897TIP3    H232653   7.686   4.894   0.937 -1.4338 -0.3812  0.6255
10898TIP3   OH232654   3.216   0.916   5.745 -0.5428  0.0424  0.4346
10898TIP3    H132655   3.248   0.942   5.831 -0.5213 -3.0081  1.4184
10898TIP3    H232656   3.269   0.966   5.683  0.3769  1.2585  2.1722
10899TIP3   OH232657   5.138   1.832   6.393 -0.0845 -0.4251 -0.3002
10899TIP3    H132658   5.102   1.806   6.309  1.3390  0.0944 -1.0854
10899TIP3    H232659   5.225   1.867   6.373 -0.0589  0.4910  1.2750
10900TIP3   OH232660   4.584   0.759   6.264 -0.0802 -0.2186  0.2341
10900TIP3    H132661   4.638   0.822   6.215  1.8949 -2.2097 -0.2848
10900TIP3    H232662   4.549   0.701   6.196 -1.8724  0.3043  0.7033
10901TIP3   OH232663   4.212   0.845   1.235 -0.0374  0.3868 -0.0153
10901TIP3    H132664   4.239   0.925   1.191  0.4061  0.3623  0.2130
10901TIP3    H232665   4.246   0.775   1.179  1.1883  0.3510  0.7570
10902TIP3   OH232666   7.749   3.064   0.001 -0.4740 -0.4522  0.3500
10902TIP3    H132667   7.709   3.083   0.086 -1.3507 -2.1248  0.3420
10902TIP3    H232668   7.841   3.088   0.011 -0.8106  0.4294  1.4012
10903TIP3   OH232669   4.051   1.387   5.217 -0.1258 -0.2514 -0.2816
10903TIP3    H132670   4.070   1.428   5.133  0.3449 -1.6846 -0.8930
10903TIP3    H232671   3.956   1.375   5.216 -0.0299 -1.0208 -0.9765
10904TIP3   OH232672   6.699   1.203   5.836 -0.2053 -0.0450  0.6025
10904TIP3    H132673   6.681   1.291   5.869  0.8558  0.4821 -0.1885
10904TIP3    H232674   6.787   1.183   5.867  0.4009  0.0473 -0.9780
10905TIP3   OH232675   6.784   0.158   6.285 -0.2095 -0.3851 -0.4122
10905TIP3    H132676   6.778   0.195   6.197 -1.5496 -1.3919 -0.7565
10905TIP3    H232677   6.776   0.064   6.273 -1.6462 -0.4492  0.8891
10906TIP3   OH232678   3.710   1.500   4.508  0.5615  0.4183  0.4036
10906TIP3    H132679   3.698   1.417   4.462  1.5082  0.2903  0.3774
10906TIP3    H232680   3.685   1.566   4.444  0.3827  0.1716  0.2191
10907TIP3   OH232681   0.296   6.871   4.953  0.2407  0.0418  0.2193
10907TIP3    H132682   0.245   6.923   4.891  0.8043 -1.6923 -1.7633
10907TIP3    H232683   0.331   6.935   5.015 -0.1635  1.8480 -1.3744
10908TIP3   OH232684   3.349   1.499   5.387  0.2053 -0.5337 -0.0938
10908TIP3    H132685   3.399   1.455   5.318  1.4079  2.2021 -1.0370
10908TIP3    H232686   3.376   1.456   5.468  1.2451 -1.6198 -0.9982
10909TIP3   OH232687   0.473   6.048   6.015 -0.3941 -0.2805  0.5218
10909TIP3    H132688   0.403   5.997   6.057 -0.6272 -0.8277 -0.5245
10909TIP3    H232689   0.428   6.114   5.963 -0.1461 -0.7255 -0.2687
10910TIP3   OH232690   0.147   4.084   2.213  0.4582  0.2536 -0.3653
10910TIP3    H132691   0.106   3.998   2.224  1.7343 -0.2453  0.7094
10910TIP3    H232692   0.081   4.146   2.243  0.1766 -0.4907  0.5954
10911TIP3   OH232693   1.688   0.289   5.365  0.5000  0.6785  0.1916
10911TIP3    H132694   1.776   0.300   5.328  0.0957  0.7858 -0.7659
10911TIP3    H232695   1.655   0.209   5.324  0.2946  0.4392  0.8289
10912TIP3   OH232696   3.043   6.609   6.106 -0.1047  0.4471  0.1714
10912TIP3    H132697   3.137   6.631   6.109  0.1703 -0.8028  1.0427
10912TIP3    H232698   3.004   6.666   6.173  0.0460  0.9209 -0.1445
10913TIP3   OH232699   3.663   1.059   4.773 -0.1595  0.0576 -0.3619
10913TIP3    H132700   3.734   1.019   4.724 -0.5237 -0.2393 -0.6554
10913TIP3    H232701   3.597   1.081   4.707 -1.0188 -1.1145  0.0724
10914TIP3   OH232702   7.592   1.733   5.794 -0.0031  0.4739  0.2033
10914TIP3    H132703   7.643   1.798   5.745 -0.1331 -0.3689 -1.0639
10914TIP3    H232704   7.597   1.653   5.742 -2.1186  0.2042  0.3536
10915TIP3   OH232705   3.392   1.923   4.333 -0.3620 -0.5658 -0.3436
10915TIP3    H132706   3.464   1.961   4.383  1.2754 -3.8532 -0.0904
10915TIP3    H232707   3.343   1.871   4.397 -2.6280  1.0873 -0.6608
10916TIP3   OH232708   6.029   0.089   6.098  0.0927  0.6054 -0.4519
10916TIP3    H132709   6.024   0.175   6.056 -0.8852  0.1797 -1.2450
10916TIP3    H232710   5.965   0.036   6.050 -0.8703  0.0325  1.4447
10917TIP3   OH232711   2.801   6.926   6.086 -0.0921  0.3259  0.0129
10917TIP3    H132712   2.843   7.007   6.115 -0.8464  1.1268 -1.1037
10917TIP3    H232713   2.826   6.861   6.152 -0.1932  1.6731  1.3967
10918TIP3   OH232714   5.236   6.277   0.980 -0.2172 -0.4556 -0.2341
10918TIP3    H132715   5.283   6.354   0.947 -0.1361 -0.1877  0.4961
10918TIP3    H232716   5.189   6.309   1.056 -1.6962 -0.6962 -1.0313
10919TIP3   OH232717   6.328   0.876   6.280  0.4601 -0.4080 -0.2867
10919TIP3    H132718   6.302   0.968   6.271  0.4658 -0.3947 -0.1731
10919TIP3    H232719   6.379   0.874   6.361  1.2591 -0.3358 -0.7883
10920TIP3   OH232720   7.004   2.439   5.738 -0.2712  0.0764  0.1089
10920TIP3    H132721   7.078   2.495   5.762 -1.6474  1.2159  1.8353
10920TIP3    H232722   6.990   2.456   5.645  2.7192 -1.4779 -0.7028
10921TIP3   OH232723   2.417   1.278   5.860  0.0009 -0.0719  0.0709
10921TIP3    H132724   2.469   1.266   5.780 -0.7902  1.1263 -0.6309
10921TIP3    H232725   2.469   1.236   5.928  1.6942  0.7199 -0.7041
10922TIP3   OH232726   6.479   5.775   1.115 -0.7884  0.3465  0.1916
10922TIP3    H132727   6.424   5.735   1.182  1.3907 -2.1767  0.5147
10922TIP3    H232728   6.568   5.754   1.140  0.2074  1.6661 -2.0580
10923TIP3   OH232729   6.943   4.507   0.556 -0.7266  0.6129 -0.0334
10923TIP3    H132730   6.865   4.482   0.606 -1.7843 -1.4895 -2.6140
10923TIP3    H232731   7.006   4.436   0.574 -0.6411  0.5308 -0.6526
10924TIP3   OH232732   5.403   0.342   5.332  0.1828 -0.1371 -0.3964
10924TIP3    H132733   5.443   0.255   5.341  1.0658  0.2190 -0.8239
10924TIP3    H232734   5.424   0.368   5.242 -0.3832  0.3690 -0.3800
10925TIP3   OH232735   1.007   1.863   5.819 -0.2863 -0.3801  0.3893
10925TIP3    H132736   0.922   1.820   5.805 -0.5469  0.8611 -2.1406
10925TIP3    H232737   0.985   1.947   5.860 -0.4437  0.5322 -1.4969
10926TIP3   OH232738   6.021   4.047   1.022  0.2165 -0.6918 -0.1860
10926TIP3    H132739   6.038   4.141   1.013 -2.2326 -0.1169  0.6377
10926TIP3    H232740   5.929   4.042   1.049 -0.3683 -3.4311 -2.4167
10927TIP3   OH232741   7.263   0.623   5.502 -0.2528 -0.1323  0.9883
10927TIP3    H132742   7.205   0.631   5.426 -0.2794 -1.1952  0.8919
10927TIP3    H232743   7.217   0.563   5.561 -0.4511  1.0514  2.0555
10928TIP3   OH232744   3.171   1.678   5.163 -0.6113 -0.1726  0.1006
10928TIP3    H132745   3.151   1.728   5.242 -0.4606 -0.2899  0.2125
10928TIP3    H232746   3.161   1.741   5.091 -1.6410 -0.2855  0.1329
10929TIP3   OH232747   5.683   1.382   5.052  0.1132  0.2924  0.0112
10929TIP3    H132748   5.603   1.393   5.000 -2.1969 -0.2958  3.2387
10929TIP3    H232749   5.702   1.470   5.085 -2.2216 -0.3242  3.2927
10930TIP3   OH232750   5.594   3.567   0.061 -0.1486 -0.2914  0.1246
10930TIP3    H132751   5.610   3.635  -0.004 -0.2351 -0.5494 -0.1704
10930TIP3    H232752   5.584   3.487   0.010  1.6400 -0.8283  0.5581
10931TIP3   OH232753   3.683   2.201   4.962 -0.5266  0.0560 -0.2468
10931TIP3    H132754   3.736   2.143   4.906 -1.1384  0.2149 -1.0127
10931TIP3    H232755   3.745   2.264   4.997 -0.4756  1.3826 -2.6056
10932TIP3   OH232756   0.890   2.637   0.198 -0.0965 -0.1787  0.0107
10932TIP3    H132757   0.823   2.643   0.131 -1.4115  2.4961  1.4927
10932TIP3    H232758   0.842   2.628   0.280  1.4034 -0.3753  0.8953
10933TIP3   OH232759   3.172   7.103   5.283  0.5769  0.4060 -0.5851
10933TIP3    H132760   3.176   7.012   5.310  2.9562  0.7887  0.4910
10933TIP3    H232761   3.079   7.125   5.284  0.0206 -1.8562 -0.4164
10934TIP3   OH232762   0.890   0.349   3.861  0.9977  0.1851  0.0794
10934TIP3    H132763   0.926   0.262   3.879  0.6224 -0.1319 -0.7075
10934TIP3    H232764   0.966   0.401   3.836  1.0702 -0.2012 -0.5117
10935TIP3   OH232765   0.221   0.488   5.400  1.0251 -0.1805  0.0152
10935TIP3    H132766   0.240   0.540   5.322  1.1268  2.9976  2.0760
10935TIP3    H232767   0.135   0.518   5.429  1.6676 -0.2060  1.9974
10936TIP3   OH232768   5.467   6.437   5.256  0.3613  0.1205  0.0764
10936TIP3    H132769   5.485   6.343   5.249  1.1974  0.2261  0.6939
10936TIP3    H232770   5.379   6.448   5.220  0.3291 -0.8727 -0.1577
10937TIP3   OH232771   5.534   1.416   6.364  0.0244 -0.3308 -0.1395
10937TIP3    H132772   5.489   1.490   6.405 -0.7191 -0.4030 -0.8214
10937TIP3    H232773   5.469   1.377   6.306  1.2964  0.1973 -1.9399
10938TIP3   OH232774   0.595   4.364   0.467  0.5114  0.0995  0.8547
10938TIP3    H132775   0.560   4.410   0.391 -0.9894 -0.2385  1.3233
10938TIP3    H232776   0.636   4.432   0.520  2.0605  0.2624 -0.4884
10939TIP3   OH232777   0.166   0.547   4.413  0.5754 -0.1139 -0.0908
10939TIP3    H132778   0.224   0.472   4.426 -0.0358 -0.7689 -1.1390
10939TIP3    H232779   0.086   0.510   4.377  0.4630  1.1118 -1.1203
10940TIP3   OH232780   7.684   1.131   5.190 -0.0631  0.8253  0.3160
10940TIP3    H132781   7.710   1.212   5.234  1.5560  1.1856 -1.2246
10940TIP3    H232782   7.755   1.069   5.209 -0.0871  0.5371 -0.5121
10941TIP3   OH232783   2.391   5.774   1.756  0.0513  0.6760  0.1677
10941TIP3    H132784   2.351   5.860   1.744  1.4340  1.2092 -0.8387
10941TIP3    H232785   2.465   5.790   1.815  1.4502  0.5606 -1.4983
10942TIP3   OH232786   5.033   6.592   6.175  0.0274 -0.0812  0.3954
10942TIP3    H132787   5.128   6.580   6.185 -0.2273 -0.9003  1.9136
10942TIP3    H232788   4.996   6.505   6.186 -0.9785  0.3837  0.7428
10943TIP3   OH232789   2.700   6.800   2.607 -0.5882 -0.4003  0.1950
10943TIP3    H132790   2.658   6.716   2.625 -0.1759 -0.7482 -0.4555
10943TIP3    H232791   2.774   6.803   2.668 -0.1472 -0.8547 -0.3153
10944TIP3   OH232792   1.484   3.908   0.167 -0.1838  0.2475 -0.0181
10944TIP3    H132793   1.575   3.899   0.196 -0.0726 -1.0217 -0.7166
10944TIP3    H232794   1.489   3.900   0.071 -0.8837  1.4403 -0.1593
10945TIP3   OH232795   2.523   2.792   0.039 -0.2761  0.3602  0.2857
10945TIP3    H132796   2.464   2.741  -0.016 -0.4403  1.6213 -0.7102
10945TIP3    H232797   2.556   2.728   0.103  0.5096 -1.2858 -1.7046
10946TIP3   OH232798   7.734   1.244   3.165 -0.0118 -0.0135 -0.3842
10946TIP3    H132799   7.691   1.329   3.168 -0.1710 -0.0858 -0.6322
10946TIP3    H232800   7.748   1.221   3.257 -0.3007  0.1157 -0.3080
10947TIP3   OH232801   7.544   2.112   5.167  0.2681 -0.2592  0.4910
10947TIP3    H132802   7.593   2.029   5.172  0.1410 -0.3480  0.2785
10947TIP3    H232803   7.454   2.085   5.147  0.8075  0.0963 -2.5473
10948TIP3   OH232804   5.525   6.911   3.513  0.0828 -0.3112 -0.7976
10948TIP3    H132805   5.585   6.966   3.462  0.4081  0.2852  0.2048
10948TIP3    H232806   5.495   6.969   3.584  0.3908 -1.4165  0.2472
10949TIP3   OH232807   5.862   1.598   4.286  0.3992  0.1960 -0.0417
10949TIP3    H132808   5.790   1.659   4.269  1.8917  1.8447 -0.7112
10949TIP3    H232809   5.839   1.556   4.369 -0.7056  1.6483  0.4144
10950TIP3   OH232810   4.142   1.470   4.466 -0.0125  0.1034  0.0254
10950TIP3    H132811   4.129   1.520   4.386 -2.0889  0.1315  0.3699
10950TIP3    H232812   4.226   1.426   4.453  0.3629  1.2447 -1.5468
10951TIP3   OH232813   4.166   2.458   5.421  0.1601 -0.0323 -0.2441
10951TIP3    H132814   4.220   2.454   5.500 -0.0552  0.5196 -0.0625
10951TIP3    H232815   4.225   2.431   5.350  1.0852  1.8758 -0.2431
10952TIP3   OH232816   4.903   2.273   5.663  0.2422 -0.3052  0.0470
10952TIP3    H132817   4.835   2.218   5.699 -0.5815 -1.4402 -3.0475
10952TIP3    H232818   4.865   2.361   5.663 -0.3310 -0.5503  0.4470
10953TIP3   OH232819   7.299   1.723   3.359 -0.3465 -0.5503 -0.7410
10953TIP3    H132820   7.249   1.796   3.324  1.1493 -0.8359 -3.6478
10953TIP3    H232821   7.389   1.756   3.367 -0.0485 -1.4544 -0.1260
10954TIP3   OH232822   6.698   2.251   4.042 -0.4940  0.0264  0.2240
10954TIP3    H132823   6.726   2.274   3.953 -0.9020  1.5079  0.4562
10954TIP3    H232824   6.659   2.164   4.033  1.8020 -0.9363 -0.5615
10955TIP3   OH232825   5.342   1.587   3.236 -0.5294  0.2388  0.0650
10955TIP3    H132826   5.337   1.582   3.140 -0.6575  0.9353  0.0343
10955TIP3    H232827   5.258   1.623   3.263 -0.2579  0.6155  0.3996
10956TIP3   OH232828   7.438   2.875   0.016  0.1306 -0.0090  0.9010
10956TIP3    H132829   7.384   2.910   0.087 -0.0822  1.4610  0.0421
10956TIP3    H232830   7.478   2.952  -0.024  2.1046 -1.0114  0.9061
10957TIP3   OH232831   3.683   6.367   3.835  0.3923  0.0130  0.1001
10957TIP3    H132832   3.729   6.317   3.767  1.1995  2.8713 -1.5434
10957TIP3    H232833   3.708   6.458   3.818 -2.9478  1.2441  1.5230
10958TIP3   OH232834   0.743   4.908   0.272  0.3386  0.0958  0.2894
10958TIP3    H132835   0.715   4.834   0.326 -0.0006  0.1182  0.1505
10958TIP3    H232836   0.831   4.929   0.303  0.1221  0.1518  0.8767
10959TIP3   OH232837   6.510   0.737   5.244  0.3020  0.4913 -0.1523
10959TIP3    H132838   6.542   0.649   5.222  3.3830  1.6657 -0.6526
10959TIP3    H232839   6.464   0.766   5.165 -0.3983 -0.5008 -0.1188
10960TIP3   OH232840   0.022   2.268   5.389  0.0081  0.1186 -0.0683
10960TIP3    H132841   0.028   2.189   5.335  1.3814  0.3669 -0.2917
10960TIP3    H232842   0.023   2.236   5.479  0.5962 -0.1217 -0.1571
10961TIP3   OH232843   6.170   7.035   3.341  0.3903  0.1472  0.0788
10961TIP3    H132844   6.184   7.081   3.258 -0.6808 -0.9600 -0.7201
10961TIP3    H232845   6.133   6.951   3.317  1.1235 -0.6522  1.6183
10962TIP3   OH232846   2.183   1.408   3.357  0.6071  0.1117  0.3559
10962TIP3    H132847   2.177   1.501   3.381  1.6202  1.0118 -2.6207
10962TIP3    H232848   2.243   1.370   3.422  2.1568  2.1037  0.1361
10963TIP3   OH232849   3.214   4.976   0.066 -0.2864 -0.5249  0.4856
10963TIP3    H132850   3.300   5.013   0.049  0.3307 -1.1941  2.0661
10963TIP3    H232851   3.168   4.984  -0.017  1.2566 -0.0671 -0.3463
10964TIP3   OH232852   0.060   0.871   4.666 -0.3401  0.2304  0.2904
10964TIP3    H132853   0.059   0.824   4.583 -0.8376  0.1042  0.3657
10964TIP3    H232854  -0.032   0.889   4.685 -0.1243  1.6086  0.0631
10965TIP3   OH232855   1.653   0.682   4.933  0.1231  0.1834  0.2307
10965TIP3    H132856   1.621   0.770   4.951  0.0324  0.0825  0.5748
10965TIP3    H232857   1.747   0.693   4.918  0.1164  0.3367  0.2984
10966TIP3   OH232858   4.446   6.346   5.570  0.3627  0.7689 -0.0844
10966TIP3    H132859   4.429   6.357   5.664 -0.7409  0.5173 -0.2399
10966TIP3    H232860   4.449   6.251   5.558 -1.0341  0.7670 -0.5468
10967TIP3   OH232861   7.683   0.760   6.059 -0.0847 -0.3895  0.0278
10967TIP3    H132862   7.742   0.695   6.020 -0.5258 -0.8148  0.0650
10967TIP3    H232863   7.599   0.715   6.066 -0.6667  0.5430 -0.9479
10968TIP3   OH232864   1.240   0.624   4.516 -0.5160 -0.4882 -0.2161
10968TIP3    H132865   1.313   0.679   4.545 -0.2619 -1.2362  0.5935
10968TIP3    H232866   1.281   0.544   4.484 -0.9069 -0.3784 -1.0078
10969TIP3   OH232867   6.711   1.108   5.580  0.4521  0.5516 -0.0395
10969TIP3    H132868   6.694   1.155   5.662  1.5618  0.8634  0.0158
10969TIP3    H232869   6.670   1.022   5.592 -1.0165  1.2520  0.1131
10970TIP3   OH232870   2.473   6.753   4.898 -0.1458 -0.1161 -0.2537
10970TIP3    H132871   2.419   6.767   4.820  1.3464  1.8534 -0.9911
10970TIP3    H232872   2.537   6.687   4.871  0.2981  0.4816 -0.7105
10971TIP3   OH232873   4.340   1.570   5.533 -0.0273  0.9461 -0.4526
10971TIP3    H132874   4.416   1.606   5.579  0.1505  0.2542 -0.1900
10971TIP3    H232875   4.362   1.478   5.519 -1.6467  0.2267  1.4246
10972TIP3   OH232876   7.036   1.897   5.582  0.3688 -0.0416  0.8530
10972TIP3    H132877   7.121   1.881   5.540  0.3931 -1.3908  1.3969
10972TIP3    H232878   6.984   1.820   5.562 -0.7123  0.7371  0.6095
10973TIP3   OH232879   0.423   1.399   6.268  0.2647 -0.0626 -0.1617
10973TIP3    H132880   0.379   1.433   6.345  0.4579  0.0611 -0.1043
10973TIP3    H232881   0.449   1.476   6.218 -0.2451 -0.1555 -0.5670
10974TIP3   OH232882   1.319   6.882   1.435  0.4026 -0.2545  0.0145
10974TIP3    H132883   1.304   6.899   1.343  0.6794 -0.6515 -0.1058
10974TIP3    H232884   1.234   6.852   1.469  0.0868  0.7213  0.0808
10975TIP3   OH232885   0.656   3.140   0.970 -0.4797  0.6209 -0.0851
10975TIP3    H132886   0.590   3.208   0.982 -0.3899  0.5445  0.8795
10975TIP3    H232887   0.702   3.136   1.054  2.2280  2.2480 -1.4039
10976TIP3   OH232888   6.930   1.559   6.172 -0.4486  0.3199  0.1650
10976TIP3    H132889   6.969   1.639   6.208  0.0213  0.4729 -0.6808
10976TIP3    H232890   6.842   1.585   6.146 -0.8692  0.1599  1.3679
10977TIP3   OH232891   1.774   5.001   2.249 -0.3367 -0.7566 -0.3953
10977TIP3    H132892   1.839   4.988   2.318 -0.0077  0.3873 -0.4862
10977TIP3    H232893   1.690   4.998   2.294 -0.2091 -1.8461 -0.2179
10978TIP3   OH232894   1.879   2.467   3.254  0.2320  0.0216  0.5196
10978TIP3    H132895   1.947   2.506   3.199 -0.0904  0.3614  0.3630
10978TIP3    H232896   1.885   2.514   3.337  2.2443 -2.0201  1.5872
10979TIP3   OH232897   6.541   0.272   3.430  0.0190  0.2626 -0.0327
10979TIP3    H132898   6.635   0.288   3.439  0.4228 -2.5808  1.5616
10979TIP3    H232899   6.500   0.333   3.490  0.8380  1.4344 -0.6467
10980TIP3   OH232900   7.458   1.795   4.591 -0.6381 -0.2723 -0.2785
10980TIP3    H132901   7.380   1.846   4.610 -0.7548 -0.9880  1.2312
10980TIP3    H232902   7.508   1.794   4.673  0.5442 -0.5343 -0.9764
10981TIP3   OH232903   0.525   1.154   5.634 -0.2534 -0.4642 -0.7591
10981TIP3    H132904   0.601   1.210   5.619 -0.7795  0.0755 -1.4722
10981TIP3    H232905   0.536   1.082   5.572 -0.1682 -0.5538 -0.6417
10982TIP3   OH232906   7.499   0.756   3.406 -0.2628  0.2231  0.8611
10982TIP3    H132907   7.436   0.826   3.423  1.9174  2.2998  0.6357
10982TIP3    H232908   7.578   0.783   3.453  1.6583 -0.4546 -1.8956
10983TIP3   OH232909   7.445   0.794   4.893 -0.3933 -0.1457 -0.0773
10983TIP3    H132910   7.490   0.878   4.895  1.0202 -0.8667 -0.7619
10983TIP3    H232911   7.353   0.815   4.874 -0.4135  1.3640  1.6659
10984TIP3   OH232912   0.086   1.901   4.880 -0.1657  0.0733  0.1237
10984TIP3    H132913   0.120   1.840   4.946 -1.0827 -0.1359  0.4045
10984TIP3    H232914   0.094   1.853   4.798 -1.3886 -0.6563  0.4080
10985TIP3   OH232915   4.891   0.142   4.740  0.1137  0.4005  0.1530
10985TIP3    H132916   4.981   0.170   4.723 -0.5611  2.8610  0.4177
10985TIP3    H232917   4.837   0.215   4.710 -1.9723 -2.0993 -2.3743
10986TIP3   OH232918   5.776   0.111   4.009  0.5805  0.0176  0.2261
10986TIP3    H132919   5.773   0.015   4.014 -1.5186 -0.0497 -1.6491
10986TIP3    H232920   5.787   0.140   4.099 -3.4660 -1.8597  1.4226
10987TIP3   OH232921   0.401   1.629   5.449  0.3143 -0.1556 -0.1596
10987TIP3    H132922   0.327   1.573   5.472 -0.1445  0.9486  1.0942
10987TIP3    H232923   0.477   1.585   5.487  0.3264 -1.2631 -1.4048
10988TIP3   OH232924   1.319   0.121   3.046 -0.2085  0.3592 -0.1638
10988TIP3    H132925   1.372   0.051   3.083  0.1899  0.9044  0.3054
10988TIP3    H232926   1.383   0.187   3.018 -0.6845  1.4213  1.2378
10989TIP3   OH232927   7.771   0.173   5.650 -0.2345  0.1370  0.9518
10989TIP3    H132928   7.701   0.206   5.592  0.0349  0.0172  0.5556
10989TIP3    H232929   7.842   0.149   5.590 -0.5335 -1.4422  1.2136
10990TIP3   OH232930   6.480   6.170   5.305 -0.3343 -0.4920  0.1670
10990TIP3    H132931   6.538   6.102   5.270  0.7182  0.4370  0.0813
10990TIP3    H232932   6.509   6.250   5.262 -0.9914  0.1598  0.9386
10991TIP3   OH232933   3.519   6.897   4.829 -0.1937 -0.5689 -0.7799
10991TIP3    H132934   3.447   6.949   4.793  0.4736  0.8100 -0.1363
10991TIP3    H232935   3.540   6.939   4.912 -0.4612 -2.5983  0.3510
10992TIP3   OH232936   4.480   6.546   3.652 -0.4205 -0.4503  0.7758
10992TIP3    H132937   4.479   6.621   3.592 -1.0370  0.0055  1.3377
10992TIP3    H232938   4.535   6.481   3.609  0.1691  0.3505  0.3014
10993TIP3   OH232939   5.217   7.118   3.220 -0.1924  0.2683 -0.1672
10993TIP3    H132940   5.192   7.179   3.289  1.1080 -0.4309  0.9544
10993TIP3    H232941   5.139   7.111   3.164 -2.1935 -1.1149  2.6594
10994TIP3   OH232942   4.413   7.221   3.019  0.0969  0.4068 -0.2329
10994TIP3    H132943   4.381   7.309   3.040  0.6620  0.9167 -1.4418
10994TIP3    H232944   4.473   7.199   3.091 -1.9484 -0.0355  1.3776
10995TIP3   OH232945   0.167   0.002   5.079 -0.1818 -0.0758 -0.6961
10995TIP3    H132946   0.146   0.094   5.094  0.7099 -0.2175  1.7773
10995TIP3    H232947   0.257   0.003   5.045  0.7713 -0.1179  1.7300
10996TIP3   OH232948   1.792   7.098   4.791  0.2484 -0.2095 -0.4585
10996TIP3    H132949   1.752   7.044   4.723 -0.0930  0.6502 -0.9461
10996TIP3    H232950   1.868   7.137   4.749  0.6494 -0.5215 -0.0247
10997TIP3   OH232951   7.082   1.479   5.830  0.0556 -0.3876 -0.8924
10997TIP3    H132952   7.075   1.438   5.916 -1.2815  0.4831 -0.5616
10997TIP3    H232953   7.091   1.406   5.768  0.8370 -1.0200 -0.0373
10998TIP3   OH232954   2.098   4.247   0.641  0.2992 -0.0075 -0.0707
10998TIP3    H132955   2.088   4.211   0.730 -0.8630 -1.4493 -0.7596
10998TIP3    H232956   2.143   4.178   0.593 -0.6132  0.0728 -1.0386
10999TIP3   OH232957   0.766   0.829   6.023 -0.6174  0.2398 -0.3451
10999TIP3    H132958   0.840   0.804   5.968  1.0654  1.2766  1.3713
10999TIP3    H232959   0.712   0.750   6.028  0.3550 -0.5345 -1.6177
11000TIP3   OH232960   2.403   0.758   5.996 -0.2993 -0.1862  0.1345
11000TIP3    H132961   2.471   0.691   6.002  1.3847  1.5637  1.0716
11000TIP3    H232962   2.420   0.803   5.914  1.0635  1.6840  1.4062
11001TIP3   OH232963   6.787   6.135   3.649  0.0683 -0.3341  0.4527
11001TIP3    H132964   6.772   6.067   3.715 -1.3601  0.5692  1.1003
11001TIP3    H232965   6.872   6.172   3.671 -0.8654  0.7034  2.5132
11002TIP3   OH232966   5.947   7.056   4.815 -0.5405  0.2006 -0.4861
11002TIP3    H132967   5.970   6.986   4.755 -3.2877  0.3516 -1.7604
11002TIP3    H232968   5.996   7.036   4.895 -2.0915 -3.7690 -0.4235
11003TIP3   OH232969   7.109   7.274   3.996  0.4455 -0.6301  0.0953
11003TIP3    H132970   7.166   7.351   3.988  0.5398 -0.7912 -0.7845
11003TIP3    H232971   7.044   7.300   4.062  0.1932  0.3859 -0.5384
11004TIP3   OH232972   6.736   0.025   4.890  0.3922  0.8127  0.0772
11004TIP3    H132973   6.751  -0.057   4.844 -0.7656  0.9884 -0.6375
11004TIP3    H232974   6.640   0.033   4.896  0.4994  1.7398  0.7933
11005TIP3   OH232975   7.078   0.710   5.315 -0.4889  0.2773 -0.0789
11005TIP3    H132976   7.034   0.729   5.232  0.0574  1.3828 -0.1312
11005TIP3    H232977   7.032   0.634   5.351 -1.0224  0.0852 -1.1737
11006TIP3   OH232978   0.703   0.932   5.607 -0.5046  0.3991  0.3445
11006TIP3    H132979   0.648   0.937   5.686 -0.0970  0.6556  0.6195
11006TIP3    H232980   0.781   0.883   5.636 -0.6369 -0.0537 -0.0687
11007TIP3   OH232981   1.074   0.518   3.752 -1.0417  0.6898  0.2956
11007TIP3    H132982   1.030   0.555   3.675 -0.1577  1.4442  0.1513
11007TIP3    H232983   1.159   0.488   3.720 -2.2977 -2.9177  0.0604
11008TIP3   OH232984   5.249   0.751   3.933  0.2338 -0.3312  0.1614
11008TIP3    H132985   5.310   0.753   3.859  0.4987  0.0699  0.3866
11008TIP3    H232986   5.163   0.753   3.892  0.3612 -1.2625 -0.1710
11009TIP3   OH232987   6.046   6.504   5.721  0.0956  0.0923  0.3036
11009TIP3    H132988   6.136   6.493   5.692  0.1701  1.9486 -0.2434
11009TIP3    H232989   6.008   6.568   5.660 -0.7634  1.3968  2.1503
11010TIP3   OH232990   0.437   0.634   2.708 -0.4362  0.2578  1.1475
11010TIP3    H132991   0.524   0.636   2.669 -1.7150  1.4812 -1.7261
11010TIP3    H232992   0.452   0.656   2.800  2.6139 -2.5448  1.4271
11011TIP3   OH232993   2.939   1.474   3.260  0.1491 -0.0763 -0.3569
11011TIP3    H132994   2.964   1.565   3.275 -0.5768 -0.5305  4.6814
11011TIP3    H232995   2.844   1.476   3.254  0.2671 -0.2773 -2.4310
11012TIP3   OH232996   2.137   0.141   4.777 -0.0539  0.4266 -0.0222
11012TIP3    H132997   2.136   0.160   4.871 -2.8471 -0.4626  0.1604
11012TIP3    H232998   2.163   0.050   4.771 -0.4529  0.3117 -0.0552
11013TIP3   OH232999   5.476   7.171   3.673 -0.1445  0.2221 -0.3478
11013TIP3    H133000   5.417   7.235   3.632  0.7182  0.7586 -0.7679
11013TIP3    H233001   5.553   7.170   3.616  0.0716 -0.8033 -0.0451
11014TIP3   OH233002   2.843   4.692   0.525  0.2558 -0.0430  0.4480
11014TIP3    H133003   2.893   4.615   0.555  1.2512  0.7553  0.8550
11014TIP3    H233004   2.885   4.766   0.568 -0.0092  0.8502 -0.7982
11015TIP3   OH233005   0.486   0.863   4.519 -0.2045  0.1818 -0.3989
11015TIP3    H133006   0.566   0.811   4.528 -2.4192 -3.1790  0.9076
11015TIP3    H233007   0.455   0.843   4.431 -0.6935 -0.2328 -0.1403
11016TIP3   OH233008   5.434   6.479   5.917  0.0831  0.0007 -0.8834
11016TIP3    H133009   5.489   6.406   5.887  0.4740 -0.2566  0.4265
11016TIP3    H233010   5.489   6.556   5.905 -0.0415 -0.0097 -1.5313
11017TIP3   OH233011   4.745   5.704   5.284 -0.4101  0.0768 -0.4801
11017TIP3    H133012   4.662   5.671   5.319  1.4034 -2.9263  1.2743
11017TIP3    H233013   4.761   5.652   5.205 -0.3823  0.9107 -1.0274
11018TIP3   OH233014   7.562   0.257   5.470 -0.4004  0.4518  0.2737
11018TIP3    H133015   7.539   0.174   5.427  0.9978  0.4914 -0.5751
11018TIP3    H233016   7.630   0.295   5.414  1.0760  0.7580  2.2384
11019TIP3   OH233017   2.471   0.144   3.973 -0.6419 -0.5096  0.0252
11019TIP3    H133018   2.480   0.108   4.062  1.6340  0.9984  0.4646
11019TIP3    H233019   2.561   0.168   3.949 -1.4875  0.6332 -2.0427
11020TIP3   OH233020   6.569   5.833   2.688  0.7991 -0.6822 -0.4241
11020TIP3    H133021   6.530   5.848   2.775  2.4683 -1.7689  0.5452
11020TIP3    H233022   6.661   5.812   2.707  0.8632 -2.2535 -2.3741
11021TIP3   OH233023   7.207   0.302   3.917  0.2153 -0.4698  0.4340
11021TIP3    H133024   7.295   0.293   3.953 -0.1499 -1.0866  1.1716
11021TIP3    H233025   7.206   0.390   3.879  1.3590 -0.7095 -0.1732
11022TIP3   OH233026   1.859   6.280   0.648 -0.1130 -0.2288  0.0136
11022TIP3    H133027   1.921   6.222   0.692 -1.6642 -0.1368  2.4274
11022TIP3    H233028   1.834   6.233   0.569  0.6612 -1.6708  0.6022
11023TIP3   OH233029   7.044   2.027   5.162  0.0698 -0.0055 -0.1954
11023TIP3    H133030   7.023   1.939   5.193 -0.9026 -0.1042 -1.0984
11023TIP3    H233031   7.052   2.079   5.242  2.0873 -1.2137  0.4062
11024TIP3   OH233032   4.003   5.515   4.457 -0.1101 -0.1803 -0.4339
11024TIP3    H133033   4.065   5.469   4.514  0.9346  0.9505 -0.6235
11024TIP3    H233034   3.917   5.495   4.493  0.4812 -0.2601  0.9786
11025TIP3   OH233035   7.775   6.859   1.648 -0.0338  0.2111 -0.1733
11025TIP3    H133036   7.705   6.924   1.644 -0.2943 -0.0508  0.0560
11025TIP3    H233037   7.810   6.856   1.559 -0.0677  0.6094 -0.2022
11026TIP3   OH233038   1.223   5.237   2.924 -0.4185 -0.1092 -0.0137
11026TIP3    H133039   1.231   5.253   3.018 -0.2088  1.2662 -0.2560
11026TIP3    H233040   1.313   5.241   2.891 -0.3807 -1.5694 -0.1376
11027TIP3   OH233041   0.907   6.369   1.059 -0.1029 -0.3428  0.0674
11027TIP3    H133042   0.837   6.430   1.083 -0.6396 -2.0696  3.3158
11027TIP3    H233043   0.861   6.295   1.019  0.1316 -0.3090 -0.2615
11028TIP3   OH233044   0.711   5.096   5.668 -0.2826 -0.1164  0.4521
11028TIP3    H133045   0.727   5.013   5.623  0.9785  0.1405  0.4087
11028TIP3    H233046   0.646   5.075   5.735 -2.7875 -0.3395 -1.9960
11029TIP3   OH233047   5.161   6.386   3.364 -0.2706 -0.2005 -0.1460
11029TIP3    H133048   5.103   6.350   3.297 -1.2156 -1.4592  1.3142
11029TIP3    H233049   5.200   6.463   3.323 -0.2993 -1.3357 -2.3748
11030TIP3   OH233050   3.561   1.445   2.450  0.5355 -0.1269  0.4969
11030TIP3    H133051   3.572   1.372   2.390  0.0352 -0.3676  0.6986
11030TIP3    H233052   3.645   1.492   2.446  0.3067  0.1987 -0.8341
11031TIP3   OH233053   0.774   6.438   2.694  0.1015 -0.4036  0.0387
11031TIP3    H133054   0.825   6.380   2.750 -0.5511  0.4445  1.5176
11031TIP3    H233055   0.733   6.380   2.630  1.0686 -1.3425  0.2669
11032TIP3   OH233056   0.699   1.589   5.296  0.2904  0.2015 -0.1897
11032TIP3    H133057   0.684   1.590   5.391  5.4310 -0.1884  0.7467
11032TIP3    H233058   0.680   1.498   5.271 -1.3044  0.3550  0.3893
11033TIP3   OH233059   3.125   6.829   1.353  0.5947 -0.3710  0.1595
11033TIP3    H133060   3.195   6.893   1.346  1.1403 -1.1290 -1.7291
11033TIP3    H233061   3.095   6.836   1.443  1.0334  2.1023  0.1514
11034TIP3   OH233062   1.410   3.888   0.935 -0.6450  0.1953  0.2377
11034TIP3    H133063   1.336   3.905   0.877 -0.4944 -0.8611 -0.2761
11034TIP3    H233064   1.487   3.899   0.879 -0.5079 -1.0573  0.1712
11035TIP3   OH233065   1.515   6.278   3.870  0.2890  0.0162  0.5651
11035TIP3    H133066   1.585   6.343   3.866  1.1426 -0.8966  0.4818
11035TIP3    H233067   1.538   6.213   3.804 -2.0628  1.0805 -1.3787
11036TIP3   OH233068   2.658   1.066   3.725 -1.3570 -0.2678  0.5141
11036TIP3    H133069   2.666   1.108   3.810 -2.8029 -2.5491  1.8182
11036TIP3    H233070   2.566   1.039   3.719 -1.5688  0.8436 -2.2637
11037TIP3   OH233071   6.929   1.669   5.660  0.0109  0.2419 -0.5263
11037TIP3    H133072   6.899   1.742   5.713 -2.0051 -0.9905  0.0706
11037TIP3    H233073   6.965   1.606   5.723 -2.0616 -1.0697 -0.6042
11038TIP3   OH233074   3.140   0.394   2.342  0.0712  0.2169  0.2924
11038TIP3    H133075   3.208   0.462   2.344 -0.0824  0.3571  0.8517
11038TIP3    H233076   3.159   0.339   2.418  1.1345 -1.2868 -1.0391
11039TIP3   OH233077   5.687   6.815   1.543  0.2851  0.1591 -0.1012
11039TIP3    H133078   5.772   6.779   1.568  0.6222  1.1220  0.1602
11039TIP3    H233079   5.631   6.739   1.533  0.6666 -0.3838  1.6602
11040TIP3   OH233080   7.270   0.117   0.485 -0.3923  0.1032  0.0178
11040TIP3    H133081   7.354   0.109   0.440 -0.0774  0.3024  0.5700
11040TIP3    H233082   7.259   0.211   0.498 -0.6098  0.0639  0.1180
11041TIP3   OH233083   7.335   5.597   1.688  0.5677  0.1897 -0.3618
11041TIP3    H133084   7.360   5.645   1.609  0.4324 -1.0707 -1.1843
11041TIP3    H233085   7.283   5.523   1.656 -1.1132  0.7060  1.0438
11042TIP3   OH233086   6.091   6.546   0.896 -0.1175  0.2354  0.2091
11042TIP3    H133087   6.042   6.482   0.947  0.1247 -0.0050  0.1398
11042TIP3    H233088   6.026   6.613   0.873 -0.4457 -0.1489  0.0024
11043TIP3   OH233089   6.414   5.939   1.819 -0.0465  0.9626 -0.3284
11043TIP3    H133090   6.487   5.885   1.851 -0.1437  1.1716  0.2639
11043TIP3    H233091   6.337   5.883   1.829 -0.1599  1.2403  0.3681
11044TIP3   OH233092   5.948   6.739   2.442  0.0624 -0.0412 -0.3584
11044TIP3    H133093   6.032   6.783   2.454 -1.0806  1.3631  3.0808
11044TIP3    H233094   5.890   6.808   2.408 -0.3297 -0.3234 -0.2667
11045TIP3   OH233095   3.079   3.865   4.984  0.3602 -0.5773 -0.1935
11045TIP3    H133096   3.158   3.815   4.961  0.7111  1.1872 -3.1030
11045TIP3    H233097   3.007   3.804   4.971  1.0161 -1.2356 -0.7556
11046TIP3   OH233098   5.372   6.441   4.759 -0.1956 -0.1587  0.2773
11046TIP3    H133099   5.360   6.536   4.758 -0.0450 -0.1079  1.5285
11046TIP3    H233100   5.284   6.406   4.774  0.1544 -0.0726  2.7596
11047TIP3   OH233101   7.272   6.674   0.942 -0.4248  0.4828 -0.8272
11047TIP3    H133102   7.281   6.627   0.860 -0.9143  0.4937 -0.8853
11047TIP3    H233103   7.184   6.652   0.974 -0.7005  1.4369 -0.9071
11048TIP3   OH233104   7.721   0.689   1.144 -0.1649  0.5160 -0.3381
11048TIP3    H133105   7.769   0.629   1.086 -0.5797  1.5631 -1.7703
11048TIP3    H233106   7.633   0.694   1.107 -1.0697 -0.4522  1.6079
11049TIP3   OH233107   7.308   6.271   2.974 -0.0872  0.0648  0.1719
11049TIP3    H133108   7.398   6.248   2.951  0.1648  1.4880 -0.3226
11049TIP3    H233109   7.276   6.321   2.898 -0.0586  2.7159  1.8250
11050TIP3   OH233110   6.034   7.132   2.841 -0.0980  0.1179  0.4912
11050TIP3    H133111   6.076   7.166   2.919 -1.3649 -0.2121  1.3360
11050TIP3    H233112   6.020   7.210   2.786 -0.0076  0.4760  0.9747
11051TIP3   OH233113   0.633   1.776   3.410  0.1299  0.1911 -0.1714
11051TIP3    H133114   0.577   1.843   3.449  0.4551  1.0708 -1.1879
11051TIP3    H233115   0.717   1.787   3.456  0.6437  1.5131 -1.3664
11052TIP3   OH233116   5.521   7.220   1.451  0.2220  0.0447 -0.3534
11052TIP3    H133117   5.469   7.285   1.498  0.6842 -0.3938  0.8104
11052TIP3    H233118   5.462   7.183   1.386 -0.5278  0.4811  0.0736
11053TIP3   OH233119   6.213   6.081   2.942  0.3351 -0.3302  0.2095
11053TIP3    H133120   6.298   6.096   2.900  0.4410 -0.6645  0.3074
11053TIP3    H233121   6.222   6.123   3.028  0.6555 -1.0123  0.5100
11054TIP3   OH233122   2.889   1.109   0.899 -0.2709  0.0769 -0.7676
11054TIP3    H133123   2.958   1.143   0.956  0.1254 -1.2434 -0.4397
11054TIP3    H233124   2.936   1.059   0.832 -0.7729  1.1128 -1.8991
11055TIP3   OH233125   7.626   7.307   1.016 -0.0942  0.0184  0.1132
11055TIP3    H133126   7.595   7.267   0.935  0.4247 -0.4415  0.1350
11055TIP3    H233127   7.721   7.292   1.015  0.4853  3.2359 -0.9919
11056TIP3   OH233128   4.775   6.708   1.408  0.3929  0.5300  0.2444
11056TIP3    H133129   4.823   6.632   1.374  0.0659 -0.0811  1.1389
11056TIP3    H233130   4.795   6.778   1.346  1.1967 -0.1230 -0.2512
11057TIP3   OH233131   0.996   2.418   1.523  0.3396 -0.1141 -0.2736
11057TIP3    H133132   0.954   2.333   1.509  0.9210 -0.6400  1.0471
11057TIP3    H233133   0.923   2.480   1.526 -0.3552 -0.9746  1.6776
11058TIP3   OH233134   1.435   0.391   2.927  0.2051 -0.5242 -0.1327
11058TIP3    H133135   1.529   0.378   2.943 -0.0266 -1.2419  0.7283
11058TIP3    H233136   1.422   0.486   2.937  0.9848 -0.3084 -1.1136
11059TIP3   OH233137   6.861   4.264   6.342 -0.0604  1.0124 -0.3431
11059TIP3    H133138   6.838   4.177   6.374  0.0333  0.5581 -1.4866
11059TIP3    H233139   6.910   4.248   6.261  0.2580  2.1137 -0.3823
11060TIP3   OH233140   7.519   6.782   0.577 -0.3674  0.3629  0.0437
11060TIP3    H133141   7.613   6.768   0.567 -0.8070 -2.2272 -0.8546
11060TIP3    H233142   7.504   6.871   0.545  1.7526  0.8196  0.2454
11061TIP3   OH233143   0.292   0.058   1.671 -0.0151  0.0476  0.0563
11061TIP3    H133144   0.301   0.076   1.764 -0.9485  0.5416  0.0585
11061TIP3    H233145   0.271   0.142   1.632 -0.3661 -0.2899 -0.4943
11062TIP3   OH233146   4.734   2.168   5.887 -0.0356 -0.3114 -0.5506
11062TIP3    H133147   4.645   2.194   5.911  0.2788  2.0847 -1.8949
11062TIP3    H233148   4.790   2.216   5.947  0.4064 -0.9830 -0.4227
11063TIP3   OH233149   0.150   0.716   0.716 -0.3845  0.0253 -0.0994
11063TIP3    H133150   0.125   0.729   0.808  1.2021 -0.3745  0.4145
11063TIP3    H233151   0.237   0.676   0.721 -1.4955 -2.7738 -1.7404
11064TIP3   OH233152   5.324   3.859   5.226 -0.0853  0.1859 -0.5166
11064TIP3    H133153   5.349   3.886   5.314  0.5205  1.9453 -1.2080
11064TIP3    H233154   5.237   3.897   5.212 -0.0303  0.2130 -0.8047
11065TIP3   OH233155   5.622   5.259   5.429 -0.0876  0.1570 -0.1128
11065TIP3    H133156   5.542   5.208   5.437 -0.7254  1.2230  0.3473
11065TIP3    H233157   5.689   5.195   5.406 -0.7653 -0.9903  1.0758
11066TIP3   OH233158   2.218   6.334   3.129 -0.0088 -0.5477 -0.0787
11066TIP3    H133159   2.280   6.307   3.060 -1.6838 -1.5789 -1.2223
11066TIP3    H233160   2.140   6.281   3.112 -0.8745  0.0677  1.9112
11067TIP3   OH233161   4.223   1.273   1.112 -0.2265 -0.0978 -0.2529
11067TIP3    H133162   4.279   1.198   1.092 -1.7680 -1.1931 -0.5345
11067TIP3    H233163   4.189   1.301   1.027 -1.7872 -0.7974  0.1175
11068TIP3   OH233164   1.166   0.763   0.181 -0.5306 -0.0770 -0.3053
11068TIP3    H133165   1.217   0.809   0.248 -0.4031  0.9303 -1.0835
11068TIP3    H233166   1.179   0.815   0.101  2.2646 -3.1854 -2.0148
11069TIP3   OH233167   0.071   4.700   4.167 -0.1315 -0.0456 -0.2606
11069TIP3    H133168   0.084   4.684   4.074  1.2775  2.0186 -0.4509
11069TIP3    H233169   0.140   4.650   4.210 -0.8699 -1.1131 -0.3105
11070TIP3   OH233170   1.758   0.333   0.877 -0.5049  0.0096 -0.1874
11070TIP3    H133171   1.819   0.404   0.899  1.7672 -1.2712 -2.0391
11070TIP3    H233172   1.815   0.259   0.855 -2.7867 -1.7643 -0.3172
11071TIP3   OH233173   7.485   4.533   2.334 -0.5489  0.8107  0.0480
11071TIP3    H133174   7.435   4.491   2.404 -0.4481 -1.5274 -1.2217
11071TIP3    H233175   7.512   4.461   2.277  3.0843  2.1463 -0.0823
11072TIP3   OH233176   2.891   1.369   1.818  0.0449  0.2172 -0.2236
11072TIP3    H133177   2.872   1.312   1.893 -4.1826  0.3237 -1.1218
11072TIP3    H233178   2.927   1.449   1.858  0.2180 -0.6829  1.4824
11073TIP3   OH233179   4.097   3.618   6.326 -0.8234 -0.5552 -0.3917
11073TIP3    H133180   4.065   3.596   6.413 -0.5128  0.6245  0.0352
11073TIP3    H233181   4.039   3.689   6.296 -1.9455 -2.0311 -1.8201
11074TIP3   OH233182   2.827   0.839   0.221  0.0355  0.4616 -0.2916
11074TIP3    H133183   2.769   0.830   0.297  0.0816  0.7026 -0.2300
11074TIP3    H233184   2.775   0.805   0.147  0.2152 -0.3497 -0.0496
11075TIP3   OH233185   7.382   6.680   0.321  0.1883 -0.3731 -0.1753
11075TIP3    H133186   7.460   6.677   0.376  1.0149 -2.6048 -1.4193
11075TIP3    H233187   7.315   6.632   0.370  0.0839  0.1051  0.1499
11076TIP3   OH233188   5.299   2.965   5.751  0.6079  0.1879  0.1899
11076TIP3    H133189   5.394   2.969   5.741  0.7616 -0.2458  1.3252
11076TIP3    H233190   5.277   3.043   5.803  0.6028 -0.7334  1.6055
11077TIP3   OH233191   1.239   6.841   0.370  0.0402 -0.8071 -0.1232
11077TIP3    H133192   1.259   6.780   0.440  0.2548 -1.4751 -0.7648
11077TIP3    H233193   1.319   6.845   0.317  1.1568  2.4237  1.6675
11078TIP3   OH233194   2.279   2.953   2.216 -0.6152  0.6315  0.0032
11078TIP3    H133195   2.267   3.043   2.186 -0.5227 -0.0550 -2.1988
11078TIP3    H233196   2.190   2.919   2.225 -0.6174  0.3313 -1.1231
11079TIP3   OH233197   2.282   0.158   1.140 -0.5098 -0.1145 -0.0112
11079TIP3    H133198   2.348   0.091   1.126 -0.2560  0.3149 -0.9444
11079TIP3    H233199   2.200   0.110   1.151 -0.2264 -0.6003 -0.0315
11080TIP3   OH233200   1.285   0.069   2.771 -0.0874  0.9273 -0.4414
11080TIP3    H133201   1.351   0.008   2.739 -1.6041 -0.9511 -0.0828
11080TIP3    H233202   1.315   0.092   2.859 -0.2303 -0.4291 -0.0227
11081TIP3   OH233203   0.356   6.765   1.581  0.5510  0.0163 -0.2751
11081TIP3    H133204   0.374   6.839   1.523 -2.1518  0.0981 -1.0563
11081TIP3    H233205   0.360   6.802   1.669  0.4940  0.7993 -0.5978
11082TIP3   OH233206   7.318   6.827   1.421  0.2408  0.3230  0.6095
11082TIP3    H133207   7.407   6.836   1.387  0.4119 -0.5429  0.8002
11082TIP3    H233208   7.291   6.738   1.396 -0.3970  0.4128  0.9450
11083TIP3   OH233209   5.891   2.276   5.415 -0.2722 -0.0192 -0.3138
11083TIP3    H133210   5.892   2.368   5.387 -0.9312  0.1705  0.2662
11083TIP3    H233211   5.909   2.227   5.336 -0.7104  0.5803 -0.7927
11084TIP3   OH233212   6.600   2.992   6.248 -0.4271  0.0722  0.1367
11084TIP3    H133213   6.551   2.911   6.239 -1.0322  0.5293 -0.7780
11084TIP3    H233214   6.537   3.054   6.286 -0.3845  0.5006 -0.4958
11085TIP3   OH233215   5.710   2.761   5.523 -0.2886 -0.1458  0.1422
11085TIP3    H133216   5.656   2.826   5.567 -0.1417 -0.4747  0.8182
11085TIP3    H233217   5.680   2.677   5.558  1.2501 -0.2758  1.1908
11086TIP3   OH233218   4.571   0.642   0.448 -0.8319  0.3915  0.4681
11086TIP3    H133219   4.632   0.664   0.376 -1.5753 -0.6081 -0.4766
11086TIP3    H233220   4.619   0.579   0.502 -0.2870  1.1109  0.8333
11087TIP3   OH233221   1.021   6.929   1.182  0.0357 -0.2857 -0.0987
11087TIP3    H133222   1.033   6.926   1.277 -0.2104  0.6291 -0.0360
11087TIP3    H233223   1.041   7.020   1.158  0.4657 -0.6055 -0.9724
11088TIP3   OH233224   7.181   1.929   5.807 -0.2860  0.6390  0.3500
11088TIP3    H133225   7.106   1.928   5.747  0.7470 -1.3311 -0.9592
11088TIP3    H233226   7.168   1.853   5.863  0.6222  0.4049  0.2513
11089TIP3   OH233227   2.092   0.400   1.709  0.5018 -0.1413 -0.0656
11089TIP3    H133228   2.052   0.314   1.708 -1.1051  0.5747  0.7617
11089TIP3    H233229   2.029   0.456   1.755  2.1271  1.1769  0.6321
11090TIP3   OH233230   0.344   6.221   2.481 -0.1725  0.0563  0.3719
11090TIP3    H133231   0.255   6.255   2.492  0.1928  1.1263  0.1492
11090TIP3    H233232   0.358   6.223   2.386  0.1050 -0.0623  0.4102
11091TIP3   OH233233   2.741   1.048   2.037 -0.7261 -0.7184 -0.0566
11091TIP3    H133234   2.760   1.101   2.114 -1.6136 -2.2048  1.2099
11091TIP3    H233235   2.673   1.097   1.991 -0.1635  0.1979  0.0778
11092TIP3   OH233236   0.074   6.145   1.687 -0.2960  0.1319 -0.3537
11092TIP3    H133237   0.129   6.183   1.619 -0.6112  0.9421 -0.1711
11092TIP3    H233238   0.121   6.162   1.768 -0.0752 -0.5457 -0.3419
11093TIP3   OH233239   0.224   1.754   6.257  0.1996  0.1046 -0.1732
11093TIP3    H133240   0.277   1.791   6.328 -0.4650  3.0160 -1.1509
11093TIP3    H233241   0.138   1.743   6.296 -0.0358  1.2234 -0.3633
11094TIP3   OH233242   1.005   6.210   3.473  0.9196  0.2994 -0.3372
11094TIP3    H133243   1.099   6.199   3.487  0.4631 -1.7257  1.5090
11094TIP3    H233244   0.967   6.199   3.561 -1.1644 -0.6682 -1.3231
11095TIP3   OH233245   7.121   7.073   1.883 -1.1970  0.0963  0.1833
11095TIP3    H133246   7.176   7.108   1.952  0.2933  1.0768 -1.4662
11095TIP3    H233247   7.180   7.020   1.829 -1.5366  2.0394 -2.2262
11096TIP3   OH233248   1.318   0.581   1.270  0.5482 -0.7327  0.4465
11096TIP3    H133249   1.310   0.486   1.262 -1.1585 -0.4980 -0.7600
11096TIP3    H233250   1.229   0.615   1.259  1.3309  1.1031 -0.5174
11097TIP3   OH233251   1.023   1.604   0.106  0.3701 -0.6499  0.6398
11097TIP3    H133252   1.079   1.584   0.181  2.6704  1.3788 -0.4583
11097TIP3    H233253   1.067   1.677   0.062 -2.9604  0.7743 -0.5054
11098TIP3   OH233254   0.320   6.240   0.827  0.2682  0.2811 -0.0501
11098TIP3    H133255   0.412   6.218   0.812  0.2399  1.5380 -2.2210
11098TIP3    H233256   0.275   6.155   0.831  1.5139 -0.3517  1.2596
11099TIP3   OH233257   7.656   6.110   1.307  0.7137 -0.0060 -0.1563
11099TIP3    H133258   7.683   6.074   1.392 -1.7990 -2.5359 -0.3679
11099TIP3    H233259   7.686   6.045   1.243  0.8976  0.9544 -1.0658
11100TIP3   OH233260   5.228   1.793   2.031 -0.0843 -0.0860 -0.2538
11100TIP3    H133261   5.169   1.757   2.098 -1.5803  2.8680  0.0766
11100TIP3    H233262   5.189   1.768   1.948  1.2072 -2.8423 -0.1163
11101TIP3   OH233263   7.283   6.257   0.363  0.5363  0.6354 -0.1429
11101TIP3    H133264   7.252   6.331   0.414 -1.2083  0.5918 -1.0947
11101TIP3    H233265   7.364   6.287   0.323 -0.1059  2.0075 -0.4397
11102TIP3   OH233266   0.341   5.590   1.418  0.0241 -0.5775  0.2539
11102TIP3    H133267   0.370   5.606   1.508 -2.9808  1.5709  0.9176
11102TIP3    H233268   0.350   5.675   1.375 -1.2091 -0.9187 -0.6909
11103TIP3   OH233269   5.703   5.565   6.277  0.1937  0.2722  0.0337
11103TIP3    H133270   5.732   5.474   6.271  0.5602  0.2435  2.0569
11103TIP3    H233271   5.607   5.559   6.272  0.1698 -0.3075  1.0322
11104TIP3   OH233272   1.712   6.418   0.884  0.0173  0.2155  0.3408
11104TIP3    H133273   1.739   6.338   0.929  0.2996  0.2412  0.2155
11104TIP3    H233274   1.731   6.402   0.792 -0.3800  0.2395  0.2537
11105TIP3   OH233275   5.342   5.762   1.540 -0.3722 -0.2413 -0.2165
11105TIP3    H133276   5.396   5.761   1.461 -0.5530  1.9276 -0.3812
11105TIP3    H233277   5.404   5.781   1.611 -0.5905  0.2257 -0.1492
11106TIP3   OH233278   2.063   0.913   1.646  0.1332  0.3268  0.6709
11106TIP3    H133279   2.099   0.956   1.724 -1.4502  1.5589  0.7416
11106TIP3    H233280   1.976   0.883   1.673 -0.8945  1.7730 -0.9524
11107TIP3   OH233281   7.186   4.721   1.404 -0.4692 -0.0434 -0.0513
11107TIP3    H133282   7.218   4.717   1.314 -1.7930  1.3282 -0.5959
11107TIP3    H233283   7.100   4.679   1.402 -1.6049  2.1549  0.0244
11108TIP3   OH233284   2.994   0.292   0.774  0.0638 -0.0980 -0.1250
11108TIP3    H133285   2.959   0.378   0.750 -0.4405 -0.5337 -0.9732
11108TIP3    H233286   3.050   0.267   0.700 -0.0177 -0.6220 -0.0115
11109TIP3   OH233287   0.144   6.818   0.618 -0.2359  0.5201  0.6025
11109TIP3    H133288   0.066   6.779   0.581 -0.6198  1.1950  0.6922
11109TIP3    H233289   0.121   6.837   0.709  1.0218 -2.0566  1.5223
11110TIP3   OH233290   7.071   7.041   0.229 -0.4422 -0.4747 -0.0606
11110TIP3    H133291   7.018   7.069   0.154 -0.7212  0.0333  0.3266
11110TIP3    H233292   7.110   7.121   0.262 -1.6249 -0.4789  1.3453
11111TIP3   OH233293   5.630   2.553   4.630  0.0396 -0.3400 -0.1234
11111TIP3    H133294   5.604   2.580   4.719  0.1564 -2.2314  0.5137
11111TIP3    H233295   5.559   2.583   4.574 -1.5310 -1.7781  1.0447
11112TIP3   OH233296   4.428   4.039   4.557 -0.5377  0.2622 -0.1074
11112TIP3    H133297   4.497   4.008   4.616  0.0868 -2.4227 -2.1714
11112TIP3    H233298   4.348   4.032   4.608 -0.2075 -3.5070 -0.0152
11113TIP3   OH233299   5.617   2.005   6.059 -0.3114 -0.4603  0.3471
11113TIP3    H133300   5.608   2.046   6.145  1.5148 -2.9103  1.7698
11113TIP3    H233301   5.709   2.018   6.035 -0.6642 -0.2984 -0.9673
11114TIP3   OH233302   4.179   0.059   0.513 -0.1905 -0.0707  0.2902
11114TIP3    H133303   4.102   0.085   0.564  0.7305  1.3659  0.9758
11114TIP3    H233304   4.242   0.129   0.528  1.3280 -1.3303 -0.1226
11115TIP3   OH233305   7.565   6.977   0.853 -0.4113  0.4518 -0.0628
11115TIP3    H133306   7.546   6.927   0.932  0.7269  0.0824 -0.0132
11115TIP3    H233307   7.494   7.041   0.848 -0.9540 -0.0652  0.7944
11116TIP3   OH233308   1.464   6.658   1.813 -0.3898  0.4408 -0.0711
11116TIP3    H133309   1.519   6.583   1.789 -0.0584  0.8960 -0.7463
11116TIP3    H233310   1.513   6.734   1.783 -2.3301  0.7558 -2.5744
11117TIP3   OH233311   5.328   3.698   0.393 -0.2705 -0.5068 -0.5422
11117TIP3    H133312   5.418   3.672   0.374 -0.5822 -2.4422  0.4979
11117TIP3    H233313   5.277   3.667   0.318 -0.4513 -1.8271  0.1101
11118TIP3   OH233314   2.427   0.057   2.805  0.1189  0.2182 -0.3369
11118TIP3    H133315   2.429   0.151   2.825  0.2955  0.2457 -0.4757
11118TIP3    H233316   2.500   0.021   2.855  2.5787  0.7858 -3.3326
11119TIP3   OH233317   6.203   7.061   2.003  0.5148 -0.2441  0.4590
11119TIP3    H133318   6.146   7.098   1.935  0.5568 -0.0603  0.5244
11119TIP3    H233319   6.175   6.970   2.011 -0.1520  0.0030  0.9051
11120TIP3   OH233320   2.645   0.732   0.026 -0.0174 -0.1441 -0.0900
11120TIP3    H133321   2.578   0.688  -0.026 -1.1018 -0.9734  1.9292
11120TIP3    H233322   2.661   0.672   0.099  0.5782  1.4991  1.1624
11121TIP3   OH233323   1.168   0.024   0.107  0.5323 -0.1724  0.1728
11121TIP3    H133324   1.260   0.026   0.133  0.2183  2.2691  1.2789
11121TIP3    H233325   1.128  -0.042   0.163  1.4917 -0.8169  0.1044
11122TIP3   OH233326   2.099   5.759   4.069 -0.9207 -0.6149 -0.2591
11122TIP3    H133327   2.109   5.729   3.978 -0.5963 -1.1770 -0.0370
11122TIP3    H233328   2.050   5.841   4.061 -0.4179 -0.3789 -0.9861
11123TIP3   OH233329   7.213   7.294   0.287  0.4071 -0.3087 -0.2841
11123TIP3    H133330   7.223   7.320   0.378  0.4829 -1.2623 -0.0078
11123TIP3    H233331   7.302   7.280   0.256  0.3004 -1.8561  0.0702
11124TIP3   OH233332   0.375   0.772   1.010 -0.2822 -0.3432  0.8612
11124TIP3    H133333   0.432   0.718   1.066  2.3722  0.3477 -1.0677
11124TIP3    H233334   0.400   0.747   0.921 -1.9586  1.1181 -0.0334
11125TIP3   OH233335   6.664   7.097   1.536  0.1989 -0.4262  0.6065
11125TIP3    H133336   6.702   7.184   1.548  0.4366 -0.4198 -0.1520
11125TIP3    H233337   6.607   7.106   1.460 -0.4030 -0.7379  1.0131
11126TIP3   OH233338   5.148   2.063   5.790 -0.7577 -0.2852  0.2162
11126TIP3    H133339   5.056   2.037   5.790 -1.2702  1.4365  1.8616
11126TIP3    H233340   5.175   2.062   5.882  0.4819  0.5017 -0.1142
11127TIP3   OH233341   5.162   1.670   5.094 -0.0908 -0.0615  0.0406
11127TIP3    H133342   5.179   1.762   5.115 -0.4319  0.3719 -1.5082
11127TIP3    H233343   5.139   1.671   5.001  2.3985 -2.0387 -0.6306
11128TIP3   OH233344   1.013   5.726   0.906  0.1644  0.4177 -0.3169
11128TIP3    H133345   0.950   5.738   0.976  0.1628 -0.0364 -0.2381
11128TIP3    H233346   0.966   5.675   0.840  0.2729  0.5493 -0.4969
11129TIP3   OH233347   7.800   6.849   0.841  0.1777 -0.0850 -0.1474
11129TIP3    H133348   7.777   6.760   0.866 -0.4134 -0.5262 -2.1558
11129TIP3    H233349   7.717   6.897   0.843  0.2708  0.0860 -0.3964
11130TIP3   OH233350   5.185   2.866   6.269  0.2112  0.4804 -0.3564
11130TIP3    H133351   5.149   2.954   6.270 -2.0844 -0.4180 -0.0431
11130TIP3    H233352   5.270   2.875   6.226 -1.1074  2.4091 -2.6573
11131TIP3   OH233353   2.742   1.630   1.373  0.4269 -0.0319 -0.1049
11131TIP3    H133354   2.794   1.581   1.437  2.4783  2.5376  0.2557
11131TIP3    H233355   2.749   1.579   1.292  0.9444 -1.3104  0.7335
11132TIP3   OH233356   5.430   2.978   6.168  0.3349 -0.0956 -0.0695
11132TIP3    H133357   5.473   3.059   6.143  2.1575 -0.7839  0.7791
11132TIP3    H233358   5.470   2.911   6.113 -1.2705 -0.4056 -0.8779
11133TIP3   OH233359   2.153   2.386   2.320  0.4881 -0.0783 -0.0096
11133TIP3    H133360   2.076   2.358   2.270  0.9099  0.6829 -1.0904
11133TIP3    H233361   2.220   2.321   2.301  0.4666 -0.1135  0.0350
11134TIP3   OH233362   2.175   0.660   1.008 -1.2984 -0.7420  0.3496
11134TIP3    H133363   2.220   0.640   0.926  0.5890 -0.4001  1.2627
11134TIP3    H233364   2.199   0.588   1.067  0.9680  1.1969  1.9232
11135TIP3   OH233365   7.544   6.598   2.559 -0.1188 -0.4542  0.0059
11135TIP3    H133366   7.558   6.619   2.467 -0.4572  2.3481  0.5604
11135TIP3    H233367   7.629   6.565   2.589  0.1732 -0.7521 -1.1289
11136TIP3   OH233368   1.030   0.681   2.291  0.0785  0.6475 -0.0983
11136TIP3    H133369   1.124   0.675   2.306  0.0450  1.0439  0.2745
11136TIP3    H233370   1.002   0.590   2.279  0.1625  0.3343  1.9194
11137TIP3   OH233371   4.912   2.597   1.306  0.5090 -0.3404 -0.3015
11137TIP3    H133372   4.925   2.522   1.364  2.5692  0.0978 -0.1531
11137TIP3    H233373   4.819   2.618   1.315  0.6004 -0.7804  2.2721
11138TIP3   OH233374   0.326   6.238   1.512 -0.0012  0.0528 -0.5672
11138TIP3    H133375   0.365   6.151   1.498  1.5333  0.6082  0.1403
11138TIP3    H233376   0.323   6.276   1.424 -1.2249 -0.9261 -0.9655
11139TIP3   OH233377   7.030   2.978   6.002  0.0020 -0.1248 -0.4024
11139TIP3    H133378   6.984   3.034   6.065  1.5976  1.1715 -0.3505
11139TIP3    H233379   6.970   2.904   5.988 -0.6746 -0.1452  2.1713
11140TIP3   OH233380   7.714   7.007   1.136  0.1651  0.3173 -0.3055
11140TIP3    H133381   7.664   6.927   1.153 -2.1074  1.4093 -1.5500
11140TIP3    H233382   7.676   7.071   1.196  0.8370  0.8897 -0.4983
11141TIP3   OH233383   5.932   2.166   6.181  0.3385 -0.0136 -0.5918
11141TIP3    H133384   5.917   2.161   6.087  0.6031  0.1044 -0.6406
11141TIP3    H233385   5.980   2.248   6.194  1.4177 -0.6422 -0.5095
11142TIP3   OH233386   0.795   3.434   5.207  0.8978  0.3298  0.0392
11142TIP3    H133387   0.863   3.403   5.266  0.1728 -0.1186  0.6527
11142TIP3    H233388   0.812   3.390   5.124  1.6186  0.5732  0.0554
11143TIP3   OH233389   0.143   7.195   2.468 -0.5161 -0.1697 -0.0837
11143TIP3    H133390   0.229   7.185   2.509 -0.7950 -0.2165  0.5031
11143TIP3    H233391   0.082   7.193   2.542 -1.2614 -3.0725 -0.7008
11144TIP3   OH233392   0.708   6.192   0.112  0.1427 -0.4494 -0.1289
11144TIP3    H133393   0.804   6.184   0.117 -0.0717 -3.0237  0.4695
11144TIP3    H233394   0.683   6.228   0.197  0.4129 -1.8641  0.5728
11145TIP3   OH233395   0.448   2.764   6.018 -0.1371 -0.0134 -0.1786
11145TIP3    H133396   0.402   2.848   6.007  0.5724  0.1666 -1.8452
11145TIP3    H233397   0.404   2.723   6.093 -1.6787  1.0503 -0.4724
11146TIP3   OH233398   4.061   1.721   2.196 -0.6910 -0.2676  0.2270
11146TIP3    H133399   4.134   1.694   2.251 -0.4411  0.1314  0.0895
11146TIP3    H233400   3.983   1.687   2.241 -0.5226  0.4026  1.0337
11147TIP3   OH233401   2.306   3.133   1.315  0.0059 -0.6880  0.9481
11147TIP3    H133402   2.245   3.058   1.316 -0.4630 -0.3469 -0.4676
11147TIP3    H233403   2.392   3.093   1.323 -0.0813 -1.6021 -1.9726
11148TIP3   OH233404   2.519   1.636   2.074 -0.3026  0.2421 -0.2221
11148TIP3    H133405   2.522   1.695   2.149 -0.3174  1.7875 -1.4131
11148TIP3    H233406   2.448   1.669   2.019  0.5931 -0.0320 -1.5830
11149TIP3   OH233407   7.134   4.771   2.055  0.1096 -0.1914  0.1191
11149TIP3    H133408   7.177   4.741   2.135  2.2103  1.0805 -0.5232
11149TIP3    H233409   7.072   4.838   2.085  1.1645  0.5564  0.6361
11150TIP3   OH233410   3.297   5.252   0.878  0.4113  0.0048 -0.9519
11150TIP3    H133411   3.316   5.259   0.784  1.0228  1.4398 -0.7274
11150TIP3    H233412   3.352   5.318   0.919  0.0926 -0.5654  0.4242
11151TIP3   OH233413   2.407   1.237   0.664  0.4993 -0.2116 -0.4395
11151TIP3    H133414   2.433   1.306   0.603  1.2606  0.7935  1.0032
11151TIP3    H233415   2.481   1.228   0.723  0.0640 -1.6994 -0.1073
11152TIP3   OH233416   4.562   3.082   5.880 -0.3334 -0.1347  0.5496
11152TIP3    H133417   4.578   3.092   5.973 -0.1054  1.0419  0.3832
11152TIP3    H233418   4.534   3.169   5.850 -0.9021 -0.6203 -0.3753
11153TIP3   OH233419   1.032   6.456   3.157  0.3831 -0.2909  0.1266
11153TIP3    H133420   0.990   6.372   3.179  0.4539 -0.6664 -1.1149
11153TIP3    H233421   1.043   6.500   3.241 -0.0761 -1.3342  0.7488
11154TIP3   OH233422   0.512   6.826   1.823 -0.1967  0.1558 -0.1430
11154TIP3    H133423   0.538   6.901   1.769 -0.0489 -0.4222 -0.8914
11154TIP3    H233424   0.588   6.768   1.819 -0.9440 -0.7709 -0.9242
11155TIP3   OH233425   2.976   0.237   1.261 -0.2803 -0.0825 -0.9179
11155TIP3    H133426   2.967   0.323   1.303  0.2755 -0.3263 -0.2933
11155TIP3    H233427   2.903   0.233   1.200 -1.1376  0.2522  0.0658
11156TIP3   OH233428   0.729   1.543   0.187 -0.0086 -0.0390 -0.0581
11156TIP3    H133429   0.695   1.500   0.108 -0.5389  0.9302 -0.3691
11156TIP3    H233430   0.812   1.582   0.160 -0.0315  0.0121 -0.0564
11157TIP3   OH233431   1.687   6.856   2.638  0.4373  0.5485 -0.1531
11157TIP3    H133432   1.622   6.807   2.689  0.7681  0.6952  0.4064
11157TIP3    H233433   1.645   6.868   2.553  0.3663 -0.7290 -0.3064
11158TIP3   OH233434   7.558   2.543   6.117  0.1266 -0.2214  0.3394
11158TIP3    H133435   7.591   2.478   6.055  1.2062 -0.0713  0.7398
11158TIP3    H233436   7.555   2.625   6.067  0.8541 -0.1310  0.4429
11159TIP3   OH233437   1.455   6.858   3.338  0.7103 -0.2796  0.4225
11159TIP3    H133438   1.512   6.863   3.262  1.0588 -0.8557  0.6406
11159TIP3    H233439   1.489   6.924   3.398  1.4655 -0.9525  0.7540
11160TIP3   OH233440   0.649   6.550   1.101  0.1853  0.2989  0.2951
11160TIP3    H133441   0.571   6.577   1.053  0.3626  0.6687  0.2126
11160TIP3    H233442   0.716   6.613   1.076  0.8581 -0.7546 -0.5949
11161TIP3   OH233443   4.120   0.923   0.864 -0.4811 -0.2457  0.3084
11161TIP3    H133444   4.165   0.886   0.940  1.1377  0.0281 -0.4839
11161TIP3    H233445   4.103   0.848   0.807  0.5100 -0.1377 -0.1469
11162TIP3   OH233446   2.427   4.818   3.109  0.0051  0.0358  0.0162
11162TIP3    H133447   2.391   4.844   3.193  0.7008  0.7323  0.0965
11162TIP3    H233448   2.429   4.898   3.056 -0.3005 -0.3664 -0.6132
11163TIP3   OH233449   1.854   5.674   2.213 -0.1081  0.8115 -0.3007
11163TIP3    H133450   1.905   5.619   2.153 -0.3524  1.7414 -1.3668
11163TIP3    H233451   1.795   5.613   2.257 -0.3590  0.2111 -1.4513
11164TIP3   OH233452   4.678   2.203   0.879  0.2558  0.3062 -0.6298
11164TIP3    H133453   4.679   2.168   0.789 -0.5360 -1.8054  0.1626
11164TIP3    H233454   4.725   2.138   0.931 -2.0924 -0.1002  1.0536
11165TIP3   OH233455   4.523   0.701   1.440 -0.6421  0.6683 -0.0303
11165TIP3    H133456   4.485   0.702   1.352  0.0355  0.8077 -0.3241
11165TIP3    H233457   4.478   0.629   1.485  0.6936 -0.9469 -1.2342
11166TIP3   OH233458   4.355   7.220   1.379  0.6097  0.1647  0.0698
11166TIP3    H133459   4.318   7.305   1.354  0.8934 -0.4936 -2.6327
11166TIP3    H233460   4.439   7.243   1.421  0.4067  1.2499 -0.1032
11167TIP3   OH233461   1.718   6.164   0.991 -0.0161  0.2159  0.1072
11167TIP3    H133462   1.707   6.190   1.082 -0.5930  2.4442 -0.5603
11167TIP3    H233463   1.631   6.174   0.952  0.3007 -0.3663 -0.7822
11168TIP3   OH233464   5.943   2.429   6.225 -0.1428 -0.0311  0.3694
11168TIP3    H133465   5.907   2.465   6.306 -2.1356 -1.2913  0.0862
11168TIP3    H233466   5.886   2.463   6.156  1.2008  0.5746 -0.4799
11169TIP3   OH233467   6.231   3.159   5.200 -0.5402 -0.4214  0.2055
11169TIP3    H133468   6.295   3.220   5.236  0.3447 -1.3874  0.3240
11169TIP3    H233469   6.209   3.195   5.114 -1.3714  0.9854  0.9903
11170TIP3   OH233470   2.884   7.200   0.279 -0.3700  0.3391  0.1889
11170TIP3    H133471   2.856   7.279   0.233 -2.0099  0.5379  1.4389
11170TIP3    H233472   2.802   7.154   0.300  0.5795 -1.9811 -0.9760
11171TIP3   OH233473   5.107   2.386   5.836 -0.1570  0.2460  0.1288
11171TIP3    H133474   5.150   2.420   5.758 -1.1861  1.5408  0.1128
11171TIP3    H233475   5.051   2.315   5.803 -0.5919  0.7930 -0.3013
11172TIP3   OH233476   7.677   2.016   5.807 -0.0299  0.1599  0.7186
11172TIP3    H133477   7.704   1.977   5.889  0.3487  0.0908  0.5624
11172TIP3    H233478   7.582   2.025   5.814  0.1305  1.2090  1.6255
11173TIP3   OH233479   1.409   6.631   4.306 -0.0029  0.2258 -0.4104
11173TIP3    H133480   1.404   6.576   4.384 -1.0334  0.0380 -0.5907
11173TIP3    H233481   1.431   6.570   4.235 -0.8636  0.0786 -0.5618
11174TIP3   OH233482   3.791   0.393   1.327 -0.3708  0.1888 -0.1397
11174TIP3    H133483   3.781   0.485   1.303 -0.4186  0.1105 -0.4212
11174TIP3    H233484   3.771   0.345   1.247 -1.2757 -0.1029  0.2520
11175TIP3   OH233485   0.053   6.080   0.057 -0.5708  0.3271 -0.0550
11175TIP3    H133486   0.087   6.007   0.109 -1.0655  1.4216  1.8520
11175TIP3    H233487   0.115   6.088  -0.016 -0.5791 -2.0531 -0.3702
11176TIP3   OH233488   0.873   4.108   5.110  0.0608 -0.3539  0.2174
11176TIP3    H133489   0.883   4.190   5.061 -3.1468  0.2396  0.4414
11176TIP3    H233490   0.816   4.054   5.054  0.3549 -1.5940  1.0924
11177TIP3   OH233491   7.746   2.800   5.647  0.0255 -0.0197  0.2145
11177TIP3    H133492   7.802   2.865   5.689 -2.1138  1.6189  0.6125
11177TIP3    H233493   7.658   2.820   5.680 -0.9962 -1.6831 -1.4333
11178TIP3   OH233494   2.616   6.499   2.512 -0.5472  0.1818 -0.3062
11178TIP3    H133495   2.677   6.495   2.439  1.6854 -1.3152  1.5612
11178TIP3    H233496   2.579   6.411   2.518 -1.2523  0.4899 -0.0852
11179TIP3   OH233497   4.246   0.331   0.050  0.0105  0.0574 -0.0493
11179TIP3    H133498   4.310   0.261   0.041 -1.0623 -0.9187 -0.1754
11179TIP3    H233499   4.193   0.306   0.126 -0.0837  0.9745  0.2009
11180TIP3   OH233500   0.820   6.956   0.889 -0.1238  0.8874  0.2037
11180TIP3    H133501   0.729   6.959   0.857 -0.6019  0.3960  1.4943
11180TIP3    H233502   0.839   7.046   0.915  0.2959  1.3155 -1.4746
11181TIP3   OH233503   2.581   4.223   0.922 -0.4942 -0.2949  0.0379
11181TIP3    H133504   2.571   4.314   0.892 -1.3936  0.2006  1.7475
11181TIP3    H233505   2.505   4.178   0.885 -1.4963  0.2679  1.3863
11182TIP3   OH233506   1.273   6.873   1.139 -0.3965 -0.2595  0.8855
11182TIP3    H133507   1.180   6.897   1.131 -0.1101  0.4943 -0.4506
11182TIP3    H233508   1.320   6.954   1.118  0.5735 -0.8788  0.6443
11183TIP3   OH233509   3.030   5.425   1.034 -0.2419  0.3456 -0.4088
11183TIP3    H133510   3.019   5.330   1.040 -1.7016  0.5864  1.1267
11183TIP3    H233511   2.969   5.452   0.965 -0.8107  0.3184  0.0803
11184TIP3   OH233512   3.935   0.763   1.205  0.5262  0.3289  0.0215
11184TIP3    H133513   4.025   0.757   1.174  0.2946 -1.6178 -0.3346
11184TIP3    H233514   3.942   0.796   1.295  1.5825  0.0817  0.0317
11185TIP3   OH233515   1.528   5.097   6.165 -0.6516 -0.2266 -0.2538
11185TIP3    H133516   1.510   5.158   6.094 -1.5999  0.2269  0.3670
11185TIP3    H233517   1.444   5.055   6.182  0.1399 -2.2413 -1.1601
11186TIP3   OH233518   0.225   3.983   4.982  0.7514 -0.7908  0.5943
11186TIP3    H133519   0.193   4.068   4.951  3.0412 -0.2587 -0.3542
11186TIP3    H233520   0.189   3.919   4.920  0.8082 -0.2913  0.0493
11187TIP3   OH233521   7.753   6.687   0.493 -0.4281  0.6966  0.1058
11187TIP3    H133522   7.782   6.690   0.402  2.4949  2.6181  1.0313
11187TIP3    H233523   7.710   6.602   0.502 -0.2183  0.2294 -2.8782
11188TIP3   OH233524   4.693   3.491   0.523  0.2589  0.5065  0.2000
11188TIP3    H133525   4.609   3.481   0.569 -0.1906 -0.0940 -0.7559
11188TIP3    H233526   4.687   3.577   0.483 -0.5290 -0.1610 -1.1407
11189TIP3   OH233527   5.268   0.390   0.765  0.5426  0.2500 -0.7235
11189TIP3    H133528   5.202   0.449   0.728  0.9217 -0.3141 -2.3346
11189TIP3    H233529   5.269   0.411   0.858 -1.5365  0.6391 -0.7609
11190TIP3   OH233530   4.359   1.694   1.234  0.5779  0.1002 -0.8259
11190TIP3    H133531   4.390   1.630   1.298 -0.5136 -0.6568 -1.0450
11190TIP3    H233532   4.402   1.776   1.260 -0.7730  0.0728  1.6309
11191TIP3   OH233533   4.247   5.834   0.333  0.0344 -0.0846 -0.2005
11191TIP3    H133534   4.154   5.826   0.357  0.2916 -2.3251  0.1293
11191TIP3    H233535   4.280   5.905   0.388 -1.3809  0.4920 -0.0582
11192TIP3   OH233536   3.910   1.747   0.204 -0.0046 -0.1512  0.4407
11192TIP3    H133537   3.900   1.799   0.284  1.4325 -1.1242  1.2903
11192TIP3    H233538   3.894   1.657   0.232  0.1213 -0.4597 -0.4566
11193TIP3   OH233539   5.975   5.015   5.598 -0.3645 -0.8349  0.0089
11193TIP3    H133540   5.979   4.942   5.660 -0.2997 -1.3095 -0.5486
11193TIP3    H233541   6.061   5.056   5.603 -0.3781 -0.8339  0.2708
11194TIP3   OH233542   4.968   1.528   0.013  0.2379  0.4712  0.0181
11194TIP3    H133543   4.971   1.432   0.016  0.8123  0.4818 -0.2716
11194TIP3    H233544   4.958   1.554   0.105 -1.3509  0.0882 -0.0208
11195TIP3   OH233545   4.701   0.832   1.896  0.5511  0.3827 -0.0259
11195TIP3    H133546   4.650   0.904   1.934  2.7452  0.7848  2.3251
11195TIP3    H233547   4.775   0.821   1.956  1.4857 -2.3361 -1.5800
11196TIP3   OH233548   3.502   4.478   0.616 -0.5916 -0.2576  0.3142
11196TIP3    H133549   3.484   4.538   0.544 -0.4892 -0.7493 -0.1259
11196TIP3    H233550   3.459   4.396   0.591 -0.1570 -0.5773  0.5847
11197TIP3   OH233551   1.560   4.753   2.185 -0.3823 -0.5287  0.2060
11197TIP3    H133552   1.554   4.760   2.281 -0.4688  1.7169  0.0477
11197TIP3    H233553   1.509   4.827   2.153 -0.4471 -1.3463 -1.5947
11198TIP3   OH233554   1.881   6.975   2.308 -0.4296 -0.1702 -0.2674
11198TIP3    H133555   1.850   7.008   2.224  2.7464  0.7309 -1.1841
11198TIP3    H233556   1.876   6.879   2.299 -1.4113 -0.0554 -0.9734
11199TIP3   OH233557   6.366   3.646   6.180 -0.5517 -0.2528 -0.0058
11199TIP3    H133558   6.352   3.714   6.247  0.6637  0.7700 -0.7717
11199TIP3    H233559   6.298   3.662   6.116 -1.4129 -0.9214  0.7348
11200TIP3   OH233560   5.443   2.010   1.367  0.4309  0.5208  0.4793
11200TIP3    H133561   5.397   2.093   1.350  1.2321  0.9045  0.1258
11200TIP3    H233562   5.466   2.014   1.460 -2.6603 -0.9126  1.3592
11201TIP3   OH233563   6.004   7.253   0.950 -0.3410 -0.1199 -0.2496
11201TIP3    H133564   6.050   7.334   0.929 -0.6879  0.2838  0.5090
11201TIP3    H233565   6.073   7.189   0.965 -0.0546  0.1344 -0.4891
11202TIP3   OH233566   7.421   1.789   4.200 -0.1697 -0.2868  0.0168
11202TIP3    H133567   7.359   1.748   4.261  1.3310 -1.3706  0.8401
11202TIP3    H233568   7.504   1.790   4.247  0.4777  1.0827 -1.1090
11203TIP3   OH233569   6.527   1.386   2.403  0.1055 -0.2640 -0.7619
11203TIP3    H133570   6.569   1.466   2.435  1.4260 -0.8012 -1.1448
11203TIP3    H233571   6.587   1.352   2.337 -1.8360 -0.0206 -2.6816
11204TIP3   OH233572   0.601   0.681   1.804 -0.3468 -0.2395  0.1786
11204TIP3    H133573   0.574   0.662   1.714  0.8148  2.2139 -0.7208
11204TIP3    H233574   0.670   0.747   1.796  0.9110 -1.1411  2.7960
11205TIP3   OH233575   0.848   2.522   2.778 -0.0039 -0.0547  0.0809
11205TIP3    H133576   0.894   2.447   2.740  2.0159  0.3113  1.6975
11205TIP3    H233577   0.850   2.506   2.872 -2.2902  0.5204  0.2462
11206TIP3   OH233578   7.691   4.196   1.658  0.1415 -0.5956  0.3600
11206TIP3    H133579   7.604   4.233   1.674 -0.4397 -2.4504  1.6618
11206TIP3    H233580   7.716   4.155   1.742  0.9681 -2.6650 -0.8580
11207TIP3   OH233581   0.083   1.483   2.320 -0.0727 -0.3216 -0.4140
11207TIP3    H133582   0.082   1.558   2.379 -0.9754 -0.4094 -0.3027
11207TIP3    H233583   0.173   1.479   2.286  0.0880  0.5400 -0.0893
11208TIP3   OH233584   6.197   2.263   1.276  0.0997  0.0018  0.1708
11208TIP3    H133585   6.172   2.278   1.367 -0.7888 -1.3165  0.1447
11208TIP3    H233586   6.126   2.301   1.224 -0.8222 -1.7865  0.0771
11209TIP3   OH233587   7.105   3.861   0.633  0.3666  0.6781  0.4639
11209TIP3    H133588   7.080   3.953   0.643  2.5666  1.3242  0.4275
11209TIP3    H233589   7.093   3.824   0.720 -2.7929  0.3666 -0.0527
11210TIP3   OH233590   7.461   0.326   3.643  0.2419  0.1527 -0.2742
11210TIP3    H133591   7.480   0.378   3.722 -1.3490  0.3301  0.0196
11210TIP3    H233592   7.388   0.373   3.602  0.0335 -0.8249 -1.0112
11211TIP3   OH233593   6.746   1.608   3.279  0.4603 -0.0725  0.5593
11211TIP3    H133594   6.675   1.579   3.336  2.2892 -1.6713  2.0676
11211TIP3    H233595   6.753   1.539   3.213  0.1253  0.4727 -0.0595
11212TIP3   OH233596   6.568   6.966   2.165 -0.2220 -0.0830 -0.3669
11212TIP3    H133597   6.559   7.029   2.094 -0.9478 -0.5932 -0.7316
11212TIP3    H233598   6.482   6.965   2.207 -0.7128 -2.0351 -1.3744
11213TIP3   OH233599   6.692   0.051   3.546  0.2404  0.3983 -0.6035
11213TIP3    H133600   6.632   0.125   3.540 -0.8596 -0.4938 -0.8399
11213TIP3    H233601   6.662  -0.009   3.477 -0.5180 -1.4044  1.2431
11214TIP3   OH233602   0.890   0.248   0.261  0.2573 -0.2263 -0.4986
11214TIP3    H133603   0.941   0.310   0.210 -1.0933  0.1573 -1.4209
11214TIP3    H233604   0.803   0.251   0.221 -0.4019 -1.0676  0.8561
11215TIP3   OH233605   6.971   2.482   0.296  0.2130  0.4924 -0.0828
11215TIP3    H133606   6.976   2.548   0.365 -0.9954 -0.6815  1.1655
11215TIP3    H233607   7.032   2.414   0.322 -1.9637 -1.0790  1.1202
11216TIP3   OH233608   7.750   2.497   3.085  0.2634 -0.6239 -0.7390
11216TIP3    H133609   7.718   2.537   3.166  0.1716  0.6322 -1.3699
11216TIP3    H233610   7.835   2.460   3.108  0.4942  0.2272 -0.1975
11217TIP3   OH233611   2.530   4.974   6.106 -0.2601 -0.0378  0.0323
11217TIP3    H133612   2.602   4.911   6.109  0.8458  1.1441 -1.0840
11217TIP3    H233613   2.480   4.949   6.029  0.6517  0.9294 -0.8910
11218TIP3   OH233614   0.326   2.637   3.283  0.1459 -0.1583 -0.1446
11218TIP3    H133615   0.271   2.640   3.361  1.1191 -0.7516  0.5766
11218TIP3    H233616   0.297   2.559   3.236 -1.4146  0.9713 -1.1331
11219TIP3   OH233617   6.684   0.765   3.531  0.1618  0.2683  0.4403
11219TIP3    H133618   6.656   0.710   3.604  2.8556 -1.5383  0.1981
11219TIP3    H233619   6.752   0.821   3.569  2.6014 -1.6790 -0.9585
11220TIP3   OH233620   6.567   7.274   2.044  0.3487  0.2934  0.1875
11220TIP3    H133621   6.589   7.341   2.110 -1.1707  1.2440 -0.2374
11220TIP3    H233622   6.540   7.325   1.967  0.6183 -0.8190 -0.6455
11221TIP3   OH233623   6.865   0.166   2.367  0.2766 -0.3101 -0.1506
11221TIP3    H133624   6.881   0.256   2.397  0.3074 -0.5328  0.5073
11221TIP3    H233625   6.909   0.111   2.432 -0.2929 -0.8255 -0.1992
11222TIP3   OH233626   7.743   0.233   1.963  0.5036  0.0847  0.5965
11222TIP3    H133627   7.720   0.265   2.050  0.1089 -1.2303  0.9839
11222TIP3    H233628   7.698   0.149   1.955 -0.2345  0.6242 -1.2383
11223TIP3   OH233629   3.498   3.837   5.244  0.2158 -0.5741 -0.2713
11223TIP3    H133630   3.406   3.858   5.228 -0.2808 -0.3228  2.7068
11223TIP3    H233631   3.544   3.919   5.225 -0.6012  0.3481  1.5250
11224TIP3   OH233632   7.634   2.547   1.997 -0.2184 -0.0356  0.4256
11224TIP3    H133633   7.626   2.534   1.903  1.4472  1.1203  0.1067
11224TIP3    H233634   7.616   2.461   2.036 -0.9000 -0.5147 -0.9330
11225TIP3   OH233635   6.879   6.958   3.305 -0.3679  0.5472 -0.1888
11225TIP3    H133636   6.886   6.951   3.400 -2.6179  1.0699  0.0334
11225TIP3    H233637   6.917   7.043   3.284  1.0976 -0.0137  0.1046
11226TIP3   OH233638   6.401   5.105   1.107  0.0027  0.6172 -0.2989
11226TIP3    H133639   6.445   5.059   1.179 -1.8809  0.6150  0.8893
11226TIP3    H233640   6.471   5.149   1.060  1.5619 -1.4273  0.0372
11227TIP3   OH233641   7.599   0.887   2.265 -0.6515 -0.3533  0.2779
11227TIP3    H133642   7.537   0.959   2.277  0.1154  0.2526  0.5902
11227TIP3    H233643   7.546   0.818   2.224 -1.4716  0.2525  0.2862
11228TIP3   OH233644   0.008   4.441   1.742 -0.0335  0.1587 -0.4416
11228TIP3    H133645   0.098   4.475   1.751  0.0051 -0.6583  2.6620
11228TIP3    H233646   0.018   4.358   1.696  0.5451  1.1164 -2.0964
11229TIP3   OH233647   0.440   2.591   1.764  0.6782 -0.0456  0.9182
11229TIP3    H133648   0.512   2.550   1.715 -0.0871 -1.7874  1.2015
11229TIP3    H233649   0.466   2.585   1.856 -0.9848 -3.1586  1.2571
11230TIP3   OH233650   6.606   0.561   1.352 -0.0366  0.2535 -0.5488
11230TIP3    H133651   6.571   0.649   1.361 -0.0094  0.0607  1.6877
11230TIP3    H233652   6.698   0.574   1.330  0.4411  0.8343  1.6311
11231TIP3   OH233653   7.203   0.213   1.409  0.2715 -0.0673  0.4215
11231TIP3    H133654   7.252   0.171   1.481  0.4238  0.8962  0.8905
11231TIP3    H233655   7.116   0.173   1.413  0.6403 -0.8893  0.3789
11232TIP3   OH233656   0.935   1.448   1.483 -0.0510  0.1686 -0.0910
11232TIP3    H133657   0.964   1.358   1.469 -0.5344  0.1006 -0.6379
11232TIP3    H233658   0.934   1.487   1.396 -0.2543  0.5812  0.0948
11233TIP3   OH233659   7.653   7.247   2.367 -0.0078  0.2486  0.0418
11233TIP3    H133660   7.679   7.233   2.458 -0.4532 -0.0012  0.1302
11233TIP3    H233661   7.577   7.305   2.372 -0.2979 -0.1140 -0.1487
11234TIP3   OH233662   5.047   4.273   6.272 -0.0419  0.3630 -0.4934
11234TIP3    H133663   4.964   4.277   6.321  0.0648  0.4407 -0.3191
11234TIP3    H233664   5.026   4.312   6.187  0.1117  1.4601 -0.0380
11235TIP3   OH233665   1.322   0.162   1.362  0.0079  0.0335 -0.2788
11235TIP3    H133666   1.252   0.200   1.415 -0.3556 -1.5320  0.3965
11235TIP3    H233667   1.403   0.185   1.408 -0.3078 -1.3292  1.0060
11236TIP3   OH233668   6.507   0.416   2.331  0.0390 -0.5914 -0.1230
11236TIP3    H133669   6.508   0.509   2.308  0.9081 -0.6185 -0.2045
11236TIP3    H233670   6.418   0.400   2.362 -0.1066  0.2706 -0.0882
11237TIP3   OH233671   5.795   2.505   5.996 -0.1863 -0.2058 -0.1621
11237TIP3    H133672   5.865   2.466   5.944  0.3311 -1.6928  1.5734
11237TIP3    H233673   5.717   2.455   5.972 -0.3988  0.5635 -1.1063
11238TIP3   OH233674   4.240   6.959   2.030 -0.3757  0.2641  0.1281
11238TIP3    H133675   4.205   7.040   1.994  0.3317  0.2429 -0.6482
11238TIP3    H233676   4.260   6.979   2.121 -2.3839  0.2659  0.5856
11239TIP3   OH233677   5.161   5.540   4.892 -0.6326  0.1103 -0.0902
11239TIP3    H133678   5.151   5.608   4.960 -1.1602 -0.8776  0.8250
11239TIP3    H233679   5.255   5.522   4.891 -0.4663  0.9544 -0.4431
11240TIP3   OH233680   7.234   1.166   4.137  0.0003  0.4308  0.3328
11240TIP3    H133681   7.236   1.114   4.057 -0.9150  2.7164 -1.2167
11240TIP3    H233682   7.301   1.126   4.193  0.1626 -1.6237 -1.2688
11241TIP3   OH233683   7.486   0.093   0.307  0.3934 -0.6143 -0.1996
11241TIP3    H133684   7.504   0.008   0.348  3.1305  0.1857  0.4001
11241TIP3    H233685   7.561   0.106   0.248 -0.7244  0.7532 -1.3350
11242TIP3   OH233686   7.746   1.437   1.532 -0.4645  0.0482 -0.1906
11242TIP3    H133687   7.777   1.364   1.477  1.3328  0.8276 -0.2561
11242TIP3    H233688   7.754   1.514   1.476 -0.5831  0.5583  0.4956
11243TIP3   OH233689   6.948   0.386   2.504 -0.5523  0.7982 -0.3135
11243TIP3    H133690   6.961   0.465   2.452  1.4297  0.3686 -0.5096
11243TIP3    H233691   6.983   0.409   2.591  0.5749 -0.0197 -0.5347
11244TIP3   OH233692   7.318   6.574   0.074  0.3735  0.1441  0.3881
11244TIP3    H133693   7.310   6.614   0.160 -2.7837 -0.9903  0.6999
11244TIP3    H233694   7.314   6.480   0.091 -0.2472 -0.0894 -0.9665
11245TIP3   OH233695   1.411   2.168   2.309  0.0903  0.2956  0.2873
11245TIP3    H133696   1.504   2.172   2.333  0.0628 -1.3194  0.7447
11245TIP3    H233697   1.364   2.200   2.385  0.1291 -2.2655  1.4392
11246TIP3   OH233698   6.188   0.515   0.802 -0.0579 -0.6305 -0.5651
11246TIP3    H133699   6.110   0.528   0.856  0.3176 -1.3395  0.1699
11246TIP3    H233700   6.195   0.420   0.793 -0.5367 -0.5025 -2.5135
11247TIP3   OH233701   4.022   5.850   0.927  0.1439 -0.5383 -0.3164
11247TIP3    H133702   4.027   5.769   0.876  2.5984 -0.5238 -0.1352
11247TIP3    H233703   4.072   5.832   1.006  0.3804  1.0334 -0.1022
11248TIP3   OH233704   0.793   1.258   3.874 -0.0653  0.1187 -0.0545
11248TIP3    H133705   0.770   1.331   3.817  1.8710 -0.0374 -1.0755
11248TIP3    H233706   0.863   1.213   3.828 -2.0593 -3.1686 -0.0387
11249TIP3   OH233707   1.107   5.124   2.479 -0.2811  0.3803 -0.2169
11249TIP3    H133708   1.015   5.116   2.453  0.2853  1.5247 -2.7585
11249TIP3    H233709   1.131   5.037   2.511 -1.2009 -1.0093 -3.1688
11250TIP3   OH233710   7.390   1.204   2.107 -0.4319  0.1029  0.5430
11250TIP3    H133711   7.402   1.150   2.185 -0.0535  1.1857  1.2492
11250TIP3    H233712   7.305   1.246   2.119  0.2315  1.3244  1.0325
11251TIP3   OH233713   2.381   2.717   0.597 -0.1363 -0.1490  0.5535
11251TIP3    H133714   2.323   2.656   0.552  0.3973 -1.3222  1.4372
11251TIP3    H233715   2.353   2.714   0.688 -1.2541  2.2609  0.3143
11252TIP3   OH233716   1.643   1.250   2.049 -0.7941 -0.4963  0.1457
11252TIP3    H133717   1.603   1.164   2.036  0.1296 -1.3843  2.7674
11252TIP3    H233718   1.640   1.264   2.144 -0.4844  2.1577 -0.1913
11253TIP3   OH233719   6.807   6.627   1.138 -0.2686  0.1203 -0.1671
11253TIP3    H133720   6.784   6.567   1.067 -2.6677 -1.6477  1.9961
11253TIP3    H233721   6.839   6.570   1.208  1.9363  1.8242  0.2744
11254TIP3   OH233722   4.492   7.056   1.659 -0.0632 -0.4528 -0.1178
11254TIP3    H133723   4.525   7.040   1.748 -0.2488 -0.7681 -0.1044
11254TIP3    H233724   4.482   6.968   1.622  0.1906 -0.3155 -0.5161
11255TIP3   OH233725   4.760   5.856   3.398  0.0697  0.3822 -0.2433
11255TIP3    H133726   4.796   5.944   3.391  0.1385  0.4714  1.1644
11255TIP3    H233727   4.805   5.817   3.473 -1.7528  0.0283  0.7173
11256TIP3   OH233728   7.560   5.427   2.299  0.5666  0.5410 -0.2979
11256TIP3    H133729   7.515   5.508   2.325  1.2305  0.4995  0.9986
11256TIP3    H233730   7.541   5.366   2.370  2.1368  0.3296 -0.0556
11257TIP3   OH233731   1.512   0.058   1.661  0.1536 -0.5488  0.0540
11257TIP3    H133732   1.593   0.035   1.708 -0.9999 -0.5842  2.0924
11257TIP3    H233733   1.532   0.142   1.619  0.9116  0.0082  1.4782
11258TIP3   OH233734   4.981   7.214   0.428  0.2097 -0.4172  0.4025
11258TIP3    H133735   5.010   7.207   0.519 -0.4500 -1.4487  0.5406
11258TIP3    H233736   4.970   7.124   0.399  2.0631 -0.1601 -1.2551
11259TIP3   OH233737   7.454   2.976   1.129  0.1693 -0.7634  0.1173
11259TIP3    H133738   7.453   2.891   1.084  2.6397 -0.3154 -0.8400
11259TIP3    H233739   7.368   3.014   1.110 -0.1510 -2.1154 -1.2239
11260TIP3   OH233740   4.626   6.995   0.750 -0.1729 -0.0026  0.1250
11260TIP3    H133741   4.645   7.064   0.814 -1.4170  0.3255  0.1562
11260TIP3    H233742   4.653   6.914   0.794 -3.5263 -0.0924  2.2110
11261TIP3   OH233743   7.767   0.470   1.007  0.1125  0.2190 -0.0295
11261TIP3    H133744   7.687   0.448   1.055 -0.6996 -0.0501 -1.4743
11261TIP3    H233745   7.813   0.387   0.996  1.1733  0.5424  1.7973
11262TIP3   OH233746   5.754   7.033   2.770 -0.3267 -0.2214 -0.0240
11262TIP3    H133747   5.708   7.057   2.851  0.4405 -0.8370  0.6070
11262TIP3    H233748   5.846   7.029   2.796 -0.1711 -1.2463 -0.7351
11263TIP3   OH233749   1.780   7.347   2.155  0.6071 -0.2928 -0.5533
11263TIP3    H133750   1.711   7.286   2.178 -0.2878  1.5150  1.6824
11263TIP3    H233751   1.824   7.306   2.080 -2.2803 -1.8868 -1.4349
11264TIP3   OH233752   6.126   1.066   3.442 -0.0311 -0.5214  0.7319
11264TIP3    H133753   6.143   1.111   3.525  1.0624 -0.5965  0.5588
11264TIP3    H233754   6.212   1.033   3.415 -0.5682 -1.4389  0.1179
11265TIP3   OH233755   5.912   0.823   4.845  0.3508  0.3803 -0.3916
11265TIP3    H133756   5.975   0.779   4.901  1.1439  0.6970 -1.0253
11265TIP3    H233757   5.962   0.850   4.768 -0.5234  0.7495 -0.8457
11266TIP3   OH233758   0.598   1.629   2.487 -0.0977 -0.4501  0.4778
11266TIP3    H133759   0.670   1.692   2.486 -1.3180  0.9877  1.0804
11266TIP3    H233760   0.607   1.581   2.404  0.1709  1.2975 -0.5269
11267TIP3   OH233761   0.377   0.920   1.616 -0.4766  0.4430  0.2359
11267TIP3    H133762   0.461   0.938   1.660 -0.3157 -1.3037  0.6785
11267TIP3    H233763   0.311   0.937   1.683 -0.4189  0.8161  0.1994
11268TIP3   OH233764   0.714   0.307   1.870  0.3836 -0.6513  0.1021
11268TIP3    H133765   0.761   0.278   1.949 -1.4901 -0.9501  1.1380
11268TIP3    H233766   0.733   0.240   1.805 -0.6956 -2.1717  1.3005
11269TIP3   OH233767   1.058   0.639   1.158 -0.0705  0.0430 -0.8208
11269TIP3    H133768   1.111   0.702   1.109 -0.2985 -0.1971 -1.3769
11269TIP3    H233769   0.977   0.631   1.108 -1.1694  1.3763  0.6952
11270TIP3   OH233770   7.574   1.324   1.222  0.1633 -0.0152 -0.3732
11270TIP3    H133771   7.523   1.333   1.302  1.3595 -0.4965  0.4571
11270TIP3    H233772   7.658   1.288   1.251  0.7100  0.0788 -1.8059
11271TIP3   OH233773   0.571   0.428   1.589 -0.5972 -0.1607  0.4328
11271TIP3    H133774   0.579   0.391   1.677  2.5795 -1.0714 -0.1759
11271TIP3    H233775   0.508   0.371   1.545 -1.1951 -0.4963  1.6888
11272TIP3   OH233776   0.968   0.512   0.762  0.0594 -0.9062  0.0663
11272TIP3    H133777   0.925   0.449   0.820 -1.7389 -0.6140 -0.9085
11272TIP3    H233778   1.007   0.459   0.693  0.4175 -1.1016  0.4178
11273TIP3   OH233779   4.197   4.243   6.298 -0.1548  0.5137 -0.3281
11273TIP3    H133780   4.111   4.285   6.305 -1.2963 -1.8833  0.3699
11273TIP3    H233781   4.234   4.253   6.386  0.5813  2.0943 -0.7919
11274TIP3   OH233782   6.997   2.572   5.050 -0.2626  0.1879 -0.4642
11274TIP3    H133783   6.927   2.577   4.985 -1.5626 -1.8328  0.7384
11274TIP3    H233784   6.987   2.486   5.090  2.8531 -0.0969 -0.1614
11275TIP3   OH233785   1.212   2.565   1.399  0.0148 -0.0664  0.1499
11275TIP3    H133786   1.285   2.521   1.357  0.1241 -0.5784  0.8764
11275TIP3    H233787   1.168   2.497   1.450  1.0444  0.9415  2.4468
11276TIP3   OH233788   0.598   1.020   1.756  0.3263 -0.8044  0.1579
11276TIP3    H133789   0.588   1.095   1.815  0.7703 -0.3175 -0.3814
11276TIP3    H233790   0.688   0.989   1.772  0.6101 -0.3705 -0.6219
11277TIP3   OH233791   2.163   0.186   2.949  0.1599  0.1671  0.7049
11277TIP3    H133792   2.165   0.257   3.013 -1.2797 -0.1057  1.0749
11277TIP3    H233793   2.169   0.106   3.002 -1.8592 -0.0881  0.5834
11278TIP3   OH233794   0.168   2.948   1.332 -0.7345  0.0508 -0.7149
11278TIP3    H133795   0.106   2.891   1.286 -0.0069  0.7055 -2.5352
11278TIP3    H233796   0.141   3.037   1.308  0.7092  0.3503 -1.2897
11279TIP3   OH233797   1.527   7.096   0.249  0.3054  0.2128 -0.5705
11279TIP3    H133798   1.525   7.011   0.205  0.2296 -0.4741  0.7389
11279TIP3    H233799   1.613   7.100   0.290  0.0768  0.4892 -0.1091
11280TIP3   OH233800   1.979   3.337   0.804  0.2797 -0.1988 -0.0178
11280TIP3    H133801   2.011   3.345   0.894 -0.8139  2.7780  0.1696
11280TIP3    H233802   1.886   3.360   0.810  0.1812 -0.0321 -1.8915
11281TIP3   OH233803   1.044   7.199   0.659 -0.3055 -0.3280 -0.5627
11281TIP3    H133804   1.073   7.146   0.585 -1.1977 -0.6981 -0.6566
11281TIP3    H233805   1.004   7.276   0.618 -0.4648 -0.3557 -0.4583
11282TIP3   OH233806   0.726   0.841  -0.008 -0.0351 -0.3378 -0.3058
11282TIP3    H133807   0.778   0.911   0.031 -1.5805  0.6182  0.0769
11282TIP3    H233808   0.695   0.789   0.067 -1.2324  0.2503 -0.3750
11283TIP3   OH233809   0.436   0.659   2.034 -0.0586 -0.6619 -0.0754
11283TIP3    H133810   0.380   0.737   2.031  0.1298 -0.5167  0.1677
11283TIP3    H233811   0.496   0.670   1.960  1.0849  0.2720  0.9729
11284TIP3   OH233812   7.218   6.822   1.677  0.1754  0.1695 -0.1706
11284TIP3    H133813   7.126   6.834   1.698  0.2427 -1.6265  1.3376
11284TIP3    H233814   7.225   6.845   1.584 -1.6404  0.9784 -0.1307
11285TIP3   OH233815   4.469   5.644   5.044 -0.3494 -0.3704 -0.1085
11285TIP3    H133816   4.374   5.641   5.032 -0.2679 -0.8941 -0.6558
11285TIP3    H233817   4.502   5.571   4.991  0.5020  0.8650 -1.3015
11286TIP3   OH233818   3.163   6.098   2.976  0.1998 -0.3450  0.0714
11286TIP3    H133819   3.146   6.188   3.004  1.8896 -0.3417  1.1446
11286TIP3    H233820   3.216   6.060   3.047  0.5409 -1.8031 -0.9420
11287TIP3   OH233821   6.971   0.559   1.355 -0.8017 -0.2623 -0.2400
11287TIP3    H133822   6.909   0.632   1.354 -0.0508  0.3678 -0.7836
11287TIP3    H233823   6.969   0.525   1.266  0.0069  0.0747 -0.3880
11288TIP3   OH233824   6.470   0.814   1.371  0.1583 -0.5747 -0.3780
11288TIP3    H133825   6.511   0.888   1.326 -0.2529  0.5011  0.9648
11288TIP3    H233826   6.377   0.823   1.350 -0.1381  0.3910  1.2998
11289TIP3   OH233827   4.837   7.319   0.778  0.1216  0.1019 -0.5555
11289TIP3    H133828   4.911   7.287   0.726  0.8904  0.0576  0.5470
11289TIP3    H233829   4.874   7.391   0.830 -0.2712 -0.8266  1.0243
11290TIP3   OH233830   6.796   6.435   0.955 -0.5423  0.4894 -0.1151
11290TIP3    H133831   6.874   6.386   0.982 -1.0030  0.6895  1.6291
11290TIP3    H233832   6.778   6.404   0.866  0.5935 -0.7261  0.0574
11291TIP3   OH233833   2.984   7.036   0.076  0.2377  0.1584 -0.2985
11291TIP3    H133834   3.052   7.073   0.019  0.7906  0.1455  0.3414
11291TIP3    H233835   2.975   7.100   0.147  0.1097 -0.1939  0.0065
11292TIP3   OH233836   3.266   5.615   5.380  0.0938  0.2383 -0.8309
11292TIP3    H133837   3.360   5.603   5.386 -0.0973 -0.0026  2.7461
11292TIP3    H233838   3.254   5.710   5.375  0.4719  0.4000  1.0314
11293TIP3   OH233839  -0.008   6.697   0.211  0.3946  0.1206  0.7394
11293TIP3    H133840   0.068   6.728   0.163 -1.8860  4.4683 -0.3593
11293TIP3    H233841  -0.046   6.629   0.156  1.6391  0.2383 -0.2839
11294TIP3   OH233842   0.952   1.065   0.281 -0.4052 -0.7546  0.6241
11294TIP3    H133843   0.899   1.012   0.340  0.7131 -0.4347  1.9442
11294TIP3    H233844   1.022   1.100   0.336 -0.1022  0.6492 -0.6036
11295TIP3   OH233845   2.138   2.544   2.017 -0.7558  0.5183 -0.1273
11295TIP3    H133846   2.176   2.474   1.963  0.5028  0.6861  0.5233
11295TIP3    H233847   2.069   2.501   2.066 -0.5159 -0.0971 -0.3188
11296TIP3   OH233848   5.376   4.755   5.264  0.2685  0.0722 -0.5721
11296TIP3    H133849   5.432   4.680   5.241 -1.0127 -0.6402 -1.4234
11296TIP3    H233850   5.287   4.722   5.254 -0.3087  1.5154 -0.2541
11297TIP3   OH233851   3.953   4.582   5.840 -0.0260  0.5969 -0.2152
11297TIP3    H133852   3.903   4.521   5.786  0.6812 -0.0496 -0.1310
11297TIP3    H233853   3.976   4.533   5.919 -0.7992  1.4485  0.5603
11298TIP3   OH233854   2.571   0.976   0.662  0.3276 -0.3028 -0.3987
11298TIP3    H133855   2.513   1.051   0.644 -0.7199 -0.6956  1.2351
11298TIP3    H233856   2.638   1.012   0.720  2.6940  0.5415 -3.5606
11299TIP3   OH233857   0.927   7.236   0.234 -0.2294  0.0287  0.1921
11299TIP3    H133858   0.981   7.311   0.209  0.2687 -0.1739  0.6467
11299TIP3    H233859   0.987   7.180   0.284 -0.6651 -0.5510  0.0600
11300TIP3   OH233860   1.192   2.041   0.725 -0.6147  0.3144 -0.4828
11300TIP3    H133861   1.104   2.042   0.687 -0.9887 -0.1625  0.3368
11300TIP3    H233862   1.185   2.100   0.801 -0.8477 -1.4061  0.8757
11301TIP3   OH233863   1.557   2.606   1.177 -0.1982  0.2626 -0.6336
11301TIP3    H133864   1.583   2.612   1.085 -0.5759 -1.1882 -0.8512
11301TIP3    H233865   1.551   2.512   1.194  1.5154  0.4746  1.3579
11302TIP3   OH233866   2.169   0.141   2.079  0.3734  0.5491 -0.2835
11302TIP3    H133867   2.233   0.148   2.150  0.1839  0.8525 -0.1434
11302TIP3    H233868   2.115   0.219   2.087 -0.8845 -0.3659  0.4492
11303TIP3   OH233869   3.243   6.525   5.821 -0.2263  0.2919  0.3680
11303TIP3    H133870   3.323   6.537   5.872 -0.1519  0.7873  0.1439
11303TIP3    H233871   3.270   6.544   5.731 -0.4160 -0.3183  0.1828
11304TIP3   OH233872   7.414   6.875   0.138  0.5262  0.1664  0.1414
11304TIP3    H133873   7.398   6.822   0.216 -0.6611  0.6383  0.2345
11304TIP3    H233874   7.448   6.813   0.073  0.4571 -0.4394  0.6790
11305TIP3   OH233875   0.993   0.665   1.438  0.0587 -0.5261  0.0323
11305TIP3    H133876   1.030   0.668   1.350  0.2721  0.9396  0.1709
11305TIP3    H233877   0.899   0.651   1.424  0.4354 -2.7882 -0.3512
11306TIP3   OH233878   1.608   1.079   0.931 -0.0228 -0.4213 -0.2148
11306TIP3    H133879   1.575   1.049   1.016  1.8043  2.2174  1.4810
11306TIP3    H233880   1.671   1.012   0.905 -2.0687 -2.2993 -0.5339
11307TIP3   OH233881   1.185   0.657   0.876  0.0901 -0.2723 -0.1535
11307TIP3    H133882   1.115   0.605   0.837  0.3916 -1.8836  1.3695
11307TIP3    H233883   1.259   0.597   0.883  1.2963  1.0978 -0.7185
11308TIP3   OH233884   1.782   4.406   0.322  0.1246 -0.1159  0.1474
11308TIP3    H133885   1.716   4.351   0.364  2.0966 -2.1356  0.6603
11308TIP3    H233886   1.821   4.455   0.394 -0.4676  0.7505 -0.1047
11309TIP3   OH233887   5.944   4.111   4.070 -0.0533 -0.6132 -0.3033
11309TIP3    H133888   6.004   4.044   4.103  2.4018  1.5694 -0.1955
11309TIP3    H233889   5.913   4.156   4.148 -1.3327 -1.2989 -0.4083
11310TIP3   OH233890   3.720   2.289   0.184  0.5188  0.3198 -0.5057
11310TIP3    H133891   3.701   2.334   0.102  1.3710  1.0956 -0.2916
11310TIP3    H233892   3.812   2.310   0.202  0.2051  0.5806  0.9031
11311TIP3   OH233893   1.449   5.290   0.848 -0.3571  0.5053 -0.0722
11311TIP3    H133894   1.410   5.258   0.930  0.6910  1.0876  0.6672
11311TIP3    H233895   1.381   5.276   0.782 -0.9922 -0.5348  0.7802
11312TIP3   OH233896   2.426   0.918   4.732  0.1996 -0.1921 -0.1257
11312TIP3    H133897   2.479   0.904   4.653  0.5227 -3.1743  0.5411
11312TIP3    H233898   2.453   1.003   4.765  1.6842  0.1021 -2.0195
11313TIP3   OH233899   2.557   2.141   0.369  0.2663 -0.2851  0.0438
11313TIP3    H133900   2.630   2.079   0.368 -0.0146 -0.6063 -0.8418
11313TIP3    H233901   2.598   2.226   0.381  0.6677 -0.6223  1.1208
11314TIP3   OH233902   3.265   5.954   4.303 -0.1030 -0.3937  0.1927
11314TIP3    H133903   3.267   5.882   4.366 -0.0469 -0.8903 -0.3725
11314TIP3    H233904   3.240   5.913   4.221  0.2184  0.1834 -0.1957
11315TIP3   OH233905   6.171   5.210   5.521 -0.3807  0.2481  0.0466
11315TIP3    H133906   6.177   5.233   5.428  0.6789 -1.7395 -0.4141
11315TIP3    H233907   6.217   5.281   5.566 -2.1971  1.9988 -0.7988
11316TIP3   OH233908   5.784   6.249   5.151  0.6015 -0.2632 -0.4974
11316TIP3    H133909   5.743   6.240   5.065  2.1480  0.1283 -1.2986
11316TIP3    H233910   5.874   6.278   5.131  0.8419  0.2246  1.2612
11317TIP3   OH233911   2.197   2.495   1.188 -0.3998 -0.3595 -0.0652
11317TIP3    H133912   2.161   2.407   1.179  0.0079 -0.5602  0.3098
11317TIP3    H233913   2.165   2.541   1.110 -0.9158 -0.7297 -0.0742
11318TIP3   OH233914   7.025   4.657   5.271  0.1898 -0.0519 -0.0493
11318TIP3    H133915   7.054   4.567   5.287  1.3871  0.3592  0.1342
11318TIP3    H233916   6.987   4.685   5.354  2.0788  0.4536  0.6683
11319TIP3   OH233917   5.999   4.409   5.215 -0.9642  0.1494 -0.0406
11319TIP3    H133918   6.009   4.332   5.270 -1.8242 -0.2162 -0.3865
11319TIP3    H233919   6.078   4.461   5.232 -0.3491 -0.8283  0.1472
11320TIP3   OH233920   3.437   0.417   0.078  0.5901  0.1549 -0.2677
11320TIP3    H133921   3.382   0.387   0.005  1.3018 -0.5715 -0.5177
11320TIP3    H233922   3.460   0.507   0.055 -1.3655  0.8472  0.3703
11321TIP3   OH233923   0.756   1.450   1.737 -0.5516 -0.1250  0.1925
11321TIP3    H133924   0.806   1.441   1.656  1.1637  0.2955  1.1786
11321TIP3    H233925   0.667   1.465   1.708  0.0138 -0.0988 -1.6214
11322TIP3   OH233926   5.183   0.932   1.615 -0.5057  0.1022  0.6738
11322TIP3    H133927   5.256   0.969   1.566 -0.0031  0.9315  2.0277
11322TIP3    H233928   5.132   1.007   1.644 -0.0680 -0.2800  2.5216
11323TIP3   OH233929   4.484   4.238   6.288 -0.2260  0.1429 -0.0304
11323TIP3    H133930   4.466   4.331   6.300  1.4036  0.1793  2.6527
11323TIP3    H233931   4.399   4.195   6.297 -0.4532  1.0650  2.9157
11324TIP3   OH233932   0.207   1.692   0.836  0.2740  0.0487 -0.6168
11324TIP3    H133933   0.182   1.671   0.746 -0.9124  0.0648 -0.3076
11324TIP3    H233934   0.173   1.619   0.888 -0.0672  0.6003 -0.0563
11325TIP3   OH233935   0.646   0.214   0.155  0.4216 -0.2973  0.5453
11325TIP3    H133936   0.680   0.133   0.116  0.4680  0.3908 -0.8711
11325TIP3    H233937   0.561   0.227   0.113  1.2019  1.3416 -0.5745
11326TIP3   OH233938   3.104   0.848   1.564  0.4612  0.1653  0.0628
11326TIP3    H133939   3.026   0.793   1.554  1.1078 -0.7447 -0.0524
11326TIP3    H233940   3.073   0.926   1.609 -0.7647  0.3559 -1.0824
11327TIP3   OH233941   3.904   0.948   0.289  0.0778  0.1166 -0.1158
11327TIP3    H133942   3.883   0.901   0.208 -0.6647  2.6225 -1.4371
11327TIP3    H233943   3.969   1.014   0.263  0.1641  0.6544  1.4017
11328TIP3   OH233944   6.395   5.536   5.903 -0.0955 -0.5163  0.1118
11328TIP3    H133945   6.357   5.592   5.970  2.2258 -0.2309  1.2149
11328TIP3    H233946   6.415   5.454   5.948  0.7146 -0.6223 -0.4353
11329TIP3   OH233947   0.862   1.075   0.033 -0.6002  0.0979 -0.0357
11329TIP3    H133948   0.863   1.170   0.024  0.5648  0.2499  1.4120
11329TIP3    H233949   0.895   1.059   0.122 -1.3082 -1.6317 -0.0628
11330TIP3   OH233950   4.446   0.991   2.844 -0.4172  0.1021 -0.4448
11330TIP3    H133951   4.418   0.927   2.909  0.2935  0.4906  0.2493
11330TIP3    H233952   4.542   0.988   2.847 -0.3791 -0.0849 -1.6843
11331TIP3   OH233953   4.221   4.831   6.027  0.2804 -0.1804 -0.5619
11331TIP3    H133954   4.183   4.842   5.940  1.1327  0.4729 -0.8626
11331TIP3    H233955   4.188   4.906   6.077 -0.0207 -0.4265 -0.3904
11332TIP3   OH233956   5.577   4.454   5.427  0.0795  0.1502 -0.2600
11332TIP3    H133957   5.605   4.428   5.339  0.5585 -1.7468  0.4228
11332TIP3    H233958   5.485   4.426   5.432 -0.1988  1.0177 -0.4372
11333TIP3   OH233959   4.733   0.530   0.881 -0.1522 -0.0804  0.0376
11333TIP3    H133960   4.768   0.600   0.826  0.2479 -1.2941 -1.2667
11333TIP3    H233961   4.771   0.547   0.968 -0.5614  1.6664 -0.1044
11334TIP3   OH233962   3.312   1.489   2.168 -0.0089  0.1664  0.2364
11334TIP3    H133963   3.314   1.394   2.167 -0.9713  0.1334 -2.0762
11334TIP3    H233964   3.237   1.511   2.222 -0.7044 -0.4154 -0.4903
11335TIP3   OH233965   1.705   0.903   2.618 -0.5764  0.1679  0.3988
11335TIP3    H133966   1.772   0.842   2.586  0.4135  2.8725 -2.9091
11335TIP3    H233967   1.754   0.965   2.672 -1.4072 -1.2243  2.8210
11336TIP3   OH233968   0.119   1.220   0.892  0.4877 -0.3776 -0.2617
11336TIP3    H133969   0.071   1.139   0.911  0.2641 -0.6817 -2.0719
11336TIP3    H233970   0.210   1.193   0.889  0.9779  0.3679  4.1390
11337TIP3   OH233971   1.795   1.915   0.426 -0.5682 -0.4606 -0.3842
11337TIP3    H133972   1.721   1.975   0.420  0.1844  0.7208  1.7572
11337TIP3    H233973   1.815   1.910   0.519  0.5505 -2.6242 -0.7042
11338TIP3   OH233974   4.390   0.636   0.808 -0.0465 -0.2517  0.1977
11338TIP3    H133975   4.404   0.541   0.806 -1.3034 -0.4548  0.5724
11338TIP3    H233976   4.347   0.655   0.726 -0.9418 -0.1976  0.6777
11339TIP3   OH233977   1.028   1.657   0.949  0.3441 -0.4873  0.1069
11339TIP3    H133978   0.981   1.627   0.872  0.4952 -0.5473  0.0383
11339TIP3    H233979   1.111   1.610   0.947  1.3101  1.2146 -0.9541
11340TIP3   OH233980   2.161   1.245   0.860 -0.5072  0.1699 -0.1517
11340TIP3    H133981   2.154   1.177   0.927 -1.5655  0.9345  0.5254
11340TIP3    H233982   2.253   1.241   0.831  0.2281  0.5012  2.0634
11341TIP3   OH233983   4.918   5.800   6.213  0.4425  0.1438 -0.2072
11341TIP3    H133984   4.908   5.775   6.122  2.4951 -0.3336 -0.3223
11341TIP3    H233985   5.009   5.779   6.235  0.5051  1.8817  1.4346
11342TIP3   OH233986   1.146   2.003   3.138  0.3459 -0.1250  0.0384
11342TIP3    H133987   1.183   1.998   3.226  0.6048  1.6334  0.0443
11342TIP3    H233988   1.154   1.914   3.103  0.8735 -0.6716  1.5301
11343TIP3   OH233989   4.966   6.330   6.210 -0.0149  0.5111  0.4996
11343TIP3    H133990   4.878   6.294   6.218 -1.4010  2.3571 -4.5494
11343TIP3    H233991   5.015   6.263   6.163  0.3401  0.8481  0.3837
11344TIP3   OH233992   6.644   5.276   5.828 -0.4163 -0.2492  0.9203
11344TIP3    H133993   6.693   5.217   5.886  0.2546 -0.8757 -0.2483
11344TIP3    H233994   6.557   5.238   5.824 -0.3552 -0.4228  1.2120
11345TIP3   OH233995   1.817   6.059   0.484  0.3033  0.1163  0.4387
11345TIP3    H133996   1.884   6.000   0.518 -1.4750 -2.1852  0.1230
11345TIP3    H233997   1.810   6.036   0.391 -1.0330  0.2073  0.5063
11346TIP3   OH233998   1.227   2.926   0.430  0.0547  0.7794 -0.3500
11346TIP3    H133999   1.307   2.881   0.404  0.5902  2.0898 -1.0364
11346TIP3    H234000   1.187   2.869   0.497  2.4787  0.9708  1.3196
11347TIP3   OH234001   5.161   4.559   5.551  0.0020 -0.3232 -0.1681
11347TIP3    H134002   5.162   4.639   5.603 -1.3603  0.0475 -0.6708
11347TIP3    H234003   5.203   4.493   5.606  0.8680  0.6654  0.3682
11348TIP3   OH234004   1.447   2.586   3.131 -1.0183  0.1440 -0.2971
11348TIP3    H134005   1.496   2.520   3.181 -0.9672 -0.2105 -0.8090
11348TIP3    H234006   1.510   2.655   3.113 -0.1320 -1.1959 -2.6516
11349TIP3   OH234007   3.780   4.778   5.920  0.1212 -0.0185 -0.5307
11349TIP3    H134008   3.710   4.713   5.914 -0.2916  0.3604  0.1079
11349TIP3    H234009   3.861   4.726   5.923 -0.2477 -0.5578  0.8440
11350TIP3   OH234010   3.770   5.286   6.161 -0.3723  0.2929  0.3350
11350TIP3    H134011   3.764   5.190   6.159  1.7234  0.1607 -0.3821
11350TIP3    H234012   3.792   5.311   6.071  0.0718  1.3647  0.7349
11351TIP3   OH234013   2.226   0.382   0.748  0.9489  0.3015  0.0819
11351TIP3    H134014   2.252   0.428   0.667 -0.2307  0.4485 -0.2188
11351TIP3    H234015   2.265   0.295   0.739 -0.9436 -0.4019 -1.6451
11352TIP3   OH234016   2.647   0.193   0.109 -0.2091  0.2310  0.3062
11352TIP3    H134017   2.663   0.282   0.080 -0.4044 -0.0796 -0.7773
11352TIP3    H234018   2.725   0.170   0.160  0.7655  0.3041 -1.1336
11353TIP3   OH234019   1.564   0.337   0.671  0.0033 -0.6528  0.0218
11353TIP3    H134020   1.601   0.328   0.758 -0.1506 -1.6462 -0.0105
11353TIP3    H234021   1.634   0.377   0.619 -0.0381  0.3094  0.6786
11354TIP3   OH234022   1.751   1.679   0.323 -0.2583 -0.0161  0.0604
11354TIP3    H134023   1.808   1.624   0.377 -0.9335 -1.0279 -0.2488
11354TIP3    H234024   1.755   1.765   0.364 -0.0400 -0.5563  1.1872
11355TIP3   OH234025   2.427   3.888   1.612 -0.3396  0.5657 -0.4231
11355TIP3    H134026   2.441   3.960   1.551  0.3310 -1.6871 -3.0489
11355TIP3    H234027   2.365   3.831   1.567 -0.4211 -0.7968  1.3543
11356TIP3   OH234028   0.499   0.560   1.177  0.2063 -0.2790 -0.3639
11356TIP3    H134029   0.531   0.601   1.258 -0.3181 -3.2253  1.4155
11356TIP3    H234030   0.569   0.499   1.153 -1.3045 -2.2027  0.0498
11357TIP3   OH234031   1.539   0.731   2.133  0.0055 -0.6877 -0.0828
11357TIP3    H134032   1.477   0.691   2.194 -0.6938  1.4564  0.6444
11357TIP3    H234033   1.618   0.745   2.186  0.2072 -0.9971 -0.3025
11358TIP3   OH234034   6.949   6.873   1.697 -0.3032  0.1044  0.6576
11358TIP3    H134035   6.895   6.819   1.639 -1.1237  2.0724 -0.4863
11358TIP3    H234036   6.887   6.936   1.735  1.3348  3.5045 -1.9589
11359TIP3   OH234037   4.179   5.411   4.889  0.5090 -0.1753  0.3540
11359TIP3    H134038   4.147   5.348   4.954 -1.2194 -0.4590 -0.7130
11359TIP3    H234039   4.165   5.497   4.929 -0.1194 -0.3665  0.5513
11360TIP3   OH234040   5.727   4.454   5.163  0.2262 -0.2544  0.3320
11360TIP3    H134041   5.761   4.447   5.074 -0.4348 -0.6262  0.1058
11360TIP3    H234042   5.801   4.429   5.219  0.2425 -1.3724 -0.1757
11361TIP3   OH234043   0.652   1.801   0.990  0.0112 -0.1808 -0.1504
11361TIP3    H134044   0.641   1.895   1.001  0.0084 -0.0982 -0.8448
11361TIP3    H234045   0.672   1.769   1.078 -0.9755  0.3226  0.2587
11362TIP3   OH234046   5.792   4.347   5.604  0.1008  0.1395  0.2560
11362TIP3    H134047   5.717   4.333   5.547 -0.4165 -1.0774  1.2185
11362TIP3    H234048   5.868   4.320   5.552 -0.2165  0.4593 -0.3740
11363TIP3   OH234049   1.726   1.012   1.753 -0.2751  0.1526  0.0964
11363TIP3    H134050   1.818   1.039   1.760  0.5312 -1.2049 -3.8232
11363TIP3    H234051   1.683   1.087   1.713 -0.6724  0.3624  0.9033
11364TIP3   OH234052   4.208   5.250   5.946 -0.3294  0.5209  0.2977
11364TIP3    H134053   4.258   5.328   5.973  1.8433 -0.2453 -1.3695
11364TIP3    H234054   4.245   5.179   5.997 -1.6325  0.3838  1.0751
11365TIP3   OH234055   1.231   0.069   0.463  0.0507 -1.4210  0.1772
11365TIP3    H134056   1.313   0.119   0.466 -0.2277 -0.8733 -1.1390
11365TIP3    H234057   1.181   0.109   0.392 -2.7259  0.3258  2.9797
11366TIP3   OH234058   0.134   4.763   1.954  0.1310 -0.2300  0.2266
11366TIP3    H134059   0.183   4.835   1.992 -0.9646  0.5268  0.2491
11366TIP3    H234060   0.068   4.806   1.899  0.6392 -1.2582 -1.2306
11367TIP3   OH234061   1.680   1.268   2.922 -0.8216 -0.0930  0.0040
11367TIP3    H134062   1.698   1.185   2.878 -1.1086 -0.1211 -0.0603
11367TIP3    H234063   1.765   1.298   2.952 -0.8370 -0.8977  0.8897
11368TIP3   OH234064   6.345   6.608   0.935  0.1109 -0.2847 -0.0650
11368TIP3    H134065   6.254   6.579   0.928  0.0711  0.1449 -1.7419
11368TIP3    H234066   6.390   6.538   0.980 -0.7008 -1.3324 -0.8549
11369TIP3   OH234067   2.477   1.543   0.987  0.0109  0.1764 -0.5327
11369TIP3    H134068   2.486   1.473   1.051 -0.4470  0.4316 -0.1941
11369TIP3    H234069   2.430   1.502   0.914 -2.5873  0.8332  0.7451
11370TIP3   OH234070   3.654   1.163   1.526  0.5871  0.2450 -0.0039
11370TIP3    H134071   3.707   1.180   1.604  0.5587  0.5693 -0.0561
11370TIP3    H234072   3.567   1.194   1.549  1.1998  2.9430 -1.1549
11371TIP3   OH234073   1.622   0.657   0.243 -0.4911 -0.1138 -0.2085
11371TIP3    H134074   1.618   0.749   0.218 -0.1506 -1.0438 -3.9393
11371TIP3    H234075   1.712   0.645   0.274 -0.6693  0.9044  0.7233
11372TIP3   OH234076   2.988   0.602   0.268 -0.1389  0.1074 -0.1506
11372TIP3    H134077   2.954   0.559   0.346  0.5267  0.2745  0.2415
11372TIP3    H234078   2.954   0.691   0.272  0.6392  0.3858  0.4408
11373TIP3   OH234079   4.280   1.881   0.215 -0.4812  0.5703  0.3056
11373TIP3    H134080   4.224   1.841   0.148 -0.1887 -0.8872  0.9094
11373TIP3    H234081   4.309   1.963   0.175 -1.9083  0.6831 -0.5698
11374TIP3   OH234082   7.389   7.302   0.515 -0.5266  0.9672 -0.9448
11374TIP3    H134083   7.338   7.241   0.568  1.1418 -0.4428 -0.9214
11374TIP3    H234084   7.418   7.369   0.576  0.3799 -0.0013 -0.2998
11375TIP3   OH234085   0.501   0.727   1.470 -0.4411  0.0059 -0.5241
11375TIP3    H134086   0.438   0.659   1.447 -1.3231  0.3828  0.7192
11375TIP3    H234087   0.447   0.803   1.492  0.4930  0.6882 -0.5607
11376TIP3   OH234088   5.832   5.072   5.364  0.0071  0.2759 -0.2835
11376TIP3    H134089   5.875   5.074   5.449  1.1365  2.3175 -0.8610
11376TIP3    H234090   5.904   5.082   5.301 -0.9361 -0.0470 -1.4171
11377TIP3   OH234091   5.428   3.380   5.921 -0.2081  0.1248 -0.0265
11377TIP3    H134092   5.407   3.319   5.850  0.3143 -0.6626  0.4838
11377TIP3    H234093   5.489   3.332   5.976  1.6075  1.7347 -0.5595
11378TIP3   OH234094  -0.032   6.362   0.187 -0.2332  0.4405  0.3470
11378TIP3    H134095   0.052   6.396   0.217 -0.1806  0.6564 -0.0404
11378TIP3    H234096  -0.016   6.268   0.175  0.0108  0.5143  0.0764
11379TIP3   OH234097   2.083   0.958   2.426 -0.1286  1.0453 -0.4368
11379TIP3    H134098   2.159   0.999   2.386 -1.1051  2.4665 -0.8576
11379TIP3    H234099   2.008   0.994   2.379 -1.0673 -0.5394 -0.2141
11380TIP3   OH234100   1.884   0.682   0.323 -0.3543 -0.2847  0.4907
11380TIP3    H134101   1.968   0.677   0.277 -0.6836 -0.7726 -0.0742
11380TIP3    H234102   1.860   0.775   0.320  0.7197  0.0343  1.6687
11381TIP3   OH234103   1.636   1.859   1.314 -0.2041 -0.2128 -0.1202
11381TIP3    H134104   1.601   1.891   1.231  0.5998 -0.7401 -0.6761
11381TIP3    H234105   1.583   1.902   1.381 -1.6262 -0.6696 -0.9257
11382TIP3   OH234106   1.522   0.097   2.501 -0.8623  0.9600  0.0851
11382TIP3    H134107   1.480   0.073   2.584 -0.9281  0.6175 -0.0452
11382TIP3    H234108   1.600   0.042   2.498 -1.3508  0.2854 -0.5191
11383TIP3   OH234109   2.844   6.329   3.858  0.4385  0.0575  0.0837
11383TIP3    H134110   2.916   6.391   3.844 -1.5473  2.3435 -0.4207
11383TIP3    H234111   2.858   6.293   3.945  0.6273  2.6561  1.1473
11384TIP3   OH234112   2.795   0.518   1.025 -0.0047  0.4097 -0.2591
11384TIP3    H134113   2.711   0.475   1.044  0.8166 -0.9732  0.2852
11384TIP3    H234114   2.800   0.589   1.089 -1.1728  1.0726 -0.8866
11385TIP3   OH234115   2.297   0.955   0.851  0.3470 -0.2618  0.0252
11385TIP3    H134116   2.377   0.935   0.900  1.1612  3.2431  0.2777
11385TIP3    H234117   2.226   0.936   0.912  1.1319 -0.6808  0.8233
11386TIP3   OH234118   5.040   3.541   4.769  0.0852  0.4013 -0.4051
11386TIP3    H134119   4.970   3.543   4.704 -0.1870 -1.2160 -0.1805
11386TIP3    H234120   5.108   3.485   4.730 -0.6677 -1.7443  1.2461
11387TIP3   OH234121   6.348   5.079   5.674  0.5528 -0.1091 -0.1957
11387TIP3    H134122   6.280   5.071   5.606  0.8975  0.9078 -0.6701
11387TIP3    H234123   6.301   5.065   5.756 -0.1041 -0.1435 -0.5676
11388TIP3   OH234124   3.467   2.272   1.450  0.0964 -0.0821 -0.1675
11388TIP3    H134125   3.417   2.259   1.531  0.2787  0.8934  0.1158
11388TIP3    H234126   3.408   2.246   1.380 -1.7068  3.2714  0.0127
11389TIP3   OH234127   0.359   1.729   0.418 -0.7720 -0.1343  0.7621
11389TIP3    H134128   0.428   1.787   0.449 -0.5985 -0.0567  0.2380
11389TIP3    H234129   0.401   1.643   0.410 -0.4752  0.1283 -0.5235
11390TIP3   OH234130   5.796   5.146   6.357 -0.2551 -0.0514  0.0069
11390TIP3    H134131   5.885   5.117   6.376  0.4715  2.7709  1.1830
11390TIP3    H234132   5.807   5.215   6.291 -1.7538 -1.0135 -1.2967
11391TIP3   OH234133   0.242   2.204   1.324 -0.4760 -0.4579 -0.2943
11391TIP3    H134134   0.153   2.169   1.317 -1.2506  1.3578  0.2868
11391TIP3    H234135   0.230   2.298   1.338  1.5349 -0.2369  0.0670
11392TIP3   OH234136   3.014   2.148   0.563 -0.0019  0.1151  0.4574
11392TIP3    H134137   3.076   2.076   0.570 -0.9636 -1.1897 -3.2614
11392TIP3    H234138   2.939   2.120   0.616  0.1773 -1.0492  0.1148
11393TIP3   OH234139   3.722   6.570   5.463  0.2980  0.3411  0.3917
11393TIP3    H134140   3.795   6.608   5.414  0.9040  0.2742  1.2525
11393TIP3    H234141   3.715   6.623   5.542 -0.1436 -0.0834  0.6415
11394TIP3   OH234142   6.308   5.408   5.015  0.1206 -0.2744 -0.5444
11394TIP3    H134143   6.245   5.481   5.014  0.9658  0.4581 -1.0747
11394TIP3    H234144   6.383   5.441   4.966  0.9235 -1.1493  0.0917
11395TIP3   OH234145   4.815   1.764   1.222  0.6727  0.4773  0.0755
11395TIP3    H134146   4.904   1.767   1.187  0.5651  0.0133 -0.2440
11395TIP3    H234147   4.809   1.677   1.263  0.6098  0.7937  0.7399
11396TIP3   OH234148   1.803   0.135   1.490 -0.1711  0.3514 -0.9009
11396TIP3    H134149   1.782   0.045   1.514 -2.2913  0.7682 -1.0422
11396TIP3    H234150   1.797   0.137   1.395 -2.9982  1.2576 -0.7549
11397TIP3   OH234151   4.420   1.636   0.228  0.2285  0.2081  0.5033
11397TIP3    H134152   4.457   1.653   0.315  2.6040 -1.9288 -0.0283
11397TIP3    H234153   4.391   1.721   0.197  1.6184  1.4082  2.4025
11398TIP3   OH234154   1.603   2.113   0.384 -0.2622 -0.0729  0.1472
11398TIP3    H134155   1.634   2.185   0.329  1.8340 -1.1820 -0.2066
11398TIP3    H234156   1.534   2.151   0.438  0.2907  2.0032 -0.5707
11399TIP3   OH234157   1.597   4.506   5.369 -0.3085  0.7650  0.2805
11399TIP3    H134158   1.508   4.525   5.398 -0.3248  1.9968 -0.5447
11399TIP3    H234159   1.589   4.495   5.274  0.1446 -0.7863  0.4074
11400TIP3   OH234160   5.506   5.486   5.565  0.0206 -0.5680 -0.0923
11400TIP3    H134161   5.537   5.462   5.653 -1.3388 -2.3336 -0.0745
11400TIP3    H234162   5.550   5.424   5.507 -1.0949 -1.0854 -0.3843
11401TIP3   OH234163   1.946   5.805   0.819 -0.0515 -0.1514  0.3610
11401TIP3    H134164   1.996   5.743   0.765  0.2836 -0.7122  1.3097
11401TIP3    H234165   2.012   5.850   0.872 -0.5334 -0.8024  1.5245
11402TIP3   OH234166   1.789   1.305   2.423 -0.0736 -0.0161  0.4964
11402TIP3    H134167   1.824   1.308   2.512  0.7783  1.1605  0.1490
11402TIP3    H234168   1.728   1.232   2.423  1.2586 -1.1530  1.5598
11403TIP3   OH234169   5.305   4.564   3.817 -0.3010 -0.3216  0.1577
11403TIP3    H134170   5.210   4.557   3.815 -0.2783 -1.0631  1.2134
11403TIP3    H234171   5.335   4.476   3.841  0.5273  0.6124  2.6533
11404TIP3   OH234172   4.965   6.309   5.071 -0.0135  0.0304  0.4167
11404TIP3    H134173   4.956   6.214   5.071  1.9098 -0.1646  0.8580
11404TIP3    H234174   5.000   6.330   5.157 -0.7798  1.1908  0.4606
11405TIP3   OH234175   7.552   4.080   4.986  0.0369 -0.0772  1.0374
11405TIP3    H134176   7.601   4.163   4.980 -1.1518  0.6357  1.0229
11405TIP3    H234177   7.610   4.022   5.036  0.9703  0.6993  0.8839
11406TIP3   OH234178   5.069   1.172   1.434  0.9118 -0.2708  0.2389
11406TIP3    H134179   5.150   1.222   1.440  1.2388 -0.7662  0.0419
11406TIP3    H234180   5.000   1.235   1.453  1.4119 -0.1034  1.6041
11407TIP3   OH234181   6.253   5.198   2.351 -0.2366 -0.0701 -0.7863
11407TIP3    H134182   6.166   5.226   2.322 -1.3995  1.2177  3.5323
11407TIP3    H234183   6.238   5.114   2.394  0.4222  0.6476  0.8919
11408TIP3   OH234184   5.725   3.629   6.060 -0.7917 -0.1025 -0.3270
11408TIP3    H134185   5.769   3.560   6.110 -2.3196 -0.8613 -0.0201
11408TIP3    H234186   5.718   3.594   5.972  0.1495  0.4470 -0.6249
11409TIP3   OH234187   2.629   0.864   0.398 -0.3911 -0.4152  0.3254
11409TIP3    H134188   2.633   0.879   0.493 -0.9172 -0.8032  0.4130
11409TIP3    H234189   2.632   0.952   0.360  0.5474 -0.2878  0.6696
11410TIP3   OH234190   5.820   2.937   2.318  0.4938 -0.5250 -0.4483
11410TIP3    H134191   5.775   3.011   2.277 -0.4430 -0.5534  0.5169
11410TIP3    H234192   5.901   2.928   2.268 -0.0929  0.1811 -1.5523
11411TIP3   OH234193   6.811   1.092   1.930  0.4708 -0.2796  0.1732
11411TIP3    H134194   6.812   1.174   1.882  2.4443  0.2015  0.9641
11411TIP3    H234195   6.848   1.028   1.869  0.7086 -0.1772  0.2091
11412TIP3   OH234196   6.682   0.607   1.877 -0.7307 -0.6876  0.4193
11412TIP3    H134197   6.643   0.640   1.796 -0.7438 -2.0833 -0.1507
11412TIP3    H234198   6.631   0.528   1.898 -1.4182  0.2324  2.3704
11413TIP3   OH234199   0.847   2.625   2.247  0.1077 -0.0093 -0.5413
11413TIP3    H134200   0.795   2.571   2.306  0.9425 -0.1431  0.0815
11413TIP3    H234201   0.889   2.562   2.188 -2.4954  0.2629 -2.7483
11414TIP3   OH234202   2.385   3.178   0.804 -0.1827  0.2551 -0.0406
11414TIP3    H134203   2.466   3.129   0.817 -1.7311 -2.2368  0.6231
11414TIP3    H234204   2.380   3.236   0.880  1.3947  1.0756 -0.5420
11415TIP3   OH234205   2.929   2.620   4.244 -0.5315  0.1784  0.5783
11415TIP3    H134206   2.926   2.677   4.167  0.2744  0.6792  0.9053
11415TIP3    H234207   2.901   2.534   4.212  1.2178  0.0235 -0.6016
11416TIP3   OH234208   1.115   3.304   3.724  0.1735  0.0949 -0.7037
11416TIP3    H134209   1.041   3.334   3.671 -0.5398 -0.9600 -0.3094
11416TIP3    H234210   1.076   3.280   3.808  1.1042  0.4320 -0.1667
11417TIP3   OH234211   1.101   2.407   4.136  0.2530 -0.1814 -0.0341
11417TIP3    H134212   1.096   2.311   4.137  1.9991 -0.2831  0.8252
11417TIP3    H234213   1.022   2.435   4.183 -0.3497 -1.1732 -0.4168
11418TIP3   OH234214   0.077   2.907   0.615 -0.0755  0.4109  0.9892
11418TIP3    H134215   0.016   2.846   0.655 -1.7131  0.8475 -0.8089
11418TIP3    H234216   0.143   2.923   0.683 -1.5343 -0.6387  2.6766
11419TIP3   OH234217   0.948   1.187   1.444  0.1120  0.7002 -0.3538
11419TIP3    H134218   0.992   1.202   1.361  0.9446  1.2206  0.1709
11419TIP3    H234219   0.993   1.111   1.482  0.3833  1.0668  0.0621
11420TIP3   OH234220   2.313   4.365   3.308 -0.0980 -0.0486  0.2882
11420TIP3    H134221   2.401   4.327   3.298  0.0287  0.0447  1.0061
11420TIP3    H234222   2.326   4.440   3.367 -0.3296  1.1971 -1.2262
11421TIP3   OH234223   0.156   4.382   0.681 -0.1426 -0.0997 -0.4222
11421TIP3    H134224   0.143   4.476   0.695  3.6430  0.2433  1.6763
11421TIP3    H234225   0.110   4.341   0.754 -1.4043  0.1438 -1.0729
11422TIP3   OH234226   2.298   0.923   1.489 -0.0556 -0.1643  0.3329
11422TIP3    H134227   2.222   0.909   1.546  0.4603 -0.7522  0.8933
11422TIP3    H234228   2.350   0.989   1.536 -0.5998  0.8132 -0.4308
11423TIP3   OH234229   6.234   1.593   2.525 -1.2193  0.1764 -0.4050
11423TIP3    H134230   6.250   1.669   2.468 -0.8022  0.7171  0.4116
11423TIP3    H234231   6.242   1.629   2.613 -1.8048 -0.6653 -0.0103
11424TIP3   OH234232   0.769   2.929   0.578 -0.3409 -0.6100 -0.1919
11424TIP3    H134233   0.703   2.892   0.637 -1.3349  0.1109 -0.8353
11424TIP3    H234234   0.725   3.003   0.536  1.3805  0.8550  0.5260
11425TIP3   OH234235   5.743   2.767   0.736 -0.2191  0.2214 -0.9506
11425TIP3    H134236   5.707   2.847   0.775 -2.0636  0.1996 -2.5550
11425TIP3    H234237   5.698   2.759   0.652  1.8778 -1.0861 -1.9733
11426TIP3   OH234238   1.474   4.164   3.377 -0.4825  0.0357 -0.0672
11426TIP3    H134239   1.386   4.156   3.412 -0.0020 -0.0412  1.1676
11426TIP3    H234240   1.478   4.102   3.305 -0.8980 -1.2235  0.9780
11427TIP3   OH234241   7.041   2.344   1.774 -0.2499  0.3836 -0.3938
11427TIP3    H134242   6.968   2.388   1.818  1.9781  3.4634  0.3186
11427TIP3    H234243   7.016   2.342   1.682 -1.9221 -0.0510  0.0513
11428TIP3   OH234244   7.458   2.310   0.582 -0.5313  0.1302 -0.3628
11428TIP3    H134245   7.498   2.383   0.534 -0.7017 -0.2846 -1.1422
11428TIP3    H234246   7.485   2.323   0.673  1.3040 -0.0958 -0.8679
11429TIP3   OH234247   7.080   1.955   3.968  0.3091  0.5963  0.0522
11429TIP3    H134248   6.993   1.963   4.008  0.5033 -1.2650  0.8644
11429TIP3    H234249   7.142   1.969   4.039  0.6951  1.2982 -0.4070
11430TIP3   OH234250   6.738   0.414   3.571  0.1077 -0.0801 -0.1140
11430TIP3    H134251   6.800   0.468   3.522 -0.1473 -0.0103 -0.3554
11430TIP3    H234252   6.710   0.470   3.644  1.6360 -0.7060  0.9774
11431TIP3   OH234253   4.807   2.389   3.792  0.3372 -0.9499  0.5456
11431TIP3    H134254   4.845   2.419   3.709  0.7605 -1.0099  0.7211
11431TIP3    H234255   4.879   2.346   3.838  0.5652  0.6504  1.7209
11432TIP3   OH234256   7.335   2.553   2.102  0.0861  0.3233 -0.8913
11432TIP3    H134257   7.359   2.493   2.172 -1.1877 -0.8058 -1.4073
11432TIP3    H234258   7.403   2.620   2.103  1.5822 -1.1814 -0.3760
11433TIP3   OH234259   7.469   5.053   0.652  0.1255 -0.5916 -0.3491
11433TIP3    H134260   7.522   4.997   0.708  0.6320  0.8122  0.5910
11433TIP3    H234261   7.394   5.077   0.706 -0.2295 -0.5807 -0.8413
11434TIP3   OH234262   0.567   3.601   1.825  0.8176  0.4314 -0.1809
11434TIP3    H134263   0.543   3.597   1.918 -0.7539  1.2980 -0.5111
11434TIP3    H234264   0.486   3.629   1.782  1.4928 -0.1335 -1.8321
11435TIP3   OH234265   4.603   0.671   5.500 -0.8288 -0.0238  0.6422
11435TIP3    H134266   4.554   0.689   5.420 -0.2443  0.0261  0.2921
11435TIP3    H234267   4.554   0.716   5.569 -0.7752  0.7836  0.1593
11436TIP3   OH234268   6.318   4.188   0.569  0.6660  0.5833 -0.4176
11436TIP3    H134269   6.265   4.230   0.501  0.8724 -1.7894 -2.0996
11436TIP3    H234270   6.254   4.145   0.626  0.5114  2.2893  0.7137
11437TIP3   OH234271   2.546   5.424   6.271 -0.2247  0.3085 -0.1217
11437TIP3    H134272   2.626   5.373   6.281  0.4448  0.7801 -2.6235
11437TIP3    H234273   2.567   5.510   6.308 -1.0060 -0.8180  3.1091
11438TIP3   OH234274   0.398   2.372   2.977 -0.0976 -0.3589 -0.0531
11438TIP3    H134275   0.440   2.289   2.954 -1.8640 -1.5985  1.0478
11438TIP3    H234276   0.453   2.439   2.936  0.6941 -2.1216 -1.9575
11439TIP3   OH234277   0.601   1.039   1.005  0.1128 -0.3246 -0.4977
11439TIP3    H134278   0.668   0.976   0.980 -0.4110 -1.3165  0.5655
11439TIP3    H234279   0.537   0.988   1.055 -0.8138  0.8486 -0.4564
11440TIP3   OH234280   0.897   0.936   2.238  0.3026 -0.5850  0.1863
11440TIP3    H134281   0.951   0.863   2.268 -0.9474 -1.9254 -0.7740
11440TIP3    H234282   0.807   0.911   2.262 -0.0720  0.9372  0.4438
11441TIP3   OH234283   7.043   2.781   0.753 -0.2587 -0.0406  0.0483
11441TIP3    H134284   7.109   2.713   0.767  0.8457  1.2120  1.1128
11441TIP3    H234285   7.036   2.825   0.838 -0.2214  1.7971 -0.8846
11442TIP3   OH234286   1.788   5.591   0.688  0.5148  0.3393  0.6769
11442TIP3    H134287   1.768   5.513   0.740 -0.9158  0.5418  0.4443
11442TIP3    H234288   1.806   5.659   0.754  0.5041  0.1369  0.8905
11443TIP3   OH234289   5.824   0.610   5.539  0.2175 -0.0513 -0.2496
11443TIP3    H134290   5.900   0.551   5.547 -0.0372 -0.2749  0.5238
11443TIP3    H234291   5.750   0.556   5.566  0.0126  0.6936  0.6592
11444TIP3   OH234292   6.820   4.323   1.823  0.4235  0.0346  0.2063
11444TIP3    H134293   6.751   4.291   1.766 -1.0926 -2.2565  3.1848
11444TIP3    H234294   6.874   4.247   1.842  2.6411  1.3941 -0.5304
11445TIP3   OH234295   5.488   3.548   1.385 -0.0158  0.4434  0.2587
11445TIP3    H134296   5.523   3.632   1.415  0.5772  0.2132  0.2166
11445TIP3    H234297   5.510   3.486   1.454 -0.8830  0.4119  0.5194
11446TIP3   OH234298   1.451   5.026   3.134  0.2779  0.1179  0.1431
11446TIP3    H134299   1.399   5.099   3.168  0.9793  0.7008 -0.0279
11446TIP3    H234300   1.393   4.983   3.070 -0.1969  0.4180  0.3678
11447TIP3   OH234301   2.914   3.600   2.822  0.3995  0.2924 -0.4382
11447TIP3    H134302   2.865   3.518   2.831  1.4281 -0.1620  1.0116
11447TIP3    H234303   2.990   3.577   2.768  0.8735  0.2227  0.2646
11448TIP3   OH234304   2.196   3.958   2.092  0.1482  0.2185  0.0430
11448TIP3    H134305   2.153   3.999   2.017  1.4061 -1.0767 -1.4375
11448TIP3    H234306   2.147   3.877   2.107 -1.9378  1.8613  2.5573
11449TIP3   OH234307   6.200   2.565   1.809  0.2210 -0.3081 -0.6512
11449TIP3    H134308   6.156   2.597   1.730  1.0051  1.1290 -0.5145
11449TIP3    H234309   6.142   2.496   1.841 -0.7800 -0.0090 -1.7405
11450TIP3   OH234310   1.234   3.696   1.676 -0.0690 -0.2368  0.6878
11450TIP3    H134311   1.240   3.601   1.677 -1.4426 -0.3183  1.7657
11450TIP3    H234312   1.309   3.726   1.728  0.2559 -0.7296  0.5006
11451TIP3   OH234313   0.801   1.604   0.439 -0.0720 -0.1499 -0.1532
11451TIP3    H134314   0.823   1.689   0.401 -1.5574  1.1232  1.7620
11451TIP3    H234315   0.782   1.548   0.363 -0.1431  1.5062 -1.3823
11452TIP3   OH234316   1.595   1.485   2.311  0.4202 -0.5567 -0.2402
11452TIP3    H134317   1.655   1.416   2.341  0.5503  0.2727  1.4465
11452TIP3    H234318   1.621   1.563   2.359 -0.0625  0.5748 -1.7629
11453TIP3   OH234319   7.636   2.043   2.052  0.4602 -0.0831 -0.4716
11453TIP3    H134320   7.563   2.102   2.067  0.4942 -0.2054  0.1905
11453TIP3    H234321   7.712   2.086   2.092  0.5997 -0.3029 -0.4922
11454TIP3   OH234322   1.738   4.161   1.856 -0.6165  0.4178  0.2474
11454TIP3    H134323   1.651   4.198   1.871 -0.7184 -0.0293  0.7801
11454TIP3    H234324   1.744   4.088   1.918 -0.5308 -0.6482 -0.9695
11455TIP3   OH234325   6.180   1.852   1.017  0.1952  0.5742 -0.6277
11455TIP3    H134326   6.140   1.765   1.028  2.5789 -0.3698  0.9754
11455TIP3    H234327   6.133   1.907   1.080 -0.3245  0.0808 -0.5784
11456TIP3   OH234328   0.720   3.279   1.483  0.8381  1.0111 -0.0206
11456TIP3    H134329   0.675   3.359   1.510 -0.1833  0.3090  0.3902
11456TIP3    H234330   0.723   3.225   1.562  0.9149  0.3569 -0.4663
11457TIP3   OH234331   0.349   1.785   2.227  0.1020 -0.2318  0.3043
11457TIP3    H134332   0.432   1.831   2.218 -0.7649  1.0709 -1.2152
11457TIP3    H234333   0.286   1.852   2.252 -1.2669 -0.4379 -2.3789
11458TIP3   OH234334   0.228   1.911   1.163 -0.8467 -0.3368 -0.0547
11458TIP3    H134335   0.301   1.937   1.219  0.4176  0.1840 -1.9281
11458TIP3    H234336   0.151   1.920   1.219  0.0992  2.6962  0.8308
11459TIP3   OH234337   1.040   0.818   3.094  0.5503 -0.2797 -0.2298
11459TIP3    H134338   0.996   0.896   3.059  1.3067 -0.4752 -1.6642
11459TIP3    H234339   1.074   0.846   3.179  2.5914  1.6230 -1.6193
11460TIP3   OH234340   6.202   6.830   2.498  0.6645  0.1180  0.3263
11460TIP3    H134341   6.251   6.876   2.430 -1.0323 -1.5753 -2.0709
11460TIP3    H234342   6.242   6.744   2.503 -0.0490 -0.2024  0.5956
11461TIP3   OH234343   0.562   1.895   0.442 -0.3556  0.2319 -0.0515
11461TIP3    H134344   0.608   1.934   0.517 -1.4476 -2.5603  2.2019
11461TIP3    H234345   0.624   1.830   0.407 -0.7310 -0.1354 -0.0437
11462TIP3   OH234346   1.256   2.605   2.930  0.1235 -0.4985 -0.5022
11462TIP3    H134347   1.313   2.587   3.005 -0.8079  0.0811  0.3681
11462TIP3    H234348   1.315   2.636   2.861  1.0727 -1.6893 -0.2405
11463TIP3   OH234349   0.229   3.169   1.956  0.1363 -0.3189  0.2734
11463TIP3    H134350   0.184   3.085   1.962  0.5647 -0.6872 -1.4689
11463TIP3    H234351   0.162   3.231   1.929  0.1338 -0.3892  0.1171
11464TIP3   OH234352   0.635   2.646   2.944 -0.6424  0.2997 -0.4462
11464TIP3    H134353   0.730   2.656   2.947 -0.7418  1.0111  2.3733
11464TIP3    H234354   0.615   2.585   3.015 -2.4814  2.5024  1.0324
11465TIP3   OH234355   4.058   5.704   5.765  0.4971 -0.5624  0.0375
11465TIP3    H134356   3.988   5.678   5.704 -1.0329  0.3560  1.3617
11465TIP3    H234357   4.099   5.780   5.723  0.2904 -0.7126 -0.4405
11466TIP3   OH234358   5.527   7.182   6.319  0.2074 -0.6697 -0.2893
11466TIP3    H134359   5.570   7.257   6.361  0.6732 -0.2082 -1.5841
11466TIP3    H234360   5.490   7.218   6.238  2.3624 -2.3071 -2.0460
11467TIP3   OH234361   2.886   2.101   1.828  0.2620 -0.0511 -0.3856
11467TIP3    H134362   2.910   2.015   1.793 -0.5863 -0.1214 -0.8126
11467TIP3    H234363   2.903   2.161   1.755  1.4706  0.2470  0.1200
11468TIP3   OH234364   0.762   1.735   5.937 -0.0860 -0.0224  0.0359
11468TIP3    H134365   0.676   1.778   5.936  0.0271  0.2003 -1.1007
11468TIP3    H234366   0.795   1.749   6.025 -2.1816 -2.0046  1.1957
11469TIP3   OH234367   1.407   3.014   1.800 -0.3534 -0.0144  0.1187
11469TIP3    H134368   1.454   2.983   1.877 -0.8398  0.6299  0.6887
11469TIP3    H234369   1.448   3.098   1.779 -1.7760  0.9545  1.1299
11470TIP3   OH234370   1.850   2.672   0.044  0.3134  0.1032 -0.0246
11470TIP3    H134371   1.815   2.732  -0.021  1.4687  0.6881 -0.1263
11470TIP3    H234372   1.916   2.621  -0.004  2.2493  1.5710  1.0181
11471TIP3   OH234373   1.931   6.302   5.451 -0.5115  0.2248  0.7773
11471TIP3    H134374   2.018   6.281   5.485 -0.6405 -1.1593  0.2838
11471TIP3    H234375   1.899   6.371   5.508  1.0515  0.9971  0.7580
11472TIP3   OH234376   1.408   2.956   2.532  0.0359  0.2062 -0.4341
11472TIP3    H134377   1.362   2.922   2.455 -2.9649 -0.7652  1.6819
11472TIP3    H234378   1.339   2.992   2.586  1.9819  0.0466  2.2316
11473TIP3   OH234379   2.121   1.757   1.348  0.1142 -0.0207  0.0263
11473TIP3    H134380   2.185   1.689   1.327 -0.6209 -1.5626  2.5389
11473TIP3    H234381   2.054   1.750   1.281  0.3640 -1.3604 -0.0823
11474TIP3   OH234382   1.945   3.357   0.455  0.3435  0.4670 -0.1777
11474TIP3    H134383   1.940   3.381   0.547 -0.3153  0.7196 -0.2755
11474TIP3    H234384   2.037   3.370   0.431  0.3843  1.0117  0.2736
11475TIP3   OH234385   2.037   6.407   0.277 -0.0685  0.4637 -0.0362
11475TIP3    H134386   2.043   6.336   0.341  0.5651  0.0299 -0.5802
11475TIP3    H234387   2.093   6.476   0.312  0.8628 -0.0542 -0.4857
11476TIP3   OH234388   2.458   2.535   2.398  0.9450  0.5710  0.3002
11476TIP3    H134389   2.539   2.583   2.378  0.7620  0.5918 -0.4253
11476TIP3    H234390   2.414   2.526   2.313  0.8373 -0.6318  0.4694
11477TIP3   OH234391   0.478   2.854   0.397 -0.4070 -0.1812 -0.3291
11477TIP3    H134392   0.398   2.883   0.353 -0.5717  0.2658  0.2612
11477TIP3    H234393   0.447   2.807   0.474 -0.1748 -2.8025 -1.7751
11478TIP3   OH234394   1.104   2.933   1.811 -0.0474 -0.7093 -0.2832
11478TIP3    H134395   1.031   2.871   1.808 -0.2310 -0.5566  0.7518
11478TIP3    H234396   1.113   2.955   1.904  1.1476 -0.5270 -0.4293
11479TIP3   OH234397   0.228   1.211   5.726  0.1560  0.2974  0.0999
11479TIP3    H134398   0.203   1.158   5.802  1.3174 -0.6608 -0.1711
11479TIP3    H234399   0.322   1.196   5.716 -0.1513 -0.3248 -2.0796
11480TIP3   OH234400   0.537   3.498   2.767  0.0394  0.1001 -0.2028
11480TIP3    H134401   0.445   3.522   2.754  0.0824 -0.4830 -1.6804
11480TIP3    H234402   0.538   3.402   2.763  1.0792  0.1941 -2.8418
11481TIP3   OH234403   1.804   3.826   0.726 -0.6381 -0.4844  0.0387
11481TIP3    H134404   1.744   3.900   0.730 -1.2455 -0.8960 -1.1475
11481TIP3    H234405   1.795   3.782   0.811  0.3054  1.2244  1.0523
11482TIP3   OH234406   3.210   3.913   1.433 -0.4145 -0.2897 -0.0416
11482TIP3    H134407   3.196   3.873   1.518  0.5658 -0.4729  0.0355
11482TIP3    H234408   3.198   3.841   1.370 -0.3012 -0.3340 -0.0113
11483TIP3   OH234409   2.429   3.286   1.053  0.4207 -0.2713  0.2007
11483TIP3    H134410   2.459   3.377   1.058  0.5771 -0.3813  1.3714
11483TIP3    H234411   2.494   3.237   1.103  2.3949 -1.5777 -3.4341
11484TIP3   OH234412   0.977   2.258   3.158  0.5780  0.2912 -0.2797
11484TIP3    H134413   1.020   2.320   3.217  0.1410  1.0769 -0.7791
11484TIP3    H234414   1.047   2.200   3.128  1.1907  1.2346 -0.6755
11485TIP3   OH234415   0.448   5.525   2.114 -0.4858 -0.6365  0.1963
11485TIP3    H134416   0.443   5.557   2.024 -0.3221 -0.4020  0.2704
11485TIP3    H234417   0.375   5.463   2.122 -1.3428  0.3715  0.3080
11486TIP3   OH234418   3.360   2.629   0.097  0.1441 -0.0234 -0.2615
11486TIP3    H134419   3.297   2.581   0.043 -0.0754 -1.5263  1.2954
11486TIP3    H234420   3.440   2.578   0.092  0.5368  0.5929 -0.3093
11487TIP3   OH234421   1.671  -0.010   5.573 -0.2838 -0.3082 -0.4002
11487TIP3    H134422   1.669   0.080   5.542 -0.4540 -0.1967 -0.0696
11487TIP3    H234423   1.590  -0.049   5.542 -0.2908 -0.2977 -0.3952
11488TIP3   OH234424   0.999   3.101   1.119 -0.1121 -0.5266  0.2722
11488TIP3    H134425   0.916   3.125   1.159  1.2999  0.1964  2.9110
11488TIP3    H234426   1.018   3.013   1.152  1.5817  0.4946  2.1548
11489TIP3   OH234427   4.195   7.150   4.733  0.5504  0.0152 -0.2454
11489TIP3    H134428   4.109   7.121   4.765  1.9592 -1.1921  2.5707
11489TIP3    H234429   4.228   7.075   4.683  0.3947  0.0992 -0.4747
11490TIP3   OH234430   4.571   5.685   3.983 -0.1542  0.3580  0.6273
11490TIP3    H134431   4.496   5.645   3.939  0.2005  0.7901 -0.3754
11490TIP3    H234432   4.532   5.747   4.044 -0.6279  0.1568  0.5352
11491TIP3   OH234433   1.357   3.444   0.549 -0.6845  0.0734 -0.4216
11491TIP3    H134434   1.273   3.472   0.584  0.1099  0.3245  1.3252
11491TIP3    H234435   1.376   3.362   0.594 -0.6812 -0.7489 -1.8944
11492TIP3   OH234436   6.755   7.317   2.766 -0.0485 -0.3025  0.0416
11492TIP3    H134437   6.796   7.260   2.702  1.5153  1.5907 -0.6696
11492TIP3    H234438   6.827   7.365   2.806 -1.3009  0.9156  0.8990
11493TIP3   OH234439   7.033   0.382   3.127  0.6170  0.2519  0.0001
11493TIP3    H134440   7.123   0.352   3.136  0.0666 -1.0945  1.1793
11493TIP3    H234441   7.008   0.357   3.038  1.8873  2.0086 -0.8775
11494TIP3   OH234442   2.310   2.249   0.382  0.2712  0.2271 -0.7014
11494TIP3    H134443   2.389   2.205   0.412  0.5771  0.3270 -1.3499
11494TIP3    H234444   2.334   2.286   0.297 -1.0062 -1.2629 -1.7232
11495TIP3   OH234445   5.803   4.567   6.371  0.2029 -0.3466 -0.0797
11495TIP3    H134446   5.728   4.593   6.318  0.8918  1.0782 -0.3643
11495TIP3    H234447   5.815   4.474   6.350 -2.3669 -1.0026  1.0726
11496TIP3   OH234448   1.067   5.560   2.472  0.3603 -0.5222  0.1147
11496TIP3    H134449   1.102   5.604   2.549 -0.1843 -1.9485  1.1983
11496TIP3    H234450   1.088   5.619   2.399  1.3776  0.5674  1.2649
11497TIP3   OH234451   7.464   0.199   6.363 -0.1669  0.1229  0.6742
11497TIP3    H134452   7.442   0.113   6.396 -2.9278  0.1710 -0.8961
11497TIP3    H234453   7.454   0.192   6.268  1.8894  1.5544  0.2940
11498TIP3   OH234454   2.651   1.773   1.006  0.0092  0.1877  0.3044
11498TIP3    H134455   2.583   1.707   1.016 -0.8056  0.9699  0.0835
11498TIP3    H234456   2.704   1.766   1.085 -0.6648 -0.0657  0.7373
11499TIP3   OH234457   2.331   5.599   6.142 -0.3125  0.0565 -0.6725
11499TIP3    H134458   2.347   5.662   6.071  1.0016 -1.1347 -1.4337
11499TIP3    H234459   2.397   5.531   6.130  1.4553  0.9820  3.0661
11500TIP3   OH234460   0.815   3.662   0.400 -0.2722 -0.0609 -0.7956
11500TIP3    H134461   0.887   3.722   0.378 -0.7804  0.8802  0.0365
11500TIP3    H234462   0.844   3.577   0.369 -0.3489  0.9309 -3.7059
   7.80000   7.35391   6.36867   0.00000   0.00000  -2.60000   0.00000  -2.60000  -3.67696
