Title
19942
    1ASP      N    1   1.474   3.379   1.796 -0.5102 -0.6194  0.3735
    1ASP    HT1    2   1.402   3.355   1.868 -1.9142 -0.1806 -0.8287
    1ASP    HT2    3   1.426   3.366   1.705  1.1990 -0.4302 -0.5789
    1ASP    HT3    4   1.503   3.479   1.802  0.7624 -0.8949 -0.9234
    1ASP     CA    5   1.595   3.289   1.812 -0.1331  0.1553  0.3032
    1ASP     HA    6   1.667   3.331   1.743 -1.9298 -0.4603 -2.0553
    1ASP     CB    7   1.647   3.295   1.956 -0.0546 -0.5481  0.0960
    1ASP    HB1    8   1.584   3.241   2.030  0.8919  1.4255  2.4789
    1ASP    HB2    9   1.636   3.400   1.991 -0.6028 -1.3249  2.3815
    1ASP     CG   10   1.787   3.260   1.965  0.4873 -0.4782 -0.4614
    1ASP    OD1   11   1.845   3.258   2.073  0.6952  0.2191  0.3208
    1ASP    OD2   12   1.852   3.227   1.861  0.5618 -0.2094 -0.4169
    1ASP      C   13   1.560   3.146   1.767  0.4884  0.2105 -0.2625
    1ASP      O   14   1.446   3.119   1.727 -0.0458 -0.1893 -0.3097
    2ALA      N   15   1.656   3.056   1.771  0.1245  0.8858 -0.4355
    2ALA     HN   16   1.746   3.078   1.807  0.1839  0.9912 -0.6449
    2ALA     CA   17   1.635   2.922   1.724 -0.2103 -0.0035 -0.3858
    2ALA     HA   18   1.590   2.933   1.626 -0.5580 -2.1449 -0.5063
    2ALA     CB   19   1.768   2.849   1.711 -0.0905 -0.2102 -0.0642
    2ALA    HB1   20   1.832   2.906   1.641 -1.4975  0.4070 -0.8950
    2ALA    HB2   21   1.752   2.753   1.656 -0.9771  0.0811 -0.3320
    2ALA    HB3   22   1.816   2.822   1.807 -1.7635 -2.9511  0.1204
    2ALA      C   23   1.529   2.849   1.810  0.1244  0.1856 -0.4971
    2ALA      O   24   1.510   2.862   1.930 -0.6587 -0.2232 -0.2080
    3ASP      N   25   1.450   2.759   1.749  0.6886 -0.2801 -0.2385
    3ASP     HN   26   1.449   2.758   1.649 -1.4433  1.9891 -0.3316
    3ASP     CA   27   1.356   2.670   1.809 -0.9297 -0.2474 -1.0232
    3ASP     HA   28   1.295   2.711   1.888  0.4441  1.7630 -0.9182
    3ASP     CB   29   1.266   2.610   1.698  0.0866  0.0655 -0.0832
    3ASP    HB1   30   1.214   2.514   1.718  0.0190  0.2287  0.5279
    3ASP    HB2   31   1.330   2.604   1.607 -0.7983  1.3182 -0.8335
    3ASP     CG   32   1.159   2.711   1.657  0.2157 -0.5632 -0.8190
    3ASP    OD1   33   1.078   2.680   1.563 -0.8072 -0.0617  0.5103
    3ASP    OD2   34   1.139   2.821   1.723 -0.1169  0.1590  0.8211
    3ASP      C   35   1.429   2.547   1.874 -0.3321 -0.1970  0.9371
    3ASP      O   36   1.516   2.495   1.807  0.0472  0.4750 -0.1078
    4GLY      N   37   1.394   2.504   1.992 -0.1699 -0.0964 -0.0981
    4GLY     HN   38   1.319   2.543   2.044 -0.8340 -0.8723 -0.4553
    4GLY     CA   39   1.447   2.375   2.050 -0.2309  0.4079  0.4717
    4GLY    HA1   40   1.425   2.370   2.155  2.9809  4.0225  1.5494
    4GLY    HA2   41   1.552   2.384   2.029 -0.4133 -1.4036 -1.5329
    4GLY      C   42   1.412   2.242   1.983  0.3915  0.6706 -0.0139
    4GLY      O   43   1.320   2.244   1.900  0.3878  0.5573 -0.0495
    5PRO      N   44   1.475   2.136   2.028 -0.1946 -0.2432 -0.1754
    5PRO     CD   45   1.596   2.140   2.106 -0.2055  0.0917  0.0337
    5PRO    HD1   46   1.606   2.226   2.175 -1.1522 -0.4828  0.9321
    5PRO    HD2   47   1.675   2.149   2.028  1.3360 -0.6311  1.4585
    5PRO     CA   48   1.440   1.994   1.991 -0.4591  0.5655 -0.0646
    5PRO     HA   49   1.459   1.985   1.885 -0.8560  2.8906 -0.3914
    5PRO     CB   50   1.535   1.906   2.077 -0.4941 -0.1770 -0.2895
    5PRO    HB1   51   1.611   1.864   2.007 -0.0648 -0.6349  0.4423
    5PRO    HB2   52   1.486   1.828   2.137 -1.4923  1.7846  1.5845
    5PRO     CG   53   1.609   1.998   2.169  0.1706 -0.6541  0.1646
    5PRO    HG1   54   1.558   2.005   2.268  2.8569 -0.5691  1.6307
    5PRO    HG2   55   1.709   1.960   2.197  0.7763  1.5621  1.2505
    5PRO      C   56   1.294   1.970   2.020 -0.9705  0.0260  0.7294
    5PRO      O   57   1.240   2.019   2.116  0.3799 -0.5101  0.8368
    6GLY      N   58   1.230   1.886   1.941  0.4960  0.5119  0.1212
    6GLY     HN   59   1.277   1.832   1.871  0.1563 -0.1680  0.4112
    6GLY     CA   60   1.084   1.862   1.938 -0.3021 -1.0795 -0.1465
    6GLY    HA1   61   1.047   1.859   1.837  0.7564  0.9146 -0.6426
    6GLY    HA2   62   1.035   1.947   1.984 -0.4070 -0.8131 -0.7386
    6GLY      C   63   1.039   1.733   2.008  0.1170  0.2230  0.5383
    6GLY      O   64   0.920   1.699   2.022  0.1780 -0.4944 -0.0867
    7ASP      N   65   1.141   1.663   2.051 -0.3808 -0.0788 -0.1947
    7ASP     HN   66   1.234   1.685   2.021  0.6404 -1.2787  1.8947
    7ASP     CA   67   1.143   1.555   2.144 -0.1575  0.0788  0.0683
    7ASP     HA   68   1.048   1.505   2.132  0.0020 -0.0827 -0.5918
    7ASP     CB   69   1.244   1.443   2.108  0.4384 -0.0567 -0.3505
    7ASP    HB1   70   1.349   1.475   2.126  0.9825 -1.7238 -0.3438
    7ASP    HB2   71   1.253   1.406   2.004 -0.5827 -1.9946  0.1936
    7ASP     CG   72   1.227   1.316   2.187 -0.3417 -0.0738 -0.0303
    7ASP    OD1   73   1.121   1.282   2.248  0.2874  0.3645 -0.3803
    7ASP    OD2   74   1.319   1.231   2.179 -0.0646 -0.5326  0.5349
    7ASP      C   75   1.152   1.600   2.286 -1.0613 -1.1315 -0.2331
    7ASP      O   76   1.263   1.643   2.326 -0.3478  0.7529  0.3814
    8PRO      N   77   1.052   1.589   2.370  0.2001 -0.4796  0.1564
    8PRO     CD   78   0.920   1.539   2.333 -0.6110 -1.0883  0.1697
    8PRO    HD1   79   0.914   1.437   2.289  1.3998 -0.5606 -1.4970
    8PRO    HD2   80   0.861   1.607   2.269  0.5541 -1.0969 -0.9526
    8PRO     CA   81   1.066   1.653   2.504  0.1636  0.4017 -0.1062
    8PRO     HA   82   1.121   1.745   2.493  0.3606  0.3035  0.0269
    8PRO     CB   83   0.920   1.660   2.550  0.0466 -0.4587 -0.0908
    8PRO    HB1   84   0.876   1.756   2.516  0.5750 -0.8672 -2.0549
    8PRO    HB2   85   0.910   1.645   2.660 -0.5081  1.7016  0.1968
    8PRO     CG   86   0.855   1.544   2.470  0.2524  0.2274  0.0385
    8PRO    HG1   87   0.871   1.444   2.516  0.1791  1.5682  3.1902
    8PRO    HG2   88   0.745   1.550   2.459  0.1186 -1.5568  0.1293
    8PRO      C   89   1.142   1.563   2.600 -0.4696 -0.4290  0.6257
    8PRO      O   90   1.157   1.604   2.712  0.2534 -0.0095 -0.7594
    9ASP      N   91   1.196   1.443   2.559 -0.0372 -0.4717  0.2950
    9ASP     HN   92   1.183   1.414   2.465 -2.9217  0.1400  0.4178
    9ASP     CA   93   1.307   1.374   2.634 -0.2755  0.2560 -0.0204
    9ASP     HA   94   1.271   1.368   2.735  1.0127 -0.9122  0.3983
    9ASP     CB   95   1.337   1.236   2.568  0.2980  0.2496 -0.7932
    9ASP    HB1   96   1.417   1.189   2.629 -0.4732 -1.4249 -1.0127
    9ASP    HB2   97   1.372   1.237   2.463  0.2922 -2.8818 -0.9130
    9ASP     CG   98   1.223   1.141   2.566  0.4709  0.5635 -0.4084
    9ASP    OD1   99   1.206   1.075   2.456  0.3433  0.1911 -0.1374
    9ASP    OD2  100   1.150   1.123   2.669  0.0628 -0.0567  0.4819
    9ASP      C  101   1.438   1.453   2.644 -0.1089 -0.2119 -1.0093
    9ASP      O  102   1.525   1.438   2.723 -0.0355  0.2711 -0.0289
   10ALA      N  103   1.459   1.536   2.546  0.4593 -0.1835  0.1459
   10ALA     HN  104   1.396   1.541   2.469 -0.5207 -1.6523  0.8131
   10ALA     CA  105   1.578   1.616   2.531  0.1023  0.6150 -0.3401
   10ALA     HA  106   1.657   1.558   2.576  0.0292  0.7615 -0.0220
   10ALA     CB  107   1.603   1.634   2.381  0.6430  0.1148  0.0975
   10ALA    HB1  108   1.614   1.537   2.328 -0.2595 -0.1385  0.3493
   10ALA    HB2  109   1.691   1.696   2.352 -0.7793  2.0104 -0.3333
   10ALA    HB3  110   1.515   1.688   2.340 -0.6786 -0.7318  1.7052
   10ALA      C  111   1.581   1.752   2.615  0.2877 -0.1237  0.7440
   10ALA      O  112   1.476   1.817   2.640  0.1285 -0.0840  0.2589
   11GLY      N  113   1.701   1.786   2.665 -0.1856 -0.2394  0.0651
   11GLY     HN  114   1.781   1.734   2.637  0.3428  0.2982  0.5370
   11GLY     CA  115   1.735   1.897   2.754  1.0140  0.2421 -0.4656
   11GLY    HA1  116   1.839   1.877   2.773  1.1061 -0.1130 -1.2949
   11GLY    HA2  117   1.672   1.889   2.842 -0.6073 -1.2968 -1.7017
   11GLY      C  118   1.712   2.040   2.695  0.1480  0.3062 -0.6248
   11GLY    OT1  119   1.796   2.071   2.603 -0.0486  0.0128 -0.4813
   11GLY    OT2  120   1.623   2.113   2.741 -0.3159 -0.5438 -0.0267
   12LIT    LIT  121   5.810   2.604   2.860 -0.0816 -0.3678  0.1452
   13LIT    LIT  122   1.714   4.900   4.694 -0.5120 -0.6426 -1.0420
   14LIT    LIT  123   4.932   0.795   4.069  0.3116  0.1261  0.0609
   15LIT    LIT  124   1.360   0.945   0.779  0.0153  0.0754  0.5789
   16LIT    LIT  125   6.014   5.009   2.388  0.3410  0.5067  1.1690
   17LIT    LIT  126   3.301   5.162   2.608 -0.1665  0.4728 -0.7862
   18LIT    LIT  127   3.943   5.348   3.396 -0.4719 -1.0897  0.5042
   19LIT    LIT  128   1.205   1.117   2.280 -0.1477 -0.0493  0.7646
   20LIT    LIT  129   1.310   1.391   4.831  0.0043 -1.4254 -0.6095
   21LIT    LIT  130   3.549   2.898   0.128  0.7616 -0.5326 -0.0871
   22LIT    LIT  131   2.723   0.031   3.602  0.1723 -0.4337 -0.1193
   23LIT    LIT  132   6.090   0.893   0.728 -0.2500 -0.8442 -0.0111
   24LIT    LIT  133   4.603   2.429   4.219 -1.4341  0.5682 -0.7384
   25LIT    LIT  134   0.051   4.008   2.860  0.1110 -1.3409  0.5979
   26LIT    LIT  135   4.484   2.739   4.893  0.4511 -0.1773 -0.5100
   27LIT    LIT  136   4.039   0.979   1.768  0.4045  0.3330  1.1578
   28LIT    LIT  137   2.004   3.198   1.973 -0.2896  0.8818 -1.4078
   29LIT    LIT  138   2.951   4.914   4.814 -0.0699 -0.6517 -0.1250
   30LIT    LIT  139   1.852   1.201   1.868 -0.2299  0.3039  0.1626
   31LIT    LIT  140   0.885   1.152   3.587 -0.5432  0.3824 -0.7177
   32LIT    LIT  141   4.276   3.804   1.517 -0.1924 -1.5805 -0.6394
   33LIT    LIT  142   2.305   2.768   3.245 -0.3870  0.1114 -0.6823
   34CLA    CLA  143   5.661   2.828   0.119 -0.2707  0.2474  0.2667
   35CLA    CLA  144   1.817   0.516   4.407  0.0039  0.2221  0.2562
   36CLA    CLA  145   1.665   1.903   0.378 -0.3220  0.0510  0.1061
   37CLA    CLA  146   3.703   3.491   2.673 -0.1950  0.0331 -0.0877
   38CLA    CLA  147   1.850   3.269   4.460  0.0607  0.5888 -0.5938
   39CLA    CLA  148   3.538   1.706   4.429 -0.0216  0.4413 -0.2063
   40CLA    CLA  149   1.737   3.820   0.248  0.2798  0.1418  0.1514
   41CLA    CLA  150   5.806   1.670   0.965 -0.1095  0.2337 -0.2996
   42CLA    CLA  151   5.043   3.170   3.163  0.0803  0.2304  0.5740
   43CLA    CLA  152   3.787   2.562   0.434 -0.2044  0.1448 -0.3611
   44CLA    CLA  153   3.291   0.990   4.233  0.0894 -0.3583 -0.0641
   45CLA    CLA  154   0.046   0.104   2.598  0.0108  0.0613  0.7742
   46CLA    CLA  155   2.065   0.932   3.835 -0.1594 -0.1061 -0.2304
   47CLA    CLA  156   4.337   2.724   5.071  0.2190 -0.0362  0.0527
   48CLA    CLA  157   4.102   4.616   3.670 -0.6019 -0.0835 -0.0538
   49CLA    CLA  158   1.045   1.776   4.301 -0.0804 -0.3568  0.2925
   50CLA    CLA  159   4.207   2.011   2.719 -0.1387 -0.0303  0.2051
   51CLA    CLA  160   4.266   1.570   2.989  0.1600 -0.1694  0.1077
   52TIP3   OH2  161   1.629   4.772   2.702 -0.6631 -0.1016  0.6072
   52TIP3    H1  162   1.656   4.857   2.737  0.7783 -0.7387  1.1001
   52TIP3    H2  163   1.559   4.794   2.640  0.9096  1.6605 -0.6759
   53TIP3   OH2  164   1.119   5.818   2.675 -0.1050 -0.3169  0.0782
   53TIP3    H1  165   1.038   5.825   2.624 -0.2269 -1.0734  0.1502
   53TIP3    H2  166   1.146   5.908   2.690 -0.9320 -0.0567  0.0451
   54TIP3   OH2  167   5.848   5.518   4.604  0.4626  0.2832 -0.3080
   54TIP3    H1  168   5.915   5.496   4.540  0.9018  1.1356 -0.1538
   54TIP3    H2  169   5.895   5.565   4.673 -0.5905  2.9185 -1.2555
   55TIP3   OH2  170   4.990   3.947   4.952 -1.4254  0.3484  0.0119
   55TIP3    H1  171   5.021   3.857   4.956 -2.2931  0.0771  2.3065
   55TIP3    H2  172   4.955   3.956   4.863 -0.2899 -1.1836 -0.6439
   56TIP3   OH2  173   5.735   2.697   5.048 -0.3260 -0.3274  0.1888
   56TIP3    H1  174   5.785   2.686   5.129 -3.6808 -0.9795  2.3766
   56TIP3    H2  175   5.655   2.743   5.074 -1.6136 -0.6343 -2.7285
   57TIP3   OH2  176   2.673   4.359   1.600 -0.6749  0.0854  0.0262
   57TIP3    H1  177   2.710   4.445   1.579  0.6237 -0.2363  0.8883
   57TIP3    H2  178   2.749   4.303   1.613 -1.5033 -1.0742  0.0079
   58TIP3   OH2  179   5.308   3.841   1.607  0.9780 -0.4850  0.3241
   58TIP3    H1  180   5.399   3.814   1.618  1.3815 -0.0990 -1.6912
   58TIP3    H2  181   5.292   3.901   1.680  2.5094 -0.1572  0.4310
   59TIP3   OH2  182   4.159   1.122   1.025  0.1449  0.3949 -0.4241
   59TIP3    H1  183   4.097   1.081   1.085  1.8875 -0.5480  0.8216
   59TIP3    H2  184   4.132   1.214   1.020 -0.6699  0.2513  0.9737
   60TIP3   OH2  185   1.422   3.778   3.443 -0.3660  0.1096  0.5395
   60TIP3    H1  186   1.417   3.711   3.376  0.3247  0.3121  0.2764
   60TIP3    H2  187   1.358   3.752   3.509  0.5505 -1.3378  0.9043
   61TIP3   OH2  188   3.527   5.607   0.833  0.0890  0.1303 -0.4017
   61TIP3    H1  189   3.463   5.645   0.772 -1.7840  0.3832  1.5885
   61TIP3    H2  190   3.493   5.520   0.852 -1.4829  1.3037  2.9517
   62TIP3   OH2  191   6.005   3.522   3.667  0.2708  0.0053 -0.0649
   62TIP3    H1  192   6.069   3.516   3.597 -0.7756 -2.4599 -0.9161
   62TIP3    H2  193   6.002   3.434   3.704  1.3012  1.3508  3.6463
   63TIP3   OH2  194   2.868   3.100   0.822 -0.5084  0.1893 -0.1732
   63TIP3    H1  195   2.815   3.128   0.748  0.3341 -1.1007 -1.3008
   63TIP3    H2  196   2.920   3.177   0.844  0.0829  0.2628 -1.7067
   64TIP3   OH2  197   0.501   2.450   3.418 -0.6194 -0.7566  0.1426
   64TIP3    H1  198   0.426   2.498   3.454  0.9557  0.2024  2.3107
   64TIP3    H2  199   0.539   2.405   3.493 -0.1148 -2.8255 -1.2734
   65TIP3   OH2  200   0.622   5.822   3.167  0.2705  0.0955 -0.6224
   65TIP3    H1  201   0.647   5.731   3.182 -0.5075 -0.2096 -1.1282
   65TIP3    H2  202   0.655   5.841   3.079  0.2811  0.2467 -0.5856
   66TIP3   OH2  203   0.469   1.768   4.262 -0.1049  0.1583  0.0846
   66TIP3    H1  204   0.389   1.719   4.243  0.7340 -0.3790 -2.4591
   66TIP3    H2  205   0.447   1.859   4.243 -0.9415  0.4957  2.3943
   67TIP3   OH2  206   1.864   2.088   1.735  0.0775  0.4686 -0.1118
   67TIP3    H1  207   1.913   2.106   1.815 -1.8731  0.0728  1.2397
   67TIP3    H2  208   1.788   2.146   1.739 -0.1870  0.2608 -1.5597
   68TIP3   OH2  209   2.564   0.525   0.092  0.4250 -0.2813 -0.0410
   68TIP3    H1  210   2.652   0.488   0.085  0.1022 -0.7507 -3.4290
   68TIP3    H2  211   2.507   0.448   0.101  0.2630 -0.0417  1.0823
   69TIP3   OH2  212   4.205   3.108   3.977 -0.0283 -0.2931 -0.5999
   69TIP3    H1  213   4.210   3.203   3.968 -0.8226 -0.2035 -0.2537
   69TIP3    H2  214   4.115   3.092   4.007  0.5548 -1.0291  0.8565
   70TIP3   OH2  215   1.756   1.042   5.084 -0.0339 -0.7317  0.0360
   70TIP3    H1  216   1.819   1.018   5.151 -0.9356 -2.2927  0.3812
   70TIP3    H2  217   1.770   0.979   5.013 -1.4208 -1.3573  0.2821
   71TIP3   OH2  218   0.265   2.596   1.541 -0.3488  0.0766 -1.0138
   71TIP3    H1  219   0.359   2.591   1.556 -0.2825  0.3974 -1.3053
   71TIP3    H2  220   0.230   2.515   1.578 -0.0476  0.2829 -0.2605
   72TIP3   OH2  221   5.177   3.630   2.810 -0.1720 -0.2674 -0.1820
   72TIP3    H1  222   5.265   3.666   2.804 -0.2872  0.4513  1.8131
   72TIP3    H2  223   5.119   3.706   2.818 -0.8505 -0.7703 -0.1731
   73TIP3   OH2  224   1.311   1.884   2.424 -0.0218 -0.9958 -0.3491
   73TIP3    H1  225   1.367   1.884   2.502 -0.8319 -1.3884  0.2522
   73TIP3    H2  226   1.314   1.794   2.392 -2.3471 -1.7189  1.2329
   74TIP3   OH2  227   5.780   0.376   2.372 -0.3007  1.0438 -0.0824
   74TIP3    H1  228   5.767   0.284   2.351 -0.6289  1.1913 -0.5583
   74TIP3    H2  229   5.875   0.389   2.367 -0.2068  0.6217  0.4944
   75TIP3   OH2  230   5.587   0.090   0.196  0.4498  0.4978 -0.8605
   75TIP3    H1  231   5.619   0.120   0.111  1.0292  0.7708 -0.5548
   75TIP3    H2  232   5.492   0.101   0.192  0.4080 -0.1414 -1.7189
   76TIP3   OH2  233   0.263   3.667   1.599 -0.2356  0.0104  0.0131
   76TIP3    H1  234   0.175   3.647   1.630 -0.7850  1.2287 -0.6522
   76TIP3    H2  235   0.317   3.595   1.630 -1.7651 -1.6352 -0.9547
   77TIP3   OH2  236   0.121   2.107   2.782 -0.2359 -0.3311 -0.0894
   77TIP3    H1  237   0.196   2.164   2.797  0.0344 -0.7361  0.1047
   77TIP3    H2  238   0.126   2.042   2.851 -1.8690  0.7655  1.1623
   78TIP3   OH2  239   0.710   1.594   3.951 -0.3482 -0.2320  0.0771
   78TIP3    H1  240   0.657   1.564   4.025  1.2749  1.1072  1.8939
   78TIP3    H2  241   0.702   1.689   3.953 -0.7380 -0.1903 -1.8930
   79TIP3   OH2  242   3.520   1.248   1.496  0.0635 -0.5364  0.3585
   79TIP3    H1  243   3.449   1.252   1.561 -0.6796 -2.8574 -0.2173
   79TIP3    H2  244   3.594   1.293   1.538 -0.9600 -0.3348  2.0234
   80TIP3   OH2  245   2.095   4.947   2.947 -0.2517 -0.2750  0.0262
   80TIP3    H1  246   2.039   5.016   2.982  0.6629 -0.0580  1.1127
   80TIP3    H2  247   2.156   4.927   3.018  1.6799  0.1607 -1.4187
   81TIP3   OH2  248   0.932   4.706   2.696 -0.2591 -0.0108  0.2381
   81TIP3    H1  249   1.011   4.671   2.656 -0.2906  1.2777 -1.0581
   81TIP3    H2  250   0.915   4.788   2.648 -0.2595  1.7275  2.9586
   82TIP3   OH2  251   1.386   2.743   3.975 -0.1074 -0.6695 -0.2616
   82TIP3    H1  252   1.299   2.775   3.952  0.3370  0.6541 -0.1716
   82TIP3    H2  253   1.418   2.805   4.040  1.0604 -0.9108 -0.5838
   83TIP3   OH2  254   2.873   5.862   2.846 -0.4695  0.2620 -0.5866
   83TIP3    H1  255   2.892   5.873   2.752  0.1525 -1.9040 -0.7598
   83TIP3    H2  256   2.824   5.780   2.851  1.2894 -0.7656  1.1562
   84TIP3   OH2  257   5.704   5.236   3.896 -0.5740  0.4121 -0.1229
   84TIP3    H1  258   5.790   5.236   3.853 -0.2079  0.0642  0.5808
   84TIP3    H2  259   5.681   5.143   3.902  0.0108  0.3302  1.6002
   85TIP3   OH2  260   3.414   3.912   0.364 -0.0235  0.5783  0.6948
   85TIP3    H1  261   3.496   3.933   0.408  1.4478 -1.7039 -0.7256
   85TIP3    H2  262   3.422   3.951   0.277  0.7332 -1.6395 -0.3184
   86TIP3   OH2  263   3.263   3.184   1.875  0.4179 -0.9414 -0.1142
   86TIP3    H1  264   3.267   3.161   1.968 -1.2426 -1.3404 -0.1169
   86TIP3    H2  265   3.183   3.236   1.866  1.1109  0.0182 -1.1489
   87TIP3   OH2  266   4.749   5.915   3.328 -0.3944 -0.0002  0.4299
   87TIP3    H1  267   4.777   5.826   3.350  1.4570 -0.0345 -1.7087
   87TIP3    H2  268   4.806   5.972   3.379  1.0059 -0.0774 -1.0005
   88TIP3   OH2  269   3.036   3.805   2.696 -0.2738  0.7484 -0.4554
   88TIP3    H1  270   3.088   3.886   2.693  0.3288  0.4247  0.6907
   88TIP3    H2  271   3.070   3.757   2.772 -1.4319 -0.0433 -0.4065
   89TIP3   OH2  272   4.848   3.607   2.269  0.6643  0.0504  0.0243
   89TIP3    H1  273   4.922   3.556   2.237  0.7490 -0.4658  1.0186
   89TIP3    H2  274   4.773   3.548   2.262  0.5519  0.1838  0.1017
   90TIP3   OH2  275   6.035   2.068   4.053 -0.1334 -0.0269  0.6368
   90TIP3    H1  276   6.022   2.114   3.970  0.8174 -1.9141 -0.6365
   90TIP3    H2  277   6.121   2.097   4.083 -0.9425  1.4958  1.5767
   91TIP3   OH2  278   0.169   4.362   2.781  0.4745  0.1679 -0.7208
   91TIP3    H1  279   0.093   4.395   2.828  0.9205 -1.4338  1.2180
   91TIP3    H2  280   0.200   4.438   2.731 -1.3532  1.3152 -0.2101
   92TIP3   OH2  281   4.942   0.064   4.675  0.1412  0.5368  0.4176
   92TIP3    H1  282   4.926   0.118   4.752 -0.9923  1.4150 -0.4003
   92TIP3    H2  283   4.859   0.063   4.628  0.0965 -1.9863  0.3978
   93TIP3   OH2  284   5.038   0.954   0.241  0.1574  0.1572 -1.0181
   93TIP3    H1  285   5.110   1.010   0.212  1.6657 -1.4685 -0.6223
   93TIP3    H2  286   4.961   0.987   0.195  1.5126  0.7714 -2.9702
   94TIP3   OH2  287   5.807   4.676   2.070  0.8623  0.0254  0.2279
   94TIP3    H1  288   5.879   4.649   2.127  1.6315  0.0577 -0.7060
   94TIP3    H2  289   5.728   4.666   2.124  1.2418 -2.7446  0.4071
   95TIP3   OH2  290   4.099   0.573   3.052  0.0326 -0.9221 -1.1751
   95TIP3    H1  291   4.106   0.479   3.036  0.0577 -1.1554  0.0937
   95TIP3    H2  292   4.188   0.605   3.043  0.1269 -1.1356 -1.0290
   96TIP3   OH2  293   1.190   5.653   1.227 -0.0040  0.2229  0.1220
   96TIP3    H1  294   1.228   5.586   1.170 -0.6799 -1.6275  1.7165
   96TIP3    H2  295   1.253   5.724   1.225  0.8703 -0.5278 -1.4799
   97TIP3   OH2  296   0.167   2.383   3.892  0.3527  0.0509  0.3214
   97TIP3    H1  297   0.238   2.413   3.949  0.0513  0.1146  0.6645
   97TIP3    H2  298   0.161   2.289   3.908 -1.4002  0.4390  2.3015
   98TIP3   OH2  299   3.141   5.327   3.451  0.0678  0.0031  0.5758
   98TIP3    H1  300   3.100   5.358   3.371  2.5086  0.9262 -0.4027
   98TIP3    H2  301   3.182   5.243   3.428  1.4560  0.6497  0.5929
   99TIP3   OH2  302   1.686   2.890   0.747 -0.2960 -0.0219 -0.5417
   99TIP3    H1  303   1.690   2.804   0.788  0.3455 -0.6152 -1.7855
   99TIP3    H2  304   1.685   2.872   0.653 -2.5194  1.2359 -0.8555
  100TIP3   OH2  305   4.849   0.502   3.850  0.3270 -0.2756  0.2773
  100TIP3    H1  306   4.864   0.414   3.814  1.4071  1.1984 -3.2952
  100TIP3    H2  307   4.935   0.530   3.881  0.2266 -0.0126  0.3196
  101TIP3   OH2  308   3.029   2.240   3.875 -0.3342  0.6517  0.3123
  101TIP3    H1  309   3.013   2.246   3.969  0.8384  0.1354  0.5614
  101TIP3    H2  310   2.963   2.178   3.843  0.1180 -0.2129  1.0252
  102TIP3   OH2  311   2.490   5.160   0.125 -0.4542 -0.0669 -0.1226
  102TIP3    H1  312   2.457   5.242   0.088  1.3686  0.6604 -0.2314
  102TIP3    H2  313   2.536   5.186   0.205  0.4572 -0.9264 -0.3437
  103TIP3   OH2  314   0.181   5.187   1.376  0.2738 -0.0074 -0.1775
  103TIP3    H1  315   0.266   5.190   1.420  0.5668  0.4977 -0.7535
  103TIP3    H2  316   0.131   5.122   1.424  1.4991 -1.4170 -0.7336
  104TIP3   OH2  317   1.330   3.348   1.559  0.4479 -0.1045  0.1500
  104TIP3    H1  318   1.374   3.367   1.476  1.4722  0.7904  0.8681
  104TIP3    H2  319   1.279   3.269   1.541 -0.9163  1.1202 -1.8799
  105TIP3   OH2  320   1.699   1.298   1.166 -0.7779  0.3517  0.5399
  105TIP3    H1  321   1.744   1.379   1.189 -1.4560  0.4762  1.4775
  105TIP3    H2  322   1.614   1.305   1.210 -1.4432 -0.1908 -0.6060
  106TIP3   OH2  323   5.710   4.398   0.875 -0.6413  0.2407  0.4277
  106TIP3    H1  324   5.737   4.428   0.962  0.9070  2.3693 -0.6855
  106TIP3    H2  325   5.714   4.477   0.820 -0.8735 -1.1585 -1.7302
  107TIP3   OH2  326   4.750   5.542   3.786  0.0878 -0.7197 -0.5735
  107TIP3    H1  327   4.766   5.561   3.879 -0.0170 -0.6174 -0.5759
  107TIP3    H2  328   4.806   5.467   3.767  1.6993  0.5150 -0.9531
  108TIP3   OH2  329   3.251   0.634   0.609  0.2098  0.1402  0.0362
  108TIP3    H1  330   3.295   0.685   0.677 -0.4671  1.0929 -0.2164
  108TIP3    H2  331   3.193   0.697   0.566 -2.1521 -1.2402  0.9802
  109TIP3   OH2  332   4.308   0.186   4.518  0.4321  0.1249 -0.2659
  109TIP3    H1  333   4.393   0.214   4.551 -0.5914  2.2409  0.7469
  109TIP3    H2  334   4.259   0.267   4.505 -1.0871 -0.9770 -1.8369
  110TIP3   OH2  335   4.943   4.735   1.113 -0.3596  0.4011  0.3645
  110TIP3    H1  336   4.932   4.736   1.018  1.8970 -0.6423  0.0316
  110TIP3    H2  337   4.947   4.642   1.135  1.8492  0.6300  1.0812
  111TIP3   OH2  338   2.545   1.603   0.840  0.3342 -0.2715  0.1726
  111TIP3    H1  339   2.631   1.567   0.863  0.4863  0.1534  0.2734
  111TIP3    H2  340   2.538   1.593   0.746 -0.2137 -1.8645  0.3529
  112TIP3   OH2  341   2.973   5.702   1.995 -0.0298 -0.0152 -0.0084
  112TIP3    H1  342   2.917   5.752   1.937 -0.1669  0.4439  0.5075
  112TIP3    H2  343   2.941   5.723   2.083  0.6448 -0.1082  0.2672
  113TIP3   OH2  344   2.286   4.123   2.262  0.4654  0.0713 -0.0909
  113TIP3    H1  345   2.349   4.091   2.197 -2.1997 -3.2036 -1.2985
  113TIP3    H2  346   2.228   4.181   2.213  0.7783  0.7784  0.3546
  114TIP3   OH2  347   3.651   5.788   0.994  0.5703 -0.1720  0.0768
  114TIP3    H1  348   3.628   5.719   0.932  1.1260 -0.9641  0.7251
  114TIP3    H2  349   3.600   5.864   0.966  0.2090 -0.7461 -0.8580
  115TIP3   OH2  350   3.742   0.049   2.828 -0.2245 -0.1744 -0.2418
  115TIP3    H1  351   3.730   0.083   2.916 -2.1075 -1.4557  0.0544
  115TIP3    H2  352   3.735   0.126   2.771  0.2214  0.5414  0.6588
  116TIP3   OH2  353   0.092   1.627   2.914  0.4040 -0.0447  0.1075
  116TIP3    H1  354   0.075   1.567   2.987  1.1567  1.0412  1.2001
  116TIP3    H2  355   0.140   1.574   2.851 -1.4271 -1.3849 -0.2408
  117TIP3   OH2  356   5.497   5.083   1.975 -0.2927  0.1144 -0.3104
  117TIP3    H1  357   5.430   5.152   1.976 -1.0372 -0.5423  1.8935
  117TIP3    H2  358   5.491   5.044   1.888 -1.1399  1.5949 -0.9586
  118TIP3   OH2  359   5.397   0.645   1.630 -0.3091  0.1885  0.1013
  118TIP3    H1  360   5.432   0.710   1.569 -0.2094  0.2936  0.2694
  118TIP3    H2  361   5.455   0.650   1.706  1.7308 -2.4106 -1.1381
  119TIP3   OH2  362   6.000   2.900   1.878 -0.2389  0.3717  0.8009
  119TIP3    H1  363   6.066   2.834   1.860 -1.4474 -0.6169 -0.1387
  119TIP3    H2  364   6.012   2.965   1.809  0.5414  0.8437  1.3621
  120TIP3   OH2  365   4.301   2.562   2.188 -0.1037  0.1662  0.4716
  120TIP3    H1  366   4.305   2.476   2.231 -0.8905 -0.9442 -1.5320
  120TIP3    H2  367   4.378   2.609   2.220 -0.1632 -0.9152  2.3420
  121TIP3   OH2  368   1.170   3.024   0.773  0.4640 -0.7186 -0.3692
  121TIP3    H1  369   1.166   3.000   0.866 -0.5758  1.0038  0.0757
  121TIP3    H2  370   1.261   3.052   0.759  0.8023 -1.6377 -0.0575
  122TIP3   OH2  371   3.938   0.078   0.235 -0.4701 -0.8780  0.1368
  122TIP3    H1  372   3.962   0.003   0.181 -0.4703 -1.0195  0.3378
  122TIP3    H2  373   3.847   0.062   0.260 -0.0383 -1.5020  1.3524
  123TIP3   OH2  374   3.263   5.328   5.192 -0.1603  0.0202  0.0151
  123TIP3    H1  375   3.241   5.373   5.111 -0.5943 -2.2077 -1.1632
  123TIP3    H2  376   3.353   5.355   5.210 -0.5510  1.6879 -0.3654
  124TIP3   OH2  377   3.004   4.057   3.629  0.4298  0.1825 -0.1389
  124TIP3    H1  378   3.098   4.055   3.645  0.9756  0.0084 -2.8060
  124TIP3    H2  379   2.974   3.967   3.642  0.3379  0.4807  1.9546
  125TIP3   OH2  380   0.911   5.833   0.892  0.1067 -0.2094 -0.4844
  125TIP3    H1  381   0.981   5.874   0.842  0.6292  0.0843  0.4656
  125TIP3    H2  382   0.830   5.861   0.848  0.3715  2.5188  0.5633
  126TIP3   OH2  383   1.208   3.222   3.071 -1.2027  0.0556 -0.0444
  126TIP3    H1  384   1.290   3.178   3.049 -2.0070 -1.2491 -0.5283
  126TIP3    H2  385   1.226   3.315   3.056 -0.2844 -0.3472 -1.6251
  127TIP3   OH2  386   4.905   1.480   1.792 -0.3022  0.1621 -0.1843
  127TIP3    H1  387   4.897   1.556   1.850  0.3063  1.1134 -1.2869
  127TIP3    H2  388   4.815   1.456   1.770 -0.5541 -0.5007  1.4791
  128TIP3   OH2  389   3.562   1.850   0.204 -0.6919 -0.4081 -0.1492
  128TIP3    H1  390   3.601   1.876   0.121  0.2498  0.4448  0.5286
  128TIP3    H2  391   3.636   1.846   0.265 -1.2347 -1.8754  0.4536
  129TIP3   OH2  392   1.786   0.712   0.582 -0.5784  0.2495 -0.6930
  129TIP3    H1  393   1.773   0.718   0.677 -0.1310 -0.7088 -0.5637
  129TIP3    H2  394   1.758   0.797   0.549 -1.6526  0.2664  0.2000
  130TIP3   OH2  395   5.062   3.171   0.548  0.1156  0.1398  0.1390
  130TIP3    H1  396   5.157   3.160   0.546  0.0592 -0.5057  0.7009
  130TIP3    H2  397   5.029   3.091   0.589 -0.6843  0.2915 -0.1829
  131TIP3   OH2  398   0.333   5.769   1.308 -0.0408 -0.8071  0.3689
  131TIP3    H1  399   0.279   5.790   1.384  1.6580 -0.2573  1.4866
  131TIP3    H2  400   0.285   5.805   1.233 -0.8848  0.2547  1.3872
  132TIP3   OH2  401   2.429   2.550   4.123  0.0601 -0.2849  0.2402
  132TIP3    H1  402   2.440   2.490   4.049  0.4655  0.8972 -0.7016
  132TIP3    H2  403   2.450   2.498   4.200  0.4720 -1.3221 -0.5460
  133TIP3   OH2  404   4.373   2.110   0.853 -0.2550 -0.0618  0.4224
  133TIP3    H1  405   4.291   2.146   0.819 -0.3102 -0.6067 -0.0538
  133TIP3    H2  406   4.382   2.026   0.808 -0.3481 -0.8425  1.8211
  134TIP3   OH2  407   3.472   2.256   3.349  0.2863  0.4449 -0.5456
  134TIP3    H1  408   3.529   2.184   3.324 -2.1353 -1.2393 -1.6659
  134TIP3    H2  409   3.430   2.283   3.267  0.0487  2.1463  0.0985
  135TIP3   OH2  410   2.516   4.099   0.517 -0.8425 -0.1854  0.1247
  135TIP3    H1  411   2.491   4.051   0.596  0.7378 -2.1698 -0.4896
  135TIP3    H2  412   2.583   4.160   0.546  2.2077 -3.1549 -0.0073
  136TIP3   OH2  413   3.342   4.853   0.888  0.4592  0.5633  1.0658
  136TIP3    H1  414   3.260   4.861   0.937  0.0497 -0.6568  0.6026
  136TIP3    H2  415   3.359   4.759   0.883  0.7637  0.6766 -0.6700
  137TIP3   OH2  416   1.087   5.271   0.949  0.2737 -0.1666  0.0838
  137TIP3    H1  417   1.173   5.231   0.962  1.5584  1.5680 -2.3294
  137TIP3    H2  418   1.075   5.272   0.854 -2.4339 -0.2817  0.3406
  138TIP3   OH2  419   4.886   4.676   2.041  0.4496 -0.1793  0.3397
  138TIP3    H1  420   4.929   4.761   2.040  1.4226 -0.6615  0.4252
  138TIP3    H2  421   4.793   4.696   2.046  0.6104  0.8946 -0.6750
  139TIP3   OH2  422   5.820   2.946   0.931 -0.4311  0.0748 -0.1991
  139TIP3    H1  423   5.908   2.982   0.920  0.0221 -1.4288 -1.9089
  139TIP3    H2  424   5.787   2.987   1.011  1.5404  1.2082  0.0845
  140TIP3   OH2  425   1.839   2.081   0.751 -0.1645 -0.1392 -0.7896
  140TIP3    H1  426   1.837   1.991   0.718  0.1416 -0.8844  1.0824
  140TIP3    H2  427   1.930   2.109   0.740 -0.3828  0.1866 -1.9126
  141TIP3   OH2  428   6.293   3.830   2.827  0.2606 -0.1297  0.0701
  141TIP3    H1  429   6.261   3.779   2.901 -1.0459  3.2467  2.0471
  141TIP3    H2  430   6.245   3.796   2.752  0.2980 -2.4702  1.0246
  142TIP3   OH2  431   4.504   2.001   3.388  0.2911 -0.4179  0.2095
  142TIP3    H1  432   4.461   2.084   3.366  1.0788 -0.0146  0.1727
  142TIP3    H2  433   4.453   1.967   3.461 -0.2330 -0.0610  0.0182
  143TIP3   OH2  434   3.986   3.505   0.829  0.2062 -0.0563  0.2731
  143TIP3    H1  435   4.025   3.481   0.745  1.0706 -0.3819  0.7599
  143TIP3    H2  436   3.935   3.427   0.854 -1.5532  0.6909 -0.7903
  144TIP3   OH2  437   3.219   5.502   3.629 -0.4168  0.3052 -0.5185
  144TIP3    H1  438   3.143   5.558   3.611 -0.5269 -0.3754 -2.3677
  144TIP3    H2  439   3.221   5.440   3.556  0.6921 -1.0425  0.5958
  145TIP3   OH2  440   4.148   1.794   3.847 -0.0818  0.6769 -0.0169
  145TIP3    H1  441   4.136   1.702   3.822  4.3446 -0.1174 -0.0536
  145TIP3    H2  442   4.164   1.840   3.764  2.6978  0.3559  0.2323
  146TIP3   OH2  443   5.255   1.757   3.534 -0.8093  0.1015  0.1174
  146TIP3    H1  444   5.249   1.731   3.626  0.8073  0.5010  0.3658
  146TIP3    H2  445   5.211   1.687   3.486  0.1677 -1.1814  1.0436
  147TIP3   OH2  446   5.340   2.858   1.264  0.0443  0.2988 -0.5095
  147TIP3    H1  447   5.410   2.859   1.329  0.0590 -0.6047 -0.5030
  147TIP3    H2  448   5.370   2.798   1.196 -1.3125 -1.2040  0.1748
  148TIP3   OH2  449   4.737   2.849   0.218  0.2971  0.4911  0.3502
  148TIP3    H1  450   4.800   2.886   0.157  1.5846 -0.1423  1.2681
  148TIP3    H2  451   4.691   2.781   0.167 -0.0125  1.2810 -0.4571
  149TIP3   OH2  452   4.135   2.833   2.845  0.2599  0.6625  0.0951
  149TIP3    H1  453   4.059   2.827   2.787  0.8306  0.0797 -0.6050
  149TIP3    H2  454   4.169   2.744   2.848  0.8517  0.9024  0.4931
  150TIP3   OH2  455   1.349   0.034   5.183  0.1952  0.1397  0.1584
  150TIP3    H1  456   1.366   0.128   5.180 -1.1890  0.4808  1.4918
  150TIP3    H2  457   1.291   0.018   5.108  0.2903  0.3873  0.0311
  151TIP3   OH2  458   1.143   0.869   4.210 -0.0662 -0.0697 -0.1934
  151TIP3    H1  459   1.205   0.822   4.155  0.1921  0.3912 -0.3010
  151TIP3    H2  460   1.174   0.960   4.210  0.0391 -0.0899  0.8355
  152TIP3   OH2  461   5.291   4.928   0.134  0.3123  0.1041 -0.1799
  152TIP3    H1  462   5.348   4.953   0.062 -0.3288 -1.0662 -1.1449
  152TIP3    H2  463   5.271   5.010   0.180  0.6097  0.8897 -1.4212
  153TIP3   OH2  464   3.166   2.643   4.087 -0.3288  1.0786 -0.4031
  153TIP3    H1  465   3.086   2.605   4.050 -0.2176  2.0719 -1.7355
  153TIP3    H2  466   3.141   2.669   4.176 -0.8753 -0.5140 -0.0649
  154TIP3   OH2  467   4.566   1.141   0.834  0.0832  0.7406  0.0312
  154TIP3    H1  468   4.508   1.210   0.865  0.9769  1.9855 -0.9701
  154TIP3    H2  469   4.646   1.186   0.808 -0.1980 -0.2645 -3.0300
  155TIP3   OH2  470   3.536   0.513   1.497 -0.8910  0.1719 -0.4126
  155TIP3    H1  471   3.493   0.598   1.495  0.4657  0.9116  0.3374
  155TIP3    H2  472   3.560   0.496   1.406 -1.0330  0.6549 -0.5467
  156TIP3   OH2  473   6.307   2.861   1.247  0.0396  0.2721  0.1585
  156TIP3    H1  474   6.244   2.789   1.242  0.7210 -0.2118 -2.2292
  156TIP3    H2  475   6.352   2.847   1.330  0.1566 -2.0783 -0.2295
  157TIP3   OH2  476   4.341   2.261   0.444 -0.2650 -0.3011  0.4191
  157TIP3    H1  477   4.279   2.228   0.509  0.6766 -1.0308  0.9614
  157TIP3    H2  478   4.346   2.355   0.461 -0.1796 -0.4523  1.2805
  158TIP3   OH2  479   5.654   2.036   5.169 -0.6976  0.3684  0.4572
  158TIP3    H1  480   5.623   1.977   5.101 -2.8662  2.6440 -0.7044
  158TIP3    H2  481   5.734   2.074   5.133 -1.7509  1.4531 -0.8532
  159TIP3   OH2  482   0.161   0.801   4.543  0.1839 -0.1438  0.0198
  159TIP3    H1  483   0.242   0.770   4.503 -0.1415 -0.6202 -0.2901
  159TIP3    H2  484   0.137   0.731   4.604  0.7042  0.6016  1.1034
  160TIP3   OH2  485   0.542   2.487   0.580 -0.9960  0.7296  0.1004
  160TIP3    H1  486   0.581   2.401   0.597 -0.6260  0.2203 -2.7970
  160TIP3    H2  487   0.468   2.492   0.641 -0.0782 -0.9284  1.4533
  161TIP3   OH2  488   2.365   1.566   4.728 -0.3525  0.2094  0.0171
  161TIP3    H1  489   2.416   1.585   4.807 -1.2217  0.9779  0.4138
  161TIP3    H2  490   2.404   1.620   4.660 -2.5724  3.3592  1.0491
  162TIP3   OH2  491   2.582   0.084   3.169 -0.5618  0.1544 -0.4433
  162TIP3    H1  492   2.651   0.127   3.119  0.6170 -0.0137  0.9639
  162TIP3    H2  493   2.609  -0.008   3.174 -0.5114  0.2145  0.6867
  163TIP3   OH2  494   3.539   5.503   1.752  0.3581  0.4299  0.0571
  163TIP3    H1  495   3.529   5.409   1.767  1.4679  0.5015  1.3701
  163TIP3    H2  496   3.540   5.511   1.656 -5.6978 -0.1659 -0.3918
  164TIP3   OH2  497   1.236   5.841   2.280  0.0016 -0.0262  0.7316
  164TIP3    H1  498   1.256   5.757   2.321  0.3848 -1.0827 -1.4646
  164TIP3    H2  499   1.299   5.848   2.208 -0.6100  1.7417  0.3136
  165TIP3   OH2  500   3.566   4.437   0.015  0.6562 -0.3098 -0.0694
  165TIP3    H1  501   3.472   4.447   0.031  0.8473  0.5123  0.6425
  165TIP3    H2  502   3.577   4.345  -0.010  0.0941 -1.4474  3.2552
  166TIP3   OH2  503   6.055   5.752   3.269  0.1382  0.1456 -0.2920
  166TIP3    H1  504   5.962   5.772   3.272  0.1683  0.2535  2.3802
  166TIP3    H2  505   6.096   5.823   3.318  1.4265 -0.8223  0.0901
  167TIP3   OH2  506   6.239   3.035   0.610  0.8321 -0.0363 -0.3882
  167TIP3    H1  507   6.310   2.972   0.600  0.9198  0.0685 -0.4359
  167TIP3    H2  508   6.189   3.028   0.529  2.0915  1.4888 -1.3659
  168TIP3   OH2  509   5.595   4.687   3.446  0.1331 -0.2548  0.1219
  168TIP3    H1  510   5.682   4.647   3.450 -0.1798 -0.9083  0.7480
  168TIP3    H2  511   5.549   4.650   3.522 -0.5393  0.4326  0.0573
  169TIP3   OH2  512   1.578   0.223   2.386 -0.4494  0.0547  0.0495
  169TIP3    H1  513   1.560   0.198   2.476 -2.4423  0.3120 -0.2429
  169TIP3    H2  514   1.523   0.300   2.371  0.4783  0.5273 -1.1464
  170TIP3   OH2  515   4.165   5.706   1.737  0.1559 -0.0413  0.1115
  170TIP3    H1  516   4.100   5.766   1.775 -0.2242 -0.6542  0.4466
  170TIP3    H2  517   4.153   5.625   1.786  1.3271 -0.0958  0.3281
  171TIP3   OH2  518   2.777   3.977   1.521  0.4027  0.3485  0.3182
  171TIP3    H1  519   2.790   3.999   1.429 -0.9139  1.6790  0.4025
  171TIP3    H2  520   2.685   3.997   1.538  0.3748 -0.7817  1.6970
  172TIP3   OH2  521   3.426   2.865   3.184 -0.0369 -0.5453  0.2737
  172TIP3    H1  522   3.347   2.916   3.203 -0.8580 -1.1654 -1.3113
  172TIP3    H2  523   3.498   2.924   3.208 -0.9258 -0.2142  2.3796
  173TIP3   OH2  524   1.671   0.473   3.923  0.2492 -0.2567 -0.0405
  173TIP3    H1  525   1.684   0.562   3.891 -0.7596 -0.1241 -0.1075
  173TIP3    H2  526   1.609   0.483   3.995 -0.5964 -1.0060 -0.6518
  174TIP3   OH2  527   1.500   4.729   1.711 -0.0364 -0.1047  0.5052
  174TIP3    H1  528   1.512   4.712   1.618  0.0222 -1.3511  0.7129
  174TIP3    H2  529   1.570   4.679   1.753  0.0099  0.5400  1.2095
  175TIP3   OH2  530   0.284   5.630   0.153 -0.2252  0.0228  0.3240
  175TIP3    H1  531   0.224   5.654   0.082  0.5068 -0.6361 -0.5407
  175TIP3    H2  532   0.257   5.542   0.178  1.1439 -0.8012 -0.9456
  176TIP3   OH2  533   2.822   5.869   1.838  0.6347 -0.1684 -0.0082
  176TIP3    H1  534   2.755   5.831   1.781  2.7339 -1.9146 -1.4495
  176TIP3    H2  535   2.877   5.921   1.780  3.0973 -2.3457  0.2130
  177TIP3   OH2  536   5.471   5.611   0.159  0.2122  1.1552 -0.2949
  177TIP3    H1  537   5.464   5.595   0.065  1.1321 -1.7839  0.0558
  177TIP3    H2  538   5.496   5.704   0.166  2.4265  0.8703 -3.0491
  178TIP3   OH2  539   6.092   4.998   1.313  0.0157  0.9391 -0.0155
  178TIP3    H1  540   6.055   4.932   1.370  1.2757 -0.9052 -1.1983
  178TIP3    H2  541   6.028   5.008   1.242  0.3140  0.1062 -0.4186
  179TIP3   OH2  542   6.170   1.862   0.116  0.1163  0.3565  0.2769
  179TIP3    H1  543   6.207   1.898   0.035 -1.3709  1.1226 -0.0974
  179TIP3    H2  544   6.237   1.880   0.182  1.2861 -0.1411 -0.7432
  180TIP3   OH2  545   4.346   1.526   1.740 -0.0660  0.0702  0.2247
  180TIP3    H1  546   4.267   1.540   1.793  0.5687 -0.3822  1.3268
  180TIP3    H2  547   4.418   1.558   1.795  0.6388 -0.5888 -0.2899
  181TIP3   OH2  548   3.175   5.145   2.747  0.1439 -0.3332 -0.0162
  181TIP3    H1  549   3.110   5.086   2.785 -0.6326  0.1701 -0.5367
  181TIP3    H2  550   3.157   5.230   2.787  0.6227 -0.2274 -0.0128
  182TIP3   OH2  551   1.667   3.256   1.361  0.1130  0.0146  0.2959
  182TIP3    H1  552   1.609   3.323   1.325  0.6707 -0.1270 -0.8923
  182TIP3    H2  553   1.752   3.299   1.369  0.7260 -0.7920 -1.4166
  183TIP3   OH2  554   2.654   1.219   3.623 -0.3260  0.0689 -0.4560
  183TIP3    H1  555   2.591   1.188   3.688 -2.5077  0.7044 -2.1406
  183TIP3    H2  556   2.623   1.182   3.540  1.0948  1.0373 -1.4620
  184TIP3   OH2  557   2.913   4.611   0.252  0.1809  0.1000  0.2314
  184TIP3    H1  558   2.916   4.690   0.306  0.2247  0.2478  0.0144
  184TIP3    H2  559   2.852   4.633   0.181 -1.0777 -0.6123  1.0470
  185TIP3   OH2  560   0.349   3.590   5.057  0.6225 -0.9835  0.4197
  185TIP3    H1  561   0.254   3.579   5.065  0.4869  0.3504  0.9025
  185TIP3    H2  562   0.380   3.588   5.147  1.2492 -2.8012  0.1928
  186TIP3   OH2  563   3.721   3.219   2.429  0.2615  0.0619  0.1295
  186TIP3    H1  564   3.633   3.210   2.392 -0.1518 -0.3540  1.1593
  186TIP3    H2  565   3.722   3.307   2.467  1.0822  0.9474 -1.8017
  187TIP3   OH2  566   3.168   1.685   0.475 -0.4386  0.8125 -0.0130
  187TIP3    H1  567   3.131   1.658   0.391  0.8685 -1.0580 -0.0364
  187TIP3    H2  568   3.247   1.733   0.452 -1.0112  1.8760  0.1430
  188TIP3   OH2  569   1.681   5.460   3.566  0.9202  0.3823 -0.3199
  188TIP3    H1  570   1.765   5.420   3.588  0.5991 -1.3076 -1.8795
  188TIP3    H2  571   1.703   5.542   3.522  1.8016 -0.2141 -1.0278
  189TIP3   OH2  572   5.565   0.865   4.878 -0.2535 -0.6708  0.5646
  189TIP3    H1  573   5.585   0.776   4.908  2.3381 -0.0342  0.9381
  189TIP3    H2  574   5.642   0.916   4.901 -1.1354  1.4254 -0.8364
  190TIP3   OH2  575   0.719   3.419   0.278  0.2698 -0.2846 -0.4422
  190TIP3    H1  576   0.671   3.434   0.196 -1.9731  0.0398  0.8566
  190TIP3    H2  577   0.762   3.503   0.296 -0.0832 -0.0342 -0.7548
  191TIP3   OH2  578   5.492   4.467   0.651  0.1565  0.3184  0.2151
  191TIP3    H1  579   5.451   4.382   0.636  2.0090 -0.6381  0.1943
  191TIP3    H2  580   5.582   4.455   0.621  0.6935  2.0400  1.0243
  192TIP3   OH2  581   1.097   5.521   3.838  0.4239  0.2251 -0.0322
  192TIP3    H1  582   1.152   5.573   3.779  0.5755  0.0916 -0.0109
  192TIP3    H2  583   1.112   5.560   3.924  0.5923  0.1007 -0.0055
  193TIP3   OH2  584   3.185   4.664   3.365  0.1445 -0.5065 -0.8914
  193TIP3    H1  585   3.237   4.703   3.435 -1.2365 -1.1990  0.5857
  193TIP3    H2  586   3.203   4.570   3.372 -1.3407 -0.7685 -0.2890
  194TIP3   OH2  587   1.180   2.527   2.551  0.1880  0.2484 -0.3472
  194TIP3    H1  588   1.265   2.558   2.521  1.4088 -2.0611  0.5108
  194TIP3    H2  589   1.196   2.492   2.638 -1.7716  0.2113  0.0461
  195TIP3   OH2  590   2.659   0.821   5.168 -0.1881  0.2612 -0.0052
  195TIP3    H1  591   2.725   0.886   5.189  1.8372 -0.9107 -2.2047
  195TIP3    H2  592   2.638   0.836   5.076 -1.0408 -1.0297 -0.0568
  196TIP3   OH2  593   3.884   4.165   0.331 -0.4684  0.3044  0.0308
  196TIP3    H1  594   3.941   4.151   0.255  0.1584  0.3927  0.4737
  196TIP3    H2  595   3.834   4.244   0.310 -1.2102 -0.3825 -0.8190
  197TIP3   OH2  596   4.613   1.029   3.504  0.2986  0.5399  0.2891
  197TIP3    H1  597   4.642   1.084   3.431  0.1412 -0.9344 -0.9145
  197TIP3    H2  598   4.601   0.942   3.466  2.5303 -0.8984  2.5222
  198TIP3   OH2  599   3.014   2.788   2.456  0.3445  0.5181 -0.1869
  198TIP3    H1  600   2.972   2.793   2.370  1.7979 -1.6159 -1.1372
  198TIP3    H2  601   3.041   2.878   2.475 -0.3437  1.1072 -1.8077
  199TIP3   OH2  602   1.724   1.524   2.914 -0.1547 -0.3891 -0.0221
  199TIP3    H1  603   1.643   1.543   2.867  0.0597 -0.3846 -0.3950
  199TIP3    H2  604   1.740   1.601   2.968  0.5998  0.4492 -1.3579
  200TIP3   OH2  605   1.487   3.251   4.834  0.1658 -0.1918  0.1231
  200TIP3    H1  606   1.534   3.334   4.837  0.4297 -0.3574  0.7180
  200TIP3    H2  607   1.549   3.187   4.870  0.2428 -0.7844 -1.0318
  201TIP3   OH2  608   1.121   4.276   4.509  0.1186  0.0959 -0.2620
  201TIP3    H1  609   1.086   4.187   4.508 -0.7800  0.3423  2.0399
  201TIP3    H2  610   1.047   4.330   4.537  0.9699  1.3949 -0.4317
  202TIP3   OH2  611   6.096   4.836   2.451 -0.1578 -0.2162 -0.0210
  202TIP3    H1  612   6.078   4.798   2.537  1.2622  0.6250  0.7015
  202TIP3    H2  613   6.162   4.777   2.413 -0.0461 -0.0407 -0.1004
  203TIP3   OH2  614   4.089   3.982   4.034  0.1753 -0.3194  0.5732
  203TIP3    H1  615   4.170   3.963   3.987 -0.2656  2.1745 -1.4290
  203TIP3    H2  616   4.074   4.076   4.020 -2.9566 -0.6356  0.9772
  204TIP3   OH2  617   1.388   2.765   2.992 -0.2065 -0.1957  0.3108
  204TIP3    H1  618   1.381   2.674   3.023  0.0121 -0.0974  0.6564
  204TIP3    H2  619   1.449   2.806   3.053 -0.9631  0.4151  0.6765
  205TIP3   OH2  620   4.459   2.578   3.815  0.2126  0.4671  0.1440
  205TIP3    H1  621   4.389   2.594   3.752 -0.4353  1.2215  1.0164
  205TIP3    H2  622   4.490   2.490   3.796  0.8944  1.1138 -2.0142
  206TIP3   OH2  623   1.233   2.380   0.899  0.1292  0.1180  0.6961
  206TIP3    H1  624   1.284   2.302   0.879 -0.0092  0.2712 -0.2866
  206TIP3    H2  625   1.222   2.378   0.994  1.0154 -0.4994  0.7921
  207TIP3   OH2  626   0.806   4.930   2.587 -0.3731 -0.2065 -0.4444
  207TIP3    H1  627   0.749   5.007   2.590 -1.8109 -1.2398 -0.2244
  207TIP3    H2  628   0.851   4.936   2.503 -0.5213  0.8217 -0.4653
  208TIP3   OH2  629   1.162   5.943   0.799  0.4703 -0.5753 -0.8478
  208TIP3    H1  630   1.214   5.917   0.723  1.4819 -0.2270 -0.2875
  208TIP3    H2  631   1.219   6.001   0.848 -0.1765 -0.8019  0.1933
  209TIP3   OH2  632   2.389   5.413   2.142 -0.2309 -0.4839 -0.0229
  209TIP3    H1  633   2.447   5.445   2.073 -1.5013  0.8482 -0.5044
  209TIP3    H2  634   2.301   5.420   2.105 -1.0483  1.2395  2.0657
  210TIP3   OH2  635   3.917   0.527   2.711  0.5881 -0.1410  0.0902
  210TIP3    H1  636   3.959   0.612   2.723  1.4623 -0.7450  1.6957
  210TIP3    H2  637   3.990   0.466   2.702 -0.0165 -0.7974 -0.4483
  211TIP3   OH2  638   3.183   1.589   4.504 -0.0627 -0.4783  0.3778
  211TIP3    H1  639   3.196   1.527   4.575  1.3433 -0.9432 -0.2457
  211TIP3    H2  640   3.240   1.557   4.433 -0.1665  0.8767 -0.3618
  212TIP3   OH2  641   3.150   4.175   2.470 -0.2106  0.2686 -0.0396
  212TIP3    H1  642   3.242   4.191   2.491  0.0116  0.7323 -1.2696
  212TIP3    H2  643   3.115   4.261   2.450 -0.5473 -0.0629 -0.9293
  213TIP3   OH2  644   5.731   2.989   1.178  0.0390  0.0569  0.6890
  213TIP3    H1  645   5.785   2.917   1.211 -0.3143  0.3754  2.0271
  213TIP3    H2  646   5.655   2.990   1.236 -0.1954  1.1851  0.3772
  214TIP3   OH2  647   5.779   2.401   3.785  0.3983  0.0779 -0.0579
  214TIP3    H1  648   5.837   2.343   3.736  1.4293  1.2644 -0.2948
  214TIP3    H2  649   5.768   2.358   3.870 -1.1647 -1.8508 -1.1524
  215TIP3   OH2  650   3.029   0.450   3.170 -0.5042  0.1891  0.3999
  215TIP3    H1  651   3.093   0.504   3.217 -0.1604  0.5965 -0.5149
  215TIP3    H2  652   3.014   0.375   3.228 -0.0133  0.6280  1.1100
  216TIP3   OH2  653   1.928   3.267   5.037  0.7438 -0.2171 -0.2248
  216TIP3    H1  654   1.935   3.174   5.056  1.6418 -0.5066 -1.7969
  216TIP3    H2  655   1.912   3.271   4.942 -0.1209  1.2046 -0.0525
  217TIP3   OH2  656   0.123   0.959   2.174  0.1767  0.2682  0.1245
  217TIP3    H1  657   0.190   1.009   2.128  0.0425  0.8117  0.5157
  217TIP3    H2  658   0.143   0.971   2.267 -0.4548  0.4233  0.2409
  218TIP3   OH2  659   3.439   5.380   0.718  0.0702 -0.1614  0.2126
  218TIP3    H1  660   3.411   5.416   0.634  0.8737  1.3257  0.5304
  218TIP3    H2  661   3.449   5.286   0.703  0.5784  0.1384 -1.4715
  219TIP3   OH2  662   1.845   5.686   4.729 -0.0718 -0.5042 -0.5927
  219TIP3    H1  663   1.858   5.733   4.812  1.7595 -0.9987 -0.5413
  219TIP3    H2  664   1.852   5.594   4.752 -0.5926 -0.6891 -1.1550
  220TIP3   OH2  665   5.120   3.962   0.249  0.4096  0.1352 -0.2401
  220TIP3    H1  666   5.054   3.979   0.182  0.0171  2.0156  0.5321
  220TIP3    H2  667   5.202   3.955   0.201 -0.2290 -1.5642 -1.1559
  221TIP3   OH2  668   1.205   1.567   1.667 -0.6003 -0.0032  0.3748
  221TIP3    H1  669   1.253   1.495   1.708  0.2936  1.4147  1.9942
  221TIP3    H2  670   1.245   1.646   1.704 -1.0486  1.3658 -1.8652
  222TIP3   OH2  671   4.997   1.411   2.084 -0.6671 -0.2466  0.6011
  222TIP3    H1  672   4.933   1.428   2.153 -0.3427  1.4502  0.5081
  222TIP3    H2  673   4.945   1.412   2.003 -0.5816  0.8300  0.5529
  223TIP3   OH2  674   4.037   2.282   1.164 -0.0468  0.0692  0.1380
  223TIP3    H1  675   3.955   2.325   1.187 -0.6745 -1.6972  1.4780
  223TIP3    H2  676   4.100   2.353   1.155 -1.0449  1.2831  2.0883
  224TIP3   OH2  677   3.387   2.986   1.716  0.1811 -0.1174  0.1632
  224TIP3    H1  678   3.322   3.042   1.759  0.7830  1.0935 -0.4444
  224TIP3    H2  679   3.453   3.047   1.684  2.1633 -1.3712  1.6111
  225TIP3   OH2  680   5.343   4.832   4.764 -0.5527 -0.2114  0.6464
  225TIP3    H1  681   5.421   4.813   4.816 -1.4362 -1.0229  1.7355
  225TIP3    H2  682   5.270   4.803   4.820 -1.6722  1.2684  0.0029
  226TIP3   OH2  683   2.234   4.417   0.347  0.3106  0.5135 -0.6952
  226TIP3    H1  684   2.265   4.327   0.339  0.6619  0.1382  3.0543
  226TIP3    H2  685   2.222   4.446   0.257 -0.5387 -3.4761 -2.0911
  227TIP3   OH2  686   5.416   0.346   2.532  0.2853 -0.1955 -0.1499
  227TIP3    H1  687   5.454   0.270   2.489  0.3637  0.0370 -0.4978
  227TIP3    H2  688   5.487   0.411   2.533  0.3538 -0.2694  0.5213
  228TIP3   OH2  689   0.544   2.146   0.780 -0.0922 -0.1979  0.3469
  228TIP3    H1  690   0.480   2.195   0.832  0.3678  0.0043  0.7203
  228TIP3    H2  691   0.623   2.144   0.834  0.4798  0.2585 -0.4546
  229TIP3   OH2  692   0.226   0.931   2.437  0.1778  0.5149  0.0554
  229TIP3    H1  693   0.208   1.004   2.497 -1.3160 -0.1049  0.3949
  229TIP3    H2  694   0.291   0.878   2.484 -1.1310 -0.0747  1.2766
  230TIP3   OH2  695   4.265   5.652   2.255 -0.0281  0.2067  0.1503
  230TIP3    H1  696   4.257   5.713   2.328  1.6726 -0.7284  1.1910
  230TIP3    H2  697   4.204   5.581   2.276  0.3975 -0.0214  0.6519
  231TIP3   OH2  698   4.815   2.068   3.429  1.1075 -0.2116 -0.2823
  231TIP3    H1  699   4.771   1.987   3.401 -0.6773  1.3135 -2.2600
  231TIP3    H2  700   4.746   2.117   3.475  1.5084  1.0665 -1.0023
  232TIP3   OH2  701   0.428   2.619   0.984  0.5361 -0.1959 -0.0522
  232TIP3    H1  702   0.403   2.630   0.892 -0.7622 -1.7790  0.0566
  232TIP3    H2  703   0.371   2.679   1.032 -0.2787 -0.8808 -0.1375
  233TIP3   OH2  704   0.931   4.061   5.073 -0.2852  0.3043 -0.1069
  233TIP3    H1  705   0.960   4.062   5.164  1.4715 -0.4345 -0.6150
  233TIP3    H2  706   0.865   4.130   5.068  0.9177  1.6322  1.3134
  234TIP3   OH2  707   1.504   0.753   3.640 -0.0357  0.3567  0.5634
  234TIP3    H1  708   1.558   0.830   3.623  1.7366 -1.3874 -2.7021
  234TIP3    H2  709   1.567   0.681   3.651 -1.6415 -1.0907  0.7424
  235TIP3   OH2  710   4.392   3.906   4.952  0.7080 -0.2031 -0.0039
  235TIP3    H1  711   4.474   3.956   4.957  0.2631  0.4142  2.2304
  235TIP3    H2  712   4.420   3.814   4.960  1.1936  0.0201  1.0938
  236TIP3   OH2  713   2.751   3.483   3.078  0.0537 -0.0702  0.6531
  236TIP3    H1  714   2.734   3.504   2.986  2.5219  1.6048  0.4938
  236TIP3    H2  715   2.678   3.426   3.103 -1.3794  0.4449 -1.9552
  237TIP3   OH2  716   4.101   5.016   1.878 -0.1342  0.0585  0.7497
  237TIP3    H1  717   4.085   4.963   1.800 -1.1973  1.9576 -0.4049
  237TIP3    H2  718   4.072   4.961   1.951 -1.0799 -0.9837 -0.3701
  238TIP3   OH2  719   3.965   2.284   2.392 -0.0724  0.4265 -0.2127
  238TIP3    H1  720   3.957   2.376   2.418 -0.7545  0.5438 -0.8143
  238TIP3    H2  721   3.876   2.250   2.397  0.5057 -0.9837  2.7012
  239TIP3   OH2  722   3.355   4.121   1.488  0.0245  0.2357 -0.1335
  239TIP3    H1  723   3.334   4.195   1.545  0.4643  0.3846 -0.1599
  239TIP3    H2  724   3.450   4.125   1.477 -0.0306  0.1000 -0.7272
  240TIP3   OH2  725   0.051   3.457   2.528  0.0204 -0.0818 -0.2545
  240TIP3    H1  726   0.035   3.423   2.440 -1.2682  0.0692 -0.0886
  240TIP3    H2  727  -0.017   3.418   2.583  0.9448 -0.3672  0.7471
  241TIP3   OH2  728   2.308   1.549   0.435  0.2873 -0.0491  0.3129
  241TIP3    H1  729   2.363   1.591   0.500  1.2511 -0.0191 -0.5062
  241TIP3    H2  730   2.299   1.458   0.466  2.6718 -0.6850 -0.6558
  242TIP3   OH2  731   2.547   2.425   2.007 -0.5858 -0.1173 -0.2073
  242TIP3    H1  732   2.564   2.501   1.952  1.1356 -1.6041 -1.9005
  242TIP3    H2  733   2.630   2.377   2.007 -1.5919 -1.9584  0.8196
  243TIP3   OH2  734   5.265   4.726   4.310 -0.4458 -0.0482 -0.3775
  243TIP3    H1  735   5.343   4.723   4.255  0.0850 -2.3779  0.3944
  243TIP3    H2  736   5.265   4.814   4.347  1.1781  0.3738 -1.2848
  244TIP3   OH2  737   5.852   0.470   2.946  0.2916 -0.2858  0.1985
  244TIP3    H1  738   5.895   0.503   2.867  0.2681 -2.0290 -0.5756
  244TIP3    H2  739   5.789   0.406   2.915 -1.5583  0.8238  1.4775
  245TIP3   OH2  740   4.372   4.026   2.007 -0.1440 -0.3885  0.1524
  245TIP3    H1  741   4.419   4.086   2.065  0.0289 -0.3984  0.0236
  245TIP3    H2  742   4.434   3.954   1.992 -0.5724 -0.9061  0.7960
  246TIP3   OH2  743   6.101   1.765   2.532  0.2260  0.2798 -0.1615
  246TIP3    H1  744   6.114   1.824   2.606 -0.7560  0.4662 -0.1195
  246TIP3    H2  745   6.105   1.677   2.570  2.1399  0.2580 -0.2945
  247TIP3   OH2  746   6.033   2.374   0.890 -0.2870 -0.1358  0.1535
  247TIP3    H1  747   6.070   2.406   0.807 -0.8314  0.3064  0.0814
  247TIP3    H2  748   6.101   2.315   0.924 -0.0154 -0.2595 -0.5623
  248TIP3   OH2  749   5.769   4.966   0.788  0.3501  0.1064 -0.9125
  248TIP3    H1  750   5.717   5.016   0.724 -1.2540  1.4214  1.2750
  248TIP3    H2  751   5.704   4.931   0.849  1.7687 -1.7363 -0.3887
  249TIP3   OH2  752   3.118   4.308   1.457 -0.1930 -0.0352  0.0057
  249TIP3    H1  753   3.162   4.305   1.372  0.3962 -0.6804  0.3199
  249TIP3    H2  754   3.161   4.239   1.508 -0.9990 -0.1051  0.6010
  250TIP3   OH2  755   3.457   3.482   0.850 -0.0321  0.5974  0.2074
  250TIP3    H1  756   3.491   3.417   0.912 -0.9518 -1.2811 -1.1559
  250TIP3    H2  757   3.515   3.475   0.774 -1.2429 -0.0249 -0.6895
  251TIP3   OH2  758   1.052   5.844   2.064  0.2205 -0.0858  0.1403
  251TIP3    H1  759   1.099   5.906   2.007  2.1176 -1.9527 -0.4660
  251TIP3    H2  760   1.089   5.860   2.151 -1.9328  2.0430  0.7915
  252TIP3   OH2  761   4.177   4.975   1.211  0.3035  0.0177 -0.0182
  252TIP3    H1  762   4.198   4.886   1.183 -0.3781  0.1419 -0.9544
  252TIP3    H2  763   4.246   5.029   1.171  0.3928 -0.0226  0.0811
  253TIP3   OH2  764   4.837   3.993   2.327  1.1365 -0.2858  0.1295
  253TIP3    H1  765   4.856   4.019   2.237  1.9423  0.9809  0.6389
  253TIP3    H2  766   4.786   4.065   2.363  2.8441  0.3770  1.3722
  254TIP3   OH2  767   5.438   2.237   0.885  0.0468 -0.2884  0.3513
  254TIP3    H1  768   5.411   2.231   0.977 -0.6667 -1.5756  0.0910
  254TIP3    H2  769   5.356   2.246   0.837  0.4623  1.3579 -0.1357
  255TIP3   OH2  770   5.895   5.259   3.726 -0.2006 -0.1577 -0.2697
  255TIP3    H1  771   5.984   5.227   3.708  0.3882  1.8051 -1.1657
  255TIP3    H2  772   5.907   5.351   3.752 -1.9976  0.3267 -0.9686
  256TIP3   OH2  773   3.938   0.209   1.667  0.2702 -0.7351 -0.6473
  256TIP3    H1  774   3.867   0.207   1.732  0.2743  1.6078 -0.4525
  256TIP3    H2  775   3.899   0.252   1.591  0.6896 -2.1141 -1.6713
  257TIP3   OH2  776   1.365   5.331   4.839 -0.4103 -0.1903  0.8152
  257TIP3    H1  777   1.354   5.251   4.889 -0.4881  0.0708  1.2223
  257TIP3    H2  778   1.446   5.370   4.873  0.0787 -0.5084  0.0424
  258TIP3   OH2  779   3.307   0.388   5.007 -0.7829 -0.5822  0.1462
  258TIP3    H1  780   3.321   0.482   4.991  0.2208 -1.1100 -2.5891
  258TIP3    H2  781   3.243   0.362   4.941  0.5326 -2.2005 -0.5706
  259TIP3   OH2  782   4.790   0.420   3.073  0.2212  0.9957  0.3674
  259TIP3    H1  783   4.839   0.346   3.037  0.3885  1.5621 -0.5906
  259TIP3    H2  784   4.772   0.395   3.164  0.4012 -0.1540  0.0962
  260TIP3   OH2  785   3.142   2.494   0.018 -0.2620 -0.5519  0.4593
  260TIP3    H1  786   3.133   2.505   0.113 -1.8774  0.5671  0.2284
  260TIP3    H2  787   3.052   2.488  -0.014  0.2750 -1.8697 -0.9335
  261TIP3   OH2  788   4.587   3.080   1.871 -0.4786  0.0837 -0.3546
  261TIP3    H1  789   4.631   3.002   1.905 -0.4672  0.5776  0.7915
  261TIP3    H2  790   4.622   3.152   1.923 -0.3989  0.8877 -1.4841
  262TIP3   OH2  791   3.955   4.819   1.127  0.1957 -0.0297 -0.0736
  262TIP3    H1  792   4.000   4.903   1.114  2.6205 -1.3476 -0.8773
  262TIP3    H2  793   3.965   4.801   1.221 -0.5389  0.6772  0.1453
  263TIP3   OH2  794   5.465   0.927   3.706 -0.0043 -0.2823 -0.4085
  263TIP3    H1  795   5.408   0.900   3.635 -0.6654 -2.2380  0.7871
  263TIP3    H2  796   5.521   0.851   3.722  0.5126  0.3225  0.7785
  264TIP3   OH2  797   1.908   5.875   4.007 -0.4133  0.1338 -0.7469
  264TIP3    H1  798   1.993   5.870   4.050 -0.7605  0.4329 -0.0170
  264TIP3    H2  799   1.904   5.963   3.971 -1.1000  0.7215  0.6934
  265TIP3   OH2  800   3.556   4.505   0.525  0.2973  0.0471  0.2316
  265TIP3    H1  801   3.613   4.509   0.602 -0.9934 -0.0816  1.2205
  265TIP3    H2  802   3.510   4.421   0.532  1.6853 -0.9729 -1.8370
  266TIP3   OH2  803   3.503   5.416   3.300  0.3667  0.1975 -0.2452
  266TIP3    H1  804   3.482   5.476   3.372  1.9480  1.1187 -0.4921
  266TIP3    H2  805   3.484   5.467   3.221  3.3251  1.1035 -0.4792
  267TIP3   OH2  806   3.558   2.044   1.918 -0.3722  0.2551  0.4819
  267TIP3    H1  807   3.587   2.133   1.894  1.7107  0.1626  2.2560
  267TIP3    H2  808   3.520   2.008   1.838 -0.6745  2.5034 -0.4664
  268TIP3   OH2  809   3.628   5.205   1.408  0.1024 -0.1847 -0.0653
  268TIP3    H1  810   3.686   5.146   1.359  3.7627  2.8471  0.1167
  268TIP3    H2  811   3.638   5.178   1.499  1.8823  0.6636  0.0355
  269TIP3   OH2  812   1.319   1.321   0.340 -0.0529 -0.1092 -0.1817
  269TIP3    H1  813   1.346   1.331   0.431 -2.0612  1.4318  0.3038
  269TIP3    H2  814   1.386   1.265   0.302  1.7262  0.5180  1.8195
  270TIP3   OH2  815   5.896   3.986   3.377 -0.4825 -0.2784  0.0426
  270TIP3    H1  816   5.810   3.952   3.353  1.1522 -2.9512 -2.7769
  270TIP3    H2  817   5.935   3.915   3.429  0.8428 -0.1642 -0.7662
  271TIP3   OH2  818   0.731   0.194   4.502  0.0616 -0.0697 -0.2912
  271TIP3    H1  819   0.667   0.132   4.534 -0.3013  1.0062  1.1835
  271TIP3    H2  820   0.794   0.204   4.574 -1.1344  2.9234  0.5091
  272TIP3   OH2  821   4.869   1.941   4.730 -0.0063 -0.1015  0.3331
  272TIP3    H1  822   4.901   2.031   4.744 -0.3105  0.2994 -1.2532
  272TIP3    H2  823   4.921   1.910   4.655 -0.2238 -1.0850  0.5897
  273TIP3   OH2  824   0.349   1.221   0.572  0.6248  0.1259 -0.1289
  273TIP3    H1  825   0.286   1.150   0.582 -2.0960  2.2954 -0.7187
  273TIP3    H2  826   0.380   1.238   0.661 -0.0596 -0.6282  0.2655
  274TIP3   OH2  827   2.455   2.009   1.626 -0.1625 -0.8904 -0.2411
  274TIP3    H1  828   2.480   2.098   1.654  1.5948 -1.4840  0.2059
  274TIP3    H2  829   2.445   1.961   1.708  0.6631 -1.5411 -0.5132
  275TIP3   OH2  830   2.461   5.194   4.584 -0.6746 -0.1530 -0.1943
  275TIP3    H1  831   2.524   5.185   4.655 -0.0686 -1.2179 -0.8389
  275TIP3    H2  832   2.506   5.247   4.519 -1.0113  0.3302 -0.0401
  276TIP3   OH2  833   2.501   0.256   0.230  0.0450  0.4616  0.0433
  276TIP3    H1  834   2.550   0.265   0.312 -0.7805  1.6171  0.4520
  276TIP3    H2  835   2.421   0.209   0.255  1.2924 -2.2563 -0.7961
  277TIP3   OH2  836   0.817   5.563   4.782  0.2609 -0.1285  0.0852
  277TIP3    H1  837   0.725   5.557   4.755  0.9064 -2.6674 -1.8891
  277TIP3    H2  838   0.822   5.647   4.828 -3.3877 -0.6095  1.7997
  278TIP3   OH2  839   3.104   2.256   3.075  0.5574 -0.3477  0.1299
  278TIP3    H1  840   3.120   2.166   3.047  1.3700 -0.0954 -0.2460
  278TIP3    H2  841   3.191   2.290   3.096  0.6928  1.3329 -2.7211
  279TIP3   OH2  842   0.362   5.227   4.618 -0.1284  0.8003  0.5303
  279TIP3    H1  843   0.380   5.277   4.538  0.2533 -1.2364 -0.7206
  279TIP3    H2  844   0.266   5.229   4.626 -0.2074  0.6330 -0.2614
  280TIP3   OH2  845   3.062   2.744   3.664  0.2278  0.5454 -0.6758
  280TIP3    H1  846   2.975   2.736   3.702 -0.8144  2.4164 -2.4483
  280TIP3    H2  847   3.074   2.839   3.652  1.8650  0.2283 -1.8539
  281TIP3   OH2  848   3.784   4.150   0.807 -0.0702  0.6613  0.3173
  281TIP3    H1  849   3.710   4.199   0.843 -0.3085  0.3170  0.2931
  281TIP3    H2  850   3.783   4.170   0.714 -2.3874 -2.1936 -0.4235
  282TIP3   OH2  851   2.528   2.654   4.992  0.4166  0.1414 -0.1311
  282TIP3    H1  852   2.587   2.581   5.009  1.0488  0.8745  0.9470
  282TIP3    H2  853   2.501   2.684   5.079 -1.8835 -0.4071 -0.5745
  283TIP3   OH2  854   0.968   4.604   2.302 -0.1116  0.1447 -0.2515
  283TIP3    H1  855   1.038   4.575   2.244  1.0753  2.0010  0.1886
  283TIP3    H2  856   1.013   4.627   2.384 -1.1466  1.8209 -0.1160
  284TIP3   OH2  857   4.404   5.913   0.098  0.3992  0.0618 -0.2519
  284TIP3    H1  858   4.369   5.827   0.073 -1.1388  0.5545  0.0570
  284TIP3    H2  859   4.433   5.901   0.188 -2.4855  0.5065  0.8524
  285TIP3   OH2  860   5.266   4.451   4.843 -0.4188 -0.5444 -0.4464
  285TIP3    H1  861   5.192   4.419   4.894 -0.2928 -0.2429 -0.0731
  285TIP3    H2  862   5.342   4.440   4.900 -0.5688  1.8419  0.3156
  286TIP3   OH2  863   5.819   0.964   1.823  0.5894  0.2333  0.2463
  286TIP3    H1  864   5.817   0.904   1.898  1.5540  0.8747  0.8155
  286TIP3    H2  865   5.785   0.913   1.750  0.0681 -0.5600  1.0234
  287TIP3   OH2  866   0.569   5.773   4.690  0.3239  0.6361 -0.1577
  287TIP3    H1  867   0.619   5.752   4.611  0.4987 -0.3424  0.1988
  287TIP3    H2  868   0.555   5.689   4.732  1.0728  1.2315  1.3656
  288TIP3   OH2  869   5.567   2.766   4.270 -0.0426 -0.1463  0.1072
  288TIP3    H1  870   5.634   2.831   4.250  0.5796 -0.4119  1.2572
  288TIP3    H2  871   5.485   2.814   4.266  0.1718  0.1095 -1.6373
  289TIP3   OH2  872   2.019   2.844   1.128  0.1131  0.2107  0.0174
  289TIP3    H1  873   2.006   2.823   1.036  0.0477 -1.5114  0.3857
  289TIP3    H2  874   2.061   2.929   1.127 -1.3125  0.9622 -1.5482
  290TIP3   OH2  875   6.022   5.331   0.539 -0.0537 -0.1966 -0.1246
  290TIP3    H1  876   6.056   5.267   0.602 -1.2713  0.0178  0.7855
  290TIP3    H2  877   6.099   5.360   0.490  0.8757 -0.5933  1.0611
  291TIP3   OH2  878   2.108   0.090   4.350  0.8011 -0.4740  0.2003
  291TIP3    H1  879   2.064   0.128   4.274  0.8524  0.5754  0.6831
  291TIP3    H2  880   2.123  -0.002   4.326 -0.6026 -0.5603 -0.4265
  292TIP3   OH2  881   0.833   0.884   4.619  0.3687 -0.1298 -0.0214
  292TIP3    H1  882   0.869   0.841   4.696 -0.4394 -1.8537 -0.5670
  292TIP3    H2  883   0.849   0.823   4.546 -0.6623  0.5453 -0.8536
  293TIP3   OH2  884   3.607   4.897   0.713  0.2911  0.0653  0.5848
  293TIP3    H1  885   3.559   4.873   0.633  1.0212  0.3915  0.0390
  293TIP3    H2  886   3.685   4.842   0.712 -0.1930 -0.6798  1.6258
  294TIP3   OH2  887   2.421   1.501   1.369 -0.4131  0.3384 -0.3244
  294TIP3    H1  888   2.493   1.551   1.407 -1.2221  1.0561  0.2958
  294TIP3    H2  889   2.444   1.492   1.277 -0.2675  1.8834 -0.4603
  295TIP3   OH2  890   6.171   5.570   4.985 -0.1437  0.7442 -0.7078
  295TIP3    H1  891   6.158   5.619   4.904  2.9802  0.9934 -1.2057
  295TIP3    H2  892   6.244   5.615   5.029 -1.4446  0.3560  2.0735
  296TIP3   OH2  893   5.095   1.571   3.434 -0.1139  0.4399 -0.1072
  296TIP3    H1  894   5.050   1.502   3.385 -0.5265 -0.3195  1.2881
  296TIP3    H2  895   5.075   1.652   3.386  0.4912 -0.3829 -1.8556
  297TIP3   OH2  896   3.677   5.509   2.027 -0.1023 -0.2985  0.5670
  297TIP3    H1  897   3.624   5.466   1.959 -1.0884  2.0562 -0.2757
  297TIP3    H2  898   3.725   5.577   1.979 -1.0400  1.6244  2.2198
  298TIP3   OH2  899   1.600   5.973   4.638 -0.5868 -0.5310 -0.0430
  298TIP3    H1  900   1.523   5.966   4.581 -0.4901 -0.5516 -0.1704
  298TIP3    H2  901   1.674   5.954   4.581 -0.6073 -2.4037  0.4757
  299TIP3   OH2  902   0.262   2.811   4.076  0.5036 -0.1415  0.0649
  299TIP3    H1  903   0.240   2.821   3.984  1.5409  3.0179  0.0281
  299TIP3    H2  904   0.351   2.846   4.083  0.3680 -0.0943  2.2683
  300TIP3   OH2  905   6.131   4.417   2.782 -0.2374  0.2836 -0.2261
  300TIP3    H1  906   6.135   4.370   2.698 -1.2711 -2.9921  1.4140
  300TIP3    H2  907   6.046   4.461   2.780 -1.2463 -1.5551 -0.1087
  301TIP3   OH2  908   3.769   3.640   1.024  0.9614  0.2883 -0.0545
  301TIP3    H1  909   3.720   3.717   0.996 -0.4060 -0.3369  0.5300
  301TIP3    H2  910   3.834   3.626   0.955  1.1440  1.8755 -0.2266
  302TIP3   OH2  911   4.699   5.135   3.541 -0.2876  0.0916  0.1686
  302TIP3    H1  912   4.668   5.177   3.621 -0.3968 -0.0468  0.1995
  302TIP3    H2  913   4.795   5.136   3.549 -0.3238 -1.6446  1.2033
  303TIP3   OH2  914   4.407   4.612   3.672  0.2051  0.1760  0.2170
  303TIP3    H1  915   4.412   4.541   3.736 -1.4424 -0.0069  0.1876
  303TIP3    H2  916   4.313   4.633   3.668  0.3936  0.7773 -1.4828
  304TIP3   OH2  917   0.688   1.402   1.925 -0.5266  0.5557 -0.2223
  304TIP3    H1  918   0.763   1.350   1.952 -0.1190  0.4060 -1.5714
  304TIP3    H2  919   0.666   1.454   2.002  0.6987  0.2942  0.3280
  305TIP3   OH2  920   4.482   2.566   4.142  0.2832  0.1224  0.0352
  305TIP3    H1  921   4.395   2.552   4.179  0.7172 -2.6194  0.1891
  305TIP3    H2  922   4.468   2.571   4.048 -0.1481  1.1629  0.1311
  306TIP3   OH2  923   0.643   5.526   3.756 -0.2171  0.3685 -0.4117
  306TIP3    H1  924   0.561   5.566   3.786  0.6150  1.9158 -0.1056
  306TIP3    H2  925   0.690   5.506   3.836 -0.8951 -1.9957 -0.5139
  307TIP3   OH2  926   0.418   4.743   1.902  0.4675  0.1038 -0.5589
  307TIP3    H1  927   0.372   4.744   1.986 -0.0713 -0.2091 -0.8471
  307TIP3    H2  928   0.481   4.815   1.909  0.6088 -0.0827  0.2105
  308TIP3   OH2  929   2.130   5.627   4.347 -0.2513  0.3365 -0.0506
  308TIP3    H1  930   2.142   5.720   4.366  1.8234 -0.0097  0.6082
  308TIP3    H2  931   2.164   5.582   4.424 -2.1708 -0.9879  0.0760
  309TIP3   OH2  932   5.875   4.235   3.501 -0.1607  0.7319  0.6483
  309TIP3    H1  933   5.903   4.159   3.450 -0.8151 -0.6410  2.2417
  309TIP3    H2  934   5.953   4.259   3.552 -0.3396  0.2610  1.1495
  310TIP3   OH2  935   4.990   4.182   3.707  0.2337 -0.2996 -0.0744
  310TIP3    H1  936   4.958   4.271   3.692 -1.6065 -0.7113  1.0931
  310TIP3    H2  937   5.018   4.182   3.798  0.7684 -0.7723 -0.2360
  311TIP3   OH2  938   2.546   4.408   0.318 -0.4626  0.4973 -0.1738
  311TIP3    H1  939   2.459   4.443   0.335  1.1412  4.8479  0.2888
  311TIP3    H2  940   2.593   4.416   0.401  1.5479  2.4923 -1.3862
  312TIP3   OH2  941   3.038   5.149   4.421 -0.2065 -0.7859 -0.3759
  312TIP3    H1  942   3.090   5.168   4.499 -0.3832  0.7707 -0.6035
  312TIP3    H2  943   3.095   5.170   4.348 -0.5678 -0.7347 -0.6464
  313TIP3   OH2  944   5.728   5.367   4.959  0.8083  0.3196  0.0967
  313TIP3    H1  945   5.730   5.274   4.979  1.1237  0.3751  0.3285
  313TIP3    H2  946   5.636   5.385   4.937  1.0357 -0.3542 -1.4758
  314TIP3   OH2  947   3.813   2.804   3.353 -0.1536 -0.3164 -0.0723
  314TIP3    H1  948   3.867   2.759   3.288  0.6799  0.4837  0.0528
  314TIP3    H2  949   3.726   2.765   3.342 -0.0863 -0.0462 -1.8218
  315TIP3   OH2  950   4.866   5.179   0.719  0.7913 -0.0713  0.4729
  315TIP3    H1  951   4.776   5.151   0.708  1.3033 -2.1848  1.2785
  315TIP3    H2  952   4.897   5.195   0.629 -1.0518  3.2840  0.2727
  316TIP3   OH2  953   5.246   5.888   3.477  0.3679 -0.1330  0.3363
  316TIP3    H1  954   5.279   5.888   3.567  0.2752  0.5128  0.3734
  316TIP3    H2  955   5.281   5.808   3.438  0.7569 -0.1982  0.8220
  317TIP3   OH2  956   1.908   3.955   3.330  0.5787  0.5929  0.0285
  317TIP3    H1  957   1.912   3.941   3.425 -0.1652 -1.0392 -0.1448
  317TIP3    H2  958   1.998   3.976   3.305  1.2677 -1.1917  0.8167
  318TIP3   OH2  959   3.551   5.473   1.478  0.2247  0.2729 -0.2172
  318TIP3    H1  960   3.596   5.392   1.455  0.1097 -0.1654  1.0157
  318TIP3    H2  961   3.515   5.506   1.396 -1.8036 -2.1925 -0.4273
  319TIP3   OH2  962   3.034   5.649   3.033  0.5122  0.2324 -0.9782
  319TIP3    H1  963   3.105   5.636   2.970  0.4005 -2.7438 -0.6466
  319TIP3    H2  964   3.077   5.661   3.117  0.6406  0.1328 -1.0300
  320TIP3   OH2  965   4.396   0.577   2.674 -0.2411  0.0976 -0.3089
  320TIP3    H1  966   4.411   0.669   2.653  2.0447 -0.4414 -1.2759
  320TIP3    H2  967   4.407   0.573   2.769 -1.5831  0.9930 -0.0854
  321TIP3   OH2  968   4.499   5.841   2.715  0.4883  0.1526  0.1216
  321TIP3    H1  969   4.444   5.913   2.683 -0.1665 -0.3526  0.1009
  321TIP3    H2  970   4.569   5.884   2.764  1.1453  0.9204 -1.4291
  322TIP3   OH2  971   3.344   4.532   0.159 -0.5852 -0.0858 -0.0526
  322TIP3    H1  972   3.251   4.507   0.155 -0.8124  0.4913  1.3524
  322TIP3    H2  973   3.359   4.555   0.250  0.6772  0.8825 -0.4775
  323TIP3   OH2  974   0.665   0.449   4.873 -0.0389 -0.1915 -0.2236
  323TIP3    H1  975   0.753   0.437   4.908 -0.0699 -0.2831 -0.1756
  323TIP3    H2  976   0.626   0.515   4.930 -1.0767 -2.3533  1.7513
  324TIP3   OH2  977   3.359   4.156   2.232 -0.1615 -0.2787  0.2000
  324TIP3    H1  978   3.387   4.137   2.321  1.1055 -0.9335 -0.3126
  324TIP3    H2  979   3.304   4.082   2.207 -0.5970 -0.0481  0.4518
  325TIP3   OH2  980   2.910   5.474   0.349  0.8883 -0.1419  0.1674
  325TIP3    H1  981   2.855   5.494   0.273  1.2576  0.0443 -0.0514
  325TIP3    H2  982   2.944   5.558   0.378  0.6850 -0.2032  0.5904
  326TIP3   OH2  983   5.397   4.220   0.596  0.4628 -0.6077  0.4195
  326TIP3    H1  984   5.472   4.162   0.607  2.6900  1.5012 -2.4365
  326TIP3    H2  985   5.360   4.195   0.511  0.3759  0.9187 -0.0210
  327TIP3   OH2  986   2.437   4.348   2.471  0.2804 -0.6022  0.4391
  327TIP3    H1  987   2.505   4.384   2.414  1.0277 -1.7029  0.6276
  327TIP3    H2  988   2.445   4.253   2.463  0.3618 -0.7918  2.3417
  328TIP3   OH2  989   5.102   3.092   0.828  0.1471 -0.3048 -0.1671
  328TIP3    H1  990   5.014   3.129   0.826 -0.4486 -1.6394  0.6550
  328TIP3    H2  991   5.159   3.168   0.815 -1.0364  0.9068  1.3562
  329TIP3   OH2  992   0.656   1.745   3.152  0.2904 -0.1942 -0.5760
  329TIP3    H1  993   0.642   1.669   3.209  1.4676  0.1639  0.2253
  329TIP3    H2  994   0.571   1.789   3.149  0.0290 -0.6255  0.3084
  330TIP3   OH2  995   1.599   0.919   1.330 -0.0265  0.2951 -0.5204
  330TIP3    H1  996   1.534   0.942   1.396 -0.6319  0.2505 -1.0936
  330TIP3    H2  997   1.579   0.975   1.255  0.2183 -0.1377 -0.9166
  331TIP3   OH2  998   4.164   0.664   2.455  0.4857  0.3015 -0.5458
  331TIP3    H1  999   4.118   0.595   2.502  1.6637  0.2387  0.5585
  331TIP3    H2 1000   4.145   0.744   2.503  1.3819  0.2972 -0.1545
  332TIP3   OH2 1001   6.286   1.870   2.736 -0.2421  0.3360  0.0651
  332TIP3    H1 1002   6.315   1.961   2.738 -0.9367  0.5524  1.3366
  332TIP3    H2 1003   6.362   1.821   2.702  0.4473  1.2720  0.2192
  333TIP3   OH2 1004   4.240   2.590   2.939  0.3721  0.2073 -0.0822
  333TIP3    H1 1005   4.261   2.594   3.032 -1.0721  2.0879  0.2154
  333TIP3    H2 1006   4.325   2.580   2.896  0.8928 -4.8375  1.4797
  334TIP3   OH2 1007   2.766   1.248   0.620  0.1669 -0.1252  0.5116
  334TIP3    H1 1008   2.780   1.281   0.531 -0.8532  1.4810  0.9126
  334TIP3    H2 1009   2.822   1.303   0.675  0.3446 -0.7218  0.9324
  335TIP3   OH2 1010   1.370   0.417   2.414  0.0209  0.4758  0.5513
  335TIP3    H1 1011   1.330   0.484   2.469 -1.6368  0.0325 -0.0249
  335TIP3    H2 1012   1.296   0.362   2.387  1.4724 -2.5470  2.2452
  336TIP3   OH2 1013   0.179   2.721   2.525 -0.2814 -0.4373 -0.1994
  336TIP3    H1 1014   0.248   2.684   2.470  0.2722 -2.5190  1.7096
  336TIP3    H2 1015   0.113   2.651   2.532 -1.0418  0.3201  0.5402
  337TIP3   OH2 1016   3.412   1.267   4.283  0.1804  0.1211 -0.6667
  337TIP3    H1 1017   3.395   1.290   4.374  1.3243  0.1530 -0.4382
  337TIP3    H2 1018   3.377   1.178   4.273  1.8959 -0.7338  0.4199
  338TIP3   OH2 1019   5.493   2.244   1.194 -0.5352 -0.3292 -0.0919
  338TIP3    H1 1020   5.466   2.278   1.279 -0.3508  0.7754 -0.4543
  338TIP3    H2 1021   5.587   2.228   1.202 -0.4489  0.1170 -0.1908
  339TIP3   OH2 1022   1.855   0.932   3.321  0.1712 -0.7897 -0.3255
  339TIP3    H1 1023   1.911   0.956   3.248  2.5086 -0.6189  1.4149
  339TIP3    H2 1024   1.890   0.849   3.353 -1.3183 -1.2915  0.1141
  340TIP3   OH2 1025   1.275   4.783   5.104 -0.3992  0.0695 -0.5880
  340TIP3    H1 1026   1.340   4.769   5.173 -0.2148 -0.1663 -0.8026
  340TIP3    H2 1027   1.206   4.834   5.145 -0.6016 -0.6219 -0.0510
  341TIP3   OH2 1028   5.183   1.219   3.688 -0.4783 -0.0129 -0.0725
  341TIP3    H1 1029   5.228   1.278   3.627 -1.7139  0.9819 -0.0656
  341TIP3    H2 1030   5.104   1.192   3.641 -0.3095 -1.0628  0.2250
  342TIP3   OH2 1031   1.742   5.528   3.824  0.0970 -0.2705  0.0819
  342TIP3    H1 1032   1.754   5.548   3.917  1.6548 -0.2087 -0.0943
  342TIP3    H2 1033   1.659   5.481   3.819  0.9410 -2.0572  1.7759
  343TIP3   OH2 1034   3.110   0.522   4.206 -0.4310 -0.5099  0.6080
  343TIP3    H1 1035   3.140   0.458   4.142  1.9551  0.8964  0.2018
  343TIP3    H2 1036   3.119   0.478   4.290  1.8326 -0.5602  0.3969
  344TIP3   OH2 1037   3.025   1.608   4.866 -0.1992  0.0603 -0.7755
  344TIP3    H1 1038   3.001   1.598   4.958 -0.2863 -0.5954 -0.8643
  344TIP3    H2 1039   3.070   1.692   4.862  3.6561 -1.6819  0.6949
  345TIP3   OH2 1040   1.679   1.537   4.011 -0.0029  0.2930  0.2618
  345TIP3    H1 1041   1.716   1.584   4.087  1.4345 -0.2730 -0.0586
  345TIP3    H2 1042   1.727   1.455   4.008 -0.5607 -0.0076 -0.8425
  346TIP3   OH2 1043   2.195   4.643   3.214  0.4113 -0.2278  0.0124
  346TIP3    H1 1044   2.173   4.735   3.196  0.6203 -0.4767 -1.6855
  346TIP3    H2 1045   2.111   4.597   3.214  0.3407 -0.1041  0.4896
  347TIP3   OH2 1046   2.922   4.721   4.785  0.0204 -0.6714 -0.0809
  347TIP3    H1 1047   2.938   4.655   4.853  1.4071 -0.8820 -0.5740
  347TIP3    H2 1048   2.837   4.697   4.748 -2.1824  1.0313  3.3096
  348TIP3   OH2 1049   3.778   0.934   2.070 -0.1902  0.2528  0.1806
  348TIP3    H1 1050   3.839   0.885   2.125  1.0611  1.3629 -0.1557
  348TIP3    H2 1051   3.731   0.867   2.020 -0.7192 -0.7247  1.9225
  349TIP3   OH2 1052   4.476   4.139   1.741 -0.5032 -0.3955  0.5656
  349TIP3    H1 1053   4.491   4.153   1.834  0.1154 -3.1108  0.9514
  349TIP3    H2 1054   4.559   4.105   1.708 -0.7492  0.4145 -0.9794
  350TIP3   OH2 1055   6.023   4.419   1.896 -0.1374  0.4351  0.1746
  350TIP3    H1 1056   5.955   4.372   1.944 -0.9768  0.8596 -0.5580
  350TIP3    H2 1057   6.020   4.508   1.932 -0.8731  0.7954 -0.7262
  351TIP3   OH2 1058   5.025   2.809   2.795 -0.7665  0.3430 -0.9789
  351TIP3    H1 1059   4.938   2.794   2.759 -1.2874 -0.3631  0.4673
  351TIP3    H2 1060   5.032   2.745   2.867  1.6145 -0.7988 -2.1137
  352TIP3   OH2 1061   2.706   1.410   2.904  0.7417  0.2162  0.2028
  352TIP3    H1 1062   2.628   1.356   2.919  1.2152 -0.4759  0.2459
  352TIP3    H2 1063   2.724   1.451   2.988  1.4341 -1.0088  0.6782
  353TIP3   OH2 1064   3.189   3.231   5.052 -0.2885 -0.4439 -0.2263
  353TIP3    H1 1065   3.196   3.252   4.959 -2.4706 -0.1296 -0.3574
  353TIP3    H2 1066   3.173   3.137   5.055 -0.2974 -0.4410 -0.1729
  354TIP3   OH2 1067   1.778   0.026   4.696 -0.2863  0.0933  0.0106
  354TIP3    H1 1068   1.839   0.031   4.622 -0.6268 -1.8773 -0.4507
  354TIP3    H2 1069   1.694   0.002   4.656 -0.3135 -1.7294  1.0596
  355TIP3   OH2 1070   3.209   0.088   1.381  0.0635 -0.3258  0.1335
  355TIP3    H1 1071   3.119   0.056   1.381 -0.3254  0.6808 -0.8292
  355TIP3    H2 1072   3.200   0.182   1.395  1.0883 -0.4318  1.7134
  356TIP3   OH2 1073   4.953   5.341   3.859 -0.6912  0.5068  0.3395
  356TIP3    H1 1074   4.884   5.298   3.911  0.5128 -1.0196  0.7510
  356TIP3    H2 1075   5.000   5.396   3.922  0.0281 -0.4298  0.6484
  357TIP3   OH2 1076   0.028   5.291   1.641 -0.6284 -0.3671 -0.2456
  357TIP3    H1 1077   0.086   5.274   1.715  0.9620 -1.2196 -1.6033
  357TIP3    H2 1078  -0.005   5.205   1.617 -1.3390 -0.0617 -0.3640
  358TIP3   OH2 1079   4.457   0.765   0.698  0.4386 -0.5832  0.2436
  358TIP3    H1 1080   4.528   0.806   0.649 -1.8836  1.4670 -1.6974
  358TIP3    H2 1081   4.444   0.822   0.774 -0.1192 -0.0095 -0.2663
  359TIP3   OH2 1082   3.865   3.825   0.580  0.0648  0.2091 -0.3504
  359TIP3    H1 1083   3.952   3.849   0.612 -0.5259  0.8659  0.8173
  359TIP3    H2 1084   3.843   3.746   0.631 -0.6843  0.9864  0.5580
  360TIP3   OH2 1085   0.743   1.080   0.173  0.0133 -0.1360  0.9437
  360TIP3    H1 1086   0.752   1.164   0.217 -0.9538 -0.6618  2.1883
  360TIP3    H2 1087   0.748   1.015   0.243  1.4680 -1.1768 -0.0726
  361TIP3   OH2 1088   1.931   1.335   3.452 -0.3104  0.2292  0.0900
  361TIP3    H1 1089   1.935   1.327   3.357 -1.7191 -0.0749  0.0436
  361TIP3    H2 1090   1.934   1.430   3.468 -0.9540  0.3276 -0.3171
  362TIP3   OH2 1091   4.120   3.629   4.043 -0.1801  0.2094  0.1626
  362TIP3    H1 1092   4.068   3.696   3.999 -1.1585 -2.0213 -2.3100
  362TIP3    H2 1093   4.149   3.671   4.125 -2.0896  3.0257 -0.4719
  363TIP3   OH2 1094   1.164   4.213   3.097 -0.0207 -0.3531  0.3410
  363TIP3    H1 1095   1.161   4.118   3.083 -1.7059 -0.2490 -0.3319
  363TIP3    H2 1096   1.098   4.228   3.165 -1.2405  0.5018 -0.9620
  364TIP3   OH2 1097   2.174   1.927   3.432 -0.3685 -0.2303 -0.1769
  364TIP3    H1 1098   2.244   1.988   3.408 -0.1185 -0.1433  0.7389
  364TIP3    H2 1099   2.217   1.860   3.485 -1.2199  0.7893  1.9434
  365TIP3   OH2 1100   0.960   0.783   0.286 -0.1680  0.0220 -0.2773
  365TIP3    H1 1101   0.911   0.748   0.212 -1.7039 -1.1016  1.1947
  365TIP3    H2 1102   0.898   0.842   0.330  1.0920  1.5629 -0.4830
  366TIP3   OH2 1103   2.127   2.401   4.114 -0.0569  0.1807  0.1644
  366TIP3    H1 1104   2.212   2.364   4.091 -0.1058  0.3335 -0.2891
  366TIP3    H2 1105   2.139   2.438   4.201 -0.2642 -1.7382  1.0610
  367TIP3   OH2 1106   1.834   0.242   2.237  0.4376  0.4143  0.3393
  367TIP3    H1 1107   1.758   0.205   2.192  0.9602 -0.4052  0.1101
  367TIP3    H2 1108   1.802   0.324   2.275  0.1422  1.5305 -2.1109
  368TIP3   OH2 1109   0.640   1.005   0.649 -0.8922 -1.2390  0.7639
  368TIP3    H1 1110   0.642   1.062   0.726 -0.6531  0.2734 -0.3180
  368TIP3    H2 1111   0.635   1.065   0.575  2.8489 -2.4292 -0.6622
  369TIP3   OH2 1112   0.728   1.888   4.984 -0.0582 -0.1482  0.4617
  369TIP3    H1 1113   0.666   1.903   4.912 -0.0484 -1.7998  0.0617
  369TIP3    H2 1114   0.713   1.961   5.044 -1.6999  0.0261 -0.1003
  370TIP3   OH2 1115   3.213   2.203   2.723 -0.1361 -0.0084 -0.4177
  370TIP3    H1 1116   3.292   2.252   2.744  0.5044 -1.8067  1.7794
  370TIP3    H2 1117   3.198   2.220   2.629  1.4279  2.2745 -0.3312
  371TIP3   OH2 1118   5.686   4.955   3.886 -0.0181  0.3914 -0.1384
  371TIP3    H1 1119   5.674   4.876   3.834  2.4927 -0.3282  0.2266
  371TIP3    H2 1120   5.660   4.930   3.975  0.4043  0.0860 -0.0989
  372TIP3   OH2 1121   3.080   5.949   4.721  0.2616  0.1819  0.0847
  372TIP3    H1 1122   3.096   5.960   4.815  2.0062 -0.6280 -0.0897
  372TIP3    H2 1123   2.985   5.934   4.715 -0.0426  1.2243  1.5931
  373TIP3   OH2 1124   0.032   5.689   0.680 -0.3911 -0.1583  0.2147
  373TIP3    H1 1125  -0.053   5.723   0.650  0.0860 -0.7840 -2.1063
  373TIP3    H2 1126   0.041   5.720   0.769 -3.3987 -0.6810  0.8052
  374TIP3   OH2 1127   0.609   1.737   2.330 -0.0667 -0.0981  0.5141
  374TIP3    H1 1128   0.522   1.767   2.356  0.5715  2.0201  0.4477
  374TIP3    H2 1129   0.659   1.818   2.318  1.5328 -1.2086 -0.7659
  375TIP3   OH2 1130   5.482   5.984   0.026  0.4357  0.0198 -0.4332
  375TIP3    H1 1131   5.404   5.954  -0.021  1.3941 -0.7509 -1.6160
  375TIP3    H2 1132   5.475   5.943   0.112 -0.2444 -0.4082 -0.6806
  376TIP3   OH2 1133   5.549   1.862   2.101  0.2509 -0.1268 -0.6272
  376TIP3    H1 1134   5.511   1.872   2.014 -0.9007 -0.4697 -0.1839
  376TIP3    H2 1135   5.600   1.942   2.114 -1.8714  1.2916 -0.4911
  377TIP3   OH2 1136   0.710   0.597   1.289 -0.3530 -0.0012 -0.4147
  377TIP3    H1 1137   0.647   0.525   1.290 -0.4511  0.0885  0.1851
  377TIP3    H2 1138   0.691   0.647   1.368 -0.2671  0.6727 -0.8102
  378TIP3   OH2 1139   5.628   3.201   2.531  0.0636  0.1160 -0.0487
  378TIP3    H1 1140   5.716   3.187   2.497 -0.0427 -0.6077 -0.0464
  378TIP3    H2 1141   5.570   3.162   2.464 -0.1153 -2.2847  1.3691
  379TIP3   OH2 1142   5.686   1.384   0.042  0.0015  0.4553  0.2141
  379TIP3    H1 1143   5.592   1.371   0.026  0.3442 -0.5041 -1.1702
  379TIP3    H2 1144   5.690   1.418   0.131 -1.6027 -0.4225  0.6666
  380TIP3   OH2 1145   0.233   4.751   4.851  0.3344 -0.2410 -0.2228
  380TIP3    H1 1146   0.267   4.823   4.905  3.0162 -1.0539 -0.6971
  380TIP3    H2 1147   0.200   4.794   4.773  2.1583  0.5179 -0.6272
  381TIP3   OH2 1148   2.620   0.170   2.678  0.0922  0.0383 -0.3805
  381TIP3    H1 1149   2.648   0.195   2.765 -1.0949 -0.5522  0.1939
  381TIP3    H2 1150   2.668   0.229   2.619  0.0610  1.1953  0.7197
  382TIP3   OH2 1151   1.214   5.182   0.659  0.3722 -0.2937  0.1048
  382TIP3    H1 1152   1.185   5.112   0.600 -2.8995  1.8458 -1.1290
  382TIP3    H2 1153   1.134   5.230   0.680  2.0157  1.4220  3.2194
  383TIP3   OH2 1154   4.952   5.124   3.401  0.1162  0.3878  0.1233
  383TIP3    H1 1155   4.993   5.167   3.326 -1.0576  3.3048  0.9919
  383TIP3    H2 1156   5.007   5.150   3.475 -0.1353 -0.3717  0.5813
  384TIP3   OH2 1157   3.933   2.225   4.060 -0.1878 -0.3006  0.2914
  384TIP3    H1 1158   4.006   2.272   4.098  1.8479 -1.6119 -1.7732
  384TIP3    H2 1159   3.938   2.137   4.098 -0.9360 -0.3043  0.4082
  385TIP3   OH2 1160   5.862   5.727   3.967  0.3879 -0.1973  0.5389
  385TIP3    H1 1161   5.932   5.700   4.026  0.7970  0.3683  0.3212
  385TIP3    H2 1162   5.892   5.811   3.931 -0.0495 -0.3189 -0.1319
  386TIP3   OH2 1163   0.461   5.520   2.597  0.3183  0.8478  0.2786
  386TIP3    H1 1164   0.533   5.476   2.552 -0.5770 -0.2925 -0.0886
  386TIP3    H2 1165   0.488   5.523   2.689  0.7219  0.1887  0.1905
  387TIP3   OH2 1166   3.002   5.632   4.115 -0.3567  0.3214  0.3259
  387TIP3    H1 1167   2.933   5.673   4.064 -1.1219 -0.1946  0.9125
  387TIP3    H2 1168   3.082   5.678   4.090 -0.4413 -0.8342 -2.3994
  388TIP3   OH2 1169   4.703   3.392   2.268 -0.3993 -0.4386  0.5725
  388TIP3    H1 1170   4.696   3.304   2.306  1.1568 -0.5284  0.7152
  388TIP3    H2 1171   4.617   3.408   2.229 -1.0207 -1.6187  1.4019
  389TIP3   OH2 1172   0.724   2.214   3.195 -0.0264  0.7127  0.1472
  389TIP3    H1 1173   0.784   2.280   3.162  0.3955  0.3273  0.1423
  389TIP3    H2 1174   0.751   2.201   3.286  0.8624 -0.5334 -0.2681
  390TIP3   OH2 1175   0.906   1.868   4.576 -0.4721 -0.0441 -0.2798
  390TIP3    H1 1176   0.988   1.906   4.606 -0.3989 -0.4045 -0.0118
  390TIP3    H2 1177   0.923   1.843   4.486 -0.7668  1.2612 -0.7149
  391TIP3   OH2 1178   1.727   3.607   2.787 -0.5899 -0.2245  0.3411
  391TIP3    H1 1179   1.746   3.546   2.716  2.8542 -0.7964  1.5601
  391TIP3    H2 1180   1.720   3.552   2.865 -1.2966  0.6376  0.9010
  392TIP3   OH2 1181   3.682   2.815   0.742 -0.2975 -0.3696  0.8015
  392TIP3    H1 1182   3.591   2.787   0.757 -0.7316  0.7633  0.4091
  392TIP3    H2 1183   3.696   2.885   0.805 -0.2496  0.5738 -0.2312
  393TIP3   OH2 1184   4.629   3.316   1.702 -0.3813 -0.0017  0.0145
  393TIP3    H1 1185   4.575   3.256   1.649 -1.1698 -1.6887  2.5506
  393TIP3    H2 1186   4.570   3.345   1.771  0.9474  1.1801  0.6848
  394TIP3   OH2 1187   5.266   3.609   4.425 -0.0627  0.2482  0.0457
  394TIP3    H1 1188   5.341   3.561   4.460 -0.6852  0.5791  1.9688
  394TIP3    H2 1189   5.290   3.701   4.436 -0.0117  0.3813 -1.0696
  395TIP3   OH2 1190   0.243   0.583   0.243 -0.3501 -0.1517 -0.4747
  395TIP3    H1 1191   0.273   0.518   0.307  0.9665  1.0463  0.1740
  395TIP3    H2 1192   0.148   0.584   0.253 -0.1643  0.1856  1.6663
  396TIP3   OH2 1193   0.944   5.364   1.804  0.1705 -0.0324  0.0591
  396TIP3    H1 1194   0.936   5.430   1.873  0.0408  0.4064 -0.3662
  396TIP3    H2 1195   0.990   5.409   1.733  1.8158 -0.9780  0.4807
  397TIP3   OH2 1196   5.809   0.249   2.739 -0.3875 -0.0470  0.1839
  397TIP3    H1 1197   5.879   0.183   2.738 -0.2478  0.0895 -1.0395
  397TIP3    H2 1198   5.740   0.212   2.684 -0.3329  0.7857 -0.4724
  398TIP3   OH2 1199   2.248   2.488   2.698  0.4224 -0.3398  0.1026
  398TIP3    H1 1200   2.170   2.520   2.744  0.9823 -0.7902  1.4314
  398TIP3    H2 1201   2.214   2.442   2.622 -0.4771  1.8624 -0.9104
  399TIP3   OH2 1202   1.477   0.597   3.125 -0.2019 -0.0256 -0.2357
  399TIP3    H1 1203   1.418   0.636   3.190  0.0071 -0.5755  0.2844
  399TIP3    H2 1204   1.437   0.513   3.104 -0.6991  0.4771 -1.4258
  400TIP3   OH2 1205   3.624   5.909   2.871  0.5968 -0.4190  0.4367
  400TIP3    H1 1206   3.705   5.935   2.914  0.0915  1.1332  0.4981
  400TIP3    H2 1207   3.558   5.911   2.941 -0.2563  2.2349 -0.3104
  401TIP3   OH2 1208   3.699   3.569   3.079  0.0589 -0.8270 -0.5048
  401TIP3    H1 1209   3.700   3.617   2.996  0.4639  0.4721  0.2265
  401TIP3    H2 1210   3.792   3.563   3.103 -0.0592 -1.1831 -0.1437
  402TIP3   OH2 1211   6.047   5.313   3.394 -0.0069 -0.3026  0.1745
  402TIP3    H1 1212   6.054   5.264   3.476 -0.6427 -0.3464  0.2070
  402TIP3    H2 1213   6.104   5.389   3.406 -1.6190  0.7596  1.4372
  403TIP3   OH2 1214   4.739   4.252   4.233 -0.3100 -0.1611  0.2088
  403TIP3    H1 1215   4.813   4.196   4.257  0.5625  1.1669  0.7614
  403TIP3    H2 1216   4.741   4.255   4.137  0.4378 -0.0520  0.2204
  404TIP3   OH2 1217   0.458   4.316   0.737 -0.4764 -0.2886 -0.1630
  404TIP3    H1 1218   0.418   4.229   0.750 -3.8933  1.2172  0.4054
  404TIP3    H2 1219   0.543   4.309   0.781 -1.6638 -2.6476  2.0658
  405TIP3   OH2 1220   5.423   1.113   1.635  0.0648  0.2647  0.9449
  405TIP3    H1 1221   5.421   1.111   1.539 -0.8417  1.0188  0.9301
  405TIP3    H2 1222   5.376   1.034   1.661  1.0900 -0.4203  0.7934
  406TIP3   OH2 1223   0.136   0.588   4.302  0.1010  0.2423  0.4126
  406TIP3    H1 1224   0.154   0.571   4.395  1.6888  1.3861  0.3687
  406TIP3    H2 1225   0.222   0.583   4.260 -0.5855 -0.1804 -0.9993
  407TIP3   OH2 1226   1.072   5.540   0.225 -0.4830  0.1169 -0.6386
  407TIP3    H1 1227   1.093   5.465   0.169  0.8804  0.7851 -1.0787
  407TIP3    H2 1228   1.044   5.608   0.164  1.1226  0.8882 -0.5689
  408TIP3   OH2 1229   2.290   3.199   3.547 -0.2980 -0.3675  0.0968
  408TIP3    H1 1230   2.194   3.196   3.546 -0.3447 -0.8189  1.9087
  408TIP3    H2 1231   2.314   3.165   3.633  1.5167 -0.5610 -0.4433
  409TIP3   OH2 1232   0.737   1.940   2.019  0.1988  0.8545  0.1915
  409TIP3    H1 1233   0.683   1.886   1.962 -1.0572  1.5975  0.6469
  409TIP3    H2 1234   0.730   2.028   1.983  0.0296  1.1946  1.0304
  410TIP3   OH2 1235   2.931   2.218   2.837 -0.4330  0.1143 -0.1807
  410TIP3    H1 1236   3.005   2.249   2.785 -0.6700 -0.5908 -0.9735
  410TIP3    H2 1237   2.937   2.265   2.920 -0.2490  1.5626 -0.9831
  411TIP3   OH2 1238   5.069   4.447   0.240 -0.9346  0.6027 -0.0959
  411TIP3    H1 1239   5.079   4.522   0.182 -2.4458  0.1052 -1.0400
  411TIP3    H2 1240   5.127   4.466   0.314 -1.0902  2.5673 -0.4397
  412TIP3   OH2 1241   6.036   0.721   4.673  0.2037 -0.5580 -0.0088
  412TIP3    H1 1242   6.081   0.678   4.600 -1.3539 -3.3568  0.5131
  412TIP3    H2 1243   5.955   0.671   4.683 -1.2062  1.8611  1.5207
  413TIP3   OH2 1244   5.281   2.706   5.163  0.0020  0.3236  0.0206
  413TIP3    H1 1245   5.357   2.739   5.114  1.7693  0.9102  2.8752
  413TIP3    H2 1246   5.227   2.784   5.178 -0.5031  0.1570 -0.8837
  414TIP3   OH2 1247   3.144   4.595   1.335 -0.1146 -0.2110 -0.2043
  414TIP3    H1 1248   3.103   4.510   1.352 -1.3582  0.5147  0.6373
  414TIP3    H2 1249   3.238   4.579   1.345  0.0860 -2.2833 -3.6476
  415TIP3   OH2 1250   2.213   4.503   2.396 -0.0190  0.1609 -0.4263
  415TIP3    H1 1251   2.286   4.443   2.413 -1.9808 -2.2919 -0.0268
  415TIP3    H2 1252   2.197   4.546   2.480  1.2151  1.0473 -0.6320
  416TIP3   OH2 1253   4.104   0.849   2.119 -0.1192  0.2257 -0.8489
  416TIP3    H1 1254   4.115   0.944   2.122  1.0171  0.1007  0.8950
  416TIP3    H2 1255   4.194   0.815   2.116 -0.5243 -0.8058 -2.1958
  417TIP3   OH2 1256   6.051   1.441   4.281 -0.0556 -0.7049 -0.1877
  417TIP3    H1 1257   6.119   1.457   4.216 -1.2540 -0.1381 -1.3629
  417TIP3    H2 1258   6.027   1.528   4.312  1.2216 -1.0272  1.8345
  418TIP3   OH2 1259   5.855   5.003   2.504 -0.0309  0.5094 -0.8426
  418TIP3    H1 1260   5.818   5.089   2.521  1.0169  0.8943 -0.3949
  418TIP3    H2 1261   5.824   4.948   2.576  1.0000  1.0714  0.0624
  419TIP3   OH2 1262   4.505   3.322   1.157 -0.0584  0.1654 -0.5394
  419TIP3    H1 1263   4.554   3.248   1.193  1.0935 -0.4377 -3.0972
  419TIP3    H2 1264   4.555   3.399   1.185 -0.0071 -0.1504  0.2815
  420TIP3   OH2 1265   0.128   0.806   3.649  0.0828  0.4927  0.4458
  420TIP3    H1 1266   0.124   0.748   3.572 -0.6343  0.6085  0.3839
  420TIP3    H2 1267   0.049   0.859   3.642 -1.4137 -1.2682  2.6505
  421TIP3   OH2 1268   0.902   3.162   2.772  0.6830 -0.1310 -0.0604
  421TIP3    H1 1269   0.983   3.112   2.764  0.2925 -0.7367 -0.2797
  421TIP3    H2 1270   0.918   3.241   2.721  1.2378 -0.1102  0.1364
  422TIP3   OH2 1271   5.164   2.022   4.822  0.1196  0.0239 -0.0128
  422TIP3    H1 1272   5.252   2.039   4.858  0.3577 -1.4681  0.1715
  422TIP3    H2 1273   5.140   1.937   4.858 -1.4551  0.4585 -0.0055
  423TIP3   OH2 1274   1.090   0.909   2.815  0.0881 -0.2422 -0.2509
  423TIP3    H1 1275   1.012   0.952   2.852 -0.0404  1.0910 -1.9162
  423TIP3    H2 1276   1.126   0.974   2.754  1.7815 -1.3269 -0.4703
  424TIP3   OH2 1277   3.006   3.944   2.328 -0.1711 -0.3762 -0.0435
  424TIP3    H1 1278   3.045   4.020   2.372  0.6293 -0.5003 -0.5085
  424TIP3    H2 1279   2.958   3.899   2.397  0.3627 -0.1074  0.5191
  425TIP3   OH2 1280   5.188   2.017   1.129 -0.0762  0.2708  0.2845
  425TIP3    H1 1281   5.162   1.939   1.079 -0.6855 -0.5245  1.7691
  425TIP3    H2 1282   5.227   1.981   1.209 -0.3161  1.4981  0.9687
  426TIP3   OH2 1283   0.230   5.533   2.413 -0.3652  0.1149  0.0653
  426TIP3    H1 1284   0.278   5.533   2.496 -1.5925 -1.0617  0.8082
  426TIP3    H2 1285   0.161   5.599   2.425  0.9897  1.8243 -1.0099
  427TIP3   OH2 1286   5.897   3.488   1.940 -0.3171 -0.0071 -0.0451
  427TIP3    H1 1287   5.848   3.470   1.859  0.8299 -1.3867 -0.4747
  427TIP3    H2 1288   5.899   3.584   1.945 -1.7568  0.0956 -0.7950
  428TIP3   OH2 1289   6.223   3.919   2.529  0.2108  0.2740  0.5604
  428TIP3    H1 1290   6.280   3.850   2.563  0.6848  0.5911  0.4162
  428TIP3    H2 1291   6.196   3.887   2.442  1.2633  0.7232  0.0508
  429TIP3   OH2 1292   2.829   3.819   2.504 -0.2160 -0.5729  0.1456
  429TIP3    H1 1293   2.765   3.767   2.553 -0.8641 -1.9714 -2.0413
  429TIP3    H2 1294   2.914   3.792   2.538 -0.6607 -0.9368  0.9922
  430TIP3   OH2 1295   3.442   5.050   4.326 -0.2328 -0.4093 -0.1772
  430TIP3    H1 1296   3.488   4.967   4.342 -2.0235 -1.4462 -0.1653
  430TIP3    H2 1297   3.421   5.047   4.233 -0.8894 -0.2842 -0.0343
  431TIP3   OH2 1298   6.294   4.742   1.650 -0.0939  0.7100  0.4003
  431TIP3    H1 1299   6.361   4.738   1.718 -1.8776 -2.0460  2.1656
  431TIP3    H2 1300   6.337   4.710   1.571  0.6419 -1.3289  1.5802
  432TIP3   OH2 1301   1.989   2.211   1.966  0.2898  0.8823 -0.4890
  432TIP3    H1 1302   1.982   2.191   2.059 -1.0088 -0.6290 -0.8771
  432TIP3    H2 1303   2.006   2.305   1.963 -0.1677  1.0483  1.2462
  433TIP3   OH2 1304   0.245   3.857   1.791  0.4558 -0.2643 -0.1262
  433TIP3    H1 1305   0.307   3.924   1.761  2.8171 -0.9597  2.7808
  433TIP3    H2 1306   0.259   3.784   1.731  0.7868  0.3910 -0.8765
  434TIP3   OH2 1307   4.938   4.030   2.079 -0.0027  0.5217 -0.1717
  434TIP3    H1 1308   4.954   4.029   1.985 -0.3061  0.5919 -0.2231
  434TIP3    H2 1309   4.992   3.958   2.113 -1.7340 -1.1033 -0.6926
  435TIP3   OH2 1310   0.879   5.758   2.481 -0.2682  0.0346 -0.2431
  435TIP3    H1 1311   0.832   5.692   2.531  1.0250 -0.6360  0.1123
  435TIP3    H2 1312   0.898   5.717   2.397 -1.1500  0.6575 -0.7795
  436TIP3   OH2 1313   2.238   4.013   3.086  0.0535  0.0766  0.2992
  436TIP3    H1 1314   2.179   4.088   3.095  1.1063  0.8184  1.3394
  436TIP3    H2 1315   2.199   3.946   3.141  0.3618  0.7026  1.3157
  437TIP3   OH2 1316   2.460   5.904   2.149 -0.1092 -0.2144  0.4563
  437TIP3    H1 1317   2.540   5.955   2.142 -0.3488 -0.0132 -1.3188
  437TIP3    H2 1318   2.451   5.861   2.063 -1.7724 -0.4039  0.6918
  438TIP3   OH2 1319   1.869   5.712   5.014  0.0577 -0.6133 -0.1451
  438TIP3    H1 1320   1.882   5.800   5.049  1.0901 -0.6529 -0.3831
  438TIP3    H2 1321   1.798   5.675   5.066 -2.3455  1.3198 -1.8098
  439TIP3   OH2 1322   0.133   2.892   0.605  0.5115  0.0832  0.1263
  439TIP3    H1 1323   0.177   2.868   0.686  0.4946 -0.4981 -0.0292
  439TIP3    H2 1324   0.204   2.920   0.547  1.1268 -3.4484 -1.0695
  440TIP3   OH2 1325   1.913   3.667   3.457 -0.4937  0.5529  0.3482
  440TIP3    H1 1326   1.898   3.728   3.385 -0.3988  1.0622  0.7578
  440TIP3    H2 1327   1.917   3.722   3.535  1.1664  0.2174  0.5528
  441TIP3   OH2 1328   2.030   0.254   3.682 -0.4466  0.5943 -0.1163
  441TIP3    H1 1329   1.982   0.225   3.605 -1.9185  1.8408  0.2938
  441TIP3    H2 1330   2.001   0.344   3.697  2.6441  1.7629 -0.3123
  442TIP3   OH2 1331   2.114   5.402   2.447  0.1058  0.2941 -0.2286
  442TIP3    H1 1332   2.177   5.332   2.429  0.8395  1.0128 -0.5088
  442TIP3    H2 1333   2.151   5.479   2.405 -0.8920  0.7712 -0.2682
  443TIP3   OH2 1334   2.858   4.776   0.474 -0.0638 -0.1293  0.4665
  443TIP3    H1 1335   2.854   4.723   0.553  1.0826  0.3051  0.8367
  443TIP3    H2 1336   2.894   4.860   0.503  1.3166 -0.2976 -0.6706
  444TIP3   OH2 1337   0.650   0.589   0.464 -0.7927 -0.0057 -0.1375
  444TIP3    H1 1338   0.629   0.548   0.547 -0.6780 -0.8055 -0.4987
  444TIP3    H2 1339   0.585   0.659   0.455  0.1079  1.0522  1.3024
  445TIP3   OH2 1340   5.176   3.891   4.622  0.1481 -0.1254 -0.0434
  445TIP3    H1 1341   5.193   3.984   4.642 -2.1160  0.6164 -1.2053
  445TIP3    H2 1342   5.117   3.862   4.692  0.0357 -0.3886 -0.2462
  446TIP3   OH2 1343   1.675   3.089   0.505  0.2808 -0.1982 -0.4643
  446TIP3    H1 1344   1.647   2.997   0.502  1.2435 -0.5839  1.2813
  446TIP3    H2 1345   1.723   3.102   0.423 -2.1757 -0.4040 -2.0504
  447TIP3   OH2 1346   2.319   4.836   3.793 -0.7444 -0.1749  0.3422
  447TIP3    H1 1347   2.223   4.838   3.791 -0.8438 -1.3694  1.7890
  447TIP3    H2 1348   2.340   4.745   3.814  0.7137  0.0737  0.0587
  448TIP3   OH2 1349   2.718   2.641   3.319 -0.6119  0.5431 -0.2720
  448TIP3    H1 1350   2.806   2.616   3.290 -0.8890 -1.4260  0.4558
  448TIP3    H2 1351   2.719   2.626   3.414 -1.9760 -0.3013 -0.3733
  449TIP3   OH2 1352   3.006   1.648   0.229 -0.3197 -0.6445 -0.3403
  449TIP3    H1 1353   2.976   1.735   0.202  0.0998  0.0362  1.2368
  449TIP3    H2 1354   2.932   1.590   0.213 -1.6246  0.5361  1.1508
  450TIP3   OH2 1355   3.933   1.495   0.235  0.1857  0.2640  0.1992
  450TIP3    H1 1356   3.935   1.428   0.166  1.1619  1.4540 -0.9755
  450TIP3    H2 1357   4.017   1.484   0.281  0.3934  0.7556 -0.0652
  451TIP3   OH2 1358   5.528   1.898   1.827  0.2745  0.5743  0.2188
  451TIP3    H1 1359   5.608   1.926   1.784  1.2940 -0.9691  1.0261
  451TIP3    H2 1360   5.507   1.814   1.787 -0.2172  0.3490  0.9154
  452TIP3   OH2 1361   5.286   3.694   3.230  0.2705  0.3852 -0.4093
  452TIP3    H1 1362   5.227   3.629   3.192 -0.4695  1.4872 -1.2061
  452TIP3    H2 1363   5.277   3.681   3.324 -0.3149 -0.2686 -0.5381
  453TIP3   OH2 1364   3.707   4.630   1.371 -0.6153  0.0792  0.2070
  453TIP3    H1 1365   3.707   4.540   1.336  0.7620 -0.0858  0.5738
  453TIP3    H2 1366   3.780   4.631   1.432 -1.8395  0.8962  1.7200
  454TIP3   OH2 1367   5.875   4.150   1.381 -0.2673 -0.0909  0.1107
  454TIP3    H1 1368   5.781   4.161   1.389 -0.4168 -1.6060  0.7070
  454TIP3    H2 1369   5.908   4.151   1.471  0.3739  0.9561 -0.1117
  455TIP3   OH2 1370   4.150   3.661   4.336 -0.0299 -0.3782  0.2525
  455TIP3    H1 1371   4.082   3.625   4.394  0.5098 -0.0320  1.1193
  455TIP3    H2 1372   4.124   3.752   4.322 -1.9877 -1.2561 -2.8154
  456TIP3   OH2 1373   1.661   2.731   2.799 -0.0341  0.1860 -0.2863
  456TIP3    H1 1374   1.632   2.642   2.777  0.7253 -0.1943  0.2328
  456TIP3    H2 1375   1.696   2.766   2.717  3.8319 -1.6243  0.3656
  457TIP3   OH2 1376   2.524   2.676   0.348  0.2117  0.2550  0.0038
  457TIP3    H1 1377   2.435   2.710   0.335  0.7301  0.8279 -2.4222
  457TIP3    H2 1378   2.541   2.690   0.441 -1.9006  0.9505  0.3399
  458TIP3   OH2 1379   3.351   0.761   1.099  0.1228  0.0052 -0.0489
  458TIP3    H1 1380   3.414   0.817   1.144 -0.3452 -0.3822  1.1260
  458TIP3    H2 1381   3.330   0.692   1.162  0.7220 -1.5592 -1.4602
  459TIP3   OH2 1382   6.167   4.320   2.331  0.4583  0.7008 -0.2579
  459TIP3    H1 1383   6.183   4.227   2.315  1.2892  0.7734  0.0930
  459TIP3    H2 1384   6.202   4.365   2.254  0.4445  0.7521 -0.2349
  460TIP3   OH2 1385   0.494   2.234   3.056  0.4601  0.3011 -0.2359
  460TIP3    H1 1386   0.498   2.325   3.028  1.9124 -0.4897 -2.8553
  460TIP3    H2 1387   0.570   2.222   3.113  0.4570  0.6066 -0.1685
  461TIP3   OH2 1388   1.761   1.275   4.357  0.2892  0.2836  0.0182
  461TIP3    H1 1389   1.763   1.319   4.443  0.7375 -1.1746  0.7869
  461TIP3    H2 1390   1.668   1.260   4.341  0.1854  0.7837  0.1201
  462TIP3   OH2 1391   2.887   3.723   1.529  0.0904  0.0698  0.8573
  462TIP3    H1 1392   2.822   3.790   1.548 -1.7942 -1.9357  1.9369
  462TIP3    H2 1393   2.904   3.733   1.435 -2.1036  0.4418  0.4295
  463TIP3   OH2 1394   2.246   5.568   1.725 -0.5356 -0.3419  0.1163
  463TIP3    H1 1395   2.165   5.609   1.694  0.6941  1.0359 -1.4569
  463TIP3    H2 1396   2.310   5.586   1.656  1.0150 -1.8174  1.0868
  464TIP3   OH2 1397   5.328   0.308   1.277  0.0823  0.4915 -0.1773
  464TIP3    H1 1398   5.383   0.364   1.222 -0.8915  1.8175  0.1618
  464TIP3    H2 1399   5.287   0.247   1.215  0.1961  0.9499 -0.7139
  465TIP3   OH2 1400   4.265   1.425   5.077 -0.2316  0.5264 -0.0452
  465TIP3    H1 1401   4.290   1.352   5.021  0.9580  1.5616 -0.9385
  465TIP3    H2 1402   4.170   1.420   5.081 -0.1626 -1.2111  0.1504
  466TIP3   OH2 1403   3.493   3.944   1.145  0.2224 -0.2779 -0.4676
  466TIP3    H1 1404   3.507   3.875   1.209  1.3190  1.8364  1.7335
  466TIP3    H2 1405   3.563   3.932   1.081  0.6356 -0.9641  0.1001
  467TIP3   OH2 1406   1.125   2.084   4.212  0.4667  0.4294 -0.0405
  467TIP3    H1 1407   1.143   2.153   4.275  0.5024  0.6931 -0.3400
  467TIP3    H2 1408   1.107   2.007   4.266 -0.6990  0.9312  0.3212
  468TIP3   OH2 1409   0.266   3.176   0.864  0.6819 -0.1069 -0.0773
  468TIP3    H1 1410   0.322   3.236   0.914 -0.0060  0.2794  0.2521
  468TIP3    H2 1411   0.201   3.147   0.928  0.5079 -0.5537 -0.4566
  469TIP3   OH2 1412   2.298   1.299   0.568  0.1918  0.5524 -0.1913
  469TIP3    H1 1413   2.370   1.243   0.540  1.1982  0.8513  1.6358
  469TIP3    H2 1414   2.219   1.251   0.543  0.9990  0.0739 -1.9479
  470TIP3   OH2 1415   3.361   5.531   1.232 -0.2341  0.0716 -0.1808
  470TIP3    H1 1416   3.314   5.525   1.315 -0.7577 -1.2784 -0.5447
  470TIP3    H2 1417   3.318   5.602   1.185 -1.0545 -0.2781  0.0273
  471TIP3   OH2 1418   4.649   2.272   1.738  0.1947 -0.3985 -0.0354
  471TIP3    H1 1419   4.684   2.277   1.649 -0.6078  0.0758 -0.3357
  471TIP3    H2 1420   4.723   2.297   1.794  0.3362  0.6568 -0.6593
  472TIP3   OH2 1421   4.434   0.443   1.675 -0.4072  0.0609  0.1432
  472TIP3    H1 1422   4.399   0.508   1.614  1.8958  0.5212 -0.8137
  472TIP3    H2 1423   4.367   0.374   1.679 -0.9907  0.4008 -2.3101
  473TIP3   OH2 1424   2.155   4.417   2.908 -0.4474 -0.6123 -0.4279
  473TIP3    H1 1425   2.100   4.444   2.981  0.5029 -0.3921  0.2213
  473TIP3    H2 1426   2.238   4.461   2.922  0.0094 -1.1812 -1.2234
  474TIP3   OH2 1427   1.950   3.711   0.047 -0.2449 -0.5701  0.3893
  474TIP3    H1 1428   2.025   3.712   0.107  0.0685  1.5450  0.0367
  474TIP3    H2 1429   1.874   3.714   0.104  0.0401  0.8247  0.7301
  475TIP3   OH2 1430   1.844   4.614   0.309 -0.7007 -0.2893  0.4948
  475TIP3    H1 1431   1.881   4.571   0.231 -0.2912 -0.5825  0.8454
  475TIP3    H2 1432   1.890   4.573   0.382  0.8058  1.8158  0.7995
  476TIP3   OH2 1433   0.074   5.355   1.196 -1.0150 -0.1104  0.0367
  476TIP3    H1 1434   0.001   5.305   1.159 -0.1610 -0.9834 -0.5215
  476TIP3    H2 1435   0.113   5.296   1.261 -0.5244  0.1701  0.0036
  477TIP3   OH2 1436   1.517  -0.003   0.031 -0.4692 -0.0612  0.0049
  477TIP3    H1 1437   1.424  -0.024   0.045 -0.7434  0.1143 -1.4018
  477TIP3    H2 1438   1.519   0.041  -0.054  0.7917  0.8190  0.4606
  478TIP3   OH2 1439   5.189   0.413   4.904  0.3826  0.6795  0.2661
  478TIP3    H1 1440   5.157   0.406   4.814 -0.9903  0.8468  0.7118
  478TIP3    H2 1441   5.114   0.447   4.953  1.4075  1.5001  1.3080
  479TIP3   OH2 1442   2.603   3.682   2.021  0.4297  0.6021  0.4782
  479TIP3    H1 1443   2.592   3.650   1.932  0.0746  0.1137  0.6986
  479TIP3    H2 1444   2.667   3.753   2.013 -1.0850  1.9437 -0.4800
  480TIP3   OH2 1445   5.849   4.229   0.718  0.2735  0.2125  0.1951
  480TIP3    H1 1446   5.777   4.284   0.748 -0.3547 -0.7651  0.5167
  480TIP3    H2 1447   5.812   4.179   0.645  1.5723  2.0400 -1.8481
  481TIP3   OH2 1448   5.571   5.731   0.862 -0.4008  0.3764  0.1463
  481TIP3    H1 1449   5.487   5.764   0.831 -0.4257  0.4665  0.3084
  481TIP3    H2 1450   5.583   5.649   0.814 -0.2867  0.6717 -0.3367
  482TIP3   OH2 1451   6.109   5.307   4.790  0.0701  0.3091  0.0371
  482TIP3    H1 1452   6.132   5.334   4.701 -0.0909  0.2101 -0.0351
  482TIP3    H2 1453   6.087   5.388   4.835  1.6415  0.5585  0.4368
  483TIP3   OH2 1454   5.266   5.029   3.756  0.1310 -0.1395  0.6885
  483TIP3    H1 1455   5.311   5.009   3.674 -1.9433  0.4377 -0.6700
  483TIP3    H2 1456   5.322   5.093   3.800  1.2067 -0.3532 -0.3275
  484TIP3   OH2 1457   0.515   4.700   3.170  0.3141  0.5136 -0.0084
  484TIP3    H1 1458   0.455   4.772   3.191  1.1657  1.4381 -0.6340
  484TIP3    H2 1459   0.561   4.729   3.091 -0.0182 -1.1656 -0.8472
  485TIP3   OH2 1460   2.343   5.601   0.948  0.0581  0.0661 -0.1917
  485TIP3    H1 1461   2.364   5.565   1.034 -0.0202 -1.4162 -0.7598
  485TIP3    H2 1462   2.280   5.671   0.966  1.5771  1.1875  1.1047
  486TIP3   OH2 1463   4.535   4.279   2.700  0.1798 -0.1617  0.2560
  486TIP3    H1 1464   4.474   4.280   2.774  0.1740  1.4418  0.2619
  486TIP3    H2 1465   4.529   4.367   2.663  0.6230 -0.7548 -1.3031
  487TIP3   OH2 1466   2.905   2.459   3.740  0.2651  0.2146 -0.1437
  487TIP3    H1 1467   2.903   2.471   3.835 -2.4269  0.8707 -0.2071
  487TIP3    H2 1468   2.951   2.376   3.727 -0.5309 -0.6049  1.8531
  488TIP3   OH2 1469   1.469   1.412   1.288  0.2889  0.5096 -0.5688
  488TIP3    H1 1470   1.501   1.479   1.227  0.0729 -0.0449 -1.3038
  488TIP3    H2 1471   1.378   1.436   1.304  0.1425  0.2591 -1.0188
  489TIP3   OH2 1472   1.385   2.493   3.022 -0.2342 -0.4543 -0.3195
  489TIP3    H1 1473   1.422   2.450   2.946 -0.2252 -0.4002 -0.3459
  489TIP3    H2 1474   1.405   2.435   3.095 -1.1537 -1.0232 -0.5049
  490TIP3   OH2 1475   2.434   4.145   4.034  0.3582 -0.0841  0.0696
  490TIP3    H1 1476   2.338   4.140   4.035  0.2848  1.0506  0.3404
  490TIP3    H2 1477   2.453   4.239   4.042  1.5059 -0.3448  0.5719
  491TIP3   OH2 1478   1.906   5.665   1.956 -0.2752 -0.3819 -0.2414
  491TIP3    H1 1479   1.823   5.644   1.914 -0.1970  1.3338 -1.3905
  491TIP3    H2 1480   1.967   5.679   1.883  0.8304 -0.8463  0.5617
  492TIP3   OH2 1481   3.045   4.356   2.183 -0.1062 -0.4609  0.2127
  492TIP3    H1 1482   3.027   4.329   2.092  0.3703  1.2759 -0.4310
  492TIP3    H2 1483   2.965   4.332   2.230  0.2637 -2.9077 -0.2749
  493TIP3   OH2 1484   2.792   3.867   4.153 -0.3058  0.5644 -0.2795
  493TIP3    H1 1485   2.811   3.773   4.150  1.2343  0.8664 -0.8861
  493TIP3    H2 1486   2.865   3.908   4.108 -0.8846  2.0808  0.0909
  494TIP3   OH2 1487   1.777   4.641   1.075  0.0463 -0.3183 -0.6912
  494TIP3    H1 1488   1.800   4.687   0.994  0.5350  1.7097  0.5461
  494TIP3    H2 1489   1.781   4.708   1.143  2.2548 -2.4414  1.4773
  495TIP3   OH2 1490   0.012   5.026   4.453  0.0477  0.2128  0.3734
  495TIP3    H1 1491   0.043   4.993   4.537  1.8243  0.0095 -0.3203
  495TIP3    H2 1492   0.010   4.950   4.395 -1.8904  0.2019  0.3771
  496TIP3   OH2 1493   0.034   0.860   0.959  0.3550 -0.5064  0.0490
  496TIP3    H1 1494   0.030   0.765   0.953 -0.0160 -0.4287 -1.2128
  496TIP3    H2 1495  -0.043   0.891   0.913  1.3209  0.4328 -1.0027
  497TIP3   OH2 1496   1.806   2.578   3.369 -0.0159 -0.0798 -0.0592
  497TIP3    H1 1497   1.785   2.642   3.438  0.1690 -1.5319  1.4144
  497TIP3    H2 1498   1.744   2.599   3.299 -0.3255  1.3592  0.5862
  498TIP3   OH2 1499   2.300   5.077   3.916  0.9762  0.3571 -0.2237
  498TIP3    H1 1500   2.380   5.128   3.902  2.0921 -1.0665  0.6264
  498TIP3    H2 1501   2.317   4.994   3.872  1.0738 -0.9557  2.1422
  499TIP3   OH2 1502   5.159   5.795   2.336 -0.2739  0.1572  0.2017
  499TIP3    H1 1503   5.134   5.886   2.353  0.4646  0.4728 -0.3613
  499TIP3    H2 1504   5.255   5.797   2.336 -0.2575 -0.6077  0.1009
  500TIP3   OH2 1505   2.114   4.644   1.918 -0.3679  0.2931 -1.0165
  500TIP3    H1 1506   2.038   4.620   1.865 -2.3424  0.4265  1.5701
  500TIP3    H2 1507   2.080   4.655   2.007  3.0003 -1.6695  0.7622
  501TIP3   OH2 1508   3.999   3.320   1.458  0.2444  0.1993 -0.7164
  501TIP3    H1 1509   3.981   3.226   1.464 -0.2327  0.2912 -0.6533
  501TIP3    H2 1510   4.090   3.325   1.429  0.1096 -0.2846 -1.2498
  502TIP3   OH2 1511   3.866   1.955   3.299  0.3158  0.5496  0.2912
  502TIP3    H1 1512   3.888   1.984   3.211 -0.6896  2.3199  0.5800
  502TIP3    H2 1513   3.935   1.893   3.322  0.3938 -0.2438 -1.8579
  503TIP3   OH2 1514   3.603   5.609   4.092 -0.4730  0.1845  0.2108
  503TIP3    H1 1515   3.556   5.691   4.078 -0.5117  0.2836  0.8963
  503TIP3    H2 1516   3.560   5.569   4.168  0.8746  0.5303  1.2036
  504TIP3   OH2 1517   1.939   3.551   2.417 -0.2363  0.4452  0.4708
  504TIP3    H1 1518   2.012   3.494   2.442 -1.0808 -1.4985 -1.2433
  504TIP3    H2 1519   1.969   3.639   2.439  2.0850 -0.4063  1.0106
  505TIP3   OH2 1520   4.626   2.192   2.642  0.4779  0.3109  0.5872
  505TIP3    H1 1521   4.544   2.189   2.691  0.0945  0.8519  0.0044
  505TIP3    H2 1522   4.649   2.101   2.625 -0.8965  0.1609 -0.6747
  506TIP3   OH2 1523   0.206   3.378   3.861  0.0746  0.2140  0.0613
  506TIP3    H1 1524   0.180   3.404   3.949  1.1843 -1.2702  0.8873
  506TIP3    H2 1525   0.255   3.453   3.827  2.5181 -0.3421  2.0468
  507TIP3   OH2 1526   3.669   5.680   4.837 -0.7939  0.0838  0.1722
  507TIP3    H1 1527   3.636   5.743   4.773  0.6839  0.7675  0.0565
  507TIP3    H2 1528   3.740   5.725   4.882  0.3027 -1.4909  0.0938
  508TIP3   OH2 1529   1.895   1.858   5.143  0.0212  0.1466 -0.0130
  508TIP3    H1 1530   1.830   1.805   5.190  0.7355 -1.3958 -0.7019
  508TIP3    H2 1531   1.881   1.947   5.175 -1.6558 -0.3367  0.7075
  509TIP3   OH2 1532   3.587   5.509   2.320 -0.1313  0.1422 -0.0997
  509TIP3    H1 1533   3.540   5.476   2.243 -0.7925 -0.9627  0.7311
  509TIP3    H2 1534   3.518   5.543   2.377  0.2781  0.3129  0.2951
  510TIP3   OH2 1535   3.705   1.602   0.951 -0.3485 -0.4672  0.3085
  510TIP3    H1 1536   3.775   1.590   0.887 -0.9721 -0.0502 -0.4886
  510TIP3    H2 1537   3.625   1.584   0.901 -0.9946  1.9517  0.3642
  511TIP3   OH2 1538   2.683   0.710   2.762 -0.3159  0.1498  0.2029
  511TIP3    H1 1539   2.728   0.777   2.710 -1.1279  0.9016  0.4354
  511TIP3    H2 1540   2.701   0.733   2.853  0.7510 -0.9172  0.2732
  512TIP3   OH2 1541   2.975   0.318   3.870  0.3899  0.2110 -0.5600
  512TIP3    H1 1542   2.957   0.398   3.919  0.5336  0.6813 -1.2633
  512TIP3    H2 1543   3.044   0.343   3.808  1.3546 -0.7935  0.0837
  513TIP3   OH2 1544   2.684   2.372   4.798  0.0497  0.0413 -0.6206
  513TIP3    H1 1545   2.608   2.427   4.778 -0.2536  0.5394  1.6002
  513TIP3    H2 1546   2.758   2.416   4.755 -0.5355  0.9558 -0.7093
  514TIP3   OH2 1547   5.314   5.640   2.631 -0.7205 -0.0573 -0.2659
  514TIP3    H1 1548   5.333   5.705   2.564 -1.1870 -2.2632 -2.6924
  514TIP3    H2 1549   5.367   5.667   2.707  0.1017  2.3368 -1.5952
  515TIP3   OH2 1550   2.636   1.454   4.522  0.6896 -0.2535  0.1492
  515TIP3    H1 1551   2.704   1.500   4.571  1.1607 -0.5544 -0.2073
  515TIP3    H2 1552   2.657   1.361   4.533  0.7482 -0.3292 -0.5331
  516TIP3   OH2 1553   0.552   2.745   2.391  0.1446 -0.0284 -0.3500
  516TIP3    H1 1554   0.543   2.678   2.458 -0.4791 -0.3303 -0.7258
  516TIP3    H2 1555   0.622   2.713   2.334 -0.2703 -0.4527 -0.6283
  517TIP3   OH2 1556   2.904   1.528   2.091  0.1139 -0.0433  0.0986
  517TIP3    H1 1557   2.817   1.489   2.100 -0.4257  0.9483 -0.5787
  517TIP3    H2 1558   2.897   1.612   2.137 -0.3993  1.6501 -2.7944
  518TIP3   OH2 1559   5.964   2.413   4.287 -0.5643  0.2204 -0.0076
  518TIP3    H1 1560   5.899   2.482   4.298 -0.4102  0.2025  1.0895
  518TIP3    H2 1561   6.043   2.458   4.257 -0.8063  0.3654 -0.4270
  519TIP3   OH2 1562   2.749   0.313   2.485  0.2044  0.1083 -0.2639
  519TIP3    H1 1563   2.838   0.283   2.468  0.4137 -0.2439  1.2528
  519TIP3    H2 1564   2.701   0.297   2.403  1.1227 -1.2784 -0.5631
  520TIP3   OH2 1565   3.295   0.990   0.363 -0.0436  0.6485  0.0621
  520TIP3    H1 1566   3.268   0.898   0.358 -0.6057  0.8073  0.1628
  520TIP3    H2 1567   3.240   1.035   0.299 -1.8474  1.3980  2.0114
  521TIP3   OH2 1568   1.624   0.865   0.162 -0.0551 -0.1408  0.5441
  521TIP3    H1 1569   1.560   0.931   0.135 -1.4741 -1.8987 -0.5806
  521TIP3    H2 1570   1.590   0.832   0.245  0.1406 -0.1187  0.6321
  522TIP3   OH2 1571   1.522   1.403   0.977  0.1628  0.3055 -0.5012
  522TIP3    H1 1572   1.521   1.474   1.041 -0.2312 -0.4468  0.3485
  522TIP3    H2 1573   1.576   1.335   1.017  0.6141  0.1452 -1.3439
  523TIP3   OH2 1574   4.426   4.088   0.774  0.1233 -0.7172 -0.2095
  523TIP3    H1 1575   4.394   4.178   0.773 -0.0888 -0.7915 -1.2767
  523TIP3    H2 1576   4.491   4.085   0.704  1.0916 -1.0620  0.6838
  524TIP3   OH2 1577   4.447   0.151   3.896  0.6925  0.1687 -0.0378
  524TIP3    H1 1578   4.468   0.060   3.917 -0.7915 -0.1802  0.0818
  524TIP3    H2 1579   4.508   0.175   3.827 -1.3622 -2.2783 -2.9821
  525TIP3   OH2 1580   1.081   5.031   4.490 -0.0611  0.4765 -0.6926
  525TIP3    H1 1581   0.995   5.045   4.529  0.2909  0.8683 -0.0282
  525TIP3    H2 1582   1.132   5.108   4.515  0.4140  0.3615 -1.2760
  526TIP3   OH2 1583   3.713   5.076   1.632 -0.7900  0.0087 -0.2075
  526TIP3    H1 1584   3.746   5.160   1.664  0.2741 -0.6447  0.4390
  526TIP3    H2 1585   3.790   5.022   1.620 -1.5687 -1.4926  1.1418
  527TIP3   OH2 1586   0.864   4.930   1.204 -0.0728 -0.6398 -0.1238
  527TIP3    H1 1587   0.843   4.896   1.117  0.2485  0.9760 -0.8686
  527TIP3    H2 1588   0.957   4.911   1.216  0.0650 -0.1804 -0.4615
  528TIP3   OH2 1589   0.843   1.714   4.791  0.1339 -0.0299  0.2903
  528TIP3    H1 1590   0.819   1.776   4.860  1.5818  0.3335  0.5080
  528TIP3    H2 1591   0.845   1.767   4.711  0.6270  0.0431  0.3488
  529TIP3   OH2 1592   3.436   4.226   3.938 -0.0705  0.4225  0.0708
  529TIP3    H1 1593   3.400   4.202   3.852 -0.9837  1.8814  0.0086
  529TIP3    H2 1594   3.364   4.273   3.981  0.7230  0.5920  1.2443
  530TIP3   OH2 1595   4.213   1.891   3.588  0.8084  0.2183 -0.2149
  530TIP3    H1 1596   4.290   1.927   3.631  0.5635  1.8365 -1.0191
  530TIP3    H2 1597   4.159   1.968   3.568 -0.3363 -0.7352 -0.9499
  531TIP3   OH2 1598   4.282   5.016   4.072 -0.1960  0.0322  0.3526
  531TIP3    H1 1599   4.196   4.976   4.065  0.0812 -0.4272 -0.5137
  531TIP3    H2 1600   4.268   5.095   4.125 -1.1796  0.0665  0.0494
  532TIP3   OH2 1601   4.289   2.255   5.110 -0.1944  0.4408  0.5743
  532TIP3    H1 1602   4.333   2.175   5.081 -0.9465  0.8907 -2.0711
  532TIP3    H2 1603   4.202   2.225   5.139  0.0758  0.1387  1.0877
  533TIP3   OH2 1604   0.118   3.920   3.788  0.2674  0.3458  0.5912
  533TIP3    H1 1605   0.188   3.973   3.749 -0.2816  0.3202 -0.4643
  533TIP3    H2 1606   0.152   3.831   3.785  0.2597  0.3529  0.2257
  534TIP3   OH2 1607   4.153   4.414   1.192  0.4921 -0.3994 -0.0567
  534TIP3    H1 1608   4.211   4.424   1.267 -0.9961  1.3422  0.9542
  534TIP3    H2 1609   4.104   4.333   1.209 -1.6661  1.2400  2.3023
  535TIP3   OH2 1610   3.900   2.978   3.056 -0.2921 -0.5967 -0.2485
  535TIP3    H1 1611   3.951   3.051   3.023  0.8383 -1.2220  0.0787
  535TIP3    H2 1612   3.943   2.900   3.020 -0.3542 -1.1817  0.9189
  536TIP3   OH2 1613   3.460   5.619   3.575 -0.3978 -0.3192 -0.4232
  536TIP3    H1 1614   3.380   5.588   3.615 -0.9248  2.1243  0.6123
  536TIP3    H2 1615   3.519   5.635   3.649  0.2480 -0.0049 -0.9969
  537TIP3   OH2 1616   4.327   5.129   1.017  0.2768 -0.0380  0.0493
  537TIP3    H1 1617   4.360   5.141   1.106 -0.5559  1.2072  0.2236
  537TIP3    H2 1618   4.240   5.170   1.019 -0.2374 -1.0324 -1.0361
  538TIP3   OH2 1619   1.884   3.174   0.303 -0.4483 -0.3278 -0.3436
  538TIP3    H1 1620   1.851   3.218   0.225 -0.7097  1.0709  0.5325
  538TIP3    H2 1621   1.979   3.187   0.300 -0.3066 -1.3903 -1.0730
  539TIP3   OH2 1622   4.995   5.461   3.016 -0.0834  0.3037  0.5210
  539TIP3    H1 1623   4.941   5.527   3.059 -1.9577  0.0839 -1.3523
  539TIP3    H2 1624   4.950   5.442   2.933  1.8521 -1.3293 -0.2590
  540TIP3   OH2 1625   2.736   4.618   1.183  0.2276  0.0420  0.2491
  540TIP3    H1 1626   2.746   4.622   1.088 -0.0363  1.9757  0.2782
  540TIP3    H2 1627   2.665   4.554   1.197 -1.5186  1.5801 -1.0255
  541TIP3   OH2 1628   2.776   2.018   1.761  0.4282  0.4675  0.3424
  541TIP3    H1 1629   2.756   1.925   1.762  0.5675  0.3893 -1.3129
  541TIP3    H2 1630   2.865   2.025   1.796  0.6250 -0.0848 -0.0480
  542TIP3   OH2 1631   2.595   5.422   0.143  0.5268  0.2253 -0.2689
  542TIP3    H1 1632   2.690   5.437   0.144  0.6510 -0.4883  1.1233
  542TIP3    H2 1633   2.561   5.479   0.212  0.0127  0.0354 -0.3611
  543TIP3   OH2 1634   4.044   4.542   4.258  0.1499 -0.0785 -0.0801
  543TIP3    H1 1635   3.951   4.531   4.239  0.4099 -0.3145 -1.3504
  543TIP3    H2 1636   4.078   4.453   4.267  0.4521 -0.0356 -0.7335
  544TIP3   OH2 1637   0.697   0.604   1.933  0.0822 -0.2966 -0.0526
  544TIP3    H1 1638   0.635   0.677   1.924 -0.4619 -0.7626 -0.1424
  544TIP3    H2 1639   0.653   0.530   1.891  1.5762 -0.1527 -1.9510
  545TIP3   OH2 1640   5.952   3.712   3.101  0.1109  0.0422  0.3409
  545TIP3    H1 1641   5.909   3.686   3.183  1.5956  1.7572  1.7657
  545TIP3    H2 1642   5.896   3.780   3.065  0.7694  1.1722  1.3763
  546TIP3   OH2 1643   0.617   5.019   0.206 -0.2826 -0.2541  0.0048
  546TIP3    H1 1644   0.708   5.010   0.181 -0.6823  1.0617 -2.1803
  546TIP3    H2 1645   0.581   4.930   0.200  0.4823 -0.5225 -0.6747
  547TIP3   OH2 1646   2.418   4.328   5.134  0.1839  0.1196  0.0257
  547TIP3    H1 1647   2.398   4.235   5.146 -1.3824  0.5393  1.0297
  547TIP3    H2 1648   2.336   4.372   5.153  0.5426  1.6590 -1.6953
  548TIP3   OH2 1649   3.039   1.920   3.949 -0.2337 -0.3534  0.5447
  548TIP3    H1 1650   2.953   1.913   3.990 -1.1253  3.0407 -0.3693
  548TIP3    H2 1651   3.021   1.954   3.861  1.9486 -2.1397 -0.6968
  549TIP3   OH2 1652   5.632   3.761   0.653 -0.8681 -0.3851 -0.3253
  549TIP3    H1 1653   5.723   3.730   0.654 -0.6061  0.3185 -0.9784
  549TIP3    H2 1654   5.580   3.682   0.663 -0.1761 -0.7786  0.2813
  550TIP3   OH2 1655   4.649   1.645   2.381 -0.4896 -0.3197  0.4664
  550TIP3    H1 1656   4.640   1.738   2.360  0.6690 -0.5754 -1.4107
  550TIP3    H2 1657   4.660   1.643   2.476  1.7972  1.7149  0.3684
  551TIP3   OH2 1658   5.057   5.762   1.518  0.0739 -0.1065 -0.0807
  551TIP3    H1 1659   5.086   5.763   1.609 -1.3965  1.1329  0.4295
  551TIP3    H2 1660   5.100   5.838   1.478 -1.4997  1.1012  0.4007
  552TIP3   OH2 1661   5.173   5.535   0.853 -0.2393 -0.4347  0.0571
  552TIP3    H1 1662   5.140   5.535   0.763 -1.6912 -2.1622  0.5243
  552TIP3    H2 1663   5.174   5.627   0.878  0.2008  0.0782 -1.7168
  553TIP3   OH2 1664   2.485   5.551   1.209 -0.3925 -0.3119  0.3023
  553TIP3    H1 1665   2.408   5.594   1.247  1.4167  0.7575  3.0023
  553TIP3    H2 1666   2.541   5.532   1.283  1.4339 -2.2415 -1.4577
  554TIP3   OH2 1667   1.773   2.083   3.993 -0.1024  0.0434  0.2670
  554TIP3    H1 1668   1.705   2.079   4.061 -0.5948 -1.2211 -0.2847
  554TIP3    H2 1669   1.740   2.029   3.922 -0.5964  2.9670 -1.9411
  555TIP3   OH2 1670   3.478   5.942   3.104 -0.2916  0.5033 -0.6064
  555TIP3    H1 1671   3.397   5.972   3.145  0.2532  1.5413 -0.2421
  555TIP3    H2 1672   3.544   5.948   3.173  0.0832 -0.4781 -0.8533
  556TIP3   OH2 1673   1.623   1.895   4.432  0.4074  0.2593 -0.3066
  556TIP3    H1 1674   1.616   1.919   4.340 -1.7173 -0.4904 -0.4016
  556TIP3    H2 1675   1.537   1.918   4.469  0.3081 -1.7716  0.8902
  557TIP3   OH2 1676   0.015   1.087   3.599  0.7841 -0.3444 -0.2468
  557TIP3    H1 1677   0.009   1.081   3.695  1.9584 -1.6850 -0.2198
  557TIP3    H2 1678   0.040   1.178   3.583  3.0528 -0.6577  0.9365
  558TIP3   OH2 1679   5.108   4.949   1.584 -0.3265 -0.5031  0.0007
  558TIP3    H1 1680   5.103   5.039   1.553 -0.1862 -0.2608  0.6730
  558TIP3    H2 1681   5.090   4.896   1.506  1.5306  0.0466 -0.8715
  559TIP3   OH2 1682   3.656   3.357   0.605  0.7093 -0.7477 -0.2542
  559TIP3    H1 1683   3.724   3.310   0.557  0.3714 -0.9950 -0.4881
  559TIP3    H2 1684   3.577   3.345   0.553  0.3344 -1.0497  0.3725
  560TIP3   OH2 1685   2.009   3.741   1.448  0.3582  0.1816 -0.1761
  560TIP3    H1 1686   1.915   3.755   1.435  0.0437 -1.3504  0.2172
  560TIP3    H2 1687   2.041   3.709   1.364  0.1005 -1.2244  0.2359
  561TIP3   OH2 1688   6.302   5.876   1.829  0.7145 -0.3056 -0.0012
  561TIP3    H1 1689   6.210   5.875   1.854  0.9983 -0.9162  1.0715
  561TIP3    H2 1690   6.322   5.786   1.805  0.9822 -0.1324 -0.4411
  562TIP3   OH2 1691   0.399   1.441   1.316  0.0472 -0.2379  0.3770
  562TIP3    H1 1692   0.382   1.520   1.265  1.2843 -0.3803 -0.2910
  562TIP3    H2 1693   0.437   1.472   1.398 -2.3309  0.0183  1.4505
  563TIP3   OH2 1694   0.122   1.416   1.272 -0.1626 -0.2311 -0.3687
  563TIP3    H1 1695   0.217   1.409   1.257 -0.1882 -2.1287  0.1679
  563TIP3    H2 1696   0.104   1.355   1.343 -1.5120  1.6034  0.9567
  564TIP3   OH2 1697   4.144   5.379   0.442 -0.3785  0.1451 -0.7048
  564TIP3    H1 1698   4.067   5.362   0.387  0.3126 -1.9618 -1.1138
  564TIP3    H2 1699   4.218   5.353   0.388  0.3192 -2.2314  1.1933
  565TIP3   OH2 1700   5.947   4.540   3.154  0.2353 -0.2489 -0.1212
  565TIP3    H1 1701   5.957   4.450   3.122 -1.0366  0.0238 -1.4139
  565TIP3    H2 1702   5.983   4.538   3.242  0.7378 -1.9014 -0.3201
  566TIP3   OH2 1703   2.980   4.766   3.850  0.1244 -0.1624 -0.2344
  566TIP3    H1 1704   2.994   4.833   3.782 -0.0686 -1.0674 -1.2012
  566TIP3    H2 1705   3.068   4.738   3.876  0.2002  0.2227 -0.0767
  567TIP3   OH2 1706   0.410   1.569   0.661  0.0611  0.2081 -0.3156
  567TIP3    H1 1707   0.417   1.656   0.701  0.4418 -0.2038  0.5501
  567TIP3    H2 1708   0.334   1.530   0.703 -0.2441  0.2047 -0.8693
  568TIP3   OH2 1709   5.592   4.800   4.884  0.0634  0.0114  0.2212
  568TIP3    H1 1710   5.606   4.856   4.808  3.3425  0.6749  1.1620
  568TIP3    H2 1711   5.626   4.715   4.857 -0.1210 -0.1434  0.4755
  569TIP3   OH2 1712   0.734   0.103   4.903  0.1832  0.0101 -0.0845
  569TIP3    H1 1713   0.795   0.167   4.867  0.8470  0.1348  1.1955
  569TIP3    H2 1714   0.774   0.018   4.882 -0.2317  0.0271 -0.9810
  570TIP3   OH2 1715   5.321   4.075   5.147  0.2354 -0.1386 -0.2559
  570TIP3    H1 1716   5.268   4.059   5.225 -1.2386 -0.9995 -1.3850
  570TIP3    H2 1717   5.396   4.016   5.156 -0.4877 -1.0430  0.0087
  571TIP3   OH2 1718   0.625   3.287   1.387 -0.4002  0.0397 -0.0755
  571TIP3    H1 1719   0.579   3.340   1.322  1.7277  0.6600 -1.1761
  571TIP3    H2 1720   0.691   3.238   1.336  2.4153  1.7385  1.6702
  572TIP3   OH2 1721   5.895   1.018   1.216  0.1573  0.8833  0.0476
  572TIP3    H1 1722   5.888   1.006   1.311 -0.4191  0.9768  0.0179
  572TIP3    H2 1723   5.980   0.981   1.194  0.0333  0.3051  0.5150
  573TIP3   OH2 1724   2.367   0.117   2.499  0.1940  0.6415  0.1347
  573TIP3    H1 1725   2.424   0.191   2.480  0.2939  0.7995  0.9903
  573TIP3    H2 1726   2.424   0.040   2.494 -0.2164  0.4271 -2.2413
  574TIP3   OH2 1727   3.122   1.605   0.744  0.2797  0.2817 -0.8459
  574TIP3    H1 1728   3.095   1.677   0.801  1.6382  0.2695 -0.1470
  574TIP3    H2 1729   3.136   1.647   0.659  0.7909  0.8037 -0.5140
  575TIP3   OH2 1730   0.640   2.241   2.770 -0.0017 -0.0307  0.0105
  575TIP3    H1 1731   0.688   2.167   2.808  0.2811 -0.3218 -0.8888
  575TIP3    H2 1732   0.645   2.227   2.675  0.3606  1.3261 -0.1954
  576TIP3   OH2 1733   4.627   0.396   5.086  0.1145  0.6604  0.3935
  576TIP3    H1 1734   4.692   0.393   5.015  1.2558 -2.5512  1.3961
  576TIP3    H2 1735   4.543   0.395   5.040  0.8137 -0.9440 -0.9954
  577TIP3   OH2 1736   4.741   5.952   2.803  0.0814  0.3884 -0.7036
  577TIP3    H1 1737   4.746   6.044   2.775 -0.6351  1.3992  2.1768
  577TIP3    H2 1738   4.831   5.927   2.819  0.2460  0.7697 -1.0121
  578TIP3   OH2 1739   5.247   5.835   1.998  0.4157 -0.1217 -0.3612
  578TIP3    H1 1740   5.321   5.887   1.967  1.4692 -0.9150  0.7365
  578TIP3    H2 1741   5.263   5.824   2.092 -1.6568  0.5603  0.1166
  579TIP3   OH2 1742   0.258   5.200   2.179 -0.7435 -0.3027 -0.6371
  579TIP3    H1 1743   0.309   5.214   2.259 -1.9379 -1.8902  0.4758
  579TIP3    H2 1744   0.323   5.179   2.112  0.2785  1.0620 -0.1207
  580TIP3   OH2 1745   2.018   3.530   5.136 -0.0665  0.7388  0.3031
  580TIP3    H1 1746   1.983   3.446   5.108  0.2255  0.6326  0.2542
  580TIP3    H2 1747   2.092   3.508   5.193 -0.6577  0.9524  1.1730
  581TIP3   OH2 1748   4.721   5.830   2.302  0.4390 -0.1138  0.3059
  581TIP3    H1 1749   4.746   5.914   2.340  1.5101  1.2365 -3.0694
  581TIP3    H2 1750   4.799   5.801   2.255 -0.9553 -1.3218 -1.3664
  582TIP3   OH2 1751   0.893   2.646   1.192  0.2338  0.1900  0.4917
  582TIP3    H1 1752   0.824   2.610   1.136  1.7617 -2.2071 -0.0049
  582TIP3    H2 1753   0.931   2.718   1.141 -0.4022  0.0451 -0.2002
  583TIP3   OH2 1754   5.452   4.229   1.961 -0.4651  0.4816  0.6284
  583TIP3    H1 1755   5.512   4.181   2.018  0.6212 -1.0165 -1.6344
  583TIP3    H2 1756   5.414   4.296   2.017  0.7283 -0.7276  3.0128
  584TIP3   OH2 1757   3.144   2.430   4.362  0.1522 -0.6292  0.1339
  584TIP3    H1 1758   3.104   2.410   4.278  2.1550 -0.1122 -1.0108
  584TIP3    H2 1759   3.180   2.346   4.392  1.1456 -0.4594 -0.5227
  585TIP3   OH2 1760   2.644   1.945   4.556 -0.6084  0.2985 -0.1351
  585TIP3    H1 1761   2.600   2.027   4.535 -0.8201  1.2014  3.1871
  585TIP3    H2 1762   2.719   1.970   4.610  1.3394 -1.5409 -1.7951
  586TIP3   OH2 1763   3.665   3.390   3.425 -0.0307  0.1620  0.5035
  586TIP3    H1 1764   3.613   3.414   3.349 -1.2483 -0.1560  1.2008
  586TIP3    H2 1765   3.735   3.335   3.390 -0.7971 -0.3031 -0.3403
  587TIP3   OH2 1766   3.047   1.054   3.725  0.2629 -0.1745  0.7024
  587TIP3    H1 1767   3.054   0.961   3.745  0.4789  0.0382  1.6557
  587TIP3    H2 1768   3.119   1.095   3.772  1.7495  0.2104 -1.7026
  588TIP3   OH2 1769   3.783   5.864   2.406  0.0202  0.2954 -0.0957
  588TIP3    H1 1770   3.809   5.773   2.389 -0.5722  0.1060 -0.0225
  588TIP3    H2 1771   3.731   5.859   2.486 -0.2216  0.6630 -0.2282
  589TIP3   OH2 1772   1.784   5.173   2.797 -0.3111  0.4388 -0.1470
  589TIP3    H1 1773   1.846   5.160   2.725  1.7200 -1.4305  1.7352
  589TIP3    H2 1774   1.698   5.163   2.758  0.6989 -0.0934 -2.3710
  590TIP3   OH2 1775   3.895   4.498   1.516 -0.4662  0.1512 -0.3767
  590TIP3    H1 1776   3.894   4.495   1.612 -0.9457  1.2936 -0.3329
  590TIP3    H2 1777   3.902   4.407   1.489 -0.0663 -0.1652  0.7519
  591TIP3   OH2 1778   4.799   2.485   2.273 -0.0659  0.2040  0.3621
  591TIP3    H1 1779   4.787   2.427   2.198  3.1352 -0.9276  0.5488
  591TIP3    H2 1780   4.750   2.443   2.344  0.2866 -1.0360 -0.1014
  592TIP3   OH2 1781   5.356   5.252   3.294 -0.1899 -0.4864 -0.2738
  592TIP3    H1 1782   5.271   5.278   3.331  0.0614 -0.7543  0.5267
  592TIP3    H2 1783   5.420   5.283   3.359  0.3650  0.1494 -1.1021
  593TIP3   OH2 1784   6.027   0.202   4.582 -0.2177 -0.3061 -0.2667
  593TIP3    H1 1785   6.011   0.259   4.507  1.6548 -0.4550 -0.8247
  593TIP3    H2 1786   6.016   0.259   4.658  0.0612  0.4221 -0.7577
  594TIP3   OH2 1787   0.906   4.247   3.902  0.1257  0.7057  0.4878
  594TIP3    H1 1788   0.831   4.302   3.925  0.5412  0.8895  1.4393
  594TIP3    H2 1789   0.968   4.307   3.861  0.0379  0.6875  0.3276
  595TIP3   OH2 1790   5.297   4.013   4.869 -0.3464 -0.6917 -0.0404
  595TIP3    H1 1791   5.266   3.923   4.861 -0.7693 -0.6343  0.8627
  595TIP3    H2 1792   5.297   4.031   4.963 -0.4882  0.3237 -0.2155
  596TIP3   OH2 1793   4.568   0.344   2.009  0.1283  0.0402  0.1715
  596TIP3    H1 1794   4.581   0.255   1.975 -0.1034 -0.5467  1.5511
  596TIP3    H2 1795   4.473   0.358   2.005  0.2341  0.5779 -0.8428
  597TIP3   OH2 1796   0.888   4.182   1.639  0.4513  0.6696 -0.1591
  597TIP3    H1 1797   0.899   4.233   1.559  0.1315  0.0318 -0.6137
  597TIP3    H2 1798   0.970   4.193   1.687  1.1674 -0.0400 -1.2034
  598TIP3   OH2 1799   3.583   0.258   4.955  0.2245  0.7428 -0.0991
  598TIP3    H1 1800   3.587   0.206   4.874  1.8568 -1.0899  1.0540
  598TIP3    H2 1801   3.490   0.269   4.972 -0.1695  1.6457 -2.4816
  599TIP3   OH2 1802   0.098   2.667   3.775  0.2438 -0.1746  0.2849
  599TIP3    H1 1803   0.181   2.712   3.792  2.0082 -1.6518 -3.2251
  599TIP3    H2 1804   0.120   2.574   3.778 -1.4485 -0.6268 -0.1512
  600TIP3   OH2 1805   4.008   3.427   1.177 -0.1004 -0.1123  0.1526
  600TIP3    H1 1806   4.018   3.342   1.219 -0.0871 -0.7840 -1.1856
  600TIP3    H2 1807   3.926   3.421   1.128 -0.2771  0.7728  0.3117
  601TIP3   OH2 1808   1.733   1.130   3.490  0.0679 -0.3484  0.1678
  601TIP3    H1 1809   1.756   1.065   3.422 -0.6477 -1.4233  0.9250
  601TIP3    H2 1810   1.806   1.192   3.488  0.3693 -0.6963 -1.1594
  602TIP3   OH2 1811   5.423   2.974   3.475  0.4650  0.0919 -0.2188
  602TIP3    H1 1812   5.347   2.982   3.417 -0.2884  0.1981  0.7698
  602TIP3    H2 1813   5.414   2.887   3.514  1.7575 -0.5794 -1.3217
  603TIP3   OH2 1814   0.247   2.444   5.160  0.0670  0.6517 -0.1590
  603TIP3    H1 1815   0.328   2.462   5.207 -0.6413  0.7150  1.0794
  603TIP3    H2 1816   0.273   2.438   5.068  1.9009 -1.9475  0.4506
  604TIP3   OH2 1817   3.684   0.019  -0.008 -0.0220  0.4106 -0.2211
  604TIP3    H1 1818   3.636  -0.063  -0.020  0.2597  0.4145 -1.5901
  604TIP3    H2 1819   3.665   0.046   0.082 -0.8918 -0.6544 -0.0700
  605TIP3   OH2 1820   1.434   0.146   2.159 -0.5130 -0.3169  0.1011
  605TIP3    H1 1821   1.476   0.174   2.078 -0.3857 -2.5796 -0.6911
  605TIP3    H2 1822   1.487   0.187   2.228  0.0486  0.7528 -0.9171
  606TIP3   OH2 1823   1.801   5.967   2.556  0.1991  0.4367  0.1888
  606TIP3    H1 1824   1.724   5.934   2.509  0.0310  1.9228 -0.6354
  606TIP3    H2 1825   1.873   5.912   2.526 -0.3924 -0.4876  0.4087
  607TIP3   OH2 1826   1.866   4.955   0.610 -0.0141 -0.4260  0.1892
  607TIP3    H1 1827   1.843   4.920   0.524  0.4408 -0.7638  0.2020
  607TIP3    H2 1828   1.943   4.905   0.636 -0.1496 -0.3233  0.7954
  608TIP3   OH2 1829   3.789   4.618   1.016  0.4364 -0.5514  0.4129
  608TIP3    H1 1830   3.724   4.678   0.981  0.8623 -0.7002 -0.6666
  608TIP3    H2 1831   3.849   4.673   1.067  0.6911 -0.0834 -0.3748
  609TIP3   OH2 1832   4.735   2.431   5.080  0.7371  0.1266  0.1508
  609TIP3    H1 1833   4.687   2.373   5.138  0.3976  1.3472  1.1353
  609TIP3    H2 1834   4.799   2.475   5.136  1.4679  0.1827 -0.7045
  610TIP3   OH2 1835   5.371   1.325   0.373  0.2619 -0.0724 -0.7095
  610TIP3    H1 1836   5.409   1.335   0.460  2.5453 -0.0187 -1.6379
  610TIP3    H2 1837   5.284   1.289   0.388  0.0113  1.3488  1.6480
  611TIP3   OH2 1838   1.702   2.950   2.944 -0.2164 -0.4306  0.4184
  611TIP3    H1 1839   1.792   2.921   2.931 -0.6736 -1.0630 -1.7956
  611TIP3    H2 1840   1.649   2.882   2.904 -1.8117 -0.7613  2.8818
  612TIP3   OH2 1841   1.038   3.997   4.501 -0.3263 -0.0376  0.0894
  612TIP3    H1 1842   0.982   3.920   4.516  0.6883 -0.7411  0.3139
  612TIP3    H2 1843   1.127   3.964   4.509  0.1308  1.1028 -0.1610
  613TIP3   OH2 1844   1.068   5.713   5.159 -0.2343 -0.2040  0.0992
  613TIP3    H1 1845   1.072   5.665   5.242 -0.5055 -0.0243  0.2199
  613TIP3    H2 1846   1.121   5.661   5.099  0.8973  0.2455  0.6693
  614TIP3   OH2 1847   0.459   5.897   2.580  0.1686  0.6667 -0.5249
  614TIP3    H1 1848   0.529   5.833   2.574 -0.1098  0.4200 -1.3904
  614TIP3    H2 1849   0.495   5.968   2.633  0.7267  0.1173 -0.1561
  615TIP3   OH2 1850   3.811   3.188   0.457 -0.0158 -0.3080 -0.7232
  615TIP3    H1 1851   3.895   3.176   0.502 -0.5204 -1.5612 -0.0729
  615TIP3    H2 1852   3.782   3.099   0.437 -1.2166  0.1094 -0.8881
  616TIP3   OH2 1853   3.218   1.516   1.782  0.2632  0.1432  0.2236
  616TIP3    H1 1854   3.202   1.480   1.869  1.2445 -0.9035 -0.0028
  616TIP3    H2 1855   3.135   1.501   1.735  0.0419 -0.1546  0.6991
  617TIP3   OH2 1856   1.780   0.222   1.713 -0.1878  0.4078 -0.1175
  617TIP3    H1 1857   1.734   0.152   1.667 -0.3848  1.5801 -1.7694
  617TIP3    H2 1858   1.871   0.193   1.717 -0.7186 -1.2716  1.9140
  618TIP3   OH2 1859   2.510   4.045   1.505  0.7625  0.1636 -0.3617
  618TIP3    H1 1860   2.465   4.083   1.580  1.6439 -0.1147  0.3286
  618TIP3    H2 1861   2.452   3.977   1.473  0.3125  0.3858 -0.0315
  619TIP3   OH2 1862   4.597   4.218   4.902 -0.0252 -0.4627 -0.5926
  619TIP3    H1 1863   4.609   4.186   4.812 -1.1784 -1.6399 -0.3617
  619TIP3    H2 1864   4.510   4.256   4.902  0.5125  0.8020 -0.2983
  620TIP3   OH2 1865   0.040   4.972   0.436 -0.1875 -0.1844 -0.7267
  620TIP3    H1 1866   0.032   5.065   0.413  0.9221 -0.0196 -0.5186
  620TIP3    H2 1867   0.117   4.942   0.387 -0.1620 -0.8304 -0.3023
  621TIP3   OH2 1868   5.667   0.472   1.855  0.9942 -0.1548 -0.1198
  621TIP3    H1 1869   5.621   0.402   1.808  1.0129 -0.5872  0.4988
  621TIP3    H2 1870   5.633   0.468   1.944 -0.0650  1.5564 -0.4042
  622TIP3   OH2 1871   2.327   3.454   3.988  0.1794 -0.1112  0.5433
  622TIP3    H1 1872   2.368   3.367   3.987 -1.1210 -0.7526 -1.4241
  622TIP3    H2 1873   2.372   3.502   3.919 -0.3087  0.2019  0.4461
  623TIP3   OH2 1874   0.173   2.506   4.407 -0.3359 -0.4418 -0.1772
  623TIP3    H1 1875   0.249   2.451   4.387 -1.3601 -1.6299 -0.9263
  623TIP3    H2 1876   0.123   2.455   4.471 -1.3902 -0.4689 -1.0038
  624TIP3   OH2 1877   6.282   4.654   2.876 -0.0866 -0.0564 -0.3422
  624TIP3    H1 1878   6.226   4.581   2.852 -0.7571  0.5301 -0.6002
  624TIP3    H2 1879   6.233   4.732   2.850  0.1859  0.5204  0.7979
  625TIP3   OH2 1880   2.548   0.067   2.249  0.3226 -0.0025 -0.2396
  625TIP3    H1 1881   2.607   0.082   2.175  1.8835  0.9562  1.1060
  625TIP3    H2 1882   2.511   0.154   2.267  0.9043  0.0545  0.8057
  626TIP3   OH2 1883   3.275   4.690   4.688  0.2280  0.4232 -0.0190
  626TIP3    H1 1884   3.230   4.653   4.764  1.2493  0.5251  0.6474
  626TIP3    H2 1885   3.270   4.785   4.701 -2.2970  0.6095 -1.6748
  627TIP3   OH2 1886   4.357   4.766   2.842 -0.3353 -0.2070  0.0345
  627TIP3    H1 1887   4.398   4.730   2.763 -1.3207 -1.5736  0.1188
  627TIP3    H2 1888   4.335   4.856   2.818 -1.4974 -0.8753 -1.6094
  628TIP3   OH2 1889   3.747   5.477   2.724 -0.1328 -0.5386 -0.6197
  628TIP3    H1 1890   3.729   5.415   2.653 -0.1069 -1.7363  0.3859
  628TIP3    H2 1891   3.801   5.428   2.786 -1.2392  0.0305  0.8615
  629TIP3   OH2 1892   3.179   1.498   2.075 -0.4796 -0.0313  0.3977
  629TIP3    H1 1893   3.085   1.514   2.083 -0.5460 -0.7633  1.3127
  629TIP3    H2 1894   3.194   1.419   2.127  0.8868  0.9029  1.4957
  630TIP3   OH2 1895   5.624   3.801   1.021  0.2669  0.0976  0.2957
  630TIP3    H1 1896   5.669   3.834   1.099  0.1575  0.7432  0.0929
  630TIP3    H2 1897   5.531   3.819   1.038  0.3194  1.0087 -0.3394
  631TIP3   OH2 1898   4.364   2.390   1.930 -0.2939 -0.4137 -0.2049
  631TIP3    H1 1899   4.310   2.412   2.005  1.4997 -1.6848  1.5741
  631TIP3    H2 1900   4.403   2.306   1.953  4.2713  1.4014 -0.1509
  632TIP3   OH2 1901   5.798   3.543   0.481 -0.1663  0.1584  0.4543
  632TIP3    H1 1902   5.765   3.473   0.425 -1.2741  0.9669  0.0494
  632TIP3    H2 1903   5.764   3.522   0.568 -0.5572  0.2249  0.3192
  633TIP3   OH2 1904   5.699   3.073   3.723 -0.1756  0.2818  0.6804
  633TIP3    H1 1905   5.750   3.083   3.804 -1.3033  0.6313  1.3673
  633TIP3    H2 1906   5.645   2.996   3.738  0.5117 -0.4107 -0.2609
  634TIP3   OH2 1907   2.806   1.620   4.690 -0.1096  0.0368  0.7228
  634TIP3    H1 1908   2.863   1.639   4.764  0.8119 -0.5017  0.1728
  634TIP3    H2 1909   2.843   1.669   4.617  0.6554 -1.5774 -0.0314
  635TIP3   OH2 1910   3.769   2.310   0.257 -0.3976  0.1010 -0.1669
  635TIP3    H1 1911   3.756   2.394   0.301 -0.5302 -0.0329  0.0525
  635TIP3    H2 1912   3.682   2.288   0.222 -0.2863  0.2188 -0.5178
  636TIP3   OH2 1913   3.212   5.244   2.462  0.0830 -0.3564 -0.2560
  636TIP3    H1 1914   3.129   5.281   2.494 -1.2829 -2.5380 -1.0673
  636TIP3    H2 1915   3.222   5.281   2.374 -0.7004 -1.0316 -0.6415
  637TIP3   OH2 1916   5.610   2.728   0.400 -0.5106 -0.1423 -0.0248
  637TIP3    H1 1917   5.517   2.714   0.383 -0.7514  2.3408 -1.2161
  637TIP3    H2 1918   5.648   2.745   0.314  0.6069  1.0295  0.6530
  638TIP3   OH2 1919   2.066   4.734   0.095  0.4023  0.6965  0.4544
  638TIP3    H1 1920   2.144   4.758   0.146  1.0333  1.0134 -0.6314
  638TIP3    H2 1921   2.081   4.642   0.071  0.8544  1.0048 -0.4698
  639TIP3   OH2 1922   3.213   3.320   2.454 -0.0889  0.5071 -0.2987
  639TIP3    H1 1923   3.206   3.402   2.405  4.9431  0.8185 -1.0078
  639TIP3    H2 1924   3.276   3.339   2.523 -2.4641 -1.5842  2.7369
  640TIP3   OH2 1925   2.608   4.770   1.398  0.1404  0.0340 -0.2185
  640TIP3    H1 1926   2.556   4.707   1.447  0.5333 -0.8353 -0.8866
  640TIP3    H2 1927   2.605   4.739   1.308  0.4608  0.8956 -0.5357
  641TIP3   OH2 1928   5.100   4.269   1.033  0.6122  0.5392 -0.0064
  641TIP3    H1 1929   5.102   4.365   1.028 -1.0553  0.5413 -2.0334
  641TIP3    H2 1930   5.163   4.240   0.967  0.4665  0.2517 -0.0212
  642TIP3   OH2 1931   2.581   2.678   1.218  0.2570  0.3664  0.3806
  642TIP3    H1 1932   2.510   2.720   1.170  0.3161  0.7835  0.6511
  642TIP3    H2 1933   2.550   2.589   1.235  0.0515  0.3580 -0.0331
  643TIP3   OH2 1934   0.878   2.502   1.571 -0.1637  0.2308 -0.1514
  643TIP3    H1 1935   0.853   2.500   1.663 -0.3809  0.9436 -0.1925
  643TIP3    H2 1936   0.964   2.543   1.569 -0.2841  0.4793 -0.2920
  644TIP3   OH2 1937   2.893   1.914   2.107  0.2471  0.4749 -0.0082
  644TIP3    H1 1938   2.929   1.906   2.018  1.6978 -0.8883  0.6653
  644TIP3    H2 1939   2.886   2.009   2.121  0.4232  0.7223 -1.3989
  645TIP3   OH2 1940   4.160   3.269   2.030 -0.7580  0.7551 -0.3258
  645TIP3    H1 1941   4.066   3.285   2.022 -1.0569 -0.6399  0.1646
  645TIP3    H2 1942   4.176   3.263   2.124 -0.3803 -0.0905 -0.4355
  646TIP3   OH2 1943   0.953   5.536   2.057 -0.6373 -0.0770  0.0490
  646TIP3    H1 1944   0.932   5.618   2.102  1.1029  0.3399  0.1841
  646TIP3    H2 1945   1.048   5.539   2.046 -0.8341 -0.9011 -2.2716
  647TIP3   OH2 1946   4.868   4.572   2.388  0.0070  0.4838 -0.1641
  647TIP3    H1 1947   4.857   4.521   2.308 -0.7720  2.3164 -1.2882
  647TIP3    H2 1948   4.921   4.647   2.362  0.9255  0.4117  1.3819
  648TIP3   OH2 1949   0.248   0.256   2.936 -0.5182 -0.2224  0.0848
  648TIP3    H1 1950   0.254   0.306   2.855 -1.1466  0.7492  0.6136
  648TIP3    H2 1951   0.158   0.224   2.938 -0.7276  0.3832  0.7419
  649TIP3   OH2 1952   2.125   3.236   4.278  0.2311 -0.2970  0.0978
  649TIP3    H1 1953   2.042   3.239   4.324 -0.0552  2.0700 -0.4403
  649TIP3    H2 1954   2.129   3.319   4.229  1.8847 -1.3255 -1.6849
  650TIP3   OH2 1955   5.450   2.508   4.417 -0.5304 -0.4418  0.1518
  650TIP3    H1 1956   5.517   2.446   4.444 -0.2379  0.5839  1.9424
  650TIP3    H2 1957   5.499   2.584   4.385 -0.8259  0.1061  0.9718
  651TIP3   OH2 1958   5.509   2.200   0.064 -0.1340 -0.0914 -0.5464
  651TIP3    H1 1959   5.433   2.143   0.077 -0.0674 -0.0890 -0.1542
  651TIP3    H2 1960   5.538   2.180  -0.025  0.8603 -1.8365  0.1265
  652TIP3   OH2 1961   4.631   1.108   2.300 -0.8846 -0.0498  0.1958
  652TIP3    H1 1962   4.638   1.059   2.218 -1.7003 -0.2547  0.2351
  652TIP3    H2 1963   4.707   1.167   2.299  0.6303 -1.9033  0.5679
  653TIP3   OH2 1964   0.379   2.479   4.037 -0.1059  0.7246  0.2143
  653TIP3    H1 1965   0.439   2.536   4.085  1.7448 -1.2751  0.3896
  653TIP3    H2 1966   0.396   2.499   3.945  2.2359 -1.0237  0.1697
  654TIP3   OH2 1967   0.100   1.639   4.295 -0.1109 -0.4221 -0.2477
  654TIP3    H1 1968   0.035   1.569   4.302  0.3808 -0.7775  0.9250
  654TIP3    H2 1969   0.169   1.602   4.240  0.2224 -0.9236  0.4988
  655TIP3   OH2 1970   5.246   4.126   0.836 -0.6391 -0.3624 -0.7918
  655TIP3    H1 1971   5.196   4.057   0.792  1.7631 -0.7822 -3.1081
  655TIP3    H2 1972   5.280   4.180   0.765  0.0764  1.4277  0.8169
  656TIP3   OH2 1973   5.554   5.484   2.784  0.3130  0.0971  0.2179
  656TIP3    H1 1974   5.575   5.457   2.873  0.9317 -1.2473 -0.3129
  656TIP3    H2 1975   5.496   5.416   2.750  1.4344 -0.3391 -0.9513
  657TIP3   OH2 1976   4.030   0.887   1.432 -0.0406  0.7108 -0.0451
  657TIP3    H1 1977   3.972   0.933   1.493  0.3001  1.9048 -0.5967
  657TIP3    H2 1978   3.976   0.871   1.355 -0.2332 -0.0703  0.2417
  658TIP3   OH2 1979   5.820   2.214   0.415 -0.6046  0.0431  1.0408
  658TIP3    H1 1980   5.823   2.234   0.321  0.4368  2.0158  1.4441
  658TIP3    H2 1981   5.729   2.231   0.440 -1.4033 -2.4491  0.0462
  659TIP3   OH2 1982   2.493   2.686   2.123 -0.2495 -0.7620 -0.3124
  659TIP3    H1 1983   2.492   2.715   2.215  0.7534  1.0765 -0.8198
  659TIP3    H2 1984   2.507   2.592   2.128 -0.3340 -0.7304  1.4252
  660TIP3   OH2 1985   2.391   4.917   1.939  0.7457 -0.2729 -0.2518
  660TIP3    H1 1986   2.424   4.922   1.849  0.4962  0.1112 -0.3290
  660TIP3    H2 1987   2.434   4.990   1.983  0.9103 -0.4962 -0.0450
  661TIP3   OH2 1988   5.645   1.030   2.078 -0.1432  0.3246 -0.4432
  661TIP3    H1 1989   5.732   1.069   2.080 -0.6346  1.5570 -1.3792
  661TIP3    H2 1990   5.586   1.105   2.071 -1.2393 -0.5254 -0.5470
  662TIP3   OH2 1991   4.639   5.452   2.679 -0.3057  0.1815 -0.0800
  662TIP3    H1 1992   4.703   5.518   2.655 -0.9353  0.8259  0.0021
  662TIP3    H2 1993   4.590   5.490   2.753 -0.0016 -0.7821  0.6467
  663TIP3   OH2 1994   1.889   3.372   3.941 -0.0720  0.2912  0.1546
  663TIP3    H1 1995   1.889   3.464   3.966  0.8916  0.8192 -1.6147
  663TIP3    H2 1996   1.827   3.331   4.002 -2.6949  2.5777 -0.7200
  664TIP3   OH2 1997   4.341   3.633   1.852  0.2050  0.2961 -0.3188
  664TIP3    H1 1998   4.397   3.650   1.776  0.6080 -0.5749 -0.2397
  664TIP3    H2 1999   4.367   3.699   1.916 -0.8915  1.7277 -1.2922
  665TIP3   OH2 2000   4.859   4.054   2.960 -0.0342 -0.0406 -0.3495
  665TIP3    H1 2001   4.813   3.977   2.994 -0.9991  1.7779  2.8260
  665TIP3    H2 2002   4.923   4.075   3.028 -0.2023  2.2883 -0.8565
  666TIP3   OH2 2003   1.508   1.274   4.242 -0.2803 -0.6554  0.1480
  666TIP3    H1 2004   1.444   1.218   4.198 -0.1575  0.4739 -1.6045
  666TIP3    H2 2005   1.461   1.356   4.257  0.3084 -0.3244  0.2206
  667TIP3   OH2 2006   4.838   4.855   4.017  0.2283 -0.2818 -0.1096
  667TIP3    H1 2007   4.825   4.835   3.924  0.7529 -2.0357  0.1432
  667TIP3    H2 2008   4.753   4.840   4.057  0.0146  0.4252 -0.2956
  668TIP3   OH2 2009   0.280   3.705   3.286 -0.0261  0.2309 -0.4507
  668TIP3    H1 2010   0.303   3.662   3.204 -0.2321 -0.1206 -0.3266
  668TIP3    H2 2011   0.362   3.742   3.318  0.1750 -0.1557 -0.5109
  669TIP3   OH2 2012   6.117   4.141   4.345 -0.0237 -0.5532 -0.3194
  669TIP3    H1 2013   6.185   4.204   4.367 -0.4916  0.6242 -2.0404
  669TIP3    H2 2014   6.159   4.080   4.284  0.2464 -1.5680  0.8388
  670TIP3   OH2 2015   2.478   2.566   4.740  0.4642 -0.1793 -0.6861
  670TIP3    H1 2016   2.387   2.536   4.731  0.3573 -0.9435  2.1019
  670TIP3    H2 2017   2.482   2.603   4.828  3.1312 -1.1202 -0.3384
  671TIP3   OH2 2018   5.411   5.239   1.278  0.1566 -0.1182  0.2127
  671TIP3    H1 2019   5.343   5.284   1.227 -1.2769 -2.1660  0.2000
  671TIP3    H2 2020   5.429   5.159   1.228  3.0844  0.6134 -0.1004
  672TIP3   OH2 2021   1.789   2.970   2.330 -0.1022 -0.2307  0.4012
  672TIP3    H1 2022   1.786   2.946   2.237  1.7217  0.1170  0.2144
  672TIP3    H2 2023   1.874   3.014   2.341 -1.8448  3.2078  1.4417
  673TIP3   OH2 2024   2.486   3.691   0.885  0.7993  0.3100 -0.1406
  673TIP3    H1 2025   2.433   3.615   0.911  1.3593  0.6760  2.2424
  673TIP3    H2 2026   2.562   3.653   0.841  0.2217 -0.4010 -0.5500
  674TIP3   OH2 2027   3.281   4.173   3.008 -0.3919  0.3578  0.1288
  674TIP3    H1 2028   3.232   4.188   2.927 -0.5214  0.7476  0.2818
  674TIP3    H2 2029   3.219   4.191   3.078 -0.6507 -1.1490  0.3301
  675TIP3   OH2 2030   1.438   1.567   4.473 -0.1931 -0.0418  0.2404
  675TIP3    H1 2031   1.434   1.655   4.435  0.5505 -0.7084 -1.4606
  675TIP3    H2 2032   1.389   1.513   4.412  0.1346 -0.9781  0.7934
  676TIP3   OH2 2033   0.959   3.062   1.732 -0.1338  0.1706 -0.1527
  676TIP3    H1 2034   0.902   3.122   1.779 -0.1563 -1.6219  2.3107
  676TIP3    H2 2035   1.042   3.064   1.781  0.1763 -1.0668 -0.5795
  677TIP3   OH2 2036   3.931   5.286   0.755 -0.5195  0.3815  0.0789
  677TIP3    H1 2037   3.964   5.197   0.760 -0.1525  0.4717 -0.5853
  677TIP3    H2 2038   3.864   5.291   0.822 -1.6074 -0.8512 -0.8659
  678TIP3   OH2 2039   5.684   5.623   1.280 -0.1353 -0.2214  0.3368
  678TIP3    H1 2040   5.600   5.667   1.298 -0.4708 -0.3325 -0.8630
  678TIP3    H2 2041   5.750   5.680   1.318 -0.7658 -0.2424  1.5018
  679TIP3   OH2 2042   0.471   2.354   1.346 -0.0026  0.3594  0.4733
  679TIP3    H1 2043   0.523   2.279   1.373  0.1403 -1.5698 -4.1282
  679TIP3    H2 2044   0.523   2.431   1.369  2.2530 -1.2174  0.8680
  680TIP3   OH2 2045   1.938   3.247   1.613 -0.2315  0.1917  0.2639
  680TIP3    H1 2046   1.896   3.200   1.686  0.1285 -0.5632 -0.0001
  680TIP3    H2 2047   2.011   3.294   1.653 -0.0155 -0.2473  0.3905
  681TIP3   OH2 2048   0.338   2.277   4.651 -0.7388 -0.1507 -0.6284
  681TIP3    H1 2049   0.251   2.261   4.615 -1.2057  0.6713  0.0919
  681TIP3    H2 2050   0.390   2.307   4.577 -0.9622 -0.9774 -1.1341
  682TIP3   OH2 2051   0.407   0.751   0.445  0.3739  0.1818  0.1239
  682TIP3    H1 2052   0.383   0.770   0.354  1.0441  0.6150  0.0316
  682TIP3    H2 2053   0.324   0.727   0.487 -0.1151  0.9574 -0.3624
  683TIP3   OH2 2054   2.348   5.396   3.581  0.6669 -0.1611  0.0566
  683TIP3    H1 2055   2.290   5.438   3.644 -1.9284 -0.2300 -2.0692
  683TIP3    H2 2056   2.293   5.330   3.538  1.0879  1.9971 -4.4335
  684TIP3   OH2 2057   5.250   1.411   4.657  0.1469 -0.1042  0.0222
  684TIP3    H1 2058   5.235   1.385   4.566 -0.3111  1.2964 -0.3401
  684TIP3    H2 2059   5.211   1.498   4.663 -1.2628 -0.7960  1.9856
  685TIP3   OH2 2060   3.874   3.245   3.329 -0.6443 -0.9146 -0.7761
  685TIP3    H1 2061   3.923   3.169   3.359 -0.9463 -0.3697  1.2680
  685TIP3    H2 2062   3.879   3.241   3.234  0.4527 -2.7452 -0.6884
  686TIP3   OH2 2063   5.279   4.156   0.375  0.3038  0.2513 -0.2550
  686TIP3    H1 2064   5.327   4.173   0.294  0.7763  1.0728  0.1901
  686TIP3    H2 2065   5.203   4.104   0.347  0.1719  0.9653 -1.2984
  687TIP3   OH2 2066   5.956   4.904   0.558  0.1070  0.0345  0.2393
  687TIP3    H1 2067   5.913   4.892   0.643  1.2140  0.5160  0.8842
  687TIP3    H2 2068   6.049   4.910   0.579  0.6404 -2.0174 -1.2279
  688TIP3   OH2 2069   5.126   4.919   3.996  0.2207 -0.2333  0.1419
  688TIP3    H1 2070   5.168   4.934   3.911  2.6500 -3.0972  0.6593
  688TIP3    H2 2071   5.035   4.898   3.974  0.9677 -1.6843 -1.8887
  689TIP3   OH2 2072   0.232   0.547   2.163 -0.2422  0.1044 -0.4384
  689TIP3    H1 2073   0.194   0.635   2.169 -0.0233  0.2813 -1.4537
  689TIP3    H2 2074   0.169   0.491   2.208 -1.8268  0.3551 -2.2046
  690TIP3   OH2 2075   0.171   5.373   0.178 -0.3607 -0.3981 -0.3618
  690TIP3    H1 2076   0.144   5.316   0.106  0.6326  0.7605 -1.7261
  690TIP3    H2 2077   0.260   5.344   0.199  0.2571  0.7432 -1.2476
  691TIP3   OH2 2078   3.049   4.399   4.324 -0.4093 -0.6476  0.4389
  691TIP3    H1 2079   3.090   4.421   4.407  1.9603 -1.1310 -0.5299
  691TIP3    H2 2080   3.045   4.304   4.323 -0.2664 -0.6511 -0.0701
  692TIP3   OH2 2081   1.249   4.844   0.971  0.2824  0.1413 -0.0584
  692TIP3    H1 2082   1.329   4.793   0.986 -0.0262 -0.3518 -0.0609
  692TIP3    H2 2083   1.202   4.795   0.904 -1.0085 -0.7272  1.4058
  693TIP3   OH2 2084   0.693   0.665   2.553  0.0458  0.0940 -0.1511
  693TIP3    H1 2085   0.690   0.667   2.458 -0.0087  0.1570 -0.1487
  693TIP3    H2 2086   0.773   0.712   2.576  0.1208 -0.0249 -0.1692
  694TIP3   OH2 2087   2.076   2.289   3.445 -0.1198 -0.0827 -0.1884
  694TIP3    H1 2088   2.020   2.216   3.470  1.0194  0.2021  3.9372
  694TIP3    H2 2089   2.158   2.249   3.417 -0.4364 -0.4288 -0.6121
  695TIP3   OH2 2090   2.038   0.146   1.682 -0.0730 -0.5188  0.7318
  695TIP3    H1 2091   2.094   0.115   1.753  1.0003 -1.1013 -0.3310
  695TIP3    H2 2092   2.011   0.066   1.636 -0.1472 -0.1007  0.0397
  696TIP3   OH2 2093   6.141   5.174   0.014  0.5190  0.0408  0.0737
  696TIP3    H1 2094   6.124   5.145   0.104 -1.2007  1.0890  0.1271
  696TIP3    H2 2095   6.055   5.199  -0.020  1.2262  0.2259 -1.6783
  697TIP3   OH2 2096   3.275   2.843   2.728  0.0681 -0.0076  0.2219
  697TIP3    H1 2097   3.301   2.783   2.797  0.2713  0.8179  0.8846
  697TIP3    H2 2098   3.183   2.862   2.746  0.1487  0.2869  0.3351
  698TIP3   OH2 2099   3.028   5.403   0.580  0.1795 -0.3605 -0.4614
  698TIP3    H1 2100   3.105   5.452   0.550 -0.8330  2.0681  0.6358
  698TIP3    H2 2101   2.972   5.398   0.502 -0.4454  1.8752 -0.2342
  699TIP3   OH2 2102   5.555   5.330   3.484 -0.2565  1.1011  0.3493
  699TIP3    H1 2103   5.620   5.355   3.418  0.2684  1.3441  0.9562
  699TIP3    H2 2104   5.586   5.245   3.516  0.9773  2.1557  2.1557
  700TIP3   OH2 2105   1.178   3.196   2.426  0.7375  0.3516  0.7970
  700TIP3    H1 2106   1.226   3.245   2.493  2.1741  0.6697 -0.4169
  700TIP3    H2 2107   1.230   3.206   2.347  0.5256 -2.2432  0.2416
  701TIP3   OH2 2108   2.149   4.551   3.496 -0.2843 -1.1921  0.1296
  701TIP3    H1 2109   2.205   4.606   3.441 -0.6383 -0.1002  0.8206
  701TIP3    H2 2110   2.073   4.607   3.516 -0.6760 -1.9531  0.8205
  702TIP3   OH2 2111   4.533   2.594   1.877 -0.2049 -0.3382 -0.2550
  702TIP3    H1 2112   4.517   2.502   1.899  0.3872 -0.0074  1.7611
  702TIP3    H2 2113   4.610   2.618   1.928 -0.3100  1.2885 -0.7904
  703TIP3   OH2 2114   4.704   4.044   1.632  0.2271  0.1626  0.1259
  703TIP3    H1 2115   4.768   4.033   1.702 -0.3613  0.9057  0.8169
  703TIP3    H2 2116   4.754   4.039   1.551  0.6216 -3.0967  0.4493
  704TIP3   OH2 2117   5.519   5.578   4.046  0.2411  0.1246  0.2896
  704TIP3    H1 2118   5.506   5.628   4.127  0.3874 -0.1166  0.4635
  704TIP3    H2 2119   5.438   5.591   3.997 -0.6341 -1.2200  1.2968
  705TIP3   OH2 2120   0.736   1.760   0.029  0.0400 -0.0332  0.4913
  705TIP3    H1 2121   0.779   1.679   0.060  2.9561  0.9742 -0.5548
  705TIP3    H2 2122   0.683   1.732  -0.046  1.0533 -0.9940  0.1023
  706TIP3   OH2 2123   4.434   1.102   2.008  0.1808 -0.2330 -0.4834
  706TIP3    H1 2124   4.399   1.183   2.045 -0.5503  0.0180 -1.6640
  706TIP3    H2 2125   4.450   1.123   1.916  1.8431 -0.8695 -0.3671
  707TIP3   OH2 2126   1.481   3.010   1.407  0.1480  0.4336  0.0005
  707TIP3    H1 2127   1.563   3.050   1.378  0.1841  0.2926 -0.0962
  707TIP3    H2 2128   1.414   3.075   1.386  0.3304  0.9023  0.8514
  708TIP3   OH2 2129   3.670   3.919   3.829  0.0254  0.6321 -0.1525
  708TIP3    H1 2130   3.682   3.860   3.755  2.0628 -1.0836  1.3769
  708TIP3    H2 2131   3.576   3.935   3.833 -0.4225 -1.2646 -1.5931
  709TIP3   OH2 2132   3.124   4.986   4.753  0.0580  0.1757  0.4299
  709TIP3    H1 2133   3.114   5.069   4.706  0.1928  0.1370  0.3319
  709TIP3    H2 2134   3.213   4.989   4.787  0.4189 -0.3641 -0.4298
  710TIP3   OH2 2135   5.844   1.898   0.432 -0.0691 -0.0273  0.6110
  710TIP3    H1 2136   5.859   1.874   0.523  1.0780  0.7271  0.6286
  710TIP3    H2 2137   5.793   1.979   0.436  0.3674  0.2518  0.5942
  711TIP3   OH2 2138   2.749   2.641   3.604  0.4671  0.0886 -0.4283
  711TIP3    H1 2139   2.689   2.653   3.677 -1.5152 -0.4993 -1.8690
  711TIP3    H2 2140   2.815   2.580   3.637  0.0302  0.3843  1.0673
  712TIP3   OH2 2141   3.037   4.237   0.273 -0.1381  0.1149  0.0685
  712TIP3    H1 2142   3.099   4.167   0.294  0.4951  0.6125 -0.1118
  712TIP3    H2 2143   3.013   4.222   0.181 -1.6167 -1.0798  0.6239
  713TIP3   OH2 2144   2.909   2.157   0.139 -0.0277 -0.3262  0.2380
  713TIP3    H1 2145   2.813   2.155   0.149  0.0163 -0.0169  0.8087
  713TIP3    H2 2146   2.933   2.246   0.165  0.6566 -1.1503  2.7040
  714TIP3   OH2 2147   3.037   1.162   1.588  0.5422 -0.2347  0.2631
  714TIP3    H1 2148   3.069   1.087   1.537  3.5394 -0.2481  1.9171
  714TIP3    H2 2149   2.982   1.122   1.656  0.5084 -0.7348 -0.0487
  715TIP3   OH2 2150   1.717   2.077   5.174  0.0566 -0.3797 -0.3442
  715TIP3    H1 2151   1.653   2.066   5.245 -1.1127  0.6728 -1.1982
  715TIP3    H2 2152   1.681   2.025   5.102 -0.1187  0.6322 -0.9993
  716TIP3   OH2 2153   3.182   3.387   3.901 -0.4651 -0.6391 -0.2500
  716TIP3    H1 2154   3.174   3.433   3.984  0.4603  1.4990 -1.2654
  716TIP3    H2 2155   3.211   3.299   3.925  0.1626  0.0430  1.6828
  717TIP3   OH2 2156   0.196   3.784   4.193 -0.1727  0.2666 -0.1378
  717TIP3    H1 2157   0.276   3.732   4.199 -0.9683 -1.1218 -1.0419
  717TIP3    H2 2158   0.150   3.766   4.275  0.3726  0.9978  0.3438
  718TIP3   OH2 2159   3.550   4.185   2.875 -0.0525 -0.3026  0.4970
  718TIP3    H1 2160   3.511   4.241   2.807  0.8112  0.8673  0.9393
  718TIP3    H2 2161   3.482   4.179   2.942  0.0958  0.8320  0.7746
  719TIP3   OH2 2162   6.228   2.505   3.720 -0.5164  0.2558 -0.1484
  719TIP3    H1 2163   6.164   2.514   3.790  1.7195 -4.2943  2.8848
  719TIP3    H2 2164   6.300   2.562   3.746 -0.6694  0.4493 -0.1383
  720TIP3   OH2 2165  -0.010   3.109   4.932  0.2163  0.0839 -0.0150
  720TIP3    H1 2166   0.026   3.066   4.854  0.2248 -0.0451  0.0595
  720TIP3    H2 2167   0.022   3.057   5.005  0.1273  0.1472  0.0698
  721TIP3   OH2 2168   0.943   2.253   1.151  0.0505 -0.2055  0.0631
  721TIP3    H1 2169   0.930   2.169   1.106 -4.8677  0.5110 -0.4346
  721TIP3    H2 2170   0.949   2.229   1.243 -0.6882 -1.1984 -0.1193
  722TIP3   OH2 2171   1.575   4.115   5.101  0.2642  0.2322 -0.3679
  722TIP3    H1 2172   1.512   4.187   5.094  0.7265  0.6647 -0.1827
  722TIP3    H2 2173   1.578   4.077   5.013 -0.2835  0.1793 -0.3674
  723TIP3   OH2 2174   6.369   0.049   4.908 -0.1540  0.0142 -0.6539
  723TIP3    H1 2175   6.279   0.052   4.941  0.0554  0.1239 -0.0841
  723TIP3    H2 2176   6.391  -0.044   4.908  0.1554  0.0735  0.3925
  724TIP3   OH2 2177   1.956   0.780   4.495 -0.2537 -0.5067  0.4788
  724TIP3    H1 2178   1.908   0.706   4.459  1.1171 -0.8470 -0.7345
  724TIP3    H2 2179   1.983   0.830   4.419 -0.1605  0.6293  1.2313
  725TIP3   OH2 2180   0.995   5.485   3.101 -0.0954 -0.0683  0.3402
  725TIP3    H1 2181   1.089   5.479   3.084 -0.2808 -2.9278 -0.2221
  725TIP3    H2 2182   0.989   5.509   3.194  1.0973  2.2980 -0.1335
  726TIP3   OH2 2183   3.526   2.529   1.012 -0.3384 -0.4371 -0.1330
  726TIP3    H1 2184   3.472   2.591   0.964  0.2088 -1.4708 -2.2124
  726TIP3    H2 2185   3.606   2.577   1.032 -1.5552  0.8295  2.2123
  727TIP3   OH2 2186   4.403   4.220   1.051 -0.1229  0.0485  0.6444
  727TIP3    H1 2187   4.353   4.288   1.095 -0.1147  1.0450 -0.8337
  727TIP3    H2 2188   4.339   4.177   0.993 -0.1934 -1.4066  1.7383
  728TIP3   OH2 2189   6.056   3.072   5.093 -0.0261 -0.1020 -0.3876
  728TIP3    H1 2190   5.964   3.066   5.120 -0.4313  1.1669 -1.3377
  728TIP3    H2 2191   6.053   3.063   4.998  0.7188  0.8435 -0.5136
  729TIP3   OH2 2192   5.966   0.298   3.745 -0.2964 -0.5780  0.2840
  729TIP3    H1 2193   6.039   0.354   3.770 -0.1239 -0.4714 -0.4336
  729TIP3    H2 2194   5.992   0.210   3.773 -0.2068 -0.4313  0.6667
  730TIP3   OH2 2195   1.849   1.840   0.629 -0.0005  0.5532  0.5926
  730TIP3    H1 2196   1.910   1.775   0.594  0.7337  0.6784  1.5950
  730TIP3    H2 2197   1.798   1.868   0.553  1.0091  0.2534 -0.2232
  731TIP3   OH2 2198   0.958   0.540   4.164  0.4542 -0.1925  0.0754
  731TIP3    H1 2199   0.921   0.464   4.120  2.0748 -3.3547  3.5836
  731TIP3    H2 2200   1.052   0.534   4.148  0.6727  0.6443  0.9236
  732TIP3   OH2 2201   1.032   3.724   1.379  0.0919 -0.1610 -0.5249
  732TIP3    H1 2202   0.959   3.693   1.325  1.2891 -3.6423 -0.4354
  732TIP3    H2 2203   1.029   3.668   1.457  2.2705  0.2170 -0.1073
  733TIP3   OH2 2204   0.193   2.091   3.950 -0.1317  0.7547 -0.1204
  733TIP3    H1 2205   0.129   2.079   3.880 -1.2221  2.1052  0.5936
  733TIP3    H2 2206   0.240   2.008   3.954 -1.6548 -0.1862 -0.8496
  734TIP3   OH2 2207   3.584   1.440   0.602 -0.4202 -0.4876  0.0620
  734TIP3    H1 2208   3.646   1.486   0.545  0.9985  0.6524  2.3560
  734TIP3    H2 2209   3.521   1.401   0.542 -0.1584  2.2146 -2.2017
  735TIP3   OH2 2210   0.504   1.526   3.304  0.5482  0.3455  0.3714
  735TIP3    H1 2211   0.417   1.566   3.313  0.8156  1.0362 -0.0361
  735TIP3    H2 2212   0.488   1.446   3.255 -0.1419 -0.6308  2.0785
  736TIP3   OH2 2213   1.030   3.549   2.008  0.1749  0.3455  0.6030
  736TIP3    H1 2214   1.066   3.600   1.935 -0.4743 -1.9931 -1.4723
  736TIP3    H2 2215   0.938   3.576   2.013  0.1592  0.3294  0.3970
  737TIP3   OH2 2216   4.670   5.913   5.200  0.2124 -0.0463 -0.3445
  737TIP3    H1 2217   4.710   5.867   5.126  1.1309 -0.5237  0.4254
  737TIP3    H2 2218   4.709   6.000   5.198  3.2246 -1.1810  1.7557
  738TIP3   OH2 2219   2.317   0.832   1.899 -0.1611 -0.6493 -0.4381
  738TIP3    H1 2220   2.322   0.767   1.830 -0.3281 -1.1890  0.0512
  738TIP3    H2 2221   2.257   0.898   1.865  1.0398 -0.0557 -1.4866
  739TIP3   OH2 2222   3.710   5.020   3.864 -0.3475 -0.5614 -0.2442
  739TIP3    H1 2223   3.697   4.961   3.939  0.4183 -0.3811  0.0393
  739TIP3    H2 2224   3.720   5.107   3.903  3.0881 -0.8031 -0.2215
  740TIP3   OH2 2225   1.573   1.707   0.142  0.0066  0.1039 -0.4411
  740TIP3    H1 2226   1.615   1.766   0.205 -1.2737  1.2345 -0.5927
  740TIP3    H2 2227   1.480   1.714   0.161 -0.1823 -2.0757 -0.3338
  741TIP3   OH2 2228   3.661   4.170   4.139  0.2240  0.3146 -0.2319
  741TIP3    H1 2229   3.577   4.192   4.098  0.3139 -1.3005 -1.3503
  741TIP3    H2 2230   3.723   4.233   4.102 -0.5774  1.9938  1.1494
  742TIP3   OH2 2231   2.569   3.796   3.339 -0.2964  0.2929 -0.0717
  742TIP3    H1 2232   2.642   3.852   3.367  0.5455 -0.0508 -1.4722
  742TIP3    H2 2233   2.529   3.766   3.420  1.5114  0.0052  0.7510
  743TIP3   OH2 2234   1.613   4.359   0.560  0.0222 -0.6936 -0.3925
  743TIP3    H1 2235   1.702   4.330   0.576 -0.1028 -0.7078  0.2979
  743TIP3    H2 2236   1.592   4.416   0.635 -0.7063 -1.0575 -0.3102
  744TIP3   OH2 2237   0.725   1.317   3.943  0.2080 -0.2841  0.4368
  744TIP3    H1 2238   0.758   1.404   3.966 -0.5563  0.4159 -0.9592
  744TIP3    H2 2239   0.635   1.315   3.976  0.1911 -0.5007  0.3823
  745TIP3   OH2 2240   5.833   0.081   1.463 -0.0731  1.1136 -0.2539
  745TIP3    H1 2241   5.896   0.032   1.515 -1.3260  0.6759  0.8979
  745TIP3    H2 2242   5.782   0.014   1.418 -1.5280  1.3213  1.0071
  746TIP3   OH2 2243   2.455   2.956   2.911 -0.2106 -0.4055  0.4402
  746TIP3    H1 2244   2.490   2.868   2.899  0.0570 -0.2985  0.4333
  746TIP3    H2 2245   2.532   3.011   2.927 -0.4365 -0.3046  1.2286
  747TIP3   OH2 2246   3.586   2.017   2.189 -0.0203 -0.0115  0.2089
  747TIP3    H1 2247   3.548   2.031   2.103  0.4145 -1.0205 -0.1653
  747TIP3    H2 2248   3.597   1.922   2.195  0.2310  0.0722  1.2549
  748TIP3   OH2 2249   4.731   0.401   3.345  0.0330 -0.3355  0.3636
  748TIP3    H1 2250   4.796   0.438   3.404  0.6630  0.7194 -0.9342
  748TIP3    H2 2251   4.656   0.381   3.401  0.3713  1.1978  1.4243
  749TIP3   OH2 2252   3.256   3.498   1.105  0.6869  1.0086  0.2432
  749TIP3    H1 2253   3.330   3.453   1.064  0.2997  1.5550 -1.1181
  749TIP3    H2 2254   3.257   3.585   1.066 -0.8933  0.9039 -0.0742
  750TIP3   OH2 2255   5.287   0.095   2.004 -0.2084  0.5953  0.5951
  750TIP3    H1 2256   5.296   0.175   2.057  0.3606  0.8515  0.1194
  750TIP3    H2 2257   5.323   0.026   2.059 -0.7171  0.6506  1.0166
  751TIP3   OH2 2258   5.559   4.995   1.728 -0.6601  0.2124  0.1981
  751TIP3    H1 2259   5.495   5.017   1.661 -0.0427  0.9586 -0.1592
  751TIP3    H2 2260   5.608   4.921   1.692 -0.5599  0.3888 -0.0284
  752TIP3   OH2 2261   4.659   0.257   0.721  0.4412  0.4489 -0.7902
  752TIP3    H1 2262   4.631   0.268   0.630  0.5784  1.3158 -0.7359
  752TIP3    H2 2263   4.627   0.335   0.766  0.4420  0.0665 -0.1037
  753TIP3   OH2 2264   2.715   3.527   4.816  0.1056 -0.4953  0.4041
  753TIP3    H1 2265   2.725   3.455   4.754 -1.2251 -0.7657  0.4625
  753TIP3    H2 2266   2.648   3.496   4.877  0.8641  0.0596  1.5511
  754TIP3   OH2 2267   2.351   0.277   1.004  0.2920 -0.7641  0.6126
  754TIP3    H1 2268   2.439   0.245   1.025  0.2544 -0.9629  0.4734
  754TIP3    H2 2269   2.307   0.201   0.967 -0.0927 -0.7949  1.1193
  755TIP3   OH2 2270   3.202   4.463   2.401  0.2333 -0.4118  0.0907
  755TIP3    H1 2271   3.278   4.521   2.407 -1.8709  2.7816 -1.6083
  755TIP3    H2 2272   3.193   4.446   2.307 -2.5710  1.4983 -0.0867
  756TIP3   OH2 2273   1.767   1.852  -0.025  0.3072  0.3530 -0.1137
  756TIP3    H1 2274   1.751   1.942   0.003  2.3027  0.2808  1.4987
  756TIP3    H2 2275   1.707   1.799   0.026  2.0317  0.4739  2.1842
  757TIP3   OH2 2276   3.518   4.377   2.150 -0.6023 -0.3010  0.0875
  757TIP3    H1 2277   3.478   4.294   2.176 -0.1461 -0.4175  0.4243
  757TIP3    H2 2278   3.595   4.386   2.207 -0.8608  0.5334  0.3266
  758TIP3   OH2 2279   0.991   1.431   3.434  0.0387  0.0492  0.1761
  758TIP3    H1 2280   0.993   1.438   3.530 -0.7714  2.0849  0.1054
  758TIP3    H2 2281   0.971   1.520   3.404  0.0600 -0.5820 -1.8908
  759TIP3   OH2 2282   2.656   4.392   3.940 -0.2009 -0.2220 -0.2781
  759TIP3    H1 2283   2.691   4.335   4.009  2.2689  0.3865 -0.9176
  759TIP3    H2 2284   2.611   4.332   3.880 -1.8430 -0.8351  1.4529
  760TIP3   OH2 2285   6.139   1.731   2.946 -0.2337  0.1136  0.0556
  760TIP3    H1 2286   6.064   1.791   2.944 -0.8651 -0.6476  0.2337
  760TIP3    H2 2287   6.212   1.783   2.915 -1.1850  0.4064 -1.8219
  761TIP3   OH2 2288   2.527   2.794   2.374 -0.0731 -0.2197  0.3248
  761TIP3    H1 2289   2.504   2.755   2.458  1.0719 -0.9424  0.3201
  761TIP3    H2 2290   2.475   2.874   2.370 -1.3266 -0.9541  1.0131
  762TIP3   OH2 2291   0.575   2.001   0.048  0.4486  0.3225 -0.6182
  762TIP3    H1 2292   0.606   1.916   0.079 -0.6359  0.5512  1.2503
  762TIP3    H2 2293   0.630   2.065   0.095 -0.3174  0.6614 -0.1640
  763TIP3   OH2 2294   3.329   3.790   1.694 -0.2819 -0.6184 -0.2240
  763TIP3    H1 2295   3.274   3.816   1.620  0.9841 -1.1913 -1.4018
  763TIP3    H2 2296   3.354   3.873   1.735  2.7450  0.1674 -3.2357
  764TIP3   OH2 2297   1.450   1.975   3.317 -0.3783 -0.1995  0.3641
  764TIP3    H1 2298   1.543   1.950   3.311 -0.0966  0.1749  2.4044
  764TIP3    H2 2299   1.432   1.979   3.411 -2.5931 -0.6460  0.0166
  765TIP3   OH2 2300   1.534   4.891   2.959  0.8752  0.0735 -0.8758
  765TIP3    H1 2301   1.574   4.806   2.945  1.6767  0.4311 -0.7857
  765TIP3    H2 2302   1.543   4.908   3.053 -1.4084 -0.7787 -0.4258
  766TIP3   OH2 2303   6.289   2.490   1.003 -0.3043  0.1358  0.0196
  766TIP3    H1 2304   6.335   2.407   0.991  1.0968  1.0514 -1.3889
  766TIP3    H2 2305   6.306   2.514   1.095 -1.4703 -1.5076  0.7012
  767TIP3   OH2 2306   2.715   4.272   0.602 -0.4499  0.1023 -0.0559
  767TIP3    H1 2307   2.757   4.311   0.679  0.6653 -2.9917  1.0464
  767TIP3    H2 2308   2.774   4.294   0.529  1.4010 -1.3543  0.9228
  768TIP3   OH2 2309   3.493   3.494   3.245 -0.1702 -0.8009 -0.0809
  768TIP3    H1 2310   3.564   3.516   3.184 -0.5841  1.4465  0.1631
  768TIP3    H2 2311   3.416   3.484   3.189 -0.4557  0.8062 -0.0156
  769TIP3   OH2 2312   1.909   2.935   0.131 -0.4804 -0.1171  0.3326
  769TIP3    H1 2313   1.917   2.904   0.221  1.1701 -1.5455 -0.2247
  769TIP3    H2 2314   1.918   3.030   0.137  1.3118 -0.3082  1.5554
  770TIP3   OH2 2315   2.705   5.552   1.367 -0.0061  0.3758  0.2733
  770TIP3    H1 2316   2.784   5.603   1.348 -1.3525  2.0878 -1.0429
  770TIP3    H2 2317   2.711   5.533   1.461  2.1419  0.0930  0.1219
  771TIP3   OH2 2318   4.559   5.119   2.870  0.3206 -0.2918  0.2331
  771TIP3    H1 2319   4.623   5.068   2.820 -0.1582  0.7789 -1.5615
  771TIP3    H2 2320   4.474   5.085   2.841  0.0300 -0.6914  1.4968
  772TIP3   OH2 2321   5.553   3.773   0.334 -0.1921  0.3571 -0.1269
  772TIP3    H1 2322   5.625   3.779   0.396  0.5047 -0.5714 -0.8272
  772TIP3    H2 2323   5.586   3.816   0.255 -0.8453  0.9809 -0.0722
  773TIP3   OH2 2324   5.429   1.154   0.629 -0.1172  0.4441 -0.7725
  773TIP3    H1 2325   5.390   1.067   0.619 -0.0890  0.3174  0.1255
  773TIP3    H2 2326   5.519   1.137   0.656 -0.2559  0.7370 -0.0893
  774TIP3   OH2 2327   4.022   1.123   1.887  0.2767 -0.3037 -0.0514
  774TIP3    H1 2328   4.067   1.112   1.971 -3.5506 -1.1724  2.1253
  774TIP3    H2 2329   3.998   1.216   1.885  0.4300 -0.2683 -0.2124
  775TIP3   OH2 2330   3.957   2.174   1.406 -0.2633 -0.8031 -0.2974
  775TIP3    H1 2331   4.012   2.207   1.334 -2.2654  2.0834 -0.6691
  775TIP3    H2 2332   4.014   2.176   1.483  0.3744  1.5560 -0.7698
  776TIP3   OH2 2333   5.849   1.382   1.099  0.0549 -0.1252  0.7448
  776TIP3    H1 2334   5.827   1.462   1.052 -0.8694 -1.9894 -2.3279
  776TIP3    H2 2335   5.941   1.367   1.081  0.2292  0.2302  1.3244
  777TIP3   OH2 2336   0.460   1.237   2.345  0.0169  0.2792 -0.4056
  777TIP3    H1 2337   0.433   1.247   2.437  0.3756 -0.2750 -0.2347
  777TIP3    H2 2338   0.547   1.198   2.350 -0.0487  0.0548 -0.9832
  778TIP3   OH2 2339   2.481   5.796   4.834  0.4310 -0.2361  0.4421
  778TIP3    H1 2340   2.573   5.821   4.837  1.1800 -2.2807 -1.7100
  778TIP3    H2 2341   2.482   5.700   4.839 -1.6356 -0.2965  0.7932
  779TIP3   OH2 2342   0.285   0.875   0.798 -0.3871 -0.0076 -0.5676
  779TIP3    H1 2343   0.212   0.909   0.849  1.2172  2.0578  0.5090
  779TIP3    H2 2344   0.312   0.949   0.743  0.7735 -0.7683 -1.0613
  780TIP3   OH2 2345   5.410   0.044   0.600  0.5249  0.3126 -0.6844
  780TIP3    H1 2346   5.469   0.019   0.670 -0.0347  2.8376  0.8064
  780TIP3    H2 2347   5.467   0.065   0.526  1.4671  1.7910  0.4257
  781TIP3   OH2 2348   2.682   4.655   4.688  0.5295  0.0973  0.9946
  781TIP3    H1 2349   2.657   4.563   4.698  1.2283  0.0731  2.7520
  781TIP3    H2 2350   2.624   4.687   4.619 -1.5607 -1.0023  2.1345
  782TIP3   OH2 2351   4.768   5.750   0.070 -0.0196  0.4844 -0.5558
  782TIP3    H1 2352   4.769   5.722   0.161 -1.0096 -1.1913 -1.0080
  782TIP3    H2 2353   4.859   5.767   0.048  0.4390 -0.7479  0.2921
  783TIP3   OH2 2354   1.475   3.655   1.910  0.1396  0.3327 -0.1284
  783TIP3    H1 2355   1.400   3.642   1.968  0.1251  2.8861  0.5483
  783TIP3    H2 2356   1.439   3.698   1.833  0.5907 -0.5444 -0.8501
  784TIP3   OH2 2357   1.891   0.567   0.835 -0.2461 -0.1521 -0.5273
  784TIP3    H1 2358   1.875   0.498   0.899  1.4853 -1.0543 -1.0257
  784TIP3    H2 2359   1.817   0.560   0.774 -0.0854 -1.5679 -0.5775
  785TIP3   OH2 2360   1.264   0.587   2.600 -0.8145 -0.4115 -0.3228
  785TIP3    H1 2361   1.193   0.622   2.547 -2.0313 -0.0978  1.4230
  785TIP3    H2 2362   1.302   0.663   2.643 -0.1458 -0.7065 -0.3807
  786TIP3   OH2 2363   1.131   4.528   2.547  0.0575 -0.0623 -0.3318
  786TIP3    H1 2364   1.088   4.448   2.577  0.0543  0.1544  0.2588
  786TIP3    H2 2365   1.221   4.519   2.576 -0.3035  0.8763  1.2613
  787TIP3   OH2 2366   0.312   4.431   4.445  0.4253 -0.5643  0.2147
  787TIP3    H1 2367   0.300   4.434   4.350  0.6215  0.9552  0.2177
  787TIP3    H2 2368   0.236   4.476   4.481  1.1025  0.2375  0.6886
  788TIP3   OH2 2369   5.182   4.611   3.801 -0.3560 -0.1828 -0.6308
  788TIP3    H1 2370   5.138   4.628   3.718  0.2684 -1.1221 -1.1653
  788TIP3    H2 2371   5.207   4.698   3.833  1.0893  0.0891 -2.3780
  789TIP3   OH2 2372   5.815   2.617   2.061 -0.3216  0.6062 -0.2619
  789TIP3    H1 2373   5.816   2.537   2.115 -2.4892  0.9661  0.3961
  789TIP3    H2 2374   5.870   2.595   1.986  1.2165 -0.5899  1.1266
  790TIP3   OH2 2375   2.705   2.166   1.337 -0.1930  1.1241 -0.5745
  790TIP3    H1 2376   2.768   2.119   1.282 -0.6525  1.8771 -1.7921
  790TIP3    H2 2377   2.745   2.168   1.424  0.8813  0.5126 -1.0386
  791TIP3   OH2 2378   5.879   2.403   3.328  0.1289 -0.3421  0.2059
  791TIP3    H1 2379   5.817   2.398   3.256 -1.2585  0.0671  1.3298
  791TIP3    H2 2380   5.851   2.480   3.379  0.9308 -0.7405  1.2914
  792TIP3   OH2 2381   3.369   2.296   3.947 -0.1110  0.3604 -0.4829
  792TIP3    H1 2382   3.379   2.377   3.997  1.8952 -0.0690 -0.0956
  792TIP3    H2 2383   3.358   2.325   3.856 -1.3904  1.0759 -0.1296
  793TIP3   OH2 2384   4.382   4.436   5.077  0.4769 -0.1011 -0.7572
  793TIP3    H1 2385   4.426   4.521   5.076  0.4686 -0.0623  0.5241
  793TIP3    H2 2386   4.412   4.394   5.157 -0.8287 -0.6070 -0.5097
  794TIP3   OH2 2387   3.754   4.847   1.994  0.0770  0.7404 -0.1985
  794TIP3    H1 2388   3.829   4.814   2.044 -0.5554 -0.6636 -0.1304
  794TIP3    H2 2389   3.727   4.773   1.941 -1.2752  1.2325 -0.2232
  795TIP3   OH2 2390   3.888   3.252   2.135 -0.0421 -0.1831  0.0791
  795TIP3    H1 2391   3.823   3.189   2.105  0.2538 -0.6232  0.3394
  795TIP3    H2 2392   3.923   3.213   2.215  0.1585  0.3070  0.2313
  796TIP3   OH2 2393   0.415   1.045   3.578 -0.1834 -0.0764 -0.3743
  796TIP3    H1 2394   0.383   1.013   3.662  0.6095  0.2872  0.0773
  796TIP3    H2 2395   0.426   1.139   3.591 -0.1902  0.0026 -0.9253
  797TIP3   OH2 2396   5.987   4.028   2.791  0.2718 -0.6013  0.3172
  797TIP3    H1 2397   6.071   3.991   2.817  0.4225  0.1023  0.8847
  797TIP3    H2 2398   5.996   4.122   2.808 -0.7755 -0.5728  0.8113
  798TIP3   OH2 2399   1.843   4.471   3.342 -0.2645 -0.5620 -0.5077
  798TIP3    H1 2400   1.755   4.478   3.304 -0.1752 -0.6678 -0.7396
  798TIP3    H2 2401   1.845   4.538   3.410  0.1442  0.8350 -1.8276
  799TIP3   OH2 2402   0.029   4.761   1.174 -0.6197 -0.3481 -0.1986
  799TIP3    H1 2403   0.075   4.694   1.122  0.6517 -1.2502  1.9585
  799TIP3    H2 2404   0.085   4.838   1.168 -0.6672 -0.3284 -0.4272
  800TIP3   OH2 2405   6.052   2.090   0.335  0.0064  0.2438  0.6023
  800TIP3    H1 2406   6.073   2.017   0.393 -1.2351  0.0025  0.7886
  800TIP3    H2 2407   5.988   2.142   0.385 -0.9016  0.1585 -0.4541
  801TIP3   OH2 2408   5.564   3.588   1.530 -0.1811 -0.3018  0.7719
  801TIP3    H1 2409   5.604   3.595   1.443  0.8299 -0.2943  1.2129
  801TIP3    H2 2410   5.489   3.531   1.518  0.4410 -0.9987  0.0474
  802TIP3   OH2 2411   2.069   5.726   3.426  0.3019 -0.1099 -0.7876
  802TIP3    H1 2412   2.159   5.749   3.405  0.7387 -1.4542 -0.4433
  802TIP3    H2 2413   2.046   5.783   3.500  0.5618  0.8335 -1.4189
  803TIP3   OH2 2414   6.039   1.586   2.043 -0.2388 -0.7614 -0.2717
  803TIP3    H1 2415   6.109   1.538   2.087  0.8521  1.4474  0.5757
  803TIP3    H2 2416   6.050   1.564   1.951  1.3857 -0.7471 -0.1200
  804TIP3   OH2 2417   3.437   3.463   0.115 -0.1575  0.2555 -0.1838
  804TIP3    H1 2418   3.452   3.432   0.204  0.5680 -1.1585 -0.7739
  804TIP3    H2 2419   3.524   3.484   0.082 -0.4973  1.5499 -0.3173
  805TIP3   OH2 2420   5.989   5.558   3.751  0.6944 -0.1293 -0.2938
  805TIP3    H1 2421   6.023   5.624   3.690  3.1693  1.1051  2.1918
  805TIP3    H2 2422   5.938   5.607   3.814 -1.9000 -1.4073 -1.2609
  806TIP3   OH2 2423   5.172   2.547   2.851 -0.0662  0.1446 -0.0965
  806TIP3    H1 2424   5.147   2.537   2.759  4.3404 -1.3043 -1.3835
  806TIP3    H2 2425   5.134   2.471   2.895 -0.4832 -0.2745 -1.1522
  807TIP3   OH2 2426   1.032   3.542   2.283 -0.2140  0.2537  0.1952
  807TIP3    H1 2427   1.019   3.573   2.193  0.0970 -1.5116 -0.5077
  807TIP3    H2 2428   0.948   3.556   2.326 -0.4955  0.7392 -0.4985
  808TIP3   OH2 2429   0.892   5.403   1.532  0.2148  0.0361 -0.0433
  808TIP3    H1 2430   0.862   5.454   1.457  1.9869  0.7868 -0.2847
  808TIP3    H2 2431   0.987   5.417   1.535  0.4058 -1.2585  1.3866
  809TIP3   OH2 2432   6.321   3.030   0.014 -0.5986  0.0912  0.5778
  809TIP3    H1 2433   6.229   3.045  -0.006 -0.1874 -0.3729 -2.0532
  809TIP3    H2 2434   6.330   2.935   0.018  0.1725  0.0091 -1.7825
  810TIP3   OH2 2435   4.508   5.854   3.939 -0.0231  0.2333  0.6953
  810TIP3    H1 2436   4.489   5.942   3.908 -0.0254  0.3653  1.0670
  810TIP3    H2 2437   4.541   5.866   4.028  0.7781 -0.0746  0.4540
  811TIP3   OH2 2438   2.054   1.498   1.663 -0.1212  0.5262 -0.3438
  811TIP3    H1 2439   2.073   1.580   1.617  0.6533  1.2236  1.1699
  811TIP3    H2 2440   2.119   1.436   1.630  0.3434  0.9816 -0.2952
  812TIP3   OH2 2441   4.835   1.341   3.435 -0.0337 -0.3787 -0.3523
  812TIP3    H1 2442   4.847   1.413   3.374  0.5903  1.6119  1.9309
  812TIP3    H2 2443   4.745   1.351   3.467  0.7350  0.9153  1.6310
  813TIP3   OH2 2444   4.458   2.143   2.040  0.0048 -0.0094 -0.0821
  813TIP3    H1 2445   4.520   2.072   2.029 -0.0310  0.1478 -1.5902
  813TIP3    H2 2446   4.374   2.106   2.012 -0.7102 -0.3344  2.2898
  814TIP3   OH2 2447   5.122   5.278   2.401 -0.1428  0.2122  0.3033
  814TIP3    H1 2448   5.154   5.361   2.366  0.2966 -0.0440  0.0926
  814TIP3    H2 2449   5.103   5.296   2.493  0.3019  0.4459  0.3483
  815TIP3   OH2 2450   2.470   1.426   2.442  0.0830 -0.2850 -0.1192
  815TIP3    H1 2451   2.555   1.466   2.428  0.2697  0.0922  1.8240
  815TIP3    H2 2452   2.489   1.332   2.451  0.1190 -0.3597 -0.9085
  816TIP3   OH2 2453   3.026   3.129   1.214 -0.6044 -0.2350  0.0422
  816TIP3    H1 2454   2.952   3.078   1.247 -0.2370 -1.5378 -1.0772
  816TIP3    H2 2455   3.072   3.159   1.293 -0.8466 -1.6386  0.7395
  817TIP3   OH2 2456   2.694   2.819   4.834  0.5335  0.1358 -0.1069
  817TIP3    H1 2457   2.618   2.774   4.872  1.4345 -2.4520 -1.0936
  817TIP3    H2 2458   2.656   2.889   4.781 -1.0608 -0.0435  0.7283
  818TIP3   OH2 2459   0.835   0.207   0.359  0.2443  0.5609 -0.5001
  818TIP3    H1 2460   0.832   0.296   0.324 -0.7454  0.8287  0.2445
  818TIP3    H2 2461   0.773   0.207   0.431  1.0460 -0.4364  0.2154
  819TIP3   OH2 2462   1.169   2.154   3.932 -0.6348  0.4126  0.1820
  819TIP3    H1 2463   1.234   2.214   3.895  1.0584 -2.3565 -1.6482
  819TIP3    H2 2464   1.182   2.161   4.026  2.2077  0.1795 -0.0982
  820TIP3   OH2 2465   4.566   3.377   3.424 -0.0177  0.3254  0.4086
  820TIP3    H1 2466   4.492   3.319   3.441  1.1587 -1.1303  0.7147
  820TIP3    H2 2467   4.587   3.413   3.511  0.8957 -0.8329  0.6770
  821TIP3   OH2 2468   4.643   4.531   1.312  0.4828  0.5785 -0.0042
  821TIP3    H1 2469   4.705   4.506   1.243  0.2250  0.6420 -0.2613
  821TIP3    H2 2470   4.610   4.617   1.285 -0.9943 -0.1795 -0.7815
  822TIP3   OH2 2471   5.828   0.204   1.744 -0.0184 -0.4943 -0.4237
  822TIP3    H1 2472   5.759   0.257   1.784 -0.5748 -1.4021 -0.1326
  822TIP3    H2 2473   5.801   0.196   1.652 -1.1028 -2.0192 -0.0191
  823TIP3   OH2 2474   3.769   4.187   1.191 -0.1282  0.3993 -0.0287
  823TIP3    H1 2475   3.793   4.102   1.155  0.1116  0.4471  0.0177
  823TIP3    H2 2476   3.826   4.198   1.267 -3.3646 -1.5622  2.9732
  824TIP3   OH2 2477   2.047   3.077   1.407  0.7998 -0.3798 -0.1276
  824TIP3    H1 2478   2.085   3.005   1.457 -1.3635 -0.9524  0.8397
  824TIP3    H2 2479   2.004   3.131   1.473  1.2618  1.0922 -0.9886
  825TIP3   OH2 2480   6.278   1.693   1.913 -0.1922 -0.0188  0.0950
  825TIP3    H1 2481   6.370   1.709   1.896  0.1777  0.5650  2.3196
  825TIP3    H2 2482   6.239   1.780   1.922 -0.5293 -0.2474  1.0402
  826TIP3   OH2 2483   1.751   2.741   4.079 -0.1532  0.1181  0.0806
  826TIP3    H1 2484   1.697   2.784   4.012 -0.2606  0.1879  0.2125
  826TIP3    H2 2485   1.815   2.807   4.105 -0.8875  0.5120  0.9448
  827TIP3   OH2 2486   5.881   2.661  -0.027 -0.1692 -0.2191  0.1384
  827TIP3    H1 2487   5.905   2.612   0.052 -0.0170 -2.4665 -1.2187
  827TIP3    H2 2488   5.832   2.737   0.006  0.9546 -0.3913  2.4335
  828TIP3   OH2 2489   3.228   4.878   3.778 -0.0398  0.3712 -0.3476
  828TIP3    H1 2490   3.242   4.824   3.701 -0.7716  2.0413 -1.7285
  828TIP3    H2 2491   3.314   4.914   3.799  0.0787  0.2866 -0.6850
  829TIP3   OH2 2492   1.609   4.745   4.907 -0.4490  0.1083 -0.3380
  829TIP3    H1 2493   1.675   4.683   4.876 -0.7824 -1.2578  1.5062
  829TIP3    H2 2494   1.528   4.695   4.908 -1.1245  1.1721 -0.6438
  830TIP3   OH2 2495   4.429   1.874   2.576 -0.5566  0.5746  0.2956
  830TIP3    H1 2496   4.412   1.790   2.616 -0.0537  0.6273  0.6338
  830TIP3    H2 2497   4.369   1.935   2.619  1.0094  0.9385  2.1224
  831TIP3   OH2 2498   5.643   3.637   2.956 -0.4752 -0.4488 -0.4380
  831TIP3    H1 2499   5.607   3.577   3.021 -1.2647  2.1189  1.6258
  831TIP3    H2 2500   5.704   3.583   2.905  0.0909 -2.6063  2.3223
  832TIP3   OH2 2501   3.432   5.286   1.864  0.5725  0.3929  0.0014
  832TIP3    H1 2502   3.461   5.198   1.888  0.6906 -0.1527 -2.0069
  832TIP3    H2 2503   3.344   5.293   1.901  0.8202 -0.2990  0.7572
  833TIP3   OH2 2504   2.024   5.342   1.127 -0.2640  0.1740 -0.1393
  833TIP3    H1 2505   1.998   5.256   1.093 -0.5109  0.0066  0.4514
  833TIP3    H2 2506   2.119   5.334   1.140 -0.4692 -0.4912  1.1819
  834TIP3   OH2 2507   5.489   1.930   3.701  0.8324  0.3429  0.2829
  834TIP3    H1 2508   5.575   1.911   3.740  0.2175  0.1131  1.5704
  834TIP3    H2 2509   5.435   1.854   3.724  0.3012  0.4384 -0.5996
  835TIP3   OH2 2510   0.194   5.943   4.565 -0.3836  0.1840 -0.5751
  835TIP3    H1 2511   0.255   5.949   4.491 -0.0451  2.2377 -0.1845
  835TIP3    H2 2512   0.170   6.034   4.584 -0.8479 -0.3307  1.5376
  836TIP3   OH2 2513   2.037   5.838   1.358 -0.2295  0.2619 -0.8310
  836TIP3    H1 2514   2.008   5.884   1.437  0.2723  0.3231 -0.6823
  836TIP3    H2 2515   1.968   5.855   1.294 -1.1230 -0.5797 -0.1208
  837TIP3   OH2 2516   1.128   2.397   0.452 -0.2023  0.4064  0.2998
  837TIP3    H1 2517   1.087   2.369   0.534  2.3266 -1.0475  1.1842
  837TIP3    H2 2518   1.210   2.347   0.448  0.4289  1.4945 -2.4278
  838TIP3   OH2 2519   5.243   1.385   3.178 -0.4512 -0.6783 -0.0398
  838TIP3    H1 2520   5.333   1.375   3.207 -0.2197 -1.4949 -0.9923
  838TIP3    H2 2521   5.224   1.304   3.129 -1.4732 -0.2248 -0.4272
  839TIP3   OH2 2522   2.892   1.217   2.242 -0.3083  0.1908 -0.3311
  839TIP3    H1 2523   2.974   1.265   2.254 -0.9425  1.2160  0.0490
  839TIP3    H2 2524   2.827   1.285   2.223 -1.2848 -0.4853  0.4681
  840TIP3   OH2 2525   4.477   5.587   3.893 -0.2386  0.0470  0.3164
  840TIP3    H1 2526   4.568   5.558   3.880 -0.6015 -1.2682  0.6382
  840TIP3    H2 2527   4.486   5.680   3.917  1.2497 -0.6752  3.0847
  841TIP3   OH2 2528   6.350   1.621   1.525 -0.4354 -0.1803  0.0607
  841TIP3    H1 2529   6.365   1.527   1.510  0.0441  0.0706 -1.1606
  841TIP3    H2 2530   6.256   1.626   1.546 -0.3243 -0.9982  0.8455
  842TIP3   OH2 2531   0.660   4.872   2.018 -0.1642 -0.0812  0.4091
  842TIP3    H1 2532   0.670   4.778   2.026  0.6343  0.0369  0.8768
  842TIP3    H2 2533   0.749   4.906   2.010 -0.4086  0.6862  0.8145
  843TIP3   OH2 2534   3.694   5.672   3.185 -0.2948 -0.3263  0.3366
  843TIP3    H1 2535   3.726   5.671   3.095  2.6923 -1.4474  1.3098
  843TIP3    H2 2536   3.685   5.765   3.206  0.1518 -0.0269 -0.7244
  844TIP3   OH2 2537   0.513   0.032   0.297 -0.0707  0.2451  0.1594
  844TIP3    H1 2538   0.568  -0.005   0.228 -0.6923  0.9664 -0.7451
  844TIP3    H2 2539   0.521   0.127   0.286 -1.5757  0.3667 -0.0782
  845TIP3   OH2 2540   5.480   4.074   4.670  0.2754  0.0812 -0.3742
  845TIP3    H1 2541   5.546   4.005   4.671  1.0923  0.8378 -0.3333
  845TIP3    H2 2542   5.423   4.055   4.744  1.4451  0.3408  0.6216
  846TIP3   OH2 2543   1.898   1.526   0.572  0.4690  0.2226 -0.1508
  846TIP3    H1 2544   1.821   1.500   0.521 -1.4480  0.5311  2.3729
  846TIP3    H2 2545   1.887   1.483   0.656  2.6442  0.9885  0.5972
  847TIP3   OH2 2546   2.126   5.213   3.315  0.5287  0.0232 -0.3247
  847TIP3    H1 2547   2.079   5.273   3.373  0.6354  1.3864 -1.5954
  847TIP3    H2 2548   2.057   5.171   3.265  0.4420 -1.0976  0.6891
  848TIP3   OH2 2549   3.154   2.831   0.151  0.0057 -0.2920  0.1903
  848TIP3    H1 2550   3.096   2.769   0.107 -0.2673  1.1339 -1.5939
  848TIP3    H2 2551   3.095   2.892   0.195  0.0663  1.1412 -1.5999
  849TIP3   OH2 2552   2.527   4.980   2.722 -0.1581 -0.3213  0.2583
  849TIP3    H1 2553   2.568   4.949   2.641  1.2370  2.5159 -0.2302
  849TIP3    H2 2554   2.438   5.002   2.697 -0.2480 -1.0443 -0.0835
  850TIP3   OH2 2555   2.840   0.491   1.137  0.0783  0.2141 -0.0686
  850TIP3    H1 2556   2.907   0.428   1.164 -0.4374 -0.3697 -0.1367
  850TIP3    H2 2557   2.850   0.564   1.198  2.3566  1.2246 -1.5110
  851TIP3   OH2 2558   0.806   5.874   1.927 -0.2357 -0.1561  0.1972
  851TIP3    H1 2559   0.874   5.882   1.994 -0.2824  1.5438  0.0805
  851TIP3    H2 2560   0.827   5.793   1.881  0.8414 -0.4191  1.1076
  852TIP3   OH2 2561   3.917   4.204   3.326  0.0354  0.8920  0.1623
  852TIP3    H1 2562   3.947   4.164   3.408  0.0694 -0.9332 -0.6881
  852TIP3    H2 2563   3.998   4.215   3.275 -0.2813 -0.9619 -0.8344
  853TIP3   OH2 2564   5.013   2.830   1.681 -0.0756 -0.3035 -0.4721
  853TIP3    H1 2565   5.082   2.793   1.737 -1.0316 -1.3867  0.0267
  853TIP3    H2 2566   5.029   2.793   1.595  0.6022  0.3140 -0.6248
  854TIP3   OH2 2567   3.739   0.293   0.564  0.4009 -0.1459  0.0794
  854TIP3    H1 2568   3.673   0.284   0.633 -0.4363  1.1188 -0.5181
  854TIP3    H2 2569   3.745   0.206   0.525 -0.2667 -0.4918  0.7209
  855TIP3   OH2 2570   1.670   0.101   1.120 -0.2498 -0.2930 -0.1402
  855TIP3    H1 2571   1.629   0.104   1.034 -0.6993 -0.4374  0.0662
  855TIP3    H2 2572   1.761   0.077   1.103 -0.5833 -1.3487 -0.4883
  856TIP3   OH2 2573   6.321   0.185   0.717 -0.3466  0.5464  0.3466
  856TIP3    H1 2574   6.272   0.253   0.764 -1.3749 -1.2802  2.0438
  856TIP3    H2 2575   6.347   0.123   0.785 -0.6783 -1.5008 -1.3098
  857TIP3   OH2 2576   1.469   5.447   3.858  0.0370 -0.1406 -0.1753
  857TIP3    H1 2577   1.420   5.508   3.802  0.5972  1.1294  0.6742
  857TIP3    H2 2578   1.443   5.361   3.827 -1.8531  0.5014 -0.5160
  858TIP3   OH2 2579   5.998   5.492   1.747  0.1560 -0.5830  0.1796
  858TIP3    H1 2580   6.089   5.482   1.719 -0.2481 -0.8799 -1.1508
  858TIP3    H2 2581   5.987   5.586   1.761  0.2999 -0.3569 -1.0808
  859TIP3   OH2 2582   3.088   2.875   4.630  0.4952 -0.1957 -0.0563
  859TIP3    H1 2583   3.097   2.785   4.598 -0.1888 -0.1960 -0.2607
  859TIP3    H2 2584   3.135   2.928   4.566 -0.5111 -0.2410 -0.8608
  860TIP3   OH2 2585   0.157   3.181   1.632 -0.1285  0.3407  0.4706
  860TIP3    H1 2586   0.162   3.131   1.714  0.7942  1.9943  1.4933
  860TIP3    H2 2587   0.083   3.142   1.585 -1.3309 -0.0505  2.5270
  861TIP3   OH2 2588   5.076   1.130   4.315  0.2148 -0.3482  0.3272
  861TIP3    H1 2589   5.083   1.054   4.257  0.2379  0.4801 -0.7929
  861TIP3    H2 2590   4.993   1.119   4.360 -0.9936  0.1803 -1.6676
  862TIP3   OH2 2591   0.920   4.639   1.327 -0.5267  0.4581 -0.2881
  862TIP3    H1 2592   0.866   4.703   1.374 -0.0876  0.1281  0.6795
  862TIP3    H2 2593   1.010   4.668   1.342 -0.0709 -2.0233  2.7828
  863TIP3   OH2 2594   5.820   1.658   3.107 -0.0940  0.0730  0.0322
  863TIP3    H1 2595   5.743   1.615   3.070  0.3049 -0.9168  0.3396
  863TIP3    H2 2596   5.830   1.737   3.053  0.4135 -1.2706 -1.9439
  864TIP3   OH2 2597   0.853   5.279   2.797 -0.5319 -1.0623 -0.0419
  864TIP3    H1 2598   0.928   5.222   2.816 -0.8411 -1.1722  0.9150
  864TIP3    H2 2599   0.810   5.238   2.722 -0.0804 -1.4421 -0.0967
  865TIP3   OH2 2600   3.168   3.585   1.771  0.6830 -0.2503  0.2060
  865TIP3    H1 2601   3.253   3.543   1.754  0.4820 -1.5059  2.0561
  865TIP3    H2 2602   3.188   3.678   1.773  2.1935 -0.5591  1.3362
  866TIP3   OH2 2603   0.459   0.322   3.316  0.1129 -0.2784  0.9940
  866TIP3    H1 2604   0.432   0.408   3.283  2.2433  1.0693  2.5768
  866TIP3    H2 2605   0.458   0.266   3.238  1.0343  1.7723 -0.5821
  867TIP3   OH2 2606   1.696   0.141   3.665 -0.5675 -0.6745 -0.1810
  867TIP3    H1 2607   1.665   0.104   3.582 -2.1414 -0.1513  0.1326
  867TIP3    H2 2608   1.617   0.179   3.705  0.0225 -1.4678  1.8486
  868TIP3   OH2 2609   1.281   4.443   3.264  0.6981  0.1625  0.1133
  868TIP3    H1 2610   1.313   4.420   3.351 -2.2173 -1.4791  0.9077
  868TIP3    H2 2611   1.277   4.360   3.217 -1.2372  0.4013 -0.2504
  869TIP3   OH2 2612   1.482   3.649   1.609  0.1540  0.8315 -0.8403
  869TIP3    H1 2613   1.539   3.671   1.536 -0.3033  3.4555 -0.4797
  869TIP3    H2 2614   1.396   3.682   1.583  0.7307  5.9692  2.4094
  870TIP3   OH2 2615   1.503   1.091   4.447 -0.0505  0.1138 -0.2798
  870TIP3    H1 2616   1.503   1.028   4.375  1.6922 -0.4727  0.2019
  870TIP3    H2 2617   1.466   1.171   4.409  1.0838 -0.0911 -1.9056
  871TIP3   OH2 2618   0.753   1.024   3.646 -0.2308 -0.0946 -0.3967
  871TIP3    H1 2619   0.702   0.970   3.586  0.6013  0.1045 -1.3238
  871TIP3    H2 2620   0.717   1.006   3.732  0.8086 -3.0947 -0.4807
  872TIP3   OH2 2621   3.292   1.796   1.834 -0.5673 -0.3147 -0.0676
  872TIP3    H1 2622   3.355   1.790   1.763 -0.5571 -0.1824 -0.0700
  872TIP3    H2 2623   3.256   1.708   1.842 -2.0775  0.1067 -1.6139
  873TIP3   OH2 2624   4.149   1.730   1.842 -0.2069 -0.0168  0.9976
  873TIP3    H1 2625   4.156   1.779   1.760  0.1935 -0.5343  0.7175
  873TIP3    H2 2626   4.184   1.789   1.909  2.1197 -0.6244  0.3899
  874TIP3   OH2 2627   3.182   2.395   0.880  0.1036 -0.0168  0.4305
  874TIP3    H1 2628   3.162   2.489   0.886  0.2177  0.0876 -0.6025
  874TIP3    H2 2629   3.229   2.386   0.797 -0.9951 -1.1622 -0.1081
  875TIP3   OH2 2630   2.399   3.978   1.048  0.2158  1.0949 -0.1129
  875TIP3    H1 2631   2.347   3.930   0.983  0.4268 -0.6030  0.9137
  875TIP3    H2 2632   2.482   3.997   1.003 -0.7193  2.5877 -1.2922
  876TIP3   OH2 2633   4.725   3.538   4.355  0.2258 -0.0129  0.0668
  876TIP3    H1 2634   4.820   3.528   4.352  0.3100  0.8254 -1.2073
  876TIP3    H2 2635   4.711   3.630   4.375 -0.3114 -0.0442 -0.1386
  877TIP3   OH2 2636   2.815   0.061   0.211 -0.0841  0.2124 -0.1242
  877TIP3    H1 2637   2.867  -0.004   0.259 -0.0709  0.5487  0.3149
  877TIP3    H2 2638   2.852   0.145   0.236 -2.3392  0.6663  2.1098
  878TIP3   OH2 2639   4.969   3.012   3.902 -0.0172 -0.4346  0.3467
  878TIP3    H1 2640   4.937   3.042   3.818  0.9054 -1.4824 -0.4042
  878TIP3    H2 2641   5.056   3.052   3.909 -0.3029  0.0909  1.0692
  879TIP3   OH2 2642   3.703   5.967   3.288  0.0109 -0.0742 -0.2844
  879TIP3    H1 2643   3.718   6.036   3.354  0.3605 -1.0019  0.6291
  879TIP3    H2 2644   3.781   5.912   3.293  1.7190  1.6288 -3.8562
  880TIP3   OH2 2645   3.077   1.082   4.773 -0.2193 -0.2003  0.0778
  880TIP3    H1 2646   3.121   1.067   4.689 -1.7216 -0.8950 -0.6294
  880TIP3    H2 2647   3.053   1.174   4.770 -0.4060 -0.2581 -0.3307
  881TIP3   OH2 2648   1.880   0.923   1.635 -0.2114  0.1368 -0.3376
  881TIP3    H1 2649   1.788   0.907   1.652 -0.2025  1.5331  1.2487
  881TIP3    H2 2650   1.888   0.918   1.540 -1.8663 -0.1847 -0.4883
  882TIP3   OH2 2651   0.439   0.524   1.267  0.6736 -0.4840  0.6863
  882TIP3    H1 2652   0.402   0.563   1.346 -1.3131  1.7396 -1.2049
  882TIP3    H2 2653   0.467   0.598   1.214 -1.2813 -1.6240 -2.1714
  883TIP3   OH2 2654   0.615   2.897   1.452  0.3113  0.6454  0.6021
  883TIP3    H1 2655   0.694   2.882   1.504  0.9668  0.2462 -0.4567
  883TIP3    H2 2656   0.631   2.981   1.409  0.7439  0.0018 -0.5643
  884TIP3   OH2 2657   2.989   0.376   1.907  0.2142  0.2008  0.1261
  884TIP3    H1 2658   3.068   0.348   1.952  0.2741 -0.3777 -0.3391
  884TIP3    H2 2659   2.961   0.300   1.856 -1.9972 -0.4596  2.1430
  885TIP3   OH2 2660   4.795   0.921   4.136  0.2706  0.6174 -0.5234
  885TIP3    H1 2661   4.798   1.016   4.134  0.9627  0.5855 -1.4631
  885TIP3    H2 2662   4.703   0.900   4.120  0.2044  1.1209 -0.8150
  886TIP3   OH2 2663   2.797   3.380   1.970  0.2061  0.6096 -0.3180
  886TIP3    H1 2664   2.833   3.440   1.905  1.8666  0.1399  0.0999
  886TIP3    H2 2665   2.867   3.315   1.983 -1.1252 -0.8196 -0.0097
  887TIP3   OH2 2666   1.132   1.827   0.509 -0.2202 -0.3611  0.7374
  887TIP3    H1 2667   1.114   1.766   0.438  0.4085 -0.9794  1.1010
  887TIP3    H2 2668   1.186   1.896   0.469 -0.7496 -0.1522  0.3776
  888TIP3   OH2 2669   4.139   1.476   1.938  0.1827  0.0450 -0.5703
  888TIP3    H1 2670   4.046   1.456   1.934  0.2009 -0.2807  0.5428
  888TIP3    H2 2671   4.143   1.571   1.921 -0.5389  0.4562  1.3480
  889TIP3   OH2 2672   5.057   4.063   4.023  0.3199 -0.1016 -0.0420
  889TIP3    H1 2673   4.964   4.084   4.030  0.3831  1.0384 -1.8777
  889TIP3    H2 2674   5.076   4.011   4.101 -1.6685  0.2770  0.7549
  890TIP3   OH2 2675   5.720   1.854   3.898  0.1000  0.1212 -0.4590
  890TIP3    H1 2676   5.793   1.799   3.868  0.4232 -0.5233  1.4099
  890TIP3    H2 2677   5.663   1.795   3.947  0.1014  1.2978  1.0256
  891TIP3   OH2 2678   2.028   4.570   1.193 -0.4177 -0.0574 -0.1856
  891TIP3    H1 2679   2.041   4.640   1.257  0.2434  0.4295 -0.8473
  891TIP3    H2 2680   1.933   4.564   1.184 -0.6417 -1.2742  2.0638
  892TIP3   OH2 2681   4.191   4.149   1.438 -0.3635 -0.0446  0.0887
  892TIP3    H1 2682   4.207   4.123   1.348 -0.0438 -1.6266  0.5819
  892TIP3    H2 2683   4.250   4.223   1.452 -1.1922  0.9359 -1.2947
  893TIP3   OH2 2684   1.785   5.367   3.302  0.0483  0.4562 -0.6639
  893TIP3    H1 2685   1.858   5.392   3.358  0.0415  1.8931 -1.2601
  893TIP3    H2 2686   1.774   5.273   3.317  0.9788  0.5361  0.6308
  894TIP3   OH2 2687   2.343   1.663   4.297  0.5982 -0.6085  0.1461
  894TIP3    H1 2688   2.321   1.659   4.390  1.5933 -1.1250  0.3718
  894TIP3    H2 2689   2.276   1.609   4.254 -0.4526  0.4365  0.4281
  895TIP3   OH2 2690   2.361   5.355   1.824  0.0152  0.1281  0.0194
  895TIP3    H1 2691   2.319   5.401   1.751  0.4658  0.0912 -0.2601
  895TIP3    H2 2692   2.301   5.283   1.844  0.1314 -0.1578 -0.6374
  896TIP3   OH2 2693   1.966   4.498   3.105 -0.7079  0.1430 -0.0975
  896TIP3    H1 2694   1.917   4.570   3.065  0.2476  1.5879  1.2006
  896TIP3    H2 2695   1.934   4.494   3.195  0.9339  0.6196  0.5588
  897TIP3   OH2 2696   2.536   5.241   0.380  0.1408  0.6409 -0.1135
  897TIP3    H1 2697   2.607   5.267   0.438  0.1557 -1.3282  0.8226
  897TIP3    H2 2698   2.471   5.311   0.388  0.4469  0.7571  1.7355
  898TIP3   OH2 2699   3.163   5.777   1.281 -0.1111 -0.6212  0.6898
  898TIP3    H1 2700   3.138   5.769   1.373  1.1127  1.0152  1.2111
  898TIP3    H2 2701   3.171   5.871   1.266 -2.9807 -0.6348 -1.9009
  899TIP3   OH2 2702   3.120   0.139   3.530 -0.0349  0.0212 -0.5182
  899TIP3    H1 2703   3.086   0.227   3.542 -1.1387 -0.6095  1.3873
  899TIP3    H2 2704   3.099   0.117   3.439  0.0786  1.6176 -0.9592
  900TIP3   OH2 2705   5.146   1.973   2.097 -0.4019  0.0604 -0.2463
  900TIP3    H1 2706   5.097   1.953   2.178 -0.6455 -1.7822 -0.7892
  900TIP3    H2 2707   5.132   1.896   2.042  0.2763  1.0196 -1.8145
  901TIP3   OH2 2708   4.284   3.092   4.753  0.3835 -0.4273  0.3748
  901TIP3    H1 2709   4.283   3.158   4.823  0.3487  0.3282 -0.3259
  901TIP3    H2 2710   4.233   3.131   4.682  2.0866 -0.3065 -0.8449
  902TIP3   OH2 2711   4.763   0.255   4.016  0.3221  0.6480 -0.1174
  902TIP3    H1 2712   4.815   0.218   3.944  0.0768 -0.3414  0.2032
  902TIP3    H2 2713   4.678   0.272   3.977  0.5890  1.3931 -0.4007
  903TIP3   OH2 2714   5.070   5.482   0.275  0.1184  0.0596 -0.6618
  903TIP3    H1 2715   4.998   5.528   0.318  0.5888  0.4317 -0.2601
  903TIP3    H2 2716   5.047   5.390   0.282  0.6591  0.0247  1.3239
  904TIP3   OH2 2717   2.004   3.523   3.745  0.0442  0.4760  0.2428
  904TIP3    H1 2718   1.960   3.452   3.791  0.8733  1.1558  2.2240
  904TIP3    H2 2719   2.007   3.594   3.809  0.7535  1.7024 -1.0961
  905TIP3   OH2 2720   6.217   3.139   0.318 -0.0253  0.3227  0.0277
  905TIP3    H1 2721   6.179   3.054   0.296  2.6620 -0.2212 -3.4376
  905TIP3    H2 2722   6.143   3.201   0.314 -1.3354 -1.2441 -1.8600
  906TIP3   OH2 2723   2.561   0.585   1.941 -0.0247  0.3946  0.5293
  906TIP3    H1 2724   2.645   0.548   1.912  0.1931  0.8134  0.6154
  906TIP3    H2 2725   2.518   0.614   1.861  0.3229  1.0222  0.5613
  907TIP3   OH2 2726   3.914   1.295   0.744  0.6109 -0.6321  0.4943
  907TIP3    H1 2727   4.005   1.264   0.733  0.0875 -2.4530  0.9228
  907TIP3    H2 2728   3.881   1.301   0.654  0.2176 -3.1459  0.3834
  908TIP3   OH2 2729   5.612   4.512   5.030  0.6332 -0.6717 -0.8610
  908TIP3    H1 2730   5.558   4.434   5.037  0.6753 -0.5974  0.7593
  908TIP3    H2 2731   5.572   4.574   5.091  1.5493 -0.0098 -0.9171
  909TIP3   OH2 2732   6.346   1.902   0.331 -0.5860  0.0078 -0.1804
  909TIP3    H1 2733   6.278   1.861   0.385 -1.1277 -0.4515 -1.1811
  909TIP3    H2 2734   6.356   1.990   0.366 -1.3787 -0.0754  0.2613
  910TIP3   OH2 2735   0.054   2.501   1.262  0.2074 -0.1123 -0.2461
  910TIP3    H1 2736   0.107   2.580   1.270  0.9559 -0.3148 -2.3906
  910TIP3    H2 2737   0.117   2.430   1.252 -0.4342 -0.5679 -1.2674
  911TIP3   OH2 2738   5.179   0.371   3.667 -0.0192  0.2097 -0.4980
  911TIP3    H1 2739   5.256   0.315   3.676 -1.7172 -2.0387  1.7989
  911TIP3    H2 2740   5.208   0.458   3.693  1.7807 -0.5609  0.2169
  912TIP3   OH2 2741   2.253   0.692   1.202 -0.5149 -0.0378  0.5997
  912TIP3    H1 2742   2.202   0.613   1.218 -1.1042  0.1442 -0.3236
  912TIP3    H2 2743   2.304   0.672   1.124 -0.5897  0.4575  0.4205
  913TIP3   OH2 2744   4.643   0.760   2.548 -0.8160  0.9084 -0.2656
  913TIP3    H1 2745   4.645   0.667   2.569  0.5659  0.8279 -0.6552
  913TIP3    H2 2746   4.646   0.764   2.452  0.2626  1.3401 -0.2356
  914TIP3   OH2 2747   5.038   1.279   1.587 -0.2142 -0.3490  0.2055
  914TIP3    H1 2748   4.991   1.310   1.665  0.4189 -2.2075  1.4022
  914TIP3    H2 2749   5.125   1.320   1.594 -0.1925 -0.4311  0.4267
  915TIP3   OH2 2750   4.426   3.647   4.707 -0.1972 -0.2287  0.2056
  915TIP3    H1 2751   4.515   3.618   4.685  0.2628  1.0156  0.3221
  915TIP3    H2 2752   4.370   3.600   4.646  0.6336 -0.4221 -0.4304
  916TIP3   OH2 2753   2.799   5.296   3.983 -0.3258  0.1226  0.0646
  916TIP3    H1 2754   2.854   5.218   3.988 -1.5768 -0.7921  0.0099
  916TIP3    H2 2755   2.858   5.365   3.953  0.2251 -1.4230 -2.7784
  917TIP3   OH2 2756   0.424   0.209   4.378  0.4861 -0.7981  0.1563
  917TIP3    H1 2757   0.470   0.263   4.313  3.2257 -0.1596  2.4097
  917TIP3    H2 2758   0.355   0.165   4.329  0.6620  1.7041 -2.5996
  918TIP3   OH2 2759   5.971   0.809   2.020 -0.4671 -0.1681  0.5058
  918TIP3    H1 2760   6.040   0.860   2.062  1.2729 -2.3898  0.4830
  918TIP3    H2 2761   5.914   0.781   2.092 -0.7971  0.7962  0.6395
  919TIP3   OH2 2762   3.904   5.089   2.359  0.4591 -0.3199 -0.3656
  919TIP3    H1 2763   3.887   5.023   2.426  0.7049  1.2301  1.3042
  919TIP3    H2 2764   3.831   5.081   2.298  1.5985 -3.5491 -1.4713
  920TIP3   OH2 2765   5.275   5.084   0.929  0.3878 -0.0904  0.0266
  920TIP3    H1 2766   5.193   5.132   0.921 -0.2591 -1.4200 -2.4335
  920TIP3    H2 2767   5.259   5.021   1.000  0.1644  1.2271  1.1763
  921TIP3   OH2 2768   3.167   4.539   1.029  0.3265  0.4547 -0.0666
  921TIP3    H1 2769   3.253   4.537   0.988  0.7070 -1.3416  0.7500
  921TIP3    H2 2770   3.185   4.551   1.122 -0.3438  0.4425  0.0713
  922TIP3   OH2 2771   0.447   2.000   1.597  0.2366 -0.6808  0.5132
  922TIP3    H1 2772   0.490   2.078   1.632 -1.3368  0.4355  0.0621
  922TIP3    H2 2773   0.495   1.980   1.517 -0.6794  1.1738 -0.5482
  923TIP3   OH2 2774   0.319   3.408   1.945  0.1702  0.4253  0.1398
  923TIP3    H1 2775   0.249   3.449   1.996  0.9415  0.4157  1.2510
  923TIP3    H2 2776   0.294   3.421   1.854 -1.1746  0.5900  0.5179
  924TIP3   OH2 2777   3.995   3.061   3.694 -0.4036 -0.4755  0.1699
  924TIP3    H1 2778   3.991   3.061   3.789 -1.1449  0.5687  0.1549
  924TIP3    H2 2779   4.045   2.983   3.672 -1.0900 -1.2813  1.3750
  925TIP3   OH2 2780   2.040   5.112   2.181  0.0415 -0.1453 -0.1979
  925TIP3    H1 2781   2.125   5.092   2.142  0.5869  1.0392  0.3436
  925TIP3    H2 2782   2.006   5.184   2.128  0.4565  0.9767  1.0146
  926TIP3   OH2 2783   5.431   3.652   2.196  0.2025 -0.2676 -0.5051
  926TIP3    H1 2784   5.439   3.740   2.234  2.1864 -0.6869  0.1725
  926TIP3    H2 2785   5.495   3.599   2.244 -0.2891 -1.8638 -1.5298
  927TIP3   OH2 2786   3.104   1.343   2.354  0.1250 -0.2866  0.3674
  927TIP3    H1 2787   3.080   1.372   2.442 -0.9516  1.7789 -0.5515
  927TIP3    H2 2788   3.200   1.348   2.353  0.0979  0.7407  1.1012
  928TIP3   OH2 2789   2.252   5.980   0.329  0.1704  0.0595 -0.0324
  928TIP3    H1 2790   2.343   5.950   0.333  0.7146  1.7835  1.3440
  928TIP3    H2 2791   2.232   6.011   0.417 -1.7309 -0.1387 -0.3418
  929TIP3   OH2 2792   5.103   5.129   0.544  0.0834 -0.4855 -0.6032
  929TIP3    H1 2793   5.141   5.182   0.614 -1.7695  0.7155 -0.4186
  929TIP3    H2 2794   5.080   5.047   0.586  0.1515 -0.2556 -0.1086
  930TIP3   OH2 2795   1.877   1.124   0.996  0.3127 -0.4182  0.1136
  930TIP3    H1 2796   1.821   1.149   1.070  1.4527 -2.5810  1.8345
  930TIP3    H2 2797   1.962   1.160   1.017  0.4020 -0.1318 -0.7111
  931TIP3   OH2 2798   1.277   0.619   1.475  0.6811  0.0565  0.4989
  931TIP3    H1 2799   1.184   0.600   1.493  0.9770 -0.7498  1.2917
  931TIP3    H2 2800   1.278   0.709   1.442 -0.5331 -0.3916 -0.8762
  932TIP3   OH2 2801   1.089   0.930   1.302  0.1599 -0.7154 -0.1165
  932TIP3    H1 2802   1.091   0.982   1.382  1.0780  1.2085 -1.3418
  932TIP3    H2 2803   1.180   0.922   1.275 -0.2461  0.3987 -2.0106
  933TIP3   OH2 2804   0.662   3.984   3.376  0.1964  0.5666 -0.2753
  933TIP3    H1 2805   0.694   4.072   3.398 -0.5400  0.5172  1.0996
  933TIP3    H2 2806   0.636   3.947   3.460 -2.1218  0.0793 -1.1567
  934TIP3   OH2 2807   5.543   0.825   1.457  0.9776 -0.2598 -0.8594
  934TIP3    H1 2808   5.561   0.906   1.409 -1.0881  0.1055 -1.0970
  934TIP3    H2 2809   5.626   0.804   1.499  1.7455  1.6226 -1.3126
  935TIP3   OH2 2810   4.013   3.628   0.368 -0.2261  0.0252 -0.1831
  935TIP3    H1 2811   3.956   3.703   0.352  1.8770  1.4745 -1.1904
  935TIP3    H2 2812   4.047   3.605   0.281  1.8447  0.1348  0.5543
  936TIP3   OH2 2813   4.908   3.167   0.317  0.3466  0.2305  0.3908
  936TIP3    H1 2814   4.919   3.080   0.280 -1.8503 -0.1565  0.4925
  936TIP3    H2 2815   4.948   3.162   0.404  1.0375 -0.3878  0.0472
  937TIP3   OH2 2816   4.843   0.110   2.546 -0.9277 -0.2318 -0.6358
  937TIP3    H1 2817   4.798   0.167   2.482 -1.2198 -0.0208 -0.2473
  937TIP3    H2 2818   4.897   0.170   2.597 -0.3761 -0.4577 -0.9511
  938TIP3   OH2 2819   5.336   3.575   0.238 -0.0708  0.3989  0.1198
  938TIP3    H1 2820   5.418   3.596   0.195 -0.1946  0.1983 -0.2188
  938TIP3    H2 2821   5.300   3.659   0.265  0.4719  0.4530  0.6906
  939TIP3   OH2 2822   5.465   3.358   1.879 -0.1521  0.2059 -0.4914
  939TIP3    H1 2823   5.534   3.423   1.866  1.3371 -1.3955 -0.9999
  939TIP3    H2 2824   5.499   3.279   1.838 -1.7381 -1.0157  0.4406
  940TIP3   OH2 2825   2.617   1.150   2.670  0.3283  0.2006  0.2412
  940TIP3    H1 2826   2.630   1.074   2.613  1.6417  0.5078  0.0838
  940TIP3    H2 2827   2.662   1.126   2.752  1.5861  1.1391 -0.1389
  941TIP3   OH2 2828   0.067   4.500   3.517  0.1028  0.2586 -0.1090
  941TIP3    H1 2829  -0.004   4.535   3.571  1.6473  0.5058  1.9101
  941TIP3    H2 2830   0.086   4.414   3.554  1.4028  0.5556 -0.0056
  942TIP3   OH2 2831   4.190   0.254   1.437  0.1537 -0.2445 -0.0504
  942TIP3    H1 2832   4.239   0.176   1.464 -0.9704 -0.8089  0.4146
  942TIP3    H2 2833   4.190   0.310   1.514 -2.2084 -1.4284  0.9023
  943TIP3   OH2 2834   0.829   5.262   0.003 -0.0142 -0.1913  0.2495
  943TIP3    H1 2835   0.852   5.260   0.096  1.3746 -0.3442 -0.0790
  943TIP3    H2 2836   0.832   5.355  -0.020 -0.4884 -0.1403  0.3753
  944TIP3   OH2 2837   2.726   5.739   0.465 -0.5501 -0.1709 -0.4948
  944TIP3    H1 2838   2.807   5.772   0.426 -0.8929  0.7109 -0.4936
  944TIP3    H2 2839   2.754   5.696   0.546 -0.1131  0.3777 -0.3507
  945TIP3   OH2 2840   3.713   3.829   1.459 -0.3739 -0.6136 -0.3258
  945TIP3    H1 2841   3.746   3.761   1.517 -0.2915  0.0011  0.3678
  945TIP3    H2 2842   3.627   3.797   1.431 -0.1748 -1.1723 -0.3100
  946TIP3   OH2 2843   4.117   5.388   2.294  0.2481 -0.1027 -0.3608
  946TIP3    H1 2844   4.157   5.309   2.330 -0.3170  0.0202  0.5694
  946TIP3    H2 2845   4.048   5.356   2.235  2.1174 -0.3357 -2.5756
  947TIP3   OH2 2846   0.204   1.430   3.834 -0.3574 -0.1716 -0.3139
  947TIP3    H1 2847   0.270   1.382   3.884  0.1505  2.3935  1.6645
  947TIP3    H2 2848   0.251   1.463   3.757  0.2265  0.1856  0.1935
  948TIP3   OH2 2849   1.107   2.036   4.653  0.2286  0.1402  0.4111
  948TIP3    H1 2850   1.191   1.997   4.678 -0.0566  0.3729  1.8134
  948TIP3    H2 2851   1.127   2.089   4.576  1.2231 -0.3420  0.3203
  949TIP3   OH2 2852   3.743   5.508   1.015 -0.4923  0.6796 -0.4793
  949TIP3    H1 2853   3.679   5.436   1.014  0.7463 -0.5028  0.4958
  949TIP3    H2 2854   3.699   5.578   1.062 -1.3421  0.1623 -0.4691
  950TIP3   OH2 2855   5.515   4.660   3.071 -0.2126  0.1830 -0.5267
  950TIP3    H1 2856   5.499   4.569   3.095  1.4657  0.0213  0.1417
  950TIP3    H2 2857   5.543   4.702   3.152 -1.7839  1.5233 -0.6426
  951TIP3   OH2 2858   6.202   0.345   2.964 -0.2669 -0.0781  0.4785
  951TIP3    H1 2859   6.260   0.270   2.949 -0.7886 -0.6357  1.1471
  951TIP3    H2 2860   6.183   0.378   2.876 -0.6351 -1.2119  0.1022
  952TIP3   OH2 2861   1.680   3.670   3.980  0.0278 -0.5619  0.6663
  952TIP3    H1 2862   1.630   3.685   4.060 -0.6370 -1.4642  0.4515
  952TIP3    H2 2863   1.630   3.602   3.934  0.3537 -0.0102 -0.5438
  953TIP3   OH2 2864   2.287   1.028   1.557 -0.1273 -0.1893 -0.2739
  953TIP3    H1 2865   2.366   0.996   1.513 -0.7035 -0.5901 -1.0437
  953TIP3    H2 2866   2.215   0.986   1.511 -0.8427  0.9028 -0.1909
  954TIP3   OH2 2867   5.717   0.394   3.742 -0.8039  0.0042  0.1424
  954TIP3    H1 2868   5.806   0.361   3.756 -0.6867  0.7788  1.3872
  954TIP3    H2 2869   5.726   0.456   3.670 -0.0356  1.1369  1.1663
  955TIP3   OH2 2870   4.564   3.209   0.414  0.1957 -0.2552 -0.2877
  955TIP3    H1 2871   4.648   3.167   0.398 -0.6748 -1.9945 -0.6049
  955TIP3    H2 2872   4.551   3.267   0.339  1.0883  0.0048 -0.2464
  956TIP3   OH2 2873   2.814   2.471   0.855 -0.8656  0.1048  0.0155
  956TIP3    H1 2874   2.802   2.539   0.922 -1.2966 -0.3044  0.3592
  956TIP3    H2 2875   2.884   2.416   0.889 -1.1305 -0.1422  0.1656
  957TIP3   OH2 2876   4.064   1.890   0.570 -0.1263  0.9214  0.0445
  957TIP3    H1 2877   4.118   1.811   0.574 -2.1328 -0.7998 -2.9019
  957TIP3    H2 2878   3.996   1.875   0.636 -0.1297  0.4692 -0.0547
  958TIP3   OH2 2879   0.291   3.709   2.856  0.2849  0.1166 -0.1377
  958TIP3    H1 2880   0.245   3.627   2.837  0.2429 -0.2108  1.2870
  958TIP3    H2 2881   0.346   3.689   2.931  1.8878  0.8381 -1.0657
  959TIP3   OH2 2882   0.717   1.564   3.437  0.2114 -0.1048  0.3162
  959TIP3    H1 2883   0.639   1.544   3.385  1.0751  0.9351 -1.4985
  959TIP3    H2 2884   0.784   1.582   3.372  1.6702  0.1609  1.8392
  960TIP3   OH2 2885   5.807   4.708   1.013 -0.3003  0.1680 -0.3099
  960TIP3    H1 2886   5.784   4.697   0.920  1.1857 -1.3635 -0.5489
  960TIP3    H2 2887   5.866   4.634   1.032  0.5632  1.2483  1.4775
  961TIP3   OH2 2888   3.362   1.325   4.564 -0.6691  0.2007  0.2091
  961TIP3    H1 2889   3.387   1.272   4.640 -0.5535 -0.3721 -0.2197
  961TIP3    H2 2890   3.392   1.413   4.586 -0.2490 -0.0445  0.6464
  962TIP3   OH2 2891   2.852   3.139   5.045 -0.0544 -0.1180 -0.7058
  962TIP3    H1 2892   2.866   3.219   5.096 -2.1621 -0.8993  1.2952
  962TIP3    H2 2893   2.933   3.090   5.054  0.1211  0.3918  0.8155
  963TIP3   OH2 2894   2.281   2.309   0.090  0.1349  0.6246 -0.3895
  963TIP3    H1 2895   2.277   2.291   0.184 -0.4167  1.5937 -0.2162
  963TIP3    H2 2896   2.372   2.289   0.066  0.0873 -0.3360  0.1904
  964TIP3   OH2 2897   0.351   4.590   2.786 -0.7420  0.4608 -0.0371
  964TIP3    H1 2898   0.433   4.611   2.830 -1.4723  0.1163  1.6026
  964TIP3    H2 2899   0.319   4.674   2.753 -0.0430  0.6923 -0.1368
  965TIP3   OH2 2900   1.689   1.391   4.574  0.8005 -0.3754  0.0577
  965TIP3    H1 2901   1.645   1.325   4.627  0.7915 -0.3557  0.0751
  965TIP3    H2 2902   1.683   1.471   4.627 -0.6199  0.0276 -0.6653
  966TIP3   OH2 2903   5.108   3.337   3.554 -0.7868 -0.1670  0.0873
  966TIP3    H1 2904   5.030   3.283   3.538  1.0234 -3.4071  1.2142
  966TIP3    H2 2905   5.175   3.297   3.498  0.6018  1.1412  0.7710
  967TIP3   OH2 2906   4.235   3.998   0.939  0.0846 -0.2381 -0.3554
  967TIP3    H1 2907   4.298   4.038   0.879  2.2909 -0.2837  1.7704
  967TIP3    H2 2908   4.262   3.906   0.945 -0.3797 -0.3369  0.3288
  968TIP3   OH2 2909   6.324   5.294   4.975  0.1752 -0.9246  0.1652
  968TIP3    H1 2910   6.256   5.307   4.909 -0.6084  3.3171  1.4817
  968TIP3    H2 2911   6.406   5.289   4.926 -0.4216  1.5994 -1.2841
  969TIP3   OH2 2912   4.272   3.067   1.844  0.0461 -0.1492 -0.2971
  969TIP3    H1 2913   4.217   3.116   1.904 -0.7210 -1.5151  0.1671
  969TIP3    H2 2914   4.361   3.094   1.865 -0.1966 -0.6772  1.5463
  970TIP3   OH2 2915   1.227   3.564   4.679 -0.2872 -0.0981  0.1813
  970TIP3    H1 2916   1.316   3.585   4.652  0.2106  1.2487  2.5853
  970TIP3    H2 2917   1.238   3.507   4.755 -1.5667 -1.7806 -0.8194
  971TIP3   OH2 2918   5.179   2.723   3.791 -0.1357  0.5745 -0.1458
  971TIP3    H1 2919   5.176   2.655   3.859  0.0138 -0.3797 -1.0595
  971TIP3    H2 2920   5.089   2.730   3.760  0.0565 -0.1409 -0.9172
  972TIP3   OH2 2921   3.010   1.872   2.454  0.0813  0.3029  0.1036
  972TIP3    H1 2922   3.021   1.812   2.528  0.9137 -0.8035 -0.8642
  972TIP3    H2 2923   3.097   1.909   2.441  0.2989 -0.5741 -1.1563
  973TIP3   OH2 2924   6.333   2.343   3.516 -0.0796 -0.3060  0.2450
  973TIP3    H1 2925   6.255   2.353   3.462 -1.8908 -2.6707  2.2021
  973TIP3    H2 2926   6.310   2.385   3.599  1.4379  0.5022  0.2937
  974TIP3   OH2 2927   5.062   0.149   3.395 -0.1452 -0.1150  0.1846
  974TIP3    H1 2928   5.009   0.158   3.316 -0.7608 -1.7045  0.3746
  974TIP3    H2 2929   5.118   0.226   3.396 -1.3687  0.8292 -0.8593
  975TIP3   OH2 2930   5.532   3.279   3.087  0.1393 -0.4521 -0.0351
  975TIP3    H1 2931   5.442   3.298   3.060 -1.0904 -2.2275  2.4404
  975TIP3    H2 2932   5.539   3.184   3.078  0.6074 -0.7564  2.8550
  976TIP3   OH2 2933   4.531   3.085   4.015 -0.1549  0.3322  0.0139
  976TIP3    H1 2934   4.436   3.095   4.007 -0.0867  2.1191  0.9513
  976TIP3    H2 2935   4.542   3.012   4.075 -0.9532  0.4461  0.3136
  977TIP3   OH2 2936   0.514   2.092   2.177  0.3986 -0.1558 -0.6778
  977TIP3    H1 2937   0.457   2.110   2.252  0.4047 -2.3738 -0.0853
  977TIP3    H2 2938   0.593   2.142   2.195  0.3096 -0.4701  0.6925
  978TIP3   OH2 2939   2.195   1.614   2.849 -0.6046 -0.4639  0.3180
  978TIP3    H1 2940   2.212   1.581   2.761  1.4309  0.3562  0.3622
  978TIP3    H2 2941   2.277   1.656   2.876 -1.5099  0.2178  2.2038
  979TIP3   OH2 2942   2.154   3.821   3.249  0.1856  0.4208 -0.2405
  979TIP3    H1 2943   2.121   3.737   3.280 -1.8546  1.1877 -0.1735
  979TIP3    H2 2944   2.201   3.858   3.324 -0.7620  0.2640  0.4475
  980TIP3   OH2 2945   5.929   2.086   3.205 -0.0504  0.2694  0.4100
  980TIP3    H1 2946   5.881   2.147   3.149 -0.9077 -1.0495 -0.3310
  980TIP3    H2 2947   5.864   2.021   3.232  1.1495 -1.2011 -0.0821
  981TIP3   OH2 2948   5.605   3.282   1.276 -0.6631  0.6687  0.0927
  981TIP3    H1 2949   5.588   3.202   1.325 -1.3759  1.3700  1.0275
  981TIP3    H2 2950   5.519   3.323   1.266 -0.3226  1.2833 -0.4380
  982TIP3   OH2 2951   2.375   4.919   2.367  0.2422  0.0168 -0.4823
  982TIP3    H1 2952   2.467   4.896   2.385 -0.2339 -1.1462  0.5623
  982TIP3    H2 2953   2.342   4.845   2.317  0.0260  0.7388 -1.4408
  983TIP3   OH2 2954   5.928   5.065   1.653 -0.1122  0.2849  0.0818
  983TIP3    H1 2955   5.857   5.003   1.635  0.4113 -1.1727  2.5040
  983TIP3    H2 2956   5.884   5.148   1.669 -1.4415 -0.7544  2.2987
  984TIP3   OH2 2957   2.905   2.421   3.143 -0.4088  0.4100 -0.0234
  984TIP3    H1 2958   2.967   2.353   3.117  0.7572  0.8169  1.5441
  984TIP3    H2 2959   2.849   2.379   3.208 -1.0377  0.3990 -0.5492
  985TIP3   OH2 2960   3.477   0.173   1.278  0.4253  0.2755  0.5631
  985TIP3    H1 2961   3.525   0.090   1.273  1.0097  0.6812 -2.4486
  985TIP3    H2 2962   3.520   0.230   1.214 -3.4985  0.9271 -1.8352
  986TIP3   OH2 2963   1.430   2.289   1.538 -0.7256 -0.0299 -0.3218
  986TIP3    H1 2964   1.461   2.355   1.475 -1.9569 -0.6966 -1.6915
  986TIP3    H2 2965   1.400   2.216   1.483  1.1480 -2.0344  1.1524
  987TIP3   OH2 2966   1.109   2.530   1.322 -0.4277 -0.3886  0.4063
  987TIP3    H1 2967   1.108   2.543   1.417 -1.1702  0.0126  0.3516
  987TIP3    H2 2968   1.028   2.571   1.292  1.0327  1.8451 -0.7151
  988TIP3   OH2 2969   1.948   2.186   3.036  0.5182  0.2051 -0.6392
  988TIP3    H1 2970   1.953   2.150   2.948 -0.1232 -0.0815 -0.5645
  988TIP3    H2 2971   2.038   2.180   3.070  0.6626 -0.1592 -1.0832
  989TIP3   OH2 2972   0.985   5.691   4.077 -0.1039  0.1119 -0.3835
  989TIP3    H1 2973   0.954   5.717   3.991  1.0046 -1.5399 -1.3410
  989TIP3    H2 2974   1.078   5.712   4.076  0.6304 -2.7192 -0.8427
  990TIP3   OH2 2975   6.234   3.536   4.334  0.1935  0.6150  0.7765
  990TIP3    H1 2976   6.237   3.508   4.425 -0.5177 -0.2464  0.5485
  990TIP3    H2 2977   6.312   3.590   4.322 -0.0786  1.3364  2.0762
  991TIP3   OH2 2978   2.353   0.611   0.437 -0.4536  0.1377  0.2114
  991TIP3    H1 2979   2.288   0.550   0.473  0.6693 -1.2282  0.0179
  991TIP3    H2 2980   2.336   0.612   0.343  0.1078 -0.6107  0.0964
  992TIP3   OH2 2981   3.581   1.875   3.584 -0.6779 -0.1003  0.1072
  992TIP3    H1 2982   3.599   1.953   3.637 -0.9284  0.1084 -0.1101
  992TIP3    H2 2983   3.496   1.844   3.615 -0.9225  0.1410 -0.3029
  993TIP3   OH2 2984   4.460   2.301   4.283  0.3734 -0.3788 -0.4562
  993TIP3    H1 2985   4.461   2.271   4.373  0.6247  0.5069 -0.1546
  993TIP3    H2 2986   4.381   2.262   4.245 -0.1188 -0.1626  0.3440
  994TIP3   OH2 2987   5.181   5.631   0.570 -0.6952  0.0877  0.6412
  994TIP3    H1 2988   5.098   5.677   0.554 -2.2492 -1.5053  3.2506
  994TIP3    H2 2989   5.177   5.553   0.514 -0.6473  0.3421  0.2817
  995TIP3   OH2 2990   5.249   0.903   1.754  0.4944  0.0851 -0.5113
  995TIP3    H1 2991   5.199   0.924   1.833  1.1195  1.2190 -0.4034
  995TIP3    H2 2992   5.322   0.850   1.785  1.5055  1.6525 -0.0998
  996TIP3   OH2 2993   2.515   4.043   3.571 -0.1955 -0.2132  0.3804
  996TIP3    H1 2994   2.498   3.950   3.588 -0.0581 -0.3519 -0.1951
  996TIP3    H2 2995   2.527   4.048   3.476  0.7638  0.2354  0.5085
  997TIP3   OH2 2996   5.690   0.191   3.003  0.2550  0.4051  0.6902
  997TIP3    H1 2997   5.659   0.108   3.039  1.0815  0.1905  0.9257
  997TIP3    H2 2998   5.774   0.171   2.962  0.1496  0.9956  0.1576
  998TIP3   OH2 2999   4.429   2.186   4.571  0.2393 -0.1336  0.8993
  998TIP3    H1 3000   4.356   2.131   4.545  0.7714 -0.2844 -0.3950
  998TIP3    H2 3001   4.389   2.270   4.596 -0.3261  0.2245 -1.0239
  999TIP3   OH2 3002   2.776   1.892   4.892  0.0492  0.0743 -0.3891
  999TIP3    H1 3003   2.832   1.875   4.968  1.2983 -0.3965 -1.3802
  999TIP3    H2 3004   2.822   1.959   4.843 -0.0762 -0.5515 -1.3934
 1000TIP3   OH2 3005   5.420   5.834   2.470  0.0241 -0.6614 -0.1118
 1000TIP3    H1 3006   5.407   5.922   2.506 -0.2077 -1.0094  0.6867
 1000TIP3    H2 3007   5.512   5.815   2.489  0.4371 -0.0967 -1.4404
 1001TIP3   OH2 3008   0.491   4.713   0.647  0.3966  0.4200 -0.5903
 1001TIP3    H1 3009   0.412   4.696   0.699  1.9341 -0.9724  1.4963
 1001TIP3    H2 3010   0.480   4.659   0.569  0.0250 -1.2049  0.5278
 1002TIP3   OH2 3011   4.849   5.925   1.932  0.2144  0.4904  0.1393
 1002TIP3    H1 3012   4.878   5.863   1.998 -1.5139  0.5195  0.9707
 1002TIP3    H2 3013   4.756   5.938   1.950 -0.2518  0.7373 -2.1081
 1003TIP3   OH2 3014   1.807   3.635   2.179 -0.0699 -0.4206 -0.0057
 1003TIP3    H1 3015   1.834   3.558   2.230 -0.4360  0.4684  1.5937
 1003TIP3    H2 3016   1.833   3.710   2.233 -2.0027  0.5273 -0.2995
 1004TIP3   OH2 3017   5.625   5.106   0.575 -0.2360 -0.1218 -0.4799
 1004TIP3    H1 3018   5.634   5.196   0.542  1.2599  0.1132  0.4859
 1004TIP3    H2 3019   5.530   5.090   0.574 -0.7460  2.1781  1.1493
 1005TIP3   OH2 3020   4.346   1.407   0.629  0.2445  0.4534  0.0860
 1005TIP3    H1 3021   4.370   1.398   0.721  0.6307 -1.3924 -0.1379
 1005TIP3    H2 3022   4.356   1.318   0.594 -1.5286  0.7622 -1.3409
 1006TIP3   OH2 3023   5.238   1.994   3.379 -0.0398 -0.2304 -0.0093
 1006TIP3    H1 3024   5.302   1.942   3.331 -1.8017 -0.6224 -2.0731
 1006TIP3    H2 3025   5.178   1.930   3.418 -1.4030  0.1417 -1.3865
 1007TIP3   OH2 3026   2.093   3.869   1.670  0.1209  0.7326  0.4002
 1007TIP3    H1 3027   2.146   3.849   1.592  1.8355  0.9998  1.4578
 1007TIP3    H2 3028   2.007   3.831   1.650  1.5635 -2.6846 -0.0694
 1008TIP3   OH2 3029   5.821   5.463   1.047 -0.3391 -0.1035  0.2397
 1008TIP3    H1 3030   5.800   5.521   1.120  1.4218  2.1978 -0.9742
 1008TIP3    H2 3031   5.750   5.398   1.047 -1.5885  1.1361  2.5783
 1009TIP3   OH2 3032   2.425   4.792   0.729 -0.0956 -0.8525 -0.5211
 1009TIP3    H1 3033   2.422   4.788   0.633 -0.0047  0.5544 -0.5959
 1009TIP3    H2 3034   2.512   4.826   0.749 -0.5927  0.1340  0.0074
 1010TIP3   OH2 3035   4.119   1.875   1.604  0.1767  0.2130  0.3374
 1010TIP3    H1 3036   4.155   1.963   1.591 -1.1620  0.5995 -0.9582
 1010TIP3    H2 3037   4.031   1.879   1.567 -0.3384 -1.3693  1.2829
 1011TIP3   OH2 3038   3.772   2.641   1.036  0.4660 -0.5874 -0.0872
 1011TIP3    H1 3039   3.750   2.734   1.045  1.0336 -0.2975 -1.4434
 1011TIP3    H2 3040   3.853   2.641   0.985 -0.7601 -1.8952 -2.1264
 1012TIP3   OH2 3041   5.964   0.693   3.707 -0.3968  0.1903  0.6063
 1012TIP3    H1 3042   5.917   0.766   3.667 -0.2814 -1.2638 -2.4757
 1012TIP3    H2 3043   6.039   0.735   3.751  0.0469  1.9489 -1.6136
 1013TIP3   OH2 3044   5.174   0.177   0.597 -0.2131 -0.3361 -0.1651
 1013TIP3    H1 3045   5.257   0.129   0.588 -0.0365 -0.1524  0.4011
 1013TIP3    H2 3046   5.146   0.194   0.508 -0.5084 -1.8801 -0.3891
 1014TIP3   OH2 3047   2.125   4.872   0.358  0.5042 -0.7254  0.3430
 1014TIP3    H1 3048   2.040   4.848   0.321  0.3488 -0.3289  0.4383
 1014TIP3    H2 3049   2.140   4.808   0.428  0.1104 -0.5720  0.5716
 1015TIP3   OH2 3050   5.939   4.033   2.183  0.4254 -0.1226  0.3692
 1015TIP3    H1 3051   5.997   3.978   2.235 -0.7426 -2.0709 -0.2864
 1015TIP3    H2 3052   5.998   4.088   2.132  1.6546 -0.8572  0.9477
 1016TIP3   OH2 3053   4.811   3.035   2.124  0.2259  0.5473  0.0856
 1016TIP3    H1 3054   4.854   3.070   2.203  1.7964 -0.5465 -0.2304
 1016TIP3    H2 3055   4.822   3.104   2.059  1.1648  0.4635  0.1375
 1017TIP3   OH2 3056   2.993   0.691   5.126  0.8376  0.1106  0.4127
 1017TIP3    H1 3057   2.930   0.726   5.188  0.3087  0.9986 -0.5938
 1017TIP3    H2 3058   2.972   0.598   5.120 -3.1737  0.9408 -2.9028
 1018TIP3   OH2 3059   0.901   0.794   4.077  0.0305 -0.1581 -0.1336
 1018TIP3    H1 3060   0.978   0.852   4.073 -0.0169 -0.0454  0.5323
 1018TIP3    H2 3061   0.933   0.715   4.121 -0.1392 -0.2701 -0.2122
 1019TIP3   OH2 3062   5.011   2.853   2.023 -0.2172  0.0617 -0.2862
 1019TIP3    H1 3063   5.009   2.946   2.043 -1.9414  0.0503 -0.2749
 1019TIP3    H2 3064   5.018   2.810   2.108  0.2133  0.1547 -0.2699
 1020TIP3   OH2 3065   6.272   4.105   2.735 -0.2137  0.0637  0.2913
 1020TIP3    H1 3066   6.226   4.060   2.664  1.8872 -0.9929 -0.4808
 1020TIP3    H2 3067   6.297   4.189   2.697  1.6200 -0.8150 -0.6051
 1021TIP3   OH2 3068   6.061   3.782   0.152 -0.3294  0.2285 -0.4755
 1021TIP3    H1 3069   6.125   3.711   0.149  0.2922  0.6721  1.1495
 1021TIP3    H2 3070   6.093   3.846   0.088 -0.0790 -0.3018 -0.8814
 1022TIP3   OH2 3071   2.148   5.860   3.128  0.3196  0.2376 -0.0770
 1022TIP3    H1 3072   2.215   5.800   3.161  0.6402  0.9199  0.5245
 1022TIP3    H2 3073   2.117   5.908   3.205 -0.8165 -0.0115 -0.3537
 1023TIP3   OH2 3074   2.134   2.684   5.116  0.1281  0.4083  0.4696
 1023TIP3    H1 3075   2.174   2.609   5.160  0.0368 -0.1434 -0.3645
 1023TIP3    H2 3076   2.068   2.716   5.178 -0.4208 -0.7289  0.5090
 1024TIP3   OH2 3077   3.223   2.240   2.437 -0.5297  0.2463  0.2455
 1024TIP3    H1 3078   3.269   2.247   2.354 -0.5701  1.8372  0.3399
 1024TIP3    H2 3079   3.142   2.289   2.424 -1.2420 -0.7601  0.7566
 1025TIP3   OH2 3080   4.660   4.679   0.259  0.1032  0.3708 -0.0162
 1025TIP3    H1 3081   4.708   4.633   0.327 -0.7704  1.1021  1.1329
 1025TIP3    H2 3082   4.569   4.678   0.288  0.0697  3.0194  0.2379
 1026TIP3   OH2 3083   1.538   2.439   0.337  0.2515  0.0596 -0.7045
 1026TIP3    H1 3084   1.570   2.526   0.359 -1.6843  0.8079 -0.6461
 1026TIP3    H2 3085   1.474   2.419   0.405  0.2745 -1.1846 -1.0223
 1027TIP3   OH2 3086   4.756   0.646   2.811 -0.5669  0.1822  0.8395
 1027TIP3    H1 3087   4.786   0.603   2.732  0.2549  0.3328  1.0560
 1027TIP3    H2 3088   4.695   0.584   2.852 -0.7446 -0.0255  0.2607
 1028TIP3   OH2 3089   5.005   3.674   0.534  0.2286  0.1809  0.2065
 1028TIP3    H1 3090   4.962   3.618   0.470  1.6098 -0.4944 -0.1695
 1028TIP3    H2 3091   5.089   3.695   0.495  0.8277  0.3068  1.5054
 1029TIP3   OH2 3092   2.445   1.821   0.961  0.1485 -0.3969  0.1034
 1029TIP3    H1 3093   2.530   1.840   0.999  1.2663  0.2886 -2.5217
 1029TIP3    H2 3094   2.458   1.740   0.912 -1.0680 -0.9361  0.6327
 1030TIP3   OH2 3095   4.043   0.573   0.655 -0.3969  0.1770 -0.3998
 1030TIP3    H1 3096   3.979   0.581   0.585  0.3926 -1.2747 -1.3321
 1030TIP3    H2 3097   3.990   0.564   0.735 -1.3663 -0.9827 -1.1412
 1031TIP3   OH2 3098   1.612   1.873   3.595  0.0601 -0.1590 -0.7784
 1031TIP3    H1 3099   1.646   1.814   3.528 -1.4496 -2.2381  0.2075
 1031TIP3    H2 3100   1.519   1.882   3.575 -0.1625  0.1822  0.3167
 1032TIP3   OH2 3101   5.021   5.701   0.047  0.0723  0.7432  0.3614
 1032TIP3    H1 3102   5.072   5.622   0.030 -0.6003  0.4787 -0.4922
 1032TIP3    H2 3103   4.961   5.677   0.117 -0.1249  0.4976  0.1085
 1033TIP3   OH2 3104   0.178   0.681   0.593  0.5734 -0.1193  0.5446
 1033TIP3    H1 3105   0.140   0.594   0.608  5.0473 -2.6799 -0.8219
 1033TIP3    H2 3106   0.211   0.708   0.678 -2.5751  1.3937  1.4070
 1034TIP3   OH2 3107   4.198   2.828   4.758 -0.4646 -0.1218  0.2656
 1034TIP3    H1 3108   4.277   2.787   4.723 -0.7535  0.3105 -0.9566
 1034TIP3    H2 3109   4.212   2.922   4.743 -2.5038 -0.1741 -2.9806
 1035TIP3   OH2 3110   6.074   3.466   4.959 -0.4025 -0.0554 -0.5789
 1035TIP3    H1 3111   6.135   3.408   4.914  4.5296  2.8707  1.5109
 1035TIP3    H2 3112   6.070   3.432   5.049  0.5600  1.3728  0.0348
 1036TIP3   OH2 3113   2.408   3.892   2.120  0.0778  0.1823 -0.1377
 1036TIP3    H1 3114   2.316   3.867   2.112  0.5790 -1.9769  0.1638
 1036TIP3    H2 3115   2.442   3.885   2.031  0.0313  0.6800 -0.1975
 1037TIP3   OH2 3116   1.939   3.907   1.919  0.1126 -0.6323 -0.6366
 1037TIP3    H1 3117   1.993   3.926   1.842  0.9037 -1.1008 -0.2230
 1037TIP3    H2 3118   1.877   3.841   1.889  0.2351 -0.6086 -0.9507
 1038TIP3   OH2 3119   5.704   1.794   4.247  0.2788  0.6247 -0.5339
 1038TIP3    H1 3120   5.751   1.877   4.248  0.1236  0.7122 -0.4064
 1038TIP3    H2 3121   5.683   1.777   4.339 -1.4085  1.4271 -0.7333
 1039TIP3   OH2 3122   0.314   0.603   3.314  0.1787 -0.3893 -0.0660
 1039TIP3    H1 3123   0.378   0.645   3.372 -0.0481 -2.1911  1.5828
 1039TIP3    H2 3124   0.235   0.596   3.367 -0.5440 -0.6324 -1.1651
 1040TIP3   OH2 3125   3.289   5.932   2.409  0.4173 -0.1413 -0.2149
 1040TIP3    H1 3126   3.249   5.866   2.465  0.8087 -0.9789 -0.9038
 1040TIP3    H2 3127   3.217   5.989   2.383  0.0459 -0.4015  0.2310
 1041TIP3   OH2 3128   5.763   3.042   4.752  0.3144 -0.3991  0.0061
 1041TIP3    H1 3129   5.859   3.043   4.750  0.3133  1.1393 -0.5824
 1041TIP3    H2 3130   5.738   3.049   4.660 -0.3831 -1.1574  0.1249
 1042TIP3   OH2 3131   5.470   5.252   3.762 -0.3654  0.0343 -0.0180
 1042TIP3    H1 3132   5.538   5.265   3.828 -1.5381 -0.7959  1.4122
 1042TIP3    H2 3133   5.506   5.291   3.682  2.1983 -1.2440  0.4195
 1043TIP3   OH2 3134   0.214   5.232   2.779 -0.2111  0.3714  0.1853
 1043TIP3    H1 3135   0.262   5.265   2.855  0.2107  2.5145 -0.9252
 1043TIP3    H2 3136   0.141   5.183   2.817 -0.4200  1.9563  2.0349
 1044TIP3   OH2 3137   3.527   4.542   2.933 -0.1404 -0.2444  0.3720
 1044TIP3    H1 3138   3.589   4.495   2.878  1.6226  1.0875  1.1006
 1044TIP3    H2 3139   3.506   4.621   2.883 -0.3780 -0.1693  0.5860
 1045TIP3   OH2 3140   2.645   0.951   2.471  0.3310  0.1472  0.8359
 1045TIP3    H1 3141   2.575   0.910   2.421  0.9745 -0.2586  0.2532
 1045TIP3    H2 3142   2.702   0.879   2.497  0.3362  0.4270  1.6386
 1046TIP3   OH2 3143   3.066   0.196   3.020  0.0413 -0.0384  0.2735
 1046TIP3    H1 3144   3.040   0.127   2.960  0.2040 -0.2489  0.4420
 1046TIP3    H2 3145   3.045   0.277   2.974 -1.3625 -0.1977  0.6107
 1047TIP3   OH2 3146   2.404   1.114   2.162 -0.1303  1.3031  0.3542
 1047TIP3    H1 3147   2.395   1.178   2.092 -1.3066  0.7227 -0.0697
 1047TIP3    H2 3148   2.316   1.110   2.201  0.1908  0.7013  1.0324
 1048TIP3   OH2 3149   1.510   1.417   3.678 -0.0119  0.1673  0.7030
 1048TIP3    H1 3150   1.475   1.337   3.716 -0.5595 -0.5466 -1.1712
 1048TIP3    H2 3151   1.433   1.463   3.644  0.5743 -0.1577 -1.1608
 1049TIP3   OH2 3152   4.989   1.078   2.294  0.1975  0.3702  0.0632
 1049TIP3    H1 3153   4.956   1.001   2.248  0.6591  0.8866 -1.1818
 1049TIP3    H2 3154   5.075   1.094   2.255 -0.2701  2.0484 -0.3498
 1050TIP3   OH2 3155   5.000   1.738   4.420  0.2500  0.2349 -0.1490
 1050TIP3    H1 3156   5.015   1.832   4.422  0.9648  0.1937 -1.8584
 1050TIP3    H2 3157   4.929   1.726   4.357  0.4230 -0.3906 -0.2350
 1051TIP3   OH2 3158   4.717   2.524   1.019 -0.1389  0.2773  0.1432
 1051TIP3    H1 3159   4.654   2.452   1.022 -0.1051  0.2863  1.5331
 1051TIP3    H2 3160   4.803   2.482   1.026 -0.0634  0.3724 -0.2044
 1052TIP3   OH2 3161   5.442   4.787   2.518  0.5374  0.3818 -0.0319
 1052TIP3    H1 3162   5.529   4.807   2.552  1.1816 -0.6445 -0.9877
 1052TIP3    H2 3163   5.459   4.745   2.434 -0.9219  0.8866 -0.6049
 1053TIP3   OH2 3164   5.662   5.255   1.068  0.7930  0.1066 -0.3169
 1053TIP3    H1 3165   5.701   5.193   1.129 -1.1015 -1.0797 -0.2508
 1053TIP3    H2 3166   5.625   5.201   0.999 -2.1184  0.9859  0.4199
 1054TIP3   OH2 3167   2.793   2.760   2.288 -0.4173 -0.2509  0.7335
 1054TIP3    H1 3168   2.699   2.760   2.308 -0.2785  0.1027  1.4404
 1054TIP3    H2 3169   2.817   2.853   2.285  0.0060 -0.3471  1.0494
 1055TIP3   OH2 3170   0.404   4.426   2.542 -0.1202 -0.4275 -0.3538
 1055TIP3    H1 3171   0.315   4.411   2.511 -0.3415 -0.3032  0.2232
 1055TIP3    H2 3172   0.396   4.498   2.605  0.4533 -0.0962 -0.6461
 1056TIP3   OH2 3173   1.178   4.763   4.029  0.2328  0.4163 -0.3040
 1056TIP3    H1 3174   1.240   4.691   4.026  1.7468  1.6256  0.2322
 1056TIP3    H2 3175   1.195   4.806   4.113 -2.1604  0.1247  0.4118
 1057TIP3   OH2 3176   2.364   5.971   1.105 -0.1596 -0.2054  0.0482
 1057TIP3    H1 3177   2.309   5.907   1.061  1.7155 -1.8917  0.0350
 1057TIP3    H2 3178   2.422   6.004   1.037 -1.8489  2.5136 -0.2356
 1058TIP3   OH2 3179   1.546   1.905   1.025 -0.0093  0.1183  0.2774
 1058TIP3    H1 3180   1.619   1.966   1.035 -0.8587  1.0320  1.0908
 1058TIP3    H2 3181   1.570   1.852   0.949  0.5726  1.7433 -0.7468
 1059TIP3   OH2 3182   2.787   1.495   0.927 -0.1068 -0.2423  0.0069
 1059TIP3    H1 3183   2.876   1.474   0.897  0.1695  3.4068 -2.4340
 1059TIP3    H2 3184   2.799   1.526   1.017  1.0822 -0.1313 -0.1682
 1060TIP3   OH2 3185   3.276   5.825   4.560 -0.0065 -0.0025 -0.1572
 1060TIP3    H1 3186   3.235   5.823   4.473  0.9275 -1.2395 -0.6035
 1060TIP3    H2 3187   3.203   5.835   4.621 -0.4734  4.7339 -1.1532
 1061TIP3   OH2 3188   2.333   5.059   3.458  0.1988  0.2200  0.3170
 1061TIP3    H1 3189   2.325   5.105   3.542  1.3044  1.7079 -0.3547
 1061TIP3    H2 3190   2.282   5.113   3.397 -1.1686 -1.2149  0.1150
 1062TIP3   OH2 3191   2.705   4.849   0.282  0.6458 -0.1192 -0.3167
 1062TIP3    H1 3192   2.765   4.819   0.350  0.0072  1.7565  1.1439
 1062TIP3    H2 3193   2.620   4.813   0.307  0.7611 -1.1553 -1.3186
 1063TIP3   OH2 3194   4.512   4.829   3.097  0.1007 -0.1413 -0.5198
 1063TIP3    H1 3195   4.512   4.900   3.033  1.0489  0.0345 -0.3495
 1063TIP3    H2 3196   4.428   4.785   3.085 -0.5061  1.0206 -0.6027
 1064TIP3   OH2 3197   0.752   0.012   0.146 -0.7067 -0.0196 -0.1343
 1064TIP3    H1 3198   0.759   0.075   0.218  0.1399 -0.0820 -0.1495
 1064TIP3    H2 3199   0.734   0.065   0.069  0.6017  0.2942 -0.2550
 1065TIP3   OH2 3200   2.902   4.406   2.805 -0.3801 -0.0135 -0.1370
 1065TIP3    H1 3201   2.912   4.405   2.900 -1.1935  0.2632 -0.0427
 1065TIP3    H2 3202   2.811   4.380   2.790 -0.2679 -0.0240 -0.8379
 1066TIP3   OH2 3203   6.101   1.831   2.153 -0.4823 -0.2590 -0.5792
 1066TIP3    H1 3204   6.056   1.756   2.114 -2.5700 -0.5240  2.0688
 1066TIP3    H2 3205   6.184   1.797   2.184 -0.7159 -1.0690 -0.8365
 1067TIP3   OH2 3206   4.284   2.439   2.545  0.0516 -0.1963 -0.6022
 1067TIP3    H1 3207   4.225   2.432   2.470  0.4231  0.5711 -0.9815
 1067TIP3    H2 3208   4.315   2.530   2.543  1.7320 -0.7398 -0.7871
 1068TIP3   OH2 3209   5.162   0.475   1.402  0.1162 -0.0651  0.0606
 1068TIP3    H1 3210   5.077   0.433   1.388  0.0964  0.2782 -0.8639
 1068TIP3    H2 3211   5.226   0.412   1.370  0.2624 -0.5533  1.2517
 1069TIP3   OH2 3212   4.176   0.319   4.851  0.3175 -0.4798 -0.4754
 1069TIP3    H1 3213   4.259   0.270   4.857 -1.3185 -3.3406  0.8485
 1069TIP3    H2 3214   4.139   0.293   4.767  0.3387  0.1196 -0.6762
 1070TIP3   OH2 3215   2.277   2.644   0.587  0.7845 -0.1041  0.4042
 1070TIP3    H1 3216   2.256   2.558   0.623  1.9036 -0.3310  0.5732
 1070TIP3    H2 3217   2.239   2.644   0.499 -0.3422 -0.2655  0.8868
 1071TIP3   OH2 3218   5.660   2.489   2.874 -0.1392 -0.0972 -0.5292
 1071TIP3    H1 3219   5.618   2.414   2.832  1.2492  0.1000 -2.4073
 1071TIP3    H2 3220   5.588   2.541   2.907 -1.1904 -1.6205 -0.3036
 1072TIP3   OH2 3221   2.201   1.277   1.570  0.2023 -0.0068  0.6177
 1072TIP3    H1 3222   2.229   1.313   1.486  0.9029  0.2786  0.9633
 1072TIP3    H2 3223   2.245   1.193   1.576 -0.1802 -0.2134  0.5108
 1073TIP3   OH2 3224   4.074   1.157   2.197 -0.3602  0.0200 -0.1843
 1073TIP3    H1 3225   4.072   1.253   2.196 -0.1230  0.0647 -2.5515
 1073TIP3    H2 3226   4.006   1.132   2.259  0.4431  1.6940  1.4680
 1074TIP3   OH2 3227   0.849   3.829   4.966  0.0483  0.1993  0.3081
 1074TIP3    H1 3228   0.880   3.913   4.999  0.3172  0.2337 -0.0177
 1074TIP3    H2 3229   0.767   3.849   4.921  0.1358  0.2972  0.1904
 1075TIP3   OH2 3230   4.893   5.459   0.732  0.0085  0.2396 -0.6958
 1075TIP3    H1 3231   4.966   5.440   0.791  1.9086  0.8587 -2.7184
 1075TIP3    H2 3232   4.851   5.537   0.771  0.3456 -0.1691  0.5340
 1076TIP3   OH2 3233   0.131   1.340   1.697  0.2187 -0.0758  0.1475
 1076TIP3    H1 3234   0.185   1.387   1.761 -0.0013  0.2652  0.0839
 1076TIP3    H2 3235   0.041   1.352   1.727  0.1492 -0.3599  0.0636
 1077TIP3   OH2 3236   3.418   1.799   0.883 -0.6267 -0.5032 -0.1214
 1077TIP3    H1 3237   3.418   1.705   0.867  1.5280 -0.7120  0.7234
 1077TIP3    H2 3238   3.352   1.834   0.824 -0.8984 -2.4464 -1.0349
 1078TIP3   OH2 3239   2.828   2.064   2.458  0.1217 -0.2167  0.3236
 1078TIP3    H1 3240   2.896   1.999   2.439  1.0213 -0.1388  2.8911
 1078TIP3    H2 3241   2.869   2.148   2.436 -0.1044 -0.3173 -0.5328
 1079TIP3   OH2 3242   0.186   5.459   5.147 -0.0377 -0.0034  0.0543
 1079TIP3    H1 3243   0.122   5.399   5.109 -0.1398  0.0210  0.1847
 1079TIP3    H2 3244   0.145   5.488   5.229 -0.2539  0.7018 -0.2930
 1080TIP3   OH2 3245   4.073   1.836   2.916  0.3137 -0.2375 -0.3942
 1080TIP3    H1 3246   4.133   1.765   2.937 -0.2139 -0.1216  1.8024
 1080TIP3    H2 3247   4.107   1.874   2.835  1.5850 -1.8937 -0.6791
 1081TIP3   OH2 3248   0.519   4.680   2.449 -0.1434  0.3672 -0.0568
 1081TIP3    H1 3249   0.463   4.703   2.375  2.4508  2.6866 -1.5270
 1081TIP3    H2 3250   0.550   4.592   2.430  0.3921  0.8866 -1.7410
 1082TIP3   OH2 3251   4.755   1.171   1.528  0.0397 -0.0922  0.1231
 1082TIP3    H1 3252   4.809   1.245   1.555  0.5964 -0.5573  0.3193
 1082TIP3    H2 3253   4.800   1.136   1.451  1.0166 -1.5415  1.3014
 1083TIP3   OH2 3254   5.635   3.260   3.399 -0.0020 -0.7869  0.0120
 1083TIP3    H1 3255   5.587   3.212   3.467  0.0180  0.3035  0.8257
 1083TIP3    H2 3256   5.567   3.298   3.345 -0.0188 -1.9447 -0.8208
 1084TIP3   OH2 3257   0.946   3.518   4.397  0.0319  0.4758  0.2770
 1084TIP3    H1 3258   1.028   3.471   4.413 -0.2454 -0.3416 -0.5869
 1084TIP3    H2 3259   0.956   3.601   4.443  2.0326  1.1273 -1.2018
 1085TIP3   OH2 3260   3.215   2.791   0.617 -0.2741  0.0180  0.3409
 1085TIP3    H1 3261   3.179   2.720   0.564  0.0246 -1.2766  1.7893
 1085TIP3    H2 3262   3.139   2.839   0.649 -0.5586 -0.4607  0.3993
 1086TIP3   OH2 3263   1.207   2.957   2.144  0.3797 -0.3238 -0.7264
 1086TIP3    H1 3264   1.289   2.926   2.184 -0.2666 -0.8598  0.2333
 1086TIP3    H2 3265   1.232   2.981   2.055  1.9913  1.4257  0.1317
 1087TIP3   OH2 3266   5.098   0.025   0.256 -0.4011 -0.5142 -0.2497
 1087TIP3    H1 3267   5.034   0.055   0.320  0.5588  2.5691 -0.5591
 1087TIP3    H2 3268   5.048  -0.027   0.194 -1.9557 -0.8837  1.2599
 1088TIP3   OH2 3269   1.351   5.268   2.786 -0.2084  0.5901 -0.6881
 1088TIP3    H1 3270   1.259   5.291   2.790 -0.9223 -1.9785 -0.6050
 1088TIP3    H2 3271   1.375   5.247   2.877  0.2721  0.6104 -0.8059
 1089TIP3   OH2 3272   4.004   0.814   1.857 -0.6464  0.1071  0.3057
 1089TIP3    H1 3273   3.915   0.780   1.845 -1.4081  1.5571  1.5172
 1089TIP3    H2 3274   4.020   0.806   1.950  2.0108 -3.5197 -0.2437
 1090TIP3   OH2 3275   5.114   1.264   0.443  0.4198 -0.3261 -0.1811
 1090TIP3    H1 3276   5.133   1.246   0.535  1.2394  0.7299 -0.1212
 1090TIP3    H2 3277   5.020   1.250   0.435  0.0268  1.1617  1.2398
 1091TIP3   OH2 3278   3.939   2.940   4.969 -0.6934  0.1804  0.4121
 1091TIP3    H1 3279   4.027   2.926   4.936 -0.7609 -0.3780  0.4630
 1091TIP3    H2 3280   3.950   3.003   5.041 -0.3727  0.3148  0.2459
 1092TIP3   OH2 3281   0.951   5.291   0.671  0.5202  0.0435  0.5495
 1092TIP3    H1 3282   0.927   5.368   0.619  0.2122  0.0673  0.7255
 1092TIP3    H2 3283   0.867   5.253   0.698  0.6738 -0.2167  0.6645
 1093TIP3   OH2 3284   3.385   0.697   5.152  0.4926  0.3873  0.1579
 1093TIP3    H1 3285   3.427   0.782   5.138  0.2027  0.3644 -1.0271
 1093TIP3    H2 3286   3.452   0.633   5.128  0.9229  0.2352  1.6500
 1094TIP3   OH2 3287   0.495   5.845   3.448 -0.1971 -1.1003  0.2041
 1094TIP3    H1 3288   0.438   5.768   3.434 -0.0181 -1.2429  0.2574
 1094TIP3    H2 3289   0.554   5.845   3.372 -0.5465 -0.7022 -0.0729
 1095TIP3   OH2 3290   4.150   1.129   0.047 -0.3764 -0.0767  0.5015
 1095TIP3    H1 3291   4.100   1.050   0.024 -0.7406  0.1582  0.4906
 1095TIP3    H2 3292   4.090   1.201   0.031 -0.0755  0.1998  0.6125
 1096TIP3   OH2 3293   3.650   4.854   4.067  0.2787  0.3067  0.6148
 1096TIP3    H1 3294   3.626   4.762   4.065  0.9110  0.1216  1.0924
 1096TIP3    H2 3295   3.583   4.896   4.121  0.1371  0.0830  0.6126
 1097TIP3   OH2 3296   1.773   2.269   3.751  0.3312  0.1671 -0.0156
 1097TIP3    H1 3297   1.868   2.283   3.744  0.7305 -1.6239  1.0085
 1097TIP3    H2 3298   1.765   2.179   3.782 -1.7220  0.3188  0.0179
 1098TIP3   OH2 3299   3.815   5.645   1.837 -0.5683 -0.0315  0.2049
 1098TIP3    H1 3300   3.888   5.585   1.824  0.3361  0.7681  1.4575
 1098TIP3    H2 3301   3.855   5.731   1.845 -1.6928  0.4860  0.4361
 1099TIP3   OH2 3302   0.188   2.292   3.157 -0.6370 -0.1948  0.0319
 1099TIP3    H1 3303   0.194   2.222   3.221 -0.8957 -1.2728 -1.0719
 1099TIP3    H2 3304   0.279   2.313   3.135 -0.5690 -0.6640 -0.1329
 1100TIP3   OH2 3305   1.057   2.117   0.873  0.2092 -0.3095  0.7831
 1100TIP3    H1 3306   1.040   2.081   0.960 -0.0928  1.2056  1.3816
 1100TIP3    H2 3307   1.005   2.063   0.814  0.6091 -1.5113  1.5065
 1101TIP3   OH2 3308   0.096   0.567   2.786 -0.0660 -0.3187 -0.5370
 1101TIP3    H1 3309   0.159   0.510   2.740 -0.8474 -0.3650 -1.5830
 1101TIP3    H2 3310   0.013   0.519   2.781  0.0722 -1.0320  2.2357
 1102TIP3   OH2 3311   2.398   0.625   1.709 -0.1713  0.6755 -0.6121
 1102TIP3    H1 3312   2.425   0.536   1.686 -1.0596  0.5574 -1.2722
 1102TIP3    H2 3313   2.383   0.668   1.625  0.1011  1.4023 -0.2910
 1103TIP3   OH2 3314   0.997   3.856   0.653  0.1996  0.5282  0.4321
 1103TIP3    H1 3315   1.063   3.920   0.625 -1.0699  1.8633  0.4006
 1103TIP3    H2 3316   0.957   3.896   0.730 -1.1064  0.1084 -0.0086
 1104TIP3   OH2 3317   1.998   2.048   4.403  0.9690  0.2934 -0.2832
 1104TIP3    H1 3318   2.001   1.957   4.373  0.5769 -0.0417  0.6464
 1104TIP3    H2 3319   1.953   2.095   4.333  0.2369 -0.4296 -0.3174
 1105TIP3   OH2 3320   4.332   1.179   3.401 -0.6800  0.4546 -0.1895
 1105TIP3    H1 3321   4.320   1.100   3.349  0.6544  0.3709 -0.4076
 1105TIP3    H2 3322   4.324   1.150   3.492 -1.1153  0.2538 -0.2872
 1106TIP3   OH2 3323   0.894   0.552   1.088  0.4331 -0.4034  0.3804
 1106TIP3    H1 3324   0.832   0.582   1.021  0.2576  0.2361  0.8172
 1106TIP3    H2 3325   0.843   0.551   1.169  0.7958 -0.6057  0.6061
 1107TIP3   OH2 3326   0.949   1.153   0.511 -0.0317  0.2353 -0.7324
 1107TIP3    H1 3327   0.942   1.235   0.463  0.2597  0.5982 -0.1578
 1107TIP3    H2 3328   0.951   1.178   0.603  0.4686 -0.3845 -0.5634
 1108TIP3   OH2 3329   0.403   2.699   4.448  0.4376  0.0449  0.3190
 1108TIP3    H1 3330   0.327   2.650   4.418  1.0815 -0.2111 -1.0149
 1108TIP3    H2 3331   0.433   2.746   4.370 -0.6401  3.3012  1.6949
 1109TIP3   OH2 3332   1.058   4.159   4.855 -0.2529  0.1836  0.0469
 1109TIP3    H1 3333   0.975   4.178   4.810 -1.4194 -2.5335  0.8410
 1109TIP3    H2 3334   1.032   4.112   4.934  2.0755 -2.2464 -0.4741
 1110TIP3   OH2 3335   1.722   5.767   3.176  0.6171  0.0394  0.2491
 1110TIP3    H1 3336   1.649   5.819   3.142 -0.0227  0.3868  2.0245
 1110TIP3    H2 3337   1.799   5.804   3.133 -0.0044  1.3339  0.1844
 1111TIP3   OH2 3338   1.532   5.525   0.474 -0.2088  0.3203 -0.1293
 1111TIP3    H1 3339   1.447   5.495   0.440 -0.6952  2.0359 -0.4843
 1111TIP3    H2 3340   1.513   5.556   0.562  0.3246 -0.4653  0.2848
 1112TIP3   OH2 3341   0.990   1.671   3.881  0.3982  0.4657  0.0296
 1112TIP3    H1 3342   1.064   1.721   3.915  0.4181  0.9332 -0.6865
 1112TIP3    H2 3343   0.917   1.733   3.881  0.2115  0.2489 -0.0575
 1113TIP3   OH2 3344   4.545   1.179   4.959 -0.3757 -0.2365  0.1137
 1113TIP3    H1 3345   4.548   1.181   4.863  1.9631  0.2930  0.1389
 1113TIP3    H2 3346   4.453   1.167   4.980 -0.7440 -2.3248 -2.2245
 1114TIP3   OH2 3347   4.871   2.433   1.469 -0.4620 -0.2240  0.2482
 1114TIP3    H1 3348   4.874   2.503   1.403 -1.7665 -0.2972  0.1001
 1114TIP3    H2 3349   4.801   2.375   1.440  0.6513 -1.6543  0.3404
 1115TIP3   OH2 3350   0.536   3.577   3.780 -0.2464  0.1888 -0.0799
 1115TIP3    H1 3351   0.549   3.608   3.870 -0.5611  1.1540 -0.3556
 1115TIP3    H2 3352   0.443   3.588   3.764 -0.4621 -1.3167 -0.0666
 1116TIP3   OH2 3353   4.759   4.129   0.837  0.2766  0.2507  0.2355
 1116TIP3    H1 3354   4.681   4.123   0.783  0.3235  2.0133 -0.0829
 1116TIP3    H2 3355   4.812   4.198   0.796  1.1246  0.3993  1.5139
 1117TIP3   OH2 3356   4.046   0.312   2.117  0.4101  0.0678  0.4240
 1117TIP3    H1 3357   4.079   0.230   2.154 -0.0938  0.3880  1.6421
 1117TIP3    H2 3358   3.956   0.291   2.090  1.0204 -0.3752 -1.4138
 1118TIP3   OH2 3359   2.968   2.260   0.985  0.6070 -0.1226 -0.1616
 1118TIP3    H1 3360   3.060   2.273   0.960  0.2283 -0.9541 -2.0882
 1118TIP3    H2 3361   2.957   2.165   0.988  0.1199 -0.0494  1.4250
 1119TIP3   OH2 3362   0.878   2.429   3.614 -0.6233  0.5250  0.8327
 1119TIP3    H1 3363   0.826   2.450   3.536 -0.3105  1.2194  0.8113
 1119TIP3    H2 3364   0.964   2.404   3.580 -1.2747 -1.8803  0.7739
 1120TIP3   OH2 3365   4.105   2.518   3.972  0.1092 -0.1377 -0.3069
 1120TIP3    H1 3366   4.045   2.508   3.898  0.7681  2.3299 -1.2886
 1120TIP3    H2 3367   4.062   2.582   4.029  0.8076 -0.0002  0.0843
 1121TIP3   OH2 3368   5.441   4.388   0.952  0.0766 -0.3066  0.0027
 1121TIP3    H1 3369   5.511   4.413   0.891 -0.1548  0.0157 -0.1378
 1121TIP3    H2 3370   5.410   4.303   0.921 -0.6390  0.2563 -0.8721
 1122TIP3   OH2 3371   2.907   5.951   0.760  0.6346  0.3199  0.2716
 1122TIP3    H1 3372   2.969   6.007   0.713 -0.0634  1.5250  0.7138
 1122TIP3    H2 3373   2.841   5.927   0.694  0.8711  0.1197  0.1077
 1123TIP3   OH2 3374   4.256   5.895   0.645  0.0412  0.4678  0.4267
 1123TIP3    H1 3375   4.212   5.860   0.568  0.8754  1.8922 -0.7536
 1123TIP3    H2 3376   4.220   5.983   0.655 -2.1331 -0.5613  3.4153
 1124TIP3   OH2 3377   5.366   5.310   2.210 -0.0372  0.2308 -0.1392
 1124TIP3    H1 3378   5.407   5.330   2.294  2.1049 -2.2918 -0.4606
 1124TIP3    H2 3379   5.359   5.395   2.166  1.1050  1.2800  1.5886
 1125TIP3   OH2 3380   4.502   5.128   0.298  0.0177  0.1737 -0.4163
 1125TIP3    H1 3381   4.466   5.216   0.285 -0.6652 -0.2351 -1.4915
 1125TIP3    H2 3382   4.454   5.093   0.373  0.9768  1.0465  0.6398
 1126TIP3   OH2 3383   5.150   5.395   4.290  0.1099  0.5147 -0.4443
 1126TIP3    H1 3384   5.126   5.304   4.276 -1.1974  1.0081 -1.6106
 1126TIP3    H2 3385   5.067   5.440   4.310  0.5681  1.6255 -0.9339
 1127TIP3   OH2 3386   0.646   0.090   1.380 -0.2449 -0.2003 -0.2212
 1127TIP3    H1 3387   0.655   0.183   1.398 -0.7348  0.4008 -2.7896
 1127TIP3    H2 3388   0.736   0.058   1.370 -0.1371  0.6676 -2.2802
 1128TIP3   OH2 3389   3.439   2.870   0.449  0.1297  0.2981  0.3676
 1128TIP3    H1 3390   3.456   2.818   0.371  0.8779  1.4204 -0.2377
 1128TIP3    H2 3391   3.365   2.827   0.491 -0.8624  0.1722 -1.4191
 1129TIP3   OH2 3392   3.837   2.956   4.706 -0.4079 -0.3899 -0.1715
 1129TIP3    H1 3393   3.860   2.936   4.796 -1.6119  1.4586  0.6126
 1129TIP3    H2 3394   3.743   2.939   4.701 -0.0872 -1.9836 -1.5546
 1130TIP3   OH2 3395   5.502   1.574   1.119  0.8566 -0.4526  0.0038
 1130TIP3    H1 3396   5.482   1.654   1.167  0.8914 -1.1750  1.2727
 1130TIP3    H2 3397   5.517   1.603   1.029 -0.0943  0.8338  0.2288
 1131TIP3   OH2 3398   6.114   0.979   0.909 -0.6583 -0.4221  0.4832
 1131TIP3    H1 3399   6.087   0.943   0.994 -0.4494 -0.5954  0.4766
 1131TIP3    H2 3400   6.159   1.061   0.931 -1.8854  0.2858  0.4437
 1132TIP3   OH2 3401   4.829   3.963   3.656 -0.3393 -0.1931  0.5828
 1132TIP3    H1 3402   4.856   3.892   3.713 -0.7630  0.0725  1.1290
 1132TIP3    H2 3403   4.892   4.033   3.673 -0.3009 -0.2122  0.5186
 1133TIP3   OH2 3404   4.888   1.371   1.047 -0.1689 -0.0950  0.2342
 1133TIP3    H1 3405   4.913   1.457   1.014  0.6159 -0.6508 -0.6834
 1133TIP3    H2 3406   4.900   1.378   1.142  2.3157  0.1121 -0.0108
 1134TIP3   OH2 3407   2.619   5.329   2.955  0.2618  0.2537 -0.1195
 1134TIP3    H1 3408   2.623   5.239   2.921 -0.3311  0.3512 -0.4657
 1134TIP3    H2 3409   2.681   5.378   2.900  1.3557 -0.1351  0.7260
 1135TIP3   OH2 3410   5.847   0.508   1.116  0.3530 -0.1578 -0.5376
 1135TIP3    H1 3411   5.818   0.446   1.183 -1.1421 -0.7370 -1.6616
 1135TIP3    H2 3412   5.835   0.594   1.156 -2.0443 -0.4200 -0.5614
 1136TIP3   OH2 3413   4.832   5.821   1.229  0.2335  0.2318 -0.5214
 1136TIP3    H1 3414   4.838   5.871   1.310  0.6636 -0.9883  0.2329
 1136TIP3    H2 3415   4.882   5.741   1.247 -3.1379 -2.0461 -0.4493
 1137TIP3   OH2 3416   0.557   0.276   2.059 -0.5922  0.3254  0.2705
 1137TIP3    H1 3417   0.495   0.245   1.993 -0.7251  0.5371  0.2939
 1137TIP3    H2 3418   0.642   0.249   2.027 -0.5992  0.9372 -0.2896
 1138TIP3   OH2 3419   2.032   5.003   1.751  0.2574 -0.9844  0.0858
 1138TIP3    H1 3420   2.098   4.956   1.699 -0.0269  0.4940 -1.7396
 1138TIP3    H2 3421   1.992   4.935   1.806  3.3016 -1.9242  1.3413
 1139TIP3   OH2 3422   2.701   3.566   4.166 -0.7270 -0.0992 -0.4783
 1139TIP3    H1 3423   2.761   3.575   4.241 -0.3821 -0.2130 -0.7419
 1139TIP3    H2 3424   2.739   3.497   4.113  0.4687  1.7097 -2.1120
 1140TIP3   OH2 3425   0.106   2.744   4.302  0.5668  0.1429 -0.5394
 1140TIP3    H1 3426   0.156   2.769   4.224  0.8774  1.3731  0.0424
 1140TIP3    H2 3427   0.154   2.670   4.338  2.0257  1.3033  0.0197
 1141TIP3   OH2 3428   0.163   1.828   4.497  0.1839  1.0618  0.3786
 1141TIP3    H1 3429   0.210   1.878   4.430  0.2743  0.1066 -0.2857
 1141TIP3    H2 3430   0.125   1.754   4.450  1.2508 -0.2950  1.5792
 1142TIP3   OH2 3431   0.588   0.586   3.683 -0.2374  0.2580  0.0578
 1142TIP3    H1 3432   0.653   0.579   3.754  2.6934 -1.2304 -2.5218
 1142TIP3    H2 3433   0.621   0.658   3.628 -0.9868 -0.2602 -1.1050
 1143TIP3   OH2 3434   5.646   3.438   3.855  0.0769 -0.0870 -0.1683
 1143TIP3    H1 3435   5.733   3.454   3.891 -0.3185  0.3767  0.5935
 1143TIP3    H2 3436   5.648   3.479   3.769  0.8114 -0.6226 -0.4160
 1144TIP3   OH2 3437   3.890   4.815   3.153  0.0568 -0.1553 -0.9391
 1144TIP3    H1 3438   3.896   4.759   3.230 -2.9439 -0.0553 -0.5084
 1144TIP3    H2 3439   3.974   4.861   3.150  0.6154 -0.8133  1.7515
 1145TIP3   OH2 3440   0.663   4.520   1.308  0.0669  0.1988  0.0876
 1145TIP3    H1 3441   0.748   4.558   1.331 -1.0813  1.0043  3.4855
 1145TIP3    H2 3442   0.599   4.586   1.333 -1.6912 -1.2401 -0.4005
 1146TIP3   OH2 3443   2.943   3.927   4.715  0.0468  0.3590 -0.0049
 1146TIP3    H1 3444   2.918   4.008   4.670  1.6889  0.9480  0.0796
 1146TIP3    H2 3445   2.986   3.957   4.795 -0.7702 -0.6431  0.8394
 1147TIP3   OH2 3446   2.802   3.969   3.404 -0.4207  0.4030 -0.0976
 1147TIP3    H1 3447   2.862   3.990   3.332  0.4145  0.0970  0.4988
 1147TIP3    H2 3448   2.852   3.986   3.483 -1.1726  0.2684  0.4174
 1148TIP3   OH2 3449   1.803   2.365   1.369  0.4705  0.4837  0.4625
 1148TIP3    H1 3450   1.737   2.420   1.411  0.2679  1.0244 -0.5427
 1148TIP3    H2 3451   1.865   2.427   1.332 -0.2029  0.0921 -1.4158
 1149TIP3   OH2 3452   1.990   4.036   0.234  0.3879 -0.8183 -0.3910
 1149TIP3    H1 3453   1.903   3.995   0.231 -0.5002  0.7322  1.6900
 1149TIP3    H2 3454   2.027   4.008   0.317  2.3812 -2.2548 -1.6872
 1150TIP3   OH2 3455   0.874   0.776   2.309 -0.1647  0.1031  0.5698
 1150TIP3    H1 3456   0.789   0.745   2.276  0.4002 -1.0315  0.1143
 1150TIP3    H2 3457   0.853   0.823   2.389 -1.2268 -0.2129  0.4954
 1151TIP3   OH2 3458   1.380   5.661   3.434  0.8062  0.0691 -0.3265
 1151TIP3    H1 3459   1.297   5.626   3.404  0.8413 -0.6521  0.3943
 1151TIP3    H2 3460   1.446   5.612   3.387  0.8327  0.9335 -1.2178
 1152TIP3   OH2 3461   1.389   4.533   2.619  0.2468 -0.4713  0.3814
 1152TIP3    H1 3462   1.378   4.563   2.529  1.8797  0.0021  0.3007
 1152TIP3    H2 3463   1.464   4.473   2.615 -0.5910 -1.6215  1.1944
 1153TIP3   OH2 3464   2.751   3.608   1.292 -0.1146 -0.1902 -0.2588
 1153TIP3    H1 3465   2.829   3.657   1.266 -0.7090  2.3757  2.2816
 1153TIP3    H2 3466   2.679   3.657   1.253 -0.6237 -0.6538  0.0863
 1154TIP3   OH2 3467   5.090   0.618   4.007  0.2134  0.0956 -0.1631
 1154TIP3    H1 3468   5.084   0.524   4.024  0.0865 -0.0943 -1.1966
 1154TIP3    H2 3469   5.183   0.634   3.993  0.1662  0.0188 -0.5626
 1155TIP3   OH2 3470   3.291   4.262   0.022 -0.8829  0.6509  0.0688
 1155TIP3    H1 3471   3.222   4.205  -0.012  0.7130 -3.3572  2.8147
 1155TIP3    H2 3472   3.244   4.327   0.075 -2.6635 -1.4275  1.1763
 1156TIP3   OH2 3473   0.855   0.449   3.425 -0.1776 -0.1014  0.4710
 1156TIP3    H1 3474   0.808   0.388   3.481  2.0005 -0.0478  2.5032
 1156TIP3    H2 3475   0.888   0.517   3.484  1.6691  0.3313 -0.9352
 1157TIP3   OH2 3476   0.911  -0.004   1.358 -0.3971  0.5629  0.4657
 1157TIP3    H1 3477   0.942   0.015   1.269  1.0807  0.2140  0.8890
 1157TIP3    H2 3478   0.951   0.063   1.412 -0.6532  0.2954  0.9964
 1158TIP3   OH2 3479   3.015   0.770   0.049 -0.4013 -0.7983 -0.5093
 1158TIP3    H1 3480   3.072   0.724  -0.012  0.7731  0.4961 -0.4388
 1158TIP3    H2 3481   2.966   0.700   0.093 -0.3837 -1.8178 -2.0331
 1159TIP3   OH2 3482   1.441   4.112   0.030 -0.1284  0.7108  0.5773
 1159TIP3    H1 3483   1.487   4.161   0.099  0.5993 -1.4624  1.7192
 1159TIP3    H2 3484   1.386   4.050   0.077 -0.6412  0.0674 -0.8165
 1160TIP3   OH2 3485   5.301   4.917   1.352 -0.6801 -0.2521  0.1472
 1160TIP3    H1 3486   5.323   4.825   1.362  1.4733  0.1758 -0.2488
 1160TIP3    H2 3487   5.332   4.959   1.432  1.5844  0.6095 -1.0822
 1161TIP3   OH2 3488   3.915   1.431   4.783  0.6177 -0.3775  0.3974
 1161TIP3    H1 3489   3.849   1.415   4.850 -0.0045  0.2170 -0.0577
 1161TIP3    H2 3490   3.866   1.437   4.701  1.4237 -1.6213 -0.2047
 1162TIP3   OH2 3491   3.060   3.018   3.702 -0.1512 -0.4408  0.1298
 1162TIP3    H1 3492   3.014   3.102   3.706 -0.3080 -0.5558  3.1706
 1162TIP3    H2 3493   3.136   3.035   3.646 -0.4646  1.5648  0.2302
 1163TIP3   OH2 3494   5.703   1.100   2.678 -0.3364  0.1857 -0.1282
 1163TIP3    H1 3495   5.673   1.161   2.610 -0.9307  0.3490  0.2713
 1163TIP3    H2 3496   5.677   1.014   2.647  1.4258 -0.0137 -1.2004
 1164TIP3   OH2 3497   0.058   2.089   0.048 -0.4069 -0.3531 -0.2452
 1164TIP3    H1 3498   0.131   2.040   0.010 -0.1350 -0.3569  0.2674
 1164TIP3    H2 3499   0.076   2.089   0.142 -0.5362  0.5058 -0.2123
 1165TIP3   OH2 3500   3.869   3.550   4.462 -0.1969 -0.2881 -0.3893
 1165TIP3    H1 3501   3.808   3.571   4.392  0.2376 -0.5286 -0.8541
 1165TIP3    H2 3502   3.884   3.633   4.508  1.0271  0.3342 -1.8087
 1166TIP3   OH2 3503   3.443   4.354   2.707 -0.0535 -0.1188 -0.0313
 1166TIP3    H1 3504   3.525   4.403   2.703 -0.3199  0.2426 -1.9912
 1166TIP3    H2 3505   3.375   4.419   2.689 -0.4985 -0.9368 -1.5008
 1167TIP3   OH2 3506   6.090   2.246   1.511 -0.1407 -0.0498  0.0707
 1167TIP3    H1 3507   6.030   2.307   1.468  0.8094 -0.3846 -1.8329
 1167TIP3    H2 3508   6.172   2.295   1.518 -0.4316  0.2177  2.1607
 1168TIP3   OH2 3509   5.746   4.842   5.109  0.6187  0.3832 -0.8317
 1168TIP3    H1 3510   5.684   4.811   5.043  0.2105  2.4748 -1.4752
 1168TIP3    H2 3511   5.829   4.801   5.084  0.1113 -0.1803 -1.6455
 1169TIP3   OH2 3512   3.980   2.733   1.326 -0.7254  0.0080 -0.2950
 1169TIP3    H1 3513   3.887   2.714   1.338 -0.8621  1.2350  0.6879
 1169TIP3    H2 3514   4.024   2.654   1.355 -1.4231 -0.2524  0.0802
 1170TIP3   OH2 3515   3.084   1.180   4.103 -0.2530 -0.2889  0.4199
 1170TIP3    H1 3516   3.120   1.103   4.147 -0.0349 -1.0789 -1.0576
 1170TIP3    H2 3517   3.122   1.177   4.015 -2.3760 -0.0423 -0.5776
 1171TIP3   OH2 3518   4.566   1.038   2.552 -0.1124 -0.0030 -0.2768
 1171TIP3    H1 3519   4.553   1.061   2.460 -2.8207 -0.0965  0.0015
 1171TIP3    H2 3520   4.615   0.956   2.549  1.9810  1.1903 -1.5079
 1172TIP3   OH2 3521   3.101   4.288   4.801  0.5985 -0.0821 -0.1048
 1172TIP3    H1 3522   3.085   4.346   4.727  0.1565 -0.6694 -0.4728
 1172TIP3    H2 3523   3.183   4.320   4.839 -0.9007  2.4469  1.3056
 1173TIP3   OH2 3524   3.791   1.524   0.478 -0.2572  0.5985 -0.0247
 1173TIP3    H1 3525   3.796   1.617   0.456 -0.4089 -0.0802 -3.4258
 1173TIP3    H2 3526   3.859   1.482   0.424 -1.0835 -1.4107  0.3880
 1174TIP3   OH2 3527   5.968   4.531   4.655 -0.0388  1.2141 -0.2078
 1174TIP3    H1 3528   5.923   4.467   4.599  1.9014 -0.2791 -0.1871
 1174TIP3    H2 3529   5.898   4.579   4.698 -1.5956 -0.2066 -1.0283
 1175TIP3   OH2 3530   0.317   3.439   2.605  0.2743  0.0166  0.1583
 1175TIP3    H1 3531   0.222   3.424   2.599  0.3138 -0.0459 -0.2878
 1175TIP3    H2 3532   0.356   3.363   2.562  0.5070  0.5152 -0.5186
 1176TIP3   OH2 3533   1.084   5.333   2.511  0.5540 -0.1202  0.0935
 1176TIP3    H1 3534   1.110   5.382   2.589  0.8530 -0.3715  0.1542
 1176TIP3    H2 3535   1.100   5.241   2.534  0.5496 -0.2022 -0.2268
 1177TIP3   OH2 3536   1.508   3.556   1.002 -0.5157 -0.7140  0.2675
 1177TIP3    H1 3537   1.449   3.547   1.076  0.3615 -2.7408  0.7970
 1177TIP3    H2 3538   1.527   3.466   0.975  1.0572 -0.0904 -0.8926
 1178TIP3   OH2 3539   5.038   0.800   4.498  0.1278  0.0866 -0.2962
 1178TIP3    H1 3540   5.079   0.821   4.582 -0.5517 -0.3422  0.1510
 1178TIP3    H2 3541   5.106   0.754   4.449  0.6732  0.7289 -0.1630
 1179TIP3   OH2 3542   6.091   3.065   1.181  0.0427 -0.2563 -0.2349
 1179TIP3    H1 3543   6.180   3.100   1.184  0.2268 -0.7362  1.4599
 1179TIP3    H2 3544   6.086   3.019   1.098  0.4162  2.1035 -1.6594
 1180TIP3   OH2 3545   2.187   1.420   4.441 -0.1349  0.0025 -0.0645
 1180TIP3    H1 3546   2.162   1.508   4.467 -0.3738  0.8696 -2.8447
 1180TIP3    H2 3547   2.112   1.365   4.464 -1.2262  1.0945 -0.8987
 1181TIP3   OH2 3548   1.305   0.525   0.801 -0.1480 -0.1844 -0.5148
 1181TIP3    H1 3549   1.237   0.499   0.740 -0.5968 -0.6316  0.1596
 1181TIP3    H2 3550   1.264   0.520   0.887  1.2009 -2.1933  0.0808
 1182TIP3   OH2 3551   2.223   5.683   3.925  0.9484 -0.6219  0.1715
 1182TIP3    H1 3552   2.137   5.641   3.934  0.5517  0.0012 -0.6150
 1182TIP3    H2 3553   2.218   5.760   3.981  0.8089 -0.3180 -0.2507
 1183TIP3   OH2 3554   3.450   3.137   0.602 -0.0729 -0.1451 -0.7649
 1183TIP3    H1 3555   3.469   3.105   0.690 -1.1572 -0.1549 -0.5178
 1183TIP3    H2 3556   3.453   3.059   0.547  2.4982  0.1157 -1.1123
 1184TIP3   OH2 3557   1.978   1.228   4.850 -0.0373  0.4177  0.1042
 1184TIP3    H1 3558   1.978   1.133   4.854  4.3216  0.2543  1.9074
 1184TIP3    H2 3559   1.927   1.256   4.926 -1.6767 -0.3854 -0.6610
 1185TIP3   OH2 3560   3.926   4.555   0.360 -0.2240  0.0943  0.3651
 1185TIP3    H1 3561   3.880   4.574   0.442 -0.0612 -1.8060  0.9693
 1185TIP3    H2 3562   3.998   4.498   0.387  0.7128  0.6066 -0.9422
 1186TIP3   OH2 3563   1.827   2.891   3.186 -0.2517  0.0479 -0.5035
 1186TIP3    H1 3564   1.838   2.798   3.205  0.8893  0.4597  1.0019
 1186TIP3    H2 3565   1.737   2.898   3.155  0.0054 -1.7189 -1.8378
 1187TIP3   OH2 3566   2.374   1.990   3.080  0.2342 -0.5889 -0.4691
 1187TIP3    H1 3567   2.318   1.916   3.055  0.7785 -0.5358 -1.8933
 1187TIP3    H2 3568   2.418   2.016   3.000  2.3455 -0.6334  0.6129
 1188TIP3   OH2 3569   5.593   5.085   4.680  0.1752  0.0413 -0.2804
 1188TIP3    H1 3570   5.548   5.138   4.745 -2.2444  0.6344 -2.2817
 1188TIP3    H2 3571   5.627   5.148   4.617  3.0065 -0.4809  0.5594
 1189TIP3   OH2 3572   1.989   0.828   4.128  0.7557  0.0729 -0.0495
 1189TIP3    H1 3573   1.977   0.896   4.194 -0.7655  0.3078 -0.5239
 1189TIP3    H2 3574   2.004   0.875   4.046 -1.3022 -0.0759 -0.5665
 1190TIP3   OH2 3575   4.989   3.816   2.460 -0.4588 -0.0228 -0.7526
 1190TIP3    H1 3576   4.944   3.890   2.419  0.2202  0.3255 -0.8787
 1190TIP3    H2 3577   4.921   3.749   2.469 -1.2788  0.8875  0.0887
 1191TIP3   OH2 3578   4.363   0.026   1.394  0.0090 -0.0488 -0.4358
 1191TIP3    H1 3579   4.282  -0.012   1.360  0.0071 -0.9406  0.4874
 1191TIP3    H2 3580   4.429   0.007   1.327 -0.5879  0.9490 -1.3316
 1192TIP3   OH2 3581   4.363   4.750   1.300  0.1033  0.5764  0.6226
 1192TIP3    H1 3582   4.453   4.780   1.285 -0.0858  0.4994 -0.7655
 1192TIP3    H2 3583   4.361   4.727   1.393  1.9331 -0.7032  0.4131
 1193TIP3   OH2 3584   1.671   3.799   4.690 -0.1261  0.3816  0.6974
 1193TIP3    H1 3585   1.754   3.781   4.644 -0.2015  0.0681  0.6805
 1193TIP3    H2 3586   1.692   3.783   4.782 -0.3380 -0.3587  0.6280
 1194TIP3   OH2 3587   1.763   5.656   4.090  0.3781 -0.3790 -0.4575
 1194TIP3    H1 3588   1.814   5.658   4.171  1.2564 -1.5154 -0.9508
 1194TIP3    H2 3589   1.793   5.733   4.041 -0.1753  0.3246  0.2939
 1195TIP3   OH2 3590   0.093   3.615   3.550  0.3648  0.1349 -0.0057
 1195TIP3    H1 3591   0.061   3.673   3.481  0.8247 -0.1567 -0.4678
 1195TIP3    H2 3592   0.113   3.533   3.505  1.0089  0.0553  0.4174
 1196TIP3   OH2 3593   2.631   3.387   0.833 -0.4166  0.3187 -0.4784
 1196TIP3    H1 3594   2.544   3.392   0.873 -0.2365 -2.2215  0.4434
 1196TIP3    H2 3595   2.687   3.440   0.889 -0.6904 -1.0747  1.1932
 1197TIP3   OH2 3596   2.678   5.057   2.946 -0.1290 -0.1312 -0.0738
 1197TIP3    H1 3597   2.718   4.984   2.993 -1.1144 -0.3090  0.5087
 1197TIP3    H2 3598   2.605   5.019   2.898 -0.1207  0.3335 -0.4703
 1198TIP3   OH2 3599   5.043   3.608   0.817  0.3299 -0.1768  0.3665
 1198TIP3    H1 3600   5.011   3.613   0.727 -1.2058 -0.8193  0.8538
 1198TIP3    H2 3601   5.122   3.663   0.817 -0.7183  1.4262 -0.9038
 1199TIP3   OH2 3602   1.746   4.574   4.173 -0.8209 -0.3109 -0.4338
 1199TIP3    H1 3603   1.778   4.593   4.084  0.7165 -0.3682  0.0855
 1199TIP3    H2 3604   1.767   4.653   4.223 -1.1043 -0.5324  0.0394
 1200TIP3   OH2 3605   3.238   2.500   3.660 -0.2160  0.1936  0.2912
 1200TIP3    H1 3606   3.315   2.556   3.675 -1.0334  0.9028  2.3348
 1200TIP3    H2 3607   3.168   2.562   3.640 -0.4955 -0.3693 -0.5138
 1201TIP3   OH2 3608   3.288   5.389   3.032 -0.5177 -0.0041 -0.1955
 1201TIP3    H1 3609   3.299   5.315   3.092 -1.4890 -0.1085 -0.1353
 1201TIP3    H2 3610   3.330   5.463   3.077 -1.7620  0.0679  0.9002
 1202TIP3   OH2 3611   0.892   1.197   2.350  0.3136 -0.9612 -0.0390
 1202TIP3    H1 3612   0.975   1.237   2.325  1.5655 -2.5757  1.2708
 1202TIP3    H2 3613   0.880   1.222   2.441  0.8727 -3.0082  0.6557
 1203TIP3   OH2 3614   1.960   3.655   3.999 -0.1246 -0.7246  0.4417
 1203TIP3    H1 3615   2.026   3.721   4.022 -0.1186 -1.0734  1.4749
 1203TIP3    H2 3616   1.883   3.705   3.974  0.8057 -0.2826 -1.7649
 1204TIP3   OH2 3617   1.940   1.690   2.546  0.0825 -0.2310  0.6249
 1204TIP3    H1 3618   2.005   1.761   2.548 -0.7565  0.5533  1.5676
 1204TIP3    H2 3619   1.971   1.627   2.611 -0.5049  0.5547  1.7041
 1205TIP3   OH2 3620   3.142   1.741   3.593 -0.0746 -0.0145 -0.5844
 1205TIP3    H1 3621   3.189   1.685   3.655 -1.0041  1.1332  1.2214
 1205TIP3    H2 3622   3.211   1.784   3.542  0.7712  0.2685  0.7633
 1206TIP3   OH2 3623   3.610   3.789   0.053 -0.5365 -0.0625 -0.6635
 1206TIP3    H1 3624   3.570   3.774  -0.032 -2.1286 -1.3102  0.2269
 1206TIP3    H2 3625   3.548   3.846   0.099 -1.4268 -2.0034  0.7303
 1207TIP3   OH2 3626   1.292   1.508   4.228  0.2809  0.2517 -0.3831
 1207TIP3    H1 3627   1.337   1.577   4.178  0.1332  0.3254 -0.4146
 1207TIP3    H2 3628   1.204   1.506   4.191  0.6240 -0.7555 -1.1762
 1208TIP3   OH2 3629   0.957   2.617   4.924 -0.3793 -0.3069  0.1523
 1208TIP3    H1 3630   0.985   2.562   4.997 -0.5835  0.1281  0.5643
 1208TIP3    H2 3631   0.944   2.555   4.852 -0.5054 -0.7909  0.5758
 1209TIP3   OH2 3632   6.032   0.239   3.158  0.8185 -0.1154  0.2823
 1209TIP3    H1 3633   6.080   0.285   3.089  0.3266  0.0163  0.0248
 1209TIP3    H2 3634   5.998   0.160   3.116 -0.0405  0.2903  0.1944
 1210TIP3   OH2 3635   2.240   3.013   3.754  0.0991 -0.0663  0.7238
 1210TIP3    H1 3636   2.235   2.919   3.770  0.8481 -0.3673 -0.6956
 1210TIP3    H2 3637   2.178   3.051   3.817  0.3423 -1.4278  1.8296
 1211TIP3   OH2 3638   2.480   2.629   4.487 -0.5213 -0.1061 -0.0897
 1211TIP3    H1 3639   2.496   2.603   4.578  1.6499  0.8656 -0.1269
 1211TIP3    H2 3640   2.392   2.666   4.489 -2.5109 -4.2305  0.5821
 1212TIP3   OH2 3641   1.544   5.522   3.256 -0.0390  0.1865 -0.2266
 1212TIP3    H1 3642   1.606   5.459   3.291  1.4852 -0.4260 -3.6804
 1212TIP3    H2 3643   1.589   5.562   3.181 -2.8449  1.6131 -1.3034
 1213TIP3   OH2 3644   2.282   1.217   0.074  0.4175 -0.4460 -0.2674
 1213TIP3    H1 3645   2.195   1.222   0.113  1.3511  0.7087  1.8639
 1213TIP3    H2 3646   2.340   1.255   0.141  2.4472 -0.4124 -1.9519
 1214TIP3   OH2 3647   1.897   4.380   0.739 -0.0938 -0.0807 -0.1455
 1214TIP3    H1 3648   1.824   4.414   0.791  0.2794 -0.2460  0.5081
 1214TIP3    H2 3649   1.953   4.337   0.804  0.2949 -0.4452 -0.7209
 1215TIP3   OH2 3650   3.967   2.217   2.133  0.1092  0.2456 -0.3147
 1215TIP3    H1 3651   3.951   2.306   2.100  1.3461 -0.0834 -1.9502
 1215TIP3    H2 3652   4.010   2.231   2.217  0.5407  1.2326 -0.6742
 1216TIP3   OH2 3653   4.362   4.350   0.711  0.0178  0.2014  0.3586
 1216TIP3    H1 3654   4.313   4.298   0.647 -1.1046  1.1443  0.4111
 1216TIP3    H2 3655   4.395   4.425   0.660 -0.0760  0.4645  0.6802
 1217TIP3   OH2 3656   5.265   5.650   4.237 -0.1607 -0.5239 -0.1073
 1217TIP3    H1 3657   5.173   5.676   4.228 -0.2761 -0.2832  1.5302
 1217TIP3    H2 3658   5.261   5.555   4.249 -0.2598 -0.4405  0.5755
 1218TIP3   OH2 3659   4.133   2.176   1.609 -0.2755 -0.2562  0.6815
 1218TIP3    H1 3660   4.173   2.262   1.616 -0.8262 -0.1352  3.3131
 1218TIP3    H2 3661   4.068   2.174   1.679 -1.0279 -2.4327  0.0057
 1219TIP3   OH2 3662   5.656   4.605   4.386  0.1409 -0.6496  0.0209
 1219TIP3    H1 3663   5.579   4.611   4.328  1.9731 -0.5864 -2.5802
 1219TIP3    H2 3664   5.648   4.681   4.443 -1.5105 -0.4270 -0.4416
 1220TIP3   OH2 3665   4.922   1.908   0.324  0.1616  0.2273  0.3434
 1220TIP3    H1 3666   4.900   1.903   0.231  3.5183 -2.1446 -0.5404
 1220TIP3    H2 3667   4.950   1.999   0.337 -0.3418  0.5991 -0.9677
 1221TIP3   OH2 3668   5.071   3.879   3.405 -0.2030  0.7426 -0.4337
 1221TIP3    H1 3669   5.133   3.930   3.458  0.2770  0.0336 -0.2998
 1221TIP3    H2 3670   5.088   3.788   3.428  0.1176  0.3934 -1.8950
 1222TIP3   OH2 3671   1.038   3.564   2.845 -0.1240 -0.1672 -0.1160
 1222TIP3    H1 3672   0.987   3.609   2.913 -2.0330 -2.4598  0.0711
 1222TIP3    H2 3673   1.108   3.520   2.893 -0.2539 -0.1235  0.1139
 1223TIP3   OH2 3674   5.287   1.476   2.113  0.2208 -0.0699  0.0387
 1223TIP3    H1 3675   5.192   1.465   2.108  0.3653 -2.0512  0.8676
 1223TIP3    H2 3676   5.304   1.559   2.067 -1.5730 -1.1940 -2.9582
 1224TIP3   OH2 3677   2.084   1.981   1.586  0.1176  0.0954 -0.2889
 1224TIP3    H1 3678   2.174   1.954   1.600 -0.0876 -1.2799 -1.3890
 1224TIP3    H2 3679   2.055   2.014   1.671  1.1405 -1.0044  0.5182
 1225TIP3   OH2 3680   0.642   4.009   4.907 -0.1193  0.4136 -0.1069
 1225TIP3    H1 3681   0.656   4.031   4.815 -0.3587  3.0494  0.4087
 1225TIP3    H2 3682   0.576   3.939   4.905  0.1356  0.1736 -1.9277
 1226TIP3   OH2 3683   0.353   5.405   4.430  0.7248 -0.0488  0.2074
 1226TIP3    H1 3684   0.414   5.384   4.360 -0.0021  2.1241 -1.1905
 1226TIP3    H2 3685   0.377   5.493   4.458  1.1182 -0.9237  2.9108
 1227TIP3   OH2 3686   6.080   5.586   0.300  0.2563 -0.0271  0.3599
 1227TIP3    H1 3687   6.149   5.570   0.235 -0.8273  1.5582 -1.2883
 1227TIP3    H2 3688   6.117   5.555   0.382  1.7075 -2.0847 -0.9843
 1228TIP3   OH2 3689   3.862   1.153   2.449  0.3783  0.4737  0.3959
 1228TIP3    H1 3690   3.852   1.207   2.527 -1.0983  0.9892 -0.1087
 1228TIP3    H2 3691   3.836   1.066   2.477  1.1027  0.3818  0.7924
 1229TIP3   OH2 3692   5.087   4.903   4.874 -0.4929 -0.4175 -0.5258
 1229TIP3    H1 3693   5.045   4.982   4.909  2.7334  1.8477 -1.3447
 1229TIP3    H2 3694   5.082   4.915   4.779 -0.5924 -1.6146 -0.6837
 1230TIP3   OH2 3695   3.317   1.310   0.756  0.1090  0.0678 -0.3076
 1230TIP3    H1 3696   3.388   1.246   0.763  1.6538  1.7503  0.2149
 1230TIP3    H2 3697   3.295   1.310   0.663  1.4661  0.1660 -0.6545
 1231TIP3   OH2 3698   2.189   1.164   4.208 -0.5700 -0.6261  0.0357
 1231TIP3    H1 3699   2.271   1.213   4.219  1.1789 -3.1774 -0.6622
 1231TIP3    H2 3700   2.149   1.202   4.129 -1.0632  1.8507  1.3835
 1232TIP3   OH2 3701   0.032   1.128   1.893 -0.2125  0.0424  0.3604
 1232TIP3    H1 3702  -0.011   1.210   1.915  0.7379  0.6942 -0.1195
 1232TIP3    H2 3703   0.103   1.120   1.957  0.0771 -0.0807  0.0323
 1233TIP3   OH2 3704   1.752   3.453   2.999  0.1696 -0.5956 -0.1509
 1233TIP3    H1 3705   1.800   3.455   3.082  0.4482 -0.2145 -0.3137
 1233TIP3    H2 3706   1.709   3.368   2.998  1.5081 -1.3010 -0.3591
 1234TIP3   OH2 3707   4.413   4.367   3.783  0.1674 -0.3491  0.3568
 1234TIP3    H1 3708   4.503   4.334   3.778  0.5436  0.7198 -0.3635
 1234TIP3    H2 3709   4.369   4.329   3.707  0.6837  0.9745 -0.6474
 1235TIP3   OH2 3710   0.063   2.288   4.560 -0.6973  0.5522  0.0187
 1235TIP3    H1 3711   0.057   2.199   4.526 -1.2507  0.2390  0.8845
 1235TIP3    H2 3712  -0.028   2.316   4.568 -0.4956  1.6350 -1.3346
 1236TIP3   OH2 3713   2.420   0.640   1.407  0.1758  0.1892 -0.2549
 1236TIP3    H1 3714   2.349   0.577   1.414  0.8200 -0.5145 -0.0036
 1236TIP3    H2 3715   2.407   0.682   1.322 -0.9782  0.6171  0.1077
 1237TIP3   OH2 3716   2.901   2.840   4.980  0.2724  0.0603  0.1626
 1237TIP3    H1 3717   2.906   2.779   5.053  1.2997  0.0176  0.0679
 1237TIP3    H2 3718   2.827   2.808   4.927  1.1441 -1.4642 -0.1895
 1238TIP3   OH2 3719   1.476   4.538   4.230 -0.0409  0.1454 -0.3808
 1238TIP3    H1 3720   1.566   4.551   4.201 -0.2348 -1.0574 -1.6366
 1238TIP3    H2 3721   1.476   4.449   4.266 -0.5457  0.4484  0.3884
 1239TIP3   OH2 3722   1.071   1.551   0.381  0.1158 -0.6229  0.2843
 1239TIP3    H1 3723   0.985   1.510   0.395 -0.1672  0.6454  2.9416
 1239TIP3    H2 3724   1.124   1.522   0.456  1.8398 -0.8876 -0.9861
 1240TIP3   OH2 3725   6.329   4.562   2.155  0.0193  0.2454  0.1518
 1240TIP3    H1 3726   6.323   4.622   2.229 -0.3927  1.6038 -0.9355
 1240TIP3    H2 3727   6.293   4.612   2.081  0.4990 -1.0318 -0.9792
 1241TIP3   OH2 3728   5.591   3.813   1.686 -0.2021 -0.3521 -0.3876
 1241TIP3    H1 3729   5.571   3.738   1.629 -0.3652 -0.7837  0.2205
 1241TIP3    H2 3730   5.594   3.775   1.774  1.7631 -0.0108 -0.2809
 1242TIP3   OH2 3731   3.080   3.391   0.660 -0.1758  0.0086  0.2406
 1242TIP3    H1 3732   2.986   3.377   0.655 -0.2671  0.6435  0.1134
 1242TIP3    H2 3733   3.096   3.467   0.605  0.5957 -0.8652 -0.7821
 1243TIP3   OH2 3734   0.972   4.387   1.444 -0.2320 -0.3237  0.4202
 1243TIP3    H1 3735   0.939   4.460   1.391 -0.7146 -1.0220 -0.2715
 1243TIP3    H2 3736   1.014   4.428   1.519 -0.3952  0.6677 -0.0192
 1244TIP3   OH2 3737   2.864   2.825   0.512  0.0866 -0.2618  0.3636
 1244TIP3    H1 3738   2.878   2.754   0.574  0.9869 -0.2024  0.2423
 1244TIP3    H2 3739   2.804   2.885   0.556 -0.1634 -0.7795  0.7216
 1245TIP3   OH2 3740   4.438   1.860   2.932  0.3081  0.1109 -0.2669
 1245TIP3    H1 3741   4.387   1.922   2.880  0.9749  0.5646 -0.3925
 1245TIP3    H2 3742   4.382   1.783   2.939  0.0886  0.1349 -1.4456
 1246TIP3   OH2 3743   1.528   4.339   1.279  0.5523  0.3415 -0.3758
 1246TIP3    H1 3744   1.478   4.420   1.287 -1.1959 -0.8381  2.0645
 1246TIP3    H2 3745   1.481   4.287   1.214  1.9338  1.3601 -2.2862
 1247TIP3   OH2 3746   5.188   3.876   1.351  0.0320  0.2337 -0.8416
 1247TIP3    H1 3747   5.134   3.797   1.351 -1.2315  1.0684 -1.1559
 1247TIP3    H2 3748   5.229   3.877   1.437 -0.0108 -0.7125 -0.8000
 1248TIP3   OH2 3749   5.119   2.447   2.370 -0.2885 -0.0527 -0.1274
 1248TIP3    H1 3750   5.204   2.409   2.390 -1.0288 -1.0014  1.3598
 1248TIP3    H2 3751   5.078   2.386   2.309 -1.4693 -1.7561  2.2439
 1249TIP3   OH2 3752   1.446   1.528   4.765 -0.0561 -0.1247  0.1859
 1249TIP3    H1 3753   1.432   1.530   4.671 -0.2347  0.0006  0.2133
 1249TIP3    H2 3754   1.529   1.573   4.779  0.0151 -0.2240  0.0802
 1250TIP3   OH2 3755   1.650   5.241   4.914 -0.4737  0.2523  0.2882
 1250TIP3    H1 3756   1.627   5.234   5.006 -2.3823  1.4026 -0.0509
 1250TIP3    H2 3757   1.650   5.335   4.896  1.9672  0.1916 -0.4373
 1251TIP3   OH2 3758   4.596   0.864   3.724 -0.5048  0.4960 -0.3874
 1251TIP3    H1 3759   4.636   0.942   3.684 -0.8415  1.4508  1.0516
 1251TIP3    H2 3760   4.520   0.845   3.669 -0.6818  1.4805 -0.5053
 1252TIP3   OH2 3761   1.644   5.318   1.561 -0.0082 -0.2243  0.5610
 1252TIP3    H1 3762   1.671   5.246   1.617  1.0904 -1.0431 -0.9642
 1252TIP3    H2 3763   1.715   5.329   1.499 -1.1768  0.6551 -0.6841
 1253TIP3   OH2 3764   2.543   3.697   1.167 -0.0398  0.0884  0.1491
 1253TIP3    H1 3765   2.532   3.697   1.072  0.9541 -0.2060  0.0212
 1253TIP3    H2 3766   2.474   3.755   1.199 -0.1835  0.4486 -0.7730
 1254TIP3   OH2 3767   4.926   4.004   4.355  0.4422  0.4473 -0.3278
 1254TIP3    H1 3768   4.961   3.935   4.299  0.2176  0.0654 -0.0084
 1254TIP3    H2 3769   5.001   4.031   4.408  0.7712  1.1446 -1.1316
 1255TIP3   OH2 3770   2.727   3.357   1.429  0.5460  0.1615 -0.5760
 1255TIP3    H1 3771   2.744   3.451   1.417  0.2667  0.2709 -0.1633
 1255TIP3    H2 3772   2.658   3.337   1.366  0.4610  0.2838 -0.5229
 1256TIP3   OH2 3773   2.710   5.464   1.658 -0.0866 -0.7343  0.5942
 1256TIP3    H1 3774   2.742   5.389   1.709  1.3571  0.9240  2.2816
 1256TIP3    H2 3775   2.789   5.512   1.634 -0.9752  0.2262 -0.5036
 1257TIP3   OH2 3776   4.552   3.067   1.595  0.1995 -0.2494 -0.3258
 1257TIP3    H1 3777   4.579   2.979   1.568  0.5485  0.1523 -1.3605
 1257TIP3    H2 3778   4.580   3.075   1.686  2.2368 -0.4052 -0.8919
 1258TIP3   OH2 3779   1.945   3.186   4.767  0.0536  0.3245  0.0134
 1258TIP3    H1 3780   1.889   3.109   4.778  0.8553 -0.2328  0.2387
 1258TIP3    H2 3781   1.910   3.230   4.690 -0.3083 -0.3552 -0.2191
 1259TIP3   OH2 3782   4.721   5.382   2.112 -0.2775  0.1227  0.6848
 1259TIP3    H1 3783   4.772   5.365   2.191  0.3545 -0.1754  0.2298
 1259TIP3    H2 3784   4.647   5.435   2.141  0.1614  0.3546  1.4081
 1260TIP3   OH2 3785   4.119   2.856   1.772 -0.3134 -0.3391 -0.3079
 1260TIP3    H1 3786   4.164   2.790   1.825 -0.8602  0.3749  1.1113
 1260TIP3    H2 3787   4.176   2.933   1.776 -0.5948 -0.1258 -0.3309
 1261TIP3   OH2 3788   2.490   2.367   2.760 -0.0204  0.3674  0.4495
 1261TIP3    H1 3789   2.401   2.394   2.738 -0.5718 -1.1946  0.6079
 1261TIP3    H2 3790   2.500   2.389   2.853 -0.0215  1.0700  0.2892
 1262TIP3   OH2 3791   4.956   4.935   2.026 -0.4160  0.1267  0.0748
 1262TIP3    H1 3792   4.935   5.028   2.033  1.1391  0.4024  1.7307
 1262TIP3    H2 3793   5.022   4.930   1.957 -2.7088 -0.2391 -2.2742
 1263TIP3   OH2 3794   2.627   4.561   1.972 -0.9536 -0.3956  0.0893
 1263TIP3    H1 3795   2.700   4.601   2.017 -0.3166  1.3052 -2.2332
 1263TIP3    H2 3796   2.549   4.603   2.008 -0.7917 -1.5626  1.9234
 1264TIP3   OH2 3797   2.639   4.702   3.588  0.2440  0.7354 -0.3680
 1264TIP3    H1 3798   2.581   4.774   3.613  1.2035  1.1617  0.7308
 1264TIP3    H2 3799   2.704   4.698   3.658 -1.2259 -2.9514  1.0566
 1265TIP3   OH2 3800   3.442   0.639   2.782 -0.2069  0.2177 -0.0469
 1265TIP3    H1 3801   3.394   0.704   2.835 -0.4349 -1.0218  1.3382
 1265TIP3    H2 3802   3.378   0.610   2.717 -0.6948  0.0893  0.4726
 1266TIP3   OH2 3803   5.385   1.197   3.865 -0.6067  0.1757 -0.0117
 1266TIP3    H1 3804   5.434   1.129   3.818 -1.8988 -1.3939  0.7968
 1266TIP3    H2 3805   5.314   1.221   3.804 -0.9034 -0.1515  0.2006
 1267TIP3   OH2 3806   4.777   3.623   2.543 -0.3136  0.2073 -0.0266
 1267TIP3    H1 3807   4.758   3.540   2.587  1.9924 -0.9573 -1.0182
 1267TIP3    H2 3808   4.801   3.598   2.454 -0.3084  2.0358 -0.5782
 1268TIP3   OH2 3809   1.016   5.701   4.601 -0.2370 -0.5778  0.8447
 1268TIP3    H1 3810   1.091   5.655   4.563 -0.7354 -0.9608  0.3117
 1268TIP3    H2 3811   0.965   5.632   4.644 -0.2827 -0.3155  1.2166
 1269TIP3   OH2 3812   2.770   3.315   0.612  0.3785  0.1566  0.0011
 1269TIP3    H1 3813   2.767   3.235   0.560 -1.6719  0.9883 -1.3022
 1269TIP3    H2 3814   2.708   3.299   0.683  1.6439 -0.2099  1.0499
 1270TIP3   OH2 3815   3.509   0.899   2.375  0.3733  0.1689  0.2097
 1270TIP3    H1 3816   3.453   0.938   2.442  0.2912  1.0048 -0.3289
 1270TIP3    H2 3817   3.510   0.963   2.304 -1.8691 -1.8436 -1.8555
 1271TIP3   OH2 3818   5.482   4.589   2.344  0.0985  0.6944 -0.2639
 1271TIP3    H1 3819   5.444   4.559   2.427  0.5381  1.2428  0.1406
 1271TIP3    H2 3820   5.575   4.567   2.350 -0.0767 -0.3266 -1.1094
 1272TIP3   OH2 3821   4.684   0.849   3.216  0.1643 -0.4250  0.1769
 1272TIP3    H1 3822   4.681   0.817   3.125 -0.3322 -3.0526  1.0433
 1272TIP3    H2 3823   4.679   0.944   3.207  0.8115 -0.5488 -2.5765
 1273TIP3   OH2 3824   4.090   2.566   4.922 -0.4538  0.5591  0.1142
 1273TIP3    H1 3825   4.177   2.571   4.961 -0.4294 -1.3236  0.4043
 1273TIP3    H2 3826   4.087   2.638   4.859  1.8069 -0.1293 -0.8518
 1274TIP3   OH2 3827   4.824   0.764   0.128 -0.0061 -0.4546 -0.8789
 1274TIP3    H1 3828   4.908   0.728   0.100  0.5102  0.4301 -0.5119
 1274TIP3    H2 3829   4.827   0.856   0.101 -0.2088 -0.0157  0.5120
 1275TIP3   OH2 3830   3.078   2.219   2.043  0.3394  0.3826 -0.3159
 1275TIP3    H1 3831   3.135   2.218   2.120  0.0228  0.5967 -0.0737
 1275TIP3    H2 3832   3.041   2.307   2.042  1.6557  0.9543 -1.7066
 1276TIP3   OH2 3833   0.789   5.373   5.058  0.1242 -0.2332  0.4646
 1276TIP3    H1 3834   0.804   5.300   4.998 -0.0041  0.9598 -1.0574
 1276TIP3    H2 3835   0.877   5.399   5.087  0.4754  1.2100 -1.7195
 1277TIP3   OH2 3836   2.165   3.543   3.380 -0.0819  0.1983 -0.0737
 1277TIP3    H1 3837   2.074   3.559   3.402 -0.5132 -0.2374 -1.4080
 1277TIP3    H2 3838   2.207   3.521   3.463 -0.9810  1.2798  0.6991
 1278TIP3   OH2 3839   3.010   1.943   0.461  0.5710 -0.5147 -0.2394
 1278TIP3    H1 3840   3.050   1.980   0.382 -0.5834 -0.6683 -0.9308
 1278TIP3    H2 3841   3.067   1.871   0.486  2.1916  0.9082  0.4066
 1279TIP3   OH2 3842   0.076   4.763   4.299  0.2604 -0.2108 -0.1092
 1279TIP3    H1 3843   0.103   4.723   4.216 -1.1626  0.8050 -1.1273
 1279TIP3    H2 3844  -0.017   4.741   4.306  0.7726 -2.0146  2.3081
 1280TIP3   OH2 3845   2.666   3.831   0.445  0.0542  0.0867 -0.3924
 1280TIP3    H1 3846   2.600   3.860   0.381 -0.7033  0.8921  0.7239
 1280TIP3    H2 3847   2.723   3.772   0.395 -1.5813 -0.7471 -1.3768
 1281TIP3   OH2 3848   3.086   0.451   2.883  0.5950 -0.3960  0.3660
 1281TIP3    H1 3849   3.069   0.481   2.973 -0.0946 -0.0805  0.1376
 1281TIP3    H2 3850   3.071   0.529   2.829 -0.7281 -1.0187 -0.1950
 1282TIP3   OH2 3851   4.810   2.622   4.582 -0.3182 -0.1341  0.1525
 1282TIP3    H1 3852   4.888   2.620   4.527  1.0292  0.3113  1.9432
 1282TIP3    H2 3853   4.843   2.609   4.671 -2.2588  0.3590  0.9983
 1283TIP3   OH2 3854   2.981   1.878   0.026  0.4047 -0.3817 -0.0282
 1283TIP3    H1 3855   2.970   1.860  -0.068  0.1614 -1.8748  0.2614
 1283TIP3    H2 3856   2.909   1.938   0.048 -0.2193 -0.9251 -0.5629
 1284TIP3   OH2 3857   6.007   1.720   4.323  0.9210 -0.3156  0.5459
 1284TIP3    H1 3858   5.965   1.804   4.342  1.4297 -0.3146  1.7362
 1284TIP3    H2 3859   6.042   1.731   4.234 -0.6996  0.0205 -0.0738
 1285TIP3   OH2 3860   5.136   3.151   0.040 -0.5440 -0.1082  0.7298
 1285TIP3    H1 3861   5.142   3.227   0.098 -0.9541 -0.1852  0.8780
 1285TIP3    H2 3862   5.111   3.079   0.097  0.5216 -0.5098  0.7037
 1286TIP3   OH2 3863   5.658   2.437   3.198  0.5776  0.2811  0.2961
 1286TIP3    H1 3864   5.609   2.382   3.259  1.1634 -1.8023 -0.9852
 1286TIP3    H2 3865   5.594   2.499   3.164 -0.5949 -0.8085  0.4437
 1287TIP3   OH2 3866   4.311   5.730   1.515  0.1769 -0.3208 -0.5151
 1287TIP3    H1 3867   4.376   5.660   1.521 -0.0257 -0.4221  0.5793
 1287TIP3    H2 3868   4.252   5.715   1.588 -0.3069  0.5583 -0.7135
 1288TIP3   OH2 3869   2.177   4.333   3.891 -0.4743  0.1673  0.3509
 1288TIP3    H1 3870   2.145   4.244   3.900 -2.9823  1.0577  1.2219
 1288TIP3    H2 3871   2.228   4.349   3.970 -0.6770 -0.2422  0.5624
 1289TIP3   OH2 3872   2.855   4.999   3.628 -0.1526 -0.1100  0.2709
 1289TIP3    H1 3873   2.789   4.993   3.697  1.4041 -2.1909  1.7038
 1289TIP3    H2 3874   2.864   4.909   3.596  1.7491  0.1560 -0.0651
 1290TIP3   OH2 3875   1.735  -0.004   4.223  0.3213  0.7270  0.0612
 1290TIP3    H1 3876   1.793  -0.046   4.286  1.2994  1.6972 -0.1572
 1290TIP3    H2 3877   1.793   0.053   4.172 -0.2351 -0.8483 -2.4742
 1291TIP3   OH2 3878   0.413   1.171   1.455  0.1519  0.5149  0.6111
 1291TIP3    H1 3879   0.322   1.191   1.478  0.3856  1.2825  0.8855
 1291TIP3    H2 3880   0.464   1.242   1.493  0.6883  1.1091 -1.1152
 1292TIP3   OH2 3881   4.449   2.666   3.452  0.2929 -0.2213  0.4812
 1292TIP3    H1 3882   4.535   2.691   3.486  2.0070  0.2877 -3.6516
 1292TIP3    H2 3883   4.388   2.728   3.491  2.3100  1.4536  1.1454
 1293TIP3   OH2 3884   2.724   0.759   4.381  0.4163  0.3222 -0.0860
 1293TIP3    H1 3885   2.754   0.848   4.397 -2.1813  1.1883  0.4225
 1293TIP3    H2 3886   2.666   0.740   4.455 -1.8895 -0.4101 -1.9552
 1294TIP3   OH2 3887   0.881   4.305   0.832 -0.8092 -0.2188  0.0857
 1294TIP3    H1 3888   0.926   4.291   0.749  0.6711 -1.0879  0.9656
 1294TIP3    H2 3889   0.895   4.398   0.852  0.7543 -0.4777  0.3677
 1295TIP3   OH2 3890   2.895   3.460   2.300  0.7754 -0.1367  0.4020
 1295TIP3    H1 3891   2.854   3.518   2.236 -1.8649 -0.4729  1.6475
 1295TIP3    H2 3892   2.951   3.517   2.352  1.1383  0.5631 -0.7337
 1296TIP3   OH2 3893   1.484   5.157   3.794 -0.2305  0.2326 -0.1531
 1296TIP3    H1 3894   1.557   5.139   3.853 -0.9342  0.9400  0.9799
 1296TIP3    H2 3895   1.422   5.086   3.811 -0.3292  0.3010 -0.2286
 1297TIP3   OH2 3896   3.987   5.890   1.886 -0.5530  0.4820 -0.2370
 1297TIP3    H1 3897   3.990   5.984   1.867  0.5595  0.1719 -1.7892
 1297TIP3    H2 3898   3.977   5.885   1.981  1.5382  2.1902  0.1578
 1298TIP3   OH2 3899   4.474   2.408   2.957  0.1124  0.2023  0.9034
 1298TIP3    H1 3900   4.443   2.365   3.037 -1.8070 -4.1763 -1.7731
 1298TIP3    H2 3901   4.422   2.368   2.888  2.5035  2.7831 -2.7146
 1299TIP3   OH2 3902   4.505   1.924   5.173 -0.0667  0.3683  0.0155
 1299TIP3    H1 3903   4.588   1.879   5.156  1.0805  2.4159 -0.2818
 1299TIP3    H2 3904   4.480   1.961   5.088 -1.4192 -0.3670  0.0660
 1300TIP3   OH2 3905   4.207   3.833   3.096 -0.2534 -0.3295 -0.1874
 1300TIP3    H1 3906   4.203   3.760   3.035  0.8187 -0.5507 -0.0012
 1300TIP3    H2 3907   4.162   3.904   3.050 -1.6598 -1.1928 -0.2059
 1301TIP3   OH2 3908   6.185   1.262   4.994 -0.6343  0.2694 -0.2990
 1301TIP3    H1 3909   6.099   1.288   5.027 -1.1004  0.4111 -1.5519
 1301TIP3    H2 3910   6.241   1.259   5.071 -1.5285  1.1522  0.4120
 1302TIP3   OH2 3911   5.572   0.822   0.705  0.4094  0.3298 -0.1630
 1302TIP3    H1 3912   5.548   0.731   0.722 -0.4739  0.9139  2.0302
 1302TIP3    H2 3913   5.504   0.854   0.646  1.2514 -0.6390 -1.7332
 1303TIP3   OH2 3914   6.301   1.519   3.836 -0.1487  0.1770 -0.1008
 1303TIP3    H1 3915   6.281   1.585   3.770 -1.0925 -0.1980 -0.2024
 1303TIP3    H2 3916   6.394   1.500   3.824  0.8289  3.2089  1.4889
 1304TIP3   OH2 3917   4.599   2.613   2.564 -0.1322  0.1440  0.3941
 1304TIP3    H1 3918   4.682   2.602   2.610 -0.7826 -0.7665  1.3983
 1304TIP3    H2 3919   4.586   2.708   2.559  0.8895  0.2835  0.3502
 1305TIP3   OH2 3920   4.980   5.716   4.206  0.1264 -0.3684 -0.0645
 1305TIP3    H1 3921   4.924   5.662   4.262  0.5181 -1.2694 -0.5270
 1305TIP3    H2 3922   4.953   5.806   4.225 -1.1580 -0.7606  0.0517
 1306TIP3   OH2 3923   0.096   5.496   1.431  0.0277 -0.2167  0.7315
 1306TIP3    H1 3924   0.073   5.435   1.501 -0.3974 -0.3622  0.4700
 1306TIP3    H2 3925   0.082   5.446   1.351 -1.0108  0.4484  0.4874
 1307TIP3   OH2 3926   5.371   4.780   3.329  0.0982 -0.2294  0.2693
 1307TIP3    H1 3927   5.435   4.733   3.383  0.8132 -1.0583 -1.2435
 1307TIP3    H2 3928   5.289   4.730   3.340  0.6541 -1.4243 -0.6864
 1308TIP3   OH2 3929   3.788   3.125   0.774  0.4132  0.2889 -0.7317
 1308TIP3    H1 3930   3.824   3.051   0.726 -0.2251 -0.0175 -0.7386
 1308TIP3    H2 3931   3.704   3.143   0.732 -0.0244  0.1963  0.0784
 1309TIP3   OH2 3932   4.967   3.826   1.616 -0.4140  0.2419 -0.1291
 1309TIP3    H1 3933   4.995   3.786   1.533  0.2716 -0.6546  0.5133
 1309TIP3    H2 3934   5.014   3.776   1.683 -2.0264  0.0364  0.8880
 1310TIP3   OH2 3935   5.910   1.117   2.402 -0.5216 -0.0981 -0.0858
 1310TIP3    H1 3936   5.993   1.086   2.436  0.1805  0.2071 -1.4628
 1310TIP3    H2 3937   5.868   1.039   2.365  0.3298  0.1756 -1.7069
 1311TIP3   OH2 3938   0.873   3.292   0.462 -0.6112  0.2157  0.8912
 1311TIP3    H1 3939   0.810   3.330   0.401  0.1268 -0.4802 -0.3408
 1311TIP3    H2 3940   0.948   3.268   0.408  0.2530 -0.0311  2.1447
 1312TIP3   OH2 3941   4.332   4.529   2.977  0.4954 -0.0508  0.5416
 1312TIP3    H1 3942   4.378   4.592   2.921  1.0293 -0.2623  0.7368
 1312TIP3    H2 3943   4.369   4.444   2.954 -0.8356 -0.4219 -0.3347
 1313TIP3   OH2 3944   3.080   5.578   1.781  0.1284 -0.7215  0.5529
 1313TIP3    H1 3945   3.044   5.634   1.850  0.7834  3.8441 -2.3897
 1313TIP3    H2 3946   3.170   5.561   1.809  0.5392  1.4393  0.7623
 1314TIP3   OH2 3947   3.140   0.889   2.494 -0.3641 -0.5634 -0.2744
 1314TIP3    H1 3948   3.194   0.966   2.513 -1.1076 -0.5937  2.3772
 1314TIP3    H2 3949   3.130   0.890   2.399  0.9957  1.6741 -0.4748
 1315TIP3   OH2 3950   3.386   0.313   3.919 -0.2307  0.3488  0.2441
 1315TIP3    H1 3951   3.391   0.230   3.870  0.8391  1.6120 -1.9560
 1315TIP3    H2 3952   3.474   0.327   3.952 -0.2302  0.9317  0.0117
 1316TIP3   OH2 3953   4.982   4.286   0.034 -0.4015  0.0174  0.1368
 1316TIP3    H1 3954   5.000   4.324   0.120 -0.8706  0.6843 -0.0493
 1316TIP3    H2 3955   5.045   4.328  -0.025  0.5790 -1.1615  0.3136
 1317TIP3   OH2 3956   3.848   1.763   0.304  0.3930 -0.4217 -0.1237
 1317TIP3    H1 3957   3.903   1.828   0.261 -0.9629  0.3501 -0.7782
 1317TIP3    H2 3958   3.875   1.680   0.266  2.3984 -0.3257  0.9834
 1318TIP3   OH2 3959   4.785   4.269   2.804 -0.2637  0.6626  0.3475
 1318TIP3    H1 3960   4.706   4.258   2.751 -0.7352  2.0028  0.7274
 1318TIP3    H2 3961   4.800   4.183   2.843 -0.0947 -0.2907 -1.6525
 1319TIP3   OH2 3962   1.265   3.325   0.884  0.7313  0.7625  0.1886
 1319TIP3    H1 3963   1.265   3.259   0.815 -0.4470  1.1216 -0.1773
 1319TIP3    H2 3964   1.326   3.291   0.949 -0.9601 -1.4663  0.7304
 1320TIP3   OH2 3965   1.878   0.671   1.219 -0.8417  0.1960 -0.1356
 1320TIP3    H1 3966   1.908   0.580   1.219 -0.8944  0.1784 -0.1524
 1320TIP3    H2 3967   1.934   0.716   1.157 -1.4853 -0.0483 -0.9071
 1321TIP3   OH2 3968   1.666   0.328   1.486  0.3970  0.2986 -0.3465
 1321TIP3    H1 3969   1.672   0.328   1.582  0.2496  2.1205 -0.3074
 1321TIP3    H2 3970   1.573   0.340   1.468  0.4182 -0.0948 -0.7285
 1322TIP3   OH2 3971   4.651   3.733   3.576 -0.3905 -0.2732  0.3992
 1322TIP3    H1 3972   4.712   3.806   3.583 -0.0577 -0.4082 -0.8792
 1322TIP3    H2 3973   4.588   3.760   3.509 -1.6558 -0.2157  1.5447
 1323TIP3   OH2 3974   3.512   1.476   2.113 -0.4065  1.0780  0.0770
 1323TIP3    H1 3975   3.423   1.464   2.147 -0.8115  1.9458 -0.6038
 1323TIP3    H2 3976   3.540   1.560   2.148  0.5223  0.4053  1.0130
 1324TIP3   OH2 3977   0.096   2.237   2.345  0.4293  0.9304  0.4533
 1324TIP3    H1 3978   0.070   2.274   2.261 -0.9160  1.6329  1.1570
 1324TIP3    H2 3979   0.192   2.246   2.347  0.5453  0.4069 -1.2079
 1325TIP3   OH2 3980   5.087   0.898   1.968 -0.7320  0.1044 -0.4752
 1325TIP3    H1 3981   5.151   0.931   2.031 -0.2603  0.9311 -1.3684
 1325TIP3    H2 3982   5.049   0.821   2.011  1.1560 -0.6714 -0.0903
 1326TIP3   OH2 3983   3.260   1.981   2.390  0.2442 -0.2412 -0.0414
 1326TIP3    H1 3984   3.265   1.992   2.295  0.0681 -1.0310 -0.1557
 1326TIP3    H2 3985   3.252   2.070   2.424  2.6463  0.2634 -0.5892
 1327TIP3   OH2 3986   2.840   1.455   2.656  0.0869  0.1951 -0.3675
 1327TIP3    H1 3987   2.844   1.363   2.629 -1.2314  0.1933 -0.6279
 1327TIP3    H2 3988   2.796   1.453   2.741  1.5385  0.4592  0.4139
 1328TIP3   OH2 3989   2.808   2.225   1.589 -0.2616 -0.0600  0.1810
 1328TIP3    H1 3990   2.761   2.167   1.649 -0.1869 -1.3411 -0.9627
 1328TIP3    H2 3991   2.889   2.180   1.570  0.6068  1.2559  0.6259
 1329TIP3   OH2 3992   2.149   4.175   5.086  0.5636 -0.3689 -0.3702
 1329TIP3    H1 3993   2.131   4.266   5.109  2.9684 -0.1443  0.9846
 1329TIP3    H2 3994   2.078   4.125   5.125  0.9534  0.6713  1.8425
 1330TIP3   OH2 3995   1.171   5.895   3.242 -0.1066 -0.0858 -0.4404
 1330TIP3    H1 3996   1.137   5.825   3.185  0.5156 -0.1980 -0.6882
 1330TIP3    H2 3997   1.184   5.852   3.326  0.2078 -0.2576 -0.5731
 1331TIP3   OH2 3998   4.949   2.189   0.349  0.3129 -0.0697 -0.2029
 1331TIP3    H1 3999   4.895   2.217   0.423 -1.1522 -1.7313 -0.5602
 1331TIP3    H2 4000   4.929   2.252   0.280  1.0617  1.0098  0.5390
 1332TIP3   OH2 4001   0.920   3.179   3.790  0.6158 -0.2504  0.5152
 1332TIP3    H1 4002   0.989   3.204   3.729 -0.1529  0.6005 -0.0531
 1332TIP3    H2 4003   0.860   3.127   3.737 -0.9963  1.9856 -0.0375
 1333TIP3   OH2 4004   6.288   3.659   1.041  0.0466 -0.2527 -0.3400
 1333TIP3    H1 4005   6.266   3.727   0.976  0.9936  0.1522 -0.2580
 1333TIP3    H2 4006   6.231   3.585   1.019 -2.8101  1.3623  1.0579
 1334TIP3   OH2 4007   1.993   1.647   3.045 -0.1679 -0.2442 -0.4182
 1334TIP3    H1 4008   2.076   1.687   3.019 -0.4742  0.6951  0.0415
 1334TIP3    H2 4009   2.015   1.554   3.057  1.3032  0.2927  1.6726
 1335TIP3   OH2 4010   3.209   5.446   0.889  0.0581 -0.1229  0.6054
 1335TIP3    H1 4011   3.281   5.426   0.829  0.4473 -0.9118  1.3192
 1335TIP3    H2 4012   3.197   5.366   0.940 -0.3869  0.4710  1.4634
 1336TIP3   OH2 4013   5.853   2.229   2.407  0.4286 -0.0807  0.2894
 1336TIP3    H1 4014   5.801   2.297   2.363 -0.1328 -0.4662  0.3552
 1336TIP3    H2 4015   5.916   2.201   2.341  0.8235  0.6632  0.3304
 1337TIP3   OH2 4016   4.846   1.976   0.052  0.4931  0.1714  0.9869
 1337TIP3    H1 4017   4.778   2.038   0.029 -0.8648 -1.1573  1.2197
 1337TIP3    H2 4018   4.910   1.982  -0.018 -1.4964 -0.8511 -1.0392
 1338TIP3   OH2 4019   4.450   4.003   0.343 -0.2910  0.0379 -0.1842
 1338TIP3    H1 4020   4.397   3.954   0.405 -0.8567  0.0085 -0.6827
 1338TIP3    H2 4021   4.539   3.972   0.357 -0.7671 -2.0519 -1.3125
 1339TIP3   OH2 4022   4.117   4.788   0.774  0.4866 -0.4740  0.8454
 1339TIP3    H1 4023   4.121   4.727   0.847  0.9638 -0.0391  1.1861
 1339TIP3    H2 4024   4.188   4.850   0.790 -0.8909  1.0543  1.2921
 1340TIP3   OH2 4025   4.239   0.191   2.503 -0.0603 -0.4416 -0.3188
 1340TIP3    H1 4026   4.183   0.163   2.430  1.0610  0.0358 -1.3953
 1340TIP3    H2 4027   4.309   0.240   2.461  0.5166 -0.0117  1.1210
 1341TIP3   OH2 4028   5.587   4.280   3.379 -0.7151 -0.1245  0.5212
 1341TIP3    H1 4029   5.679   4.272   3.404 -0.8962 -0.1293  1.2035
 1341TIP3    H2 4030   5.539   4.242   3.452 -1.2892  0.5085  0.4800
 1342TIP3   OH2 4031   0.138   2.952   2.657 -0.3885 -0.0330  0.2622
 1342TIP3    H1 4032   0.177   2.877   2.612 -1.3374 -0.6884  0.5120
 1342TIP3    H2 4033   0.066   2.915   2.708 -0.0993  0.8771  1.3699
 1343TIP3   OH2 4034   0.653   0.475   4.468 -0.8214  0.4610  0.1133
 1343TIP3    H1 4035   0.606   0.463   4.551 -1.8269  0.4119 -0.4528
 1343TIP3    H2 4036   0.675   0.386   4.441 -0.5593  0.4722  0.2855
 1344TIP3   OH2 4037   1.174   0.240   4.121  0.4379 -0.0952  0.4220
 1344TIP3    H1 4038   1.208   0.306   4.061 -1.3310 -0.2312 -0.8245
 1344TIP3    H2 4039   1.161   0.287   4.203 -1.3753  1.3578 -0.6156
 1345TIP3   OH2 4040   3.637   4.642   1.852 -0.1671  0.1747 -0.5573
 1345TIP3    H1 4041   3.614   4.552   1.874 -0.8077  0.6348  0.7443
 1345TIP3    H2 4042   3.570   4.669   1.788 -0.7542  0.1370  0.0298
 1346TIP3   OH2 4043   1.351   4.186   1.143 -0.1144 -0.3416 -0.6665
 1346TIP3    H1 4044   1.282   4.174   1.208 -0.1234 -0.9878 -0.7832
 1346TIP3    H2 4045   1.320   4.139   1.066  0.9561 -1.6534 -0.3396
 1347TIP3   OH2 4046   1.555   1.213   0.559 -0.0315 -0.4613 -0.3379
 1347TIP3    H1 4047   1.645   1.210   0.527  0.2647 -1.0431  0.5072
 1347TIP3    H2 4048   1.540   1.305   0.580  0.2278 -0.2958 -0.8640
 1348TIP3   OH2 4049   2.400   5.406   0.750  0.3887  0.1312 -0.2561
 1348TIP3    H1 4050   2.381   5.455   0.830 -0.2848  0.5104 -0.6322
 1348TIP3    H2 4051   2.332   5.434   0.688  1.6132  0.7824 -1.3575
 1349TIP3   OH2 4052   5.294   4.201   3.899  0.6083  0.4002  0.7195
 1349TIP3    H1 4053   5.211   4.162   3.925  0.7121  1.4781  2.8798
 1349TIP3    H2 4054   5.353   4.126   3.888  0.0963 -0.2488  2.0955
 1350TIP3   OH2 4055   3.357   0.503   0.882  0.3976 -0.1464 -0.1594
 1350TIP3    H1 4056   3.301   0.576   0.908  0.1981 -0.8125  1.3447
 1350TIP3    H2 4057   3.432   0.544   0.840  0.1131  0.9007  0.3347
 1351TIP3   OH2 4058   0.801   0.603   2.854  0.2291 -0.0425 -0.7053
 1351TIP3    H1 4059   0.752   0.539   2.905 -2.2739  0.0685 -2.7230
 1351TIP3    H2 4060   0.733   0.661   2.818  1.8923  0.4996 -3.2302
 1352TIP3   OH2 4061   2.351   3.570   3.174  0.9088  0.0666  0.5480
 1352TIP3    H1 4062   2.347   3.661   3.146 -1.4684 -0.3948 -0.9094
 1352TIP3    H2 4063   2.293   3.566   3.251 -2.6124 -0.8590 -1.8945
 1353TIP3   OH2 4064   2.281   3.837   0.522 -0.1475  0.0241  0.3379
 1353TIP3    H1 4065   2.340   3.874   0.588  1.1223  0.5458 -1.0329
 1353TIP3    H2 4066   2.256   3.752   0.557  0.6507  0.2026  1.4057
 1354TIP3   OH2 4067   1.153   5.468   2.761  0.4153  0.0302 -0.5221
 1354TIP3    H1 4068   1.205   5.477   2.841 -1.9974  1.1412  1.0250
 1354TIP3    H2 4069   1.100   5.547   2.756  1.4411  0.7048 -4.0758
 1355TIP3   OH2 4070   3.130   3.224   1.465 -0.3698 -0.5758 -0.7721
 1355TIP3    H1 4071   3.106   3.176   1.545  0.5705 -0.9036 -0.6629
 1355TIP3    H2 4072   3.100   3.313   1.481  2.1554  0.0771  1.1857
 1356TIP3   OH2 4073   1.938   1.606   3.544 -0.1138  0.4457 -0.2202
 1356TIP3    H1 4074   1.936   1.684   3.490  0.2522  0.7664  0.2162
 1356TIP3    H2 4075   1.854   1.605   3.590  0.5572  1.5777  1.1241
 1357TIP3   OH2 4076   6.256   1.534   3.087 -0.2399  0.2381 -0.0170
 1357TIP3    H1 4077   6.179   1.507   3.137  1.2698  2.1045  3.7879
 1357TIP3    H2 4078   6.223   1.601   3.027 -1.7452  0.3894  0.9111
 1358TIP3   OH2 4079   3.510   4.916   3.401  0.9663 -0.2239  0.0145
 1358TIP3    H1 4080   3.457   4.891   3.325  1.3294 -0.6076 -0.1197
 1358TIP3    H2 4081   3.496   4.845   3.464 -0.1357  0.5919  0.7219
 1359TIP3   OH2 4082   5.787   2.752   2.735  0.3352  0.2666 -0.0884
 1359TIP3    H1 4083   5.839   2.752   2.654 -0.9978  1.4597 -0.9889
 1359TIP3    H2 4084   5.717   2.815   2.719 -0.5310 -0.1830  1.6548
 1360TIP3   OH2 4085   0.088   4.560   4.510  0.6599  0.1853  0.0734
 1360TIP3    H1 4086   0.044   4.546   4.593 -1.1339  0.3361 -0.8001
 1360TIP3    H2 4087   0.075   4.653   4.491 -1.1979 -0.3043 -1.5007
 1361TIP3   OH2 4088   2.110   0.724   0.714  0.2320 -0.0795  0.0742
 1361TIP3    H1 4089   2.016   0.710   0.723  0.2991 -0.3094  0.4550
 1361TIP3    H2 4090   2.121   0.764   0.628 -0.4186  1.7742  0.7870
 1362TIP3   OH2 4091   2.791   3.046   0.119  0.1518  0.1417  0.1741
 1362TIP3    H1 4092   2.735   2.994   0.178 -1.9448 -0.2347 -1.9828
 1362TIP3    H2 4093   2.731   3.109   0.079  1.6845  0.9843 -0.8865
 1363TIP3   OH2 4094   0.987   2.307   0.222  0.4738 -0.4782  0.1679
 1363TIP3    H1 4095   1.036   2.331   0.301  1.2771 -0.2316 -0.3883
 1363TIP3    H2 4096   1.049   2.323   0.150 -0.0361 -1.2781 -0.4650
 1364TIP3   OH2 4097   5.104   5.284   2.083 -0.0069  0.8177  0.1182
 1364TIP3    H1 4098   5.054   5.306   2.162  0.0573 -2.2165  1.1135
 1364TIP3    H2 4099   5.191   5.319   2.101  0.8669 -2.2649  2.8675
 1365TIP3   OH2 4100   1.818   5.930   4.514 -0.1611 -0.2620  0.3903
 1365TIP3    H1 4101   1.879   5.940   4.587  0.7653 -1.6945 -0.1366
 1365TIP3    H2 4102   1.828   6.010   4.463 -0.2632  0.4234  1.4196
 1366TIP3   OH2 4103   0.219   3.945   2.957 -0.0706  0.4192 -0.6891
 1366TIP3    H1 4104   0.221   3.851   2.942  0.1785  0.4695 -0.9733
 1366TIP3    H2 4105   0.292   3.979   2.907 -0.5770  0.8466 -1.1455
 1367TIP3   OH2 4106   2.832   2.743   4.528 -0.3422  0.4936  0.3955
 1367TIP3    H1 4107   2.894   2.801   4.572 -1.5838  0.3433  2.4396
 1367TIP3    H2 4108   2.820   2.670   4.589 -1.0412 -0.4680 -0.8431
 1368TIP3   OH2 4109   6.298   2.847   4.527 -0.2676 -0.2577  0.9866
 1368TIP3    H1 4110   6.338   2.813   4.446  0.3048  0.3394  1.0082
 1368TIP3    H2 4111   6.234   2.911   4.497 -0.4486 -0.4402  0.9861
 1369TIP3   OH2 4112   2.174   1.479   1.903 -0.0028  0.1620  0.3855
 1369TIP3    H1 4113   2.144   1.505   1.816 -0.3788 -0.6991  0.2455
 1369TIP3    H2 4114   2.201   1.561   1.945 -2.5139  1.0259  0.5089
 1370TIP3   OH2 4115   3.885   1.797   5.187  0.4540 -0.5138 -0.1114
 1370TIP3    H1 4116   3.810   1.739   5.200 -0.1266  0.0566 -0.8021
 1370TIP3    H2 4117   3.864   1.845   5.107  1.1082  0.3623  0.2292
 1371TIP3   OH2 4118   5.372   1.597   4.344  0.5792  0.1591 -0.4897
 1371TIP3    H1 4119   5.448   1.560   4.299  0.7343  0.2615 -0.3155
 1371TIP3    H2 4120   5.315   1.522   4.360  0.9150 -0.0197 -0.0950
 1372TIP3   OH2 4121   6.162   3.717   4.846  0.0522 -0.2327 -0.1308
 1372TIP3    H1 4122   6.238   3.749   4.894 -0.1214  1.3190 -0.8205
 1372TIP3    H2 4123   6.119   3.657   4.906  2.0432 -1.5142  0.1082
 1373TIP3   OH2 4124   2.757   1.873   4.027  0.3418  0.5793  0.1842
 1373TIP3    H1 4125   2.774   1.787   3.988  0.4161  1.4596 -1.8713
 1373TIP3    H2 4126   2.736   1.854   4.118  1.7889 -1.4848  0.1604
 1374TIP3   OH2 4127   4.909   2.038   1.031 -0.2974  0.5834 -0.0510
 1374TIP3    H1 4128   5.000   2.055   1.008  0.5685  0.2492  2.7586
 1374TIP3    H2 4129   4.876   1.986   0.958  1.2916  1.8633 -1.8108
 1375TIP3   OH2 4130   4.707   2.267   2.093 -0.5946  0.6072  0.1713
 1375TIP3    H1 4131   4.747   2.316   2.021 -0.8750  0.1962 -0.2775
 1375TIP3    H2 4132   4.617   2.251   2.064 -0.1046 -1.4732 -0.4003
 1376TIP3   OH2 4133   0.553   2.122   3.437  0.6840 -0.3566  0.1096
 1376TIP3    H1 4134   0.525   2.165   3.519 -0.7259 -1.4196  0.2295
 1376TIP3    H2 4135   0.615   2.055   3.465 -2.7864 -3.5614  0.9889
 1377TIP3   OH2 4136   3.161   0.832   3.898 -1.1513 -0.3666  0.3429
 1377TIP3    H1 4137   3.207   0.785   3.968 -0.0847 -0.5630 -0.4725
 1377TIP3    H2 4138   3.070   0.836   3.928 -0.9641 -1.5953  1.1503
 1378TIP3   OH2 4139   5.866   0.174   3.524  0.3420  0.8072 -0.2440
 1378TIP3    H1 4140   5.888   0.225   3.602  0.6440 -1.0052  0.9280
 1378TIP3    H2 4141   5.949   0.162   3.479  0.5597  0.0379  0.3381
 1379TIP3   OH2 4142   4.211   0.278   1.719  0.0481  0.0730 -0.3097
 1379TIP3    H1 4143   4.227   0.227   1.798  0.6458 -0.0612 -0.5118
 1379TIP3    H2 4144   4.121   0.256   1.694 -0.4100  0.6641  0.7232
 1380TIP3   OH2 4145   4.913   2.067   5.090 -0.2998  0.1583  0.1717
 1380TIP3    H1 4146   4.964   2.131   5.141 -1.2302  0.8983  0.2037
 1380TIP3    H2 4147   4.912   2.102   5.001 -0.5192 -0.0008  0.1105
 1381TIP3   OH2 4148   1.431   2.885   0.534 -0.8173 -0.5355  0.0782
 1381TIP3    H1 4149   1.434   2.827   0.610 -1.1069 -1.9538 -0.9360
 1381TIP3    H2 4150   1.456   2.829   0.460  0.4008  1.0253 -0.7676
 1382TIP3   OH2 4151   5.801   2.407   4.982  0.1552 -0.6716 -0.0512
 1382TIP3    H1 4152   5.835   2.497   4.977 -1.3191 -0.0960 -0.2394
 1382TIP3    H2 4153   5.851   2.367   5.053 -1.0529  1.2079  2.0005
 1383TIP3   OH2 4154   1.427   0.810   3.344 -0.9813 -0.3061  0.1668
 1383TIP3    H1 4155   1.371   0.884   3.324 -1.6527 -1.0756 -0.8775
 1383TIP3    H2 4156   1.427   0.805   3.440 -2.2608  0.0328  0.1969
 1384TIP3   OH2 4157   0.726   5.545   3.508 -0.2189  0.1109  0.2864
 1384TIP3    H1 4158   0.712   5.531   3.601  0.7411  0.7154  0.5477
 1384TIP3    H2 4159   0.776   5.627   3.504 -0.8731  0.4765 -0.8003
 1385TIP3   OH2 4160   5.854   3.421   1.435 -0.1802  0.2923  0.7822
 1385TIP3    H1 4161   5.822   3.453   1.351 -0.0321  0.4346  0.7796
 1385TIP3    H2 4162   5.777   3.380   1.476  0.0025 -0.7875  0.0948
 1386TIP3   OH2 4163   4.828   2.006   4.295  0.0845  0.3373 -0.0738
 1386TIP3    H1 4164   4.777   2.024   4.373 -0.0212  1.1826 -0.3278
 1386TIP3    H2 4165   4.826   1.911   4.286  1.0520  0.1161  1.5851
 1387TIP3   OH2 4166   2.453   3.183   3.335  0.1764 -0.5317  0.0679
 1387TIP3    H1 4167   2.383   3.200   3.397  0.7299  0.7026  0.3805
 1387TIP3    H2 4168   2.507   3.116   3.378  1.1349  1.0470  1.4351
 1388TIP3   OH2 4169   4.663   2.714   4.956  0.0105 -0.2676 -0.0921
 1388TIP3    H1 4170   4.744   2.667   4.935 -0.1970 -2.2201  2.8018
 1388TIP3    H2 4171   4.693   2.796   4.996  0.4921  0.0350 -1.0550
 1389TIP3   OH2 4172   5.517   1.806   1.290  0.4848 -0.1218  0.2386
 1389TIP3    H1 4173   5.438   1.849   1.320  0.5824  0.1289  0.1425
 1389TIP3    H2 4174   5.539   1.743   1.359  0.2805 -0.0946  0.3269
 1390TIP3   OH2 4175   4.643   0.467   2.556 -0.1640 -0.3525 -0.6248
 1390TIP3    H1 4176   4.634   0.409   2.481 -0.4750  0.6636 -1.3970
 1390TIP3    H2 4177   4.554   0.479   2.589 -0.0121 -0.9180  0.0172
 1391TIP3   OH2 4178   2.055   1.397   3.176  0.0751 -0.1502 -0.7432
 1391TIP3    H1 4179   2.093   1.311   3.194  1.4064  0.4839 -0.4279
 1391TIP3    H2 4180   2.111   1.458   3.223 -1.4126  0.8275 -0.1720
 1392TIP3   OH2 4181   3.384   4.345   4.896  0.0237  0.2427  0.2275
 1392TIP3    H1 4182   3.405   4.253   4.908 -1.1621  0.0217  0.7537
 1392TIP3    H2 4183   3.384   4.382   4.985  0.5198  0.7618  0.0204
 1393TIP3   OH2 4184   0.206   1.145   0.224  0.0081  0.0262  0.1064
 1393TIP3    H1 4185   0.266   1.106   0.287  1.8235  2.2233 -0.1324
 1393TIP3    H2 4186   0.230   1.106   0.140  1.8465  1.5473 -0.1418
 1394TIP3   OH2 4187   3.027   3.625   3.419  0.1176  0.0317 -0.1189
 1394TIP3    H1 4188   2.992   3.660   3.337  0.4715  0.5563 -0.0543
 1394TIP3    H2 4189   3.096   3.565   3.392 -0.1656 -0.2477 -0.2205
 1395TIP3   OH2 4190   3.973   4.583   4.778  0.2326 -0.2433 -0.1077
 1395TIP3    H1 4191   3.907   4.514   4.776 -1.7423  1.5272 -0.0243
 1395TIP3    H2 4192   4.037   4.554   4.843  0.0031 -2.4021 -0.7763
 1396TIP3   OH2 4193   5.042   3.661   1.097  0.6938  0.8274 -0.0602
 1396TIP3    H1 4194   4.999   3.738   1.133  0.6138  1.0483 -0.6099
 1396TIP3    H2 4195   5.066   3.687   1.008  0.8196  0.2749 -0.1916
 1397TIP3   OH2 4196   5.803   4.036   0.499 -0.9362  0.2632  0.4292
 1397TIP3    H1 4197   5.734   4.088   0.459 -1.4014 -0.8523 -0.2791
 1397TIP3    H2 4198   5.799   3.952   0.454  1.1241  0.2750  0.1232
 1398TIP3   OH2 4199   0.441   1.534   2.529 -0.0121  0.3787  0.2701
 1398TIP3    H1 4200   0.482   1.582   2.601 -0.5512 -0.1071  0.9205
 1398TIP3    H2 4201   0.462   1.584   2.451  0.2925  1.1086  0.8123
 1399TIP3   OH2 4202   1.699   2.604   2.178  0.4454 -0.3630 -0.2247
 1399TIP3    H1 4203   1.696   2.508   2.184 -1.1763 -0.4457 -1.7290
 1399TIP3    H2 4204   1.728   2.632   2.265  1.2489 -2.2189  0.1544
 1400TIP3   OH2 4205   3.291   5.517   0.562  0.7723 -0.2244  0.1016
 1400TIP3    H1 4206   3.294   5.558   0.476  1.4740 -1.3671 -0.4278
 1400TIP3    H2 4207   3.296   5.591   0.624 -0.3927  0.6537 -0.8049
 1401TIP3   OH2 4208   4.885   5.157   4.416 -0.3367  0.5436 -0.5148
 1401TIP3    H1 4209   4.897   5.188   4.506 -3.4305  2.1212 -0.5217
 1401TIP3    H2 4210   4.807   5.101   4.420  0.3961 -0.6505 -1.9678
 1402TIP3   OH2 4211   2.221   1.012   4.747  0.2031  0.0675 -0.2243
 1402TIP3    H1 4212   2.240   0.978   4.659  0.5002  0.3544 -0.2783
 1402TIP3    H2 4213   2.249   1.104   4.742 -1.1544  0.4925 -0.2738
 1403TIP3   OH2 4214   1.928   3.879   0.473  0.0716 -0.2913  0.7405
 1403TIP3    H1 4215   1.855   3.870   0.411 -0.5436 -0.5511  1.4842
 1403TIP3    H2 4216   1.971   3.794   0.473  0.6917  0.0034 -0.0598
 1404TIP3   OH2 4217   3.760   2.514   2.101 -0.5090  0.5294 -0.0550
 1404TIP3    H1 4218   3.732   2.560   2.180 -0.9868 -0.0881  0.1411
 1404TIP3    H2 4219   3.854   2.531   2.096 -0.4686  0.5572  0.6574
 1405TIP3   OH2 4220   3.059   3.857   0.640  0.3296 -0.2096 -0.0259
 1405TIP3    H1 4221   2.980   3.908   0.623 -0.4321 -1.5001 -0.4389
 1405TIP3    H2 4222   3.028   3.768   0.657  1.6676 -0.6599  0.2004
 1406TIP3   OH2 4223   5.771   0.891   4.662 -0.1589 -0.0979 -0.2515
 1406TIP3    H1 4224   5.750   0.978   4.697 -0.8401 -0.4009  0.1134
 1406TIP3    H2 4225   5.824   0.850   4.731  1.6190  0.6318 -1.1321
 1407TIP3   OH2 4226   3.919   2.614   5.143 -0.2163 -1.3734 -0.0574
 1407TIP3    H1 4227   3.983   2.571   5.200 -0.1348 -0.2744  0.6993
 1407TIP3    H2 4228   3.948   2.593   5.054  1.1189 -1.0040  0.2750
 1408TIP3   OH2 4229   2.115   4.581   0.933  0.3097 -0.7775  0.6911
 1408TIP3    H1 4230   2.091   4.515   0.998 -1.3049  0.1820  1.1375
 1408TIP3    H2 4231   2.170   4.643   0.981  0.5670 -1.0031  0.6836
 1409TIP3   OH2 4232   5.514   3.119   1.777 -0.4263  0.5057  0.0998
 1409TIP3    H1 4233   5.467   3.058   1.720 -0.8714  0.7649  0.1818
 1409TIP3    H2 4234   5.557   3.064   1.842  1.0802  0.1061 -1.1755
 1410TIP3   OH2 4235   2.271   5.407   1.438  0.8196 -0.4655 -0.3155
 1410TIP3    H1 4236   2.269   5.373   1.349 -0.3177 -2.3612  0.3668
 1410TIP3    H2 4237   2.212   5.350   1.487  1.0589  0.7992  1.5658
 1411TIP3   OH2 4238   0.698   0.879   4.998  0.4837 -0.4601 -0.5537
 1411TIP3    H1 4239   0.672   0.908   5.085  1.0352 -1.3252 -0.0904
 1411TIP3    H2 4240   0.632   0.916   4.939 -0.0582 -0.1202  0.2602
 1412TIP3   OH2 4241   0.688   4.899   0.644 -0.2356 -0.7192 -0.2564
 1412TIP3    H1 4242   0.617   4.835   0.645 -0.7512 -0.1693 -1.1310
 1412TIP3    H2 4243   0.740   4.877   0.567  0.8224 -1.3874  0.6109
 1413TIP3   OH2 4244   0.991   0.450   3.169 -0.4679  0.0671  0.2432
 1413TIP3    H1 4245   0.931   0.433   3.241  0.4914 -2.0364  0.6239
 1413TIP3    H2 4246   1.040   0.368   3.159  2.2598  1.6404 -0.1184
 1414TIP3   OH2 4247   1.960   4.081   4.510  0.4076 -0.3205 -0.1679
 1414TIP3    H1 4248   1.968   4.120   4.598 -1.9157 -1.5430  0.6656
 1414TIP3    H2 4249   1.929   4.153   4.455 -0.2639 -0.0564  0.5312
 1415TIP3   OH2 4250   0.178   2.963   3.553  0.1960  0.2778  0.9316
 1415TIP3    H1 4251   0.206   3.009   3.473  1.1812 -0.7757  0.6544
 1415TIP3    H2 4252   0.093   2.926   3.530 -1.5413  3.3759  1.7337
 1416TIP3   OH2 4253   6.091   1.684   1.588 -0.1623  0.2314  0.3791
 1416TIP3    H1 4254   6.036   1.672   1.666 -2.2895 -0.2692 -1.1248
 1416TIP3    H2 4255   6.115   1.777   1.591 -0.5139  0.3107  1.4188
 1417TIP3   OH2 4256   2.103   5.003   1.370 -0.2984  0.7192 -0.2343
 1417TIP3    H1 4257   2.079   5.027   1.281  1.5218  0.0005 -0.9677
 1417TIP3    H2 4258   2.151   4.921   1.361  0.1388  0.7555  1.3730
 1418TIP3   OH2 4259   5.807   0.902   3.585  0.5684 -0.1298 -0.1801
 1418TIP3    H1 4260   5.717   0.888   3.559  0.7616  1.2943 -1.8141
 1418TIP3    H2 4261   5.803   0.977   3.646  0.9240  3.3209 -3.9451
 1419TIP3   OH2 4262   1.111   0.305   2.375  0.0082  0.4342 -0.3518
 1419TIP3    H1 4263   1.119   0.292   2.281 -1.7401 -0.8113 -0.3754
 1419TIP3    H2 4264   1.059   0.385   2.384 -3.7523 -1.7558 -0.6499
 1420TIP3   OH2 4265   2.030   3.048   3.062  0.9188 -0.2001 -0.0567
 1420TIP3    H1 4266   1.952   3.003   3.094  1.5415 -1.2927 -0.0185
 1420TIP3    H2 4267   2.071   3.084   3.140  0.3341  0.5924 -0.1040
 1421TIP3   OH2 4268   1.182   1.301   4.712  0.4074 -0.6040  0.4230
 1421TIP3    H1 4269   1.090   1.324   4.725  0.6857  2.1694 -1.5130
 1421TIP3    H2 4270   1.181   1.226   4.653 -0.6622 -0.0616 -0.2771
 1422TIP3   OH2 4271   2.910   0.079   2.848  0.2793  0.3047  0.1716
 1422TIP3    H1 4272   2.933   0.068   2.756  0.9092 -0.5186  0.4152
 1422TIP3    H2 4273   2.836   0.019   2.862 -0.6829  1.3881 -0.0964
 1423TIP3   OH2 4274   2.878   1.180   2.531  0.0178  0.3821 -0.0046
 1423TIP3    H1 4275   2.801   1.125   2.547  0.4349 -0.0658  0.4905
 1423TIP3    H2 4276   2.877   1.196   2.437 -1.8199  2.0794  0.2280
 1424TIP3   OH2 4277   4.579   4.079   2.446  0.0208  0.3307 -0.4628
 1424TIP3    H1 4278   4.596   4.024   2.522  0.3371  1.6410  0.4414
 1424TIP3    H2 4279   4.535   4.156   2.481  0.8600  1.3106 -1.4900
 1425TIP3   OH2 4280   0.567   5.451   4.231 -0.1218  0.0530 -0.1256
 1425TIP3    H1 4281   0.597   5.539   4.206 -0.5824  0.5901  1.0870
 1425TIP3    H2 4282   0.647   5.400   4.238  0.4869  1.1655  1.9481
 1426TIP3   OH2 4283   4.473   1.542   0.397  0.3683  0.3330  0.1190
 1426TIP3    H1 4284   4.542   1.491   0.440  0.5260  0.6491  0.2456
 1426TIP3    H2 4285   4.520   1.609   0.347  0.1442  0.9343  0.6929
 1427TIP3   OH2 4286   6.143   0.773   3.951  0.0328  0.2436 -0.2820
 1427TIP3    H1 4287   6.163   0.750   4.041  0.7226 -0.3312 -0.5737
 1427TIP3    H2 4288   6.152   0.868   3.947  1.7123  0.1117 -0.1492
 1428TIP3   OH2 4289   3.651   3.913   0.904 -0.1653  0.2611 -0.0887
 1428TIP3    H1 4290   3.575   3.916   0.844 -2.0072  1.9396  2.1379
 1428TIP3    H2 4291   3.714   3.973   0.865 -0.4634 -0.2192 -1.3669
 1429TIP3   OH2 4292   2.375   3.121   3.986  0.0968  0.1204  0.7270
 1429TIP3    H1 4293   2.285   3.154   3.979 -0.4376 -1.3182  0.5196
 1429TIP3    H2 4294   2.387   3.102   4.079  0.7085  1.6256  0.9944
 1430TIP3   OH2 4295   4.102   3.281   0.036 -0.6625  0.1149  0.1576
 1430TIP3    H1 4296   4.180   3.228   0.020  0.5283  1.6178  0.7136
 1430TIP3    H2 4297   4.054   3.280  -0.047 -0.3006 -1.2106 -0.0522
 1431TIP3   OH2 4298   0.361   5.716   0.425  0.1134 -0.1549 -0.0761
 1431TIP3    H1 4299   0.330   5.640   0.475  2.5266  0.0170  1.9512
 1431TIP3    H2 4300   0.365   5.686   0.335 -1.6339 -1.4926  0.2391
 1432TIP3   OH2 4301   5.417   3.866   3.613  0.1388 -0.2564 -0.0426
 1432TIP3    H1 4302   5.367   3.788   3.588  0.1516  0.4798 -2.6453
 1432TIP3    H2 4303   5.366   3.939   3.577  2.4634  0.5964 -1.8246
 1433TIP3   OH2 4304   0.684   4.492   2.346  0.5063  0.2503  0.0462
 1433TIP3    H1 4305   0.689   4.413   2.401 -0.8132  0.2912  0.2383
 1433TIP3    H2 4306   0.773   4.527   2.348  0.7851 -0.4579  1.1093
 1434TIP3   OH2 4307   1.508   4.795   0.410 -0.4346  0.4349  0.5659
 1434TIP3    H1 4308   1.552   4.862   0.358 -0.4426  0.6200  0.7974
 1434TIP3    H2 4309   1.416   4.823   0.412 -0.4575  0.3590  0.5715
 1435TIP3   OH2 4310   3.796   0.496   0.740  0.6582 -0.3554 -0.4164
 1435TIP3    H1 4311   3.790   0.412   0.695 -0.1015 -0.2816 -0.4758
 1435TIP3    H2 4312   3.710   0.536   0.726  1.1138  0.5500 -0.6234
 1436TIP3   OH2 4313   1.962   3.728   2.927  0.4451  0.6387  0.4340
 1436TIP3    H1 4314   1.968   3.635   2.905 -1.2325  0.7156 -0.5757
 1436TIP3    H2 4315   2.024   3.771   2.867 -0.6031  0.3737 -0.8977
 1437TIP3   OH2 4316   5.056   5.537   4.006 -0.3038 -0.7379  0.0413
 1437TIP3    H1 4317   5.146   5.562   4.024 -0.7709  1.2005 -0.0340
 1437TIP3    H2 4318   5.005   5.578   4.077 -1.2632 -0.4088 -0.8044
 1438TIP3   OH2 4319   0.493   1.345   4.997  0.3276  0.4017  0.4877
 1438TIP3    H1 4320   0.552   1.282   5.038  0.1407 -0.5940 -0.7146
 1438TIP3    H2 4321   0.481   1.414   5.063 -0.3819 -1.3730  2.3019
 1439TIP3   OH2 4322   2.771   2.381   0.288 -0.2390  0.6367  0.0560
 1439TIP3    H1 4323   2.700   2.392   0.351  1.0263 -0.1417  1.6864
 1439TIP3    H2 4324   2.730   2.398   0.203 -2.3073  0.4620  0.9553
 1440TIP3   OH2 4325   2.160   3.514   2.837 -0.0704 -0.4042  0.2345
 1440TIP3    H1 4326   2.143   3.424   2.865 -0.0102 -0.7435 -0.7612
 1440TIP3    H2 4327   2.250   3.531   2.863  0.5041 -1.2582 -1.0620
 1441TIP3   OH2 4328   5.542   0.262   1.720  0.1984  0.3450  0.0921
 1441TIP3    H1 4329   5.549   0.316   1.641 -0.6446  0.3714  0.0319
 1441TIP3    H2 4330   5.449   0.260   1.740  0.5040  1.5743  1.9493
 1442TIP3   OH2 4331   5.969   1.649   0.456  0.0838  0.0128  0.3071
 1442TIP3    H1 4332   5.921   1.713   0.403 -1.6356  0.1554  1.9329
 1442TIP3    H2 4333   5.964   1.568   0.405  1.6755  0.9291 -1.4453
 1443TIP3   OH2 4334   4.629   3.439   1.414 -0.1090 -0.0291 -0.3673
 1443TIP3    H1 4335   4.534   3.443   1.426 -0.1371 -0.4756 -0.4334
 1443TIP3    H2 4336   4.658   3.530   1.425 -0.7014  0.3453 -1.6438
 1444TIP3   OH2 4337   6.210   0.045   1.348  0.5420 -0.0313  0.5614
 1444TIP3    H1 4338   6.161   0.019   1.426 -1.1661  0.3197 -0.3439
 1444TIP3    H2 4339   6.143   0.058   1.281  1.8465  0.9960 -0.6041
 1445TIP3   OH2 4340   2.920   0.309   1.529 -0.5635  0.3056 -0.6107
 1445TIP3    H1 4341   2.830   0.295   1.500 -0.5105 -0.7809 -0.3226
 1445TIP3    H2 4342   2.934   0.242   1.596  1.1655 -1.0481 -2.2142
 1446TIP3   OH2 4343   3.686   0.213   1.036 -0.3445  0.0747 -0.1918
 1446TIP3    H1 4344   3.741   0.165   0.973  0.6783 -0.1054  0.7977
 1446TIP3    H2 4345   3.734   0.294   1.053 -0.5245  0.0529  0.4658
 1447TIP3   OH2 4346   5.956   1.721   3.460 -0.5922 -0.0471  0.0883
 1447TIP3    H1 4347   6.001   1.753   3.381  0.3169 -0.3707  0.4535
 1447TIP3    H2 4348   5.987   1.631   3.470 -1.3521 -0.2840  0.3505
 1448TIP3   OH2 4349   4.494   4.138   1.407  0.0733 -0.1144  0.1956
 1448TIP3    H1 4350   4.535   4.129   1.493  0.6662 -1.2690 -0.2014
 1448TIP3    H2 4351   4.547   4.085   1.348  0.0486  1.1463 -1.0344
 1449TIP3   OH2 4352   1.281   5.475   0.387  0.2915 -0.1784 -0.0794
 1449TIP3    H1 4353   1.214   5.464   0.319  0.4879 -1.7837 -0.0520
 1449TIP3    H2 4354   1.233   5.513   0.461  0.1300  1.8621 -1.1518
 1450TIP3   OH2 4355   2.515   1.494   1.113  0.2157  0.0713 -0.1174
 1450TIP3    H1 4356   2.491   1.529   1.028 -0.3769 -0.2013 -0.0700
 1450TIP3    H2 4357   2.578   1.425   1.095 -0.1164 -0.1711 -0.3604
 1451TIP3   OH2 4358   4.768   5.695   0.795 -0.0340 -0.4807 -0.0022
 1451TIP3    H1 4359   4.673   5.686   0.809 -0.1704 -0.0487 -0.5950
 1451TIP3    H2 4360   4.791   5.776   0.839  0.1948 -0.9430  0.7391
 1452TIP3   OH2 4361   6.117   2.683   3.003  0.2594 -0.6603  0.3915
 1452TIP3    H1 4362   6.130   2.716   2.914  0.8075  0.2754  0.8099
 1452TIP3    H2 4363   6.130   2.588   2.995  1.9320 -0.4106 -0.2392
 1453TIP3   OH2 4364   0.876   4.628   3.567  0.2706  0.9448 -0.2266
 1453TIP3    H1 4365   0.797   4.658   3.521 -0.2560 -0.2249 -0.1103
 1453TIP3    H2 4366   0.935   4.599   3.497 -0.2475 -0.1603 -0.2201
 1454TIP3   OH2 4367   3.178   1.110   1.220 -0.4014  0.5495  0.1874
 1454TIP3    H1 4368   3.220   1.125   1.136  1.5179 -2.6178  0.4051
 1454TIP3    H2 4369   3.118   1.037   1.204 -0.8096  0.6187  1.3279
 1455TIP3   OH2 4370   0.070   0.230   0.344 -0.2382 -0.5892 -0.4655
 1455TIP3    H1 4371   0.163   0.250   0.334 -0.3227  0.2474  0.3186
 1455TIP3    H2 4372   0.055   0.157   0.285  1.3314 -1.9867  0.7914
 1456TIP3   OH2 4373   4.014   2.917   0.796  0.0323  0.0352  0.6760
 1456TIP3    H1 4374   4.082   2.925   0.863 -0.2483 -0.7922  1.0789
 1456TIP3    H2 4375   3.985   2.826   0.802  2.3633 -1.1634 -2.8461
 1457TIP3   OH2 4376   2.151   4.136   4.106 -0.0973 -0.5816  0.3754
 1457TIP3    H1 4377   2.114   4.054   4.071 -0.4700 -0.1459 -0.2780
 1457TIP3    H2 4378   2.075   4.184   4.138  0.0180 -0.1435  0.0015
 1458TIP3   OH2 4379   2.908   1.832   3.546  0.3344 -0.2807  0.0133
 1458TIP3    H1 4380   3.002   1.814   3.551 -0.0422 -2.0731  3.0076
 1458TIP3    H2 4381   2.870   1.780   3.617 -2.5121  3.2143  1.3407
 1459TIP3   OH2 4382   1.995   2.816   0.853 -0.1615 -0.0547 -0.6280
 1459TIP3    H1 4383   1.988   2.734   0.805  2.7033 -0.7651 -0.0057
 1459TIP3    H2 4384   2.054   2.870   0.800 -0.9316  1.0954 -0.3534
 1460TIP3   OH2 4385   2.213   3.099   4.790  0.2737  0.1209 -0.1060
 1460TIP3    H1 4386   2.209   3.031   4.858 -0.0435  0.2148 -0.0297
 1460TIP3    H2 4387   2.126   3.138   4.790  1.0860  2.0748  1.4169
 1461TIP3   OH2 4388   5.215   3.130   3.891 -0.0202 -0.0462 -0.0825
 1461TIP3    H1 4389   5.287   3.178   3.930  0.6172  0.2445 -1.5518
 1461TIP3    H2 4390   5.249   3.097   3.808 -0.8780 -1.8613  0.2358
 1462TIP3   OH2 4391   1.463   2.272   5.194  0.3069 -0.3499  0.3074
 1462TIP3    H1 4392   1.489   2.260   5.102  0.8272  0.1669  0.3837
 1462TIP3    H2 4393   1.475   2.185   5.233  1.8369 -0.1582  0.3166
 1463TIP3   OH2 4394   0.975   0.540   2.517 -0.3481  0.1880 -0.2888
 1463TIP3    H1 4395   1.044   0.505   2.573 -0.4450 -0.4106 -0.5326
 1463TIP3    H2 4396   1.013   0.618   2.476 -0.1735  0.4558  0.3680
 1464TIP3   OH2 4397   4.746   2.334   2.852  0.9398  0.2487 -0.3737
 1464TIP3    H1 4398   4.679   2.315   2.919  0.9346 -1.2217 -0.7684
 1464TIP3    H2 4399   4.720   2.282   2.776  2.5140 -0.3364 -0.5511
 1465TIP3   OH2 4400   2.076   1.710   0.480  0.4689 -0.0016  0.3852
 1465TIP3    H1 4401   2.161   1.667   0.476  0.7898  0.5411  1.0662
 1465TIP3    H2 4402   2.022   1.653   0.535  0.2773 -0.5208 -0.3301
 1466TIP3   OH2 4403   4.958   4.766   1.386 -0.4296 -0.3330  0.0559
 1466TIP3    H1 4404   4.894   4.697   1.404 -1.1319  0.5729  1.1551
 1466TIP3    H2 4405   4.938   4.794   1.296 -1.9021  0.2386  0.5254
 1467TIP3   OH2 4406   3.234   3.924   2.169 -0.0170  0.5717 -0.0576
 1467TIP3    H1 4407   3.198   3.940   2.082 -0.2405 -3.0697 -0.7931
 1467TIP3    H2 4408   3.160   3.891   2.220  0.8348 -0.6772  0.4119
 1468TIP3   OH2 4409   6.161   0.461   1.981 -0.3620  0.3037  0.4689
 1468TIP3    H1 4410   6.235   0.470   1.922 -0.7334 -1.3317 -0.3116
 1468TIP3    H2 4411   6.093   0.517   1.943 -0.3709 -0.1999 -0.2722
 1469TIP3   OH2 4412   6.113   4.232   0.800 -0.1907 -0.3561 -0.4558
 1469TIP3    H1 4413   6.117   4.256   0.893 -2.6051  1.6212 -0.7273
 1469TIP3    H2 4414   6.022   4.252   0.775  0.6517  0.1792 -3.4730
 1470TIP3   OH2 4415   3.842   5.445   0.053  0.1030  0.5434 -0.1040
 1470TIP3    H1 4416   3.862   5.456  -0.040 -0.7529 -1.6752 -0.6057
 1470TIP3    H2 4417   3.761   5.393   0.055 -1.3863  2.7356  1.8992
 1471TIP3   OH2 4418   2.709   3.694   0.702  0.1187 -0.2188  0.0468
 1471TIP3    H1 4419   2.782   3.669   0.758 -0.3478  0.9219  1.2277
 1471TIP3    H2 4420   2.749   3.742   0.630  0.4942  1.4772  1.3169
 1472TIP3   OH2 4421   2.674   0.867   3.286 -0.3022  0.1654  0.2945
 1472TIP3    H1 4422   2.613   0.801   3.318  0.1506 -0.4596 -0.1241
 1472TIP3    H2 4423   2.735   0.882   3.358  0.7489 -1.2740 -0.2689
 1473TIP3   OH2 4424   1.194   1.476   1.406 -0.4178  0.0270 -0.0290
 1473TIP3    H1 4425   1.188   1.492   1.500 -0.4834 -0.3263  0.0294
 1473TIP3    H2 4426   1.174   1.560   1.365  4.1597  1.5750  0.3259
 1474TIP3   OH2 4427   5.970   5.787   1.121  0.0414  0.7310  0.0873
 1474TIP3    H1 4428   5.974   5.700   1.160 -1.2351  0.7601  0.3403
 1474TIP3    H2 4429   5.911   5.836   1.179 -0.4562  1.3078 -0.8818
 1475TIP3   OH2 4430   2.033   5.270   4.489 -0.1602  0.5115 -0.1081
 1475TIP3    H1 4431   1.939   5.285   4.479 -0.1704  0.9947  0.5832
 1475TIP3    H2 4432   2.045   5.177   4.469 -0.8129  0.4055 -0.0270
 1476TIP3   OH2 4433   2.138   2.123   0.672 -0.6842 -0.9456 -0.0265
 1476TIP3    H1 4434   2.160   2.069   0.596 -0.7516 -0.3825 -0.4535
 1476TIP3    H2 4435   2.210   2.107   0.734  0.9398  0.7823 -1.3634
 1477TIP3   OH2 4436   1.593   1.277   2.157  0.3889 -0.1460  0.1738
 1477TIP3    H1 4437   1.633   1.195   2.184 -0.5519 -0.6866 -0.0054
 1477TIP3    H2 4438   1.499   1.262   2.169 -0.0968 -0.3319 -3.0180
 1478TIP3   OH2 4439   3.585   1.007   4.536 -0.1783  0.1528 -0.1795
 1478TIP3    H1 4440   3.503   0.967   4.506 -1.1893  1.9929  0.0221
 1478TIP3    H2 4441   3.631   0.936   4.580 -0.5814 -1.5351 -2.2943
 1479TIP3   OH2 4442   0.417   2.377   4.380 -0.2269  0.5801 -0.0601
 1479TIP3    H1 4443   0.470   2.446   4.341  1.3239 -0.0387  0.8613
 1479TIP3    H2 4444   0.421   2.305   4.317  1.4379 -0.0545  0.7163
 1480TIP3   OH2 4445   3.884   3.088   0.137 -0.3731 -0.7738  0.0139
 1480TIP3    H1 4446   3.928   3.161   0.181 -2.2366  0.1078  0.5154
 1480TIP3    H2 4447   3.942   3.013   0.152  2.2400  0.7676 -1.5827
 1481TIP3   OH2 4448   2.195   3.412   1.541  0.1620 -0.4454  0.5667
 1481TIP3    H1 4449   2.248   3.355   1.486 -0.7691 -0.6687 -0.1385
 1481TIP3    H2 4450   2.251   3.434   1.615  1.2133 -0.6852 -0.1403
 1482TIP3   OH2 4451   0.532   0.175   5.080  0.0699 -0.2461 -0.2809
 1482TIP3    H1 4452   0.467   0.207   5.017  0.3471  0.3773 -0.2523
 1482TIP3    H2 4453   0.610   0.159   5.027  0.2757  0.1959 -0.1092
 1483TIP3   OH2 4454   2.921   4.113   2.983 -0.4541 -0.0786 -0.2455
 1483TIP3    H1 4455   2.965   4.144   2.904 -3.8858  0.4695 -2.1599
 1483TIP3    H2 4456   2.870   4.188   3.013 -1.6757 -1.1823  0.5680
 1484TIP3   OH2 4457   2.382   2.926   5.000  0.8850 -0.4005 -0.8144
 1484TIP3    H1 4458   2.465   2.965   5.027  0.6677  0.2427 -1.0511
 1484TIP3    H2 4459   2.399   2.832   4.997  1.2322 -0.3921  0.4105
 1485TIP3   OH2 4460   4.585   3.838   1.948  0.5814  0.2181  0.0970
 1485TIP3    H1 4461   4.611   3.826   2.039  0.5593 -2.0000 -0.1419
 1485TIP3    H2 4462   4.604   3.754   1.906 -0.5112  0.7993 -1.6756
 1486TIP3   OH2 4463   5.498   2.378   4.140 -0.5260 -0.4518 -0.4024
 1486TIP3    H1 4464   5.518   2.292   4.105 -0.3789 -0.4313 -0.3677
 1486TIP3    H2 4465   5.515   2.438   4.067 -0.1271 -0.3992 -0.2705
 1487TIP3   OH2 4466   1.926   2.206   4.204 -0.4400  0.2016  0.1071
 1487TIP3    H1 4467   1.882   2.185   4.122  0.1779  0.1510 -0.2185
 1487TIP3    H2 4468   2.006   2.253   4.178  0.5733 -1.1950  0.5754
 1488TIP3   OH2 4469   5.942   0.591   2.673  0.9434  0.5138 -0.0176
 1488TIP3    H1 4470   5.943   0.682   2.702  2.9312  0.6390 -0.3382
 1488TIP3    H2 4471   5.965   0.595   2.581 -0.4128 -0.2367 -0.4118
 1489TIP3   OH2 4472   2.663   3.968   5.179  0.2756 -0.3953  0.3781
 1489TIP3    H1 4473   2.662   3.997   5.088 -0.1735 -0.3531  0.3971
 1489TIP3    H2 4474   2.715   4.034   5.224  0.7520 -0.5748  0.1007
 1490TIP3   OH2 4475   1.282   5.498   3.008 -1.1036  0.3289 -0.4290
 1490TIP3    H1 4476   1.295   5.423   3.067  2.0198 -1.3026 -2.8333
 1490TIP3    H2 4477   1.304   5.574   3.061  1.8130 -1.0715  0.6064
 1491TIP3   OH2 4478   6.277   2.200   3.104 -0.1902 -0.0774 -0.3148
 1491TIP3    H1 4479   6.369   2.226   3.114  0.1883 -1.5183  0.3879
 1491TIP3    H2 4480   6.277   2.106   3.124 -2.0882  0.2310  1.4994
 1492TIP3   OH2 4481   6.130   0.213   3.444 -0.2710  0.4076  0.8480
 1492TIP3    H1 4482   6.219   0.185   3.462 -0.6315 -0.9992  0.5174
 1492TIP3    H2 4483   6.123   0.211   3.348 -1.1351 -1.1153  0.9123
 1493TIP3   OH2 4484   0.876   4.787   4.452  0.1548 -0.1408 -0.2010
 1493TIP3    H1 4485   0.835   4.817   4.371  1.1207  0.0178 -0.6367
 1493TIP3    H2 4486   0.859   4.856   4.515 -2.0704 -0.9979  0.2378
 1494TIP3   OH2 4487   2.420   4.735   0.451  0.0556 -0.2626  0.2392
 1494TIP3    H1 4488   2.406   4.827   0.429 -0.3819 -0.9179 -2.6383
 1494TIP3    H2 4489   2.331   4.701   0.467  0.0111 -0.6343 -0.7848
 1495TIP3   OH2 4490   3.493   5.695   2.085 -0.1448 -0.3960 -0.7538
 1495TIP3    H1 4491   3.546   5.762   2.127 -0.8332  0.2159 -0.8506
 1495TIP3    H2 4492   3.554   5.623   2.069  0.8436  0.5929 -1.5597
 1496TIP3   OH2 4493   0.632   5.807   0.562  0.4626  0.5511  0.2603
 1496TIP3    H1 4494   0.602   5.864   0.491 -1.8368  0.5108  1.1185
 1496TIP3    H2 4495   0.596   5.721   0.540 -1.2076  0.7613  1.9515
 1497TIP3   OH2 4496   2.327   0.076   0.322  0.2862 -0.6387  0.6896
 1497TIP3    H1 4497   2.334   0.014   0.249 -1.1549 -0.8407  0.6936
 1497TIP3    H2 4498   2.232   0.088   0.334  0.5183  0.0592  1.9671
 1498TIP3   OH2 4499   0.784   1.972   2.299 -0.6631 -0.1818 -0.4352
 1498TIP3    H1 4500   0.864   2.024   2.294 -1.6208  1.4844  0.5824
 1498TIP3    H2 4501   0.763   1.952   2.208 -0.2584  1.2713 -0.8753
 1499TIP3   OH2 4502   5.415   2.661   1.076 -0.2331 -0.0447 -0.5364
 1499TIP3    H1 4503   5.428   2.659   0.981 -0.1114 -0.5845 -0.5122
 1499TIP3    H2 4504   5.503   2.669   1.112 -0.1970 -0.7540 -0.4496
 1500TIP3   OH2 4505   4.276   2.707   1.283 -0.4279  0.3737  0.2409
 1500TIP3    H1 4506   4.307   2.786   1.238  1.5475 -0.6113 -0.2060
 1500TIP3    H2 4507   4.300   2.721   1.375 -1.1437  0.7641  0.3841
 1501TIP3   OH2 4508   6.359   1.768   4.903 -0.6299  0.3907 -0.0324
 1501TIP3    H1 4509   6.266   1.791   4.912 -1.4115 -1.4854 -2.3799
 1501TIP3    H2 4510   6.374   1.702   4.972 -1.6733 -0.8569 -0.9434
 1502TIP3   OH2 4511   1.786   0.769   3.907  0.0263  0.0677 -0.0454
 1502TIP3    H1 4512   1.872   0.804   3.928 -0.1724  0.7061 -0.2632
 1502TIP3    H2 4513   1.768   0.801   3.819 -0.3072 -0.3084 -0.1175
 1503TIP3   OH2 4514   2.074   0.153   0.368 -0.0190 -0.1737 -0.2415
 1503TIP3    H1 4515   2.111   0.237   0.342 -0.8482 -0.1758 -1.5499
 1503TIP3    H2 4516   2.033   0.120   0.288 -1.0491 -1.1004  0.6456
 1504TIP3   OH2 4517   0.227   1.211   3.300  0.1669 -1.2339  0.1758
 1504TIP3    H1 4518   0.174   1.133   3.284 -1.8011 -0.6016  2.8925
 1504TIP3    H2 4519   0.196   1.245   3.384  1.2906  2.2185 -0.6264
 1505TIP3   OH2 4520   1.436   5.492   1.873 -0.4117  0.5333  0.1771
 1505TIP3    H1 4521   1.369   5.560   1.878 -2.0335 -1.0336  0.7674
 1505TIP3    H2 4522   1.389   5.410   1.888  1.3842 -0.7947 -0.9508
 1506TIP3   OH2 4523   5.389   0.277   5.064  0.1161 -0.2065 -0.7882
 1506TIP3    H1 4524   5.333   0.225   5.121 -0.0438 -0.1112 -0.8595
 1506TIP3    H2 4525   5.329   0.317   5.001  0.0925  1.0860  0.0323
 1507TIP3   OH2 4526   1.389   0.235   4.837 -0.8626 -0.2180 -0.6892
 1507TIP3    H1 4527   1.311   0.222   4.891 -0.3036  1.3684  0.5761
 1507TIP3    H2 4528   1.459   0.193   4.886 -0.8669 -1.4990 -1.7451
 1508TIP3   OH2 4529   4.003   4.983   4.116  0.3199  0.1118  0.2208
 1508TIP3    H1 4530   3.923   4.969   4.066 -0.6090 -1.5654  2.0484
 1508TIP3    H2 4531   3.973   5.024   4.197  1.3747 -0.1230  0.7380
 1509TIP3   OH2 4532   3.120   3.980   1.908 -0.2564  0.2381  0.4163
 1509TIP3    H1 4533   3.114   3.963   1.814  2.0299  1.6716 -0.0352
 1509TIP3    H2 4534   3.094   4.072   1.918 -3.7960 -0.7056  1.7255
 1510TIP3   OH2 4535   2.628   5.962   3.630 -0.5368 -0.0035 -0.1989
 1510TIP3    H1 4536   2.647   5.900   3.560 -3.8642 -2.8965  1.1791
 1510TIP3    H2 4537   2.540   5.995   3.610 -0.3872  1.3312  1.1492
 1511TIP3   OH2 4538   5.694   2.490   2.432  0.9498 -0.0531 -0.3592
 1511TIP3    H1 4539   5.632   2.532   2.374  0.6658  0.3561  0.2329
 1511TIP3    H2 4540   5.641   2.460   2.506  1.2478 -0.8842 -0.4704
 1512TIP3   OH2 4541   4.373   5.776   4.936  0.3893  0.7492 -0.3850
 1512TIP3    H1 4542   4.381   5.712   4.865 -2.2767  2.2031 -2.1689
 1512TIP3    H2 4543   4.384   5.724   5.016 -0.9248 -1.8566 -1.7455
 1513TIP3   OH2 4544   3.530   2.841   4.187 -0.5552  0.7417  0.3040
 1513TIP3    H1 4545   3.545   2.935   4.195  0.9144  0.4986  0.7198
 1513TIP3    H2 4546   3.594   2.812   4.122  0.6494 -0.3265  1.8995
 1514TIP3   OH2 4547   2.069   3.077   0.677 -0.0494  0.2993 -0.3957
 1514TIP3    H1 4548   2.033   2.989   0.664 -0.2683  0.4193 -0.5990
 1514TIP3    H2 4549   2.009   3.135   0.631  0.6212  0.4593 -1.1061
 1515TIP3   OH2 4550   5.310   1.887   4.442 -0.3257 -0.4803 -0.6985
 1515TIP3    H1 4551   5.319   1.792   4.438  0.0402 -0.4218 -1.3950
 1515TIP3    H2 4552   5.394   1.921   4.411 -0.7851  0.0628 -1.3778
 1516TIP3   OH2 4553   4.857   2.368   0.142  0.4817 -0.0861  0.3108
 1516TIP3    H1 4554   4.838   2.438   0.204  2.2317 -0.4840  1.3447
 1516TIP3    H2 4555   4.906   2.410   0.072 -2.0150  0.4856 -1.1941
 1517TIP3   OH2 4556   1.812   4.865   3.163 -0.1559  0.2584  0.1134
 1517TIP3    H1 4557   1.825   4.804   3.090 -0.4267  0.2586  0.0660
 1517TIP3    H2 4558   1.720   4.855   3.187 -0.9531  2.5711 -1.6256
 1518TIP3   OH2 4559   4.619   4.824   3.349  0.6583  0.4442 -0.1460
 1518TIP3    H1 4560   4.602   4.834   3.255 -1.5514  2.0994  0.3734
 1518TIP3    H2 4561   4.571   4.746   3.374 -0.0615  0.8956 -0.1053
 1519TIP3   OH2 4562   2.447   2.420   3.494  0.1155 -0.0872 -0.1005
 1519TIP3    H1 4563   2.535   2.412   3.530 -0.7925 -1.8465  1.9188
 1519TIP3    H2 4564   2.401   2.478   3.554 -0.0474  1.1344 -1.3560
 1520TIP3   OH2 4565   0.472   1.884   0.714 -0.3863 -0.3128  0.7002
 1520TIP3    H1 4566   0.497   1.976   0.719 -0.6392 -0.1356 -0.9198
 1520TIP3    H2 4567   0.555   1.837   0.727  0.2512  0.2194 -1.0407
 1521TIP3   OH2 4568   1.679   5.427   2.616 -0.2310 -0.0668 -0.1633
 1521TIP3    H1 4569   1.707   5.479   2.691  0.7475 -0.9537  0.0967
 1521TIP3    H2 4570   1.742   5.356   2.610 -1.2273 -0.9277 -0.8545
 1522TIP3   OH2 4571   3.423   3.486   4.524  0.0768  0.1686 -0.5995
 1522TIP3    H1 4572   3.439   3.579   4.535  1.3426  0.1518 -2.0034
 1522TIP3    H2 4573   3.503   3.452   4.485  0.1181 -1.7491  0.9906
 1523TIP3   OH2 4574   1.353   3.883   1.775 -0.3302  0.7737 -0.2076
 1523TIP3    H1 4575   1.430   3.939   1.789 -0.1001  0.3809  0.1108
 1523TIP3    H2 4576   1.356   3.861   1.681 -0.5878  1.5285 -0.4005
 1524TIP3   OH2 4577   2.479   5.865   2.801 -0.9898 -0.3052  0.0869
 1524TIP3    H1 4578   2.421   5.877   2.726 -2.4177 -2.6437  0.6899
 1524TIP3    H2 4579   2.425   5.887   2.877 -0.4347 -0.5285  0.5586
 1525TIP3   OH2 4580   0.536   0.920   1.652 -0.2487  0.7475  0.0546
 1525TIP3    H1 4581   0.532   0.984   1.582  0.8880  2.3536  1.3620
 1525TIP3    H2 4582   0.465   0.944   1.712 -0.6077 -0.0123 -0.0503
 1526TIP3   OH2 4583   1.624   4.758   4.584  0.3946 -0.1165 -0.1817
 1526TIP3    H1 4584   1.559   4.719   4.527 -1.3712  0.0202  1.6151
 1526TIP3    H2 4585   1.644   4.690   4.648 -0.4009  0.8360  1.1458
 1527TIP3   OH2 4586   0.047   0.059   3.449 -0.3972  0.0028  0.0004
 1527TIP3    H1 4587   0.082  -0.027   3.473 -0.9244  0.0997  1.1716
 1527TIP3    H2 4588   0.125   0.113   3.432  0.0424  0.0369  1.9326
 1528TIP3   OH2 4589   2.541   3.497   0.544  0.3369 -0.0827 -0.3356
 1528TIP3    H1 4590   2.583   3.411   0.535  0.1060 -0.1068 -1.2967
 1528TIP3    H2 4591   2.600   3.548   0.599  0.7034 -0.7066 -0.1456
 1529TIP3   OH2 4592   1.553   4.303   0.219  0.2405 -0.4978 -0.0668
 1529TIP3    H1 4593   1.629   4.283   0.273  1.1367 -0.6276 -1.3158
 1529TIP3    H2 4594   1.528   4.392   0.243  0.3434 -0.7014  0.8371
 1530TIP3   OH2 4595   0.448   0.248   0.591  0.0412 -0.2941  0.0385
 1530TIP3    H1 4596   0.494   0.327   0.621  2.8799 -0.9453 -2.1009
 1530TIP3    H2 4597   0.408   0.213   0.670  1.8677  1.2944  1.8083
 1531TIP3   OH2 4598   5.721   0.384   4.735  0.2551 -0.2560 -0.3361
 1531TIP3    H1 4599   5.633   0.377   4.771  0.9974 -1.6815  1.3588
 1531TIP3    H2 4600   5.756   0.466   4.772  0.5690 -1.0761  1.2591
 1532TIP3   OH2 4601   1.317   4.263   0.657 -0.2450  0.5294 -0.0542
 1532TIP3    H1 4602   1.259   4.327   0.699  1.3631  1.4845  0.8032
 1532TIP3    H2 4603   1.340   4.302   0.573  0.7810  1.1288  0.4930
 1533TIP3   OH2 4604   2.806   0.151   3.738 -0.1938  0.4702  0.2549
 1533TIP3    H1 4605   2.740   0.189   3.795 -0.1784  0.5387  0.2279
 1533TIP3    H2 4606   2.889   0.183   3.772 -0.1647  0.2710  0.3732
 1534TIP3   OH2 4607   5.414   2.798   1.873 -0.2244  0.0781  0.0332
 1534TIP3    H1 4608   5.498   2.779   1.832 -0.1331  1.1523 -0.3108
 1534TIP3    H2 4609   5.357   2.726   1.846  0.1039  0.2641 -1.2143
 1535TIP3   OH2 4610  -0.015   2.007   1.806  0.5468 -0.3966 -0.6153
 1535TIP3    H1 4611   0.032   1.961   1.875  1.1123  2.7522  1.3081
 1535TIP3    H2 4612   0.055   2.041   1.749  0.1760 -1.3414 -1.6682
 1536TIP3   OH2 4613   4.204   3.266   4.941 -0.2998 -0.1071  0.0222
 1536TIP3    H1 4614   4.197   3.361   4.942 -1.3844 -0.1596 -0.5755
 1536TIP3    H2 4615   4.245   3.243   5.024  3.9798  1.1320 -1.4801
 1537TIP3   OH2 4616   3.367   1.679   1.432  0.7677  0.2047  0.3354
 1537TIP3    H1 4617   3.427   1.739   1.476  0.0360  0.7145  0.6464
 1537TIP3    H2 4618   3.422   1.633   1.368  1.3219  1.2667  0.0248
 1538TIP3   OH2 4619   6.010   0.076   1.145 -0.2698  0.3427 -0.2168
 1538TIP3    H1 4620   5.924   0.039   1.131 -0.0510 -0.2528 -0.0129
 1538TIP3    H2 4621   6.004   0.165   1.111 -1.0867  0.4475  0.1875
 1539TIP3   OH2 4622   3.234   4.016   0.804 -0.0575  0.3361 -0.1229
 1539TIP3    H1 4623   3.309   4.002   0.747 -0.4177  1.7848 -1.0038
 1539TIP3    H2 4624   3.172   3.947   0.781 -0.0662  0.7175 -1.2764
 1540TIP3   OH2 4625   1.513   1.616   1.129  0.2920 -0.6607 -0.0111
 1540TIP3    H1 4626   1.467   1.697   1.153  1.0269 -0.6463  1.4709
 1540TIP3    H2 4627   1.604   1.634   1.152  0.7176 -1.3929 -1.0752
 1541TIP3   OH2 4628   4.671   3.360   0.902 -0.4564  0.0835 -0.6322
 1541TIP3    H1 4629   4.716   3.386   0.982 -0.1070  0.9597 -1.0974
 1541TIP3    H2 4630   4.588   3.323   0.931  0.8225 -2.2465  0.3026
 1542TIP3   OH2 4631   6.144   2.886   0.247  0.4249 -0.1744  0.1064
 1542TIP3    H1 4632   6.232   2.856   0.270  0.2059 -1.1571 -0.3049
 1542TIP3    H2 4633   6.095   2.806   0.229  0.0656  0.4504 -1.9014
 1543TIP3   OH2 4634   1.878   3.295   2.327 -0.2223 -0.1339 -0.0058
 1543TIP3    H1 4635   1.859   3.280   2.234 -0.0512 -0.4092  0.0053
 1543TIP3    H2 4636   1.909   3.386   2.331 -0.2380 -0.1197 -0.2145
 1544TIP3   OH2 4637   5.636   5.333   4.154  0.0206  0.8132 -0.2443
 1544TIP3    H1 4638   5.660   5.270   4.086 -0.1249 -0.3853  0.7946
 1544TIP3    H2 4639   5.629   5.416   4.107  0.9987  0.2248 -1.5007
 1545TIP3   OH2 4640   1.252   1.646   3.299  0.2706  0.8971 -0.3355
 1545TIP3    H1 4641   1.310   1.574   3.322 -0.1453  0.4096 -0.7958
 1545TIP3    H2 4642   1.309   1.710   3.257  0.5286  0.5387 -0.5408
 1546TIP3   OH2 4643   3.598   0.874   1.195  0.0547 -0.0405  0.5261
 1546TIP3    H1 4644   3.532   0.920   1.248 -0.1324  1.2563 -0.7558
 1546TIP3    H2 4645   3.665   0.940   1.179  0.3616 -0.5722 -0.3993
 1547TIP3   OH2 4646   5.485   3.485   4.571 -0.1310 -0.1034 -0.4953
 1547TIP3    H1 4647   5.431   3.418   4.611  0.4138 -0.0987  0.2560
 1547TIP3    H2 4648   5.574   3.453   4.580  0.0041 -0.1079 -1.7275
 1548TIP3   OH2 4649   4.029   1.578   5.030  0.0591 -1.1449  0.0466
 1548TIP3    H1 4650   3.974   1.526   4.971 -0.3367  0.4372 -1.0702
 1548TIP3    H2 4651   3.978   1.658   5.044  1.9647  0.3092 -0.8910
 1549TIP3   OH2 4652   2.306   2.537   3.704 -0.0191  0.2246 -0.6728
 1549TIP3    H1 4653   2.268   2.454   3.734  0.8055 -0.4845 -1.5307
 1549TIP3    H2 4654   2.239   2.575   3.647  0.6907 -1.2704 -2.6062
 1550TIP3   OH2 4655   6.223   5.164   3.231  0.5156 -0.3327 -0.4680
 1550TIP3    H1 4656   6.167   5.091   3.206 -1.2145  1.2124 -1.3221
 1550TIP3    H2 4657   6.165   5.225   3.276  1.7222  0.9065 -0.5194
 1551TIP3   OH2 4658   3.437   5.755   1.577  0.2402 -0.3265 -1.0391
 1551TIP3    H1 4659   3.496   5.785   1.646 -0.0711 -0.8978 -0.5153
 1551TIP3    H2 4660   3.375   5.827   1.566 -0.7171 -0.8673  0.4562
 1552TIP3   OH2 4661   5.182   5.944   4.283 -0.7479 -0.4112 -0.3215
 1552TIP3    H1 4662   5.233   6.023   4.301 -0.0170 -0.4690 -1.9867
 1552TIP3    H2 4663   5.212   5.881   4.348 -1.0639  0.5261  0.7855
 1553TIP3   OH2 4664   1.621   5.835   2.162 -0.6995 -0.3679 -0.2532
 1553TIP3    H1 4665   1.594   5.822   2.072  0.8793  1.7383 -1.1165
 1553TIP3    H2 4666   1.716   5.822   2.161 -0.3766  1.4869  0.6617
 1554TIP3   OH2 4667   1.943   4.762   2.752  0.4875 -0.5939  0.1901
 1554TIP3    H1 4668   1.981   4.827   2.812 -0.5271  0.7832 -0.5904
 1554TIP3    H2 4669   2.019   4.716   2.716  1.3585  1.0883 -0.2451
 1555TIP3   OH2 4670   1.607   2.497   2.615 -0.0083  0.6360 -0.1943
 1555TIP3    H1 4671   1.668   2.433   2.579  2.0547  2.4583 -0.1191
 1555TIP3    H2 4672   1.568   2.453   2.691 -0.6659 -1.4357 -1.6410
 1556TIP3   OH2 4673   4.086   1.460   2.770 -0.2493  0.4192  0.1586
 1556TIP3    H1 4674   4.137   1.464   2.850 -0.3189  2.1700  0.1462
 1556TIP3    H2 4675   4.066   1.551   2.749 -0.0543  0.0282 -1.9688
 1557TIP3   OH2 4676   2.654   3.470   0.123 -0.1393  0.1864 -0.3962
 1557TIP3    H1 4677   2.588   3.536   0.143 -2.7032 -2.2625 -0.0647
 1557TIP3    H2 4678   2.682   3.490   0.034 -3.0399  0.1536 -1.4439
 1558TIP3   OH2 4679   2.959   0.490   4.555 -0.4935  0.2837 -0.0835
 1558TIP3    H1 4680   3.002   0.575   4.545 -1.4222  0.7694 -0.0751
 1558TIP3    H2 4681   2.913   0.496   4.639 -0.7045 -0.1630 -0.1625
 1559TIP3   OH2 4682   0.193   2.736   1.156  0.3409 -0.0527 -0.5390
 1559TIP3    H1 4683   0.266   2.775   1.203  0.4903 -2.0527  1.0274
 1559TIP3    H2 4684   0.123   2.800   1.163  1.4635  1.2675 -0.7972
 1560TIP3   OH2 4685   2.500   1.248   3.001 -0.6200  0.3688 -0.2973
 1560TIP3    H1 4686   2.477   1.213   3.087 -0.6261  2.2988  0.5338
 1560TIP3    H2 4687   2.532   1.172   2.952 -2.5003 -1.1580  0.7174
 1561TIP3   OH2 4688   0.287   0.971   1.814  0.1849 -0.2757 -0.4188
 1561TIP3    H1 4689   0.283   1.066   1.826 -1.3613 -0.4364  0.7948
 1561TIP3    H2 4690   0.211   0.951   1.758 -1.0581 -0.9973  1.4204
 1562TIP3   OH2 4691   1.806   3.021   1.296  0.0925  0.3096  0.1575
 1562TIP3    H1 4692   1.771   3.106   1.322  0.3906  0.8110 -1.0100
 1562TIP3    H2 4693   1.896   3.021   1.328  0.7760  1.3293 -1.6255
 1563TIP3   OH2 4694   0.109   5.555   4.665  0.5476  0.4860 -0.6098
 1563TIP3    H1 4695   0.115   5.606   4.746  0.5929 -0.6863  0.1537
 1563TIP3    H2 4696   0.193   5.571   4.620  0.6639  0.8719 -0.2636
 1564TIP3   OH2 4697   0.522   5.302   5.013 -0.3699 -0.5380 -0.2171
 1564TIP3    H1 4698   0.550   5.271   4.927 -0.3372  0.5513 -0.6097
 1564TIP3    H2 4699   0.600   5.343   5.050 -0.8474  0.6195 -0.4383
 1565TIP3   OH2 4700   2.422   5.886   5.176  0.4345 -0.3391  0.7485
 1565TIP3    H1 4701   2.404   5.978   5.191  0.2842 -0.1892 -0.2691
 1565TIP3    H2 4702   2.425   5.877   5.081  1.7427 -1.1251  0.8276
 1566TIP3   OH2 4703   4.459   1.620   1.960 -0.1015 -0.5155 -0.5405
 1566TIP3    H1 4704   4.539   1.590   2.005  1.7951  1.1251 -2.5519
 1566TIP3    H2 4705   4.428   1.693   2.014 -0.0567 -0.9611  0.0988
 1567TIP3   OH2 4706   1.607   4.186   2.871  0.5661  0.0327 -0.8122
 1567TIP3    H1 4707   1.588   4.174   2.778  0.8427 -0.0180 -0.8601
 1567TIP3    H2 4708   1.689   4.139   2.886  2.7494  3.3154 -1.4320
 1568TIP3   OH2 4709   3.400   1.575   4.689 -0.0238 -0.1530 -0.3221
 1568TIP3    H1 4710   3.413   1.618   4.605  0.9428  0.0799 -0.0683
 1568TIP3    H2 4711   3.439   1.635   4.753  1.5943 -1.4960  0.0202
 1569TIP3   OH2 4712   2.648   2.076   0.738 -0.5052  0.4005 -1.0192
 1569TIP3    H1 4713   2.711   2.078   0.666 -0.0812 -0.6947 -0.6961
 1569TIP3    H2 4714   2.690   2.126   0.808 -0.7881  1.2086 -1.4146
 1570TIP3   OH2 4715   3.484   3.840   5.091 -0.3986 -0.1548 -0.2940
 1570TIP3    H1 4716   3.400   3.796   5.079 -0.1444 -0.8727  0.4678
 1570TIP3    H2 4717   3.549   3.777   5.058  0.0709 -0.9270  1.9303
 1571TIP3   OH2 4718   3.453   0.129   3.145  0.1146  0.2800  0.5927
 1571TIP3    H1 4719   3.396   0.202   3.122  0.9166 -0.0481 -3.1523
 1571TIP3    H2 4720   3.394   0.058   3.170 -0.7595  1.5105  2.1654
 1572TIP3   OH2 4721   4.454   3.824   0.870  0.1503  0.3442 -0.1786
 1572TIP3    H1 4722   4.504   3.778   0.802  0.1098  1.1294 -0.7506
 1572TIP3    H2 4723   4.440   3.911   0.834  0.2888  0.8321  0.9195
 1573TIP3   OH2 4724   4.886   4.720   4.722  0.0780 -0.3134  0.0513
 1573TIP3    H1 4725   4.943   4.788   4.687  0.2777 -1.2192 -1.4842
 1573TIP3    H2 4726   4.928   4.692   4.804 -0.5881  2.1100  1.3205
 1574TIP3   OH2 4727   0.116   5.390   4.280 -0.2011 -0.2097  0.2440
 1574TIP3    H1 4728   0.128   5.304   4.238 -0.4033 -2.1178  3.6914
 1574TIP3    H2 4729   0.191   5.398   4.339 -0.0497  2.1977 -0.1755
 1575TIP3   OH2 4730   0.060   3.011   1.006  0.1969  0.1066  0.1421
 1575TIP3    H1 4731  -0.022   3.021   0.958 -0.1011 -1.1182  0.3667
 1575TIP3    H2 4732   0.039   2.951   1.078  1.7501 -1.8762 -0.9548
 1576TIP3   OH2 4733   3.628   5.650   0.333  0.1968  0.0943  0.1228
 1576TIP3    H1 4734   3.552   5.707   0.317  0.1987 -0.1479 -0.8003
 1576TIP3    H2 4735   3.654   5.670   0.423 -1.6038 -0.5731  0.8346
 1577TIP3   OH2 4736   3.050   0.701   4.848 -0.3118  0.3580 -0.2183
 1577TIP3    H1 4737   3.034   0.698   4.942  2.1132 -0.7693  0.2411
 1577TIP3    H2 4738   2.987   0.640   4.810  0.2793 -1.0541  0.9895
 1578TIP3   OH2 4739   5.845   4.674   3.510  0.3106  0.0923  0.7447
 1578TIP3    H1 4740   5.905   4.599   3.500  0.5970  0.3827  0.2116
 1578TIP3    H2 4741   5.877   4.720   3.588 -0.4279 -0.8372  1.6252
 1579TIP3   OH2 4742   0.883   0.320   2.919  0.6816  0.0561  0.2383
 1579TIP3    H1 4743   0.799   0.351   2.953  0.4432  0.4000 -0.6338
 1579TIP3    H2 4744   0.942   0.394   2.932  0.9513 -0.3121  1.1811
 1580TIP3   OH2 4745   4.216   5.265   1.939 -0.0261  0.1796 -0.0174
 1580TIP3    H1 4746   4.301   5.221   1.944 -0.9786 -1.5748  3.1897
 1580TIP3    H2 4747   4.152   5.194   1.931 -1.3711  1.2868  0.3411
 1581TIP3   OH2 4748   1.976   4.245   0.968  0.1875 -0.3223 -0.4015
 1581TIP3    H1 4749   1.949   4.283   1.052 -2.4395 -1.1840 -0.7954
 1581TIP3    H2 4750   1.975   4.150   0.983 -0.1456 -0.4780 -1.3679
 1582TIP3   OH2 4751   2.400   4.045   5.171  0.4854  0.2408  0.2009
 1582TIP3    H1 4752   2.355   3.985   5.112 -2.1120  0.6877  1.5918
 1582TIP3    H2 4753   2.482   4.001   5.193  0.3176 -1.0915 -1.6421
 1583TIP3   OH2 4754   2.875   2.504   1.647 -0.1935  0.0463 -0.2330
 1583TIP3    H1 4755   2.897   2.541   1.561 -0.5963 -1.1195 -0.8518
 1583TIP3    H2 4756   2.849   2.414   1.628  0.7799 -0.5677  1.2489
 1584TIP3   OH2 4757   0.093   1.618   0.460  0.1267 -0.1595 -0.2878
 1584TIP3    H1 4758   0.049   1.670   0.393  1.4927  0.3739 -0.8065
 1584TIP3    H2 4759   0.140   1.550   0.410  0.6406 -0.1499  0.1746
 1585TIP3   OH2 4760   6.014   4.622   5.144  0.8437 -0.3205 -0.1949
 1585TIP3    H1 4761   5.972   4.619   5.230  0.8988 -1.4308 -0.1886
 1585TIP3    H2 4762   5.975   4.549   5.096 -0.1878  1.1033 -1.6079
 1586TIP3   OH2 4763   6.229   4.093   1.076  0.2889  0.3991 -0.0402
 1586TIP3    H1 4764   6.209   4.056   1.162 -0.6703 -0.2800 -0.5360
 1586TIP3    H2 4765   6.309   4.143   1.090 -0.3873  1.1548  1.4963
 1587TIP3   OH2 4766   5.619   0.146   2.363  0.2746  0.5908 -0.0413
 1587TIP3    H1 4767   5.669   0.149   2.445  0.3553  2.0421 -0.1245
 1587TIP3    H2 4768   5.588   0.055   2.358 -1.0613  0.8174  2.3932
 1588TIP3   OH2 4769   2.490   3.903   0.710  0.0657  0.1268  0.0267
 1588TIP3    H1 4770   2.550   3.876   0.640 -1.6043  0.2282 -1.5058
 1588TIP3    H2 4771   2.509   3.844   0.782  1.5865 -0.2235 -0.6157
 1589TIP3   OH2 4772   5.279   5.986   1.109  0.0321 -0.1579 -0.2921
 1589TIP3    H1 4773   5.340   5.912   1.113  1.7099  1.2021  0.6971
 1589TIP3    H2 4774   5.317   6.045   1.044 -1.0828  0.0360 -0.7921
 1590TIP3   OH2 4775   3.872   4.014   1.593 -0.2575  0.1443 -0.5317
 1590TIP3    H1 4776   3.807   3.964   1.543 -2.5061  0.2734  2.0140
 1590TIP3    H2 4777   3.894   3.958   1.667 -0.7097  1.7381  0.8815
 1591TIP3   OH2 4778   6.210   4.805   3.366  0.4531 -0.1614  0.0274
 1591TIP3    H1 4779   6.260   4.743   3.312  0.3920 -1.1568  1.0703
 1591TIP3    H2 4780   6.123   4.805   3.327  0.1937 -1.4690  0.5612
 1592TIP3   OH2 4781   0.308   4.964   4.077  0.5973  0.0917  0.0074
 1592TIP3    H1 4782   0.295   4.914   3.997 -2.1157  0.6288  0.0218
 1592TIP3    H2 4783   0.223   5.003   4.096  1.7136  1.8526  1.9226
 1593TIP3   OH2 4784   6.088   1.158   3.273 -0.0952 -0.2518  0.0742
 1593TIP3    H1 4785   6.071   1.096   3.343 -1.9388  1.6028  1.3809
 1593TIP3    H2 4786   6.064   1.112   3.193  0.3518 -1.8120  0.8023
 1594TIP3   OH2 4787   2.809   5.229   4.313 -0.1396 -0.1201  0.2460
 1594TIP3    H1 4788   2.893   5.232   4.360 -0.0896  1.4584  0.1166
 1594TIP3    H2 4789   2.819   5.293   4.243 -1.3246 -0.1975 -0.0092
 1595TIP3   OH2 4790   4.409   1.776   4.758 -0.2740  0.0090  0.4573
 1595TIP3    H1 4791   4.485   1.821   4.794 -0.1644  0.6517 -0.5294
 1595TIP3    H2 4792   4.375   1.724   4.830 -0.7603  2.1290  1.8505
 1596TIP3   OH2 4793   6.156   5.792   4.315 -0.3834 -0.2616  0.3932
 1596TIP3    H1 4794   6.222   5.818   4.250 -1.2672  0.0160 -0.4122
 1596TIP3    H2 4795   6.205   5.782   4.397  0.6451 -0.0050 -0.1803
 1597TIP3   OH2 4796   2.244   4.696   4.076  0.4659 -0.0866 -0.4761
 1597TIP3    H1 4797   2.318   4.636   4.088  1.0443  0.3768 -1.5679
 1597TIP3    H2 4798   2.271   4.752   4.004 -1.1078 -0.1165 -1.1184
 1598TIP3   OH2 4799   4.427   0.123   3.138 -0.6313  0.1937 -0.1347
 1598TIP3    H1 4800   4.422   0.155   3.048  0.3699 -1.3328 -0.7750
 1598TIP3    H2 4801   4.364   0.050   3.141 -1.1766  0.6770  0.6256
 1599TIP3   OH2 4802   2.614   3.396   4.452  0.1639  0.4474  0.4036
 1599TIP3    H1 4803   2.554   3.468   4.473  0.4527  0.3134  1.7472
 1599TIP3    H2 4804   2.653   3.371   4.536  2.4193  0.7935 -0.4631
 1600TIP3   OH2 4805   2.398   0.342   1.639  0.0508  0.5514  0.4216
 1600TIP3    H1 4806   2.421   0.272   1.700  0.7038 -0.7608 -1.2547
 1600TIP3    H2 4807   2.346   0.299   1.571  0.7251  1.6301 -0.8160
 1601TIP3   OH2 4808   3.404   5.808   3.916 -0.0885  0.0234 -0.0393
 1601TIP3    H1 4809   3.464   5.873   3.880  0.5446 -0.4525  0.1366
 1601TIP3    H2 4810   3.318   5.850   3.912  0.3595  1.0351  0.4617
 1602TIP3   OH2 4811   4.920   5.301   1.413  0.5503  0.2707 -0.2996
 1602TIP3    H1 4812   4.971   5.278   1.491 -2.2828 -2.6501  0.9508
 1602TIP3    H2 4813   4.938   5.230   1.351 -1.3237 -0.4444 -0.0898
 1603TIP3   OH2 4814   3.617   2.430   2.433 -0.1464 -0.4750  0.2608
 1603TIP3    H1 4815   3.624   2.345   2.390  0.9049 -0.0981 -0.3450
 1603TIP3    H2 4816   3.597   2.408   2.525 -1.6478 -1.3023 -0.2132
 1604TIP3   OH2 4817   3.811   3.905   3.241 -0.2903  0.0187  0.1073
 1604TIP3    H1 4818   3.793   3.827   3.294 -0.2323 -0.7788 -1.0135
 1604TIP3    H2 4819   3.735   3.912   3.183 -0.6805  1.2830  0.7180
 1605TIP3   OH2 4820   3.026   1.926   1.326 -0.6144  0.0539 -0.8203
 1605TIP3    H1 4821   3.020   1.837   1.360  1.1941  0.1968  0.0001
 1605TIP3    H2 4822   3.027   1.981   1.404  1.8827  0.5024 -1.0693
 1606TIP3   OH2 4823   4.203   4.084   5.040 -0.2332  0.1356 -0.1957
 1606TIP3    H1 4824   4.270   4.019   5.018 -0.3695 -0.1729  0.2817
 1606TIP3    H2 4825   4.245   4.143   5.101 -0.0818  0.5555 -0.6997
 1607TIP3   OH2 4826   6.094   4.361   0.077 -0.3344 -0.5554 -0.0663
 1607TIP3    H1 4827   6.030   4.425   0.044  0.6081  0.9135  0.8184
 1607TIP3    H2 4828   6.129   4.319  -0.001  0.1258  1.1422 -0.8241
 1608TIP3   OH2 4829   3.192  -0.003   0.076 -0.1920  0.6164 -0.4248
 1608TIP3    H1 4830   3.252  -0.004   0.151 -1.1945 -2.3359  0.4693
 1608TIP3    H2 4831   3.242   0.039   0.006  2.2641 -0.0539  0.8093
 1609TIP3   OH2 4832   4.156   1.724   4.604  0.5117  0.2537  0.0180
 1609TIP3    H1 4833   4.227   1.762   4.656  0.5205 -0.8407  0.8450
 1609TIP3    H2 4834   4.196   1.650   4.560 -0.2384 -0.7439  0.9673
 1610TIP3   OH2 4835   5.076   5.935   2.616  0.4166 -0.0260 -0.6465
 1610TIP3    H1 4836   5.128   5.857   2.596 -1.6199 -2.1796  1.7170
 1610TIP3    H2 4837   5.118   5.973   2.693  0.0223 -0.2099 -0.3388
 1611TIP3   OH2 4838   1.027   5.407   4.873 -0.8547  0.3067 -0.2006
 1611TIP3    H1 4839   0.958   5.468   4.848  0.1336  1.6689  0.3158
 1611TIP3    H2 4840   1.106   5.460   4.878  0.3812 -1.3049 -1.2902
 1612TIP3   OH2 4841   2.215   5.025   0.948 -0.2153 -0.0253 -0.2094
 1612TIP3    H1 4842   2.237   5.048   0.858  0.1115 -2.6403 -0.8903
 1612TIP3    H2 4843   2.282   5.067   1.002  0.9834 -0.3534 -1.4126
 1613TIP3   OH2 4844   5.529   5.576   1.547 -0.0637 -0.5049  0.1422
 1613TIP3    H1 4845   5.569   5.511   1.490  0.0752  0.4378 -0.8662
 1613TIP3    H2 4846   5.436   5.573   1.527 -0.2813 -1.4629  1.2191
 1614TIP3   OH2 4847   1.578   0.915   4.012  0.0749  0.6849  0.2727
 1614TIP3    H1 4848   1.631   0.968   4.070  0.3232  0.2322  0.4662
 1614TIP3    H2 4849   1.630   0.836   3.997 -1.5830 -0.9729  2.5594
 1615TIP3   OH2 4850   4.140   4.352   0.356  0.4474 -0.3277  0.1440
 1615TIP3    H1 4851   4.159   4.318   0.443  1.8419  0.3130  0.1174
 1615TIP3    H2 4852   4.219   4.331   0.305  0.0828  0.2384 -0.6721
 1616TIP3   OH2 4853   1.306   3.736   3.914 -0.8588 -0.4806 -0.2340
 1616TIP3    H1 4854   1.227   3.705   3.958 -0.8091 -1.5737 -0.8746
 1616TIP3    H2 4855   1.362   3.658   3.908  0.1101  0.1858 -0.1413
 1617TIP3   OH2 4856   1.215   4.430   0.369 -0.6183  0.0419 -0.4974
 1617TIP3    H1 4857   1.206   4.368   0.296  2.1361 -1.2240  0.0751
 1617TIP3    H2 4858   1.309   4.447   0.373 -1.1729  3.8082 -0.1596
 1618TIP3   OH2 4859   1.089   2.876   1.376  0.4989  0.1082  0.3245
 1618TIP3    H1 4860   1.122   2.815   1.309  1.9119 -0.1507  1.2187
 1618TIP3    H2 4861   1.071   2.821   1.452 -0.8303  0.4406  0.2685
 1619TIP3   OH2 4862   4.064   5.477   1.843  0.3994  0.2722  0.1606
 1619TIP3    H1 4863   4.101   5.412   1.903 -1.9066 -1.3794 -0.0783
 1619TIP3    H2 4864   4.086   5.444   1.755 -0.9602 -0.3336  0.0339
 1620TIP3   OH2 4865   2.183   2.480   4.711  0.0584  0.2504 -0.4851
 1620TIP3    H1 4866   2.120   2.452   4.645  0.0993 -1.7589  0.2490
 1620TIP3    H2 4867   2.156   2.568   4.735 -0.8808  0.4216 -2.0594
 1621TIP3   OH2 4868   1.584   3.549   3.417 -0.4759  0.2627 -0.2072
 1621TIP3    H1 4869   1.634   3.610   3.363 -0.3216 -0.2061 -0.6116
 1621TIP3    H2 4870   1.646   3.518   3.483  0.4397 -1.8515 -1.9125
 1622TIP3   OH2 4871   4.143   0.531   1.745 -0.2350 -0.1637 -0.2323
 1622TIP3    H1 4872   4.053   0.548   1.716 -0.4989 -0.9931  0.0809
 1622TIP3    H2 4873   4.156   0.437   1.731  0.5940 -0.0500 -0.2898
 1623TIP3   OH2 4874   2.414   0.677   2.782  0.2739  0.0268 -0.5613
 1623TIP3    H1 4875   2.421   0.592   2.825 -0.4223  1.7039  3.2653
 1623TIP3    H2 4876   2.503   0.713   2.784  0.3407 -0.1051 -1.0564
 1624TIP3   OH2 4877   4.886   0.795   1.200  0.2111 -1.0369 -0.5909
 1624TIP3    H1 4878   4.901   0.756   1.286  1.6038  0.1560 -0.2494
 1624TIP3    H2 4879   4.947   0.750   1.142  0.4441 -0.7251 -0.5942
 1625TIP3   OH2 4880   5.677   1.752   4.525 -0.7640  0.6994  0.9213
 1625TIP3    H1 4881   5.618   1.693   4.572 -0.6175 -0.7507 -0.6360
 1625TIP3    H2 4882   5.648   1.839   4.550 -1.3425  0.0112  2.8687
 1626TIP3   OH2 4883   2.983   1.670   3.146 -0.5103  0.2541 -0.1171
 1626TIP3    H1 4884   3.051   1.623   3.194 -1.6928 -0.8098  0.5689
 1626TIP3    H2 4885   2.973   1.752   3.193 -1.3519 -0.5973  1.2497
 1627TIP3   OH2 4886   4.743   4.205   0.315 -0.0232  0.0347  0.3194
 1627TIP3    H1 4887   4.811   4.143   0.342  1.4978  1.2926 -0.4571
 1627TIP3    H2 4888   4.724   4.181   0.224 -0.4246 -0.1245  0.4417
 1628TIP3   OH2 4889   1.607   2.669   3.828  0.3935 -0.1805 -0.1547
 1628TIP3    H1 4890   1.518   2.687   3.857  0.3260 -0.1167 -0.3961
 1628TIP3    H2 4891   1.633   2.591   3.876  0.6930  0.5598  0.9309
 1629TIP3   OH2 4892   0.846   5.303   0.287 -0.1000 -0.4887  0.5863
 1629TIP3    H1 4893   0.895   5.380   0.316  0.3111 -0.7259  0.5216
 1629TIP3    H2 4894   0.754   5.329   0.297 -0.0067 -0.9746  3.2559
 1630TIP3   OH2 4895   2.152   2.006   1.867  0.0105  0.3685  0.3438
 1630TIP3    H1 4896   2.129   2.076   1.928  1.1128  0.7228  0.3692
 1630TIP3    H2 4897   2.157   1.927   1.922 -0.8350  0.3372  0.3838
 1631TIP3   OH2 4898   6.045   3.067   4.792  0.2041  0.0936  0.5106
 1631TIP3    H1 4899   6.115   3.120   4.754 -0.2635  0.3378 -0.0256
 1631TIP3    H2 4900   6.059   2.979   4.756 -1.0926  0.6270 -1.4522
 1632TIP3   OH2 4901   0.715   1.790   0.773  0.5907  0.2655  0.0691
 1632TIP3    H1 4902   0.783   1.855   0.755 -0.8895  1.7996 -0.3331
 1632TIP3    H2 4903   0.748   1.709   0.734  1.4815  1.3581 -1.5765
 1633TIP3   OH2 4904   0.883   1.327   0.726 -0.0126 -0.3175 -0.3310
 1633TIP3    H1 4905   0.789   1.333   0.712 -0.1521  1.5896  1.0084
 1633TIP3    H2 4906   0.921   1.396   0.671  0.7827 -1.9327 -1.9057
 1634TIP3   OH2 4907   0.253   0.328   2.679  0.5824 -0.2252 -0.0281
 1634TIP3    H1 4908   0.260   0.390   2.607  1.1047  0.0929  0.2986
 1634TIP3    H2 4909   0.189   0.264   2.648  0.7141 -0.0283 -0.7285
 1635TIP3   OH2 4910   5.403   5.173   4.913  0.1297 -0.0922 -0.3313
 1635TIP3    H1 4911   5.408   5.266   4.932  0.1008  0.4451 -2.6610
 1635TIP3    H2 4912   5.360   5.135   4.989  0.2038  1.7796  0.6912
 1636TIP3   OH2 4913   0.539   3.228   3.763 -0.6095 -0.2068 -0.0814
 1636TIP3    H1 4914   0.620   3.232   3.712 -0.2986  0.1701  0.4389
 1636TIP3    H2 4915   0.527   3.317   3.797 -0.4784 -0.5983  1.0227
 1637TIP3   OH2 4916   4.988   0.080   4.119  0.1737  0.2992 -0.3076
 1637TIP3    H1 4917   4.912   0.080   4.178  0.8672  1.4561  0.6318
 1637TIP3    H2 4918   4.957   0.127   4.041 -0.1293  0.6541  0.0156
 1638TIP3   OH2 4919   5.641   0.199   0.449 -0.5212  0.3137 -0.7810
 1638TIP3    H1 4920   5.706   0.269   0.455  0.0355 -0.2117 -0.4345
 1638TIP3    H2 4921   5.652   0.163   0.361 -0.1862  0.0862 -0.6489
 1639TIP3   OH2 4922   1.532   3.035   4.104 -0.2034  0.4404 -0.0942
 1639TIP3    H1 4923   1.444   3.021   4.140 -0.0735 -0.3096 -0.0526
 1639TIP3    H2 4924   1.586   3.057   4.180 -0.2276  0.2751 -0.0281
 1640TIP3   OH2 4925   2.707   5.300   5.039 -0.7520  0.6208 -0.4621
 1640TIP3    H1 4926   2.680   5.251   5.118 -0.3093 -0.7724 -1.1344
 1640TIP3    H2 4927   2.781   5.353   5.068 -1.2367  0.8944  0.3010
 1641TIP3   OH2 4928   3.769   4.183   3.705 -0.7457  0.2136 -0.1340
 1641TIP3    H1 4929   3.820   4.146   3.633 -0.0037  0.8250  0.0632
 1641TIP3    H2 4930   3.726   4.108   3.745 -0.1509 -0.2929 -0.4272
 1642TIP3   OH2 4931   2.283   1.755   1.620  0.5058  0.7532  0.0019
 1642TIP3    H1 4932   2.349   1.688   1.639 -0.9556 -0.9903 -0.7987
 1642TIP3    H2 4933   2.288   1.769   1.526 -0.9273 -0.1977 -0.2527
 1643TIP3   OH2 4934   3.761   2.925   1.894  0.2901 -0.1775  0.0552
 1643TIP3    H1 4935   3.734   2.842   1.855  0.1035 -1.7097  3.0916
 1643TIP3    H2 4936   3.679   2.970   1.916  0.3206 -0.4352  0.7378
 1644TIP3   OH2 4937   0.583   3.284   3.053 -0.2131  0.3861  0.8084
 1644TIP3    H1 4938   0.515   3.313   2.993  0.0591  0.8466  0.7163
 1644TIP3    H2 4939   0.662   3.280   3.000 -0.3205 -0.9543  0.7192
 1645TIP3   OH2 4940   3.112   1.356   3.516  0.3048 -0.0647  0.0975
 1645TIP3    H1 4941   3.082   1.401   3.594 -1.2756  1.2258 -1.1677
 1645TIP3    H2 4942   3.042   1.294   3.496 -0.5974  1.4305 -1.6742
 1646TIP3   OH2 4943   3.707   2.832   3.964 -0.0697  0.2485  0.0045
 1646TIP3    H1 4944   3.788   2.884   3.960  0.3742 -0.4588 -0.4269
 1646TIP3    H2 4945   3.718   2.766   3.895  0.0833 -1.4297  1.5623
 1647TIP3   OH2 4946   2.484   4.962   1.673  0.2136 -0.3278  0.6229
 1647TIP3    H1 4947   2.538   4.888   1.645  1.5017 -0.2811  2.7531
 1647TIP3    H2 4948   2.546   5.032   1.691  0.0146 -1.0975  5.8183
 1648TIP3   OH2 4949   5.613   4.180   5.005  0.0754 -0.0600 -0.1093
 1648TIP3    H1 4950   5.644   4.164   4.916  0.4518 -0.1636  0.0402
 1648TIP3    H2 4951   5.554   4.255   4.997  1.2606  0.8912 -0.2229
 1649TIP3   OH2 4952   4.625   4.169   3.680 -0.4729  0.3136  0.5551
 1649TIP3    H1 4953   4.685   4.102   3.647 -0.2101  0.3383  0.9763
 1649TIP3    H2 4954   4.577   4.198   3.603 -0.6816 -0.4531  0.3832
 1650TIP3   OH2 4955   2.139   5.901   4.397 -0.1364 -0.1295 -0.0135
 1650TIP3    H1 4956   2.205   5.904   4.466  0.0757  0.2377 -0.2305
 1650TIP3    H2 4957   2.081   5.976   4.416 -0.1646 -0.1179 -0.1455
 1651TIP3   OH2 4958   2.286   5.826   2.341  0.1268  0.5852 -0.0678
 1651TIP3    H1 4959   2.349   5.800   2.408  1.0676  3.1152  0.1503
 1651TIP3    H2 4960   2.339   5.871   2.275 -1.3749  2.7457  0.1049
 1652TIP3   OH2 4961   0.639   3.756   3.179  0.8773 -0.4507 -0.7652
 1652TIP3    H1 4962   0.686   3.687   3.224  1.3656 -0.7825 -1.7705
 1652TIP3    H2 4963   0.674   3.837   3.217 -1.1408 -0.6794  1.9155
 1653TIP3   OH2 4964   1.145   2.805   0.219 -0.2224 -0.1698 -0.1473
 1653TIP3    H1 4965   1.083   2.877   0.215  0.0665  0.0252 -1.7474
 1653TIP3    H2 4966   1.091   2.727   0.234 -0.6586  0.2291  0.3611
 1654TIP3   OH2 4967   0.424   3.816   4.932 -0.5483 -0.6732  0.6819
 1654TIP3    H1 4968   0.390   3.740   4.980 -2.6710 -0.6840 -0.7316
 1654TIP3    H2 4969   0.401   3.799   4.841  1.4837  0.3712 -0.0855
 1655TIP3   OH2 4970   5.792   1.670   1.941  0.0456 -0.2105  0.6542
 1655TIP3    H1 4971   5.826   1.590   1.982  0.1311  0.0957  1.1820
 1655TIP3    H2 4972   5.756   1.721   2.013 -2.1101 -0.7837  0.0784
 1656TIP3   OH2 4973   2.409   2.269   0.584  0.4609  0.1216 -0.3291
 1656TIP3    H1 4974   2.467   2.334   0.624  2.0698 -1.0665 -0.6333
 1656TIP3    H2 4975   2.411   2.195   0.645 -1.8398  0.4991  0.3284
 1657TIP3   OH2 4976   1.212   2.517   3.809  0.7421  0.0753 -0.3363
 1657TIP3    H1 4977   1.185   2.515   3.717 -0.0157  0.6428 -0.1378
 1657TIP3    H2 4978   1.131   2.498   3.857  0.7884  1.3461  0.2676
 1658TIP3   OH2 4979   5.386   1.371   1.334 -0.6674  0.0232  0.1211
 1658TIP3    H1 4980   5.445   1.420   1.276  1.0160 -1.6047  0.3680
 1658TIP3    H2 4981   5.343   1.307   1.277 -0.0411 -0.6707  0.4139
 1659TIP3   OH2 4982   1.348   4.230   3.879 -0.4057 -0.4786 -0.1166
 1659TIP3    H1 4983   1.405   4.289   3.829  0.0812  0.0840  1.0509
 1659TIP3    H2 4984   1.385   4.143   3.865  1.5092 -0.0011  1.5281
 1660TIP3   OH2 4985   3.419   2.674   1.433  0.0658  0.2064  0.0645
 1660TIP3    H1 4986   3.363   2.632   1.368  0.1270  0.2971 -0.0464
 1660TIP3    H2 4987   3.362   2.736   1.478  0.3607  1.1398 -0.8320
 1661TIP3   OH2 4988   5.312   3.158   2.496 -0.4743 -0.1129  0.2422
 1661TIP3    H1 4989   5.297   3.224   2.564  0.6325  0.4259 -0.0220
 1661TIP3    H2 4990   5.321   3.209   2.416 -1.4853 -0.7280 -0.2793
 1662TIP3   OH2 4991   6.123   3.073   3.681 -0.5863 -0.6789 -0.3256
 1662TIP3    H1 4992   6.199   3.130   3.667 -2.3009  1.9409  0.1653
 1662TIP3    H2 4993   6.098   3.044   3.594 -1.1141  1.4492 -0.9414
 1663TIP3   OH2 4994   0.057   1.949   3.186  0.0358  0.1112  0.1214
 1663TIP3    H1 4995   0.142   1.955   3.229  0.6091  0.7594 -1.0577
 1663TIP3    H2 4996   0.077   1.927   3.095 -1.0815 -0.1324 -0.0781
 1664TIP3   OH2 4997   0.040   3.373   0.314 -0.9120 -0.4215  0.6933
 1664TIP3    H1 4998  -0.017   3.296   0.314 -0.5033 -0.7443 -0.5044
 1664TIP3    H2 4999   0.044   3.400   0.223  1.1399 -0.6192  0.6837
 1665TIP3   OH2 5000   3.380   3.711   2.361  0.0691  0.3538  0.4112
 1665TIP3    H1 5001   3.464   3.688   2.399  0.4167 -0.1125 -0.5965
 1665TIP3    H2 5002   3.402   3.769   2.288 -0.3466 -0.9333 -0.7729
 1666TIP3   OH2 5003   1.416   2.831   2.244 -0.1355  0.4060 -0.3666
 1666TIP3    H1 5004   1.465   2.853   2.324 -1.8107 -2.4338  1.6021
 1666TIP3    H2 5005   1.483   2.804   2.181  1.0334 -1.5863  1.6083
 1667TIP3   OH2 5006   2.172   2.916   0.361  0.1982 -0.2185 -0.6176
 1667TIP3    H1 5007   2.169   3.004   0.322  3.4869 -0.1718 -1.1045
 1667TIP3    H2 5008   2.220   2.863   0.297  0.8202 -1.5959  0.9106
 1668TIP3   OH2 5009   5.485   0.501   4.886  0.4481  0.0773  0.0717
 1668TIP3    H1 5010   5.397   0.465   4.896  0.1359  0.7695 -0.0805
 1668TIP3    H2 5011   5.500   0.550   4.967 -0.3787  2.1378 -0.9452
 1669TIP3   OH2 5012   3.411   2.780   0.194  0.5535 -0.1350 -0.1922
 1669TIP3    H1 5013   3.421   2.685   0.202 -0.8511 -0.3256 -0.5183
 1669TIP3    H2 5014   3.318   2.793   0.173  0.6260  1.3329  0.2835
 1670TIP3   OH2 5015   1.748   1.964   1.345 -0.0292  0.1443  0.2311
 1670TIP3    H1 5016   1.700   1.936   1.267  0.5998  2.2568 -0.9781
 1670TIP3    H2 5017   1.685   1.953   1.417 -0.6669 -1.7195 -0.5531
 1671TIP3   OH2 5018   1.572   0.945   2.442 -0.4150  0.1959 -0.0546
 1671TIP3    H1 5019   1.590   1.039   2.445  0.4626  0.1028 -1.3112
 1671TIP3    H2 5020   1.658   0.904   2.439 -0.7355 -0.4757 -2.2973
 1672TIP3   OH2 5021   1.117   3.979   4.085 -0.6639  0.6031  0.5532
 1672TIP3    H1 5022   1.196   3.952   4.133 -1.0444  0.3279  1.0344
 1672TIP3    H2 5023   1.144   4.056   4.036  0.0994  0.1125  0.1693
 1673TIP3   OH2 5024   2.616   1.550   4.253 -0.5262 -1.0070  0.1621
 1673TIP3    H1 5025   2.643   1.497   4.329  0.5298  1.6885  1.8199
 1673TIP3    H2 5026   2.523   1.568   4.267 -0.0301  0.6805  1.7359
 1674TIP3   OH2 5027   4.157   3.910   0.398  0.2356 -0.2687  0.3946
 1674TIP3    H1 5028   4.076   3.877   0.437 -0.3318 -1.1656 -1.4446
 1674TIP3    H2 5029   4.226   3.855   0.435 -0.1217 -0.2245  1.1346
 1675TIP3   OH2 5030   4.263   1.839   0.160  0.4799 -0.0701  0.8130
 1675TIP3    H1 5031   4.275   1.913   0.099 -0.7571 -0.8826 -0.4599
 1675TIP3    H2 5032   4.182   1.860   0.207  0.2171 -0.5326  0.5670
 1676TIP3   OH2 5033   1.499   4.321   4.801 -0.3612  0.4219  0.3073
 1676TIP3    H1 5034   1.458   4.291   4.883 -0.7647  1.2092  0.4032
 1676TIP3    H2 5035   1.426   4.334   4.741 -0.2088  1.2327  0.2805
 1677TIP3   OH2 5036   4.735   1.469   0.575  0.2364 -0.2936 -0.2394
 1677TIP3    H1 5037   4.777   1.383   0.578  0.5397 -0.1180  1.7069
 1677TIP3    H2 5038   4.797   1.525   0.528  0.7131 -0.7851 -0.2023
 1678TIP3   OH2 5039   6.114   2.354   2.192 -0.1549 -0.1546 -0.0204
 1678TIP3    H1 5040   6.172   2.430   2.202 -0.6641  0.0871  1.2940
 1678TIP3    H2 5041   6.170   2.280   2.216  0.3407 -0.2249 -1.2977
 1679TIP3   OH2 5042   3.203   0.421   1.684 -0.8406  0.0297  0.1588
 1679TIP3    H1 5043   3.135   0.483   1.658  0.3043  1.7629  1.0868
 1679TIP3    H2 5044   3.253   0.467   1.752  2.0555 -0.6159 -1.3586
 1680TIP3   OH2 5045   1.791   4.222   0.343 -0.2383  0.1961  0.2433
 1680TIP3    H1 5046   1.847   4.289   0.383 -0.4629 -0.3239  1.4442
 1680TIP3    H2 5047   1.852   4.163   0.299 -0.1095  2.7802 -3.5766
 1681TIP3   OH2 5048   5.838   4.292   2.791 -0.4744  0.0937 -0.1454
 1681TIP3    H1 5049   5.784   4.339   2.727 -1.2289 -1.8650 -1.0313
 1681TIP3    H2 5050   5.798   4.313   2.876 -1.2692  0.4304 -0.5905
 1682TIP3   OH2 5051   2.257   0.333   4.103 -0.7715 -0.1175  0.4613
 1682TIP3    H1 5052   2.241   0.397   4.033  1.6169 -0.2745 -0.3193
 1682TIP3    H2 5053   2.232   0.379   4.183  0.4596  1.7115 -0.1263
 1683TIP3   OH2 5054   2.893   4.810   4.302  0.0750 -0.3800  0.0844
 1683TIP3    H1 5055   2.890   4.871   4.227 -1.0123 -0.9905 -0.3887
 1683TIP3    H2 5056   2.876   4.724   4.263  2.9899 -1.2611  0.5175
 1684TIP3   OH2 5057   4.852   0.033   2.072  0.7284  0.4569 -0.1949
 1684TIP3    H1 5058   4.900   0.108   2.037  0.4878  0.3100 -0.8541
 1684TIP3    H2 5059   4.859  -0.033   2.003  1.9232 -0.5431  0.8431
 1685TIP3   OH2 5060   4.970   3.250   5.003  0.3530  0.5354  0.2150
 1685TIP3    H1 5061   4.943   3.319   4.942  0.6810  0.0532 -0.4880
 1685TIP3    H2 5062   4.918   3.265   5.081 -1.0299  0.3745 -0.6496
 1686TIP3   OH2 5063   0.688   5.675   5.213 -0.0001  0.3817  0.3937
 1686TIP3    H1 5064   0.594   5.656   5.207  0.1999 -0.4214 -0.4145
 1686TIP3    H2 5065   0.711   5.706   5.126  0.3610  1.2305  0.7813
 1687TIP3   OH2 5066   2.752   0.853   2.091  0.2486  0.0159  0.2697
 1687TIP3    H1 5067   2.762   0.773   2.039  1.1522  0.1656  0.1992
 1687TIP3    H2 5068   2.660   0.853   2.117 -0.4469  0.2949 -1.9226
 1688TIP3   OH2 5069   6.346   0.357   4.983 -0.7232 -0.0974 -0.4679
 1688TIP3    H1 5070   6.302   0.273   4.970 -1.5985  0.5800 -2.2424
 1688TIP3    H2 5071   6.368   0.386   4.894  0.0807  1.2788  0.1560
 1689TIP3   OH2 5072   3.457   2.745   1.830  0.1721 -0.4749 -0.0752
 1689TIP3    H1 5073   3.530   2.704   1.784 -0.3946 -1.6419  0.0259
 1689TIP3    H2 5074   3.436   2.823   1.778  4.1499  2.3756  2.0987
 1690TIP3   OH2 5075   3.566   5.928   1.794 -0.0011 -0.0051 -0.0299
 1690TIP3    H1 5076   3.578   5.924   1.889  1.4445 -0.7385 -0.2153
 1690TIP3    H2 5077   3.600   6.014   1.769  2.0601 -0.7921 -0.1457
 1691TIP3   OH2 5078   3.689   4.491   2.697  0.1761 -0.1978 -0.0205
 1691TIP3    H1 5079   3.722   4.513   2.610 -0.8636  2.3987  0.1655
 1691TIP3    H2 5080   3.752   4.427   2.731  1.9822  0.5860 -1.6964
 1692TIP3   OH2 5081   4.467   4.142   4.193  0.0265  0.0816  0.1395
 1692TIP3    H1 5082   4.478   4.155   4.099  0.5748 -0.6326  0.0874
 1692TIP3    H2 5083   4.531   4.201   4.233  0.5754 -0.4066  0.0101
 1693TIP3   OH2 5084   2.493   3.829   3.069  0.2468  0.4402  0.0885
 1693TIP3    H1 5085   2.516   3.802   3.158 -2.4190 -1.1931  0.3894
 1693TIP3    H2 5086   2.453   3.916   3.080 -0.3417  0.1230  0.5715
 1694TIP3   OH2 5087   2.018   4.249   2.530  0.4272 -0.0189  0.0473
 1694TIP3    H1 5088   2.105   4.245   2.490 -0.0514  0.4004 -1.0768
 1694TIP3    H2 5089   2.030   4.213   2.618  1.3117 -2.0796 -0.8529
 1695TIP3   OH2 5090   3.960   2.958   3.974  0.9067  0.1232  0.4597
 1695TIP3    H1 5091   4.022   2.903   3.925  1.4000  0.6845  0.4398
 1695TIP3    H2 5092   3.956   2.917   4.061 -0.2610 -1.0921 -0.1464
 1696TIP3   OH2 5093   1.469   4.517   3.704  0.4278  0.0281  0.6916
 1696TIP3    H1 5094   1.515   4.545   3.625  0.4515 -0.9151  0.3591
 1696TIP3    H2 5095   1.524   4.548   3.776  1.4002 -0.7516  0.3060
 1697TIP3   OH2 5096   1.585   2.097   3.021  0.2050  0.2141  0.1283
 1697TIP3    H1 5097   1.606   2.190   3.028  2.0763 -0.1668  0.1722
 1697TIP3    H2 5098   1.568   2.083   2.928 -0.6025  0.6896  0.2002
 1698TIP3   OH2 5099   5.448   5.670   3.430 -0.8940  0.1847  0.1709
 1698TIP3    H1 5100   5.495   5.722   3.494  0.2854  0.4009 -0.8357
 1698TIP3    H2 5101   5.500   5.590   3.421 -0.4754  0.5879 -1.2397
 1699TIP3   OH2 5102   4.499   4.102   3.920 -0.3402 -0.2887 -0.3387
 1699TIP3    H1 5103   4.514   4.121   3.827  1.8832 -3.4869 -0.7904
 1699TIP3    H2 5104   4.442   4.026   3.921 -1.7131  0.7007  1.0412
 1700TIP3   OH2 5105   1.474   0.916   0.938  0.5772 -0.1297 -0.4724
 1700TIP3    H1 5106   1.528   0.860   0.994  0.1468  0.2524  0.3406
 1700TIP3    H2 5107   1.474   1.001   0.983 -2.1475 -0.5688  0.5516
 1701TIP3   OH2 5108   4.601   3.831   5.155 -0.1594 -0.5743 -0.5632
 1701TIP3    H1 5109   4.552   3.839   5.238  0.6499 -1.9284  0.0783
 1701TIP3    H2 5110   4.563   3.754   5.113  1.3732 -1.6491 -0.0545
 1702TIP3   OH2 5111   1.805   0.301   4.996  0.1334 -0.3441 -0.0627
 1702TIP3    H1 5112   1.735   0.359   5.025  1.6521  1.1951  0.7168
 1702TIP3    H2 5113   1.777   0.214   5.024  0.4060  0.7102  4.2882
 1703TIP3   OH2 5114   2.296   4.961   0.143  0.8681 -0.3624 -0.0425
 1703TIP3    H1 5115   2.258   4.972   0.230 -0.3795  1.1500 -0.7427
 1703TIP3    H2 5116   2.373   5.019   0.144  0.2541  0.4661 -0.2831
 1704TIP3   OH2 5117   2.960   5.543   1.462 -0.8988  0.3520  0.4431
 1704TIP3    H1 5118   2.971   5.456   1.499 -1.1938 -0.0326 -0.3534
 1704TIP3    H2 5119   3.042   5.588   1.483 -0.5935 -0.2383  0.5399
 1705TIP3   OH2 5120   5.550   2.575   3.814 -0.4710  0.0398 -0.4639
 1705TIP3    H1 5121   5.486   2.522   3.766 -0.7491  0.8987 -1.0600
 1705TIP3    H2 5122   5.631   2.525   3.808 -0.9137 -0.7076 -0.3238
 1706TIP3   OH2 5123   1.758   5.150   0.936  0.4732  0.2826  0.0533
 1706TIP3    H1 5124   1.755   5.182   0.846 -0.0516 -0.0310 -0.0438
 1706TIP3    H2 5125   1.692   5.081   0.939  2.9472 -2.3207 -0.3568
 1707TIP3   OH2 5126   0.335   2.731   3.575 -0.2513 -0.1904 -0.1662
 1707TIP3    H1 5127   0.280   2.808   3.585 -0.6639 -0.7059  2.1687
 1707TIP3    H2 5128   0.288   2.676   3.512 -2.2118 -0.3810  1.3497
 1708TIP3   OH2 5129   2.250   5.665   1.328 -0.2361 -0.4510 -0.3677
 1708TIP3    H1 5130   2.166   5.705   1.348 -0.6549 -1.8739  0.9056
 1708TIP3    H2 5131   2.253   5.586   1.382  2.1754 -0.1427  0.0753
 1709TIP3   OH2 5132   0.644   5.008   3.352  0.0814  0.2371  0.1439
 1709TIP3    H1 5133   0.608   5.094   3.375  0.7346  0.9466 -1.3477
 1709TIP3    H2 5134   0.574   4.946   3.371 -0.7997  1.2380  0.2112
 1710TIP3   OH2 5135   4.870   4.500   5.029  0.2507 -1.0432 -0.0971
 1710TIP3    H1 5136   4.945   4.468   5.080  1.9342  0.1740 -1.6702
 1710TIP3    H2 5137   4.881   4.460   4.943 -1.2224 -1.2439 -0.2015
 1711TIP3   OH2 5138   4.012   3.030   1.411  0.2529 -0.3507  0.0208
 1711TIP3    H1 5139   4.069   3.012   1.486 -1.4266 -0.9893  1.2353
 1711TIP3    H2 5140   3.983   2.944   1.381 -0.9525 -0.0399  0.2072
 1712TIP3   OH2 5141   1.964   4.713   1.565  0.5954 -0.1400 -0.0693
 1712TIP3    H1 5142   2.049   4.758   1.569  0.2639  0.4620  0.4213
 1712TIP3    H2 5143   1.961   4.660   1.645  0.9407 -0.9771 -0.5954
 1713TIP3   OH2 5144   4.588   0.608   0.160  0.3378  0.2956 -0.2216
 1713TIP3    H1 5145   4.672   0.637   0.196  0.2901  2.7488 -1.8347
 1713TIP3    H2 5146   4.524   0.637   0.225  0.5125  1.6583 -0.6182
 1714TIP3   OH2 5147   4.113   3.115   2.817 -0.3718  0.5614 -0.2452
 1714TIP3    H1 5148   4.138   3.024   2.801 -1.1517  0.3040 -0.0323
 1714TIP3    H2 5149   4.191   3.155   2.856  0.9228  0.7105 -2.8016
 1715TIP3   OH2 5150   1.911   1.014   2.726 -0.0306 -0.1381  0.1859
 1715TIP3    H1 5151   1.865   0.933   2.703 -0.0234 -0.5871  1.6509
 1715TIP3    H2 5152   1.841   1.077   2.745 -0.0341 -0.0136 -0.2295
 1716TIP3   OH2 5153   1.134   0.042   4.662  0.1467 -0.1048 -0.1811
 1716TIP3    H1 5154   1.114  -0.014   4.586  1.1436 -0.6963 -0.0306
 1716TIP3    H2 5155   1.226   0.066   4.650 -0.5127  2.4317 -0.7974
 1717TIP3   OH2 5156   1.075   0.108   2.555 -0.2708 -0.1639 -0.2409
 1717TIP3    H1 5157   1.100   0.173   2.489  1.3738  0.9694  1.3997
 1717TIP3    H2 5158   0.980   0.116   2.562 -0.4689 -0.1488 -2.2540
 1718TIP3   OH2 5159   2.738   1.249   0.161  0.5806  0.3655 -0.9028
 1718TIP3    H1 5160   2.739   1.174   0.221  2.1138  1.4062  0.4885
 1718TIP3    H2 5161   2.711   1.213   0.077 -0.2285 -1.4386  0.0761
 1719TIP3   OH2 5162   0.255   4.841   3.231 -0.5073  0.5917 -0.0441
 1719TIP3    H1 5163   0.182   4.779   3.230 -0.0796  0.0839 -0.5751
 1719TIP3    H2 5164   0.231   4.904   3.299 -1.4485  0.4493 -0.2206
 1720TIP3   OH2 5165   3.691   4.021   0.546 -0.0867 -0.1702  0.2006
 1720TIP3    H1 5166   3.740   4.090   0.500 -0.9459  0.6657  0.5133
 1720TIP3    H2 5167   3.758   3.955   0.567  0.4670 -0.2061 -1.5188
 1721TIP3   OH2 5168   1.100   1.486   0.657  0.2283 -0.0346 -0.2019
 1721TIP3    H1 5169   1.138   1.437   0.730 -3.2503 -1.0610  1.1028
 1721TIP3    H2 5170   1.107   1.578   0.685  0.8567 -0.2511  0.4015
 1722TIP3   OH2 5171   3.662   0.091   0.249 -0.0469 -0.5440  0.4344
 1722TIP3    H1 5172   3.592   0.155   0.238 -0.7157 -0.8969  2.2675
 1722TIP3    H2 5173   3.664   0.073   0.343  1.0609 -2.1642  0.1525
 1723TIP3   OH2 5174   1.753   1.287   2.734  0.5423 -0.1697  0.0975
 1723TIP3    H1 5175   1.817   1.351   2.766  0.9649 -1.4367  1.9307
 1723TIP3    H2 5176   1.668   1.326   2.757  0.7976 -0.2456  1.2433
 1724TIP3   OH2 5177   2.748  -0.001   1.114  0.8693 -0.6320  0.2972
 1724TIP3    H1 5178   2.740   0.094   1.114 -1.3849 -0.7513  1.4584
 1724TIP3    H2 5179   2.766  -0.024   1.022 -1.2173  0.7791 -0.5255
 1725TIP3   OH2 5180   1.229   3.988   2.913 -0.6786  0.2226 -0.4276
 1725TIP3    H1 5181   1.250   3.960   2.824 -0.6061 -0.6304 -0.1437
 1725TIP3    H2 5182   1.141   3.954   2.928  0.2877 -1.9078  0.7556
 1726TIP3   OH2 5183   1.419   5.406   1.405  0.3043  0.0947 -0.4915
 1726TIP3    H1 5184   1.406   5.323   1.358  1.2246 -0.8254  0.8070
 1726TIP3    H2 5185   1.491   5.388   1.465  0.8898  2.0289 -0.5738
 1727TIP3   OH2 5186   5.058   3.427   2.190  0.2266 -0.1385  0.1551
 1727TIP3    H1 5187   5.094   3.453   2.105  0.2306 -1.5263 -0.2961
 1727TIP3    H2 5188   5.135   3.400   2.241  0.2306  0.7508  0.6314
 1728TIP3   OH2 5189   2.092   5.933   2.848  0.4133 -0.0468 -0.0062
 1728TIP3    H1 5190   2.100   5.896   2.936 -0.9075 -0.5577 -0.0754
 1728TIP3    H2 5191   2.135   5.869   2.791  1.1928  0.2416  0.2478
 1729TIP3   OH2 5192   3.848   4.916   2.845 -0.0617 -0.0783 -0.0167
 1729TIP3    H1 5193   3.918   4.981   2.851  0.1807 -0.3538  0.1824
 1729TIP3    H2 5194   3.884   4.839   2.889 -0.2111 -0.4598 -0.5566
 1730TIP3   OH2 5195   5.463   4.529   3.653  0.0007 -0.3337 -0.7672
 1730TIP3    H1 5196   5.373   4.508   3.678  0.0757  0.6985  0.4764
 1730TIP3    H2 5197   5.497   4.448   3.613 -0.9230 -1.2911  0.3281
 1731TIP3   OH2 5198   0.401   0.292   4.828 -0.5072 -0.0914 -0.4861
 1731TIP3    H1 5199   0.485   0.313   4.869  0.1029 -1.2147 -1.0897
 1731TIP3    H2 5200   0.379   0.370   4.777  0.8445 -0.2416 -1.3630
 1732TIP3   OH2 5201   2.977   0.768   4.196  0.1372  0.0052  0.7012
 1732TIP3    H1 5202   2.897   0.717   4.181 -0.9966  2.0815 -0.8202
 1732TIP3    H2 5203   3.046   0.702   4.198 -1.3467 -1.7004 -0.1711
 1733TIP3   OH2 5204   4.333   1.131   2.312  0.1462 -0.7405 -0.3801
 1733TIP3    H1 5205   4.428   1.131   2.306  0.1374  0.7730 -0.9645
 1733TIP3    H2 5206   4.303   1.168   2.229 -0.9550 -1.2320 -0.2248
 1734TIP3   OH2 5207   4.661   4.352   4.483  0.3791 -0.4970 -0.4270
 1734TIP3    H1 5208   4.664   4.322   4.392  0.6160  0.6557 -0.8176
 1734TIP3    H2 5209   4.737   4.409   4.493 -1.4525  2.1633 -0.5585
 1735TIP3   OH2 5210   1.135   3.645   0.885  0.5135 -0.1961  0.4139
 1735TIP3    H1 5211   1.056   3.673   0.933 -0.4882 -0.4881 -1.0132
 1735TIP3    H2 5212   1.101   3.592   0.813  1.9629  0.5376 -0.8359
 1736TIP3   OH2 5213   4.669   1.446   2.042  0.2792  0.6210 -0.2496
 1736TIP3    H1 5214   4.690   1.365   2.090  0.0813  0.7809  0.1078
 1736TIP3    H2 5215   4.651   1.416   1.953 -1.6577  0.0254  0.3033
 1737TIP3   OH2 5216   2.730   2.438   0.591 -0.1745  0.2544  0.3041
 1737TIP3    H1 5217   2.810   2.405   0.551  0.4159  0.3993  1.3086
 1737TIP3    H2 5218   2.760   2.487   0.668 -1.2636 -0.4209  1.2060
 1738TIP3   OH2 5219   5.438   0.436   2.042  0.4393  0.4901  0.2129
 1738TIP3    H1 5220   5.364   0.464   1.988  0.8841  1.7190  0.1926
 1738TIP3    H2 5221   5.410   0.453   2.132  0.8658  1.4716  0.1800
 1739TIP3   OH2 5222   5.487   1.333   4.949 -0.0521 -0.2898  0.0835
 1739TIP3    H1 5223   5.466   1.264   4.887  1.5222  0.3636 -1.2384
 1739TIP3    H2 5224   5.402   1.365   4.979 -0.8338 -1.2070 -1.0547
 1740TIP3   OH2 5225   1.873   4.369   4.530 -0.0279 -0.2555 -0.3772
 1740TIP3    H1 5226   1.865   4.453   4.485  0.2404 -1.3956 -2.7592
 1740TIP3    H2 5227   1.800   4.317   4.496 -0.8471 -0.6894  1.8768
 1741TIP3   OH2 5228   3.584   0.414   2.830  0.1765 -0.5236 -0.2463
 1741TIP3    H1 5229   3.540   0.499   2.837 -0.3188 -0.5499 -2.4291
 1741TIP3    H2 5230   3.516   0.354   2.799  0.7035 -1.5803  0.5631
 1742TIP3   OH2 5231   2.492   1.856   4.854  0.4752  0.0466 -0.3655
 1742TIP3    H1 5232   2.459   1.802   4.782  0.0309  1.6579 -1.4231
 1742TIP3    H2 5233   2.585   1.835   4.859  0.3473 -0.6905 -0.8537
 1743TIP3   OH2 5234   4.739   2.920   1.366 -0.3853  0.7739  0.3792
 1743TIP3    H1 5235   4.662   2.900   1.312  0.0043  2.1999 -0.7560
 1743TIP3    H2 5236   4.797   2.846   1.352 -0.2403  1.1630 -1.3012
 1744TIP3   OH2 5237   1.686   4.345   1.552 -0.2950  0.7402  0.0484
 1744TIP3    H1 5238   1.619   4.287   1.516  0.5940 -1.6188  1.9320
 1744TIP3    H2 5239   1.663   4.356   1.644  2.9302 -2.0443  1.4061
 1745TIP3   OH2 5240   4.976   5.142   4.954 -0.0033 -0.2811  0.2281
 1745TIP3    H1 5241   4.985   5.237   4.955  0.1193 -0.2947  1.7643
 1745TIP3    H2 5242   4.895   5.124   5.002 -0.9978 -0.8896 -1.5838
 1746TIP3   OH2 5243   3.814   1.051   0.376  0.4967  0.0193  0.3870
 1746TIP3    H1 5244   3.803   1.010   0.291  2.2180  1.0254 -0.3665
 1746TIP3    H2 5245   3.882   1.000   0.419  1.5690  1.1265  0.0455
 1747TIP3   OH2 5246   0.453   0.829   4.500 -0.0866  0.5624  0.3233
 1747TIP3    H1 5247   0.477   0.919   4.475  0.2421  0.0893 -1.1432
 1747TIP3    H2 5248   0.496   0.774   4.434 -0.1319 -0.6917  1.3133
 1748TIP3   OH2 5249   4.053   3.438   4.641 -0.3360  0.3348 -0.2334
 1748TIP3    H1 5250   4.058   3.344   4.627  0.7678  0.6910 -2.6933
 1748TIP3    H2 5251   3.992   3.469   4.574  0.4909  1.5134 -0.4798
 1749TIP3   OH2 5252   1.561   4.659   2.190 -0.4199 -0.5001  0.3955
 1749TIP3    H1 5253   1.537   4.642   2.099  0.4204  1.0753 -0.1598
 1749TIP3    H2 5254   1.601   4.578   2.220  0.2588 -0.7119 -0.9887
 1750TIP3   OH2 5255   0.243   0.204   3.709  0.0744 -0.0840  0.2268
 1750TIP3    H1 5256   0.212   0.235   3.624  1.0785  0.5357  0.0709
 1750TIP3    H2 5257   0.165   0.207   3.765 -0.3362  0.6570 -0.3609
 1751TIP3   OH2 5258   2.131   5.275   0.817  0.1071 -0.7954 -0.5521
 1751TIP3    H1 5259   2.047   5.305   0.783 -0.2826 -2.2237 -0.9480
 1751TIP3    H2 5260   2.156   5.339   0.883 -0.9424  0.0307 -0.9410
 1752TIP3   OH2 5261   3.278   2.096   1.190  0.0761 -0.6614 -0.5230
 1752TIP3    H1 5262   3.307   2.120   1.102 -0.8369 -1.4069 -1.0487
 1752TIP3    H2 5263   3.314   2.007   1.203 -0.1881 -0.7408 -0.3317
 1753TIP3   OH2 5264   3.436   0.273   0.703 -0.1330  0.3075 -0.0916
 1753TIP3    H1 5265   3.373   0.255   0.633  0.1020  0.5268 -0.3640
 1753TIP3    H2 5266   3.391   0.336   0.760 -0.1388  0.5127 -0.3203
 1754TIP3   OH2 5267   5.650   5.301   0.153 -0.0172 -0.1561 -0.2664
 1754TIP3    H1 5268   5.744   5.298   0.135  0.2282 -0.2524  0.9755
 1754TIP3    H2 5269   5.609   5.307   0.066  1.1377  0.1580 -0.8002
 1755TIP3   OH2 5270   1.505   1.476   0.595 -0.0162 -0.8179 -0.3038
 1755TIP3    H1 5271   1.506   1.556   0.647 -0.5486  0.7361 -2.5345
 1755TIP3    H2 5272   1.540   1.502   0.510 -0.5918 -2.8783 -1.2388
 1756TIP3   OH2 5273   1.794   5.864   1.154  0.2637 -0.1539 -0.6368
 1756TIP3    H1 5274   1.823   5.773   1.144  0.1166 -0.1973 -0.6644
 1756TIP3    H2 5275   1.699   5.859   1.158  0.3017 -0.2682  1.8331
 1757TIP3   OH2 5276   4.255   4.812   2.471  0.0913 -0.1389 -0.1496
 1757TIP3    H1 5277   4.317   4.844   2.406 -1.5330  0.1379 -1.6554
 1757TIP3    H2 5278   4.257   4.717   2.462 -0.3324 -0.0921 -0.8545
 1758TIP3   OH2 5279   4.986   3.380   4.127 -0.1576 -0.1586  0.2283
 1758TIP3    H1 5280   4.996   3.435   4.205  0.6826 -1.2657  0.9217
 1758TIP3    H2 5281   4.891   3.369   4.117 -0.2789  0.2105  0.9291
 1759TIP3   OH2 5282   2.463   4.527   0.687  0.0892  0.0949 -0.2681
 1759TIP3    H1 5283   2.506   4.597   0.638 -0.2847  0.3411 -0.2494
 1759TIP3    H2 5284   2.369   4.546   0.678 -0.0063 -0.3063 -0.1206
 1760TIP3   OH2 5285   0.266   4.444   1.885  0.0353  0.3078 -0.6006
 1760TIP3    H1 5286   0.176   4.417   1.869 -0.1280  0.8169 -0.5774
 1760TIP3    H2 5287   0.272   4.452   1.980 -0.4688  2.1080 -0.6758
 1761TIP3   OH2 5288   4.695   1.811   3.406 -0.0877  0.1834 -0.2100
 1761TIP3    H1 5289   4.627   1.877   3.396 -1.1222 -1.0240 -1.6195
 1761TIP3    H2 5290   4.676   1.746   3.338  1.3932 -1.1268  0.5507
 1762TIP3   OH2 5291   2.347   4.640   1.782 -0.2466  0.0591  0.2414
 1762TIP3    H1 5292   2.260   4.657   1.817 -0.9954 -2.0317 -0.4800
 1762TIP3    H2 5293   2.401   4.623   1.859 -0.2399  2.0500  0.7475
 1763TIP3   OH2 5294   0.546   2.784   0.070 -0.1515  0.1251 -0.7493
 1763TIP3    H1 5295   0.475   2.848   0.075  0.0077  0.3243 -0.9774
 1763TIP3    H2 5296   0.502   2.700   0.060 -0.4179 -0.0220  1.3310
 1764TIP3   OH2 5297   3.422   2.727   0.789  0.5478 -0.0528  0.0706
 1764TIP3    H1 5298   3.421   2.775   0.872 -0.5240 -3.3447  2.1615
 1764TIP3    H2 5299   3.338   2.747   0.748  0.3618  0.2905  0.6245
 1765TIP3   OH2 5300   0.782   3.175   2.110 -0.4408  0.2103  0.1726
 1765TIP3    H1 5301   0.810   3.084   2.114 -1.1722  0.0055  0.9936
 1765TIP3    H2 5302   0.774   3.202   2.202 -3.6806 -0.0165  0.0745
 1766TIP3   OH2 5303   5.287   2.795   4.601  0.3351  0.6652 -0.4675
 1766TIP3    H1 5304   5.287   2.888   4.625 -0.8774  0.3150  1.0190
 1766TIP3    H2 5305   5.375   2.779   4.567  1.8590  1.4904  2.7535
 1767TIP3   OH2 5306   3.684   0.310   4.014  0.0350 -0.3897  0.1883
 1767TIP3    H1 5307   3.705   0.326   3.922  0.5724 -1.3348  0.1270
 1767TIP3    H2 5308   3.760   0.342   4.062 -0.0512 -0.3115  0.2746
 1768TIP3   OH2 5309   1.659   2.968   3.871 -0.3701 -0.0621 -0.3507
 1768TIP3    H1 5310   1.626   2.993   3.957  1.4102  0.7246  0.1581
 1768TIP3    H2 5311   1.581   2.947   3.820 -1.4956  0.0087  1.2768
 1769TIP3   OH2 5312   4.420   0.748   1.791 -0.1830  0.3574  0.7002
 1769TIP3    H1 5313   4.408   0.653   1.795  0.3141  0.2312 -0.4007
 1769TIP3    H2 5314   4.515   0.760   1.800 -0.1104  0.6523 -0.2831
 1770TIP3   OH2 5315   0.521   4.551   1.080 -0.3845  0.1263 -0.5910
 1770TIP3    H1 5316   0.547   4.637   1.046 -0.5152  0.0576 -0.8744
 1770TIP3    H2 5317   0.588   4.529   1.145 -0.1774  0.3047 -0.7413
 1771TIP3   OH2 5318   0.405   4.139   2.325 -0.0406 -0.2859 -0.4359
 1771TIP3    H1 5319   0.499   4.137   2.306 -0.3371 -0.1236 -2.0593
 1771TIP3    H2 5320   0.363   4.135   2.239 -1.5090  2.3691  0.0673
 1772TIP3   OH2 5321   3.883   2.662   0.153  1.0970 -0.5879  0.0521
 1772TIP3    H1 5322   3.839   2.625   0.229 -0.4593 -0.3654 -0.6988
 1772TIP3    H2 5323   3.934   2.590   0.117  0.4424 -1.1867  0.3012
 1773TIP3   OH2 5324   5.201   2.162   3.003  0.3738  0.2810  0.0785
 1773TIP3    H1 5325   5.155   2.245   2.990  0.6312  0.1515 -2.1232
 1773TIP3    H2 5326   5.286   2.187   3.039 -0.5854  0.6894  2.1670
 1774TIP3   OH2 5327   5.070   0.653   3.701  0.1415  0.7759  0.0752
 1774TIP3    H1 5328   5.165   0.655   3.710  0.1862  1.2671 -0.4405
 1774TIP3    H2 5329   5.053   0.698   3.618 -0.6210  1.9868  0.8550
 1775TIP3   OH2 5330   5.683   2.425   0.532  0.7712  0.2490 -0.0919
 1775TIP3    H1 5331   5.663   2.465   0.448 -1.0754 -0.7054 -0.1434
 1775TIP3    H2 5332   5.600   2.421   0.578  1.3353 -1.2527  0.8929
 1776TIP3   OH2 5333   3.160   0.372   1.422  0.1024  0.1318  0.1008
 1776TIP3    H1 5334   3.193   0.395   1.509  0.4673  2.9098 -0.6918
 1776TIP3    H2 5335   3.068   0.351   1.436 -0.0409  1.2923  1.0886
 1777TIP3   OH2 5336   1.461   5.783   3.069  0.3182 -0.1902 -0.7465
 1777TIP3    H1 5337   1.468   5.773   2.974  1.7963 -0.2888 -0.6407
 1777TIP3    H2 5338   1.368   5.803   3.083  0.4347  1.8902 -2.3954
 1778TIP3   OH2 5339   0.927   0.429   4.987 -0.0729  0.2814  0.2323
 1778TIP3    H1 5340   0.911   0.495   5.055  1.0481 -0.2478  1.0493
 1778TIP3    H2 5341   1.019   0.405   4.998  0.2137  0.3859 -1.6833
 1779TIP3   OH2 5342   0.723   0.679   0.038  0.0550 -0.6106  0.1947
 1779TIP3    H1 5343   0.630   0.663   0.055  0.1051 -0.9270  0.1685
 1779TIP3    H2 5344   0.723   0.748  -0.028 -0.1425  1.4526  2.2118
 1780TIP3   OH2 5345   1.892   2.615   2.380  0.7600  0.1661 -0.0150
 1780TIP3    H1 5346   1.867   2.531   2.342  0.0039  1.2132 -1.9477
 1780TIP3    H2 5347   1.980   2.631   2.346  0.7411  0.3510  0.0216
 1781TIP3   OH2 5348   5.245   4.896   2.112  0.1539 -0.0199  0.0906
 1781TIP3    H1 5349   5.299   4.817   2.114 -0.9980 -0.8497 -0.5832
 1781TIP3    H2 5350   5.253   4.928   2.022 -1.0750 -0.6077 -0.2529
 1782TIP3   OH2 5351   1.068   3.519   3.812  0.0806 -0.4748 -0.1556
 1782TIP3    H1 5352   1.089   3.551   3.900 -0.4416  1.5167 -0.7054
 1782TIP3    H2 5353   0.978   3.548   3.797  0.5816  0.3405 -1.8145
 1783TIP3   OH2 5354   5.514   0.836   0.265 -0.0195 -0.1652  0.4220
 1783TIP3    H1 5355   5.517   0.751   0.310 -0.3354  0.3766  1.5095
 1783TIP3    H2 5356   5.443   0.827   0.201  0.5939 -1.0304 -0.1666
 1784TIP3   OH2 5357   2.871   5.813   2.301 -0.3244  0.5120  0.5064
 1784TIP3    H1 5358   2.930   5.805   2.376  0.3480  0.1016 -0.0446
 1784TIP3    H2 5359   2.871   5.906   2.280  0.0215  0.5342  0.5992
 1785TIP3   OH2 5360   4.594   1.199   4.686 -0.1384  0.2630  0.3449
 1785TIP3    H1 5361   4.570   1.290   4.700 -1.3363  0.1080 -0.5319
 1785TIP3    H2 5362   4.551   1.175   4.604 -0.1891 -1.2021  0.7697
 1786TIP3   OH2 5363   1.675   0.452   0.060  0.3582 -0.0305 -0.3340
 1786TIP3    H1 5364   1.721   0.398   0.124  2.5510  1.2384 -0.7591
 1786TIP3    H2 5365   1.625   0.389   0.007 -1.9370 -1.0932  2.7767
 1787TIP3   OH2 5366   0.479   5.834   1.659  0.0642  0.2464  0.0562
 1787TIP3    H1 5367   0.385   5.851   1.667 -0.0060 -0.1720  0.0937
 1787TIP3    H2 5368   0.519   5.920   1.675 -0.2731  0.2601  0.8897
 1788TIP3   OH2 5369   0.323   4.938   0.313 -0.3207  0.2664 -0.0239
 1788TIP3    H1 5370   0.325   4.957   0.219  0.4906  0.2987 -0.0105
 1788TIP3    H2 5371   0.367   4.854   0.321  0.1338  0.5402  0.3822
 1789TIP3   OH2 5372   5.042   4.422   4.151  0.2891  0.3188 -0.3676
 1789TIP3    H1 5373   5.113   4.394   4.208  0.1037  0.1648 -0.2082
 1789TIP3    H2 5374   5.054   4.517   4.140  0.9240  0.1807 -0.9142
 1790TIP3   OH2 5375   1.080   1.896   0.211 -0.1813 -0.4102 -0.5915
 1790TIP3    H1 5376   1.070   1.991   0.203 -1.7336 -0.6253 -1.4264
 1790TIP3    H2 5377   0.996   1.865   0.244  0.7233 -1.3864  0.9150
 1791TIP3   OH2 5378   4.304   0.979   3.215  0.8622  0.2864  0.3965
 1791TIP3    H1 5379   4.301   0.985   3.120  0.4829  1.5888  0.4678
 1791TIP3    H2 5380   4.251   0.902   3.236 -1.7903  1.7811 -0.3243
 1792TIP3   OH2 5381   6.095   3.298   3.462  0.4599 -0.3426 -0.8104
 1792TIP3    H1 5382   6.039   3.338   3.396 -1.2182 -0.5435  0.4218
 1792TIP3    H2 5383   6.075   3.204   3.458  0.9119 -0.4583 -0.5307
 1793TIP3   OH2 5384   0.085   3.540   4.983 -0.2057  0.1088  0.4374
 1793TIP3    H1 5385   0.106   3.619   4.932  0.4426 -0.2619  0.1198
 1793TIP3    H2 5386   0.059   3.476   4.917  1.0911 -0.5237  0.5017
 1794TIP3   OH2 5387   5.398   3.397   0.433  0.3404 -0.3692  0.1905
 1794TIP3    H1 5388   5.393   3.472   0.374 -0.8316  0.4826  1.3075
 1794TIP3    H2 5389   5.373   3.322   0.379 -1.5900  0.5132 -0.2435
 1795TIP3   OH2 5390   1.045   4.926   0.620 -0.0416  0.1477 -0.1459
 1795TIP3    H1 5391   0.958   4.892   0.639  0.5696 -1.2624  0.2836
 1795TIP3    H2 5392   1.037   4.968   0.535 -0.7303 -1.6013 -0.9848
 1796TIP3   OH2 5393   2.849   0.916   4.707  0.1498  0.2062  0.2224
 1796TIP3    H1 5394   2.929   0.969   4.703 -0.8442  1.8117  0.6539
 1796TIP3    H2 5395   2.809   0.939   4.792 -2.1307  1.5659 -1.1178
 1797TIP3   OH2 5396   0.589   4.130   2.083 -0.0407  0.0994  0.1620
 1797TIP3    H1 5397   0.684   4.124   2.097 -0.1539  1.5784  1.9537
 1797TIP3    H2 5398   0.578   4.210   2.032 -0.3344  0.1401  0.2882
 1798TIP3   OH2 5399   1.522   1.377   1.921 -0.2015 -0.0057  0.1511
 1798TIP3    H1 5400   1.557   1.303   1.871 -0.6112 -0.1445  0.0645
 1798TIP3    H2 5401   1.559   1.366   2.008  0.2842  0.0723 -0.0420
 1799TIP3   OH2 5402   3.315   0.348   2.690  0.0059  0.0297 -0.1740
 1799TIP3    H1 5403   3.245   0.355   2.754 -0.5468 -1.3502 -0.5911
 1799TIP3    H2 5404   3.302   0.423   2.632 -1.3216 -0.3637 -0.4179
 1800TIP3   OH2 5405   2.604   2.458   2.324 -0.7503 -0.2481  0.4012
 1800TIP3    H1 5406   2.634   2.487   2.410 -0.3515  2.0305 -0.4297
 1800TIP3    H2 5407   2.684   2.454   2.271 -1.1355 -0.4058 -0.1762
 1801TIP3   OH2 5408   0.421   5.648   5.156 -0.2589  0.4463 -0.2885
 1801TIP3    H1 5409   0.360   5.575   5.168 -0.6157  0.8411  0.3822
 1801TIP3    H2 5410   0.411   5.673   5.065  0.0919 -0.5334 -0.6070
 1802TIP3   OH2 5411   4.965   1.767   3.290  0.5650 -0.1884 -0.0067
 1802TIP3    H1 5412   4.883   1.779   3.338  0.6112 -1.2638  0.3621
 1802TIP3    H2 5413   4.953   1.817   3.209 -1.4989 -2.3713 -1.1860
 1803TIP3   OH2 5414   3.445   0.451   2.094  0.5505 -0.2643 -0.6383
 1803TIP3    H1 5415   3.380   0.416   2.154  1.6415 -1.6746 -0.2196
 1803TIP3    H2 5416   3.469   0.536   2.131  0.8610 -0.9090  0.6976
 1804TIP3   OH2 5417   1.990   3.520   0.884  0.0837  0.2336 -0.0878
 1804TIP3    H1 5418   1.896   3.508   0.873  0.0633  0.5755 -0.3002
 1804TIP3    H2 5419   2.014   3.460   0.955 -0.1741 -0.3284 -0.4778
 1805TIP3   OH2 5420   3.004   3.024   0.353 -0.1437  0.2872 -0.0369
 1805TIP3    H1 5421   2.924   3.029   0.301 -0.3835  0.6446  0.3675
 1805TIP3    H2 5422   2.991   2.949   0.410  0.8803 -1.2761 -1.7509
 1806TIP3   OH2 5423   3.982   4.079   3.580  0.2656  0.7521 -0.7293
 1806TIP3    H1 5424   4.014   4.143   3.644 -1.1013  1.2535 -0.5123
 1806TIP3    H2 5425   3.985   3.995   3.627 -2.4743  1.3445  0.7602
 1807TIP3   OH2 5426   1.230   5.513   2.091  0.3693  0.0491 -0.3033
 1807TIP3    H1 5427   1.232   5.420   2.066  0.3592 -0.0854  0.1940
 1807TIP3    H2 5428   1.318   5.532   2.121 -0.2744 -0.5259  2.1800
 1808TIP3   OH2 5429   4.590   1.406   3.523  0.2414  0.1317 -0.2218
 1808TIP3    H1 5430   4.560   1.339   3.585  1.5981  0.5722  0.9630
 1808TIP3    H2 5431   4.521   1.409   3.457 -1.4018 -0.1708  1.3875
 1809TIP3   OH2 5432   0.080   5.283   4.646  0.0086 -0.3102 -0.0330
 1809TIP3    H1 5433   0.094   5.378   4.651  1.8015 -0.5985  1.2995
 1809TIP3    H2 5434  -0.004   5.274   4.600  0.3110  1.8783 -1.1599
 1810TIP3   OH2 5435   2.211   2.577   4.309 -0.4084  0.4415  0.8942
 1810TIP3    H1 5436   2.276   2.598   4.242 -1.6633 -0.7238 -0.7726
 1810TIP3    H2 5437   2.221   2.646   4.375  2.1011  0.6047  0.4356
 1811TIP3   OH2 5438   3.143   4.843   2.911 -0.8963  0.1360 -0.5306
 1811TIP3    H1 5439   3.188   4.760   2.928  0.5845  1.0851  0.4528
 1811TIP3    H2 5440   3.095   4.862   2.991  0.2354  1.0854 -0.0520
 1812TIP3   OH2 5441   1.768   1.046   2.190  0.4094  0.0071  0.2165
 1812TIP3    H1 5442   1.844   1.083   2.145  1.5167 -1.3139  0.9216
 1812TIP3    H2 5443   1.805   0.983   2.252 -1.3098 -1.4538 -0.1486
 1813TIP3   OH2 5444   1.977   1.422   1.223 -0.3290 -0.0722  0.2599
 1813TIP3    H1 5445   1.963   1.356   1.291  0.5984  0.6407  1.1882
 1813TIP3    H2 5446   2.021   1.376   1.152 -0.5305 -0.6442  0.5044
 1814TIP3   OH2 5447   4.312   5.632   4.164  0.1820  0.3905  0.4423
 1814TIP3    H1 5448   4.270   5.657   4.082  0.2350 -1.0937 -0.0847
 1814TIP3    H2 5449   4.391   5.585   4.137  1.8015  2.4297  1.4001
 1815TIP3   OH2 5450   3.002   4.718   2.352 -0.4050  0.6108  0.2238
 1815TIP3    H1 5451   3.039   4.807   2.358 -0.6654  0.7470 -0.1584
 1815TIP3    H2 5452   3.058   4.665   2.408  1.5474  0.4409 -1.7357
 1816TIP3   OH2 5453   0.994   1.717   0.997  0.4229 -0.5341 -0.2129
 1816TIP3    H1 5454   1.041   1.738   0.916  1.7192 -0.4046  0.5510
 1816TIP3    H2 5455   0.938   1.643   0.973 -1.0618  1.0015 -1.8354
 1817TIP3   OH2 5456   3.258   1.222   2.124 -0.3785 -0.0684 -0.7792
 1817TIP3    H1 5457   3.334   1.188   2.171  1.0905  1.7628 -1.6852
 1817TIP3    H2 5458   3.213   1.145   2.090  0.7891 -1.2130  0.1984
 1818TIP3   OH2 5459   3.796   4.365   4.791 -0.0548 -0.1538 -0.2333
 1818TIP3    H1 5460   3.709   4.396   4.767  0.0390 -0.4170 -0.9229
 1818TIP3    H2 5461   3.780   4.294   4.853 -0.3404 -0.3920 -0.5790
 1819TIP3   OH2 5462   3.524   5.117   3.630  0.1745 -0.2451  0.3402
 1819TIP3    H1 5463   3.619   5.120   3.640  0.2727  0.8503 -0.7961
 1819TIP3    H2 5464   3.508   5.041   3.574  0.6366  1.1844 -1.8372
 1820TIP3   OH2 5465   4.102   5.276   2.587  0.3326 -0.0636  0.3851
 1820TIP3    H1 5466   4.038   5.347   2.584 -0.4783 -0.7914  0.0583
 1820TIP3    H2 5467   4.176   5.313   2.636 -0.0988  0.9757  0.2846
 1821TIP3   OH2 5468   4.058   2.490   1.816  0.6012  0.3127  0.1881
 1821TIP3    H1 5469   4.149   2.499   1.789  0.3615  1.8335 -0.1897
 1821TIP3    H2 5470   4.056   2.526   1.905 -0.0970  2.9375 -0.7935
 1822TIP3   OH2 5471   4.896   1.061   1.781  0.4405  0.1962  0.1503
 1822TIP3    H1 5472   4.921   0.982   1.732  0.4905  1.4172 -1.9172
 1822TIP3    H2 5473   4.980   1.099   1.809  0.5069  0.3684 -0.2769
 1823TIP3   OH2 5474   6.009   3.312   0.309 -0.2486  0.2129  0.4562
 1823TIP3    H1 5475   6.024   3.385   0.370  0.3814  1.6976 -1.3910
 1823TIP3    H2 5476   5.913   3.307   0.301 -0.2874  1.1749  0.2344
 1824TIP3   OH2 5477   3.808   5.168   3.404 -0.2569 -0.4411  0.3674
 1824TIP3    H1 5478   3.763   5.162   3.320  0.0415 -0.0705  0.1759
 1824TIP3    H2 5479   3.791   5.085   3.447  1.2551 -1.4617 -0.9036
 1825TIP3   OH2 5480   0.986   3.827   2.493  0.0989  0.1211 -0.0757
 1825TIP3    H1 5481   0.915   3.765   2.476 -0.4031  0.0528  1.9464
 1825TIP3    H2 5482   0.963   3.905   2.443 -1.3536  0.0423  0.4153
 1826TIP3   OH2 5483   5.317   1.506   4.047  0.1721  0.2928 -0.1510
 1826TIP3    H1 5484   5.322   1.413   4.024  0.1169  0.9025 -3.0318
 1826TIP3    H2 5485   5.256   1.510   4.120  0.5368 -1.9527  0.3493
 1827TIP3   OH2 5486   0.678   2.145   1.429 -0.4475  0.1933  0.2585
 1827TIP3    H1 5487   0.760   2.193   1.412 -0.2516 -0.4496 -0.6480
 1827TIP3    H2 5488   0.663   2.158   1.523  1.1118 -0.3069  0.6103
 1828TIP3   OH2 5489   5.424   1.648   4.954 -0.4956 -0.1175  0.1193
 1828TIP3    H1 5490   5.447   1.617   4.866  1.2298  0.2548  0.3976
 1828TIP3    H2 5491   5.489   1.715   4.973 -1.3976  0.4491  1.3413
 1829TIP3   OH2 5492   4.871   4.441   3.616 -0.3873  0.3954 -0.0772
 1829TIP3    H1 5493   4.851   4.455   3.524  1.2503  2.3459 -0.1842
 1829TIP3    H2 5494   4.802   4.487   3.663 -0.7103  0.1697 -0.3267
 1830TIP3   OH2 5495   3.903   1.869   2.407 -0.4616 -0.1306 -0.1109
 1830TIP3    H1 5496   3.876   1.954   2.441  0.8982  0.2406  0.1018
 1830TIP3    H2 5497   3.923   1.817   2.485  0.7239  0.0601 -0.2659
 1831TIP3   OH2 5498   3.496   3.662   1.951 -0.0896  0.0996 -0.0851
 1831TIP3    H1 5499   3.486   3.568   1.934 -0.6793 -0.0325  0.8866
 1831TIP3    H2 5500   3.462   3.705   1.873  0.9758 -0.4865 -0.9137
 1832TIP3   OH2 5501   4.854   3.620   5.031  0.7301 -0.0632 -0.4126
 1832TIP3    H1 5502   4.802   3.699   5.013 -0.1737 -0.6365 -0.3849
 1832TIP3    H2 5503   4.818   3.586   5.113  0.5854 -0.9241 -0.8222
 1833TIP3   OH2 5504   0.686   3.534   0.665 -0.2764 -0.1181 -0.0682
 1833TIP3    H1 5505   0.710   3.606   0.606 -2.5056 -0.5128 -1.6187
 1833TIP3    H2 5506   0.730   3.458   0.628 -1.3353 -0.2872 -1.0514
 1834TIP3   OH2 5507   5.246   3.402   4.899 -0.0216 -0.0626  0.4509
 1834TIP3    H1 5508   5.234   3.390   4.993 -0.1779  2.7946  0.8892
 1834TIP3    H2 5509   5.340   3.412   4.888  0.2803 -2.7363 -0.1280
 1835TIP3   OH2 5510   4.325   1.932   0.622  0.1429 -0.0762 -0.4932
 1835TIP3    H1 5511   4.299   1.847   0.657  0.4069 -1.3510 -3.1571
 1835TIP3    H2 5512   4.247   1.964   0.577  0.7750 -0.1487 -1.6775
 1836TIP3   OH2 5513   1.010   3.062   4.998  1.1080  0.1092  0.3600
 1836TIP3    H1 5514   0.949   2.989   4.985  0.8220  0.4613 -0.3652
 1836TIP3    H2 5515   1.096   3.020   5.003  1.1232 -0.2055 -1.5663
 1837TIP3   OH2 5516   0.944   3.770   3.965  0.9657 -0.5509 -0.2402
 1837TIP3    H1 5517   0.994   3.850   3.981 -1.7452  1.0260  1.1681
 1837TIP3    H2 5518   0.977   3.707   4.030  0.3978  0.8537  1.5148
 1838TIP3   OH2 5519   3.070   4.476   1.711 -0.2176  0.4039 -0.4683
 1838TIP3    H1 5520   3.103   4.419   1.642 -1.7899 -2.1792  0.7714
 1838TIP3    H2 5521   3.116   4.448   1.790 -2.9895 -1.2513  0.7034
 1839TIP3   OH2 5522   5.661   2.802   2.427 -0.6647 -0.4982  0.6357
 1839TIP3    H1 5523   5.751   2.774   2.442 -0.5319 -0.8946 -0.8098
 1839TIP3    H2 5524   5.619   2.727   2.385 -1.6385 -0.2631  1.1467
 1840TIP3   OH2 5525   2.031   5.154   3.908  0.0808  0.2398 -0.3555
 1840TIP3    H1 5526   1.999   5.198   3.986  2.8439  2.0152 -0.0798
 1840TIP3    H2 5527   2.123   5.135   3.927  0.3549 -0.9550 -2.5074
 1841TIP3   OH2 5528   0.086   3.813   4.902  0.0842  0.0735 -0.3441
 1841TIP3    H1 5529   0.132   3.886   4.945  1.9603 -0.0827 -1.9321
 1841TIP3    H2 5530   0.130   3.804   4.818 -1.4641 -1.5957 -1.0260
 1842TIP3   OH2 5531   5.384   4.926   4.133  0.3925  0.1805 -0.2953
 1842TIP3    H1 5532   5.425   5.012   4.121  2.8440 -0.9680 -0.9146
 1842TIP3    H2 5533   5.297   4.935   4.095  1.4310  1.7598 -2.5290
 1843TIP3   OH2 5534   2.553   2.706   2.912 -0.2454 -0.1091  0.4730
 1843TIP3    H1 5535   2.525   2.622   2.949 -0.7359  0.3816  1.2693
 1843TIP3    H2 5536   2.645   2.713   2.937  0.3104 -1.1780 -1.1011
 1844TIP3   OH2 5537   5.318   5.965   4.032 -0.1043  0.3023 -0.1406
 1844TIP3    H1 5538   5.332   6.051   4.071 -1.5673  0.9395 -0.9039
 1844TIP3    H2 5539   5.301   5.907   4.106 -0.0712  0.8854  0.3319
 1845TIP3   OH2 5540   3.588   1.946   3.986  0.8961 -0.1981 -0.2235
 1845TIP3    H1 5541   3.587   1.868   4.041  0.6765 -0.3888 -0.4926
 1845TIP3    H2 5542   3.680   1.969   3.977  0.9656 -0.4771 -0.2155
 1846TIP3   OH2 5543   0.477   3.835   0.723 -0.2512  0.6626 -0.7416
 1846TIP3    H1 5544   0.463   3.759   0.667  1.0132  0.1448 -0.3756
 1846TIP3    H2 5545   0.418   3.823   0.797 -1.5860  1.1097 -1.6960
 1847TIP3   OH2 5546   0.113   3.651   4.501  0.7971 -0.2582  0.3417
 1847TIP3    H1 5547   0.130   3.571   4.552  0.9885  0.0443  0.7609
 1847TIP3    H2 5548   0.030   3.684   4.536  1.0230  0.0504  0.5869
 1848TIP3   OH2 5549   3.071   0.084   3.276 -0.0307  0.0567  0.3677
 1848TIP3    H1 5550   3.080   0.120   3.188 -0.2093 -0.2479  0.2278
 1848TIP3    H2 5551   3.132   0.011   3.279 -0.0996  0.0026  0.4620
 1849TIP3   OH2 5552   6.248   3.879   4.328 -1.2313 -0.1956 -0.1813
 1849TIP3    H1 5553   6.264   3.894   4.421  0.2904 -1.8541 -0.1154
 1849TIP3    H2 5554   6.153   3.875   4.320 -1.4794  1.7511  0.9576
 1850TIP3   OH2 5555   0.548   1.592   1.496  0.1460  0.5797  0.4262
 1850TIP3    H1 5556   0.521   1.565   1.584 -0.7740  0.3820  0.0870
 1850TIP3    H2 5557   0.643   1.577   1.494  0.0571 -0.0961  1.1338
 1851TIP3   OH2 5558   0.891   3.919   1.647  0.1045 -0.0721  0.0658
 1851TIP3    H1 5559   0.885   4.013   1.658 -2.2141 -0.4105  2.9657
 1851TIP3    H2 5560   0.835   3.900   1.571 -1.5210  0.7401  0.9997
 1852TIP3   OH2 5561   5.751   1.376   1.973 -0.6264 -0.1516  0.3865
 1852TIP3    H1 5562   5.670   1.424   1.992 -1.6668 -2.1649  1.3379
 1852TIP3    H2 5563   5.723   1.303   1.918  0.6528 -0.6164  0.3265
 1853TIP3   OH2 5564   0.186   4.299   2.449  0.0650  0.3542 -0.5482
 1853TIP3    H1 5565   0.173   4.328   2.358  0.3008  0.7994 -0.4408
 1853TIP3    H2 5566   0.265   4.245   2.445 -0.4919 -0.4635 -0.7852
 1854TIP3   OH2 5567   3.292   0.574   3.383 -0.3928 -0.1708  0.0719
 1854TIP3    H1 5568   3.312   0.624   3.303  0.0665  0.2354  0.4288
 1854TIP3    H2 5569   3.319   0.633   3.454  1.8641 -1.5893  0.5025
 1855TIP3   OH2 5570   0.528   0.456   0.719  0.6031  0.5505 -0.1464
 1855TIP3    H1 5571   0.480   0.431   0.799 -0.4462  0.5058 -0.7678
 1855TIP3    H2 5572   0.517   0.551   0.714 -1.1113  0.3381 -1.3021
 1856TIP3   OH2 5573   4.243   0.384   0.416  0.2280 -0.6525  0.2549
 1856TIP3    H1 5574   4.208   0.398   0.504  0.1382  0.3428  0.0718
 1856TIP3    H2 5575   4.331   0.351   0.431  0.2813 -0.3121  0.7274
 1857TIP3   OH2 5576   1.039   1.433   3.718  0.4521  0.0426 -0.0092
 1857TIP3    H1 5577   1.135   1.438   3.714  0.5848 -0.7100  1.5266
 1857TIP3    H2 5578   1.015   1.490   3.791 -0.3074  0.4997 -0.6075
 1858TIP3   OH2 5579   4.514   5.745   1.181  0.9908  0.5182  0.0725
 1858TIP3    H1 5580   4.582   5.782   1.237  0.6124  1.4386 -0.0532
 1858TIP3    H2 5581   4.437   5.740   1.237  1.2547 -0.9655  0.3543
 1859TIP3   OH2 5582   2.684   1.788   3.711  0.2936  0.6144  0.1021
 1859TIP3    H1 5583   2.666   1.868   3.661  1.6880  1.3522  0.7020
 1859TIP3    H2 5584   2.617   1.786   3.779 -0.5126  0.5842 -0.6845
 1860TIP3   OH2 5585   5.277   5.269   0.727 -0.2637 -0.1681  0.3190
 1860TIP3    H1 5586   5.319   5.201   0.780  1.0068  0.6348  0.3906
 1860TIP3    H2 5587   5.265   5.343   0.787 -0.5729  0.0737 -0.0327
 1861TIP3   OH2 5588   2.527   5.861   0.321  0.6437  0.1504 -0.5822
 1861TIP3    H1 5589   2.606   5.833   0.367  0.1691  0.5942  0.5502
 1861TIP3    H2 5590   2.493   5.781   0.280  1.0156 -0.2833 -0.0512
 1862TIP3   OH2 5591   5.809   0.107   4.268  0.4369 -0.0539  0.0102
 1862TIP3    H1 5592   5.741   0.048   4.238  2.0114 -2.2848  0.6122
 1862TIP3    H2 5593   5.790   0.122   4.361  0.9417 -0.9558  0.2645
 1863TIP3   OH2 5594   1.199   4.909   3.394  0.0812  0.5259 -0.4922
 1863TIP3    H1 5595   1.167   4.882   3.308  1.5122  0.6475 -1.0959
 1863TIP3    H2 5596   1.125   4.955   3.434 -1.1529 -0.9504 -0.9648
 1864TIP3   OH2 5597   4.363   0.245   5.084 -0.6951 -0.2034 -0.4484
 1864TIP3    H1 5598   4.293   0.189   5.116 -0.3369  0.1604  1.0946
 1864TIP3    H2 5599   4.337   0.333   5.111  0.9811 -0.2151  1.4953
 1865TIP3   OH2 5600   3.822   3.302   3.892  0.2574 -0.8261 -0.0104
 1865TIP3    H1 5601   3.737   3.259   3.883  0.1743 -0.4714 -1.0044
 1865TIP3    H2 5602   3.841   3.338   3.805  0.9053  0.0628  0.4767
 1866TIP3   OH2 5603   0.502   0.044   4.597 -0.0834 -0.1013  0.0781
 1866TIP3    H1 5604   0.451   0.101   4.539  0.6164  0.8739  0.3875
 1866TIP3    H2 5605   0.453   0.045   4.680 -0.0203  0.1596  0.1160
 1867TIP3   OH2 5606   0.947   3.399   2.644 -0.9133 -0.2701 -0.3223
 1867TIP3    H1 5607   0.935   3.467   2.578 -0.0140  0.3224  0.1050
 1867TIP3    H2 5608   0.988   3.444   2.718  1.3942 -1.5945 -0.6999
 1868TIP3   OH2 5609   0.717   0.732   3.506 -0.2907  0.3544 -0.0658
 1868TIP3    H1 5610   0.730   0.702   3.416 -0.1520 -4.2947  1.2340
 1868TIP3    H2 5611   0.803   0.726   3.547 -0.8854 -0.8867  1.1123
 1869TIP3   OH2 5612   3.083   2.816   1.195  0.4195  0.3454 -0.4360
 1869TIP3    H1 5613   3.133   2.890   1.231  0.3309  0.9705 -1.5559
 1869TIP3    H2 5614   3.000   2.818   1.242  0.9545  0.0527  0.5664
 1870TIP3   OH2 5615   0.078   0.683   4.948  0.4257  0.3968 -0.5780
 1870TIP3    H1 5616   0.046   0.648   5.031  0.9341  1.0959 -0.0795
 1870TIP3    H2 5617   0.003   0.730   4.911 -0.6297 -2.0390 -1.7890
 1871TIP3   OH2 5618   2.453   2.075   1.351 -0.3517 -0.2758 -0.1829
 1871TIP3    H1 5619   2.543   2.103   1.333 -0.3600 -0.4999 -0.5749
 1871TIP3    H2 5620   2.452   2.058   1.446  0.1975 -0.9135 -0.2802
 1872TIP3   OH2 5621   5.311   1.219   2.575 -0.3216 -0.2087 -0.1056
 1872TIP3    H1 5622   5.219   1.196   2.586  0.1765 -1.1185  3.3455
 1872TIP3    H2 5623   5.310   1.303   2.529 -2.7913 -0.5905 -0.8708
 1873TIP3   OH2 5624   1.826   3.402   3.570 -0.1398  0.2543 -0.1481
 1873TIP3    H1 5625   1.888   3.469   3.597 -0.1973  0.5815 -0.7983
 1873TIP3    H2 5626   1.850   3.324   3.621  1.0324  0.2661 -0.6483
 1874TIP3   OH2 5627   5.107   4.287   0.597  0.5992 -0.4021 -0.5687
 1874TIP3    H1 5628   5.140   4.350   0.661  1.6509 -1.2897 -0.2029
 1874TIP3    H2 5629   5.152   4.311   0.515  0.6444 -0.3933 -0.5409
 1875TIP3   OH2 5630   6.053   3.941   5.158  0.2612  0.3872  0.1564
 1875TIP3    H1 5631   5.968   3.928   5.117  0.1495  1.8856 -0.1424
 1875TIP3    H2 5632   6.113   3.957   5.084  0.8741 -0.8678  0.3453
 1876TIP3   OH2 5633   3.673   3.090   1.668 -0.1897  0.2772  0.6461
 1876TIP3    H1 5634   3.671   3.184   1.650  1.8411  0.1009 -0.8918
 1876TIP3    H2 5635   3.764   3.072   1.691 -0.4601 -1.3706  0.5439
 1877TIP3   OH2 5636   4.126   4.638   4.528  0.3259  0.1243  0.1540
 1877TIP3    H1 5637   4.057   4.616   4.591 -0.0882  0.5691 -0.1394
 1877TIP3    H2 5638   4.084   4.627   4.443  0.3665  1.2061 -0.0100
 1878TIP3   OH2 5639   2.490   1.678   0.234  0.6680  0.0608 -0.0003
 1878TIP3    H1 5640   2.523   1.609   0.292  0.3620 -2.0209 -2.1418
 1878TIP3    H2 5641   2.429   1.633   0.176 -3.3256  3.0116  1.4450
 1879TIP3   OH2 5642   3.807   0.729   1.368 -0.0413  0.6646  0.7182
 1879TIP3    H1 5643   3.766   0.651   1.329  1.0990 -0.6039  1.9114
 1879TIP3    H2 5644   3.742   0.798   1.358 -0.9448 -0.3336 -0.7515
 1880TIP3   OH2 5645   5.561   2.608   2.206  0.0539  0.3533 -0.7182
 1880TIP3    H1 5646   5.498   2.541   2.179 -0.7903  1.4284 -1.5204
 1880TIP3    H2 5647   5.613   2.626   2.128  1.3715 -0.4853 -0.0742
 1881TIP3   OH2 5648   5.892   4.624   0.411  0.3152 -0.2938 -0.1694
 1881TIP3    H1 5649   5.930   4.707   0.439  0.6064 -0.6364  0.4631
 1881TIP3    H2 5650   5.961   4.559   0.429  0.3105 -0.5956 -1.1765
 1882TIP3   OH2 5651   4.508   3.885   4.301  0.0720 -0.0807  0.2455
 1882TIP3    H1 5652   4.462   3.968   4.288 -0.5262 -0.3512  0.5764
 1882TIP3    H2 5653   4.536   3.859   4.213 -0.1554  0.2336  0.0783
 1883TIP3   OH2 5654   4.689   2.057   4.560 -0.0794  0.0562 -0.2070
 1883TIP3    H1 5655   4.744   2.081   4.634 -0.3848  1.5383 -0.4133
 1883TIP3    H2 5656   4.621   2.125   4.557  1.1330  1.3300 -3.0839
 1884TIP3   OH2 5657   6.136   2.355   0.380  0.0350 -0.6766 -0.1248
 1884TIP3    H1 5658   6.132   2.262   0.357 -0.8379 -0.8926  0.7995
 1884TIP3    H2 5659   6.045   2.380   0.395  0.2027  0.4852 -0.8796
 1885TIP3   OH2 5660   2.391   5.140   3.102 -0.7477 -0.2044 -0.2169
 1885TIP3    H1 5661   2.377   5.070   3.037  1.9545 -0.1308 -0.9806
 1885TIP3    H2 5662   2.365   5.220   3.057  1.0282 -0.1656 -1.2560
 1886TIP3   OH2 5663   3.884   0.048   0.880 -0.2392  0.9676  0.0679
 1886TIP3    H1 5664   3.862  -0.014   0.950 -0.0023  0.3791 -0.3652
 1886TIP3    H2 5665   3.840   0.013   0.802  0.4504  0.9622 -0.3319
 1887TIP3   OH2 5666   3.339   1.254   1.044 -0.8673 -0.0595  0.2137
 1887TIP3    H1 5667   3.407   1.202   1.000  1.0096  1.8611  0.6379
 1887TIP3    H2 5668   3.298   1.304   0.973 -3.0378 -2.3336 -0.2718
 1888TIP3   OH2 5669   5.742   3.941   5.123  0.2909  0.7426 -0.0021
 1888TIP3    H1 5670   5.666   3.919   5.177  0.1662 -0.9995 -0.8182
 1888TIP3    H2 5671   5.712   4.014   5.068  0.4200  2.5441  2.2030
 1889TIP3   OH2 5672   1.231   5.556   4.093  0.1458 -0.0150  0.5871
 1889TIP3    H1 5673   1.317   5.591   4.071 -0.1710  0.6649  0.4264
 1889TIP3    H2 5674   1.250   5.479   4.147  0.8765 -0.3875 -0.1769
 1890TIP3   OH2 5675   0.273   2.594   0.138  0.5089 -0.5637  0.6418
 1890TIP3    H1 5676   0.283   2.662   0.072  1.5556  0.7045  2.0369
 1890TIP3    H2 5677   0.279   2.641   0.222  0.3260 -2.2541  1.6479
 1891TIP3   OH2 5678   4.116   5.527   3.069  0.4369  0.7611  0.3744
 1891TIP3    H1 5679   4.207   5.499   3.060 -0.0476 -0.6017 -0.6821
 1891TIP3    H2 5680   4.088   5.491   3.153  0.6573  0.5115  0.3431
 1892TIP3   OH2 5681   5.302   5.812   0.767 -0.5150 -0.7374  0.2369
 1892TIP3    H1 5682   5.255   5.895   0.761  0.4942 -0.1980 -0.5245
 1892TIP3    H2 5683   5.238   5.747   0.738 -1.4116 -0.2840  1.1231
 1893TIP3   OH2 5684   3.494   0.264   0.109 -0.2701 -0.4646  0.0148
 1893TIP3    H1 5685   3.452   0.349   0.125  1.5344  0.4675  0.0405
 1893TIP3    H2 5686   3.509   0.261   0.015  0.4278 -0.3681  0.1171
 1894TIP3   OH2 5687   4.564   1.343   1.812  0.3308  0.3141 -0.2507
 1894TIP3    H1 5688   4.555   1.252   1.782 -1.2874  0.2409  0.3561
 1894TIP3    H2 5689   4.487   1.387   1.777  0.8485  1.3506 -0.1245
 1895TIP3   OH2 5690   2.898   2.631   1.963  0.0380  0.7418 -0.4087
 1895TIP3    H1 5691   2.833   2.700   1.950  1.0991  1.4981 -2.1179
 1895TIP3    H2 5692   2.965   2.650   1.897  1.2333 -0.8935  0.2939
 1896TIP3   OH2 5693   0.728   2.449   0.333 -0.5202  0.3324 -0.1515
 1896TIP3    H1 5694   0.672   2.491   0.398 -2.7981 -0.1796 -1.6387
 1896TIP3    H2 5695   0.795   2.514   0.312 -2.5354  2.3603 -0.6865
 1897TIP3   OH2 5696   3.849   3.829   0.213 -0.3333 -0.1791 -0.0671
 1897TIP3    H1 5697   3.911   3.889   0.171  0.1083 -1.3692 -1.1856
 1897TIP3    H2 5698   3.772   3.830   0.156 -0.4341 -0.4499  0.0617
 1898TIP3   OH2 5699   2.186   5.132   1.939 -0.0862 -0.5686 -0.1993
 1898TIP3    H1 5700   2.108   5.098   1.894  0.6636 -0.5404 -1.5776
 1898TIP3    H2 5701   2.250   5.061   1.933  0.7107  0.1954 -1.0231
 1899TIP3   OH2 5702   3.095   3.884   1.569 -0.6184  0.2117  0.0434
 1899TIP3    H1 5703   3.017   3.829   1.557  1.7637 -3.1575 -1.8023
 1899TIP3    H2 5704   3.112   3.920   1.482  0.6952 -0.4187  0.0166
 1900TIP3   OH2 5705   4.099   2.443   0.397 -0.7546  0.2593  0.4010
 1900TIP3    H1 5706   4.110   2.516   0.336  0.7253  2.3681  2.9719
 1900TIP3    H2 5707   4.028   2.471   0.455 -1.9271 -1.5639 -0.0659
 1901TIP3   OH2 5708   5.382   2.629   0.299  0.4662 -0.7022 -0.5321
 1901TIP3    H1 5709   5.405   2.537   0.293  0.4953 -0.7770  0.5202
 1901TIP3    H2 5710   5.287   2.631   0.288  0.4526 -0.8691 -0.4427
 1902TIP3   OH2 5711   4.199   2.129   2.406  0.2238  0.3103 -0.3540
 1902TIP3    H1 5712   4.124   2.189   2.410  1.1861  1.4666  1.0832
 1902TIP3    H2 5713   4.214   2.103   2.496 -0.1432 -2.1593 -0.9294
 1903TIP3   OH2 5714   4.367   0.082   0.576  0.0433 -0.2263  0.4886
 1903TIP3    H1 5715   4.459   0.104   0.561 -0.0224 -0.6365 -0.6689
 1903TIP3    H2 5716   4.332   0.156   0.626  0.7140  0.5142 -0.1047
 1904TIP3   OH2 5717   5.398   2.512   3.031 -0.3774  0.1610  0.6200
 1904TIP3    H1 5718   5.325   2.570   3.009 -0.7420  0.0281  1.4516
 1904TIP3    H2 5719   5.357   2.440   3.079 -0.0486 -1.1933 -1.0386
 1905TIP3   OH2 5720   6.257   0.848   0.625  0.3637  0.3411  0.5677
 1905TIP3    H1 5721   6.289   0.762   0.597  1.3727  0.6291  0.7960
 1905TIP3    H2 5722   6.281   0.907   0.554  1.1214  0.7103  1.1127
 1906TIP3   OH2 5723   6.199   3.383   2.685 -0.1811  0.5613  0.0530
 1906TIP3    H1 5724   6.140   3.429   2.745 -0.1466 -0.1803  0.6711
 1906TIP3    H2 5725   6.206   3.295   2.722  2.1579  0.9145  0.5962
 1907TIP3   OH2 5726   1.757   0.930   0.800  0.8399  0.3765 -0.0473
 1907TIP3    H1 5727   1.777   1.005   0.857  0.3879 -0.1356  0.7988
 1907TIP3    H2 5728   1.664   0.913   0.814  1.0276 -0.5879  0.0711
 1908TIP3   OH2 5729   4.202   2.191   4.812  0.0729  0.0779 -0.1192
 1908TIP3    H1 5730   4.289   2.191   4.852 -0.2240 -0.2849  0.5266
 1908TIP3    H2 5731   4.216   2.155   4.724  0.4733 -0.6024  0.2155
 1909TIP3   OH2 5732   5.235   3.783   0.390  0.2728  0.1892 -0.8849
 1909TIP3    H1 5733   5.325   3.813   0.401  0.2574  0.9075 -2.3665
 1909TIP3    H2 5734   5.190   3.858   0.351 -1.1110  0.0240  0.3101
 1910TIP3   OH2 5735   3.451   1.206   2.731  0.3172  0.4532 -0.6179
 1910TIP3    H1 5736   3.457   1.300   2.712 -0.5162  0.4665 -0.8259
 1910TIP3    H2 5737   3.442   1.202   2.826  1.7959  0.5072 -0.4533
 1911TIP3   OH2 5738   3.154   2.128   4.857 -0.7147  0.1857  0.2466
 1911TIP3    H1 5739   3.246   2.153   4.861 -0.6811 -0.1289  1.8931
 1911TIP3    H2 5740   3.115   2.168   4.934 -1.9029  0.0521 -0.2647
 1912TIP3   OH2 5741   5.973   0.738   0.745  0.2951 -0.6995 -0.0339
 1912TIP3    H1 5742   5.903   0.762   0.805  0.6761  0.5044 -0.0615
 1912TIP3    H2 5743   5.971   0.642   0.744 -1.3535 -0.7082 -0.0376
 1913TIP3   OH2 5744   5.367   0.041   1.351  0.2869 -0.2016  0.1999
 1913TIP3    H1 5745   5.411   0.020   1.433  0.2280 -0.5808  0.1361
 1913TIP3    H2 5746   5.345   0.134   1.359 -0.7501 -0.5020  1.0974
 1914TIP3   OH2 5747   3.519   0.677   2.214 -0.2765  0.5841  0.6241
 1914TIP3    H1 5748   3.571   0.615   2.265 -0.0291  0.7993  0.6358
 1914TIP3    H2 5749   3.478   0.734   2.279 -0.2465  0.6356  0.5979
 1915TIP3   OH2 5750   1.958   3.684   1.166 -0.1497 -0.8581  0.2411
 1915TIP3    H1 5751   1.865   3.700   1.151 -0.4911 -0.7209  2.2949
 1915TIP3    H2 5752   1.980   3.613   1.105 -2.0746 -2.1918  0.9744
 1916TIP3   OH2 5753   3.359   3.147   3.635 -0.5270 -0.1144  0.5632
 1916TIP3    H1 5754   3.453   3.157   3.649  0.1153 -1.6993 -2.0010
 1916TIP3    H2 5755   3.323   3.234   3.648  1.3164  0.5890  1.2682
 1917TIP3   OH2 5756   0.888   0.542   4.637 -0.0986  0.1770  0.4535
 1917TIP3    H1 5757   0.811   0.548   4.692 -0.8762 -0.1878 -0.5503
 1917TIP3    H2 5758   0.854   0.542   4.547  1.0393 -0.2447 -0.0105
 1918TIP3   OH2 5759   5.937   3.897   4.144  0.1095  0.0303 -0.0884
 1918TIP3    H1 5760   5.843   3.877   4.135  0.1598 -1.6434  2.2466
 1918TIP3    H2 5761   5.953   3.964   4.077 -2.0761 -1.6875 -2.5261
 1919TIP3   OH2 5762   5.009   1.561   0.718 -0.2873  0.0499  0.5188
 1919TIP3    H1 5763   4.952   1.630   0.685  0.9556  0.4239 -0.9297
 1919TIP3    H2 5764   5.027   1.506   0.642  1.0084 -0.2475  1.0209
 1920TIP3   OH2 5765   1.223   0.704   5.129  0.0472  0.2915 -0.3319
 1920TIP3    H1 5766   1.275   0.708   5.049 -1.8091  0.3440 -1.5919
 1920TIP3    H2 5767   1.263   0.633   5.180  0.1717 -0.9910 -2.1225
 1921TIP3   OH2 5768   1.263   0.538   3.341  0.2270 -0.0089 -0.3887
 1921TIP3    H1 5769   1.220   0.464   3.298 -1.0050 -1.2702  2.7322
 1921TIP3    H2 5770   1.326   0.499   3.401  0.4469  1.5318  0.4360
 1922TIP3   OH2 5771   1.492   0.388   3.461 -0.0009 -0.0031 -0.1059
 1922TIP3    H1 5772   1.532   0.341   3.387  1.4922 -0.0398  0.7004
 1922TIP3    H2 5773   1.449   0.319   3.513 -0.0754 -0.1204 -0.3194
 1923TIP3   OH2 5774   5.851   5.221   2.966 -0.3333 -0.3395 -0.0664
 1923TIP3    H1 5775   5.913   5.219   2.894 -0.2455  0.7012 -0.0290
 1923TIP3    H2 5776   5.766   5.205   2.925 -0.2036 -0.3997 -0.3104
 1924TIP3   OH2 5777   1.812   1.740   4.536  0.0106  0.3220  0.0239
 1924TIP3    H1 5778   1.728   1.773   4.505 -0.4628  0.7436  1.7048
 1924TIP3    H2 5779   1.872   1.814   4.525  0.8079 -0.6378 -3.3384
 1925TIP3   OH2 5780   2.390   3.078   2.065  0.2367  0.3192  0.3605
 1925TIP3    H1 5781   2.449   3.120   2.003  2.2081 -1.0388  1.2118
 1925TIP3    H2 5782   2.388   2.986   2.036 -0.7563  0.1709  0.8825
 1926TIP3   OH2 5783   2.509   1.743   3.136 -0.1464 -0.2517  0.4015
 1926TIP3    H1 5784   2.527   1.837   3.145 -2.2672  0.0332  2.6460
 1926TIP3    H2 5785   2.578   1.701   3.187  0.5781  0.0804 -0.2801
 1927TIP3   OH2 5786   1.585   4.283   2.602 -0.5541 -0.0897 -0.3255
 1927TIP3    H1 5787   1.641   4.352   2.637 -1.5119  0.4139  0.2838
 1927TIP3    H2 5788   1.645   4.221   2.562  0.3273  1.2636 -1.2072
 1928TIP3   OH2 5789   2.865   3.541   0.272  0.5415 -0.5338 -0.2951
 1928TIP3    H1 5790   2.925   3.482   0.224  0.1317 -1.8336  0.7329
 1928TIP3    H2 5791   2.778   3.504   0.256 -0.0787  1.3940 -1.8522
 1929TIP3   OH2 5792   1.864   4.768   4.729 -0.1116  0.0619  0.0806
 1929TIP3    H1 5793   1.939   4.793   4.782  0.7529 -1.1855 -0.4941
 1929TIP3    H2 5794   1.872   4.673   4.719 -2.8067 -0.4362  1.5525
 1930TIP3   OH2 5795   1.968   0.818   0.994 -0.2215 -0.2360 -0.2587
 1930TIP3    H1 5796   2.025   0.794   0.921 -1.6563 -0.3309 -1.3989
 1930TIP3    H2 5797   1.891   0.856   0.953 -0.6301  0.6932  1.2752
 1931TIP3   OH2 5798   4.948   1.713   2.544  0.2433 -0.0672 -0.3751
 1931TIP3    H1 5799   4.910   1.781   2.599 -0.4900 -0.1540 -0.7549
 1931TIP3    H2 5800   4.959   1.638   2.602  1.0170  0.3589  0.0351
 1932TIP3   OH2 5801   3.627  -0.010   1.479  0.4260 -0.4772 -0.2863
 1932TIP3    H1 5802   3.654   0.082   1.480  0.6469 -0.5415 -0.1934
 1932TIP3    H2 5803   3.658  -0.043   1.395 -0.5557 -0.2055 -0.7648
 1933TIP3   OH2 5804   5.873   2.499   1.067  0.1425 -0.2512 -0.1072
 1933TIP3    H1 5805   5.937   2.450   1.015  1.0123  1.4260 -0.7055
 1933TIP3    H2 5806   5.789   2.481   1.024  0.8035  0.8465 -2.0040
 1934TIP3   OH2 5807   1.759  -0.016   3.880 -0.1772 -0.6205 -0.8682
 1934TIP3    H1 5808   1.839   0.007   3.927 -0.0490 -0.0601 -1.3611
 1934TIP3    H2 5809   1.730   0.065   3.839 -1.6896 -0.5049  0.3134
 1935TIP3   OH2 5810   5.319   3.427   4.175 -0.2985 -0.1368 -0.2925
 1935TIP3    H1 5811   5.254   3.466   4.117 -1.2796 -1.0853  0.1376
 1935TIP3    H2 5812   5.326   3.488   4.248 -0.6556  0.0088 -0.3766
 1936TIP3   OH2 5813   1.933   2.924   3.859 -0.3286  0.1456  0.1290
 1936TIP3    H1 5814   1.947   2.831   3.872  0.6511  0.1959 -0.4373
 1936TIP3    H2 5815   1.838   2.935   3.857 -0.6571 -1.5138 -4.0045
 1937TIP3   OH2 5816   4.805   2.396   4.221 -0.5362  0.0053  0.1588
 1937TIP3    H1 5817   4.856   2.443   4.286 -0.9305  0.5476  0.0885
 1937TIP3    H2 5818   4.867   2.337   4.179 -0.1530  0.0711  0.6302
 1938TIP3   OH2 5819   6.188   0.439   2.697 -0.9692 -0.2165 -0.2219
 1938TIP3    H1 5820   6.107   0.487   2.679  0.2320  1.5644 -1.1216
 1938TIP3    H2 5821   6.179   0.358   2.646 -2.6725 -0.6304  0.6620
 1939TIP3   OH2 5822   5.132   5.525   2.269 -0.2750  0.4221  0.3410
 1939TIP3    H1 5823   5.118   5.596   2.332 -1.0755 -0.8819  1.6977
 1939TIP3    H2 5824   5.207   5.555   2.217 -0.8389  2.4325  0.5680
 1940TIP3   OH2 5825   0.794   0.371   4.022 -0.5286 -0.2778  1.0077
 1940TIP3    H1 5826   0.778   0.340   4.111 -3.6416 -1.2668  0.2174
 1940TIP3    H2 5827   0.796   0.291   3.970 -0.8444  0.4069 -0.0739
 1941TIP3   OH2 5828   0.571   3.450   1.138 -0.1687  0.1486  0.1083
 1941TIP3    H1 5829   0.517   3.508   1.084 -0.0924 -0.0793 -0.2174
 1941TIP3    H2 5830   0.645   3.427   1.082  0.5887  0.9517  0.7644
 1942TIP3   OH2 5831   2.759   1.562   0.173 -0.8592  0.2215  0.2658
 1942TIP3    H1 5832   2.775   1.519   0.089  0.0124  1.0040  0.0066
 1942TIP3    H2 5833   2.675   1.606   0.163 -0.9507 -0.0235 -0.0471
 1943TIP3   OH2 5834   3.684   4.101   1.902 -0.1079  0.4695  0.2119
 1943TIP3    H1 5835   3.657   4.059   1.984  1.1445  0.9855  0.9321
 1943TIP3    H2 5836   3.778   4.116   1.913  0.1209  0.4056 -1.4065
 1944TIP3   OH2 5837   0.180   3.103   3.296 -0.1707  0.2998 -0.3270
 1944TIP3    H1 5838   0.246   3.118   3.228 -1.1230 -0.8958 -1.5645
 1944TIP3    H2 5839   0.103   3.150   3.264 -0.3853  0.4257  0.3613
 1945TIP3   OH2 5840   1.984   5.056   1.091 -0.6048 -0.0270 -0.4814
 1945TIP3    H1 5841   1.898   5.059   1.050 -0.1470 -0.0612 -1.4893
 1945TIP3    H2 5842   2.042   5.023   1.022 -0.1859 -2.3524  0.9013
 1946TIP3   OH2 5843   3.016   5.800   2.557  0.2054  0.5290 -0.0216
 1946TIP3    H1 5844   3.071   5.829   2.630  0.1949  0.2473  0.0980
 1946TIP3    H2 5845   3.047   5.711   2.537 -0.9265 -0.0589  0.7552
 1947TIP3   OH2 5846   1.988   0.953   4.886 -0.5468  0.3143  0.2883
 1947TIP3    H1 5847   1.938   0.927   4.809  0.1771  0.8084 -0.3623
 1947TIP3    H2 5848   2.070   0.987   4.851 -0.7750  1.8813  1.2059
 1948TIP3   OH2 5849   0.322   1.262   0.842 -0.0651 -0.9714 -0.1567
 1948TIP3    H1 5850   0.233   1.267   0.877  1.0084  0.9906  2.7080
 1948TIP3    H2 5851   0.375   1.232   0.916  2.0580  0.8953 -0.7948
 1949TIP3   OH2 5852   5.492   4.823   2.859  0.6257 -0.2131  0.0027
 1949TIP3    H1 5853   5.494   4.907   2.904  0.4233  0.1038 -0.5732
 1949TIP3    H2 5854   5.481   4.758   2.929  2.3259  0.1103  0.6101
 1950TIP3   OH2 5855   2.823   0.478   2.210 -0.0551 -0.3845 -0.6833
 1950TIP3    H1 5856   2.840   0.386   2.189 -1.0302 -0.4686 -1.1578
 1950TIP3    H2 5857   2.838   0.525   2.128 -0.5069 -0.2492 -0.6885
 1951TIP3   OH2 5858   2.985   0.895   1.225  0.1529 -0.8187  0.3804
 1951TIP3    H1 5859   2.952   0.811   1.258 -1.3178 -0.2570  0.4011
 1951TIP3    H2 5860   2.955   0.898   1.134 -2.2318  0.8366  1.1188
 1952TIP3   OH2 5861   5.931   0.576   1.837  0.5243 -0.2567  0.1339
 1952TIP3    H1 5862   5.909   0.658   1.880 -0.1571  0.5486 -1.6623
 1952TIP3    H2 5863   5.851   0.523   1.844  1.0846 -0.9864  1.6365
 1953TIP3   OH2 5864   1.407   0.368   1.474 -0.3739 -0.1343 -0.4653
 1953TIP3    H1 5865   1.350   0.439   1.444  1.6573  3.5336  3.2303
 1953TIP3    H2 5866   1.353   0.321   1.538 -0.4484  1.1178  0.4506
 1954TIP3   OH2 5867   3.993   5.569   2.587  0.5077  0.4074  0.0320
 1954TIP3    H1 5868   3.979   5.649   2.537 -0.3826  0.9352  1.0982
 1954TIP3    H2 5869   3.908   5.549   2.625  1.5600  1.2180  3.0678
 1955TIP3   OH2 5870   4.627   1.910   4.864 -0.1193  0.6574 -0.5840
 1955TIP3    H1 5871   4.677   1.893   4.944 -0.5292 -0.8493 -0.6241
 1955TIP3    H2 5872   4.691   1.904   4.793  0.2947  2.2488 -0.3774
 1956TIP3   OH2 5873   0.846   2.826   1.615 -0.1725 -0.1362  0.7389
 1956TIP3    H1 5874   0.891   2.893   1.666  0.5104  0.4841 -0.6416
 1956TIP3    H2 5875   0.916   2.776   1.574 -0.6628 -1.8235  1.8386
 1957TIP3   OH2 5876   5.764   2.253   0.144  0.0700 -0.1124 -0.2527
 1957TIP3    H1 5877   5.737   2.344   0.130 -0.5060 -0.3906 -1.0048
 1957TIP3    H2 5878   5.682   2.205   0.156  0.1989 -0.8599 -1.9491
 1958TIP3   OH2 5879   3.255   4.801   5.143  0.4759 -0.2065  0.2310
 1958TIP3    H1 5880   3.329   4.859   5.127 -0.3458  1.4564  2.0013
 1958TIP3    H2 5881   3.211   4.840   5.219 -1.1082 -2.2209  0.4119
 1959TIP3   OH2 5882   1.293   3.854   1.507  0.4722 -0.4262  0.0701
 1959TIP3    H1 5883   1.207   3.832   1.470 -1.2744  1.9019  2.3295
 1959TIP3    H2 5884   1.323   3.928   1.456  0.6189 -0.5654 -0.0450
 1960TIP3   OH2 5885   0.344   0.354   1.750 -0.0227 -0.5046  0.3251
 1960TIP3    H1 5886   0.346   0.434   1.802 -1.0393  0.0837 -0.4997
 1960TIP3    H2 5887   0.280   0.298   1.794  1.3943 -1.3038  1.4648
 1961TIP3   OH2 5888   5.354   2.922   0.186  0.6534  0.1782 -0.4789
 1961TIP3    H1 5889   5.308   2.864   0.124  0.4851 -1.2841  0.9378
 1961TIP3    H2 5890   5.447   2.905   0.171  0.5958 -1.0186  0.3879
 1962TIP3   OH2 5891   0.914   4.844   3.993 -0.3084 -0.1749 -0.0091
 1962TIP3    H1 5892   1.007   4.822   3.995 -0.4394 -0.7462  2.6235
 1962TIP3    H2 5893   0.899   4.875   3.903  2.5507  0.6255 -0.3123
 1963TIP3   OH2 5894   0.059   1.236   4.175  0.1311 -0.2110  0.1109
 1963TIP3    H1 5895   0.124   1.169   4.194  0.4962  0.2151  0.3570
 1963TIP3    H2 5896   0.035   1.272   4.260  0.0892  0.1183 -0.0387
 1964TIP3   OH2 5897   5.609   2.769   0.672  0.2033 -0.3683 -0.3483
 1964TIP3    H1 5898   5.699   2.747   0.694 -0.6992 -2.6974  1.4506
 1964TIP3    H2 5899   5.610   2.787   0.578  2.0401 -3.4971 -1.0529
 1965TIP3   OH2 5900   2.704   0.439   2.789  0.0144  0.1247 -0.1732
 1965TIP3    H1 5901   2.715   0.515   2.733 -0.3856  0.2794 -0.0438
 1965TIP3    H2 5902   2.745   0.464   2.872  1.4436 -0.4460 -0.6810
 1966TIP3   OH2 5903   1.042   4.120   0.086 -0.2702  0.0932 -0.0281
 1966TIP3    H1 5904   1.127   4.162   0.096 -0.4363  0.3633  0.2464
 1966TIP3    H2 5905   0.984   4.189   0.053 -0.5275  0.0673  0.3589
 1967TIP3   OH2 5906   3.023   1.645   2.639 -0.5731  0.5330  0.5112
 1967TIP3    H1 5907   2.970   1.568   2.660 -0.8856  0.5056 -0.3556
 1967TIP3    H2 5908   3.074   1.662   2.719  0.4263 -1.3172  0.3274
 1968TIP3   OH2 5909   4.541   0.958   1.245 -0.4885  0.0082 -0.0724
 1968TIP3    H1 5910   4.447   0.937   1.243 -0.7625  1.1421  0.0998
 1968TIP3    H2 5911   4.551   1.028   1.181  0.1956  0.0961  0.1209
 1969TIP3   OH2 5912   3.509   2.854   3.510 -0.7207  0.2453  0.9452
 1969TIP3    H1 5913   3.482   2.942   3.483  0.6024  0.5522  0.5282
 1969TIP3    H2 5914   3.580   2.869   3.573 -1.0471 -0.5215  1.5105
 1970TIP3   OH2 5915   3.428   5.190   3.172  0.2172 -0.2663  0.5069
 1970TIP3    H1 5916   3.476   5.109   3.187  0.9483  0.1501  0.4790
 1970TIP3    H2 5917   3.474   5.256   3.225  1.0888  0.6214 -1.2639
 1971TIP3   OH2 5918   0.280   0.306   1.200 -0.3436 -0.1938  0.5669
 1971TIP3    H1 5919   0.341   0.380   1.205  0.8400 -0.9322 -1.5557
 1971TIP3    H2 5920   0.332   0.231   1.231 -1.4731 -0.2397  2.5203
 1972TIP3   OH2 5921   4.168   0.559   0.048  0.4548 -0.6051 -0.3231
 1972TIP3    H1 5922   4.185   0.465   0.054  2.4381 -0.3157 -0.7293
 1972TIP3    H2 5923   4.201   0.583  -0.039 -0.4499  0.4133 -0.4062
 1973TIP3   OH2 5924   5.512   1.395   3.260 -0.3515  0.1186 -0.1061
 1973TIP3    H1 5925   5.571   1.388   3.185 -1.7451  0.3189 -1.2728
 1973TIP3    H2 5926   5.516   1.486   3.286 -0.4760  0.2350 -0.4818
 1974TIP3   OH2 5927   3.328   4.230   1.982  0.7410  0.5614  0.0499
 1974TIP3    H1 5928   3.263   4.299   1.966  0.8480  0.5745 -0.3425
 1974TIP3    H2 5929   3.338   4.228   2.077 -0.4588 -0.0268  0.1748
 1975TIP3   OH2 5930   0.622   1.354   0.274  0.6324  0.7435 -0.2182
 1975TIP3    H1 5931   0.617   1.359   0.179  2.1335  2.4556 -0.2599
 1975TIP3    H2 5932   0.566   1.425   0.305 -0.9233 -0.6331  0.2653
 1976TIP3   OH2 5933   1.463   0.505   0.524 -0.0228 -0.2135  0.4797
 1976TIP3    H1 5934   1.390   0.444   0.516 -0.4957  0.0802  2.1527
 1976TIP3    H2 5935   1.541   0.450   0.510 -0.5153 -0.4811 -1.5423
 1977TIP3   OH2 5936   0.608   1.362   0.717 -0.1349 -0.5156 -0.2992
 1977TIP3    H1 5937   0.589   1.404   0.800 -1.4373 -1.4185 -0.1072
 1977TIP3    H2 5938   0.586   1.428   0.651  1.0103  0.2442  0.0490
 1978TIP3   OH2 5939   1.019   3.486   0.128 -0.5305 -0.1185  0.4339
 1978TIP3    H1 5940   0.985   3.523   0.210 -1.2857 -2.7473  1.4046
 1978TIP3    H2 5941   0.944   3.487   0.068 -0.7760 -0.7028  0.7163
 1979TIP3   OH2 5942   2.039   3.049   2.406  0.0654 -0.2358 -0.0583
 1979TIP3    H1 5943   2.017   3.142   2.407  1.1482  0.0358  0.4713
 1979TIP3    H2 5944   2.015   3.017   2.494  1.1845 -0.0645  0.3277
 1980TIP3   OH2 5945   0.546   3.097   1.854 -0.3653 -0.7909  0.3014
 1980TIP3    H1 5946   0.542   3.181   1.899 -0.6008 -0.9043  0.4974
 1980TIP3    H2 5947   0.498   3.110   1.772 -1.1109 -0.9541  0.6983
 1981TIP3   OH2 5948   1.538   0.836   4.607  0.4645  0.3007  0.9569
 1981TIP3    H1 5949   1.531   0.823   4.512 -0.3638  1.4745  0.8195
 1981TIP3    H2 5950   1.554   0.749   4.643  2.2971  0.0335 -0.3655
 1982TIP3   OH2 5951   3.561   4.371   1.855 -0.1767 -0.0581  0.7726
 1982TIP3    H1 5952   3.505   4.389   1.930 -1.0305 -0.1858  0.1862
 1982TIP3    H2 5953   3.604   4.288   1.876 -1.7892 -1.0363  0.3667
 1983TIP3   OH2 5954   3.508   4.766   0.501  0.5011 -0.5296  0.2737
 1983TIP3    H1 5955   3.421   4.780   0.465  0.6507  0.5406  0.2921
 1983TIP3    H2 5956   3.521   4.671   0.497 -0.5055 -0.6631 -0.0772
 1984TIP3   OH2 5957   5.766   4.555   1.388  0.1695  0.5801  0.0534
 1984TIP3    H1 5958   5.685   4.605   1.391  0.2455  0.6777  2.5426
 1984TIP3    H2 5959   5.746   4.473   1.432  1.2677  0.3997  0.2510
 1985TIP3   OH2 5960   5.960   2.274   3.581 -0.6512  0.7293  0.2625
 1985TIP3    H1 5961   5.899   2.202   3.589  0.2518 -0.0468  0.3151
 1985TIP3    H2 5962   5.948   2.306   3.491 -1.4349  0.8817  0.4131
 1986TIP3   OH2 5963   1.637   0.259   4.335 -0.3359  0.2112  0.2791
 1986TIP3    H1 5964   1.693   0.329   4.367  1.4784 -1.1285  0.2341
 1986TIP3    H2 5965   1.694   0.182   4.334 -1.9167 -1.0146 -0.7671
 1987TIP3   OH2 5966   2.902   3.844   0.246 -0.2134 -0.2215 -1.2972
 1987TIP3    H1 5967   2.882   3.750   0.244  0.9429 -0.4796 -1.2411
 1987TIP3    H2 5968   2.987   3.849   0.290 -0.3795  0.8806 -1.0796
 1988TIP3   OH2 5969   4.841   1.480   2.724 -0.3050  0.9547  0.2413
 1988TIP3    H1 5970   4.794   1.400   2.703 -1.9894  1.9249  0.1514
 1988TIP3    H2 5971   4.784   1.551   2.693  1.0722  2.1966  0.4314
 1989TIP3   OH2 5972   0.787   4.947   3.775 -0.5215 -0.2115  0.4800
 1989TIP3    H1 5973   0.801   4.920   3.684  1.3912 -2.2025  1.2507
 1989TIP3    H2 5974   0.699   4.917   3.796 -0.6033 -0.6514 -0.4303
 1990TIP3   OH2 5975   0.758   4.906   4.248  0.3051  0.8030 -0.1484
 1990TIP3    H1 5976   0.686   4.969   4.244 -1.0356 -0.6658  0.0279
 1990TIP3    H2 5977   0.797   4.908   4.161  1.4845  3.1407  0.3343
 1991TIP3   OH2 5978   5.990   0.810   2.816  0.5175  0.2746 -0.2648
 1991TIP3    H1 5979   5.955   0.897   2.831  0.2344  0.2846 -0.9562
 1991TIP3    H2 5980   5.960   0.759   2.892  0.9284  0.8404  0.2846
 1992TIP3   OH2 5981   5.708   2.665   3.430  0.0593 -0.5050  0.2327
 1992TIP3    H1 5982   5.759   2.744   3.411  0.4734 -0.3849  1.6893
 1992TIP3    H2 5983   5.727   2.647   3.522 -0.8651 -1.7028  0.2035
 1993TIP3   OH2 5984   2.079   3.614   1.859 -0.4904  0.3629 -0.0567
 1993TIP3    H1 5985   2.112   3.677   1.924 -1.0959 -0.3912  1.0120
 1993TIP3    H2 5986   2.005   3.659   1.818  0.1561  1.0087 -0.5342
 1994TIP3   OH2 5987   4.799   3.206   4.331  0.1008  0.5333 -0.0346
 1994TIP3    H1 5988   4.796   3.269   4.403 -0.8632 -0.0714  0.4790
 1994TIP3    H2 5989   4.757   3.251   4.258 -0.9533  0.3539  0.4468
 1995TIP3   OH2 5990   1.039   4.012   3.794 -0.2059  0.7498  0.3295
 1995TIP3    H1 5991   0.978   3.944   3.768 -0.3937  1.4791 -1.2608
 1995TIP3    H2 5992   0.984   4.081   3.831 -0.1292  0.5511  0.8245
 1996TIP3   OH2 5993   4.042   3.150   4.586  0.0819 -0.4432  0.2581
 1996TIP3    H1 5994   3.992   3.100   4.650  1.8151 -1.9292  0.5105
 1996TIP3    H2 5995   4.000   3.131   4.503  1.3394 -3.3376  0.1675
 1997TIP3   OH2 5996   3.737   1.662   4.900  0.1191 -0.4531 -0.9138
 1997TIP3    H1 5997   3.725   1.757   4.911 -1.2041 -0.7776  0.9438
 1997TIP3    H2 5998   3.730   1.648   4.806 -1.0118  1.1499 -1.1146
 1998TIP3   OH2 5999   5.311   1.973   1.418 -0.1785  0.2819  0.4894
 1998TIP3    H1 6000   5.255   1.956   1.493 -1.0934  0.1810 -0.1984
 1998TIP3    H2 6001   5.332   2.066   1.423 -2.2650  0.8566 -0.4542
 1999TIP3   OH2 6002   3.368   2.042   5.155 -0.0457  0.3313  0.2392
 1999TIP3    H1 6003   3.333   2.129   5.175 -0.1919  0.5808 -1.0107
 1999TIP3    H2 6004   3.399   2.050   5.065  1.4452 -0.4493  0.6570
 2000TIP3   OH2 6005   4.613   2.371   2.439  0.5308  0.0359 -0.3295
 2000TIP3    H1 6006   4.590   2.298   2.496  0.0720  0.1024 -0.4257
 2000TIP3    H2 6007   4.568   2.446   2.477 -0.1549 -0.0075 -1.0403
 2001TIP3   OH2 6008   0.734   4.719   0.952 -0.0420 -0.6012 -0.4466
 2001TIP3    H1 6009   0.762   4.646   1.008 -0.0188 -0.2114  0.0636
 2001TIP3    H2 6010   0.711   4.679   0.869 -0.4760 -1.2493 -0.0208
 2002TIP3   OH2 6011   0.070   1.062   1.223 -0.4657 -0.1569 -0.3111
 2002TIP3    H1 6012   0.097   1.111   1.301 -1.9862 -0.6861  0.5992
 2002TIP3    H2 6013   0.110   0.976   1.234 -0.5240 -0.1710 -0.2076
 2003TIP3   OH2 6014   1.132   5.887   3.559  0.1128 -0.4390  0.7412
 2003TIP3    H1 6015   1.094   5.975   3.565  0.8494  0.1036 -1.3786
 2003TIP3    H2 6016   1.226   5.903   3.549  0.3823 -1.5377  1.4441
 2004TIP3   OH2 6017   5.538   1.702   2.393  0.0844  0.2316 -0.3229
 2004TIP3    H1 6018   5.554   1.723   2.301  0.5336  4.7136  0.5524
 2004TIP3    H2 6019   5.449   1.733   2.410  0.6827  1.3064  1.1111
 2005TIP3   OH2 6020   2.326   3.760   1.825  0.5030  0.2892 -0.3559
 2005TIP3    H1 6021   2.281   3.772   1.741  0.2059  0.9448 -0.1091
 2005TIP3    H2 6022   2.262   3.787   1.891  0.7392 -0.2088  0.0890
 2006TIP3   OH2 6023   3.559   1.887   1.480 -0.0148  0.2572 -0.0136
 2006TIP3    H1 6024   3.495   1.934   1.534 -0.7969  0.9060 -1.4473
 2006TIP3    H2 6025   3.584   1.951   1.414  2.3330  0.0940  0.6456
 2007TIP3   OH2 6026   0.333   0.521   1.529  0.3635 -0.2300 -0.0123
 2007TIP3    H1 6027   0.246   0.538   1.493  0.1203 -2.5599 -0.6577
 2007TIP3    H2 6028   0.316   0.470   1.609  1.1370 -1.8556 -0.8450
 2008TIP3   OH2 6029   1.161   5.450   1.599 -0.0594 -0.4332  0.3342
 2008TIP3    H1 6030   1.151   5.535   1.555 -0.9154 -0.1455  1.0635
 2008TIP3    H2 6031   1.253   5.427   1.586 -0.3809 -0.5934 -2.0080
 2009TIP3   OH2 6032   0.900   4.102   2.305  0.2189  0.1364 -0.1090
 2009TIP3    H1 6033   0.907   4.048   2.227 -0.9746  3.4791 -2.7639
 2009TIP3    H2 6034   0.985   4.146   2.311 -0.6053  2.0408 -1.3884
 2010TIP3   OH2 6035   1.561   1.838   4.753 -0.3434  0.2146 -0.3319
 2010TIP3    H1 6036   1.621   1.764   4.758 -0.3320  0.2418  0.0021
 2010TIP3    H2 6037   1.617   1.915   4.748 -0.3566  0.1902 -0.8729
 2011TIP3   OH2 6038   2.198   5.030   4.184 -0.1687  0.4529 -0.5428
 2011TIP3    H1 6039   2.220   5.025   4.091  0.0380 -2.3447 -0.4270
 2011TIP3    H2 6040   2.282   5.048   4.227 -0.4481  2.9684 -0.8843
 2012TIP3   OH2 6041   3.835   5.138   4.679  0.0938  0.3415 -0.1831
 2012TIP3    H1 6042   3.834   5.045   4.658 -0.1573  0.3491 -0.2121
 2012TIP3    H2 6043   3.745   5.167   4.663  0.2678  0.6779 -0.5860
 2013TIP3   OH2 6044   4.023   5.759   3.576  0.2959 -0.3081  0.1995
 2013TIP3    H1 6045   4.076   5.822   3.625  2.4780 -0.9100 -1.2316
 2013TIP3    H2 6046   4.041   5.675   3.617 -0.7214 -0.3579  0.5836
 2014TIP3   OH2 6047   3.471   0.104   0.955  1.0951 -0.0311  0.5256
 2014TIP3    H1 6048   3.551   0.132   0.998  1.6120 -0.4910 -0.1267
 2014TIP3    H2 6049   3.459   0.167   0.883  1.1307 -0.2456  0.3311
 2015TIP3   OH2 6050   5.431   5.457   2.447  0.0484  0.5419  0.0119
 2015TIP3    H1 6051   5.489   5.513   2.394  1.1845  1.7680  2.3858
 2015TIP3    H2 6052   5.394   5.516   2.513 -3.2570 -0.4081 -0.8017
 2016TIP3   OH2 6053   3.956  -0.009   5.110 -0.3710 -0.0360 -0.5857
 2016TIP3    H1 6054   3.906   0.012   5.031  0.9741  3.1794 -0.7440
 2016TIP3    H2 6055   3.908   0.033   5.181  0.6122  0.7760 -0.3665
 2017TIP3   OH2 6056   5.019   2.836   4.550  0.3092 -0.8451  0.7610
 2017TIP3    H1 6057   5.109   2.821   4.578  0.6538  0.3501  0.3616
 2017TIP3    H2 6058   5.020   2.822   4.456 -0.2485 -2.1925  0.9347
 2018TIP3   OH2 6059   2.097   4.868   0.723 -0.2538  0.1767  0.0298
 2018TIP3    H1 6060   2.123   4.875   0.814 -1.8365  0.5699  0.4899
 2018TIP3    H2 6061   2.158   4.924   0.675  1.7334 -1.4174  0.5607
 2019TIP3   OH2 6062   2.163   1.590   1.351  0.1155 -0.0987 -0.6981
 2019TIP3    H1 6063   2.249   1.547   1.342  0.5170  0.9282 -2.0517
 2019TIP3    H2 6064   2.100   1.522   1.326  0.4534 -1.0361  0.8149
 2020TIP3   OH2 6065   1.042   5.171   4.220  0.3175  0.2689 -0.0959
 2020TIP3    H1 6066   1.036   5.185   4.125 -1.1280 -1.5938 -0.3328
 2020TIP3    H2 6067   1.061   5.078   4.230  0.7742  0.4928  1.4656
 2021TIP3   OH2 6068   3.407   1.253   2.988  0.5763  0.3487  0.0821
 2021TIP3    H1 6069   3.467   1.323   3.016 -0.1541  0.8885  0.3397
 2021TIP3    H2 6070   3.397   1.198   3.065  0.4176  0.4959  0.1677
 2022TIP3   OH2 6071   5.401   1.079   0.986 -0.2223  0.1348 -0.4455
 2022TIP3    H1 6072   5.351   1.143   1.038  0.0910  1.1049 -1.3017
 2022TIP3    H2 6073   5.478   1.127   0.957  0.1499 -0.7193 -0.9031
 2023TIP3   OH2 6074   4.143   0.045   4.685 -0.3194 -0.2115 -0.2527
 2023TIP3    H1 6075   4.188   0.096   4.618  1.1199 -1.1773 -0.0711
 2023TIP3    H2 6076   4.211   0.025   4.750 -1.7757  1.1365  1.8000
 2024TIP3   OH2 6077   2.227   4.834   1.647 -0.0098 -0.4603  0.7032
 2024TIP3    H1 6078   2.266   4.755   1.684  0.6948 -0.8857 -0.8457
 2024TIP3    H2 6079   2.299   4.896   1.641  0.0770 -0.6495 -0.5519
 2025TIP3   OH2 6080   4.784   4.849   3.751 -0.2117  0.1669  0.5985
 2025TIP3    H1 6081   4.841   4.852   3.674 -2.7810 -1.7900 -1.6200
 2025TIP3    H2 6082   4.719   4.918   3.735  0.2012  0.8899  1.9366
 2026TIP3   OH2 6083   2.663   0.706   4.090  0.7716  0.2341  0.0452
 2026TIP3    H1 6084   2.687   0.731   4.179  0.9377 -0.9254  0.3500
 2026TIP3    H2 6085   2.599   0.771   4.062  1.2028  0.9774  0.7684
 2027TIP3   OH2 6086   2.862   2.424   4.029  0.4183 -0.1491  0.2873
 2027TIP3    H1 6087   2.784   2.457   4.074 -0.1373 -2.6062  1.3012
 2027TIP3    H2 6088   2.901   2.362   4.091  1.8642 -0.7355 -1.1307
 2028TIP3   OH2 6089   3.345   2.623   5.056  0.1379  0.0559 -0.5962
 2028TIP3    H1 6090   3.432   2.613   5.017  0.8144  0.5420  0.7374
 2028TIP3    H2 6091   3.285   2.614   4.982  1.2628 -1.2694 -1.3924
 2029TIP3   OH2 6092   0.614   0.688   2.287  0.3557 -0.0502  0.2563
 2029TIP3    H1 6093   0.534   0.741   2.288 -0.2757 -0.8109 -2.3984
 2029TIP3    H2 6094   0.586   0.602   2.257  1.7285 -1.2905  2.2944
 2030TIP3   OH2 6095   3.184   0.349   4.699 -0.2842 -0.1098 -0.0509
 2030TIP3    H1 6096   3.115   0.335   4.633 -0.0653  1.8491 -0.7418
 2030TIP3    H2 6097   3.225   0.263   4.708  0.5170 -0.2417 -3.4554
 2031TIP3   OH2 6098   2.773   2.087   0.474 -0.0678  0.4555  0.8416
 2031TIP3    H1 6099   2.864   2.066   0.451  0.0466  1.3256  0.4343
 2031TIP3    H2 6100   2.731   2.105   0.390 -0.9260 -1.0277  0.9244
 2032TIP3   OH2 6101   2.509   2.459   0.822  0.1720 -0.1158  0.0306
 2032TIP3    H1 6102   2.597   2.424   0.812  1.4340  2.8597 -0.3302
 2032TIP3    H2 6103   2.493   2.456   0.917  0.4601 -1.0169  0.0673
 2033TIP3   OH2 6104   5.545   1.430   3.685  0.0706  0.4987  0.0763
 2033TIP3    H1 6105   5.464   1.463   3.647  0.3601 -0.4006 -1.3765
 2033TIP3    H2 6106   5.597   1.509   3.701 -1.9115  1.3549  3.2784
 2034TIP3   OH2 6107   1.257   3.072   3.371  0.5148  0.2829  0.2746
 2034TIP3    H1 6108   1.216   3.089   3.456 -0.4798 -0.2514 -0.0789
 2034TIP3    H2 6109   1.189   3.026   3.321  1.2973  0.0617 -0.6003
 2035TIP3   OH2 6110   1.593   2.518   1.540  0.1822  0.1345  0.1070
 2035TIP3    H1 6111   1.556   2.503   1.627 -1.3610 -1.6911 -0.7909
 2035TIP3    H2 6112   1.569   2.609   1.519  0.0172  0.3833  1.3250
 2036TIP3   OH2 6113   0.438   2.469   2.142  0.2495 -0.1110 -0.1752
 2036TIP3    H1 6114   0.517   2.488   2.092  0.3522 -1.7978 -0.7274
 2036TIP3    H2 6115   0.367   2.479   2.080  0.3361 -1.7363 -0.5786
 2037TIP3   OH2 6116   6.020   1.234   1.330 -0.4701 -0.8257 -0.5126
 2037TIP3    H1 6117   6.066   1.312   1.299 -0.4079 -0.9617 -0.7628
 2037TIP3    H2 6118   6.000   1.185   1.251 -0.9473 -0.8210 -0.3972
 2038TIP3   OH2 6119   5.839   1.192   0.207 -0.1446 -0.0527  0.1642
 2038TIP3    H1 6120   5.761   1.143   0.233 -0.5690  0.3365 -0.3814
 2038TIP3    H2 6121   5.821   1.222   0.119  0.1341  1.0479  0.4681
 2039TIP3   OH2 6122   2.798   3.314   3.418 -0.0675  0.1856  0.3212
 2039TIP3    H1 6123   2.783   3.406   3.399 -0.3880  0.7432  2.9977
 2039TIP3    H2 6124   2.727   3.289   3.476 -0.4993 -2.0428 -1.0365
 2040TIP3   OH2 6125   3.053   1.452   0.971  0.1625  0.5717  0.2942
 2040TIP3    H1 6126   3.112   1.404   0.913 -3.0230  0.8706 -3.6315
 2040TIP3    H2 6127   3.099   1.533   0.990  1.0265  0.9409 -2.8499
 2041TIP3   OH2 6128   4.122   2.202   0.604 -0.1397  0.3172 -0.2863
 2041TIP3    H1 6129   4.077   2.180   0.686  1.1104 -0.5048  0.2189
 2041TIP3    H2 6130   4.052   2.210   0.539 -1.3725  2.9631  1.2258
 2042TIP3   OH2 6131   5.517   0.291   4.515 -0.3365 -0.7020 -0.3047
 2042TIP3    H1 6132   5.494   0.381   4.537 -2.0806 -0.9446 -0.9066
 2042TIP3    H2 6133   5.536   0.294   4.421  1.3744 -0.6698  0.0218
 2043TIP3   OH2 6134   0.812   3.233  -0.011 -0.0889  0.2314 -0.9009
 2043TIP3    H1 6135   0.733   3.180  -0.001  0.9334 -1.0080  1.1509
 2043TIP3    H2 6136   0.786   3.320   0.020 -0.1465 -0.7139  1.9935
 2044TIP3   OH2 6137   0.472   5.136   3.916 -0.0589  0.1107  0.0534
 2044TIP3    H1 6138   0.408   5.085   3.966  0.7732  0.4562  1.5175
 2044TIP3    H2 6139   0.546   5.147   3.975 -0.5522  3.8398  0.2365
 2045TIP3   OH2 6140   2.999   0.136   0.710 -0.3941 -0.3251  0.1907
 2045TIP3    H1 6141   3.081   0.138   0.758 -0.4164 -3.1696  0.4980
 2045TIP3    H2 6142   2.955   0.218   0.734  0.8068 -0.3664  2.8457
 2046TIP3   OH2 6143   5.772   5.275   1.689  0.2275 -0.1888 -0.2065
 2046TIP3    H1 6144   5.727   5.289   1.606  0.0649 -0.2520 -0.1296
 2046TIP3    H2 6145   5.818   5.357   1.706 -1.3874  0.5762  0.6687
 2047TIP3   OH2 6146   6.015   5.847   0.327  0.2046 -0.2001 -0.4031
 2047TIP3    H1 6147   6.082   5.896   0.281  0.5653 -0.7089 -0.4355
 2047TIP3    H2 6148   6.019   5.759   0.288 -1.1049 -0.0010 -1.0510
 2048TIP3   OH2 6149   1.674   2.644   0.896 -0.1895 -0.0548 -0.3493
 2048TIP3    H1 6150   1.753   2.590   0.905  1.2807  1.9561 -0.4678
 2048TIP3    H2 6151   1.660   2.681   0.983  0.8191  1.9121 -0.9627
 2049TIP3   OH2 6152   4.198   3.426   3.128 -0.0473  0.5696 -0.5132
 2049TIP3    H1 6153   4.254   3.351   3.107  0.1817  0.9354 -1.2231
 2049TIP3    H2 6154   4.236   3.461   3.209  0.5338  0.5959 -0.7905
 2050TIP3   OH2 6155   0.875   3.905   2.029 -0.2678  0.2363  1.2243
 2050TIP3    H1 6156   0.945   3.899   1.965  0.1864 -1.0306  1.8109
 2050TIP3    H2 6157   0.806   3.954   1.985  0.0168 -0.6494 -0.2508
 2051TIP3   OH2 6158   0.629   2.392   3.911 -0.1891 -0.2069  0.5551
 2051TIP3    H1 6159   0.602   2.315   3.961 -2.6199  0.3879  0.2973
 2051TIP3    H2 6160   0.644   2.460   3.977  0.9387 -0.5779  0.7089
 2052TIP3   OH2 6161   0.136   4.011   5.085 -0.4060  0.0719 -0.1348
 2052TIP3    H1 6162   0.144   3.932   5.138  0.0197  0.1379 -0.0990
 2052TIP3    H2 6163   0.070   4.064   5.129  0.7230  0.6194  0.9423
 2053TIP3   OH2 6164   4.334   5.014   0.482 -0.1379 -0.7683 -0.4929
 2053TIP3    H1 6165   4.289   5.035   0.564 -1.5123  1.4069 -1.7236
 2053TIP3    H2 6166   4.275   4.952   0.438 -0.7106  0.1173 -0.9872
 2054TIP3   OH2 6167   3.121   5.763   0.069  0.6645 -0.4786 -0.5185
 2054TIP3    H1 6168   3.094   5.849   0.038 -1.6760 -1.2135 -0.6849
 2054TIP3    H2 6169   3.217   5.768   0.073  0.6071  2.0121 -0.7917
 2055TIP3   OH2 6170   1.034   1.226   4.412 -0.6663  0.4844 -0.0207
 2055TIP3    H1 6171   1.039   1.315   4.448 -0.1703  0.7235 -0.6453
 2055TIP3    H2 6172   1.099   1.177   4.462 -0.2582  0.7176 -0.3129
 2056TIP3   OH2 6173   4.353   5.344   2.648 -0.1301 -0.0458 -0.6066
 2056TIP3    H1 6174   4.355   5.288   2.571 -0.3872  1.7917 -2.0126
 2056TIP3    H2 6175   4.445   5.357   2.670  0.0926  1.3139 -2.1141
 2057TIP3   OH2 6176   0.673   4.612   0.010 -0.2493  0.0678  0.0739
 2057TIP3    H1 6177   0.758   4.570   0.007  0.3197  1.1695  0.2913
 2057TIP3    H2 6178   0.622   4.558   0.070  0.4241 -0.3517  0.2799
 2058TIP3   OH2 6179   0.743   2.872   2.787 -0.3771  0.1365 -0.0981
 2058TIP3    H1 6180   0.782   2.954   2.757 -0.5041 -0.4306 -1.9484
 2058TIP3    H2 6181   0.819   2.818   2.811 -0.2667  0.5849  0.5873
 2059TIP3   OH2 6182   5.785   5.979   1.762 -0.2503 -0.2323  0.2523
 2059TIP3    H1 6183   5.798   6.045   1.830  2.6078  0.3325 -0.7132
 2059TIP3    H2 6184   5.866   5.929   1.761 -0.1212 -0.1529 -2.7436
 2060TIP3   OH2 6185   4.024   4.960   2.157 -0.0080  0.6297  0.2755
 2060TIP3    H1 6186   3.959   4.998   2.215  0.6006 -0.0119  1.4152
 2060TIP3    H2 6187   4.104   4.955   2.210  0.3952 -0.5575 -0.4006
 2061TIP3   OH2 6188   3.619   3.971   4.677  0.3680  0.0615  0.5200
 2061TIP3    H1 6189   3.683   4.017   4.623  0.2887  0.9060  1.1358
 2061TIP3    H2 6190   3.575   4.039   4.727 -1.0424 -0.5054  0.0982
 2062TIP3   OH2 6191   2.148   1.487   3.734 -0.0028  0.3626  0.0391
 2062TIP3    H1 6192   2.169   1.397   3.707 -1.4969 -0.2842  0.8986
 2062TIP3    H2 6193   2.098   1.523   3.661 -1.6146 -0.4210  0.7090
 2063TIP3   OH2 6194   4.827   4.083   1.377  0.0238 -0.0676  0.0293
 2063TIP3    H1 6195   4.912   4.083   1.333  0.2560  1.1221  0.4349
 2063TIP3    H2 6196   4.768   4.124   1.315 -0.1828 -0.5826 -0.1169
 2064TIP3   OH2 6197   5.342   2.152   2.173 -0.6110 -0.2671 -0.2203
 2064TIP3    H1 6198   5.429   2.115   2.158 -0.4573 -0.5665  1.2298
 2064TIP3    H2 6199   5.281   2.087   2.139 -0.2835 -0.3424 -0.6669
 2065TIP3   OH2 6200   1.131   2.649   3.256  0.0314 -0.1099 -0.1838
 2065TIP3    H1 6201   1.059   2.701   3.292  0.2343  0.0283  0.0262
 2065TIP3    H2 6202   1.210   2.697   3.281  0.2550 -0.8652  0.6107
 2066TIP3   OH2 6203   1.387   1.892   3.943  0.1629  0.3675 -0.1450
 2066TIP3    H1 6204   1.408   1.799   3.948  1.0690  0.4877 -1.2821
 2066TIP3    H2 6205   1.302   1.900   3.985 -0.0830 -1.0332 -0.3381
 2067TIP3   OH2 6206   4.105   2.785   3.826  0.4414 -0.1877  0.1308
 2067TIP3    H1 6207   4.192   2.755   3.849 -0.0875 -0.6753  1.6423
 2067TIP3    H2 6208   4.069   2.715   3.770  0.9733 -0.0145 -0.4395
 2068TIP3   OH2 6209   5.272   1.025   2.149  0.0493 -0.1577  0.2505
 2068TIP3    H1 6210   5.301   1.115   2.138 -1.3281  0.2985  0.1147
 2068TIP3    H2 6211   5.351   0.976   2.173  0.7548  1.1285  0.6045
 2069TIP3   OH2 6212   5.763   0.927   3.222 -0.2124  0.4502 -0.0310
 2069TIP3    H1 6213   5.698   0.889   3.280 -0.0421 -1.2297 -0.8751
 2069TIP3    H2 6214   5.711   0.963   3.149 -0.2928  0.5764  0.0883
 2070TIP3   OH2 6215   2.397   3.226   1.378  0.7301  0.0559  0.4025
 2070TIP3    H1 6216   2.441   3.291   1.323  0.2294  0.7280  0.7746
 2070TIP3    H2 6217   2.435   3.142   1.351  0.5557  0.3671 -0.9180
 2071TIP3   OH2 6218   1.106   0.296   0.151  0.0063  0.0486 -0.1055
 2071TIP3    H1 6219   1.142   0.263   0.233 -0.6570 -1.2120 -0.2914
 2071TIP3    H2 6220   1.125   0.227   0.087 -2.3034 -0.4808 -0.2961
 2072TIP3   OH2 6221   3.728   0.115   3.085 -0.1940  0.0533 -0.1337
 2072TIP3    H1 6222   3.636   0.108   3.111 -0.5330 -1.4765 -1.5410
 2072TIP3    H2 6223   3.777   0.082   3.160 -0.8920 -0.3866  0.1459
 2073TIP3   OH2 6224   0.585   1.859   1.791 -0.2538  0.5492 -0.3717
 2073TIP3    H1 6225   0.507   1.885   1.741 -1.0756 -1.1534 -0.0583
 2073TIP3    H2 6226   0.657   1.863   1.728 -0.4641  2.5828 -0.5577
 2074TIP3   OH2 6227   5.966   2.979   1.566  0.5052 -0.8752  0.3127
 2074TIP3    H1 6228   5.917   3.061   1.564 -1.3648 -1.9286 -0.0258
 2074TIP3    H2 6229   5.955   2.941   1.479 -0.6852 -2.5537  1.1294
 2075TIP3   OH2 6230   0.203   2.342   1.681 -0.6508 -0.8211 -0.6214
 2075TIP3    H1 6231   0.193   2.255   1.643  0.0143 -0.5969 -1.3455
 2075TIP3    H2 6232   0.265   2.331   1.753 -2.5337 -1.3981  0.9860
 2076TIP3   OH2 6233   3.100   2.653   0.949 -0.0918 -0.2365  0.0785
 2076TIP3    H1 6234   3.059   2.725   0.900 -0.5779 -0.4960  0.0957
 2076TIP3    H2 6235   3.087   2.678   1.041  0.1409 -0.1253  0.0813
 2077TIP3   OH2 6236   2.573   5.129   0.868  0.0182 -0.5941  0.2096
 2077TIP3    H1 6237   2.578   5.047   0.819 -0.5780 -0.8089  0.4832
 2077TIP3    H2 6238   2.522   5.188   0.812 -0.0399 -0.6021  0.2534
 2078TIP3   OH2 6239   3.305   3.686   0.775  0.2111 -0.2106 -0.3015
 2078TIP3    H1 6240   3.320   3.667   0.682  0.2852 -0.1696 -0.2975
 2078TIP3    H2 6241   3.345   3.612   0.821 -0.9975 -0.9383 -0.3515
 2079TIP3   OH2 6242   0.824   0.938   3.228  0.2691  0.1657 -0.0978
 2079TIP3    H1 6243   0.825   0.845   3.205  1.4042 -0.3521  1.8410
 2079TIP3    H2 6244   0.917   0.962   3.235  0.0001  1.5435 -0.7970
 2080TIP3   OH2 6245   1.620   5.306   1.132  0.4256 -0.2686  0.5046
 2080TIP3    H1 6246   1.569   5.237   1.175  0.0777  0.2274  0.8937
 2080TIP3    H2 6247   1.671   5.260   1.065 -0.0671 -0.8553  0.5290
 2081TIP3   OH2 6248   1.944   2.898   3.444  0.4117  0.1446  0.2869
 2081TIP3    H1 6249   1.890   2.894   3.522  2.4336  1.8390  1.8904
 2081TIP3    H2 6250   1.882   2.905   3.372 -1.4966  1.2245  1.9512
 2082TIP3   OH2 6251   6.308   2.172   4.153  0.1557  0.2531 -0.6006
 2082TIP3    H1 6252   6.321   2.260   4.119  0.1253  0.2302 -0.6732
 2082TIP3    H2 6253   6.364   2.117   4.097  1.2098  0.3878  0.2844
 2083TIP3   OH2 6254   4.987   4.487   1.244 -0.7433  0.0870  0.2152
 2083TIP3    H1 6255   5.014   4.401   1.211  1.1739  1.4230 -2.0464
 2083TIP3    H2 6256   4.941   4.468   1.325 -1.6943 -3.1700 -0.9233
 2084TIP3   OH2 6257   2.664   0.974   0.168 -0.4396 -0.4764  0.2263
 2084TIP3    H1 6258   2.571   0.989   0.151 -0.0665  4.2417  0.9877
 2084TIP3    H2 6259   2.708   1.000   0.087  0.3248  0.5195  0.9361
 2085TIP3   OH2 6260   3.754   1.025   4.886 -0.0306  0.3536  0.0934
 2085TIP3    H1 6261   3.736   0.990   4.799 -0.6699 -2.6273  1.3309
 2085TIP3    H2 6262   3.843   0.994   4.906 -0.6651 -0.7828  1.2751
 2086TIP3   OH2 6263   0.757   3.794   0.522 -0.1456 -0.3813 -0.7087
 2086TIP3    H1 6264   0.683   3.823   0.576 -0.8961  0.3159 -2.0223
 2086TIP3    H2 6265   0.834   3.835   0.561  0.0231 -3.1748  2.2444
 2087TIP3   OH2 6266   2.645   3.156   3.616  0.0645  0.0514 -0.5242
 2087TIP3    H1 6267   2.602   3.124   3.695 -1.3696  1.6934 -0.5966
 2087TIP3    H2 6268   2.625   3.089   3.550 -0.0931 -0.5376  0.1076
 2088TIP3   OH2 6269   4.114   5.287   0.998  0.3484  0.0075  0.3390
 2088TIP3    H1 6270   4.050   5.276   1.069 -0.5771 -2.2361 -0.7684
 2088TIP3    H2 6271   4.070   5.347   0.936 -0.5481 -1.1604 -0.1970
 2089TIP3   OH2 6272   1.568   0.052   4.917  0.4562 -0.4954 -0.0180
 2089TIP3    H1 6273   1.531  -0.036   4.913  2.1499 -1.3705  1.8122
 2089TIP3    H2 6274   1.662   0.040   4.899  0.8774  0.7827  1.1406
 2090TIP3   OH2 6275   2.518   0.896   3.986  0.3537  0.7269 -0.1233
 2090TIP3    H1 6276   2.477   0.950   4.054 -0.3886 -0.1130  0.1115
 2090TIP3    H2 6277   2.550   0.959   3.921 -1.5240  1.4178 -0.4422
 2091TIP3   OH2 6278   2.801   4.242   4.150 -0.3268  0.1438  0.3678
 2091TIP3    H1 6279   2.839   4.208   4.231  0.5058 -0.4511 -0.2460
 2091TIP3    H2 6280   2.837   4.185   4.082 -0.5599  0.9797 -0.4751
 2092TIP3   OH2 6281   0.815   4.153   4.420 -0.0203 -0.1381  0.5727
 2092TIP3    H1 6282   0.824   4.196   4.335  2.4524 -0.4431  0.5942
 2092TIP3    H2 6283   0.874   4.078   4.416 -0.9485 -0.9978  2.0639
 2093TIP3   OH2 6284   0.033   5.538   2.690 -0.5424 -0.6579  0.2122
 2093TIP3    H1 6285  -0.041   5.597   2.682  0.5206  0.9124  1.2837
 2093TIP3    H2 6286   0.110   5.595   2.687  0.5174 -1.9019  1.8130
 2094TIP3   OH2 6287   4.483   5.710   2.995 -0.0597  0.1860 -0.3827
 2094TIP3    H1 6288   4.439   5.625   2.995 -0.8202  0.5626 -1.3169
 2094TIP3    H2 6289   4.457   5.750   2.912 -1.1587  2.0841  0.8080
 2095TIP3   OH2 6290   4.112   3.737   1.611  0.2692 -0.4730 -0.3092
 2095TIP3    H1 6291   4.063   3.774   1.684  1.6394 -0.9970  0.9119
 2095TIP3    H2 6292   4.062   3.658   1.587  0.3426 -0.8459  0.7247
 2096TIP3   OH2 6293   1.035   5.137   3.934  0.4840 -0.6418 -0.1743
 2096TIP3    H1 6294   1.025   5.046   3.904 -0.6220 -0.6402  0.1159
 2096TIP3    H2 6295   1.016   5.190   3.857 -0.8452 -0.6551  0.1120
 2097TIP3   OH2 6296   1.235   5.042   1.382 -0.1180 -0.3414 -0.2112
 2097TIP3    H1 6297   1.195   5.033   1.469  1.0140  1.1382  0.5130
 2097TIP3    H2 6298   1.181   5.108   1.338  0.6008  0.5922  0.2445
 2098TIP3   OH2 6299   3.138   3.377   3.364 -0.0668  0.1682  0.3555
 2098TIP3    H1 6300   3.070   3.358   3.429 -0.5944 -1.1431 -0.5397
 2098TIP3    H2 6301   3.214   3.328   3.395  1.1902  3.1064  2.3936
 2099TIP3   OH2 6302   0.660   4.644   3.403 -0.4101 -0.1813 -0.2750
 2099TIP3    H1 6303   0.594   4.703   3.439  0.1026  0.7033 -0.7291
 2099TIP3    H2 6304   0.645   4.646   3.308  0.7800  0.6985 -0.4660
 2100TIP3   OH2 6305   1.964   1.690   3.854  0.5702 -0.1374  0.4592
 2100TIP3    H1 6306   2.050   1.658   3.824 -0.3384 -0.3226 -2.2569
 2100TIP3    H2 6307   1.901   1.632   3.812 -0.9451  1.0189  1.0391
 2101TIP3   OH2 6308   4.605   3.883   1.298 -0.6198  0.6758  0.3540
 2101TIP3    H1 6309   4.537   3.847   1.241  0.9646 -0.4892 -0.9093
 2101TIP3    H2 6310   4.688   3.858   1.255  0.6455  0.3229  2.8024
 2102TIP3   OH2 6311   0.348   2.026   4.338 -0.1678  0.2368 -0.1151
 2102TIP3    H1 6312   0.369   2.077   4.416 -2.4086 -0.2501  0.8768
 2102TIP3    H2 6313   0.330   2.091   4.270 -0.3023  0.7106  0.3694
 2103TIP3   OH2 6314   6.290   4.157   1.404 -0.1240 -0.3024  0.4328
 2103TIP3    H1 6315   6.376   4.157   1.362  0.7150  1.2588  2.0170
 2103TIP3    H2 6316   6.242   4.086   1.361  1.8032 -0.9492 -0.7706
 2104TIP3   OH2 6317   2.704   5.635   3.700  0.2181  0.1172 -0.6291
 2104TIP3    H1 6318   2.617   5.652   3.738 -0.1453 -2.6200 -0.0439
 2104TIP3    H2 6319   2.691   5.648   3.606 -1.0472 -0.9251 -0.6308
 2105TIP3   OH2 6320   4.246   0.520   0.897 -0.2465 -0.3624 -0.1308
 2105TIP3    H1 6321   4.185   0.557   0.833 -1.3892 -1.3483  0.3444
 2105TIP3    H2 6322   4.261   0.431   0.867 -0.1209 -0.5612  0.5033
 2106TIP3   OH2 6323   2.209   0.241   4.826 -0.3892  0.0608 -0.2474
 2106TIP3    H1 6324   2.227   0.335   4.816  0.3975 -0.1678 -1.1891
 2106TIP3    H2 6325   2.287   0.199   4.790 -0.2707 -0.9583  1.1315
 2107TIP3   OH2 6326   1.361   1.136   1.905  1.0985 -0.0798 -0.0373
 2107TIP3    H1 6327   1.317   1.053   1.925  1.6535 -0.6950 -1.2941
 2107TIP3    H2 6328   1.379   1.175   1.991 -0.8844 -0.3304  0.5454
 2108TIP3   OH2 6329   4.756   4.293   3.922 -0.5670  0.2339 -0.4084
 2108TIP3    H1 6330   4.760   4.233   3.848 -0.9845 -0.2647 -0.0341
 2108TIP3    H2 6331   4.826   4.356   3.906  0.3918 -0.8073 -0.4102
 2109TIP3   OH2 6332   0.592   4.517   2.968  0.6844 -0.0536 -0.2280
 2109TIP3    H1 6333   0.561   4.428   2.952  0.1715  0.2907 -1.2090
 2109TIP3    H2 6334   0.550   4.542   3.051 -1.0593  0.0968 -1.1177
 2110TIP3   OH2 6335   0.791   3.542   3.735 -0.7594 -0.0362  0.1650
 2110TIP3    H1 6336   0.788   3.470   3.673  2.6143 -1.7990  1.7925
 2110TIP3    H2 6337   0.700   3.553   3.764 -1.4458 -3.5612 -0.2308
 2111TIP3   OH2 6338   5.984   4.731   2.677  0.0748  0.5893 -0.5215
 2111TIP3    H1 6339   6.037   4.792   2.728  0.3445  0.5564 -0.7563
 2111TIP3    H2 6340   5.917   4.701   2.738 -0.2580  1.3581 -0.4990
 2112TIP3   OH2 6341   1.775   4.815   4.312 -0.3032  0.4546 -0.2831
 2112TIP3    H1 6342   1.847   4.877   4.304  0.0313 -0.0295 -1.2502
 2112TIP3    H2 6343   1.735   4.834   4.397  0.7362  0.9659  0.1028
 2113TIP3   OH2 6344   5.875   3.228   1.080 -0.0297 -0.3385  0.0699
 2113TIP3    H1 6345   5.791   3.205   1.119  0.0703  0.5450  0.8502
 2113TIP3    H2 6346   5.939   3.208   1.148  0.0680  2.1086  0.8166
 2114TIP3   OH2 6347   2.998   5.108   0.252  0.5063 -0.1411 -0.6146
 2114TIP3    H1 6348   3.091   5.128   0.244  0.2013  1.4430 -0.7472
 2114TIP3    H2 6349   2.985   5.029   0.200  1.5622  0.3982 -1.7606
 2115TIP3   OH2 6350   0.679   0.358   1.486 -0.4489 -0.2079 -0.0592
 2115TIP3    H1 6351   0.609   0.410   1.525 -1.0166  0.1951 -1.5215
 2115TIP3    H2 6352   0.758   0.382   1.534 -1.1151  0.1912  0.8596
 2116TIP3   OH2 6353   2.575   2.928   3.452 -0.2662 -0.7670  0.1286
 2116TIP3    H1 6354   2.533   2.867   3.514  0.4543  1.4864  3.0707
 2116TIP3    H2 6355   2.666   2.899   3.448 -0.9713 -3.2312 -3.1487
 2117TIP3   OH2 6356   1.714   3.049   4.307  0.0534  0.6282  0.0946
 2117TIP3    H1 6357   1.778   2.979   4.297  0.3638  0.7675  0.9963
 2117TIP3    H2 6358   1.751   3.106   4.375 -2.2489 -0.7312  2.6960
 2118TIP3   OH2 6359   6.195   2.577   4.401 -0.0142 -0.6715  0.2595
 2118TIP3    H1 6360   6.190   2.499   4.457 -2.1199 -0.4969  0.4020
 2118TIP3    H2 6361   6.110   2.620   4.412  0.9216  1.4157 -0.1860
 2119TIP3   OH2 6362   0.125   1.714   2.562  0.3811  0.2799  0.3377
 2119TIP3    H1 6363   0.063   1.724   2.490 -0.1592  1.2798  0.9203
 2119TIP3    H2 6364   0.111   1.625   2.594 -1.2651  0.7118  0.9041
 2120TIP3   OH2 6365   2.643   4.983   0.652  0.4870  0.6322  0.1845
 2120TIP3    H1 6366   2.738   4.986   0.638  0.4488 -1.2710 -0.7154
 2120TIP3    H2 6367   2.606   5.006   0.567  0.1669 -0.2989  0.0638
 2121TIP3   OH2 6368   5.090   2.581   0.235 -0.2194 -0.4399 -1.0085
 2121TIP3    H1 6369   5.012   2.543   0.276 -0.0613  0.1731 -0.0851
 2121TIP3    H2 6370   5.058   2.617   0.152 -1.0834  0.3703 -0.3592
 2122TIP3   OH2 6371   4.153   5.084   1.469 -0.0132 -1.0409  0.2221
 2122TIP3    H1 6372   4.241   5.090   1.505 -0.2038  0.0720  0.5585
 2122TIP3    H2 6373   4.165   5.050   1.381  1.4079  3.6606 -1.7463
 2123TIP3   OH2 6374   4.846   2.200   4.759 -0.7728  0.1451  0.3660
 2123TIP3    H1 6375   4.773   2.256   4.787 -0.2484  0.6439  0.7680
 2123TIP3    H2 6376   4.923   2.240   4.799 -0.1411  0.1957 -0.8459
 2124TIP3   OH2 6377   1.677   3.471   4.860 -0.1336 -0.3042  0.5822
 2124TIP3    H1 6378   1.674   3.459   4.955 -1.3306  2.5578  1.0077
 2124TIP3    H2 6379   1.728   3.551   4.847  0.6697 -1.0478 -1.2763
 2125TIP3   OH2 6380   0.480   4.723   1.370  0.2749 -0.1946 -0.6098
 2125TIP3    H1 6381   0.470   4.805   1.322  0.7133  0.0505 -0.2950
 2125TIP3    H2 6382   0.434   4.739   1.453  0.2686 -0.3050 -0.5924
 2126TIP3   OH2 6383   4.287   4.309   4.019  0.6955  0.7202  0.3376
 2126TIP3    H1 6384   4.359   4.280   4.075 -0.0701 -2.1863 -0.0412
 2126TIP3    H2 6385   4.328   4.322   3.933  0.9519  0.1131  0.3652
 2127TIP3   OH2 6386   2.951   5.328   1.639  0.3275 -0.1217  0.7604
 2127TIP3    H1 6387   2.930   5.349   1.730 -0.3406  0.2741  0.5253
 2127TIP3    H2 6388   3.046   5.322   1.637  0.3035 -0.9604  1.6572
 2128TIP3   OH2 6389   5.371   0.794   4.675 -0.6695  0.1367  0.2101
 2128TIP3    H1 6390   5.421   0.825   4.751  0.0211  0.9821 -0.5641
 2128TIP3    H2 6391   5.282   0.824   4.692 -0.0936  2.3476 -0.3399
 2129TIP3   OH2 6392   0.351   3.399   1.623  0.4075 -0.0829  0.0454
 2129TIP3    H1 6393   0.418   3.339   1.656  0.9089 -0.7320 -2.0076
 2129TIP3    H2 6394   0.270   3.349   1.627  0.3097  0.1547  1.0956
 2130TIP3   OH2 6395   4.231   3.295   1.261 -0.6625 -0.0832  0.2744
 2130TIP3    H1 6396   4.184   3.322   1.182 -1.9390 -3.1589 -0.1481
 2130TIP3    H2 6397   4.323   3.300   1.237 -0.9380  0.9889 -0.6651
 2131TIP3   OH2 6398   4.931   5.118   0.106 -0.1009 -0.1904  0.1090
 2131TIP3    H1 6399   4.873   5.041   0.102 -0.7650  0.1793  1.8732
 2131TIP3    H2 6400   4.940   5.136   0.199  1.3458  0.9285 -0.2241
 2132TIP3   OH2 6401   3.625   3.768   2.783 -0.1898 -0.0101 -0.4096
 2132TIP3    H1 6402   3.531   3.754   2.796  0.0600 -1.1115  0.3946
 2132TIP3    H2 6403   3.652   3.696   2.727  0.6516 -1.3375  1.6034
 2133TIP3   OH2 6404   6.168   3.486   1.853 -0.1030 -0.0058 -0.2015
 2133TIP3    H1 6405   6.075   3.506   1.842 -0.1003  1.0268  1.3663
 2133TIP3    H2 6406   6.171   3.392   1.867 -0.6580 -0.4185 -2.4559
 2134TIP3   OH2 6407   5.766   4.276   0.018 -0.1835  0.0517 -0.0647
 2134TIP3    H1 6408   5.830   4.239   0.079  1.6657  1.5440 -1.0070
 2134TIP3    H2 6409   5.691   4.216   0.024  1.5502 -2.2234  0.5079
 2135TIP3   OH2 6410   0.919   2.687   2.486 -0.5118  0.0063 -0.2091
 2135TIP3    H1 6411   0.975   2.764   2.485 -0.3515 -0.1099 -1.6802
 2135TIP3    H2 6412   0.975   2.616   2.518 -0.2291  0.1821 -0.3210
 2136TIP3   OH2 6413   3.645   5.897   2.179 -0.4650  0.2179 -0.5539
 2136TIP3    H1 6414   3.698   5.893   2.258  0.3720 -0.6530 -1.1300
 2136TIP3    H2 6415   3.673   5.977   2.135  0.5794 -0.3532 -0.9704
 2137TIP3   OH2 6416   6.048   3.226   1.808 -0.3346  0.2935  0.4360
 2137TIP3    H1 6417   6.067   3.204   1.900  0.9759 -0.6881 -0.0430
 2137TIP3    H2 6418   5.958   3.196   1.795 -0.6394  0.7014  1.4711
 2138TIP3   OH2 6419   5.509   1.154   4.313 -0.0428 -0.8212 -0.4882
 2138TIP3    H1 6420   5.483   1.078   4.365 -1.4934  0.7472  1.1891
 2138TIP3    H2 6421   5.580   1.195   4.362 -1.0372  0.3554  0.0020
 2139TIP3   OH2 6422   1.871   0.270   3.167  0.1596  0.4376 -0.1734
 2139TIP3    H1 6423   1.952   0.223   3.184  0.7304  1.4659  0.0506
 2139TIP3    H2 6424   1.900   0.359   3.144 -0.7040  0.0423 -3.2569
 2140TIP3   OH2 6425   1.518   3.786   2.475  0.0588 -0.1541 -0.4435
 2140TIP3    H1 6426   1.426   3.766   2.455 -0.5208  3.1724 -1.9135
 2140TIP3    H2 6427   1.520   3.797   2.570 -1.1672 -0.0151 -0.4108
 2141TIP3   OH2 6428   3.095   4.906   1.583  0.1580 -0.2129 -0.6406
 2141TIP3    H1 6429   3.023   4.864   1.536  0.5579 -1.1301 -0.4685
 2141TIP3    H2 6430   3.154   4.937   1.513  1.3916 -2.7080 -0.8227
 2142TIP3   OH2 6431   3.828   5.634   2.277 -0.3583 -0.0057 -0.5164
 2142TIP3    H1 6432   3.869   5.563   2.228  0.5236  0.3177 -0.2802
 2142TIP3    H2 6433   3.740   5.603   2.296 -0.4592 -0.4526 -1.6299
 2143TIP3   OH2 6434   0.439   3.183   4.095 -0.0711 -0.1636  0.5833
 2143TIP3    H1 6435   0.417   3.276   4.088  1.8960  0.2941 -0.3388
 2143TIP3    H2 6436   0.533   3.180   4.077 -0.3868 -2.5056 -1.1453
 2144TIP3   OH2 6437   3.153   5.556   4.655 -0.5210  0.0790  0.3229
 2144TIP3    H1 6438   3.066   5.590   4.673 -1.1250 -0.3879 -1.5069
 2144TIP3    H2 6439   3.172   5.585   4.565  2.0305  1.7941  1.3005
 2145TIP3   OH2 6440   4.714   0.568   0.580 -0.2841 -0.0895 -0.1864
 2145TIP3    H1 6441   4.728   0.654   0.619 -0.3568 -1.5831  3.6387
 2145TIP3    H2 6442   4.619   0.554   0.588 -0.3740 -0.2821 -1.4420
 2146TIP3   OH2 6443   6.001   3.488   2.952 -0.3098 -0.5716  0.1492
 2146TIP3    H1 6444   5.980   3.568   3.000  0.2066 -1.6211  2.2282
 2146TIP3    H2 6445   5.930   3.428   2.974  0.8218 -1.6280  0.9993
 2147TIP3   OH2 6446   0.607   4.054   1.188  0.3473 -0.2625  0.2711
 2147TIP3    H1 6447   0.635   4.121   1.125  0.4245  1.7508  2.2945
 2147TIP3    H2 6448   0.586   4.104   1.268 -0.1444 -2.6280  1.7159
 2148TIP3   OH2 6449   0.774   4.262   3.073 -0.4633 -0.7081 -0.1011
 2148TIP3    H1 6450   0.834   4.220   3.135 -1.8968 -1.7855  0.6216
 2148TIP3    H2 6451   0.817   4.344   3.049  0.9890 -1.1506  0.8648
 2149TIP3   OH2 6452   0.762   4.755   4.860  0.7557  0.3963  0.1846
 2149TIP3    H1 6453   0.808   4.681   4.821  2.4207  0.8479  1.1961
 2149TIP3    H2 6454   0.774   4.744   4.954 -0.4494  1.0323  0.4330
 2150TIP3   OH2 6455   0.835   2.135   1.831 -0.1287 -0.3096 -0.1383
 2150TIP3    H1 6456   0.897   2.072   1.793 -0.4656 -2.3074  2.3175
 2150TIP3    H2 6457   0.886   2.183   1.895 -0.7312 -0.9038  0.8151
 2151TIP3   OH2 6458   0.192   4.104   2.747 -0.2104  0.1125  0.2656
 2151TIP3    H1 6459   0.241   4.072   2.671  0.0823 -0.2573  0.6061
 2151TIP3    H2 6460   0.193   4.200   2.737  0.4389  0.1055  0.1734
 2152TIP3   OH2 6461   3.020   3.357   1.086  0.5296 -0.1371  0.1980
 2152TIP3    H1 6462   3.113   3.370   1.105  1.1468 -1.7615 -1.4402
 2152TIP3    H2 6463   3.002   3.268   1.118 -0.0299 -0.4447 -0.9371
 2153TIP3   OH2 6464   3.880   0.034   3.343 -1.0771  0.0913 -0.5402
 2153TIP3    H1 6465   3.885   0.095   3.417 -0.7737 -3.0718  2.3121
 2153TIP3    H2 6466   3.799  -0.014   3.356 -1.3458 -0.1612 -2.7180
 2154TIP3   OH2 6467   1.474   3.734   2.822  0.0723 -0.4719 -0.1820
 2154TIP3    H1 6468   1.563   3.700   2.825  0.4028  0.3711  1.4770
 2154TIP3    H2 6469   1.456   3.762   2.912 -2.3242 -1.7058 -0.1782
 2155TIP3   OH2 6470   1.161   5.208   2.142  0.1765 -0.2385 -0.5800
 2155TIP3    H1 6471   1.196   5.247   2.222  1.4547  0.0769 -1.2597
 2155TIP3    H2 6472   1.084   5.159   2.170 -0.8425  1.8523  0.4849
 2156TIP3   OH2 6473   2.223   4.726   2.253 -0.2878  0.3942  0.2165
 2156TIP3    H1 6474   2.213   4.645   2.302  0.5824  0.6081  0.7624
 2156TIP3    H2 6475   2.134   4.759   2.242 -0.4659  0.6889  2.2446
 2157TIP3   OH2 6476   3.447   1.584   3.444  0.4257 -0.1099 -0.1119
 2157TIP3    H1 6477   3.416   1.673   3.425 -0.9957 -0.3528  0.8644
 2157TIP3    H2 6478   3.530   1.577   3.398 -0.5258  0.9471 -2.1107
 2158TIP3   OH2 6479   2.734   2.725   2.603  0.3170 -0.3742  0.5336
 2158TIP3    H1 6480   2.814   2.734   2.551 -0.9530 -0.3200 -1.4849
 2158TIP3    H2 6481   2.708   2.815   2.623 -1.0053 -0.2115 -1.6826
 2159TIP3   OH2 6482   2.774   1.101   1.738 -0.2136 -0.2766  0.0278
 2159TIP3    H1 6483   2.793   1.187   1.776  1.5867 -0.4822 -0.2922
 2159TIP3    H2 6484   2.699   1.068   1.787  2.1666 -0.7092  3.7227
 2160TIP3   OH2 6485   3.866   5.326   2.133  0.2202  0.2842  0.2486
 2160TIP3    H1 6486   3.802   5.380   2.087  1.7052  0.1182 -2.1833
 2160TIP3    H2 6487   3.830   5.238   2.131 -0.3555  0.5030  0.6570
 2161TIP3   OH2 6488   1.096   4.239   1.785 -0.2259  0.0926 -0.0997
 2161TIP3    H1 6489   1.158   4.191   1.731 -1.9834 -2.3675 -0.0614
 2161TIP3    H2 6490   1.137   4.243   1.872 -0.2959 -1.9909  0.0709
 2162TIP3   OH2 6491   0.516   1.859   1.367  0.1629 -0.5665  0.8417
 2162TIP3    H1 6492   0.428   1.895   1.359  0.4712  0.0508  0.1168
 2162TIP3    H2 6493   0.507   1.767   1.344 -0.4134 -0.6864  1.4966
 2163TIP3   OH2 6494   4.954   0.402   2.305 -0.0117 -0.2921  0.7823
 2163TIP3    H1 6495   5.010   0.424   2.380  0.4470 -0.3395  0.4621
 2163TIP3    H2 6496   5.011   0.350   2.248 -0.8195 -1.6252  1.1449
 2164TIP3   OH2 6497   2.045   3.019   1.860  0.3676  0.6084  0.5155
 2164TIP3    H1 6498   2.077   2.986   1.775  1.8306  1.6949  0.6135
 2164TIP3    H2 6499   2.062   2.947   1.921  1.8320  0.8013  0.3751
 2165TIP3   OH2 6500   6.199   4.812   0.197  0.4100 -0.0578  0.4353
 2165TIP3    H1 6501   6.180   4.878   0.264 -0.0500 -2.1431  2.4513
 2165TIP3    H2 6502   6.126   4.819   0.136  0.3923  1.3074  0.5733
 2166TIP3   OH2 6503   4.137   3.538   0.156 -0.3108 -0.3173  0.3452
 2166TIP3    H1 6504   4.217   3.568   0.114 -0.2707  0.2477  0.8140
 2166TIP3    H2 6505   4.118   3.453   0.115  0.9823 -0.8545  0.8102
 2167TIP3   OH2 6506   5.651   0.653   0.049 -0.5676  0.5186 -0.2230
 2167TIP3    H1 6507   5.590   0.683  -0.019 -0.8285 -0.5784 -0.5026
 2167TIP3    H2 6508   5.610   0.574   0.084  1.1672 -0.8892 -1.1576
 2168TIP3   OH2 6509   4.539   1.128   4.259 -0.2391  0.2681 -0.6449
 2168TIP3    H1 6510   4.631   1.148   4.244 -0.2868  1.0677  0.0830
 2168TIP3    H2 6511   4.494   1.213   4.250 -0.4853  0.5269  2.2531
 2169TIP3   OH2 6512   1.276   1.317   1.743  0.0740  0.1777  0.2640
 2169TIP3    H1 6513   1.320   1.270   1.813 -1.1649 -1.5840 -0.0646
 2169TIP3    H2 6514   1.200   1.263   1.722 -0.4321  1.4411 -1.3943
 2170TIP3   OH2 6515   6.332   1.295   0.200 -0.0677 -0.0435  0.3716
 2170TIP3    H1 6516   6.257   1.264   0.150 -0.6486 -0.2218  1.3317
 2170TIP3    H2 6517   6.399   1.228   0.188 -0.2051 -0.0904 -0.1459
 2171TIP3   OH2 6518   4.691   5.491   4.935  0.3177  0.8226 -0.1355
 2171TIP3    H1 6519   4.726   5.573   4.901 -0.2471  0.7489 -0.9245
 2171TIP3    H2 6520   4.616   5.472   4.878  0.5581 -0.3305 -0.0843
 2172TIP3   OH2 6521   5.941   4.243   4.549  0.0117 -0.2682 -0.0765
 2172TIP3    H1 6522   5.870   4.288   4.503 -0.2803 -0.4573  0.1860
 2172TIP3    H2 6523   6.010   4.234   4.484 -0.4778 -0.7173 -0.5456
 2173TIP3   OH2 6524   3.178   3.997   1.297  0.3504 -0.1865  0.3399
 2173TIP3    H1 6525   3.248   4.010   1.361 -0.7357  2.2605  1.1322
 2173TIP3    H2 6526   3.212   4.035   1.216 -0.1205  1.2761  0.8022
 2174TIP3   OH2 6527   3.435   0.277   4.427 -0.5543 -0.9975 -0.2632
 2174TIP3    H1 6528   3.423   0.372   4.428 -4.1494 -1.3148  0.5443
 2174TIP3    H2 6529   3.477   0.259   4.342 -0.0311  1.2391 -0.5452
 2175TIP3   OH2 6530   4.781   4.989   5.127 -0.0699 -0.6463 -0.3378
 2175TIP3    H1 6531   4.727   4.917   5.094 -2.0630  0.7181 -0.2752
 2175TIP3    H2 6532   4.723   5.065   5.123  1.2020  0.5142  1.7477
 2176TIP3   OH2 6533   0.083   2.338   4.838 -0.1379  0.1123 -0.5112
 2176TIP3    H1 6534   0.073   2.432   4.831 -2.0723 -0.1140 -1.4022
 2176TIP3    H2 6535   0.080   2.306   4.748  2.5991 -0.6815 -0.4099
 2177TIP3   OH2 6536   0.766   5.476   0.534  0.2980  0.1127  0.2232
 2177TIP3    H1 6537   0.696   5.485   0.598 -0.0460 -1.9233  0.1770
 2177TIP3    H2 6538   0.725   5.495   0.450  0.3330  0.9950  0.3892
 2178TIP3   OH2 6539   4.091   0.218   0.935 -0.1657  0.2918 -0.1811
 2178TIP3    H1 6540   4.026   0.151   0.915 -0.5869  0.0252  1.8046
 2178TIP3    H2 6541   4.053   0.267   1.008  1.7085  0.3231  0.8293
 2179TIP3   OH2 6542   4.544   5.046   1.452 -0.1459 -0.1071 -0.3787
 2179TIP3    H1 6543   4.500   5.118   1.407 -1.0498 -0.2329  0.2917
 2179TIP3    H2 6544   4.623   5.030   1.400  0.5780  1.9975 -0.0082
 2180TIP3   OH2 6545   2.752   2.043   3.188 -0.2939 -0.5814  0.1848
 2180TIP3    H1 6546   2.806   1.964   3.187 -2.2032 -2.0095  1.2343
 2180TIP3    H2 6547   2.788   2.096   3.259  0.7671 -0.6721 -0.2686
 2181TIP3   OH2 6548   3.647   5.119   2.840 -0.0223 -0.5319 -0.1422
 2181TIP3    H1 6549   3.742   5.108   2.847 -0.2330 -2.3148  0.4723
 2181TIP3    H2 6550   3.611   5.044   2.888 -1.7464  0.1937 -0.2361
 2182TIP3   OH2 6551   4.184   2.498   1.127  0.2209 -0.2334  0.2257
 2182TIP3    H1 6552   4.201   2.566   1.192 -1.6890  0.9710 -0.4134
 2182TIP3    H2 6553   4.260   2.500   1.069  1.5935 -0.8057  1.9497
 2183TIP3   OH2 6554   3.660   1.072   1.830  0.0865 -0.0624 -0.1095
 2183TIP3    H1 6555   3.714   1.067   1.908 -1.3155  0.0238  0.9074
 2183TIP3    H2 6556   3.613   1.155   1.839 -2.1785 -1.3093  0.4321
 2184TIP3   OH2 6557   6.190   2.420   2.950  0.0472 -0.2618 -0.1393
 2184TIP3    H1 6558   6.276   2.433   2.910  0.7875 -1.1675  1.0881
 2184TIP3    H2 6559   6.199   2.339   3.000 -1.7077 -0.6824 -0.4596
 2185TIP3   OH2 6560   2.657   4.921   2.427  0.6663 -0.1099  0.7994
 2185TIP3    H1 6561   2.687   5.005   2.393  0.0535  0.6608  2.0805
 2185TIP3    H2 6562   2.721   4.897   2.493  0.3618 -0.2043  1.0642
 2186TIP3   OH2 6563   4.136   3.413   3.852  0.4127  0.2516  0.0368
 2186TIP3    H1 6564   4.124   3.489   3.909 -0.6466 -1.0124  1.5914
 2186TIP3    H2 6565   4.081   3.431   3.775 -0.6973  0.5903  0.8840
 2187TIP3   OH2 6566   6.202   4.039   4.912  0.0726  0.0136  0.4683
 2187TIP3    H1 6567   6.161   3.989   4.842  0.9932  0.3202 -0.3091
 2187TIP3    H2 6568   6.164   4.127   4.904  0.4625  0.1522  0.0948
 2188TIP3   OH2 6569   5.177   1.690   1.890  0.8483 -1.0640  0.5525
 2188TIP3    H1 6570   5.214   1.706   1.804  1.8940 -0.6656  1.0640
 2188TIP3    H2 6571   5.088   1.658   1.872  0.7051 -0.0575 -0.6356
 2189TIP3   OH2 6572   2.418   1.903   0.380 -0.1003 -0.9065  0.4573
 2189TIP3    H1 6573   2.443   1.817   0.345  1.0261  0.0864 -1.3125
 2189TIP3    H2 6574   2.485   1.922   0.446  0.5288 -0.7762 -0.1984
 2190TIP3   OH2 6575   4.860   0.863   2.181 -1.0286 -0.1931  0.2678
 2190TIP3    H1 6576   4.875   0.904   2.096  1.4544  0.0632  0.7759
 2190TIP3    H2 6577   4.772   0.826   2.174 -1.1083  0.3107 -2.2003
 2191TIP3   OH2 6578   6.109   3.830   2.253  0.4460 -0.3029  0.0453
 2191TIP3    H1 6579   6.145   3.802   2.169  3.0807 -0.2550  1.0651
 2191TIP3    H2 6580   6.072   3.750   2.290 -0.0220 -0.4929 -0.7990
 2192TIP3   OH2 6581   2.037   1.584   4.900  0.4625  0.5433  0.5504
 2192TIP3    H1 6582   2.126   1.582   4.934  1.4238  1.7186 -1.6888
 2192TIP3    H2 6583   2.034   1.513   4.836  0.0817  1.0459 -0.0070
 2193TIP3   OH2 6584   3.107   4.044   4.920 -0.0980  0.2220 -0.2300
 2193TIP3    H1 6585   3.107   4.075   5.010  0.0637 -0.9587  0.2024
 2193TIP3    H2 6586   3.107   4.123   4.866  1.7193  0.9541  0.7963
 2194TIP3   OH2 6587   5.749   3.679   3.306 -0.0474 -0.3937 -0.4464
 2194TIP3    H1 6588   5.700   3.744   3.358  1.1543  0.8594 -0.8171
 2194TIP3    H2 6589   5.682   3.618   3.276 -1.1125  0.1945  0.6126
 2195TIP3   OH2 6590   6.222   5.758   2.663 -0.1064  0.0337  0.1252
 2195TIP3    H1 6591   6.258   5.846   2.661  0.7138 -0.2832  0.3830
 2195TIP3    H2 6592   6.128   5.770   2.653  0.0951  0.8640 -0.9287
 2196TIP3   OH2 6593   5.007   0.886   2.638 -0.3316  0.1960 -0.3975
 2196TIP3    H1 6594   5.080   0.824   2.636 -0.7308 -0.3084  0.2656
 2196TIP3    H2 6595   4.934   0.840   2.596 -1.2165 -0.6050  1.8473
 2197TIP3   OH2 6596   5.189   5.001   2.398 -0.2918 -0.0285  0.4913
 2197TIP3    H1 6597   5.196   4.985   2.304 -0.4916 -1.3095  0.6765
 2197TIP3    H2 6598   5.173   5.095   2.405 -1.0807 -0.0344 -0.7998
 2198TIP3   OH2 6599   2.293   5.860   1.646  0.3273 -0.5535 -0.1929
 2198TIP3    H1 6600   2.326   5.948   1.662  2.4421 -1.1106 -1.0940
 2198TIP3    H2 6601   2.308   5.846   1.552 -0.3943 -1.6943 -0.1569
 2199TIP3   OH2 6602   1.293   1.078   3.387  0.0347  0.3844  0.5984
 2199TIP3    H1 6603   1.228   1.033   3.440 -1.4500  0.6547 -0.8995
 2199TIP3    H2 6604   1.244   1.151   3.347  1.2431  0.5770 -0.5937
 2200TIP3   OH2 6605   1.911   2.624   3.821 -0.4395  0.3708  0.1378
 2200TIP3    H1 6606   1.835   2.669   3.784 -1.5700 -0.7254  1.0382
 2200TIP3    H2 6607   1.925   2.548   3.763 -0.4824  0.1707  0.3887
 2201TIP3   OH2 6608   6.080   1.907   3.684 -0.2171  0.1571 -0.0448
 2201TIP3    H1 6609   6.057   1.904   3.591  1.0533 -1.3167 -0.3451
 2201TIP3    H2 6610   6.048   1.824   3.720 -1.3850  1.0348  1.0406
 2202TIP3   OH2 6611   6.029   4.600   2.192 -0.0705 -0.3268  0.0405
 2202TIP3    H1 6612   6.023   4.509   2.220 -0.8726 -0.3965 -0.3453
 2202TIP3    H2 6613   6.113   4.606   2.148  0.8876 -0.4029  1.7557
 2203TIP3   OH2 6614   1.815   3.796   1.669  0.1901 -0.5553  0.0595
 2203TIP3    H1 6615   1.777   3.794   1.581 -0.7949 -0.2504  0.4607
 2203TIP3    H2 6616   1.758   3.739   1.721 -1.1055  1.6497  1.1857
 2204TIP3   OH2 6617   2.268   4.735   5.048  0.4275  0.5970 -0.8036
 2204TIP3    H1 6618   2.255   4.737   5.143 -2.9188  0.0112 -1.1312
 2204TIP3    H2 6619   2.309   4.650   5.031 -0.8588 -0.2330  0.0149
 2205TIP3   OH2 6620   4.244   3.584   2.907  0.9287 -0.0771  0.1742
 2205TIP3    H1 6621   4.159   3.607   2.868  1.4448 -1.4369 -1.9168
 2205TIP3    H2 6622   4.221   3.535   2.986 -0.2096  0.5601  0.2694
 2206TIP3   OH2 6623   5.076   2.106   2.565  0.4183 -0.6925  0.5258
 2206TIP3    H1 6624   5.032   2.183   2.529  1.7913 -0.5204 -0.9148
 2206TIP3    H2 6625   5.005   2.049   2.593 -0.6809  0.2182 -0.2864
 2207TIP3   OH2 6626   3.612   1.250   0.062  0.0195 -0.1168 -0.5615
 2207TIP3    H1 6627   3.605   1.176   0.122 -1.9379  0.8814  0.5599
 2207TIP3    H2 6628   3.557   1.225  -0.013 -0.6189  0.1760 -0.1955
 2208TIP3   OH2 6629   2.249   2.234   3.116  0.6611 -0.2837 -0.1381
 2208TIP3    H1 6630   2.282   2.145   3.105  0.1497 -0.6072  0.8378
 2208TIP3    H2 6631   2.230   2.264   3.027  0.0338 -1.4556 -0.4147
 2209TIP3   OH2 6632   2.036   0.633   2.528  0.0167  0.1165 -0.3879
 2209TIP3    H1 6633   1.996   0.580   2.597  0.4031 -0.0511 -0.2919
 2209TIP3    H2 6634   2.105   0.683   2.572  0.3944 -0.1351 -0.6861
 2210TIP3   OH2 6635   1.874   0.017   3.382  0.2964 -0.0284 -0.1159
 2210TIP3    H1 6636   1.791   0.066   3.379  0.6599  0.5643 -1.3548
 2210TIP3    H2 6637   1.929   0.061   3.317  1.1872 -1.1347 -0.1265
 2211TIP3   OH2 6638   5.377   5.509   3.672  0.1440  0.3817 -0.7748
 2211TIP3    H1 6639   5.361   5.535   3.582 -1.8918 -0.4240 -0.7101
 2211TIP3    H2 6640   5.349   5.418   3.676 -0.8409  0.7140  0.8949
 2212TIP3   OH2 6641   0.467   0.605   0.059 -0.3922  0.8607 -0.0265
 2212TIP3    H1 6642   0.427   0.574  -0.022 -0.3429 -0.7156  0.5205
 2212TIP3    H2 6643   0.404   0.582   0.128  0.7050 -0.2055  0.6601
 2213TIP3   OH2 6644   4.084   5.805   2.984  0.3379  0.2534 -0.5090
 2213TIP3    H1 6645   4.134   5.791   3.064 -0.3520 -0.1951 -0.1468
 2213TIP3    H2 6646   4.112   5.736   2.925 -1.5978 -1.5597  0.5623
 2214TIP3   OH2 6647   3.037   0.484   2.445  0.1538  0.0497 -0.2370
 2214TIP3    H1 6648   3.051   0.390   2.457 -0.8154 -0.0297  0.3657
 2214TIP3    H2 6649   2.959   0.490   2.389  0.3348  0.4955 -0.4485
 2215TIP3   OH2 6650   4.281   0.872   1.310 -0.1910  0.0045 -0.0211
 2215TIP3    H1 6651   4.249   0.814   1.241 -0.0584  0.0484 -0.1210
 2215TIP3    H2 6652   4.208   0.878   1.372 -0.9392  1.2233 -0.9436
 2216TIP3   OH2 6653   6.000   4.231   1.137 -0.7319 -0.3472  0.4929
 2216TIP3    H1 6654   5.945   4.178   1.194  0.6460 -0.1079  2.1016
 2216TIP3    H2 6655   6.083   4.185   1.132 -0.4573  0.2009 -0.4610
 2217TIP3   OH2 6656   3.391   1.869   2.976 -0.2383 -0.4043  0.5844
 2217TIP3    H1 6657   3.336   1.937   2.937  1.2623  1.6316  1.8433
 2217TIP3    H2 6658   3.329   1.803   3.007 -1.8619  1.0314  0.5511
 2218TIP3   OH2 6659   0.039   4.626   3.264 -0.0115 -0.1477 -0.0681
 2218TIP3    H1 6660   0.064   4.560   3.200  1.1401 -0.3082  0.5160
 2218TIP3    H2 6661   0.076   4.594   3.347  0.0281  0.9060  0.3366
 2219TIP3   OH2 6662   1.095   3.802   3.272 -0.4079  0.1589 -0.1440
 2219TIP3    H1 6663   1.143   3.861   3.214  1.1622  0.4157  1.3177
 2219TIP3    H2 6664   1.125   3.715   3.246 -0.5867  0.1938 -0.4714
 2220TIP3   OH2 6665   6.029   0.460   4.172  0.1653  0.1133  0.2077
 2220TIP3    H1 6666   6.122   0.483   4.171  0.3796 -0.4977 -2.2516
 2220TIP3    H2 6667   6.026   0.370   4.138 -1.3518  0.4717 -0.7378
 2221TIP3   OH2 6668   5.772   3.301   4.196  0.3758  0.4203  0.3560
 2221TIP3    H1 6669   5.812   3.334   4.277 -0.4342  1.1113  0.4953
 2221TIP3    H2 6670   5.679   3.294   4.217  0.0292  1.4019 -0.7545
 2222TIP3   OH2 6671   0.351   0.006   4.824 -0.0627  0.2403  0.0727
 2222TIP3    H1 6672   0.378   0.095   4.846 -1.1675  0.8560 -0.9741
 2222TIP3    H2 6673   0.256   0.007   4.832  0.0154 -1.5388  2.4352
 2223TIP3   OH2 6674   1.281   2.762   3.660  0.5515 -0.5484  0.4291
 2223TIP3    H1 6675   1.275   2.691   3.724  1.9115  0.4416  1.7530
 2223TIP3    H2 6676   1.313   2.837   3.711 -1.7498  1.3342 -0.6981
 2224TIP3   OH2 6677   1.601   4.473   5.021  0.0338 -0.0439  0.1205
 2224TIP3    H1 6678   1.536   4.472   4.951  0.5525 -1.0244 -0.3717
 2224TIP3    H2 6679   1.556   4.436   5.097 -0.6457  1.3685  0.4361
 2225TIP3   OH2 6680   3.148   4.945   2.339  0.0644 -0.5260  0.3050
 2225TIP3    H1 6681   3.162   5.009   2.269  1.1748 -1.9239 -0.8246
 2225TIP3    H2 6682   3.215   4.965   2.404 -0.6256  0.4417  0.7374
 2226TIP3   OH2 6683   4.485   3.056   3.274  0.1730 -0.7430 -0.6701
 2226TIP3    H1 6684   4.442   3.142   3.274 -0.1090 -0.8341  1.6978
 2226TIP3    H2 6685   4.437   3.006   3.207 -1.4899  0.0976 -0.1714
 2227TIP3   OH2 6686   1.395   2.547   4.411  0.9158  0.2429 -0.3928
 2227TIP3    H1 6687   1.478   2.528   4.455 -0.2748 -0.3848  1.7407
 2227TIP3    H2 6688   1.355   2.615   4.465 -1.0680 -1.2856  0.1843
 2228TIP3   OH2 6689   5.339   2.741   3.581 -0.0730  0.3250  0.2722
 2228TIP3    H1 6690   5.346   2.650   3.554 -0.1442  0.2976  0.3444
 2228TIP3    H2 6691   5.285   2.738   3.661 -1.5860  0.5936 -0.7024
 2229TIP3   OH2 6692   5.253   0.290   1.797  0.0113  0.2259  0.1436
 2229TIP3    H1 6693   5.198   0.353   1.843  0.1462  0.2804  0.2313
 2229TIP3    H2 6694   5.253   0.213   1.854 -1.2943 -0.3764 -0.6230
 2230TIP3   OH2 6695   6.083   1.798   4.060 -0.0740  0.4186  0.0893
 2230TIP3    H1 6696   6.061   1.880   4.014  0.8909  1.1621  0.9040
 2230TIP3    H2 6697   6.177   1.804   4.076  0.2386 -1.3970 -0.8208
 2231TIP3   OH2 6698   5.471   4.611   1.538 -0.2478  0.2931  0.5853
 2231TIP3    H1 6699   5.433   4.592   1.624  1.6408 -0.6903  1.2708
 2231TIP3    H2 6700   5.398   4.604   1.477 -1.2916 -0.8100  1.8961
 2232TIP3   OH2 6701   0.287   5.309   3.034  0.2862  0.6788  0.5704
 2232TIP3    H1 6702   0.347   5.381   3.054 -0.4127  2.4651 -3.1026
 2232TIP3    H2 6703   0.205   5.335   3.075  0.5657  0.8991  1.0099
 2233TIP3   OH2 6704   5.293   3.686   0.882  0.3376  0.2285 -0.1302
 2233TIP3    H1 6705   5.318   3.752   0.947  1.1988  2.1159 -2.2368
 2233TIP3    H2 6706   5.360   3.617   0.891 -0.0551  0.0208  1.4924
 2234TIP3   OH2 6707   2.491   0.786   2.113  0.3159  0.6606  0.4792
 2234TIP3    H1 6708   2.407   0.822   2.086 -0.8106 -0.9157  1.6622
 2234TIP3    H2 6709   2.508   0.715   2.051  0.5636  0.7096  0.4909
 2235TIP3   OH2 6710   2.168   5.908   4.120  0.6859 -0.4511  0.7120
 2235TIP3    H1 6711   2.146   5.896   4.213  1.3721  0.7398  1.0391
 2235TIP3    H2 6712   2.254   5.949   4.120  1.3951 -1.8675 -0.5011
 2236TIP3   OH2 6713   3.164   0.315   2.098 -0.7792  0.2829  0.3270
 2236TIP3    H1 6714   3.216   0.260   2.157 -2.1158 -0.2093  1.0925
 2236TIP3    H2 6715   3.091   0.347   2.152 -0.0209  2.9244 -0.0469
 2237TIP3   OH2 6716   3.655   2.763   0.028 -0.0194 -0.0117  0.4884
 2237TIP3    H1 6717   3.713   2.716   0.088  1.2499 -0.1495 -0.7988
 2237TIP3    H2 6718   3.679   2.731  -0.059 -1.9573  0.0342 -0.1057
 2238TIP3   OH2 6719   1.587   4.494   1.958 -0.2835  0.0845 -0.0003
 2238TIP3    H1 6720   1.531   4.451   1.893  1.3293  0.3989 -1.6690
 2238TIP3    H2 6721   1.633   4.422   2.001  0.4390 -0.0291 -0.9340
 2239TIP3   OH2 6722   2.362   4.269   3.124 -0.0421 -0.5858 -0.3644
 2239TIP3    H1 6723   2.360   4.334   3.054 -0.5172  0.0062  0.1950
 2239TIP3    H2 6724   2.271   4.259   3.151  0.0898 -1.0906 -0.0803
 2240TIP3   OH2 6725   1.200   2.656   2.168  0.5726 -0.0560 -0.3186
 2240TIP3    H1 6726   1.128   2.713   2.143  0.2213 -0.3612 -0.0169
 2240TIP3    H2 6727   1.270   2.716   2.194 -0.1546  0.2587  1.0229
 2241TIP3   OH2 6728   3.557   1.113   0.305  0.2126 -0.9025  0.1765
 2241TIP3    H1 6729   3.480   1.064   0.333  0.2746 -0.0033  2.0451
 2241TIP3    H2 6730   3.627   1.083   0.363  0.5829  0.3439  0.3892
 2242TIP3   OH2 6731   2.070   3.939   4.818  0.0560  0.2175  0.3790
 2242TIP3    H1 6732   2.151   3.919   4.771 -0.0875 -0.0532  0.2444
 2242TIP3    H2 6733   2.077   3.888   4.899 -0.6901 -1.0815 -0.3381
 2243TIP3   OH2 6734   6.321   5.010   5.130 -0.8253  0.6928 -0.4099
 2243TIP3    H1 6735   6.310   5.091   5.081 -1.7472 -0.2272 -1.7956
 2243TIP3    H2 6736   6.293   4.941   5.070 -0.0977 -0.6631  0.7344
 2244TIP3   OH2 6737   4.044   5.319   4.529 -0.3554 -0.2008  0.0461
 2244TIP3    H1 6738   4.015   5.410   4.521  0.5779  0.0653 -0.4322
 2244TIP3    H2 6739   3.982   5.280   4.591  0.8126  1.4498  2.4010
 2245TIP3   OH2 6740   3.969   3.467   2.505  0.2681  0.4371  0.2567
 2245TIP3    H1 6741   3.903   3.448   2.572  0.9030 -0.1040  0.7565
 2245TIP3    H2 6742   4.045   3.414   2.532  1.8888  3.0656  1.2801
 2246TIP3   OH2 6743   2.846   5.561   4.399 -0.3962 -0.1346  0.2124
 2246TIP3    H1 6744   2.917   5.564   4.335  0.7115 -2.0993  1.2554
 2246TIP3    H2 6745   2.767   5.557   4.346  0.5247 -2.8955 -1.1569
 2247TIP3   OH2 6746   3.437   3.138   2.375  0.1971  0.2188 -0.1366
 2247TIP3    H1 6747   3.390   3.194   2.436 -1.4328 -1.1742 -0.0149
 2247TIP3    H2 6748   3.444   3.054   2.420 -0.9519 -0.8155 -1.7706
 2248TIP3   OH2 6749   2.712   1.827   0.597 -0.1831  0.2840  0.2287
 2248TIP3    H1 6750   2.756   1.867   0.672  0.5377 -1.0566  0.5428
 2248TIP3    H2 6751   2.778   1.826   0.528  0.0040 -0.8865  0.4113
 2249TIP3   OH2 6752   3.150   1.952   0.235 -0.1684 -0.1911 -0.0454
 2249TIP3    H1 6753   3.140   2.045   0.219 -0.4046 -0.4728 -1.6665
 2249TIP3    H2 6754   3.101   1.910   0.165 -0.1258 -1.5445  0.6950
 2250TIP3   OH2 6755   4.280   0.931   0.564  0.0174  0.4034 -0.3819
 2250TIP3    H1 6756   4.345   1.001   0.563 -0.6553  1.1532  1.7655
 2250TIP3    H2 6757   4.309   0.872   0.634 -0.9183  0.0640 -0.2625
 2251TIP3   OH2 6758   3.417   4.694   3.572  0.2767 -0.1436 -0.1776
 2251TIP3    H1 6759   3.435   4.601   3.562  1.0024 -0.1773  1.1228
 2251TIP3    H2 6760   3.453   4.716   3.658  0.0365  1.3182 -0.4200
 2252TIP3   OH2 6761   1.416   3.968   3.834  0.2938  0.2649  0.1591
 2252TIP3    H1 6762   1.371   3.955   3.751  0.3517 -1.2793  0.3545
 2252TIP3    H2 6763   1.387   3.896   3.889  1.6138  0.2719  0.8987
 2253TIP3   OH2 6764   3.534   4.667   4.611  0.2819  0.4944  0.5085
 2253TIP3    H1 6765   3.587   4.587   4.613 -0.0531  0.2802  0.8879
 2253TIP3    H2 6766   3.497   4.673   4.699  0.6230  1.2830  0.6053
 2254TIP3   OH2 6767   4.392   3.802   2.379  0.0520 -0.2525  0.2998
 2254TIP3    H1 6768   4.333   3.865   2.421 -0.1878 -0.0274 -0.3606
 2254TIP3    H2 6769   4.462   3.857   2.342 -0.2249 -0.3651 -0.3883
 2255TIP3   OH2 6770   1.705   0.542   3.543  0.0833 -0.1464 -0.3803
 2255TIP3    H1 6771   1.642   0.473   3.523 -0.9558  0.4399  0.7368
 2255TIP3    H2 6772   1.702   0.599   3.466 -0.7747 -0.1254 -0.3441
 2256TIP3   OH2 6773   4.095   0.532   3.571 -0.2362 -0.2989  0.5679
 2256TIP3    H1 6774   4.164   0.480   3.612 -0.2098 -1.0541 -0.3885
 2256TIP3    H2 6775   4.108   0.519   3.477 -1.9485 -0.8529  0.3633
 2257TIP3   OH2 6776   2.536   3.426   1.225  0.2032  0.3259 -0.0681
 2257TIP3    H1 6777   2.497   3.413   1.138  2.4227 -0.1516 -1.0561
 2257TIP3    H2 6778   2.520   3.518   1.245 -2.4487 -0.0870  0.1824
 2258TIP3   OH2 6779   4.988   0.584   2.101  0.3730  0.3311 -0.5499
 2258TIP3    H1 6780   4.904   0.584   2.057  0.4925  0.9502 -0.7982
 2258TIP3    H2 6781   4.971   0.543   2.186 -0.3976  1.2778 -0.2161
 2259TIP3   OH2 6782   1.904   0.480   3.740  0.1148  0.3363  0.2716
 2259TIP3    H1 6783   1.841   0.490   3.668 -0.9863 -0.3442  1.1075
 2259TIP3    H2 6784   1.850   0.457   3.815  1.3913 -0.3783  0.9936
 2260TIP3   OH2 6785   0.815   5.528   1.313  0.2117 -0.1331  0.4305
 2260TIP3    H1 6786   0.789   5.489   1.230 -0.2409  0.3704  0.3319
 2260TIP3    H2 6787   0.756   5.602   1.324  1.6916  1.1228  0.1351
 2261TIP3   OH2 6788   2.074   2.657   4.067  0.4411 -0.1799  0.0021
 2261TIP3    H1 6789   2.106   2.567   4.078  0.9402 -0.2659 -1.7979
 2261TIP3    H2 6790   2.006   2.649   4.000  0.1592  0.7332  0.1738
 2262TIP3   OH2 6791   5.966   2.680   4.214  0.8044 -0.1481 -0.0461
 2262TIP3    H1 6792   5.900   2.747   4.230 -0.2043 -0.9688 -0.6034
 2262TIP3    H2 6793   6.049   2.728   4.206  0.1997  0.9533  0.1282
 2263TIP3   OH2 6794   5.407   4.450   2.556 -0.2183  0.0989  0.0004
 2263TIP3    H1 6795   5.373   4.365   2.586 -1.3311 -1.0026 -3.7752
 2263TIP3    H2 6796   5.346   4.514   2.593 -1.8495 -1.1635 -0.3849
 2264TIP3   OH2 6797   0.380   4.288   2.942  0.4624 -0.1532  0.0345
 2264TIP3    H1 6798   0.296   4.306   2.899  0.3191  0.2629  0.4863
 2264TIP3    H2 6799   0.357   4.239   3.021  0.8281 -2.2479 -1.0689
 2265TIP3   OH2 6800   0.897   1.927   3.310  0.9367 -0.2690 -0.1617
 2265TIP3    H1 6801   0.873   2.017   3.330 -0.0159 -0.9971  2.4238
 2265TIP3    H2 6802   0.969   1.934   3.248  1.7082  2.2950  0.9039
 2266TIP3   OH2 6803   0.985   4.329   0.536 -0.3003  0.1396  0.7498
 2266TIP3    H1 6804   1.047   4.377   0.481 -2.1229 -0.4793 -2.0189
 2266TIP3    H2 6805   0.989   4.239   0.505 -0.7421 -0.4483  2.3008
 2267TIP3   OH2 6806   4.880   1.022   4.892 -0.1315 -0.1237  0.0088
 2267TIP3    H1 6807   4.821   0.988   4.959 -0.0759 -1.5656 -0.6202
 2267TIP3    H2 6808   4.922   1.098   4.932  0.1778 -1.1661  1.7489
 2268TIP3   OH2 6809   1.900   2.219   4.999 -0.1257  0.4494 -0.4540
 2268TIP3    H1 6810   1.874   2.178   5.082 -0.4236 -0.5468 -1.0334
 2268TIP3    H2 6811   1.994   2.231   5.007  0.7932 -4.0018 -1.7414
 2269TIP3   OH2 6812   1.467   4.709   1.053 -0.0961  0.5616  0.0607
 2269TIP3    H1 6813   1.548   4.664   1.029  0.6735  2.2198 -0.6434
 2269TIP3    H2 6814   1.441   4.668   1.135  0.9873 -0.5930 -0.1314
 2270TIP3   OH2 6815   0.231   0.124   4.228  0.6695  0.3016 -0.5439
 2270TIP3    H1 6816   0.166   0.178   4.185  0.5895  1.5218  1.0276
 2270TIP3    H2 6817   0.188   0.039   4.239 -0.8863  1.2072  0.8780
 2271TIP3   OH2 6818   3.691   0.684   2.646  0.0863 -0.3651 -0.0101
 2271TIP3    H1 6819   3.604   0.672   2.685  0.6375 -0.3944  1.2428
 2271TIP3    H2 6820   3.747   0.623   2.694  1.1934  1.0387  0.5305
 2272TIP3   OH2 6821   4.641   4.248   3.282  0.2152  0.0913 -0.2741
 2272TIP3    H1 6822   4.670   4.157   3.290  1.0485  0.4290  0.7988
 2272TIP3    H2 6823   4.716   4.294   3.246  0.1070  0.5123  0.0304
 2273TIP3   OH2 6824   1.152   4.283   2.756 -0.3473 -0.0730  0.1123
 2273TIP3    H1 6825   1.101   4.279   2.837  1.0765 -1.6061  1.0117
 2273TIP3    H2 6826   1.243   4.289   2.786  0.1712  0.0130 -1.3971
 2274TIP3   OH2 6827   3.542   3.993   3.542 -0.5019  0.0619  0.1021
 2274TIP3    H1 6828   3.509   3.979   3.454 -1.1297  0.7028  0.2293
 2274TIP3    H2 6829   3.573   3.906   3.571 -2.0080 -0.5439 -0.0410
 2275TIP3   OH2 6830   0.107   3.389   3.201  0.3070 -0.5139  0.4103
 2275TIP3    H1 6831   0.142   3.371   3.113 -2.0223 -2.6539 -0.1915
 2275TIP3    H2 6832   0.030   3.443   3.186  0.7413  0.3800  1.3080
 2276TIP3   OH2 6833   3.949   4.921   1.565  0.2496 -0.0255  0.2576
 2276TIP3    H1 6834   4.023   4.979   1.545 -0.0681  0.2438 -0.1619
 2276TIP3    H2 6835   3.968   4.842   1.515  0.5492 -0.1822  0.6174
 2277TIP3   OH2 6836   5.473   1.913   3.180 -0.0064  0.4481 -0.4250
 2277TIP3    H1 6837   5.453   1.887   3.090 -0.5664  1.3242 -0.5730
 2277TIP3    H2 6838   5.450   2.006   3.183 -0.0952  0.4040  0.6533
 2278TIP3   OH2 6839   3.836   1.627   3.760 -0.1634 -0.0966  0.4897
 2278TIP3    H1 6840   3.771   1.579   3.811 -0.6171 -0.2303 -0.1950
 2278TIP3    H2 6841   3.889   1.559   3.718 -1.4902 -0.0656 -1.3551
 2279TIP3   OH2 6842   3.527   1.143   0.888 -0.3447 -0.5434  0.3802
 2279TIP3    H1 6843   3.599   1.184   0.937 -1.5922 -0.2829  2.0856
 2279TIP3    H2 6844   3.570   1.102   0.813  1.3691  1.0382  0.4103
 2280TIP3   OH2 6845   6.245   2.934   3.204 -0.0049  0.0238  0.4812
 2280TIP3    H1 6846   6.246   2.854   3.151  0.5417  0.5925 -0.4009
 2280TIP3    H2 6847   6.283   2.908   3.288 -0.1289 -0.7099  0.3207
 2281TIP3   OH2 6848   4.362   0.854   2.648 -0.4315  0.0879 -0.2110
 2281TIP3    H1 6849   4.293   0.853   2.581  1.7409  0.3256 -2.6165
 2281TIP3    H2 6850   4.430   0.910   2.611  0.6887  0.6485  2.4934
 2282TIP3   OH2 6851   5.805   2.000   1.402 -0.1701 -0.2181 -0.5210
 2282TIP3    H1 6852   5.766   2.058   1.336  0.2763 -0.8186 -1.3366
 2282TIP3    H2 6853   5.784   1.912   1.372  0.9898 -0.5290 -0.4808
 2283TIP3   OH2 6854   1.267   4.894   2.764 -0.2358 -0.7177  0.2760
 2283TIP3    H1 6855   1.306   4.837   2.831 -0.7060 -0.5599  0.6906
 2283TIP3    H2 6856   1.311   4.978   2.774  0.4467 -1.0007 -0.3248
 2284TIP3   OH2 6857   1.545   2.845   4.686 -0.0371  0.2983  0.4173
 2284TIP3    H1 6858   1.554   2.755   4.655  2.4134 -0.2035  2.2875
 2284TIP3    H2 6859   1.489   2.838   4.764  0.6195  0.2994  0.8921
 2285TIP3   OH2 6860   3.864   1.682   4.617  0.5056  0.0086 -0.0234
 2285TIP3    H1 6861   3.875   1.649   4.528  0.1713 -0.5802  0.1468
 2285TIP3    H2 6862   3.946   1.659   4.661  1.0826  1.2003 -0.4438
 2286TIP3   OH2 6863   3.813   1.155   4.058 -0.6062  0.0703  0.2113
 2286TIP3    H1 6864   3.868   1.088   4.017  0.5871  1.2769 -0.2372
 2286TIP3    H2 6865   3.810   1.130   4.151 -1.2991 -1.3216 -0.1507
 2287TIP3   OH2 6866   0.447   3.425   0.741 -0.4605  0.6141 -0.0011
 2287TIP3    H1 6867   0.417   3.475   0.816 -2.5086  1.3174 -1.1859
 2287TIP3    H2 6868   0.531   3.464   0.717 -1.6013  2.9975 -0.3706
 2288TIP3   OH2 6869   3.961   2.199   2.737 -0.0959  0.0473  0.3284
 2288TIP3    H1 6870   4.025   2.128   2.744  1.1981  1.1548  0.1001
 2288TIP3    H2 6871   4.013   2.278   2.731 -1.5021  1.2003  2.1597
 2289TIP3   OH2 6872   2.057   5.443   4.153  0.2070 -0.3405  0.0505
 2289TIP3    H1 6873   2.137   5.399   4.122  0.1893  0.1808 -0.7721
 2289TIP3    H2 6874   2.087   5.497   4.226  0.3137 -1.3387  0.7661
 2290TIP3   OH2 6875   2.472   0.526   3.954  0.1864  0.1958  0.8193
 2290TIP3    H1 6876   2.539   0.582   3.915 -1.6220  0.7275 -1.6932
 2290TIP3    H2 6877   2.407   0.587   3.988 -0.4293 -0.3429  0.6090
 2291TIP3   OH2 6878   2.008   2.480   2.826  0.2373  0.0254 -0.0493
 2291TIP3    H1 6879   1.955   2.536   2.883  1.3062  1.7717 -0.7281
 2291TIP3    H2 6880   1.944   2.431   2.774 -0.8195  3.0917 -1.8535
 2292TIP3   OH2 6881   0.980   5.309   3.689 -0.1433  0.1781 -0.1103
 2292TIP3    H1 6882   0.996   5.395   3.730  1.8157  0.2263 -0.8937
 2292TIP3    H2 6883   0.887   5.311   3.667 -1.1969  0.4527  3.5499
 2293TIP3   OH2 6884   0.887   4.879   2.297 -0.7176 -0.0506 -0.2809
 2293TIP3    H1 6885   0.832   4.813   2.256  0.6971 -0.4957 -1.5431
 2293TIP3    H2 6886   0.975   4.861   2.265 -0.3224  2.6160 -0.9342
 2294TIP3   OH2 6887   3.619   2.044   3.334 -0.3220 -0.3413 -0.2263
 2294TIP3    H1 6888   3.707   2.011   3.319 -0.7192 -0.6074 -2.2901
 2294TIP3    H2 6889   3.577   1.978   3.388  1.5659  1.2026  3.5138
 2295TIP3   OH2 6890   5.859   2.994   3.128  0.1686 -0.2152  0.0532
 2295TIP3    H1 6891   5.785   2.993   3.189  1.2881 -0.3301  1.4800
 2295TIP3    H2 6892   5.853   2.911   3.080 -0.6172 -0.2218  0.1555
 2296TIP3   OH2 6893   1.490   1.694   4.190 -0.8439 -0.3394  0.4584
 2296TIP3    H1 6894   1.583   1.702   4.211 -0.3014 -4.0376  0.1146
 2296TIP3    H2 6895   1.487   1.684   4.095 -1.8121  1.1853  0.2861
 2297TIP3   OH2 6896   5.449   0.706   2.423 -0.3271  0.0943  0.2529
 2297TIP3    H1 6897   5.481   0.624   2.462 -0.2456 -0.4995 -0.9915
 2297TIP3    H2 6898   5.522   0.737   2.369 -1.0979 -0.1931 -1.0071
 2298TIP3   OH2 6899   1.248   5.668   0.874 -0.1883 -0.0306  0.6055
 2298TIP3    H1 6900   1.205   5.751   0.855 -0.5468  0.5231  3.4093
 2298TIP3    H2 6901   1.178   5.603   0.872 -0.0543 -0.1600 -0.7300
 2299TIP3   OH2 6902   5.086   5.792   0.985  0.1196 -0.1004 -0.2729
 2299TIP3    H1 6903   5.139   5.849   1.041 -1.1852  0.6322  0.2785
 2299TIP3    H2 6904   5.054   5.850   0.916 -0.3163 -0.4226 -0.3437
 2300TIP3   OH2 6905   3.096   4.455   0.066 -0.5202  0.3021  0.1235
 2300TIP3    H1 6906   3.043   4.499   0.133  0.2952 -1.3436  1.9423
 2300TIP3    H2 6907   3.054   4.479  -0.017  0.3096  5.0815  0.8117
 2301TIP3   OH2 6908   4.222   3.154   3.199  0.2024  0.4326 -0.1343
 2301TIP3    H1 6909   4.137   3.135   3.238  0.7036  0.3708  0.9762
 2301TIP3    H2 6910   4.244   3.076   3.149 -0.6681  0.6936 -0.9407
 2302TIP3   OH2 6911   5.131   4.453   2.933 -0.5866  0.6898 -0.3676
 2302TIP3    H1 6912   5.206   4.482   2.880  1.1473 -0.1955  1.4371
 2302TIP3    H2 6913   5.095   4.379   2.884 -0.4926  1.3215 -1.4260
 2303TIP3   OH2 6914   1.853   5.468   0.125  0.6716 -0.3394 -0.3655
 2303TIP3    H1 6915   1.769   5.459   0.170 -0.5080 -0.6066 -2.4875
 2303TIP3    H2 6916   1.918   5.434   0.187 -1.0606 -2.4383  0.4036
 2304TIP3   OH2 6917   0.107   2.228   5.078  0.4770 -0.0340 -0.0436
 2304TIP3    H1 6918   0.162   2.293   5.122 -0.3580  0.3470  0.4746
 2304TIP3    H2 6919   0.092   2.264   4.991  2.5149 -1.0041 -0.8634
 2305TIP3   OH2 6920   0.782   5.925   2.256 -0.2784 -0.2304  0.3302
 2305TIP3    H1 6921   0.709   5.867   2.235 -0.0015 -0.2236 -0.7138
 2305TIP3    H2 6922   0.839   5.873   2.313 -0.0720 -0.9735 -0.5365
 2306TIP3   OH2 6923   1.782   5.001   4.543  0.0996 -0.0296  0.3932
 2306TIP3    H1 6924   1.776   5.089   4.505  1.5514  0.9338  2.2326
 2306TIP3    H2 6925   1.876   4.982   4.545  0.0208 -0.4402  2.4959
 2307TIP3   OH2 6926   0.394   2.181   1.931  0.3067  0.0625 -0.2522
 2307TIP3    H1 6927   0.464   2.242   1.908  0.5541  0.3745  1.2552
 2307TIP3    H2 6928   0.417   2.147   2.017  0.2350 -2.3059 -1.0911
 2308TIP3   OH2 6929   4.695   0.514   1.682  0.0888  0.1913 -0.0764
 2308TIP3    H1 6930   4.664   0.602   1.658  0.3372 -0.0585 -1.4232
 2308TIP3    H2 6931   4.618   0.458   1.673  0.2002  0.0824 -0.3602
 2309TIP3   OH2 6932   5.798   5.089   5.004 -0.3843  0.2808  0.1102
 2309TIP3    H1 6933   5.881   5.108   5.047  0.7690 -0.8173 -1.4780
 2309TIP3    H2 6934   5.763   5.014   5.051 -0.7429  1.0602  1.1038
 2310TIP3   OH2 6935   2.597   2.129   0.235 -0.1804  0.4997 -0.3835
 2310TIP3    H1 6936   2.537   2.200   0.260  0.3140  0.5452  0.7515
 2310TIP3    H2 6937   2.542   2.051   0.235 -0.3146  0.5867  0.3554
 2311TIP3   OH2 6938   5.217   3.624   2.486 -0.6890 -0.6304  0.3834
 2311TIP3    H1 6939   5.137   3.671   2.507 -1.2132 -0.1956 -2.2327
 2311TIP3    H2 6940   5.275   3.690   2.448 -0.1380 -1.4390 -0.2454
 2312TIP3   OH2 6941   4.273   3.034   0.192 -0.2262  0.2473  0.1405
 2312TIP3    H1 6942   4.330   2.958   0.188 -1.4280 -0.6175 -1.7366
 2312TIP3    H2 6943   4.312   3.097   0.131  0.5921  1.0735  1.4556
 2313TIP3   OH2 6944   5.587   2.805   3.058  0.8473 -0.1428 -0.5852
 2313TIP3    H1 6945   5.614   2.733   3.114  2.0806 -0.4999 -1.5980
 2313TIP3    H2 6946   5.503   2.777   3.020  0.1088  0.0165  0.8736
 2314TIP3   OH2 6947   3.961   5.027   0.501  0.0035 -0.6715  0.0880
 2314TIP3    H1 6948   3.969   5.023   0.596 -0.2113 -0.0052  0.1409
 2314TIP3    H2 6949   4.013   4.953   0.469 -1.0914 -1.7530  0.7693
 2315TIP3   OH2 6950   4.701   0.795   0.979  0.1113 -0.3484 -0.5034
 2315TIP3    H1 6951   4.664   0.883   0.977  1.8975  0.4389 -1.4295
 2315TIP3    H2 6952   4.738   0.787   1.067 -1.6922 -0.9430  0.2426
 2316TIP3   OH2 6953   4.830   1.156   3.796 -0.4648 -0.6540 -0.5900
 2316TIP3    H1 6954   4.852   1.171   3.704 -2.1635 -0.2745 -0.9655
 2316TIP3    H2 6955   4.911   1.124   3.835  0.9756  1.4030 -1.6844
 2317TIP3   OH2 6956   3.230   5.134   1.367 -0.2744  0.0827  0.1973
 2317TIP3    H1 6957   3.149   5.126   1.316  0.2839 -1.2068 -0.5248
 2317TIP3    H2 6958   3.290   5.073   1.326  0.5858 -0.1061  1.6883
 2318TIP3   OH2 6959   0.214   4.034   3.447  0.5386  0.5170 -0.3319
 2318TIP3    H1 6960   0.213   4.039   3.352  1.3178  1.0788 -0.3220
 2318TIP3    H2 6961   0.287   3.975   3.467 -0.7088 -1.0169 -0.1084
 2319TIP3   OH2 6962   3.079   3.499   1.533 -0.3813  0.2243 -0.2848
 2319TIP3    H1 6963   2.995   3.544   1.525  0.4718  1.9221 -0.2332
 2319TIP3    H2 6964   3.098   3.500   1.627 -0.8858 -1.3274 -0.1469
 2320TIP3   OH2 6965   4.787   3.754   4.721 -0.4355  0.2340 -0.4620
 2320TIP3    H1 6966   4.749   3.762   4.634  0.9084  0.0048 -1.0961
 2320TIP3    H2 6967   4.813   3.844   4.744  2.5219 -0.1426 -1.9003
 2321TIP3   OH2 6968   0.972   3.181   1.488 -0.3954 -0.5811 -0.2675
 2321TIP3    H1 6969   1.043   3.120   1.508  1.2236  1.1743 -0.3447
 2321TIP3    H2 6970   0.915   3.176   1.565  0.4453 -1.1775  0.3437
 2322TIP3   OH2 6971   1.688   3.708   3.214  0.6919 -0.6552 -0.0790
 2322TIP3    H1 6972   1.692   3.801   3.191 -1.2945 -0.8080 -1.2367
 2322TIP3    H2 6973   1.768   3.671   3.175  0.6033  0.2533 -1.1844
 2323TIP3   OH2 6974   5.621   0.962   2.988  0.3543  0.1322  0.5396
 2323TIP3    H1 6975   5.615   0.878   2.943  1.0293  0.0731  0.5499
 2323TIP3    H2 6976   5.563   1.020   2.939  1.5386  0.2477 -0.8280
 2324TIP3   OH2 6977   2.494   5.651   1.601  0.5133  0.1391 -0.1543
 2324TIP3    H1 6978   2.524   5.562   1.618  1.0224  0.3389  0.0067
 2324TIP3    H2 6979   2.572   5.698   1.572  0.1194  0.3750 -0.8504
 2325TIP3   OH2 6980   2.149   3.400   0.625  0.1306 -0.3460 -0.3583
 2325TIP3    H1 6981   2.067   3.357   0.600 -1.2166  0.5621  2.1214
 2325TIP3    H2 6982   2.152   3.391   0.720  1.9270  1.3691 -0.1911
 2326TIP3   OH2 6983   2.219   4.626   4.740  0.0750 -0.3605 -0.1769
 2326TIP3    H1 6984   2.226   4.683   4.817 -1.3163 -1.1737  0.5985
 2326TIP3    H2 6985   2.255   4.678   4.668 -1.8893  1.8784  0.3038
 2327TIP3   OH2 6986   3.413   2.593   4.704 -0.1723  0.1188 -0.0367
 2327TIP3    H1 6987   3.471   2.622   4.633 -0.5077 -0.1387 -0.4236
 2327TIP3    H2 6988   3.469   2.592   4.782  0.7103 -1.4824 -0.6586
 2328TIP3   OH2 6989   1.071   5.867   3.866 -0.2554 -0.7512 -1.0305
 2328TIP3    H1 6990   1.107   5.932   3.805 -1.0388  0.2241 -0.4760
 2328TIP3    H2 6991   1.115   5.885   3.949 -2.0743  0.6037 -0.2832
 2329TIP3   OH2 6992   5.243   1.668   0.617  0.5171 -0.1066 -0.0020
 2329TIP3    H1 6993   5.221   1.627   0.701  1.5908  0.1257  0.4154
 2329TIP3    H2 6994   5.197   1.616   0.552 -0.4605 -0.1957  0.7465
 2330TIP3   OH2 6995   5.070   4.061   3.159  0.6166  0.6093  0.7946
 2330TIP3    H1 6996   5.081   3.984   3.215  0.5154 -0.2193 -0.2719
 2330TIP3    H2 6997   5.134   4.048   3.089  0.5806  1.4896  0.5909
 2331TIP3   OH2 6998   4.575   1.144   0.343  0.0505  0.5294 -0.5728
 2331TIP3    H1 6999   4.600   1.221   0.292  3.0181 -0.0392 -0.1416
 2331TIP3    H2 7000   4.574   1.072   0.280 -1.6518  0.6832 -0.7689
 2332TIP3   OH2 7001   1.675   1.239   2.433  0.4034  0.7474  0.0361
 2332TIP3    H1 7002   1.643   1.317   2.387 -1.8577  0.8323  1.5969
 2332TIP3    H2 7003   1.733   1.273   2.501  0.4466  0.9328 -0.0921
 2333TIP3   OH2 7004   3.916   1.261   0.048  0.2208  0.9105  0.7325
 2333TIP3    H1 7005   3.890   1.259  -0.044  3.0745 -0.5054 -0.1500
 2333TIP3    H2 7006   3.852   1.205   0.092  0.4969 -0.8092 -0.9364
 2334TIP3   OH2 7007   6.067   1.308   2.832  0.0258  0.5229 -0.1821
 2334TIP3    H1 7008   5.989   1.311   2.778 -0.4066 -2.9639  0.0652
 2334TIP3    H2 7009   6.040   1.348   2.915 -0.5391  2.0037 -1.0270
 2335TIP3   OH2 7010   4.223   0.488   2.012  0.5757 -0.2371 -0.1282
 2335TIP3    H1 7011   4.204   0.511   1.920  0.7627 -3.1360 -1.0036
 2335TIP3    H2 7012   4.150   0.431   2.037  1.9771 -1.8611  0.4810
 2336TIP3   OH2 7013   2.747   1.714   1.787  0.2077  0.1466  0.6720
 2336TIP3    H1 7014   2.710   1.642   1.837 -0.4119 -0.0025  0.0158
 2336TIP3    H2 7015   2.823   1.676   1.743 -0.7509 -0.4205 -0.5443
 2337TIP3   OH2 7016   4.940   5.760   0.561 -0.4651  0.0325  0.5210
 2337TIP3    H1 7017   4.862   5.723   0.603 -1.1453 -0.9349 -1.4446
 2337TIP3    H2 7018   4.937   5.853   0.582 -1.9574 -0.0514  0.8214
 2338TIP3   OH2 7019   0.533   5.614   1.486 -0.0710 -0.0693  0.4144
 2338TIP3    H1 7020   0.455   5.653   1.525  0.0788  0.1532  0.4897
 2338TIP3    H2 7021   0.575   5.686   1.438  1.8394  0.6955  2.9970
 2339TIP3   OH2 7022   1.451   3.705   1.283 -0.0011 -0.0071  0.0049
 2339TIP3    H1 7023   1.505   3.774   1.245  1.1662 -1.1443 -0.4949
 2339TIP3    H2 7024   1.365   3.715   1.240  0.1108  1.1638  0.0190
 2340TIP3   OH2 7025   3.689   5.266   4.017 -0.4452 -0.1386 -0.4355
 2340TIP3    H1 7026   3.724   5.233   4.100  0.7052 -0.8391 -1.1718
 2340TIP3    H2 7027   3.665   5.357   4.036  1.6439  0.3328  0.1814
 2341TIP3   OH2 7028   1.047   3.447   0.707 -0.1581  0.6197 -0.0227
 2341TIP3    H1 7029   1.004   3.379   0.655  3.2967 -0.9585 -1.1010
 2341TIP3    H2 7030   1.130   3.463   0.662  2.1789  0.6246  3.8345
 2342TIP3   OH2 7031   4.079   2.444   0.091 -0.1085 -0.3364 -0.1423
 2342TIP3    H1 7032   4.103   2.351   0.093  0.6111 -0.1474  0.0773
 2342TIP3    H2 7033   4.050   2.459   0.001  0.8845 -0.5012 -0.5064
 2343TIP3   OH2 7034   4.845   1.249   0.466  0.0835  0.3618  0.1633
 2343TIP3    H1 7035   4.842   1.247   0.370 -1.1561 -0.8013  0.1973
 2343TIP3    H2 7036   4.823   1.160   0.493  2.0078  0.2321  1.5277
 2344TIP3   OH2 7037   0.655   2.055   4.395 -0.0623  0.1208  0.0544
 2344TIP3    H1 7038   0.649   1.993   4.468  0.0293  0.5633  0.4411
 2344TIP3    H2 7039   0.696   2.005   4.325 -0.2025 -0.3287  0.2852
 2345TIP3   OH2 7040   2.787   3.088   1.334 -0.1945 -0.5673  0.0612
 2345TIP3    H1 7041   2.804   3.152   1.404  0.5287 -0.0538 -0.5616
 2345TIP3    H2 7042   2.720   3.030   1.370  0.4479 -0.5545  1.3330
 2346TIP3   OH2 7043   6.176   1.030   3.988 -0.5061  0.1139 -0.0205
 2346TIP3    H1 7044   6.251   1.079   3.956  0.2112  0.0824  1.5515
 2346TIP3    H2 7045   6.170   1.052   4.081 -1.2897 -1.3445  0.3088
 2347TIP3   OH2 7046   2.275   3.524   3.660 -0.3104 -0.8054  0.0434
 2347TIP3    H1 7047   2.328   3.469   3.718  0.7161  1.7624  1.7400
 2347TIP3    H2 7048   2.192   3.535   3.707  0.3548  0.9094  0.9017
 2348TIP3   OH2 7049   5.153   1.025   1.521  0.5566 -0.3518 -0.4945
 2348TIP3    H1 7050   5.190   0.981   1.597  0.5092 -1.2580 -0.9867
 2348TIP3    H2 7051   5.117   1.106   1.556  1.1789 -0.4145  0.3263
 2349TIP3   OH2 7052   5.676   1.412   3.016  0.1263 -0.1863  0.2985
 2349TIP3    H1 7053   5.711   1.419   2.927 -0.0132 -0.9069  0.1874
 2349TIP3    H2 7054   5.731   1.347   3.058 -0.7221 -0.9161  0.2962
 2350TIP3   OH2 7055   5.059   0.611   1.081  0.8217  0.0768 -0.6469
 2350TIP3    H1 7056   4.997   0.542   1.057  1.0172  0.0810 -1.1859
 2350TIP3    H2 7057   5.116   0.571   1.145  2.1260 -0.8917 -2.3388
 2351TIP3   OH2 7058   0.469   0.572   4.664 -0.5709 -0.4904 -0.0459
 2351TIP3    H1 7059   0.394   0.572   4.723 -1.2064  0.2161 -0.8335
 2351TIP3    H2 7060   0.490   0.665   4.652 -0.0836 -0.6526 -0.4669
 2352TIP3   OH2 7061   0.484   5.244   3.351  0.2146  0.2025 -0.8346
 2352TIP3    H1 7062   0.451   5.300   3.421  0.5390  0.3114 -0.7660
 2352TIP3    H2 7063   0.408   5.226   3.296  0.2394  1.2512 -1.2243
 2353TIP3   OH2 7064   5.818   1.268   3.193  1.0378  0.2301 -0.5742
 2353TIP3    H1 7065   5.889   1.205   3.198  0.5917 -0.3208 -1.0105
 2353TIP3    H2 7066   5.767   1.252   3.273  3.1969  2.8968  1.5359
 2354TIP3   OH2 7067   6.050   4.515   3.403 -0.2766  0.0165  0.6549
 2354TIP3    H1 7068   6.095   4.561   3.474 -0.3187  0.4218  0.4256
 2354TIP3    H2 7069   6.089   4.428   3.402  1.9199  0.9142 -0.7846
 2355TIP3   OH2 7070   4.368   2.144   1.424 -0.0591 -0.1888  0.3590
 2355TIP3    H1 7071   4.398   2.219   1.372  1.1519  0.2560  1.6385
 2355TIP3    H2 7072   4.322   2.089   1.361  0.1405  0.9940 -0.8876
 2356TIP3   OH2 7073   3.714   5.794   0.112  0.6587 -0.2994 -0.2185
 2356TIP3    H1 7074   3.700   5.756   0.199  3.9457 -1.5263 -0.0847
 2356TIP3    H2 7075   3.737   5.886   0.130  0.9774 -0.4543  0.1733
 2357TIP3   OH2 7076   1.533   5.060   2.721  1.1203  0.0336  0.5387
 2357TIP3    H1 7077   1.482   5.133   2.756 -0.5509  0.2211 -1.9760
 2357TIP3    H2 7078   1.526   4.992   2.787  0.0905  1.0952  1.5705
 2358TIP3   OH2 7079   4.923   1.793   3.644 -0.5673  0.1240  0.2942
 2358TIP3    H1 7080   4.876   1.804   3.561 -0.0044 -0.9574 -0.1999
 2358TIP3    H2 7081   4.893   1.708   3.677  0.4303 -0.2299  0.3517
 2359TIP3   OH2 7082   2.887   5.258   0.056  0.0909 -0.2414 -0.2068
 2359TIP3    H1 7083   2.882   5.201   0.132  1.2150 -0.0772  0.0103
 2359TIP3    H2 7084   2.957   5.320   0.077 -0.0543  0.2386 -1.0838
 2360TIP3   OH2 7085   6.120   2.595   1.493  0.2618  0.3012 -0.1123
 2360TIP3    H1 7086   6.182   2.523   1.500  2.6080  1.7831 -3.3344
 2360TIP3    H2 7087   6.163   2.669   1.537 -0.7074  0.5649  0.4259
 2361TIP3   OH2 7088   4.843   5.811   5.020 -0.4785 -0.1600  0.1183
 2361TIP3    H1 7089   4.796   5.797   4.938 -2.5403 -2.2093  1.5347
 2361TIP3    H2 7090   4.899   5.887   5.003 -1.9894  0.4471 -2.6617
 2362TIP3   OH2 7091   4.274   1.155   4.973  0.0390 -0.2579  1.1643
 2362TIP3    H1 7092   4.274   1.062   4.951 -0.9975 -0.3558  1.5260
 2362TIP3    H2 7093   4.215   1.162   5.048 -0.8768  0.8665  0.3754
 2363TIP3   OH2 7094   0.446   0.023   3.786  0.2110  0.0720  0.1512
 2363TIP3    H1 7095   0.509   0.035   3.715  0.1185 -2.3732 -0.4550
 2363TIP3    H2 7096   0.364   0.060   3.753  0.3149 -0.5218 -0.8111
 2364TIP3   OH2 7097   6.311   4.684   4.037 -0.4516 -0.1115 -0.0907
 2364TIP3    H1 7098   6.356   4.640   3.965 -0.7911  0.1934 -0.4916
 2364TIP3    H2 7099   6.276   4.613   4.090  1.7164 -0.4297  1.0448
 2365TIP3   OH2 7100   5.135   4.806   3.012  0.1864 -0.3169 -0.2009
 2365TIP3    H1 7101   5.150   4.728   2.959  0.7051  0.7652 -1.7123
 2365TIP3    H2 7102   5.182   4.876   2.966 -0.2519  0.8925  1.1122
 2366TIP3   OH2 7103   0.987   5.566   0.826 -0.1916  0.2669  0.4263
 2366TIP3    H1 7104   0.957   5.652   0.856 -1.1304  0.1724 -0.1757
 2366TIP3    H2 7105   0.931   5.504   0.873 -1.5828  0.1117 -1.3350
 2367TIP3   OH2 7106   0.449   2.818   0.537  0.0062 -0.0607  0.3905
 2367TIP3    H1 7107   0.460   2.894   0.480  0.2317 -1.3505 -1.3637
 2367TIP3    H2 7108   0.538   2.790   0.558 -0.0756  0.1344  1.0374
 2368TIP3   OH2 7109   1.836   1.441   0.841  0.1224 -0.0686 -0.1951
 2368TIP3    H1 7110   1.866   1.367   0.893  1.0496  0.3674 -0.1010
 2368TIP3    H2 7111   1.843   1.516   0.899 -0.0610  0.2162 -0.5408
 2369TIP3   OH2 7112   0.364   4.076   4.003 -0.1515 -0.2426 -0.5369
 2369TIP3    H1 7113   0.278   4.056   4.041  0.7802 -2.9789  0.4131
 2369TIP3    H2 7114   0.359   4.044   3.913 -0.1443 -0.3158 -0.5111
 2370TIP3   OH2 7115   0.070   4.953   4.719 -0.0774 -0.8101 -0.9641
 2370TIP3    H1 7116   0.028   4.910   4.793 -0.1721 -1.7840 -1.5622
 2370TIP3    H2 7117   0.072   5.046   4.742 -0.4462 -1.0557  0.0802
 2371TIP3   OH2 7118   3.644   1.947   2.951 -0.0416  0.0756 -0.0149
 2371TIP3    H1 7119   3.601   1.962   2.867  2.0383  0.9620 -0.9910
 2371TIP3    H2 7120   3.576   1.908   3.007 -1.9316  1.0163 -1.5634
 2372TIP3   OH2 7121   0.602   0.928   3.870  0.0703 -0.2636  0.3143
 2372TIP3    H1 7122   0.515   0.928   3.830  0.8850  0.1752 -1.5526
 2372TIP3    H2 7123   0.606   0.846   3.919 -0.4453 -1.5814 -1.7572
 2373TIP3   OH2 7124   5.513   3.014   4.104  0.0720 -0.1994  0.4436
 2373TIP3    H1 7125   5.517   3.088   4.164 -2.5194  0.1191  0.3568
 2373TIP3    H2 7126   5.484   3.053   4.021 -0.9592 -1.2281  0.2946
 2374TIP3   OH2 7127   0.327   5.389   3.573 -0.6230  0.3642 -0.2967
 2374TIP3    H1 7128   0.337   5.458   3.639  0.1613 -0.2474  0.2605
 2374TIP3    H2 7129   0.297   5.313   3.623 -0.0480 -0.0997 -0.6453
 2375TIP3   OH2 7130   6.312   5.246   0.729  0.1273  0.0423 -0.4184
 2375TIP3    H1 7131   6.315   5.153   0.706  1.9233 -0.2775  0.9113
 2375TIP3    H2 7132   6.363   5.253   0.809 -1.6591  1.8959  0.6597
 2376TIP3   OH2 7133   3.428   4.599   2.317 -0.1051 -0.1602 -0.2090
 2376TIP3    H1 7134   3.424   4.543   2.240 -0.6406 -0.5528  0.0960
 2376TIP3    H2 7135   3.516   4.636   2.315  1.1579 -2.8131  0.8186
 2377TIP3   OH2 7136   1.976   2.598   0.682 -0.1549 -0.1645  0.1100
 2377TIP3    H1 7137   1.914   2.525   0.676 -0.3257 -0.0363  0.3018
 2377TIP3    H2 7138   2.062   2.557   0.672 -0.2578 -0.3765  0.0866
 2378TIP3   OH2 7139   0.450   5.949   0.067  0.3149  0.1220  0.2131
 2378TIP3    H1 7140   0.506   5.955  -0.010  0.2523 -0.0829  0.1510
 2378TIP3    H2 7141   0.488   6.011   0.129  0.5174  0.0988  0.1125
 2379TIP3   OH2 7142   3.714   5.613   0.593 -0.4840 -0.1743  0.4820
 2379TIP3    H1 7143   3.696   5.617   0.687  1.3546  3.2830  0.8254
 2379TIP3    H2 7144   3.799   5.570   0.587 -1.1616 -1.5624  0.1957
 2380TIP3   OH2 7145   2.218   3.572   1.278  0.4533  0.0603  0.1421
 2380TIP3    H1 7146   2.151   3.555   1.211  0.8022  0.6286 -0.3619
 2380TIP3    H2 7147   2.203   3.505   1.345  0.2122 -0.6290 -0.5904
 2381TIP3   OH2 7148   5.860   0.119   2.031  0.4084  0.0813  0.3256
 2381TIP3    H1 7149   5.952   0.146   2.027  0.6803 -0.9618 -1.7458
 2381TIP3    H2 7150   5.818   0.164   1.958 -0.7932  0.6580  1.3407
 2382TIP3   OH2 7151   0.664   0.081   3.521 -0.0222  0.3633 -0.1279
 2382TIP3    H1 7152   0.748   0.096   3.478  0.2966  0.6118  0.5607
 2382TIP3    H2 7153   0.626   0.168   3.532  0.8043  0.5506  1.8326
 2383TIP3   OH2 7154   2.980   2.166   5.070  0.1083 -0.7767  0.3206
 2383TIP3    H1 7155   2.913   2.153   5.136  0.6723 -0.0608  1.0518
 2383TIP3    H2 7156   3.008   2.256   5.081 -1.2199  0.0777 -2.2632
 2384TIP3   OH2 7157   0.243   4.062   3.201 -0.3825  0.4608 -0.3585
 2384TIP3    H1 7158   0.189   4.036   3.126  0.4232  1.4955 -1.3208
 2384TIP3    H2 7159   0.332   4.039   3.176 -0.1634  0.3059  0.5271
 2385TIP3   OH2 7160   0.786   1.706   2.925  0.0238 -0.2045  0.3662
 2385TIP3    H1 7161   0.735   1.628   2.906  0.7113 -0.7306  0.6394
 2385TIP3    H2 7162   0.757   1.733   3.012  0.2791 -0.5632  0.5652
 2386TIP3   OH2 7163   4.042   0.701   0.242 -0.9116  0.6815 -0.1579
 2386TIP3    H1 7164   4.028   0.617   0.285 -0.5341  1.6457  2.0000
 2386TIP3    H2 7165   4.090   0.680   0.162 -0.0664 -1.0727  0.7632
 2387TIP3   OH2 7166   2.885   1.720   2.288  0.3258 -0.4510  0.2882
 2387TIP3    H1 7167   2.878   1.795   2.228 -1.6657  0.4806  1.5938
 2387TIP3    H2 7168   2.932   1.755   2.364 -1.1128 -0.3237  1.1427
 2388TIP3   OH2 7169   0.139   4.026   4.138 -0.1744 -0.3558 -0.4043
 2388TIP3    H1 7170   0.043   4.029   4.133 -0.3135  1.0526  1.7902
 2388TIP3    H2 7171   0.159   3.935   4.161 -1.3309  0.0677  2.7662
 2389TIP3   OH2 7172   4.398   1.594   2.709 -0.4704 -0.0293  0.1556
 2389TIP3    H1 7173   4.340   1.567   2.781  1.5935 -2.4721  1.0339
 2389TIP3    H2 7174   4.349   1.573   2.630 -1.7592  0.2922  0.8325
 2390TIP3   OH2 7175   4.509   2.303   3.748  0.5350 -0.2638 -0.0019
 2390TIP3    H1 7176   4.560   2.231   3.710  0.3010  0.2287 -1.2976
 2390TIP3    H2 7177   4.430   2.261   3.782  0.8057 -0.7410  0.0429
 2391TIP3   OH2 7178   2.243   1.018   3.581  0.0457  0.6309 -0.2321
 2391TIP3    H1 7179   2.198   1.016   3.665 -0.5032  1.2598 -0.4948
 2391TIP3    H2 7180   2.240   0.928   3.549  0.3351  0.3723  0.4555
 2392TIP3   OH2 7181   4.754   1.372   5.051  0.1693 -0.3253  0.5886
 2392TIP3    H1 7182   4.729   1.403   5.138 -0.5261 -1.9295  1.0025
 2392TIP3    H2 7183   4.680   1.317   5.023  0.9585 -0.9088 -0.4332
 2393TIP3   OH2 7184   5.903   5.346   0.052  0.4280  0.3169 -0.5430
 2393TIP3    H1 7185   5.941   5.433   0.067 -0.8518  0.9762 -0.9776
 2393TIP3    H2 7186   5.900   5.337  -0.043 -1.7502  0.8901 -0.5689
 2394TIP3   OH2 7187   6.136   2.125   1.967  0.1477 -0.2409 -0.4035
 2394TIP3    H1 7188   6.187   2.179   2.028  0.9130 -0.8122 -0.5178
 2394TIP3    H2 7189   6.202   2.084   1.911 -0.4825 -0.5805 -0.9032
 2395TIP3   OH2 7190   2.859   2.972   3.411 -0.3195  0.1694 -0.6151
 2395TIP3    H1 7191   2.938   3.020   3.434 -1.7394  1.7961  1.1946
 2395TIP3    H2 7192   2.816   3.027   3.345 -1.2105  0.6971  0.3689
 2396TIP3   OH2 7193   0.598   5.286   4.768 -0.3012 -0.0052 -0.0545
 2396TIP3    H1 7194   0.520   5.247   4.729 -0.9785  0.6200  0.6371
 2396TIP3    H2 7195   0.650   5.315   4.693 -0.7540 -0.3873 -0.5242
 2397TIP3   OH2 7196   4.348   0.852   4.647  0.2730  0.1769 -0.4838
 2397TIP3    H1 7197   4.278   0.902   4.607 -0.1953  1.4286  1.7506
 2397TIP3    H2 7198   4.411   0.837   4.576 -0.4035  2.4177 -1.6401
 2398TIP3   OH2 7199   2.692   1.556   2.442 -0.6588  0.4439  0.2780
 2398TIP3    H1 7200   2.749   1.593   2.374 -0.0132 -4.0390 -2.0364
 2398TIP3    H2 7201   2.752   1.520   2.507 -0.8182 -1.3743 -0.4908
 2399TIP3   OH2 7202   2.538   2.967   3.835 -0.2108  0.0768  0.3536
 2399TIP3    H1 7203   2.457   3.017   3.841 -0.0339  0.2676  1.4426
 2399TIP3    H2 7204   2.577   2.974   3.923  0.1620 -1.3867  0.3271
 2400TIP3   OH2 7205   0.079   1.211   1.480  0.0793 -0.3555  0.1720
 2400TIP3    H1 7206   0.114   1.246   1.562  0.5210 -0.6829  0.1302
 2400TIP3    H2 7207  -0.016   1.219   1.488  0.1640  1.0452  0.0712
 2401TIP3   OH2 7208   0.898   1.386   4.758  0.3600 -0.1952 -0.2946
 2401TIP3    H1 7209   0.827   1.398   4.694  0.8796 -2.5985 -1.4344
 2401TIP3    H2 7210   0.926   1.475   4.778 -1.4460  0.7415 -1.5572
 2402TIP3   OH2 7211   3.268   3.478   2.232  0.1574  0.5653  0.3830
 2402TIP3    H1 7212   3.314   3.558   2.257  0.7520  0.0786  0.8849
 2402TIP3    H2 7213   3.202   3.507   2.169  1.1357  1.2821 -0.3318
 2403TIP3   OH2 7214   5.736   5.213   3.247 -0.1956  0.0211 -0.5513
 2403TIP3    H1 7215   5.748   5.231   3.154  0.1239  0.6977 -0.3864
 2403TIP3    H2 7216   5.817   5.244   3.288  0.0159 -1.0209 -0.1402
 2404TIP3   OH2 7217   2.744   0.247   2.998 -0.6961  0.3852 -0.3261
 2404TIP3    H1 7218   2.728   0.308   2.925 -0.2089  0.6604 -0.2124
 2404TIP3    H2 7219   2.817   0.193   2.968  1.1163  2.0291  0.8180
 2405TIP3   OH2 7220   6.309   2.500   4.168  0.0055  0.6818  0.2386
 2405TIP3    H1 7221   6.270   2.542   4.245  2.0096  0.3435  1.4976
 2405TIP3    H2 7222   6.398   2.478   4.195  0.9407  1.0013 -2.3659
 2406TIP3   OH2 7223   3.184   3.173   0.783 -0.1049  0.3631 -0.2352
 2406TIP3    H1 7224   3.276   3.165   0.758 -0.0919 -0.0707 -0.0507
 2406TIP3    H2 7225   3.151   3.245   0.729  0.5890  1.1735  0.3876
 2407TIP3   OH2 7226   0.846   4.505   2.874 -0.1792  0.0413  0.2519
 2407TIP3    H1 7227   0.758   4.530   2.903 -0.5594 -0.1845 -0.6819
 2407TIP3    H2 7228   0.872   4.572   2.811  0.4745  0.3040  0.7857
 2408TIP3   OH2 7229   1.570   0.222   5.134 -0.5743  0.1866  0.9613
 2408TIP3    H1 7230   1.569   0.166   5.056  0.2812  1.3566  0.0841
 2408TIP3    H2 7231   1.613   0.169   5.201  0.7252 -0.0390 -0.0101
 2409TIP3   OH2 7232   4.122   4.357   0.068 -0.1472 -0.4459 -0.1321
 2409TIP3    H1 7233   4.118   4.306   0.149  1.7970 -0.7177 -0.1504
 2409TIP3    H2 7234   4.051   4.322   0.014 -2.2315  0.5176  1.8180
 2410TIP3   OH2 7235   2.788   2.655   1.045  0.4459 -0.0695  0.0201
 2410TIP3    H1 7236   2.831   2.592   1.102 -0.2910 -0.4015  0.2174
 2410TIP3    H2 7237   2.706   2.675   1.089 -0.9830 -1.6725 -1.7274
 2411TIP3   OH2 7238   5.419   2.040   4.942 -0.1710 -0.7567 -0.0729
 2411TIP3    H1 7239   5.468   1.958   4.937 -0.6743 -1.0496 -0.2808
 2411TIP3    H2 7240   5.475   2.105   4.899  0.5178 -0.8467  0.6744
 2412TIP3   OH2 7241   6.214   2.789   2.602  0.1240  0.1312 -0.3050
 2412TIP3    H1 7242   6.225   2.700   2.570  2.1576  0.7615 -1.5227
 2412TIP3    H2 7243   6.268   2.794   2.681  0.5997  0.4588 -0.6420
 2413TIP3   OH2 7244   3.844   0.875   3.238 -0.4056 -0.6555  0.7373
 2413TIP3    H1 7245   3.850   0.886   3.332  0.4920  1.8753  0.4632
 2413TIP3    H2 7246   3.776   0.936   3.211  1.2995  0.8090 -0.4916
 2414TIP3   OH2 7247   2.503   2.167   4.504 -0.3772  0.5305  0.2074
 2414TIP3    H1 7248   2.467   2.196   4.588  0.0908  1.3491  0.1363
 2414TIP3    H2 7249   2.434   2.112   4.467 -0.6429  0.2618  1.0610
 2415TIP3   OH2 7250   2.606   0.721   3.781  0.4564 -0.4661 -0.2230
 2415TIP3    H1 7251   2.672   0.756   3.721  1.3317 -0.6802  0.5912
 2415TIP3    H2 7252   2.600   0.786   3.851  0.4077 -0.8442  0.1282
 2416TIP3   OH2 7253   3.870   5.060   1.283  0.2884  0.5267  0.6051
 2416TIP3    H1 7254   3.891   5.132   1.224  0.4716 -0.3180 -0.3769
 2416TIP3    H2 7255   3.929   5.072   1.358  0.3314  1.3710  0.4403
 2417TIP3   OH2 7256   2.233   1.649   3.210 -0.2326  0.0740 -0.0432
 2417TIP3    H1 7257   2.263   1.625   3.298  0.2477  2.5777  0.5550
 2417TIP3    H2 7258   2.313   1.666   3.161 -0.5113  1.5394 -0.0456
 2418TIP3   OH2 7259   5.938   1.340   4.498  0.1387 -0.6844  0.1076
 2418TIP3    H1 7260   5.994   1.378   4.430  1.0370  0.7950  1.5909
 2418TIP3    H2 7261   5.984   1.260   4.525  0.4070 -0.6311 -0.1903
 2419TIP3   OH2 7262   6.071   5.704   4.776 -0.1868 -0.0101 -0.2004
 2419TIP3    H1 7263   6.029   5.768   4.834  0.9106 -0.8145  1.5737
 2419TIP3    H2 7264   6.086   5.751   4.694 -0.7992  1.5158  0.5318
 2420TIP3   OH2 7265   5.209   1.366   0.726 -0.1677  0.1093 -0.0109
 2420TIP3    H1 7266   5.305   1.365   0.717 -0.2829  1.6293 -2.9660
 2420TIP3    H2 7267   5.193   1.415   0.807  1.5177 -0.9796  1.0408
 2421TIP3   OH2 7268   0.927   2.238   1.437 -0.0950 -0.3523 -0.4280
 2421TIP3    H1 7269   0.922   2.327   1.472 -0.4037 -0.6239  0.2428
 2421TIP3    H2 7270   0.979   2.190   1.502 -1.2849 -1.0378  0.0487
 2422TIP3   OH2 7271   1.543   2.933   2.455  0.1149 -0.0818 -0.4744
 2422TIP3    H1 7272   1.625   2.954   2.410  1.3090 -2.2209  0.5168
 2422TIP3    H2 7273   1.528   3.007   2.514  1.6390  0.1417 -0.3103
 2423TIP3   OH2 7274   0.100   1.717   1.286  0.2669  0.1917  0.4951
 2423TIP3    H1 7275   0.125   1.638   1.239 -1.2268  0.2022 -0.3581
 2423TIP3    H2 7276   0.059   1.685   1.367 -1.7953  0.0035 -0.5746
 2424TIP3   OH2 7277   2.198   3.896   2.806  0.5002  0.3583  0.0052
 2424TIP3    H1 7278   2.194   3.936   2.892  0.9380  3.3488 -1.2657
 2424TIP3    H2 7279   2.291   3.887   2.787  0.4088 -0.3036 -0.1843
 2425TIP3   OH2 7280   0.796   1.921   4.190  0.0716  0.1793 -0.7558
 2425TIP3    H1 7281   0.788   1.883   4.103 -1.0123 -1.2528 -0.0631
 2425TIP3    H2 7282   0.877   1.884   4.225 -0.7798 -1.2682 -0.2328
 2426TIP3   OH2 7283   3.113   0.418   3.527 -0.3620  0.2007 -0.2105
 2426TIP3    H1 7284   3.152   0.436   3.613 -0.0700 -2.3600  0.2774
 2426TIP3    H2 7285   3.178   0.449   3.464  0.2989  0.3667  0.5447
 2427TIP3   OH2 7286   5.573   3.377   2.235  0.7668 -0.0622  0.0473
 2427TIP3    H1 7287   5.644   3.323   2.200  1.1664  1.2545 -1.2755
 2427TIP3    H2 7288   5.617   3.454   2.273  0.0743  0.9492 -1.1173
 2428TIP3   OH2 7289   5.013   2.131   4.156 -0.3919 -0.4311 -0.1912
 2428TIP3    H1 7290   4.945   2.072   4.189 -1.3374 -0.3869 -1.9586
 2428TIP3    H2 7291   5.044   2.177   4.234 -0.4944 -2.3445  1.0563
 2429TIP3   OH2 7292   3.855   0.686   3.607 -0.8732 -0.5629 -0.2747
 2429TIP3    H1 7293   3.943   0.654   3.587 -0.6694  0.3276 -0.8780
 2429TIP3    H2 7294   3.837   0.653   3.694 -0.1690 -1.2348 -0.3704
 2430TIP3   OH2 7295   0.243   5.148   4.353 -0.4154 -0.2115 -0.5055
 2430TIP3    H1 7296   0.295   5.129   4.431 -0.8938  0.8114  0.0848
 2430TIP3    H2 7297   0.153   5.130   4.379 -0.4071 -1.7539 -1.4546
 2431TIP3   OH2 7298   0.503   2.716   5.078  0.2225  0.0899  0.1321
 2431TIP3    H1 7299   0.418   2.701   5.035  0.3910  0.3361 -0.2928
 2431TIP3    H2 7300   0.568   2.696   5.011  0.4682  1.7336 -0.1562
 2432TIP3   OH2 7301   1.613   5.516   2.956 -0.0401 -0.4585  0.0390
 2432TIP3    H1 7302   1.547   5.584   2.939 -1.4641 -2.3311 -2.4614
 2432TIP3    H2 7303   1.688   5.541   2.902 -0.5168 -0.7958 -0.7862
 2433TIP3   OH2 7304   3.812   3.606   1.910 -0.3755  0.6434 -0.2772
 2433TIP3    H1 7305   3.771   3.576   1.992 -0.4425  0.3904 -0.4043
 2433TIP3    H2 7306   3.905   3.590   1.923 -0.3236  1.1143 -0.0327
 2434TIP3   OH2 7307   2.965   5.217   0.774 -0.2197  0.1306  0.0324
 2434TIP3    H1 7308   2.994   5.299   0.735 -0.2746  0.2186  0.1779
 2434TIP3    H2 7309   2.968   5.232   0.868 -2.3978  0.7362  0.0673
 2435TIP3   OH2 7310   3.950   3.116   1.150  0.0472 -0.3482  0.0109
 2435TIP3    H1 7311   4.010   3.055   1.107 -0.7502 -1.3602  0.2803
 2435TIP3    H2 7312   3.966   3.103   1.244  0.7185  0.7538  0.0636
 2436TIP3   OH2 7313   1.530   3.667   4.229 -0.8220  0.0145  0.0653
 2436TIP3    H1 7314   1.500   3.686   4.318  0.5519  1.1998  0.3104
 2436TIP3    H2 7315   1.617   3.629   4.240  1.1960  3.9102 -0.7988
 2437TIP3   OH2 7316   4.362   0.631   2.996 -0.4112 -0.4986  0.0197
 2437TIP3    H1 7317   4.450   0.594   3.006 -0.1298 -0.5924 -2.3037
 2437TIP3    H2 7318   4.377   0.723   2.976 -0.7156 -0.8121 -1.8553
 2438TIP3   OH2 7319   1.451   4.625   1.305 -0.4347  0.3975  0.3746
 2438TIP3    H1 7320   1.536   4.629   1.348 -0.1620  2.2206 -0.2595
 2438TIP3    H2 7321   1.387   4.640   1.375 -0.2137 -0.4090  0.7537
 2439TIP3   OH2 7322   6.148   4.086   2.003 -0.1372 -0.0791 -0.4666
 2439TIP3    H1 7323   6.220   4.146   1.986  0.1611 -0.2860  0.0491
 2439TIP3    H2 7324   6.187   4.015   2.054 -0.6960 -0.2206 -0.2252
 2440TIP3   OH2 7325   3.206   4.985   0.658  0.5851  0.4817  0.0775
 2440TIP3    H1 7326   3.141   5.048   0.688 -0.8622 -0.6521 -0.5580
 2440TIP3    H2 7327   3.229   4.935   0.736 -0.9764 -0.5366 -0.0643
 2441TIP3   OH2 7328   0.054   5.847   4.201  0.1717 -0.5722 -0.7429
 2441TIP3    H1 7329   0.102   5.926   4.175  1.5740 -0.4486  1.8053
 2441TIP3    H2 7330   0.101   5.775   4.158  0.4171 -0.1760 -1.1402
 2442TIP3   OH2 7331   4.617   0.703   1.302  0.0900 -0.3633  0.1197
 2442TIP3    H1 7332   4.667   0.693   1.383 -2.7273 -0.0413  2.0137
 2442TIP3    H2 7333   4.605   0.797   1.292  1.6902 -0.2666 -1.6152
 2443TIP3   OH2 7334   3.472   3.312   4.782 -0.3118 -0.9138  0.3716
 2443TIP3    H1 7335   3.393   3.359   4.756 -0.3268 -1.2574 -0.1998
 2443TIP3    H2 7336   3.537   3.336   4.717 -0.4415 -2.0266 -0.1872
 2444TIP3   OH2 7337   3.938   5.188   2.784 -0.1460  0.3466  0.4055
 2444TIP3    H1 7338   3.956   5.267   2.835  0.3151  0.8669 -0.5304
 2444TIP3    H2 7339   3.979   5.205   2.698  1.5782 -1.6201  0.7395
 2445TIP3   OH2 7340   4.605   4.719  -0.004 -0.2078 -0.1059  0.6662
 2445TIP3    H1 7341   4.564   4.636   0.019 -1.4240  0.4214  0.4848
 2445TIP3    H2 7342   4.644   4.751   0.078 -0.6830 -0.3306  0.9796
 2446TIP3   OH2 7343   0.289   3.744   4.698  0.2820  0.1515 -0.5705
 2446TIP3    H1 7344   0.237   3.737   4.618  3.1377  2.4244 -2.8627
 2446TIP3    H2 7345   0.359   3.680   4.687  1.2382  1.1312 -0.3829
 2447TIP3   OH2 7346   4.673   1.970   1.972  0.0464  0.3122 -0.7904
 2447TIP3    H1 7347   4.623   1.974   1.891  0.3749 -0.9455 -1.0866
 2447TIP3    H2 7348   4.630   1.902   2.023  0.1413  0.7508 -0.1178
 2448TIP3   OH2 7349   0.876   4.517   1.820 -0.2150  0.3035  0.1244
 2448TIP3    H1 7350   0.914   4.477   1.741 -1.9530  0.1148 -0.6688
 2448TIP3    H2 7351   0.919   4.603   1.826  0.9990 -0.2556 -0.1704
 2449TIP3   OH2 7352   5.555   3.525   3.193 -0.4767 -0.3874 -0.3195
 2449TIP3    H1 7353   5.463   3.551   3.204 -0.5491 -0.5954 -0.4259
 2449TIP3    H2 7354   5.551   3.435   3.161 -0.2066 -1.9293  3.4931
 2450TIP3   OH2 7355   1.207   4.586   2.124  0.5184  0.5013 -0.0140
 2450TIP3    H1 7356   1.241   4.602   2.035  3.2410 -0.7322  0.6803
 2450TIP3    H2 7357   1.188   4.673   2.159  0.3096  1.0712 -1.4730
 2451TIP3   OH2 7358   2.926   0.139   1.743 -0.6388  0.3464 -0.1939
 2451TIP3    H1 7359   3.022   0.136   1.738 -0.2578  0.8986  3.5453
 2451TIP3    H2 7360   2.903   0.058   1.790 -1.4044  2.2121  2.9526
 2452TIP3   OH2 7361   5.555   1.387   2.344  0.0399 -0.7769  0.2799
 2452TIP3    H1 7362   5.491   1.408   2.412 -0.6098  0.5311 -0.6732
 2452TIP3    H2 7363   5.629   1.445   2.363 -0.5962  0.4089 -0.7296
 2453TIP3   OH2 7364   4.403   1.878   3.913  0.2974 -0.4121  0.0233
 2453TIP3    H1 7365   4.319   1.865   3.956  0.4021  0.2697  0.4499
 2453TIP3    H2 7366   4.461   1.813   3.953  1.0921  1.8882  2.8823
 2454TIP3   OH2 7367   4.003   0.363   0.241 -0.5420 -0.2006 -0.0472
 2454TIP3    H1 7368   4.076   0.369   0.303 -1.0030  0.1931  0.4760
 2454TIP3    H2 7369   4.024   0.288   0.186  0.4203  0.1178 -0.1249
 2455TIP3   OH2 7370   3.566   2.921   4.686  0.0786  0.2161 -0.7346
 2455TIP3    H1 7371   3.473   2.931   4.704  0.1859 -0.3968  0.2343
 2455TIP3    H2 7372   3.584   2.983   4.616 -1.1865 -0.1051 -1.3628
 2456TIP3   OH2 7373   1.987   2.132   2.223 -0.7543  0.4688 -0.1137
 2456TIP3    H1 7374   2.066   2.079   2.224 -0.3076  1.1233 -0.2412
 2456TIP3    H2 7375   1.935   2.100   2.297 -1.6586 -1.8826 -1.6525
 2457TIP3   OH2 7376   1.535   1.930   5.015 -0.9231 -0.5355  0.3812
 2457TIP3    H1 7377   1.528   1.886   4.930  0.6090 -0.8425  0.3831
 2457TIP3    H2 7378   1.505   1.865   5.078 -0.6689 -0.8387  0.1937
 2458TIP3   OH2 7379   2.559   1.503   3.552  0.4340 -0.0734 -0.2755
 2458TIP3    H1 7380   2.623   1.434   3.570  0.3562  0.2800  1.4789
 2458TIP3    H2 7381   2.522   1.526   3.637 -2.2429 -0.4435 -1.2138
 2459TIP3   OH2 7382   2.977   3.412   2.589  0.0484 -0.2657 -0.4989
 2459TIP3    H1 7383   2.917   3.338   2.599  1.3232 -1.2424  0.1604
 2459TIP3    H2 7384   3.059   3.373   2.558  0.8085  0.8356  0.0629
 2460TIP3   OH2 7385   5.467   4.279   2.886  0.3174 -0.2039 -0.4653
 2460TIP3    H1 7386   5.492   4.358   2.838 -3.5619  2.1383  0.8714
 2460TIP3    H2 7387   5.467   4.307   2.978 -2.8899 -1.0125 -0.0888
 2461TIP3   OH2 7388   6.101   4.000   1.293 -0.0282  0.2540 -0.5507
 2461TIP3    H1 7389   6.025   4.027   1.345  0.7905  2.3771 -0.3916
 2461TIP3    H2 7390   6.092   3.905   1.286 -1.9159  0.2932  0.6899
 2462TIP3   OH2 7391   0.011   0.217   3.838  0.2585  0.2029 -0.0708
 2462TIP3    H1 7392   0.031   0.202   3.930  0.7567  0.0930 -0.1978
 2462TIP3    H2 7393  -0.023   0.307   3.835 -0.3406 -0.0077  0.3098
 2463TIP3   OH2 7394   1.796   1.622   1.929 -0.1442 -0.2657 -0.3924
 2463TIP3    H1 7395   1.790   1.698   1.872  0.3261  0.6470  0.7170
 2463TIP3    H2 7396   1.822   1.658   2.014  0.2529 -1.6876  0.1254
 2464TIP3   OH2 7397   3.163   5.886   5.004 -0.1939  0.7490  0.0663
 2464TIP3    H1 7398   3.257   5.886   4.989 -0.0271  2.7399  0.7316
 2464TIP3    H2 7399   3.153   5.927   5.090 -1.6945  1.2694 -0.3211
 2465TIP3   OH2 7400   5.696   5.734   0.520  0.6688 -0.1244 -0.2829
 2465TIP3    H1 7401   5.731   5.665   0.463 -0.4630 -0.0413 -1.0886
 2465TIP3    H2 7402   5.773   5.785   0.545  1.5995 -1.8551  0.6007
 2466TIP3   OH2 7403   3.782   5.258   0.529 -0.2476 -0.1742  0.1411
 2466TIP3    H1 7404   3.849   5.199   0.492 -1.0495 -0.9765 -0.0679
 2466TIP3    H2 7405   3.805   5.265   0.622  0.2230 -0.3032  0.0401
 2467TIP3   OH2 7406   2.785   2.778   1.393  0.1358  0.0447 -0.2054
 2467TIP3    H1 7407   2.727   2.720   1.343 -0.3504 -1.4049  1.9043
 2467TIP3    H2 7408   2.727   2.841   1.435  0.1631 -0.7764  1.1002
 2468TIP3   OH2 7409   6.149   4.383   1.514  0.2966 -0.3406  0.2923
 2468TIP3    H1 7410   6.179   4.296   1.487  0.5105 -0.0100 -0.5867
 2468TIP3    H2 7411   6.165   4.439   1.437 -0.4825  0.3238  0.5910
 2469TIP3   OH2 7412   2.935   2.319   2.429 -0.0588  0.3923 -0.2655
 2469TIP3    H1 7413   2.916   2.381   2.359 -0.5660  0.4844 -0.0495
 2469TIP3    H2 7414   2.897   2.359   2.507  0.5466  0.3196  0.0792
 2470TIP3   OH2 7415   4.298   2.775   1.549 -0.0158  0.1263 -0.2919
 2470TIP3    H1 7416   4.378   2.775   1.600  0.3108 -1.4035 -0.7301
 2470TIP3    H2 7417   4.229   2.752   1.612  0.0809  0.1810 -0.1662
 2471TIP3   OH2 7418   0.828   2.796   3.107  0.4935 -0.3015 -0.5163
 2471TIP3    H1 7419   0.852   2.733   3.039  0.5518  0.9274 -1.6826
 2471TIP3    H2 7420   0.733   2.805   3.099  0.3116 -1.1318  0.4798
 2472TIP3   OH2 7421   5.211   4.094   3.534  0.2146 -0.5494 -0.2082
 2472TIP3    H1 7422   5.128   4.106   3.579 -0.2020 -2.7448 -0.2450
 2472TIP3    H2 7423   5.237   4.181   3.505 -2.1417  0.1612 -0.3263
 2473TIP3   OH2 7424   1.895   5.557   1.568 -0.0266 -0.1573  0.0723
 2473TIP3    H1 7425   1.918   5.510   1.648 -0.1559  1.1622  0.9056
 2473TIP3    H2 7426   1.919   5.648   1.585 -1.9870  0.5467 -0.5797
 2474TIP3   OH2 7427   6.004   0.305   0.999 -1.0090  0.7026 -0.1680
 2474TIP3    H1 7428   5.945   0.381   1.003  0.2765  1.7026  0.7375
 2474TIP3    H2 7429   6.076   0.334   0.944 -1.2507 -0.4439 -1.1101
 2475TIP3   OH2 7430   1.683   2.760   5.038  0.2830  0.4924 -0.4688
 2475TIP3    H1 7431   1.667   2.778   5.131  3.3221  1.6337 -0.0395
 2475TIP3    H2 7432   1.625   2.687   5.017  0.2652 -0.5226  2.6177
 2476TIP3   OH2 7433   4.261   5.817   1.283 -0.4273  0.2434  0.4086
 2476TIP3    H1 7434   4.261   5.765   1.364 -0.3981 -1.0616 -0.3993
 2476TIP3    H2 7435   4.200   5.888   1.301 -0.5403 -0.1065  1.5228
 2477TIP3   OH2 7436   2.206   5.414   3.838  0.1967 -0.0732 -0.3160
 2477TIP3    H1 7437   2.207   5.490   3.896 -0.6000  0.6006 -1.1579
 2477TIP3    H2 7438   2.250   5.345   3.888  0.9770  0.9465  0.4452
 2478TIP3   OH2 7439   2.029   3.391   1.137 -0.1617  0.0649  0.3152
 2478TIP3    H1 7440   1.985   3.369   1.219  1.5467  0.3424  1.3537
 2478TIP3    H2 7441   2.074   3.311   1.111 -1.1565 -0.1940 -0.6984
 2479TIP3   OH2 7442   1.247   5.118   1.661 -0.6215 -0.2264 -0.6304
 2479TIP3    H1 7443   1.269   5.187   1.723  0.1700 -1.9036  1.0381
 2479TIP3    H2 7444   1.155   5.133   1.640 -0.3152  1.6591 -0.8128
 2480TIP3   OH2 7445   0.413   1.849   2.033 -0.1408 -0.1721 -0.2861
 2480TIP3    H1 7446   0.451   1.929   2.069  0.4884 -0.8774  0.6543
 2480TIP3    H2 7447   0.483   1.810   1.980 -0.9342  0.6581 -2.0545
 2481TIP3   OH2 7448   0.846   5.458   4.006 -0.1588 -0.4982 -0.3042
 2481TIP3    H1 7449   0.936   5.444   3.977 -0.1071 -3.1734  0.8871
 2481TIP3    H2 7450   0.847   5.543   4.050  1.6037 -0.1771 -0.9110
 2482TIP3   OH2 7451   5.715   5.164   4.411  0.0164  0.2406  0.0846
 2482TIP3    H1 7452   5.657   5.132   4.342  0.0188  1.3996 -0.4710
 2482TIP3    H2 7453   5.683   5.251   4.432  0.8362  0.4345  0.6009
 2483TIP3   OH2 7454   4.817   4.479   0.379  0.8140  0.4015  0.6410
 2483TIP3    H1 7455   4.890   4.491   0.319  1.1404 -0.8746  0.7512
 2483TIP3    H2 7456   4.788   4.389   0.364 -1.4173  1.1907 -0.1244
 2484TIP3   OH2 7457   6.161   4.707   1.006  0.1784 -0.1013  0.1761
 2484TIP3    H1 7458   6.234   4.714   1.067 -1.8887 -0.0870  2.8129
 2484TIP3    H2 7459   6.136   4.615   1.009 -0.5468  0.0892  0.0830
 2485TIP3   OH2 7460   6.239   1.451   1.818  0.3557 -0.2148 -0.0206
 2485TIP3    H1 7461   6.254   1.537   1.857  0.1718 -0.7171  1.1994
 2485TIP3    H2 7462   6.145   1.448   1.801  0.4068 -0.0688 -0.3406
 2486TIP3   OH2 7463   4.151   2.284   3.610 -0.1518 -0.2369  0.2210
 2486TIP3    H1 7464   4.095   2.306   3.535  0.7893  1.2985 -0.0791
 2486TIP3    H2 7465   4.089   2.257   3.678 -1.1651  0.1455 -0.5109
 2487TIP3   OH2 7466   5.066   2.596   2.585 -0.1288 -0.4272  0.0782
 2487TIP3    H1 7467   5.073   2.535   2.511  0.7835  0.1686 -0.3356
 2487TIP3    H2 7468   5.078   2.682   2.546  2.2574 -0.2168  1.1605
 2488TIP3   OH2 7469   4.387   3.595   3.987  0.3082  0.6201 -0.2197
 2488TIP3    H1 7470   4.421   3.511   3.956  1.9673  1.1386  0.0805
 2488TIP3    H2 7471   4.296   3.576   4.012  0.9763 -1.3686  0.9616
 2489TIP3   OH2 7472   3.831   4.921   3.546 -0.0800 -0.2669  0.0034
 2489TIP3    H1 7473   3.796   4.832   3.548 -0.6679 -0.0402  0.1476
 2489TIP3    H2 7474   3.924   4.910   3.527 -0.4575 -0.8155 -1.6799
 2490TIP3   OH2 7475   1.715   0.287   0.269  0.5791 -0.4414  0.2638
 2490TIP3    H1 7476   1.765   0.206   0.279  0.3307 -0.4682  1.3420
 2490TIP3    H2 7477   1.695   0.315   0.358  0.5160  0.7287 -0.0940
 2491TIP3   OH2 7478   5.819   4.453   1.117 -0.0777  0.5980  0.0284
 2491TIP3    H1 7479   5.886   4.389   1.141  1.4993  2.2475  0.1865
 2491TIP3    H2 7480   5.805   4.503   1.197 -3.4989 -1.3137  0.8282
 2492TIP3   OH2 7481   3.157   0.241   4.386  0.2409  0.2749 -0.2755
 2492TIP3    H1 7482   3.160   0.190   4.306  1.9979  0.5687 -0.4521
 2492TIP3    H2 7483   3.247   0.240   4.418 -0.2893  0.7379  1.3281
 2493TIP3   OH2 7484   0.331   5.040   3.032 -0.7259  0.0124 -0.1364
 2493TIP3    H1 7485   0.299   5.130   3.040  1.3981  0.6844  1.7785
 2493TIP3    H2 7486   0.286   4.992   3.101  0.4708  0.3923  0.9444
 2494TIP3   OH2 7487   0.637   3.261   2.694  0.1855  0.7379  0.0182
 2494TIP3    H1 7488   0.656   3.351   2.720  0.6176  0.1961  1.7113
 2494TIP3    H2 7489   0.695   3.208   2.749  1.1810 -0.5319 -2.1091
 2495TIP3   OH2 7490   1.263   2.364   4.258  0.0306  0.1475  0.1321
 2495TIP3    H1 7491   1.302   2.448   4.283 -1.1549  0.8228 -0.2009
 2495TIP3    H2 7492   1.285   2.354   4.165 -2.3422  1.5996 -0.6593
 2496TIP3   OH2 7493   1.647   5.599   2.400 -0.4112  0.3302 -0.0621
 2496TIP3    H1 7494   1.629   5.527   2.462 -0.2855 -1.0264 -1.5286
 2496TIP3    H2 7495   1.700   5.661   2.450 -0.9795 -0.3256  1.4238
 2497TIP3   OH2 7496   4.151   2.996   2.475  0.2117 -0.3178 -0.5137
 2497TIP3    H1 7497   4.071   3.029   2.514  0.3176 -0.2898 -0.3185
 2497TIP3    H2 7498   4.122   2.929   2.414  0.0106 -0.0034 -0.7647
 2498TIP3   OH2 7499   2.734   3.954   0.056 -0.3588  0.2878  0.2544
 2498TIP3    H1 7500   2.663   4.009   0.091  0.2907  1.5374 -0.3350
 2498TIP3    H2 7501   2.780   3.922   0.134 -1.4944 -0.4756  0.6417
 2499TIP3   OH2 7502   1.121   1.259   3.295  0.7454  0.0111 -0.1061
 2499TIP3    H1 7503   1.176   1.325   3.251  1.0998  0.5014  1.0433
 2499TIP3    H2 7504   1.060   1.311   3.348  1.2689 -0.5822  1.1021
 2500TIP3   OH2 7505   5.815   4.671   1.794 -0.1830 -0.5500 -0.0886
 2500TIP3    H1 7506   5.808   4.662   1.889 -0.5084 -2.1088 -0.2317
 2500TIP3    H2 7507   5.902   4.707   1.780 -0.3322  0.1960  0.8205
 2501TIP3   OH2 7508   6.011   5.034   3.092  0.5180 -0.9186 -0.1680
 2501TIP3    H1 7509   5.950   5.097   3.053  0.3776 -1.2841 -0.5371
 2501TIP3    H2 7510   5.954   4.965   3.128  0.6604 -0.7508  0.3956
 2502TIP3   OH2 7511   2.850   2.024   1.147  0.1952  0.1246  0.5114
 2502TIP3    H1 7512   2.813   1.941   1.118  2.3503 -0.1765 -1.7154
 2502TIP3    H2 7513   2.903   2.001   1.224 -1.9649  0.1448  2.1172
 2503TIP3   OH2 7514   5.257   5.470   0.081 -0.3497  0.4499 -0.2758
 2503TIP3    H1 7515   5.331   5.526   0.105 -1.7600  3.4468 -2.2404
 2503TIP3    H2 7516   5.199   5.474   0.157  0.6397 -0.4624  0.5696
 2504TIP3   OH2 7517   0.782   2.330   0.682 -0.3799 -0.5017 -0.6410
 2504TIP3    H1 7518   0.875   2.310   0.671  0.4319  2.0054  0.8616
 2504TIP3    H2 7519   0.766   2.317   0.775 -1.5291 -0.8374 -0.8786
 2505TIP3   OH2 7520   5.235   2.205   0.724 -0.6565  0.1457  0.1434
 2505TIP3    H1 7521   5.152   2.253   0.728 -0.2378  0.8077  2.4922
 2505TIP3    H2 7522   5.209   2.113   0.721 -1.5114  0.3261  1.2471
 2506TIP3   OH2 7523   1.632   4.465   2.939 -0.1713 -0.0204  0.3040
 2506TIP3    H1 7524   1.584   4.387   2.911 -1.5179  0.6217  0.7448
 2506TIP3    H2 7525   1.673   4.439   3.022  1.8875 -1.1774 -1.0075
 2507TIP3   OH2 7526   2.392   1.333   4.280 -0.1140  0.4050 -0.0406
 2507TIP3    H1 7527   2.333   1.369   4.346  0.7492 -0.4706  1.2380
 2507TIP3    H2 7528   2.478   1.333   4.322  0.2539 -1.2383 -0.7348
 2508TIP3   OH2 7529   5.492   5.562   0.438  0.1947 -0.0621  0.4829
 2508TIP3    H1 7530   5.489   5.581   0.345 -2.3393 -0.9822  0.2903
 2508TIP3    H2 7531   5.548   5.630   0.475  0.1508  1.1466 -1.5181
 2509TIP3   OH2 7532   0.338   4.978   4.947 -0.3640  0.1203 -0.3138
 2509TIP3    H1 7533   0.421   4.973   4.900 -0.1368 -0.3521  0.1298
 2509TIP3    H2 7534   0.359   5.024   5.028 -0.5325 -0.0153 -0.1936
 2510TIP3   OH2 7535   4.538   1.457   4.696  0.2582  0.3137  0.3372
 2510TIP3    H1 7536   4.498   1.532   4.741 -2.1209 -1.0692  0.6750
 2510TIP3    H2 7537   4.471   1.428   4.634  2.6283  0.8525 -2.7219
 2511TIP3   OH2 7538   2.220   5.908   4.868  0.0147 -0.3554  0.3188
 2511TIP3    H1 7539   2.307   5.869   4.878  0.8257  1.0597 -0.8831
 2511TIP3    H2 7540   2.161   5.833   4.857  0.7318 -1.4493  3.1025
 2512TIP3   OH2 7541   6.347   3.826   0.499  0.0790  0.3065 -0.5686
 2512TIP3    H1 7542   6.257   3.826   0.532 -0.2505  0.8440 -1.4393
 2512TIP3    H2 7543   6.367   3.918   0.485  0.8585  0.2078 -0.1699
 2513TIP3   OH2 7544   6.301   1.976   4.720  0.5995  0.1186  0.4567
 2513TIP3    H1 7545   6.288   1.934   4.635 -1.0396 -0.1864  0.8241
 2513TIP3    H2 7546   6.323   1.905   4.779  1.6042  0.3134  0.3348
 2514TIP3   OH2 7547   5.034   0.357   0.361  0.7733 -0.2528  0.3200
 2514TIP3    H1 7548   4.972   0.423   0.331  1.3112 -0.5594 -1.6058
 2514TIP3    H2 7549   4.979   0.285   0.393  0.1780  0.4426  0.8822
 2515TIP3   OH2 7550   5.892   2.023   4.331  0.3376  0.1240 -0.0713
 2515TIP3    H1 7551   5.952   2.036   4.404 -0.5110 -1.3896  0.9639
 2515TIP3    H2 7552   5.946   2.033   4.253  1.2814  1.7378  0.7289
 2516TIP3   OH2 7553   3.250   1.058   4.552  0.0838  0.0295  0.5835
 2516TIP3    H1 7554   3.247   0.995   4.479  0.2591 -0.9772  1.4230
 2516TIP3    H2 7555   3.265   1.143   4.509 -0.6650 -0.4121 -0.6127
 2517TIP3   OH2 7556   5.656   2.978   2.665  0.3939 -0.5082  0.1490
 2517TIP3    H1 7557   5.671   3.062   2.623  0.5018 -0.2515  0.6909
 2517TIP3    H2 7558   5.635   2.999   2.756 -0.0065 -1.0441  0.1904
 2518TIP3   OH2 7559   4.064   5.150   3.035  0.1527  0.5950 -0.3514
 2518TIP3    H1 7560   4.024   5.156   2.949  2.2460  1.7268 -1.3378
 2518TIP3    H2 7561   4.115   5.069   3.033  1.1649  1.2243 -0.6513
 2519TIP3   OH2 7562   3.216   4.457   4.558 -0.3903 -0.6750  0.0027
 2519TIP3    H1 7563   3.295   4.416   4.523 -0.1690 -1.3275  1.2149
 2519TIP3    H2 7564   3.240   4.548   4.573  0.4275 -1.0669  1.2022
 2520TIP3   OH2 7565   6.134   3.605   3.435 -0.2649 -0.2288 -0.0415
 2520TIP3    H1 7566   6.217   3.622   3.390  0.5658 -1.0837  1.0921
 2520TIP3    H2 7567   6.097   3.529   3.390  0.6583 -1.2054  0.8033
 2521TIP3   OH2 7568   4.636   5.751   3.650 -0.2189  0.8117  0.1501
 2521TIP3    H1 7569   4.675   5.682   3.703 -0.1919  0.7231  0.0162
 2521TIP3    H2 7570   4.639   5.829   3.705 -1.7830  0.3403  0.9577
 2522TIP3   OH2 7571   5.723   5.918   4.113  0.0574 -0.1302 -0.6218
 2522TIP3    H1 7572   5.789   5.958   4.169 -1.9560  0.8673  1.2058
 2522TIP3    H2 7573   5.769   5.848   4.067  1.9737 -0.6413  1.8821
 2523TIP3   OH2 7574   3.116   1.646   2.908  0.1585  0.2276 -0.1727
 2523TIP3    H1 7575   3.058   1.650   2.984 -0.6109 -1.3215 -0.6212
 2523TIP3    H2 7576   3.160   1.561   2.916  0.3100  0.1905 -1.2633
 2524TIP3   OH2 7577   5.580   4.033   2.820  0.4055 -0.3867  0.0134
 2524TIP3    H1 7578   5.626   4.068   2.744  0.2226  0.5068  0.2992
 2524TIP3    H2 7579   5.539   4.110   2.861  0.2874 -0.8838  0.8648
 2525TIP3   OH2 7580   0.626   5.830   1.343  0.0564 -0.2329  0.3665
 2525TIP3    H1 7581   0.633   5.882   1.263  0.1300  1.5046  1.4597
 2525TIP3    H2 7582   0.532   5.816   1.355 -0.1239  1.3144  1.0452
 2526TIP3   OH2 7583   4.115   5.882   3.997  0.6423  0.4926  0.3215
 2526TIP3    H1 7584   4.116   5.786   4.001  0.4072  0.5228  1.0796
 2526TIP3    H2 7585   4.116   5.901   3.903  0.3339 -0.2545  0.1561
 2527TIP3   OH2 7586   1.287   1.579   3.681  0.0171  0.1881 -0.0778
 2527TIP3    H1 7587   1.336   1.619   3.752 -0.1308 -1.0882  0.7842
 2527TIP3    H2 7588   1.251   1.653   3.631  1.9933  1.1382 -0.1798
 2528TIP3   OH2 7589   3.270   2.461   1.173  0.0619 -0.2314  0.4560
 2528TIP3    H1 7590   3.251   2.468   1.080  0.8724 -1.8120  0.1462
 2528TIP3    H2 7591   3.366   2.464   1.178  0.0016  0.9237  1.3528
 2529TIP3   OH2 7592   3.130   4.514   3.975  0.9793  0.1000 -0.0241
 2529TIP3    H1 7593   3.153   4.422   3.982 -1.6153 -0.5369  1.2968
 2529TIP3    H2 7594   3.194   4.559   4.031  2.0013 -0.9197 -0.3364
 2530TIP3   OH2 7595   3.460   3.297   1.052 -0.2729  0.0933  0.0741
 2530TIP3    H1 7596   3.402   3.250   1.111 -0.2526 -0.3878 -0.2887
 2530TIP3    H2 7597   3.524   3.340   1.110 -0.2667 -0.3550  0.4026
 2531TIP3   OH2 7598   3.945   3.305   4.142  0.0589 -0.4445 -0.3726
 2531TIP3    H1 7599   3.984   3.393   4.147 -0.9923  0.1179 -1.5702
 2531TIP3    H2 7600   3.921   3.295   4.050  1.5017 -2.6078 -0.5921
 2532TIP3   OH2 7601   5.658   4.113   2.122 -0.3558  0.5230 -0.0537
 2532TIP3    H1 7602   5.667   4.039   2.183 -0.8532  1.0777  0.7085
 2532TIP3    H2 7603   5.679   4.075   2.036 -3.7343 -1.3490 -0.2084
 2533TIP3   OH2 7604   1.967   2.060   3.574  0.4681 -0.1224  0.1859
 2533TIP3    H1 7605   1.925   1.993   3.628  0.9561 -1.0405 -0.5152
 2533TIP3    H2 7606   2.023   2.009   3.514  0.6067  0.9046 -0.5808
 2534TIP3   OH2 7607   5.773   0.629   4.549 -0.1022 -0.3297 -0.3230
 2534TIP3    H1 7608   5.740   0.707   4.594  0.3019 -0.5055  0.2842
 2534TIP3    H2 7609   5.694   0.578   4.529 -0.2157 -0.7496  1.1291
 2535TIP3   OH2 7610   0.367   1.854   3.459 -0.0648 -0.5546  0.3032
 2535TIP3    H1 7611   0.363   1.950   3.461  1.0355 -0.5169  2.2174
 2535TIP3    H2 7612   0.349   1.832   3.367  1.6050  1.5758 -0.6193
 2536TIP3   OH2 7613   4.392   3.702   2.664  0.3242 -0.3301 -0.3164
 2536TIP3    H1 7614   4.348   3.631   2.709  0.2684  0.2239  0.5169
 2536TIP3    H2 7615   4.356   3.699   2.575 -0.4672 -0.6723 -0.0005
 2537TIP3   OH2 7616   3.340   1.240   5.107 -0.3254  0.2316  0.5885
 2537TIP3    H1 7617   3.306   1.318   5.062  0.3750 -0.8166 -1.9363
 2537TIP3    H2 7618   3.314   1.252   5.199 -4.3041  1.2237 -0.4591
 2538TIP3   OH2 7619   2.343   1.810   3.622  0.2777 -0.0233 -0.1025
 2538TIP3    H1 7620   2.338   1.725   3.578 -0.2838  0.1525 -0.3948
 2538TIP3    H2 7621   2.381   1.792   3.707 -1.4529 -0.8376  0.5265
 2539TIP3   OH2 7622   2.972   3.159   2.025  0.0556 -0.2959 -0.5678
 2539TIP3    H1 7623   2.953   3.073   1.989  0.7088 -0.9488  0.6016
 2539TIP3    H2 7624   2.974   3.146   2.120 -0.5629  1.1535 -0.3127
 2540TIP3   OH2 7625   3.033   2.837   2.849  0.1265 -0.4152  0.1471
 2540TIP3    H1 7626   2.999   2.845   2.938 -2.2432 -0.7145 -0.6582
 2540TIP3    H2 7627   2.972   2.777   2.805  1.2135 -0.2635 -1.6980
 2541TIP3   OH2 7628   1.984   1.031   4.343  0.4937  0.2058 -0.1945
 2541TIP3    H1 7629   2.014   1.092   4.276 -0.9859 -0.7913 -1.8562
 2541TIP3    H2 7630   1.909   1.075   4.384  1.3688  0.7950  0.8243
 2542TIP3   OH2 7631   0.388   3.411   2.868  0.6937  0.4291 -0.1908
 2542TIP3    H1 7632   0.295   3.390   2.871  0.9303 -0.5790  0.6651
 2542TIP3    H2 7633   0.410   3.411   2.775  0.0592 -0.3998 -0.3500
 2543TIP3   OH2 7634   0.133   4.198   1.165  0.0860 -0.2059 -1.4411
 2543TIP3    H1 7635   0.208   4.241   1.122  0.3708 -0.1237 -0.8655
 2543TIP3    H2 7636   0.169   4.119   1.204 -0.1568 -0.2435 -1.2902
 2544TIP3   OH2 7637   0.442   5.208   1.507  0.0110  0.1402 -0.4152
 2544TIP3    H1 7638   0.453   5.238   1.417  0.2356  0.5266 -0.2656
 2544TIP3    H2 7639   0.476   5.280   1.560 -0.3127  0.0036 -0.0157
 2545TIP3   OH2 7640   0.527   3.512   2.229  0.2789 -0.0997  0.0490
 2545TIP3    H1 7641   0.562   3.599   2.209  1.9986 -1.2343 -2.4833
 2545TIP3    H2 7642   0.543   3.500   2.322  1.9604  1.4967  0.0266
 2546TIP3   OH2 7643   2.006   1.814   4.264 -0.2949  0.2547  0.0304
 2546TIP3    H1 7644   2.057   1.733   4.267 -0.0797  0.3600 -0.6055
 2546TIP3    H2 7645   1.989   1.828   4.171 -1.7647  0.0619  0.2532
 2547TIP3   OH2 7646   3.628   4.917   1.298 -0.0255 -0.4868  0.4041
 2547TIP3    H1 7647   3.646   4.823   1.302  0.1939 -0.4353  0.7371
 2547TIP3    H2 7648   3.712   4.956   1.273  0.2094 -0.2860  1.4616
 2548TIP3   OH2 7649   5.490   4.221   4.441 -0.2600  0.2302 -0.2018
 2548TIP3    H1 7650   5.543   4.167   4.382 -0.2044  0.8124 -0.6997
 2548TIP3    H2 7651   5.456   4.159   4.506  0.0567 -0.3478 -0.5722
 2549TIP3   OH2 7652   1.163   0.321   0.635  0.7755  0.6166  0.4006
 2549TIP3    H1 7653   1.117   0.287   0.558  0.5314  1.5199  0.1386
 2549TIP3    H2 7654   1.096   0.368   0.684  0.9107 -0.0262  1.2225
 2550TIP3   OH2 7655   5.315   4.928   4.495 -0.5896  0.1337 -0.2152
 2550TIP3    H1 7656   5.354   4.894   4.575 -2.1878 -1.4443 -0.0238
 2550TIP3    H2 7657   5.284   5.016   4.517 -0.0314  0.1405  0.5472
 2551TIP3   OH2 7658   0.361   2.364   0.815 -0.2464  0.2364  0.1036
 2551TIP3    H1 7659   0.359   2.456   0.789 -1.1560  0.4594  0.9301
 2551TIP3    H2 7660   0.273   2.332   0.797  0.2509 -0.6739 -0.8250
 2552TIP3   OH2 7661   2.187   2.028   4.160 -0.0579  0.1550 -0.1651
 2552TIP3    H1 7662   2.226   2.060   4.079  0.7797  1.4745  0.7241
 2552TIP3    H2 7663   2.113   1.975   4.131  0.9696 -0.4495 -1.8170
 2553TIP3   OH2 7664   2.913   4.467   3.072  0.5345 -0.1127 -0.7748
 2553TIP3    H1 7665   2.940   4.555   3.098  0.5350 -0.0672 -0.9272
 2553TIP3    H2 7666   2.892   4.423   3.154 -0.2012  0.2735 -0.7492
 2554TIP3   OH2 7667   1.134   0.788   2.496  0.3843 -0.2098  0.2816
 2554TIP3    H1 7668   1.107   0.829   2.578 -0.6539  0.6399 -0.4457
 2554TIP3    H2 7669   1.162   0.860   2.441  1.0323 -0.7659 -0.1284
 2555TIP3   OH2 7670   4.827   2.724   3.089  0.2811 -0.5728 -0.6261
 2555TIP3    H1 7671   4.847   2.814   3.062  0.2663 -0.2704  0.3255
 2555TIP3    H2 7672   4.755   2.697   3.033 -0.0118  0.1747 -0.6160
 2556TIP3   OH2 7673   5.771   1.305   3.460  0.3654  0.5816  0.7624
 2556TIP3    H1 7674   5.725   1.224   3.478  0.3477  0.8335  1.9457
 2556TIP3    H2 7675   5.702   1.372   3.457  0.0680  0.2958 -2.5600
 2557TIP3   OH2 7676   0.567   5.873   3.736  0.2672 -0.4150 -0.5570
 2557TIP3    H1 7677   0.541   5.781   3.738  0.4546 -0.4596  0.3108
 2557TIP3    H2 7678   0.512   5.915   3.802  1.0714 -0.1556 -0.0342
 2558TIP3   OH2 7679   0.255   4.655   2.096 -0.1279 -0.1410  0.0116
 2558TIP3    H1 7680   0.315   4.584   2.120  0.5153  0.0651 -0.9386
 2558TIP3    H2 7681   0.188   4.653   2.164  0.1107 -1.3807  0.2424
 2559TIP3   OH2 7682   3.849   4.380   4.514  0.2471  0.3976  0.2392
 2559TIP3    H1 7683   3.788   4.384   4.587  0.6430  0.3046  0.5828
 2559TIP3    H2 7684   3.817   4.445   4.452 -0.1597  0.3944  0.4422
 2560TIP3   OH2 7685   4.066   4.701   1.454 -0.0438  0.9894 -0.3504
 2560TIP3    H1 7686   4.157   4.685   1.478 -0.3658 -0.3334  0.0662
 2560TIP3    H2 7687   4.025   4.615   1.455 -1.0702  1.4261 -1.5435
 2561TIP3   OH2 7688   1.723   1.123   4.141 -0.7614 -0.4244  0.0827
 2561TIP3    H1 7689   1.633   1.154   4.156  0.0197  2.7109 -0.9192
 2561TIP3    H2 7690   1.775   1.173   4.203  0.5319 -0.5066 -0.9048
 2562TIP3   OH2 7691   5.259   1.011   4.995 -0.0851 -0.3472  0.1853
 2562TIP3    H1 7692   5.312   1.080   4.954  2.9596 -0.8806  2.8302
 2562TIP3    H2 7693   5.246   1.041   5.085 -0.0347 -2.4675  0.9559
 2563TIP3   OH2 7694   3.877   1.893   1.397  0.2753  0.2211  0.6887
 2563TIP3    H1 7695   3.835   1.867   1.478  0.7408  0.8515  1.1450
 2563TIP3    H2 7696   3.876   1.989   1.399 -0.1582  0.2546 -0.2856
 2564TIP3   OH2 7697   0.628   1.190   0.917  0.2314  0.4810 -0.0203
 2564TIP3    H1 7698   0.560   1.201   0.983  1.7608  1.0023  1.5223
 2564TIP3    H2 7699   0.600   1.245   0.844 -0.8717  0.8920  0.6926
 2565TIP3   OH2 7700   3.383   1.139   3.258 -0.5019  0.6564 -0.5023
 2565TIP3    H1 7701   3.303   1.092   3.282 -1.4931  1.7167 -1.6352
 2565TIP3    H2 7702   3.394   1.203   3.328 -1.6224  1.6436 -1.1947
 2566TIP3   OH2 7703   3.163   5.266   4.639 -0.0747 -0.0866  0.7929
 2566TIP3    H1 7704   3.155   5.362   4.637 -0.0591 -0.0519 -1.7975
 2566TIP3    H2 7705   3.250   5.249   4.674  0.6062  0.9678 -0.2952
 2567TIP3   OH2 7706   4.611   0.657   3.885 -0.0223  0.7789 -0.8147
 2567TIP3    H1 7707   4.629   0.730   3.825 -1.9185  1.0093 -1.1729
 2567TIP3    H2 7708   4.675   0.590   3.862  0.7010  1.7105 -1.5973
 2568TIP3   OH2 7709   1.336   4.691   3.196 -0.1237  0.0548  0.2253
 2568TIP3    H1 7710   1.294   4.609   3.225 -0.6077  0.8059  1.8095
 2568TIP3    H2 7711   1.352   4.679   3.103 -0.6372 -1.6539  0.3272
 2569TIP3   OH2 7712   0.720   2.800   0.521  0.2546 -0.2844  0.1635
 2569TIP3    H1 7713   0.795   2.746   0.497  0.7532  1.2389 -2.1101
 2569TIP3    H2 7714   0.741   2.886   0.483 -2.5609  0.2254 -0.4329
 2570TIP3   OH2 7715   2.145   5.603   2.270 -0.4230 -0.0310  0.3620
 2570TIP3    H1 7716   2.163   5.584   2.178  2.4841 -0.8549  1.0282
 2570TIP3    H2 7717   2.190   5.686   2.287 -1.0963  0.2153  1.0217
 2571TIP3   OH2 7718   5.615   3.045   0.381  0.6186  0.0227  0.1850
 2571TIP3    H1 7719   5.629   2.970   0.324 -2.3281 -1.7007  1.4913
 2571TIP3    H2 7720   5.677   3.033   0.453  2.1671  0.4868 -1.0374
 2572TIP3   OH2 7721   2.993   4.472   5.029  0.1923  0.0201 -0.4728
 2572TIP3    H1 7722   2.978   4.485   5.123  0.4784 -2.0883 -0.0864
 2572TIP3    H2 7723   2.913   4.430   4.997  0.4872 -0.1740 -0.9698
 2573TIP3   OH2 7724   5.083   4.208   1.347 -0.0579 -0.2103 -0.4127
 2573TIP3    H1 7725   5.074   4.184   1.439 -0.0037 -0.6776 -0.5261
 2573TIP3    H2 7726   5.177   4.214   1.332 -0.0610 -0.3200 -0.4819
 2574TIP3   OH2 7727   4.413   3.772   1.131  0.1077  0.5860  0.1100
 2574TIP3    H1 7728   4.417   3.677   1.128 -0.0780  0.5661  0.4106
 2574TIP3    H2 7729   4.408   3.799   1.039 -3.0133  0.1317  0.0171
 2575TIP3   OH2 7730   5.611   0.698   3.714  0.0691  0.1421 -0.3988
 2575TIP3    H1 7731   5.688   0.655   3.678 -0.4888 -0.4814 -0.8688
 2575TIP3    H2 7732   5.630   0.707   3.807  1.8335  2.4032 -0.8645
 2576TIP3   OH2 7733   5.494   1.856   0.606 -0.3823  0.8716 -0.3538
 2576TIP3    H1 7734   5.527   1.934   0.650  0.8610 -0.6675  1.6294
 2576TIP3    H2 7735   5.399   1.859   0.620 -0.3709  2.0506 -0.4013
 2577TIP3   OH2 7736   6.158   5.331   4.518 -0.5497 -0.3016 -0.5485
 2577TIP3    H1 7737   6.104   5.251   4.511 -0.1848 -0.4239 -2.4958
 2577TIP3    H2 7738   6.156   5.368   4.430  2.1022 -0.0144 -0.5566
 2578TIP3   OH2 7739   5.432   5.409   1.044  0.4713  0.1288 -0.2202
 2578TIP3    H1 7740   5.425   5.425   0.949 -0.0355  0.3865 -0.1412
 2578TIP3    H2 7741   5.516   5.365   1.054  0.5935  0.2215 -0.7784
 2579TIP3   OH2 7742   3.188   5.879   1.819 -0.1940 -0.1344  0.0300
 2579TIP3    H1 7743   3.208   5.799   1.866 -4.0303 -0.8571  0.7609
 2579TIP3    H2 7744   3.161   5.941   1.886 -0.6730  0.5825 -0.7950
 2580TIP3   OH2 7745   1.287   4.896   2.478  0.0402 -0.1097  0.1509
 2580TIP3    H1 7746   1.381   4.909   2.462 -0.3047  3.6433  0.1326
 2580TIP3    H2 7747   1.280   4.892   2.574  0.0815  3.0536  0.3996
 2581TIP3   OH2 7748   1.919   3.886   0.762 -0.3044 -0.2586  1.1265
 2581TIP3    H1 7749   1.909   3.879   0.667  0.9709 -0.8127  1.0121
 2581TIP3    H2 7750   1.835   3.919   0.793 -0.3275  1.1866 -0.3256
 2582TIP3   OH2 7751   6.267   2.236   2.574 -0.1796  0.2097  0.1565
 2582TIP3    H1 7752   6.314   2.206   2.651 -0.3787 -1.8621 -0.4439
 2582TIP3    H2 7753   6.330   2.226   2.502 -1.4002 -2.7701 -0.6894
 2583TIP3   OH2 7754   5.970   0.976   1.494 -0.3285 -0.3631  0.3853
 2583TIP3    H1 7755   6.030   1.047   1.469  0.8756 -1.2680  0.5806
 2583TIP3    H2 7756   5.976   0.973   1.590 -0.9149 -0.2766  0.4268
 2584TIP3   OH2 7757   0.428   5.912   0.861 -0.0969  0.1936 -0.2046
 2584TIP3    H1 7758   0.515   5.919   0.820  0.3399 -1.7552  0.2584
 2584TIP3    H2 7759   0.370   5.891   0.788  0.5655 -2.5880 -0.0502
 2585TIP3   OH2 7760   5.500   2.633   2.640  0.0377 -0.1993  0.8101
 2585TIP3    H1 7761   5.462   2.720   2.630 -0.5553 -0.4324  0.9369
 2585TIP3    H2 7762   5.458   2.598   2.719  0.1574 -0.6540  0.6753
 2586TIP3   OH2 7763   2.372   0.351   2.885 -0.2921 -0.6217  0.2029
 2586TIP3    H1 7764   2.313   0.341   2.810  1.8473 -0.7429 -1.5772
 2586TIP3    H2 7765   2.407   0.263   2.898  0.3486 -0.3253  0.4717
 2587TIP3   OH2 7766   2.408   5.068   4.354  0.3834  0.2442  0.0325
 2587TIP3    H1 7767   2.421   5.096   4.444 -0.0948 -2.5864  1.0743
 2587TIP3    H2 7768   2.480   5.007   4.337 -0.2718 -0.2637 -1.0307
 2588TIP3   OH2 7769   5.224   5.698   3.207 -0.6001  0.3168 -0.3718
 2588TIP3    H1 7770   5.282   5.642   3.257  0.2613  1.1526 -0.4038
 2588TIP3    H2 7771   5.160   5.639   3.168  0.0564 -0.5847 -0.0981
 2589TIP3   OH2 7772   4.226   1.430   0.307 -0.2742 -0.1162  0.1909
 2589TIP3    H1 7773   4.196   1.339   0.309 -1.4058  0.2442  0.4681
 2589TIP3    H2 7774   4.295   1.434   0.373  0.3911 -0.9601 -0.4306
 2590TIP3   OH2 7775   0.400   4.518   0.437  0.1114  0.0592 -0.6227
 2590TIP3    H1 7776   0.418   4.438   0.486  0.9672  0.3349 -0.4656
 2590TIP3    H2 7777   0.305   4.532   0.447  0.1222 -0.3780  0.2002
 2591TIP3   OH2 7778   0.894   2.130   3.886  0.5334 -0.5127  0.0403
 2591TIP3    H1 7779   0.985   2.138   3.915  0.1497 -1.3328  1.6163
 2591TIP3    H2 7780   0.843   2.167   3.959 -0.3952  0.1517 -0.9251
 2592TIP3   OH2 7781   5.884   4.257   3.137  0.3554  0.5491  0.5434
 2592TIP3    H1 7782   5.934   4.270   3.217  1.6921  0.2754 -0.2275
 2592TIP3    H2 7783   5.867   4.163   3.134  0.1422  0.5853  0.5984
 2593TIP3   OH2 7784   3.303   1.506   4.254  0.2252  1.1876 -0.4632
 2593TIP3    H1 7785   3.359   1.431   4.234 -1.0086  0.6241 -2.0772
 2593TIP3    H2 7786   3.364   1.578   4.271  1.4258  0.0867  0.0854
 2594TIP3   OH2 7787   0.203   4.098   0.232 -0.4102  0.4078 -0.1221
 2594TIP3    H1 7788   0.139   4.088   0.302  0.0291 -0.8349  0.1227
 2594TIP3    H2 7789   0.187   4.186   0.198  0.9529  2.0586  3.0892
 2595TIP3   OH2 7790   2.569   2.960   1.478 -0.2109 -0.3173  0.1662
 2595TIP3    H1 7791   2.491   2.926   1.433 -1.3219  0.6450  1.2581
 2595TIP3    H2 7792   2.548   2.949   1.571 -0.2022  2.2981  0.5531
 2596TIP3   OH2 7793   4.393   0.550   1.411  0.0487 -0.2359 -0.5318
 2596TIP3    H1 7794   4.444   0.602   1.349  0.9862  0.0069  0.4098
 2596TIP3    H2 7795   4.303   0.578   1.398  0.3785  0.6560 -0.9719
 2597TIP3   OH2 7796   3.343   5.851   3.433  0.0860  0.1514 -0.0915
 2597TIP3    H1 7797   3.379   5.921   3.488  1.7203  0.1541 -1.0964
 2597TIP3    H2 7798   3.407   5.780   3.440 -1.1163 -0.9193  0.2311
 2598TIP3   OH2 7799   4.447   4.177   2.227 -0.5764  0.2111 -0.2085
 2598TIP3    H1 7800   4.500   4.146   2.300  0.4113 -0.4255 -1.1759
 2598TIP3    H2 7801   4.497   4.249   2.189 -0.5598 -0.1629 -0.9129
 2599TIP3   OH2 7802   4.959   2.779   3.638 -0.0333  0.4959 -0.2635
 2599TIP3    H1 7803   4.996   2.758   3.552  0.3293  0.3281 -0.0699
 2599TIP3    H2 7804   4.954   2.874   3.639  2.0439  0.6576  0.3636
 2600TIP3   OH2 7805   1.953   1.501   2.765 -0.0181 -0.0488  0.5884
 2600TIP3    H1 7806   1.881   1.527   2.823 -1.8732  2.6174 -2.5293
 2600TIP3    H2 7807   2.027   1.554   2.793 -0.7711  0.8988  0.8477
 2601TIP3   OH2 7808   1.756   5.059   1.388  0.1753 -0.0785 -0.0965
 2601TIP3    H1 7809   1.801   5.123   1.334 -0.2705  0.0643 -0.3071
 2601TIP3    H2 7810   1.787   5.076   1.477 -0.9026  1.3065  0.0581
 2602TIP3   OH2 7811   6.027   5.329   1.969  0.0467  0.3035  0.2112
 2602TIP3    H1 7812   6.012   5.389   1.897 -0.1525 -0.3720 -0.3173
 2602TIP3    H2 7813   5.973   5.253   1.949  1.2552 -0.5888  0.2101
 2603TIP3   OH2 7814   3.933   4.646   3.373 -0.3113  0.4863  0.1659
 2603TIP3    H1 7815   3.854   4.605   3.406 -1.2486  1.3265 -0.9461
 2603TIP3    H2 7816   3.992   4.650   3.449 -0.5977 -1.8181  0.5632
 2604TIP3   OH2 7817   4.418   5.398   0.289 -0.4214 -0.2166  0.4389
 2604TIP3    H1 7818   4.476   5.409   0.213 -2.1566 -1.0229 -1.0811
 2604TIP3    H2 7819   4.397   5.487   0.316 -1.3254  0.1560 -1.3202
 2605TIP3   OH2 7820   4.053   4.514   0.923 -0.2816 -0.1541  0.3966
 2605TIP3    H1 7821   3.962   4.521   0.950 -0.2969  1.9532 -0.0856
 2605TIP3    H2 7822   4.100   4.491   1.004 -1.2798 -2.1453  0.4791
 2606TIP3   OH2 7823   2.575   5.936   1.288 -0.5418 -0.4502 -0.2743
 2606TIP3    H1 7824   2.544   5.849   1.263 -0.5146 -0.2388 -1.0750
 2606TIP3    H2 7825   2.518   5.997   1.241  0.4516 -0.0528 -1.0071
 2607TIP3   OH2 7826   4.833   2.754   3.972  0.5123  0.1165  0.8551
 2607TIP3    H1 7827   4.868   2.840   3.945 -0.7085  0.7229  1.1646
 2607TIP3    H2 7828   4.909   2.695   3.966  0.9199  0.7741 -1.3130
 2608TIP3   OH2 7829   1.197   2.204   3.024 -0.1143  0.1607  1.1742
 2608TIP3    H1 7830   1.118   2.149   3.026 -0.2330 -0.3012 -3.6932
 2608TIP3    H2 7831   1.270   2.141   3.019  0.0404  0.4205 -0.3282
 2609TIP3   OH2 7832   2.054   2.549   3.546  0.0136 -0.1675  0.0437
 2609TIP3    H1 7833   2.058   2.464   3.502  0.9227  0.0849 -0.3771
 2609TIP3    H2 7834   1.983   2.596   3.502 -1.6015 -1.2733  1.3429
 2610TIP3   OH2 7835   5.640   1.935   1.089  0.1314  0.3879  0.1903
 2610TIP3    H1 7836   5.607   1.910   1.175 -2.2302 -0.6407 -0.9425
 2610TIP3    H2 7837   5.677   1.855   1.053 -2.4419 -0.2787 -1.2326
 2611TIP3   OH2 7838   0.839   0.346   0.073 -0.0366 -0.0656  0.2667
 2611TIP3    H1 7839   0.825   0.421   0.130 -2.0750 -2.6935  3.6478
 2611TIP3    H2 7840   0.926   0.314   0.096  0.3389  0.5187 -0.3014
 2612TIP3   OH2 7841   4.215   4.129   3.441  0.5745  0.1316  0.3523
 2612TIP3    H1 7842   4.182   4.047   3.404  2.3610 -0.1308 -0.8206
 2612TIP3    H2 7843   4.155   4.150   3.513 -0.8049 -1.3833 -0.3037
 2613TIP3   OH2 7844   0.257   4.656   3.625 -0.3755 -0.4229 -0.2953
 2613TIP3    H1 7845   0.338   4.649   3.574 -0.1551 -2.6144  0.2628
 2613TIP3    H2 7846   0.194   4.601   3.577 -1.3794  0.7281 -0.3613
 2614TIP3   OH2 7847   1.403   0.458   4.645  0.2448 -0.0404 -0.0080
 2614TIP3    H1 7848   1.405   0.388   4.711 -1.1238  0.0241  0.1387
 2614TIP3    H2 7849   1.311   0.483   4.641  0.5968  1.1942 -0.6599
 2615TIP3   OH2 7850   3.203   5.314   3.934 -0.1455 -0.3866 -0.3397
 2615TIP3    H1 7851   3.291   5.280   3.915 -0.4313 -0.9621 -0.6663
 2615TIP3    H2 7852   3.177   5.359   3.854  0.1652  0.4865  0.0347
 2616TIP3   OH2 7853   3.078   2.620   0.401 -0.2909 -0.2571 -0.0471
 2616TIP3    H1 7854   3.005   2.672   0.368 -0.1674  0.1968  0.3620
 2616TIP3    H2 7855   3.037   2.548   0.448 -0.5092  0.5482  1.0464
 2617TIP3   OH2 7856   4.788   1.249   2.578  0.2377  0.3170 -0.1714
 2617TIP3    H1 7857   4.880   1.232   2.595  0.2864  1.0557  0.3889
 2617TIP3    H2 7858   4.742   1.175   2.619  0.5934 -0.2074 -0.7215
 2618TIP3   OH2 7859   5.636   0.352   4.274 -0.5747 -0.4095  0.2174
 2618TIP3    H1 7860   5.601   0.361   4.185  0.6026  0.5762 -0.1853
 2618TIP3    H2 7861   5.724   0.317   4.261 -1.2915 -2.6994  1.1862
 2619TIP3   OH2 7862   2.222   2.248   2.841 -0.1796 -0.3802  0.5126
 2619TIP3    H1 7863   2.161   2.321   2.831 -0.5254 -0.6596  0.5836
 2619TIP3    H2 7864   2.170   2.170   2.822  0.0329 -0.6571  1.0494
 2620TIP3   OH2 7865   5.925   2.094   5.122 -0.5851 -0.4253 -0.0411
 2620TIP3    H1 7866   5.986   2.163   5.095 -0.5554 -1.1315 -1.9349
 2620TIP3    H2 7867   5.981   2.023   5.152 -0.5811 -0.0463  0.8656
 2621TIP3   OH2 7868   3.696   4.301   3.190  0.0229  0.3019 -0.2977
 2621TIP3    H1 7869   3.775   4.251   3.211  0.0353  0.7776  0.8433
 2621TIP3    H2 7870   3.699   4.377   3.248 -2.1412 -0.5357  1.0098
 2622TIP3   OH2 7871   1.298   1.327   3.895 -0.2716 -0.2471  0.0327
 2622TIP3    H1 7872   1.228   1.285   3.946  1.2616  0.3365  2.8427
 2622TIP3    H2 7873   1.358   1.256   3.873 -0.9080 -0.4915 -0.9827
 2623TIP3   OH2 7874   4.759   3.759   3.119 -0.1338  0.6126  0.0415
 2623TIP3    H1 7875   4.669   3.767   3.087  0.0620  0.2778 -0.5932
 2623TIP3    H2 7876   4.805   3.710   3.051  0.9443  2.1944 -0.4195
 2624TIP3   OH2 7877   2.844   4.549   4.198 -0.2110 -0.0864 -0.0798
 2624TIP3    H1 7878   2.796   4.476   4.158  0.8628  0.4408 -2.5368
 2624TIP3    H2 7879   2.928   4.510   4.225 -0.5145 -0.2066  0.7254
 2625TIP3   OH2 7880   0.333   3.305   1.168  0.1002 -0.1157  0.2404
 2625TIP3    H1 7881   0.423   3.332   1.153  0.7592 -1.6142  1.2757
 2625TIP3    H2 7882   0.291   3.381   1.209  1.3949 -0.0175  1.4460
 2626TIP3   OH2 7883   5.183   2.296   1.101 -0.0676 -0.0146 -0.1247
 2626TIP3    H1 7884   5.151   2.216   1.143 -1.8339 -0.5035 -2.2369
 2626TIP3    H2 7885   5.259   2.321   1.153 -0.8522 -1.7408  2.0178
 2627TIP3   OH2 7886   4.770   1.831   5.093  0.3660 -0.5834 -0.3776
 2627TIP3    H1 7887   4.818   1.763   5.140 -0.1192  0.7483  2.2252
 2627TIP3    H2 7888   4.829   1.907   5.093 -0.7458  0.3372  0.7786
 2628TIP3   OH2 7889   4.332   3.148   3.647  0.1658 -0.1148  0.0004
 2628TIP3    H1 7890   4.309   3.192   3.565 -0.3955 -1.0744 -0.3818
 2628TIP3    H2 7891   4.260   3.169   3.707  0.0201 -0.2990 -0.1066
 2629TIP3   OH2 7892   3.661   3.384   4.287  0.0305 -0.4961  0.3444
 2629TIP3    H1 7893   3.669   3.475   4.258 -1.1633 -0.2048  0.8890
 2629TIP3    H2 7894   3.740   3.341   4.253  0.3859  0.6330 -0.2979
 2630TIP3   OH2 7895   2.463   4.563   1.550 -0.2318  0.1355 -0.0477
 2630TIP3    H1 7896   2.514   4.495   1.594 -1.0075 -0.7298 -0.4433
 2630TIP3    H2 7897   2.420   4.610   1.621 -0.0315 -0.0617  0.2095
 2631TIP3   OH2 7898   2.741   5.870   3.355  0.3846  0.2029 -0.2692
 2631TIP3    H1 7899   2.767   5.783   3.387 -2.2826 -1.6155 -2.5716
 2631TIP3    H2 7900   2.812   5.897   3.297  0.6698 -1.0891 -0.5477
 2632TIP3   OH2 7901   6.174   3.795   3.934  0.0696 -0.2339  0.0691
 2632TIP3    H1 7902   6.152   3.730   4.002 -2.0949  0.4448  0.0913
 2632TIP3    H2 7903   6.090   3.821   3.898  0.9829  1.6353 -0.8357
 2633TIP3   OH2 7904   5.503   1.656   0.433 -0.0708  0.4795  0.0519
 2633TIP3    H1 7905   5.496   1.743   0.473  0.8560  0.2702  0.6893
 2633TIP3    H2 7906   5.475   1.595   0.501 -0.2007  0.2364 -0.2155
 2634TIP3   OH2 7907   1.487   2.753   1.444  0.6569  0.4938 -0.1465
 2634TIP3    H1 7908   1.485   2.845   1.419 -0.6279 -0.1517 -2.7374
 2634TIP3    H2 7909   1.405   2.717   1.412  0.6738 -1.4003  1.6777
 2635TIP3   OH2 7910   1.020   2.965   3.226  0.1243 -0.0510 -0.5642
 2635TIP3    H1 7911   1.005   3.057   3.207  0.6357  0.7048  2.1355
 2635TIP3    H2 7912   0.938   2.921   3.203 -0.9020  1.4561  0.0485
 2636TIP3   OH2 7913   2.104   5.400   2.732  0.4620 -0.0508 -0.0055
 2636TIP3    H1 7914   2.126   5.433   2.645  1.3032 -2.6100 -0.8347
 2636TIP3    H2 7915   2.013   5.372   2.726  0.4837 -0.1178 -0.0206
 2637TIP3   OH2 7916   4.669   2.266   1.417 -0.5355 -0.0025  0.2062
 2637TIP3    H1 7917   4.599   2.307   1.368  0.5298  0.0148 -1.3698
 2637TIP3    H2 7918   4.673   2.176   1.384 -1.3739 -0.7673  2.0241
 2638TIP3   OH2 7919   5.549   0.435   3.052  0.5420  0.0178  0.0742
 2638TIP3    H1 7920   5.564   0.460   3.143  0.1309  1.2309 -0.1710
 2638TIP3    H2 7921   5.588   0.348   3.044 -1.2381 -1.0548  1.9583
 2639TIP3   OH2 7922   1.227   4.016   0.625 -0.0615  0.2274  0.5249
 2639TIP3    H1 7923   1.299   3.954   0.623 -0.6657 -0.5049  1.0177
 2639TIP3    H2 7924   1.269   4.100   0.646  0.7529 -0.0046 -0.1291
 2640TIP3   OH2 7925   1.907   3.391   1.389  0.5668  0.2283  0.1693
 2640TIP3    H1 7926   1.939   3.480   1.401 -1.3493  0.8151  1.4556
 2640TIP3    H2 7927   1.930   3.346   1.470 -0.7361  0.3277  0.6155
 2641TIP3   OH2 7928   1.988   1.315   4.599  0.5394 -0.2802  0.1097
 2641TIP3    H1 7929   2.006   1.280   4.686 -1.1164 -0.3733  0.4489
 2641TIP3    H2 7930   1.894   1.332   4.599  0.8361  1.6941 -0.9489
 2642TIP3   OH2 7931   0.693   4.285   5.066  0.6281 -0.0298  0.2126
 2642TIP3    H1 7932   0.674   4.379   5.070 -0.0253 -0.1343 -0.2188
 2642TIP3    H2 7933   0.623   4.249   5.012  1.9444 -0.4869 -1.2536
 2643TIP3   OH2 7934   5.502   0.611   4.342  0.5357  0.2976 -0.1920
 2643TIP3    H1 7935   5.511   0.569   4.427 -1.5730 -0.2815 -0.1956
 2643TIP3    H2 7936   5.560   0.562   4.284 -0.4327 -1.4303  0.2274
 2644TIP3   OH2 7937   6.155   0.172   2.140 -0.0512  0.2074  0.1326
 2644TIP3    H1 7938   6.124   0.203   2.055  0.8994  0.0379 -0.2946
 2644TIP3    H2 7939   6.249   0.157   2.127  1.1884  4.4365  2.3836
 2645TIP3   OH2 7940   6.074   4.173   0.423 -0.1576 -0.4806  0.0641
 2645TIP3    H1 7941   5.999   4.136   0.470 -0.0902  1.5140  1.8541
 2645TIP3    H2 7942   6.067   4.267   0.435  1.4963 -0.0895 -1.5400
 2646TIP3   OH2 7943   2.144   0.500   3.907  0.8994  0.3638  0.4339
 2646TIP3    H1 7944   2.096   0.500   3.824  1.7904 -0.1514 -0.1032
 2646TIP3    H2 7945   2.182   0.587   3.914  0.4493  0.5551  0.5323
 2647TIP3   OH2 7946   5.220   2.743   2.377 -0.4027 -0.0244 -0.2718
 2647TIP3    H1 7947   5.298   2.768   2.428 -0.9321 -0.1072  0.6045
 2647TIP3    H2 7948   5.255   2.707   2.296  0.6495 -2.8633  1.2842
 2648TIP3   OH2 7949   1.507   5.572   2.160 -0.6337  0.3938  0.0805
 2648TIP3    H1 7950   1.574   5.591   2.225  0.6472 -0.2621 -0.9893
 2648TIP3    H2 7951   1.520   5.639   2.092 -0.8015  0.0271 -0.3161
 2649TIP3   OH2 7952   4.241   5.282   4.140 -0.1599 -0.0001 -0.0810
 2649TIP3    H1 7953   4.276   5.337   4.209 -0.1743  1.2381 -1.0369
 2649TIP3    H2 7954   4.146   5.291   4.147 -0.1479  0.5573 -0.5968
 2650TIP3   OH2 7955   4.073   5.599   4.442  0.5320  0.0022 -0.1387
 2650TIP3    H1 7956   4.089   5.619   4.349  1.6109  1.9420  0.4116
 2650TIP3    H2 7957   3.992   5.644   4.463 -0.0404 -0.9411 -0.2576
 2651TIP3   OH2 7958   4.826   2.935   5.020  0.1679  0.0319 -0.4109
 2651TIP3    H1 7959   4.821   2.945   4.925 -1.0587 -0.9889 -0.4714
 2651TIP3    H2 7960   4.920   2.942   5.040  0.5697 -1.0002 -1.8364
 2652TIP3   OH2 7961   4.600   5.447   1.206 -0.0850  0.2755  0.1378
 2652TIP3    H1 7962   4.676   5.443   1.264  1.9942  0.1664 -2.4053
 2652TIP3    H2 7963   4.548   5.520   1.240  0.9817  0.2085  2.1007
 2653TIP3   OH2 7964   0.888   2.851   3.756 -0.2632  0.0289 -0.5781
 2653TIP3    H1 7965   0.815   2.898   3.794 -1.4920 -1.0167 -1.5548
 2653TIP3    H2 7966   0.862   2.835   3.665  0.5689 -1.5505 -0.5818
 2654TIP3   OH2 7967   3.846   1.685   3.068  0.0477 -0.0132  0.2855
 2654TIP3    H1 7968   3.797   1.750   3.018 -1.7007  0.0955  2.0347
 2654TIP3    H2 7969   3.938   1.705   3.050 -0.4842  1.5694 -0.8986
 2655TIP3   OH2 7970   2.525   1.743   2.578 -0.4805 -0.3303  0.2478
 2655TIP3    H1 7971   2.561   1.665   2.536 -0.7955 -1.1436  1.4360
 2655TIP3    H2 7972   2.528   1.723   2.671 -0.4493  1.1429  0.5809
 2656TIP3   OH2 7973   3.396   0.893   2.035 -0.1401 -0.1635  0.6064
 2656TIP3    H1 7974   3.309   0.861   2.009  0.6413 -0.5779 -1.7371
 2656TIP3    H2 7975   3.416   0.845   2.115 -1.2688 -1.5500  0.1069
 2657TIP3   OH2 7976   2.831   2.662   2.958  0.2691  0.0416  0.2732
 2657TIP3    H1 7977   2.832   2.593   3.024 -0.3715  0.1044  0.3543
 2657TIP3    H2 7978   2.872   2.623   2.881 -0.0701 -0.4268  0.3277
 2658TIP3   OH2 7979   3.120   0.061   0.456  0.5786 -0.0048 -0.5899
 2658TIP3    H1 7980   3.078  -0.023   0.437  2.9679 -1.7487  1.1697
 2658TIP3    H2 7981   3.072   0.096   0.530  0.2242 -0.3555 -0.6531
 2659TIP3   OH2 7982   2.366   2.806   0.178 -0.1414 -0.5802 -0.0732
 2659TIP3    H1 7983   2.345   2.735   0.117  0.3404  0.2455 -1.2263
 2659TIP3    H2 7984   2.424   2.864   0.129 -1.0031  0.9442  0.6387
 2660TIP3   OH2 7985   2.078   4.996   4.572 -0.5015 -0.2105  0.3807
 2660TIP3    H1 7986   2.081   5.003   4.668  1.6266  1.4098  0.2643
 2660TIP3    H2 7987   2.161   4.955   4.549 -1.4072 -1.4989 -0.7685
 2661TIP3   OH2 7988   2.750   1.519   3.159  0.3720 -0.2113 -0.3335
 2661TIP3    H1 7989   2.812   1.580   3.117 -0.5501  0.5552 -0.6142
 2661TIP3    H2 7990   2.728   1.562   3.242  1.0550 -1.0199  0.2884
 2662TIP3   OH2 7991   6.171   0.662   1.754 -0.1655  0.2298 -0.1689
 2662TIP3    H1 7992   6.203   0.746   1.786 -1.3168  1.8590 -2.9912
 2662TIP3    H2 7993   6.082   0.654   1.790 -0.1289  0.2913 -0.0643
 2663TIP3   OH2 7994   2.985   1.350   4.791 -0.3949 -0.4761 -0.0261
 2663TIP3    H1 7995   3.009   1.439   4.817  0.9362 -0.8351  0.0628
 2663TIP3    H2 7996   2.891   1.353   4.777 -0.3802  0.9193  0.0824
 2664TIP3   OH2 7997   1.865   3.177   3.747  0.1156  0.7611  0.1203
 2664TIP3    H1 7998   1.883   3.086   3.769 -1.1206  0.6383  0.7001
 2664TIP3    H2 7999   1.892   3.226   3.825  0.2193  0.8247  0.0442
 2665TIP3   OH2 8000   1.417   5.922   4.426  0.1733 -0.1732  0.0561
 2665TIP3    H1 8001   1.405   6.009   4.387  0.0126  0.9064  2.3524
 2665TIP3    H2 8002   1.383   5.862   4.360 -0.9213  1.5809 -1.0897
 2666TIP3   OH2 8003   5.617   2.320   4.643  0.2034 -0.7427  0.7468
 2666TIP3    H1 8004   5.711   2.303   4.634  0.4688  1.1245 -0.5520
 2666TIP3    H2 8005   5.575   2.253   4.589  0.9601 -0.0642 -0.7430
 2667TIP3   OH2 8006   1.253   0.482   3.793  0.3325  0.2327 -0.0322
 2667TIP3    H1 8007   1.332   0.433   3.814  1.0744  0.8711 -1.2517
 2667TIP3    H2 8008   1.209   0.429   3.726  0.9153  0.9881 -1.0335
 2668TIP3   OH2 8009   0.550   3.603   4.552 -0.0706 -0.3843  0.3612
 2668TIP3    H1 8010   0.606   3.658   4.496  0.6144 -2.5700 -1.2174
 2668TIP3    H2 8011   0.578   3.514   4.534 -2.7685 -1.4600  1.0244
 2669TIP3   OH2 8012   0.020   3.705   3.318 -0.4317 -0.5404  0.0742
 2669TIP3    H1 8013  -0.036   3.744   3.250 -1.6245 -1.6300  0.4077
 2669TIP3    H2 8014   0.108   3.709   3.281 -1.1657 -2.0396 -2.0212
 2670TIP3   OH2 8015   3.611   3.415   3.690 -0.1872  0.4338  0.3092
 2670TIP3    H1 8016   3.625   3.393   3.598 -1.7038 -0.3206  0.2246
 2670TIP3    H2 8017   3.631   3.334   3.737 -0.2613  0.5662  0.5698
 2671TIP3   OH2 8018   0.219   3.072   4.456 -0.0637  0.1895 -0.0358
 2671TIP3    H1 8019   0.256   3.016   4.388  0.6718 -0.8928  1.1916
 2671TIP3    H2 8020   0.168   3.137   4.409 -0.3517 -1.0860 -1.5668
 2672TIP3   OH2 8021   4.528   5.204   4.859  0.4355  0.3713  0.2241
 2672TIP3    H1 8022   4.577   5.123   4.848 -2.4987 -1.4452 -0.7698
 2672TIP3    H2 8023   4.521   5.240   4.770  0.1725  0.6995  0.3733
 2673TIP3   OH2 8024   5.966   0.649   0.408 -0.0611 -0.0408  0.1096
 2673TIP3    H1 8025   5.971   0.661   0.313  1.7179  0.7879  0.2740
 2673TIP3    H2 8026   5.915   0.724   0.439 -2.1552 -1.2104 -0.3022
 2674TIP3   OH2 8027   0.960   3.995   1.283  0.2431 -0.4179 -0.0753
 2674TIP3    H1 8028   1.018   4.071   1.277 -2.1210  1.6458  1.4507
 2674TIP3    H2 8029   1.017   3.924   1.314  2.6745  0.4299 -2.2538
 2675TIP3   OH2 8030   2.448   3.511   5.031  0.6106  0.0940  0.1721
 2675TIP3    H1 8031   2.391   3.439   5.004  2.4527 -1.2423 -0.3122
 2675TIP3    H2 8032   2.440   3.575   4.961 -1.4083  0.6730  0.8279
 2676TIP3   OH2 8033   3.599   0.501   4.747  0.3920  0.1786  0.0951
 2676TIP3    H1 8034   3.536   0.570   4.767  0.7099  1.0391 -1.6503
 2676TIP3    H2 8035   3.557   0.420   4.777 -0.6840  0.9552  0.7289
 2677TIP3   OH2 8036   2.196   0.205   1.457 -0.5500 -0.3546 -0.3753
 2677TIP3    H1 8037   2.151   0.171   1.379 -1.8159 -0.3796  0.3498
 2677TIP3    H2 8038   2.138   0.183   1.530 -1.0546  2.6131  0.2313
 2678TIP3   OH2 8039   1.371   0.350   3.054  0.4574  0.5752 -0.2533
 2678TIP3    H1 8040   1.371   0.256   3.040 -0.8242  0.3997  0.6954
 2678TIP3    H2 8041   1.335   0.387   2.974  0.5729  0.2295 -0.4644
 2679TIP3   OH2 8042   4.558   1.906   2.340 -0.0786  0.3792  0.0251
 2679TIP3    H1 8043   4.511   1.887   2.421  0.9425  0.0929  0.5690
 2679TIP3    H2 8044   4.604   1.988   2.357  1.3679 -0.4431  0.3250
 2680TIP3   OH2 8045   5.437   2.976   0.779  0.6134  0.0681  0.2167
 2680TIP3    H1 8046   5.478   2.904   0.730  0.2357  0.2439 -0.3630
 2680TIP3    H2 8047   5.403   3.035   0.712 -0.1441  0.1849  0.6919
 2681TIP3   OH2 8048   4.941   1.639   0.961  0.6427 -0.3611 -0.4815
 2681TIP3    H1 8049   4.874   1.706   0.947  0.4153 -0.4388  0.1990
 2681TIP3    H2 8050   4.967   1.612   0.873 -0.9090 -1.0141 -0.7809
 2682TIP3   OH2 8051   4.901   3.492   0.329 -0.0912  0.0382  0.2878
 2682TIP3    H1 8052   4.837   3.556   0.297  0.6024 -0.3669 -2.0401
 2682TIP3    H2 8053   4.865   3.407   0.302  0.0599 -0.4112  1.4552
 2683TIP3   OH2 8054   5.409   5.205   4.097  0.6882 -0.0829 -0.0962
 2683TIP3    H1 8055   5.485   5.249   4.135  1.4130  0.2107 -1.7883
 2683TIP3    H2 8056   5.336   5.265   4.112  0.6951 -0.4983  1.8102
 2684TIP3   OH2 8057   3.754   1.773   2.013  0.3399  0.2031  0.1145
 2684TIP3    H1 8058   3.818   1.834   2.050  1.3469 -0.5017 -0.4052
 2684TIP3    H2 8059   3.693   1.756   2.084  0.1867  1.6129  0.3421
 2685TIP3   OH2 8060   4.569   1.482   2.891 -0.1941 -0.9947  0.2712
 2685TIP3    H1 8061   4.501   1.482   2.958  0.5407 -0.0878  1.0513
 2685TIP3    H2 8062   4.523   1.501   2.809 -0.8354 -0.0124  0.8412
 2686TIP3   OH2 8063   2.801   4.968   0.971 -0.1656  0.1970  0.3971
 2686TIP3    H1 8064   2.755   5.047   0.941 -2.6548 -0.4779  2.1054
 2686TIP3    H2 8065   2.770   4.898   0.914  2.3179  0.3736 -1.3556
 2687TIP3   OH2 8066   5.261   2.345   3.228  0.4676 -0.2337 -0.1299
 2687TIP3    H1 8067   5.254   2.411   3.297  0.5295 -0.3454 -0.0157
 2687TIP3    H2 8068   5.192   2.281   3.249  1.3641 -0.9909  0.6214
 2688TIP3   OH2 8069   1.102   3.223   0.305  0.1301  0.0171  0.5808
 2688TIP3    H1 8070   1.146   3.261   0.229 -1.2060  0.4874  0.0158
 2688TIP3    H2 8071   1.164   3.159   0.339  0.7110 -0.2972 -0.9798
 2689TIP3   OH2 8072   4.276   4.667   3.227  0.4993 -0.0445  0.1115
 2689TIP3    H1 8073   4.273   4.616   3.146  0.3882  3.1763 -2.1175
 2689TIP3    H2 8074   4.255   4.604   3.296  0.5703 -2.9652 -2.3221
 2690TIP3   OH2 8075   1.458   3.865   3.083  0.6762 -0.1872 -0.1050
 2690TIP3    H1 8076   1.528   3.927   3.105  0.7627  0.3105 -1.6835
 2690TIP3    H2 8077   1.383   3.920   3.062  0.7130 -0.6047 -1.4001
 2691TIP3   OH2 8078   5.691   5.616   3.800 -0.0608  0.0941  0.3063
 2691TIP3    H1 8079   5.617   5.598   3.858 -0.7825 -0.2900 -0.6955
 2691TIP3    H2 8080   5.762   5.644   3.858 -1.1376  0.9430  1.2506
 2692TIP3   OH2 8081   0.996   2.726   1.910  0.2380  0.6751  0.4278
 2692TIP3    H1 8082   1.023   2.635   1.900  2.1477  1.2567 -0.1082
 2692TIP3    H2 8083   1.053   2.775   1.851  1.4509  2.5462  2.9583
 2693TIP3   OH2 8084   1.026   1.811   2.843 -0.5218 -0.0624 -0.9706
 2693TIP3    H1 8085   0.938   1.776   2.861  0.0503 -1.0716 -0.0233
 2693TIP3    H2 8086   1.068   1.742   2.792  0.3557 -0.4448  0.2320
 2694TIP3   OH2 8087   3.050   3.720   4.167  0.7600  0.5227  0.3651
 2694TIP3    H1 8088   3.002   3.697   4.247 -1.4181 -1.3210 -1.3491
 2694TIP3    H2 8089   3.135   3.677   4.178  2.6638  4.4403  3.7666
 2695TIP3   OH2 8090   1.007   5.377   4.605  0.0292 -0.1204 -0.2157
 2695TIP3    H1 8091   0.999   5.419   4.691 -1.0319 -0.1212 -0.3078
 2695TIP3    H2 8092   0.921   5.388   4.565  0.2359 -0.9492 -0.9022
 2696TIP3   OH2 8093   1.524   1.124   5.153 -0.0231 -0.1872 -0.3736
 2696TIP3    H1 8094   1.529   1.122   5.249  0.3326  2.7634 -0.2568
 2696TIP3    H2 8095   1.608   1.089   5.124  1.2618  1.9238  0.5369
 2697TIP3   OH2 8096   2.398   4.677   2.060  0.2158  0.0769 -0.0233
 2697TIP3    H1 8097   2.324   4.669   2.119 -0.1262 -2.0737 -0.6488
 2697TIP3    H2 8098   2.389   4.765   2.022 -2.0371 -0.1105 -0.0893
 2698TIP3   OH2 8099   5.829   2.603   3.053 -0.3716 -0.1813  0.3672
 2698TIP3    H1 8100   5.892   2.619   3.123 -1.4513 -0.8491  1.5333
 2698TIP3    H2 8101   5.770   2.537   3.089 -0.1746 -1.5690 -1.6859
 2699TIP3   OH2 8102   0.721   4.439   3.971 -0.1119  0.3727  0.3374
 2699TIP3    H1 8103   0.641   4.420   4.019  1.3532 -1.6291  2.1983
 2699TIP3    H2 8104   0.773   4.494   4.030  0.4005  0.6330 -0.3323
 2700TIP3   OH2 8105   2.529   3.432   3.723  0.3606 -0.3980  0.7446
 2700TIP3    H1 8106   2.534   3.380   3.643  1.1956  0.4302  0.2309
 2700TIP3    H2 8107   2.577   3.382   3.789  2.1405  0.2028 -0.0392
 2701TIP3   OH2 8108   3.875   1.849   3.976 -0.2283 -0.5632  0.2074
 2701TIP3    H1 8109   3.820   1.801   3.914  1.2032 -0.5572 -1.1067
 2701TIP3    H2 8110   3.964   1.841   3.942  0.5046  0.1166  1.8450
 2702TIP3   OH2 8111   1.508   0.599   4.423  0.3768  0.0166 -0.2329
 2702TIP3    H1 8112   1.477   0.536   4.488 -0.9807 -0.6883 -1.4923
 2702TIP3    H2 8113   1.603   0.590   4.422  0.3492 -0.5607  1.0242
 2703TIP3   OH2 8114   1.615   3.350   2.363 -0.1899 -0.0782  0.2417
 2703TIP3    H1 8115   1.673   3.277   2.386 -0.6557 -1.5095 -2.6849
 2703TIP3    H2 8116   1.650   3.385   2.281 -1.8852  0.8025 -0.1649
 2704TIP3   OH2 8117   6.014   5.202   2.733  0.2466  0.1377  0.1848
 2704TIP3    H1 8118   5.987   5.279   2.684 -1.3850  0.9503  2.2041
 2704TIP3    H2 8119   6.103   5.222   2.762  0.6757  0.2604 -1.1503
 2705TIP3   OH2 8120   3.172   2.627   4.558  0.0753  0.0605 -0.0897
 2705TIP3    H1 8121   3.259   2.617   4.597  0.7514  2.8662 -0.6632
 2705TIP3    H2 8122   3.176   2.573   4.479  0.9980 -0.4770  0.2999
 2706TIP3   OH2 8123   4.630   4.825   1.951  0.7608  0.1218  0.6451
 2706TIP3    H1 8124   4.691   4.894   1.926  0.3464  0.2134 -0.1379
 2706TIP3    H2 8125   4.545   4.869   1.957  0.0574 -0.6692 -2.0615
 2707TIP3   OH2 8126   4.799   1.312   0.805  0.2761  0.5053 -0.0885
 2707TIP3    H1 8127   4.828   1.345   0.890 -1.0521  0.9872  0.1893
 2707TIP3    H2 8128   4.881   1.287   0.761  1.0703  1.2191  0.9140
 2708TIP3   OH2 8129   6.170   5.635   3.006 -0.1877  0.2542 -0.7571
 2708TIP3    H1 8130   6.103   5.603   3.067  1.8442 -0.9024  1.0148
 2708TIP3    H2 8131   6.128   5.633   2.920 -2.7849  0.7546  0.4086
 2709TIP3   OH2 8132   3.501   4.819   3.821 -0.1524 -0.0550  0.0761
 2709TIP3    H1 8133   3.519   4.767   3.899 -2.0229 -0.3205  0.3846
 2709TIP3    H2 8134   3.580   4.872   3.808  0.5368 -0.6496  1.6189
 2710TIP3   OH2 8135   5.170   2.660   1.818  0.4067  0.2651  0.1554
 2710TIP3    H1 8136   5.139   2.640   1.906  1.7111  0.2141  0.6162
 2710TIP3    H2 8137   5.168   2.576   1.772  0.8431  0.0649  0.4960
 2711TIP3   OH2 8138   0.292   3.989   2.518  0.4316 -0.0117 -0.3705
 2711TIP3    H1 8139   0.214   3.992   2.463  0.2705 -2.3210 -0.3459
 2711TIP3    H2 8140   0.363   4.019   2.462 -0.1927  0.5322 -0.8874
 2712TIP3   OH2 8141   1.515   4.048   4.659  0.2612 -0.9657  0.1461
 2712TIP3    H1 8142   1.569   3.983   4.704  1.5525  0.2438  0.4282
 2712TIP3    H2 8143   1.544   4.132   4.695 -0.3937 -0.1314 -1.1891
 2713TIP3   OH2 8144   6.273   4.325   2.575  0.5527 -0.0428  0.1833
 2713TIP3    H1 8145   6.239   4.353   2.490  0.3595  2.0974  0.9026
 2713TIP3    H2 8146   6.368   4.325   2.564  0.4960 -1.0204 -0.3771
 2714TIP3   OH2 8147   0.537   5.791   2.275  0.0521  0.0049 -0.5010
 2714TIP3    H1 8148   0.503   5.721   2.331 -0.1780 -0.5710 -1.3410
 2714TIP3    H2 8149   0.480   5.866   2.293 -0.2169 -0.2721 -0.1962
 2715TIP3   OH2 8150   1.612   0.887   1.660 -0.2454 -0.0097  0.4160
 2715TIP3    H1 8151   1.574   0.847   1.738 -0.8181  1.0759  0.6986
 2715TIP3    H2 8152   1.537   0.910   1.604 -0.1206  2.5418  1.1712
 2716TIP3   OH2 8153   3.985   5.554   0.880 -0.4427  0.0639  0.4701
 2716TIP3    H1 8154   4.053   5.540   0.946 -0.4717  2.6708  1.1685
 2716TIP3    H2 8155   3.910   5.587   0.929 -1.7299 -1.2857 -0.4939
 2717TIP3   OH2 8156   1.702   2.534   4.272  0.2662 -0.4488 -0.0004
 2717TIP3    H1 8157   1.792   2.541   4.304  0.3816  0.6285 -0.5117
 2717TIP3    H2 8158   1.694   2.605   4.208 -0.2155 -1.9678 -1.7113
 2718TIP3   OH2 8159   4.401   4.949   4.674  0.4790 -0.3319 -0.2530
 2718TIP3    H1 8160   4.465   4.892   4.631  1.8009  1.1051 -0.2736
 2718TIP3    H2 8161   4.398   4.918   4.764  1.0587 -0.5515 -0.3072
 2719TIP3   OH2 8162   2.390   3.489   4.732  0.4607 -0.0949 -0.1729
 2719TIP3    H1 8163   2.443   3.546   4.675  0.8202 -0.0281  0.2259
 2719TIP3    H2 8164   2.315   3.465   4.678  0.7540  0.0437 -0.6480
 2720TIP3   OH2 8165   2.569   4.558   2.306 -0.4382 -0.1177 -0.1839
 2720TIP3    H1 8166   2.501   4.567   2.239 -0.8393  0.5334  0.3111
 2720TIP3    H2 8167   2.650   4.578   2.259 -0.8459  1.6772 -0.1856
 2721TIP3   OH2 8168   2.605   3.819   4.643 -0.0007  0.2454 -0.1607
 2721TIP3    H1 8169   2.668   3.766   4.692 -1.0094 -0.1594  0.7229
 2721TIP3    H2 8170   2.656   3.854   4.569  0.7970 -1.5471 -0.5026
 2722TIP3   OH2 8171   4.728   5.726   2.558  0.4527  0.2036  0.7966
 2722TIP3    H1 8172   4.722   5.768   2.472 -0.1378 -0.2338  0.6243
 2722TIP3    H2 8173   4.670   5.777   2.614 -0.0114 -0.1814  0.6674
 2723TIP3   OH2 8174   2.120  -0.001   2.695 -0.1002  0.5041  0.1510
 2723TIP3    H1 8175   2.205  -0.030   2.728  0.4665  2.5252  0.6131
 2723TIP3    H2 8176   2.095   0.070   2.754 -2.1325 -0.0256  0.0131
 2724TIP3   OH2 8177   3.958   5.362   3.593  0.1862  0.1176  0.4168
 2724TIP3    H1 8178   3.948   5.282   3.644  2.8946 -0.5085  0.1461
 2724TIP3    H2 8179   3.996   5.425   3.654  0.8028  0.2412 -0.0713
 2725TIP3   OH2 8180   0.409   5.521   3.160 -0.4122  0.0812  0.4057
 2725TIP3    H1 8181   0.504   5.510   3.169 -0.6028 -1.3438  0.9926
 2725TIP3    H2 8182   0.380   5.553   3.246 -0.7011 -1.6525  1.0102
 2726TIP3   OH2 8183   5.871   0.751   4.309 -0.7713 -0.2207  0.1256
 2726TIP3    H1 8184   5.835   0.703   4.384 -0.8764 -1.4157 -0.6651
 2726TIP3    H2 8185   5.803   0.814   4.286 -1.5812 -1.1672 -0.1576
 2727TIP3   OH2 8186   5.510   3.680   2.480 -0.0014 -0.3368 -0.2988
 2727TIP3    H1 8187   5.586   3.650   2.430  0.9684 -1.4250  1.7203
 2727TIP3    H2 8188   5.498   3.613   2.547 -1.5394  0.8256  0.6471
 2728TIP3   OH2 8189   0.061   5.744   2.444 -0.3253 -0.8562  0.3635
 2728TIP3    H1 8190   0.017   5.742   2.529  0.0095 -1.7563  0.5235
 2728TIP3    H2 8191   0.102   5.831   2.441  0.0208 -0.9747  1.3088
 2729TIP3   OH2 8192   3.609   0.695   3.107  0.0955 -0.0154  0.3521
 2729TIP3    H1 8193   3.629   0.722   3.196  1.1353  0.8360 -0.1146
 2729TIP3    H2 8194   3.694   0.694   3.062 -0.6535  2.1945 -1.3140
 2730TIP3   OH2 8195   4.711   1.960   3.745  0.2722  0.4692  0.0203
 2730TIP3    H1 8196   4.781   1.916   3.698  0.4684  1.3818 -0.5736
 2730TIP3    H2 8197   4.739   2.052   3.749 -0.3880  0.6514  0.7112
 2731TIP3   OH2 8198   0.836   4.671   5.107  0.1883 -0.2601 -0.5520
 2731TIP3    H1 8199   0.868   4.705   5.191  1.5436 -0.1068 -1.1011
 2731TIP3    H2 8200   0.745   4.647   5.124  0.4081 -0.1395  0.9335
 2732TIP3   OH2 8201   0.457   1.262   1.127 -0.4419  0.2093 -0.4513
 2732TIP3    H1 8202   0.428   1.320   1.198 -0.1985  0.0089 -0.1837
 2732TIP3    H2 8203   0.460   1.175   1.168  0.1825  0.1703 -0.5725
 2733TIP3   OH2 8204   1.858   3.451   3.249 -0.4606  0.2525  0.1115
 2733TIP3    H1 8205   1.845   3.458   3.344 -0.2180 -0.7128  0.2276
 2733TIP3    H2 8206   1.928   3.386   3.239 -1.1792 -0.4044 -0.7692
 2734TIP3   OH2 8207   3.336   1.098   2.520  0.1387 -0.2012 -0.1149
 2734TIP3    H1 8208   3.338   1.161   2.448 -0.9193 -0.1847 -0.1495
 2734TIP3    H2 8209   3.381   1.142   2.592  0.6797  0.0158 -0.5854
 2735TIP3   OH2 8210   3.335   3.065   4.853  0.0423 -0.5350  0.4514
 2735TIP3    H1 8211   3.401   3.129   4.880 -0.3346  0.0246  0.0751
 2735TIP3    H2 8212   3.319   3.085   4.761 -2.7496  1.2943  1.1855
 2736TIP3   OH2 8213   4.022   3.653   3.395 -0.5772 -0.4549 -0.1276
 2736TIP3    H1 8214   3.996   3.632   3.305  0.1970  0.7019 -0.6449
 2736TIP3    H2 8215   4.007   3.747   3.402 -1.3469 -0.6595  1.2161
 2737TIP3   OH2 8216   5.881   2.655   3.694  0.2072 -0.1565  0.3443
 2737TIP3    H1 8217   5.855   2.595   3.764 -2.1324 -0.3166 -0.5492
 2737TIP3    H2 8218   5.937   2.720   3.736  2.1356 -2.4256  1.5314
 2738TIP3   OH2 8219   0.465   2.798   1.248  0.2214 -0.3216  0.2730
 2738TIP3    H1 8220   0.532   2.847   1.200  0.0689 -0.4000 -0.0258
 2738TIP3    H2 8221   0.512   2.758   1.321  0.4884 -0.3103  0.1100
 2739TIP3   OH2 8222   1.410   2.375   0.095  0.1523  0.1539  0.2962
 2739TIP3    H1 8223   1.474   2.389   0.165 -0.2853 -1.6155  1.0957
 2739TIP3    H2 8224   1.459   2.330   0.027  0.7273  2.3887 -0.8584
 2740TIP3   OH2 8225   3.450   4.068   4.895 -0.7332 -0.4599 -0.2066
 2740TIP3    H1 8226   3.372   4.013   4.896 -0.5354 -0.7535 -0.6971
 2740TIP3    H2 8227   3.516   4.016   4.941 -1.2397  0.4270  1.5991
 2741TIP3   OH2 8228   5.066   5.385   2.653 -0.2295  0.3975 -0.1972
 2741TIP3    H1 8229   4.977   5.381   2.689  0.2295  1.3905  1.1334
 2741TIP3    H2 8230   5.074   5.475   2.621 -0.0010  0.0472 -1.1435
 2742TIP3   OH2 8231   3.589   2.564   3.062  0.1309  0.4054 -0.3012
 2742TIP3    H1 8232   3.541   2.628   3.010  0.5843 -0.4953 -1.8806
 2742TIP3    H2 8233   3.630   2.506   2.998  3.3616  1.0864  0.9469
 2743TIP3   OH2 8234   1.511   5.007   1.813  0.1761  0.2906  0.9023
 2743TIP3    H1 8235   1.447   5.060   1.765 -0.9469 -0.4471  1.5577
 2743TIP3    H2 8236   1.494   4.918   1.784  0.2903 -0.0172  1.7684
 2744TIP3   OH2 8237   3.350   3.460   3.592 -0.3397 -0.7764  0.2227
 2744TIP3    H1 8238   3.315   3.545   3.568 -1.2759 -1.6690 -1.8085
 2744TIP3    H2 8239   3.439   3.478   3.622 -1.4045  1.1966  2.5665
 2745TIP3   OH2 8240   2.728   1.225   3.247  0.0718 -0.5629  0.0440
 2745TIP3    H1 8241   2.799   1.205   3.307  1.6535 -2.1782 -2.2351
 2745TIP3    H2 8242   2.753   1.307   3.205  0.3061 -0.8151 -0.3156
 2746TIP3   OH2 8243   1.246   0.784   0.779 -0.3740  0.5529  0.8376
 2746TIP3    H1 8244   1.267   0.690   0.772 -0.0316  0.6274  0.8272
 2746TIP3    H2 8245   1.158   0.786   0.815 -0.7667  0.2057 -0.0596
 2747TIP3   OH2 8246   2.471   5.729   2.541  0.2760  0.2490  0.0368
 2747TIP3    H1 8247   2.562   5.759   2.547 -0.4649  2.4944  0.9614
 2747TIP3    H2 8248   2.478   5.636   2.519  2.7566  0.7008 -1.4758
 2748TIP3   OH2 8249   3.524   5.526   0.093  0.1103  0.4102  0.3299
 2748TIP3    H1 8250   3.585   5.548   0.164  3.2855  0.1687 -2.0989
 2748TIP3    H2 8251   3.528   5.430   0.087 -0.0321  0.4365 -0.2382
 2749TIP3   OH2 8252   0.355   3.124   3.087  0.1656  0.1611  0.1103
 2749TIP3    H1 8253   0.351   3.121   2.992  0.7461 -0.1204  0.0879
 2749TIP3    H2 8254   0.427   3.184   3.107 -1.3369  1.9353  0.4116
 2750TIP3   OH2 8255   1.464   0.874   4.294  0.2053  0.0814 -0.3169
 2750TIP3    H1 8256   1.421   0.794   4.322  1.1357  0.0273  1.0422
 2750TIP3    H2 8257   1.540   0.844   4.244  0.4407  0.1123  0.0191
 2751TIP3   OH2 8258   3.568   0.238   1.990 -0.5193 -0.0930  0.1523
 2751TIP3    H1 8259   3.641   0.203   2.040 -1.2813 -0.2607  1.1718
 2751TIP3    H2 8260   3.537   0.313   2.040 -3.2118 -2.0352  1.6389
 2752TIP3   OH2 8261   4.882   1.351   4.387  0.0980  0.1627  0.5243
 2752TIP3    H1 8262   4.850   1.269   4.424 -0.1298  0.6584  1.4549
 2752TIP3    H2 8263   4.821   1.417   4.419  0.6289  0.7785  0.2803
 2753TIP3   OH2 8264   2.121   4.215   2.068 -0.1380 -0.2672 -0.1672
 2753TIP3    H1 8265   2.067   4.226   1.989  1.6705  2.4409 -1.1763
 2753TIP3    H2 8266   2.204   4.181   2.036  0.2833 -0.0869  0.7100
 2754TIP3   OH2 8267   6.093   4.007   3.105  0.2599 -0.4436  0.3183
 2754TIP3    H1 8268   6.016   3.969   3.062 -0.0187  0.2570  0.1698
 2754TIP3    H2 8269   6.083   3.984   3.197 -0.2664 -0.1553  0.3416
 2755TIP3   OH2 8270   5.695   0.930   4.216  0.3477  0.4882  0.1014
 2755TIP3    H1 8271   5.709   0.969   4.129 -1.2966 -0.2417 -0.5306
 2755TIP3    H2 8272   5.657   1.000   4.268  1.9338  1.1200  0.4536
 2756TIP3   OH2 8273   1.648   2.359   3.472  0.4341 -0.0649  0.0070
 2756TIP3    H1 8274   1.708   2.410   3.418  0.0402 -1.3926 -1.7436
 2756TIP3    H2 8275   1.687   2.362   3.560  1.2264  1.9096 -0.3719
 2757TIP3   OH2 8276   5.457   4.296   1.375  0.6400 -0.5894  0.3981
 2757TIP3    H1 8277   5.455   4.319   1.467  0.5499 -0.7416  0.4340
 2757TIP3    H2 8278   5.440   4.378   1.329 -0.3823 -0.7088  0.5392
 2758TIP3   OH2 8279   2.572   0.789   4.642  0.5724  0.0966 -0.5340
 2758TIP3    H1 8280   2.646   0.850   4.650 -1.2316  2.4342 -0.6494
 2758TIP3    H2 8281   2.512   0.816   4.712 -1.2937 -0.0339 -2.0242
 2759TIP3   OH2 8282   0.983   4.979   0.899  0.1148 -0.0627 -0.0951
 2759TIP3    H1 8283   1.051   4.938   0.953  2.4621  1.5212 -1.6603
 2759TIP3    H2 8284   1.021   4.982   0.811 -1.6691  1.6332 -0.8769
 2760TIP3   OH2 8285   1.908   3.267   0.558 -0.0973 -0.3117  0.0080
 2760TIP3    H1 8286   1.823   3.303   0.583  0.4066  0.7240  0.2474
 2760TIP3    H2 8287   1.895   3.233   0.469 -0.0345  2.3835 -1.0987
 2761TIP3   OH2 8288   1.016   3.721   4.598 -0.2134  0.0648  0.0284
 2761TIP3    H1 8289   0.943   3.693   4.652  0.0259 -0.6284  0.0052
 2761TIP3    H2 8290   1.093   3.680   4.638  0.3011  1.5590  0.6291
 2762TIP3   OH2 8291   5.272   5.577   1.438 -0.0306  0.8956  0.1116
 2762TIP3    H1 8292   5.210   5.650   1.439 -0.6130  0.3987  0.7076
 2762TIP3    H2 8293   5.272   5.548   1.347  0.2807  1.6940 -0.1574
 2763TIP3   OH2 8294   0.103   0.137   2.141 -0.0227 -0.4551  0.3179
 2763TIP3    H1 8295   0.160   0.160   2.214  0.8159  0.5472 -0.6161
 2763TIP3    H2 8296   0.107   0.042   2.136  1.9845 -0.3907 -0.0404
 2764TIP3   OH2 8297   1.585   0.602   0.770 -0.1032  0.1457  0.5175
 2764TIP3    H1 8298   1.507   0.562   0.807 -0.4613  0.0511 -0.3007
 2764TIP3    H2 8299   1.568   0.604   0.675  0.7549  0.3999  0.3568
 2765TIP3   OH2 8300   1.244   4.918   0.162  0.2614 -0.6934  0.4420
 2765TIP3    H1 8301   1.309   4.967   0.111  0.3027 -0.7470  0.4438
 2765TIP3    H2 8302   1.160   4.959   0.139  0.1111 -1.5994 -0.7311
 2766TIP3   OH2 8303   5.122   5.435   1.819  0.1663  0.0409 -0.6095
 2766TIP3    H1 8304   5.135   5.527   1.795 -0.4466  0.9585  2.1991
 2766TIP3    H2 8305   5.029   5.429   1.841  0.1929 -1.2858 -0.7727
 2767TIP3   OH2 8306   5.455   1.739   4.091  0.0022  0.0047  0.0835
 2767TIP3    H1 8307   5.527   1.709   4.146  0.2127  2.1482  1.0327
 2767TIP3    H2 8308   5.400   1.661   4.080  1.3816 -1.1525  1.0289
 2768TIP3   OH2 8309   5.600   2.799   1.531  0.2746  0.3285  0.3308
 2768TIP3    H1 8310   5.643   2.785   1.615 -1.8358 -0.4546  1.3479
 2768TIP3    H2 8311   5.588   2.712   1.495 -1.9161  0.3403  0.8943
 2769TIP3   OH2 8312   2.592   2.414   1.281 -0.4404  0.6697  0.0196
 2769TIP3    H1 8313   2.499   2.400   1.303 -0.4249 -0.0500 -0.3518
 2769TIP3    H2 8314   2.631   2.327   1.287  0.0118  0.8102 -0.7758
 2770TIP3   OH2 8315   5.075   1.919   1.610  0.2335  0.5083 -0.4063
 2770TIP3    H1 8316   5.135   1.847   1.626 -0.7553  0.1623  2.1364
 2770TIP3    H2 8317   4.988   1.878   1.605 -0.1626  1.3497 -0.6534
 2771TIP3   OH2 8318   4.447   2.729   2.776 -0.0122  0.2395 -0.2407
 2771TIP3    H1 8319   4.481   2.818   2.764  0.6514 -0.1633 -1.5418
 2771TIP3    H2 8320   4.523   2.672   2.762 -0.1634 -0.5073  1.7656
 2772TIP3   OH2 8321   1.287   5.830   0.567 -1.3307  0.7339  0.1840
 2772TIP3    H1 8322   1.300   5.891   0.494  1.4728  0.0602 -0.0160
 2772TIP3    H2 8323   1.280   5.744   0.525  2.4287  0.0422  0.5584
 2773TIP3   OH2 8324   4.949   3.356   0.859  0.1619 -0.2216  0.0104
 2773TIP3    H1 8325   4.988   3.444   0.860 -0.2027 -0.0208  2.3573
 2773TIP3    H2 8326   4.912   3.346   0.947 -3.4945 -1.1054 -1.4552
 2774TIP3   OH2 8327   0.924   1.648   3.283 -0.4296 -0.2003 -0.3255
 2774TIP3    H1 8328   0.982   1.611   3.215 -0.1402 -1.0690  0.3673
 2774TIP3    H2 8329   0.930   1.742   3.270 -0.1090 -0.3313 -1.2904
 2775TIP3   OH2 8330   3.774   2.945   3.624  0.8549 -1.0625  0.1567
 2775TIP3    H1 8331   3.846   3.000   3.652  0.5640 -0.9768  0.7630
 2775TIP3    H2 8332   3.796   2.918   3.535 -0.3032  2.3273 -1.2919
 2776TIP3   OH2 8333   1.049   5.049   5.166  0.2223  0.1776 -0.2411
 2776TIP3    H1 8334   1.020   5.136   5.139  0.0954  0.6382  1.2546
 2776TIP3    H2 8335   0.999   4.989   5.112 -0.2873  1.0271 -0.7396
 2777TIP3   OH2 8336   3.326   0.611   4.795  0.1502  0.0003  0.5674
 2777TIP3    H1 8337   3.303   0.547   4.727  0.0270  0.1593  0.4586
 2777TIP3    H2 8338   3.244   0.656   4.814  0.0344 -0.5093  1.3157
 2778TIP3   OH2 8339   1.883   1.756   2.157 -0.2733  0.0311  1.1797
 2778TIP3    H1 8340   1.972   1.787   2.139 -0.3220 -1.4063 -2.2027
 2778TIP3    H2 8341   1.839   1.832   2.195  1.2075  2.3075 -1.2613
 2779TIP3   OH2 8342   2.426   4.540   4.967  0.0205  0.0201 -0.4180
 2779TIP3    H1 8343   2.430   4.466   5.028  0.4404  0.7997  0.5318
 2779TIP3    H2 8344   2.425   4.499   4.880 -0.7295 -1.1251  0.0997
 2780TIP3   OH2 8345   3.240   1.425   0.492  0.3562  0.1381 -0.0864
 2780TIP3    H1 8346   3.228   1.520   0.497  1.3912  0.2357  0.7909
 2780TIP3    H2 8347   3.325   1.414   0.450  0.1717 -0.4195 -0.3266
 2781TIP3   OH2 8348   3.518   5.493   4.980 -0.1440  0.0497 -0.1018
 2781TIP3    H1 8349   3.581   5.560   4.951  0.1687 -0.5539 -0.8623
 2781TIP3    H2 8350   3.447   5.543   5.021  0.1964  0.8353 -0.4399
 2782TIP3   OH2 8351   0.514   4.431   1.771  0.6931  0.0911 -0.0243
 2782TIP3    H1 8352   0.572   4.496   1.811  1.8758 -0.5820 -0.5830
 2782TIP3    H2 8353   0.426   4.461   1.792  1.1948  2.0306 -0.5121
 2783TIP3   OH2 8354   5.649   3.624   1.273  0.4764  0.3095  0.0956
 2783TIP3    H1 8355   5.559   3.630   1.242 -0.6524  0.1125  3.0578
 2783TIP3    H2 8356   5.702   3.634   1.194 -2.0923  1.2700 -1.6316
 2784TIP3   OH2 8357   4.790   2.869   1.871  0.4865  0.4424 -0.5847
 2784TIP3    H1 8358   4.876   2.855   1.913  1.4708 -0.6713 -2.8082
 2784TIP3    H2 8359   4.809   2.871   1.777 -1.9022  0.5876 -1.1254
 2785TIP3   OH2 8360   3.721   3.355   0.256 -0.0654  0.7810 -0.0759
 2785TIP3    H1 8361   3.780   3.424   0.224  0.8043  0.0061 -0.1700
 2785TIP3    H2 8362   3.769   3.313   0.327 -0.2470 -0.2661 -0.5555
 2786TIP3   OH2 8363   5.689   5.256   2.479 -0.0937  0.5717 -0.7790
 2786TIP3    H1 8364   5.625   5.195   2.444  1.3680 -0.5883 -1.5142
 2786TIP3    H2 8365   5.748   5.274   2.405 -0.1930  2.5110 -0.4496
 2787TIP3   OH2 8366   0.740   0.226   0.985  0.0999  0.5770 -0.7287
 2787TIP3    H1 8367   0.820   0.228   1.037  0.7900 -1.7447 -1.5724
 2787TIP3    H2 8368   0.670   0.215   1.050  0.8858 -1.6297 -0.1670
 2788TIP3   OH2 8369   0.280   1.150   5.079 -0.1386  0.2674  0.4704
 2788TIP3    H1 8370   0.335   1.094   5.024  0.0927  0.8860  0.0701
 2788TIP3    H2 8371   0.316   1.140   5.168  1.5070  1.7064  0.0226
 2789TIP3   OH2 8372   1.802   5.596   1.178 -0.3980 -0.4782  0.0203
 2789TIP3    H1 8373   1.737   5.579   1.110  0.1419 -1.3675 -0.2886
 2789TIP3    H2 8374   1.807   5.515   1.229 -0.5222  0.0454  0.8970
 2790TIP3   OH2 8375   1.221   2.766   2.778  0.1285  0.0971  0.5967
 2790TIP3    H1 8376   1.278   2.757   2.701 -0.1712 -0.0726  0.3894
 2790TIP3    H2 8377   1.281   2.769   2.852  0.4252  0.2965  0.3518
 2791TIP3   OH2 8378   3.911   5.310   5.000 -0.2811  0.2845 -0.5838
 2791TIP3    H1 8379   3.984   5.329   5.059 -0.1119 -0.9181 -0.3765
 2791TIP3    H2 8380   3.952   5.262   4.927 -0.9419 -1.0005 -0.1380
 2792TIP3   OH2 8381   5.894   1.882   2.963 -0.0157 -0.0206 -0.1403
 2792TIP3    H1 8382   5.848   1.924   2.890  0.8653 -0.4969 -0.9953
 2792TIP3    H2 8383   5.965   1.943   2.984  0.5073 -0.4666 -0.5560
 2793TIP3   OH2 8384   5.279   1.335   4.395 -0.8066 -0.4327 -0.1356
 2793TIP3    H1 8385   5.357   1.294   4.358 -1.2384 -0.9691 -0.4646
 2793TIP3    H2 8386   5.206   1.283   4.361 -1.3213  0.1861  0.0062
 2794TIP3   OH2 8387   0.643   3.474   0.021 -0.0860  0.2934 -0.5743
 2794TIP3    H1 8388   0.561   3.452  -0.024  0.6605 -0.9793 -1.3513
 2794TIP3    H2 8389   0.638   3.569   0.033 -0.7509  0.5505 -2.4796
 2795TIP3   OH2 8390   1.396   4.228   1.963  0.8943  0.6896  0.2687
 2795TIP3    H1 8391   1.415   4.283   2.039 -1.1235  1.8287  0.0293
 2795TIP3    H2 8392   1.323   4.173   1.991 -0.4936  1.7616 -1.0562
 2796TIP3   OH2 8393   2.861   5.930   4.422  0.0967 -0.3058 -0.6703
 2796TIP3    H1 8394   2.860   6.012   4.472 -2.5126  0.1961 -1.3916
 2796TIP3    H2 8395   2.798   5.874   4.467 -0.5360 -0.7149 -2.0112
 2797TIP3   OH2 8396   5.191   0.166   2.652  0.3623  0.1975 -0.2274
 2797TIP3    H1 8397   5.121   0.202   2.705 -0.3473 -1.0238 -0.2822
 2797TIP3    H2 8398   5.247   0.240   2.631 -0.1692  0.9605  0.9555
 2798TIP3   OH2 8399   4.146   1.135   0.326 -0.3854  0.4100 -0.6588
 2798TIP3    H1 8400   4.134   1.045   0.357 -1.6175  0.6228 -0.4585
 2798TIP3    H2 8401   4.169   1.126   0.234  0.4429 -0.1394 -0.4052
 2799TIP3   OH2 8402   1.218   3.447   4.936 -0.0041  0.2389  0.2563
 2799TIP3    H1 8403   1.238   3.534   4.968  0.8564  0.3340 -0.4897
 2799TIP3    H2 8404   1.172   3.404   5.008  0.6007  0.9134  1.0581
 2800TIP3   OH2 8405   6.035   0.250   5.188  0.4479 -0.3725 -0.2193
 2800TIP3    H1 8406   6.055   0.339   5.158  0.5204 -0.6179 -0.9324
 2800TIP3    H2 8407   5.939   0.247   5.193  0.4651 -0.1017  0.3051
 2801TIP3   OH2 8408   4.551   1.829   0.284 -0.1261 -0.1259 -0.1965
 2801TIP3    H1 8409   4.577   1.918   0.306  1.6796  0.5945 -4.3234
 2801TIP3    H2 8410   4.455   1.832   0.284 -0.1125  1.5058  0.6908
 2802TIP3   OH2 8411   2.450   2.668   3.331  0.4234 -0.2352  0.0827
 2802TIP3    H1 8412   2.541   2.653   3.304  0.4706 -1.2531  0.7395
 2802TIP3    H2 8413   2.424   2.586   3.373 -0.3027  0.5885  1.2974
 2803TIP3   OH2 8414   1.259   3.298   1.931 -0.0555 -0.5706  0.4090
 2803TIP3    H1 8415   1.219   3.218   1.897 -2.6434  0.9687 -0.4369
 2803TIP3    H2 8416   1.188   3.362   1.932  1.8290  1.6516  1.3647
 2804TIP3   OH2 8417   4.385   4.605   0.339  0.5788 -0.2576  0.2267
 2804TIP3    H1 8418   4.295   4.616   0.370  0.5428 -0.4913  0.2092
 2804TIP3    H2 8419   4.378   4.606   0.244  0.5634 -0.5155  0.2247
 2805TIP3   OH2 8420   3.053   2.896   0.796 -0.6103  0.2833 -0.0211
 2805TIP3    H1 8421   2.976   2.952   0.795 -2.4578 -2.0482  0.9610
 2805TIP3    H2 8422   3.101   2.923   0.875 -1.6718  0.2664  0.6537
 2806TIP3   OH2 8423   0.024   2.576   4.701  0.3819 -0.1873 -0.4402
 2806TIP3    H1 8424  -0.018   2.635   4.638 -2.1446 -1.6586 -0.2708
 2806TIP3    H2 8425   0.118   2.590   4.689 -0.0445  0.6014 -3.5183
 2807TIP3   OH2 8426   4.695   0.807   1.805  0.6037 -0.3307  0.6158
 2807TIP3    H1 8427   4.773   0.789   1.753 -0.3665  1.4228 -1.6637
 2807TIP3    H2 8428   4.687   0.903   1.804 -1.6438 -0.4565  0.6077
 2808TIP3   OH2 8429   6.317   2.786   3.527  0.4728  0.0419  0.1459
 2808TIP3    H1 8430   6.335   2.694   3.506 -1.1474  0.3940 -3.6014
 2808TIP3    H2 8431   6.221   2.791   3.530  0.5469  1.4607  1.5301
 2809TIP3   OH2 8432   2.223   3.943   3.476 -0.0206 -0.7262  0.3441
 2809TIP3    H1 8433   2.217   4.038   3.486 -0.3653 -0.7255  0.1569
 2809TIP3    H2 8434   2.273   3.913   3.552  0.5179 -0.3424  0.1497
 2810TIP3   OH2 8435   3.922   2.795   2.655 -0.1531 -0.3238  0.0879
 2810TIP3    H1 8436   3.907   2.885   2.625  2.5306  0.5120  0.8926
 2810TIP3    H2 8437   3.925   2.743   2.575 -1.4131  0.3331 -0.4191
 2811TIP3   OH2 8438   0.423   2.491   3.152  0.0948  0.0741 -0.0152
 2811TIP3    H1 8439   0.426   2.450   3.238 -3.3884  1.2312  0.8378
 2811TIP3    H2 8440   0.436   2.584   3.170 -1.3824  0.4211 -0.5559
 2812TIP3   OH2 8441   3.820   1.846   0.712 -0.2843 -0.3619 -0.1243
 2812TIP3    H1 8442   3.798   1.878   0.799 -0.5925 -0.2467 -0.2440
 2812TIP3    H2 8443   3.839   1.753   0.724  2.7478  0.2454  0.6278
 2813TIP3   OH2 8444   3.452   3.677   0.546 -0.2489 -0.0768 -0.1169
 2813TIP3    H1 8445   3.496   3.704   0.465  0.9186 -1.2108  0.1035
 2813TIP3    H2 8446   3.387   3.613   0.517 -3.5963  3.2740 -0.7436
 2814TIP3   OH2 8447   3.320   4.837   3.208 -0.1568 -0.0534 -0.0642
 2814TIP3    H1 8448   3.278   4.902   3.153  0.0429  0.1681  0.0450
 2814TIP3    H2 8449   3.256   4.766   3.214 -1.1935  0.9635  1.4419
 2815TIP3   OH2 8450   6.207   0.546   1.525 -0.1651  0.1968 -0.3998
 2815TIP3    H1 8451   6.160   0.570   1.605  1.1425  2.4002 -0.2267
 2815TIP3    H2 8452   6.139   0.510   1.467 -1.5109  0.5099  0.9166
 2816TIP3   OH2 8453   3.581   4.193   4.419 -0.0438 -0.1423  0.0561
 2816TIP3    H1 8454   3.603   4.104   4.447  0.0089 -0.6497 -1.5193
 2816TIP3    H2 8455   3.613   4.200   4.329 -1.3250  0.9770 -0.3719
 2817TIP3   OH2 8456   6.296   1.689   2.340 -0.5397  0.1939  0.4391
 2817TIP3    H1 8457   6.296   1.593   2.338 -0.7026  0.2029 -0.8990
 2817TIP3    H2 8458   6.216   1.712   2.388 -1.3912 -0.3462 -0.6885
 2818TIP3   OH2 8459   6.127   4.449   1.068  0.0922  0.3428  0.6500
 2818TIP3    H1 8460   6.079   4.368   1.085  1.1499 -0.7092 -1.0385
 2818TIP3    H2 8461   6.180   4.463   1.146  0.5211 -1.0873  0.6399
 2819TIP3   OH2 8462   3.897   3.117   4.332 -0.3242 -0.0573  0.1072
 2819TIP3    H1 8463   3.908   3.195   4.276 -1.1387  0.1886  0.2682
 2819TIP3    H2 8464   3.956   3.052   4.294  0.6111  0.7363  0.1612
 2820TIP3   OH2 8465   3.819   0.974   4.279 -0.8676 -0.7260 -0.0021
 2820TIP3    H1 8466   3.886   0.934   4.224 -1.4847 -1.6639 -0.0943
 2820TIP3    H2 8467   3.864   0.994   4.361  0.1944  1.1512 -0.9765
 2821TIP3   OH2 8468   3.344   0.033   0.299  0.3212  0.1541  0.7155
 2821TIP3    H1 8469   3.259   0.046   0.342 -0.4048  2.3433 -1.1799
 2821TIP3    H2 8470   3.376   0.121   0.282  2.8645 -0.6305  1.0801
 2822TIP3   OH2 8471   1.590   5.065   0.240 -0.2993 -0.1288 -0.2115
 2822TIP3    H1 8472   1.600   5.077   0.146 -2.7661 -0.3717 -0.5895
 2822TIP3    H2 8473   1.498   5.086   0.257 -0.0310 -0.4996  2.0829
 2823TIP3   OH2 8474   5.213   4.544   0.431 -0.0772 -0.3988 -0.5463
 2823TIP3    H1 8475   5.217   4.632   0.469 -0.5713 -0.3885 -0.5090
 2823TIP3    H2 8476   5.304   4.523   0.410  0.0056  0.2691 -0.8931
 2824TIP3   OH2 8477   1.205   3.225   4.193  0.0917 -0.5002 -0.0969
 2824TIP3    H1 8478   1.263   3.158   4.229  1.3212  0.7313  0.2865
 2824TIP3    H2 8479   1.251   3.308   4.208 -1.7690  0.5333  0.2210
 2825TIP3   OH2 8480   2.736   4.469   2.502 -0.4092  0.3885 -0.7068
 2825TIP3    H1 8481   2.677   4.518   2.445  0.3937  2.2941  0.0265
 2825TIP3    H2 8482   2.796   4.535   2.536 -0.2029 -0.8708  1.5065
 2826TIP3   OH2 8483   0.226   0.254   3.418 -0.1545  0.0771  0.0923
 2826TIP3    H1 8484   0.163   0.325   3.419  0.6424  0.8394  2.0022
 2826TIP3    H2 8485   0.295   0.283   3.359 -0.1069  0.6615  0.4256
 2827TIP3   OH2 8486   1.751   3.648   4.374 -0.2096 -0.1182 -0.0447
 2827TIP3    H1 8487   1.814   3.621   4.441  1.4202 -0.2208 -1.5474
 2827TIP3    H2 8488   1.766   3.742   4.363 -0.6968 -0.0391 -0.0275
 2828TIP3   OH2 8489   4.546   2.766   0.578  0.3315 -0.4903 -0.1115
 2828TIP3    H1 8490   4.490   2.838   0.551  0.4714 -0.9228 -1.6283
 2828TIP3    H2 8491   4.554   2.777   0.673  0.7894  1.7773 -0.3651
 2829TIP3   OH2 8492   1.787   2.541   1.796  0.3526  0.1984 -0.9905
 2829TIP3    H1 8493   1.699   2.571   1.776  1.2595  2.8933 -1.3379
 2829TIP3    H2 8494   1.825   2.517   1.712  0.2324 -0.1260 -0.9521
 2830TIP3   OH2 8495   0.666   2.300   4.542  0.2029 -0.0133  0.0952
 2830TIP3    H1 8496   0.666   2.227   4.480 -0.3153 -0.7870  0.9703
 2830TIP3    H2 8497   0.624   2.264   4.621 -0.4064  1.3452  0.4194
 2831TIP3   OH2 8498   1.528   5.674   1.298 -0.1299  0.0128  0.2469
 2831TIP3    H1 8499   1.619   5.644   1.297 -0.1765 -0.2349 -2.2925
 2831TIP3    H2 8500   1.479   5.599   1.332  0.5004 -0.2370  0.6192
 2832TIP3   OH2 8501   1.906   0.390   1.061 -0.3966  0.7568  0.0792
 2832TIP3    H1 8502   1.814   0.370   1.077  0.1762 -1.5873  0.8340
 2832TIP3    H2 8503   1.951   0.354   1.137  1.1820  1.5798 -0.4357
 2833TIP3   OH2 8504   4.204   3.019   1.006  0.1328 -0.6213 -0.4114
 2833TIP3    H1 8505   4.245   3.094   0.964 -1.1661  1.3790  1.6802
 2833TIP3    H2 8506   4.270   2.985   1.066 -0.7384  2.0185  2.2701
 2834TIP3   OH2 8507   2.920   4.217   1.630  0.0077 -0.1379 -0.2407
 2834TIP3    H1 8508   2.984   4.250   1.567 -0.8804  0.6569 -0.7587
 2834TIP3    H2 8509   2.888   4.136   1.591  0.2065 -0.1840 -0.3090
 2835TIP3   OH2 8510   1.670   4.523   4.735 -0.2531 -0.2586 -0.3056
 2835TIP3    H1 8511   1.739   4.470   4.694  1.3273  0.2279  1.5642
 2835TIP3    H2 8512   1.602   4.461   4.759 -0.1669 -0.8635 -1.5409
 2836TIP3   OH2 8513   4.551   5.058   4.021  0.0899  0.0530 -0.2214
 2836TIP3    H1 8514   4.466   5.047   3.977 -0.1735  0.3904  0.1969
 2836TIP3    H2 8515   4.556   4.985   4.082 -0.4333  0.6828  0.5956
 2837TIP3   OH2 8516   5.710   1.518   0.273 -0.0547 -0.3072  0.8111
 2837TIP3    H1 8517   5.791   1.490   0.316  0.9554  1.0437 -0.1282
 2837TIP3    H2 8518   5.661   1.564   0.342  1.4587  1.6613  0.6808
 2838TIP3   OH2 8519   4.709   0.065   0.957 -0.3181  0.0384 -0.9066
 2838TIP3    H1 8520   4.687   0.116   0.879  1.0284  1.5453 -0.3501
 2838TIP3    H2 8521   4.723   0.131   1.025 -0.4185 -1.1976  0.3479
 2839TIP3   OH2 8522   3.724   0.655   4.132  0.1521  0.0026 -0.0297
 2839TIP3    H1 8523   3.661   0.698   4.190  0.0306 -1.0105  0.5991
 2839TIP3    H2 8524   3.679   0.651   4.047  0.1518  1.0596 -0.1048
 2840TIP3   OH2 8525   3.011   1.309   0.349  0.6488 -0.0481 -0.4516
 2840TIP3    H1 8526   3.094   1.356   0.358  1.1961 -0.5137 -2.5673
 2840TIP3    H2 8527   3.022   1.230   0.402  0.7192  0.9068  1.0008
 2841TIP3   OH2 8528   2.898   2.616   0.079 -0.3492  0.2986  0.2816
 2841TIP3    H1 8529   2.881   2.666  -0.001  0.3037 -0.0239 -0.0666
 2841TIP3    H2 8530   2.854   2.666   0.148  0.6109  1.5776  0.0068
 2842TIP3   OH2 8531   3.767   0.505   4.387  0.1743 -0.5605  0.8382
 2842TIP3    H1 8532   3.808   0.552   4.314  1.3166 -2.1668  0.3653
 2842TIP3    H2 8533   3.674   0.526   4.381  0.2535 -0.5931 -1.0683
 2843TIP3   OH2 8534   0.116   4.700   1.432 -0.1635 -0.3421 -0.1385
 2843TIP3    H1 8535   0.144   4.611   1.412  2.9129  0.2280  1.0545
 2843TIP3    H2 8536   0.096   4.739   1.346  1.1561 -1.3954 -0.9632
 2844TIP3   OH2 8537   1.790   0.753   1.883 -0.2395  0.3407 -0.1396
 2844TIP3    H1 8538   1.762   0.687   1.819 -0.5275 -0.0531  0.3879
 2844TIP3    H2 8539   1.872   0.718   1.919 -1.0888 -0.4026  1.1199
 2845TIP3   OH2 8540   2.512   1.392   4.021 -0.1992 -0.1535  0.0487
 2845TIP3    H1 8541   2.456   1.377   4.098 -2.1573  2.0031 -0.8384
 2845TIP3    H2 8542   2.601   1.395   4.057 -1.0348  0.6240  2.2336
 2846TIP3   OH2 8543   5.066   0.561   0.723  0.0846  0.0916  0.1028
 2846TIP3    H1 8544   5.031   0.474   0.743 -0.0572 -0.0886 -0.8586
 2846TIP3    H2 8545   5.144   0.570   0.778  0.4664 -0.9126 -0.2523
 2847TIP3   OH2 8546   3.972   4.123   1.947 -0.1460  0.0352  0.4902
 2847TIP3    H1 8547   4.019   4.050   1.986 -2.7087 -2.8054 -1.3145
 2847TIP3    H2 8548   4.019   4.142   1.865  0.6718  0.6568  1.0859
 2848TIP3   OH2 8549   3.917   5.913   1.557  0.4872  0.8177  0.0093
 2848TIP3    H1 8550   3.900   5.916   1.651  0.4561  2.9880 -0.0030
 2848TIP3    H2 8551   3.906   5.821   1.532 -2.5194  0.6531  1.5741
 2849TIP3   OH2 8552   1.042   3.311   5.109 -0.6041  0.0325 -0.3189
 2849TIP3    H1 8553   0.965   3.334   5.161 -1.3764  1.2471 -1.8951
 2849TIP3    H2 8554   1.012   3.239   5.053  0.0138 -0.8146  0.4221
 2850TIP3   OH2 8555   1.743   3.926   4.386  0.5740 -0.0692  0.2621
 2850TIP3    H1 8556   1.817   3.960   4.437 -0.5272  2.2245  0.4024
 2850TIP3    H2 8557   1.672   3.988   4.400 -0.6775 -0.9215 -1.7724
 2851TIP3   OH2 8558   2.374   5.710   0.554  0.4510  0.0022  0.4689
 2851TIP3    H1 8559   2.285   5.740   0.572  0.4983 -0.0325  0.7730
 2851TIP3    H2 8560   2.421   5.726   0.636  1.0389  1.1981 -0.0664
 2852TIP3   OH2 8561   6.006   0.936   3.402 -0.2663  0.4871  0.6703
 2852TIP3    H1 8562   5.950   0.898   3.334  2.3186 -1.2480 -0.7118
 2852TIP3    H2 8563   5.961   0.917   3.484 -0.4828 -3.3784 -0.1502
 2853TIP3   OH2 8564   1.137   4.396   3.865 -0.2362  0.1733 -0.0808
 2853TIP3    H1 8565   1.177   4.458   3.925 -0.2771  0.5925 -0.4819
 2853TIP3    H2 8566   1.189   4.316   3.875 -0.0822  0.3207  0.3140
 2854TIP3   OH2 8567   4.117   0.564   4.436 -0.3576 -0.2398  0.3229
 2854TIP3    H1 8568   4.205   0.597   4.416 -0.9787  2.0344  1.0604
 2854TIP3    H2 8569   4.070   0.568   4.352 -0.2026  0.0261  0.2484
 2855TIP3   OH2 8570   2.331   1.768   2.367 -0.0290  0.1651 -0.0009
 2855TIP3    H1 8571   2.334   1.714   2.288 -0.1109  0.7432 -0.4024
 2855TIP3    H2 8572   2.393   1.726   2.426  0.2630 -0.0999 -0.4848
 2856TIP3   OH2 8573   4.735   0.151   4.513 -0.1108  0.0950 -0.1237
 2856TIP3    H1 8574   4.754   0.195   4.430 -1.1385  1.2302  0.2056
 2856TIP3    H2 8575   4.681   0.213   4.561  2.9405  0.7983  2.7266
 2857TIP3   OH2 8576   3.961   2.198   1.840  0.6791 -0.1232 -0.2864
 2857TIP3    H1 8577   3.992   2.285   1.817 -1.1939  0.9169  0.9125
 2857TIP3    H2 8578   3.984   2.188   1.932  0.6232 -0.7867 -0.3391
 2858TIP3   OH2 8579   5.745   4.173   4.044 -0.2656  0.3318  0.5206
 2858TIP3    H1 8580   5.763   4.179   3.950  1.5888  0.2976  0.8234
 2858TIP3    H2 8581   5.687   4.098   4.052  0.3089 -0.2571 -0.5276
 2859TIP3   OH2 8582   2.854   1.021   5.186  0.0583  0.3172  0.3072
 2859TIP3    H1 8583   2.839   1.112   5.210  2.8607  1.1398 -0.6715
 2859TIP3    H2 8584   2.924   1.024   5.121  0.0468 -2.5288  0.0155
 2860TIP3   OH2 8585   0.483   4.457   0.149  0.4303 -0.7939  0.0393
 2860TIP3    H1 8586   0.404   4.511   0.148  1.1062  0.2239  0.1807
 2860TIP3    H2 8587   0.488   4.424   0.238 -1.3184 -3.1587 -0.6525
 2861TIP3   OH2 8588   2.826   0.492   4.306 -0.0408  0.3619 -0.0456
 2861TIP3    H1 8589   2.877   0.463   4.382 -0.6379  0.3745  0.3618
 2861TIP3    H2 8590   2.790   0.576   4.332  0.2579  0.6598 -0.5777
 2862TIP3   OH2 8591   4.112   0.618   1.418  0.2930  0.2545 -0.5852
 2862TIP3    H1 8592   4.110   0.708   1.450  1.8860 -0.4474  1.8074
 2862TIP3    H2 8593   4.051   0.571   1.476  0.3147 -0.3917 -1.0775
 2863TIP3   OH2 8594   4.468   3.913   2.843 -0.4914 -0.0893 -0.1378
 2863TIP3    H1 8595   4.425   3.835   2.807  0.1895 -1.0710  1.1087
 2863TIP3    H2 8596   4.481   3.970   2.767  0.0074 -1.6590 -1.2830
 2864TIP3   OH2 8597   1.971   1.901   4.014  0.5350 -0.4114  0.7216
 2864TIP3    H1 8598   1.915   1.966   3.972 -0.0917  0.6446  3.0153
 2864TIP3    H2 8599   1.962   1.823   3.959  0.1053  0.9540 -1.2649
 2865TIP3   OH2 8600   0.337   4.792   1.596  0.1545  0.0199  0.0802
 2865TIP3    H1 8601   0.255   4.757   1.561 -0.1727  1.1046 -0.2762
 2865TIP3    H2 8602   0.344   4.756   1.684 -1.1989  0.6638  0.4752
 2866TIP3   OH2 8603   1.871   4.494   2.464 -0.1454 -0.3896  0.1686
 2866TIP3    H1 8604   1.933   4.426   2.492  0.8593  0.3212 -0.2805
 2866TIP3    H2 8605   1.819   4.511   2.542  2.1765  1.0988  1.5237
 2867TIP3   OH2 8606   3.302   5.731   0.739  0.2487 -0.9494 -0.5685
 2867TIP3    H1 8607   3.289   5.824   0.720 -2.2288 -1.6713 -3.0073
 2867TIP3    H2 8608   3.272   5.721   0.829  0.0554  0.5198 -0.4435
 2868TIP3   OH2 8609   0.607   2.585   4.123 -0.0915  0.7937  0.2481
 2868TIP3    H1 8610   0.703   2.581   4.130  0.1221 -1.0620 -2.3060
 2868TIP3    H2 8611   0.589   2.677   4.102  1.4252  0.7148 -1.7387
 2869TIP3   OH2 8612   3.310   1.719   2.451 -0.0518 -0.4154 -0.0969
 2869TIP3    H1 8613   3.275   1.806   2.429  0.0114 -0.2022  0.6188
 2869TIP3    H2 8614   3.377   1.737   2.517 -1.6301 -1.1885  1.8121
 2870TIP3   OH2 8615   2.467   0.428   4.427  0.5724  0.4399 -0.6423
 2870TIP3    H1 8616   2.506   0.393   4.346  0.9544  0.3742 -0.4327
 2870TIP3    H2 8617   2.440   0.517   4.404 -0.6755 -0.0784 -1.2681
 2871TIP3   OH2 8618   4.747   1.968   2.749 -0.3791 -0.1377  0.5776
 2871TIP3    H1 8619   4.831   1.926   2.765 -0.6681 -0.6032  0.8813
 2871TIP3    H2 8620   4.705   1.973   2.835 -0.9549 -0.5577  0.3315
 2872TIP3   OH2 8621   0.381   2.058   5.000  0.2069  0.6555 -0.2201
 2872TIP3    H1 8622   0.304   2.092   5.045  1.4005  1.1001  1.5897
 2872TIP3    H2 8623   0.348   2.026   4.916 -2.3899 -1.3898  1.4379
 2873TIP3   OH2 8624   2.364   3.922   4.761  0.0115  0.2743  0.5942
 2873TIP3    H1 8625   2.339   3.852   4.822  0.6791  0.1119  0.6968
 2873TIP3    H2 8626   2.441   3.887   4.716  0.6555  1.1409  1.0116
 2874TIP3   OH2 8627   3.745   0.768   0.575  0.0756  0.0046  0.2564
 2874TIP3    H1 8628   3.816   0.799   0.632 -0.3815  3.1133 -0.6614
 2874TIP3    H2 8629   3.789   0.715   0.508  0.9949 -1.1754  1.7352
 2875TIP3   OH2 8630   4.036   0.588   1.142 -0.1418 -0.2785 -0.0469
 2875TIP3    H1 8631   4.055   0.590   1.236 -0.9689 -0.8623  0.1421
 2875TIP3    H2 8632   4.119   0.611   1.101  0.2019  0.1084  0.8303
 2876TIP3   OH2 8633   3.743   1.420   1.559  0.1898 -0.1631  0.0718
 2876TIP3    H1 8634   3.657   1.455   1.582  0.4144  0.0582  0.5916
 2876TIP3    H2 8635   3.801   1.496   1.562  0.5969 -0.4967  0.7747
 2877TIP3   OH2 8636   2.495   0.712   3.417  0.0854  0.1249  0.2959
 2877TIP3    H1 8637   2.409   0.739   3.386 -0.7914 -0.9948  1.5816
 2877TIP3    H2 8638   2.476   0.644   3.482  2.0051 -1.6110 -0.8160
 2878TIP3   OH2 8639   5.315   0.871   3.489 -0.4040 -0.1442 -0.0362
 2878TIP3    H1 8640   5.273   0.793   3.453 -2.1320 -0.0266  1.5383
 2878TIP3    H2 8641   5.266   0.944   3.450 -0.5273  0.0492  0.4654
 2879TIP3   OH2 8642   1.386   5.783   2.592  0.8721 -0.1140 -0.1606
 2879TIP3    H1 8643   1.311   5.819   2.640  2.1463  1.4320  0.7846
 2879TIP3    H2 8644   1.350   5.709   2.544 -0.8429 -0.7292  1.8745
 2880TIP3   OH2 8645   2.512   0.525   2.528 -0.2544  0.2382  0.5147
 2880TIP3    H1 8646   2.562   0.491   2.602 -0.7635  0.7888  1.1322
 2880TIP3    H2 8647   2.443   0.578   2.568 -1.3703 -0.5402 -0.3029
 2881TIP3   OH2 8648   6.022   4.727   0.768 -0.5506  0.1771  0.0262
 2881TIP3    H1 8649   6.086   4.743   0.698 -0.2292  3.4448  0.9255
 2881TIP3    H2 8650   6.076   4.705   0.844 -0.6354  0.6286  0.2173
 2882TIP3   OH2 8651   1.285   5.347   3.252 -0.3351  0.4347 -0.5174
 2882TIP3    H1 8652   1.370   5.387   3.272 -1.6158  2.5437  1.2254
 2882TIP3    H2 8653   1.251   5.321   3.338 -1.5996 -0.0796 -1.1532
 2883TIP3   OH2 8654   5.215   0.661   4.350 -0.1002 -0.2525 -0.1690
 2883TIP3    H1 8655   5.309   0.647   4.357 -0.3151 -1.4563  0.5769
 2883TIP3    H2 8656   5.178   0.573   4.348 -1.1675  0.1868 -1.2601
 2884TIP3   OH2 8657   2.520   1.740   1.231  0.2729  0.3337  0.2752
 2884TIP3    H1 8658   2.427   1.763   1.234  0.2550  0.4815 -0.8820
 2884TIP3    H2 8659   2.523   1.656   1.186  0.8416  1.3933 -1.7646
 2885TIP3   OH2 8660   1.067   2.989   4.346  0.4950  0.2979  0.2595
 2885TIP3    H1 8661   1.085   2.971   4.438 -0.0019 -0.4154  0.2280
 2885TIP3    H2 8662   0.973   3.006   4.343  0.5014  0.2727 -0.1159
 2886TIP3   OH2 8663   5.719   5.252   1.964  0.3257 -0.1803 -0.1902
 2886TIP3    H1 8664   5.652   5.187   1.985  0.1771  0.5078  1.6439
 2886TIP3    H2 8665   5.723   5.252   1.869 -2.5493 -0.0065 -0.3910
 2887TIP3   OH2 8666   2.663   5.988   0.626 -0.7234 -0.0633 -0.3774
 2887TIP3    H1 8667   2.623   5.901   0.622 -0.0654 -0.4650  1.1220
 2887TIP3    H2 8668   2.616   6.032   0.697  0.6552 -0.1213  0.6017
 2888TIP3   OH2 8669   5.546   1.093   0.330 -0.4223  0.6908 -0.1471
 2888TIP3    H1 8670   5.460   1.133   0.334 -1.3829 -1.3443  0.8352
 2888TIP3    H2 8671   5.530   1.000   0.312  1.4621  0.0284  1.1788
 2889TIP3   OH2 8672   3.239   5.520   1.502  0.4949  0.4494  0.0408
 2889TIP3    H1 8673   3.310   5.582   1.518  1.7742 -0.1762 -2.6684
 2889TIP3    H2 8674   3.262   5.443   1.554  1.9389  0.2037 -0.8962
 2890TIP3   OH2 8675   0.264   0.984   4.718 -0.2352  0.5491  0.2273
 2890TIP3    H1 8676   0.188   0.944   4.674  0.6353 -0.8473 -0.0703
 2890TIP3    H2 8677   0.289   1.057   4.661  0.3210 -0.6857 -1.1729
 2891TIP3   OH2 8678   5.795   1.749   1.627 -0.9729  0.5673  0.0110
 2891TIP3    H1 8679   5.797   1.832   1.675  2.8926  0.6383  0.0649
 2891TIP3    H2 8680   5.845   1.767   1.547  0.3082 -1.7584  0.2136
 2892TIP3   OH2 8681   2.362   0.563   0.969  0.6562 -0.7696  0.1088
 2892TIP3    H1 8682   2.387   0.585   0.879 -1.2828 -0.7737 -0.4795
 2892TIP3    H2 8683   2.343   0.469   0.966 -0.9444 -0.4738  0.1024
 2893TIP3   OH2 8684   4.222   5.348   0.713 -0.1629  0.3091 -0.4587
 2893TIP3    H1 8685   4.233   5.375   0.622  0.0836 -1.0901 -0.8608
 2893TIP3    H2 8686   4.127   5.346   0.726 -0.2548 -0.9641 -1.1677
 2894TIP3   OH2 8687   2.097   5.221   1.535 -0.3363  0.0448  0.0456
 2894TIP3    H1 8688   2.054   5.172   1.605  0.1126 -0.8181 -0.2703
 2894TIP3    H2 8689   2.104   5.158   1.463 -2.1384  1.3097 -1.3417
 2895TIP3   OH2 8690   3.889   4.527   1.805 -0.3754  0.0930  0.0074
 2895TIP3    H1 8691   3.902   4.467   1.879  1.3032  1.7893  1.1587
 2895TIP3    H2 8692   3.797   4.553   1.811 -0.3399 -0.0345  1.3225
 2896TIP3   OH2 8693   5.876   3.152   2.431  0.4825  0.1819 -0.3144
 2896TIP3    H1 8694   5.942   3.092   2.468  0.2080  0.7196  1.1279
 2896TIP3    H2 8695   5.910   3.239   2.451 -0.3565  0.4666 -0.1094
 2897TIP3   OH2 8696   1.334   5.618   2.380  0.4071 -1.1189 -0.0625
 2897TIP3    H1 8697   1.418   5.616   2.333  1.7132  0.7635  1.9999
 2897TIP3    H2 8698   1.340   5.547   2.443  1.2276  0.0245  1.2037
 2898TIP3   OH2 8699   1.372   5.257   2.323  0.3184 -0.1315 -0.0254
 2898TIP3    H1 8700   1.352   5.316   2.397 -0.4911  0.8574 -0.9903
 2898TIP3    H2 8701   1.456   5.218   2.346  1.2795  1.9725  0.3526
 2899TIP3   OH2 8702   1.904   4.269   4.233  0.4327  1.2682  0.2859
 2899TIP3    H1 8703   1.823   4.315   4.253 -0.2168  0.3369 -0.1191
 2899TIP3    H2 8704   1.876   4.190   4.187  1.6254  1.3535 -0.6409
 2900TIP3   OH2 8705   3.961   0.415   2.351  0.6629 -0.0443  0.1304
 2900TIP3    H1 8706   3.988   0.343   2.408  1.2553 -0.0276 -0.1303
 2900TIP3    H2 8707   4.002   0.397   2.267  1.8867  1.2698  0.4117
 2901TIP3   OH2 8708   6.140   5.198   3.631  0.5616  0.0220  0.2514
 2901TIP3    H1 8709   6.185   5.117   3.607  0.9710  0.6005 -0.9753
 2901TIP3    H2 8710   6.173   5.217   3.719  1.1192 -0.6845  0.2103
 2902TIP3   OH2 8711   5.120   3.815   1.963  0.2657  0.2502 -0.2166
 2902TIP3    H1 8712   5.149   3.739   1.912 -1.0974 -0.1647 -0.4305
 2902TIP3    H2 8713   5.163   3.890   1.922 -0.6991 -0.0764 -1.9623
 2903TIP3   OH2 8714   4.458   3.424   5.109 -0.0597 -0.6458 -0.0943
 2903TIP3    H1 8715   4.505   3.355   5.063  2.7716  0.4770  0.9150
 2903TIP3    H2 8716   4.390   3.378   5.159  0.5842 -2.4786 -0.8371
 2904TIP3   OH2 8717   0.390   5.645   3.829  0.4667  0.1564  0.3036
 2904TIP3    H1 8718   0.383   5.568   3.886  0.2231 -1.8490 -2.2654
 2904TIP3    H2 8719   0.302   5.681   3.825  0.2429 -0.3898  0.2923
 2905TIP3   OH2 8720   5.027   2.832   4.280 -0.0148  0.0884 -0.2766
 2905TIP3    H1 8721   4.959   2.890   4.246 -0.1673  0.2593  0.3195
 2905TIP3    H2 8722   5.093   2.829   4.210 -0.7242 -0.2494 -0.9442
 2906TIP3   OH2 8723   4.327   3.410   1.558  0.2728  0.5786 -0.4693
 2906TIP3    H1 8724   4.270   3.394   1.633  0.5961  1.4711 -0.0209
 2906TIP3    H2 8725   4.298   3.346   1.492  0.0167 -0.2409  0.4165
 2907TIP3   OH2 8726   4.075   2.766   2.365  0.1312  0.5945 -0.4164
 2907TIP3    H1 8727   4.131   2.745   2.439 -0.3000 -0.7427 -0.4436
 2907TIP3    H2 8728   4.130   2.752   2.288 -0.3401 -1.2365 -0.4687
 2908TIP3   OH2 8729   6.270   3.892   4.604 -0.2154 -0.3112 -0.1654
 2908TIP3    H1 8730   6.319   3.974   4.591 -0.7020  0.0343  0.1471
 2908TIP3    H2 8731   6.223   3.905   4.686 -1.5595 -0.2751 -0.9214
 2909TIP3   OH2 8732   6.310   4.981   3.578  0.3217  0.1477 -0.0667
 2909TIP3    H1 8733   6.316   4.960   3.671 -0.7749  0.6274  0.1275
 2909TIP3    H2 8734   6.248   4.916   3.543  0.5428  0.1212 -0.4099
 2910TIP3   OH2 8735   4.275   5.371   4.886 -0.2321  0.3410  0.0958
 2910TIP3    H1 8736   4.192   5.330   4.863 -0.5588  0.5096  0.9243
 2910TIP3    H2 8737   4.291   5.343   4.976 -0.5965  2.2009  0.7850
 2911TIP3   OH2 8738   2.654   3.364   2.501 -0.0486  0.5815  0.5146
 2911TIP3    H1 8739   2.687   3.335   2.586  0.0417  0.2325  0.3621
 2911TIP3    H2 8740   2.727   3.412   2.462 -0.1236  0.8266  0.6762
 2912TIP3   OH2 8741   4.100   0.868   4.262  0.0318 -0.1117 -0.0346
 2912TIP3    H1 8742   4.141   0.934   4.206 -1.8490  0.7349 -0.5110
 2912TIP3    H2 8743   4.173   0.816   4.296  1.4427  1.1761 -0.9624
 2913TIP3   OH2 8744   3.036   1.458   4.142  0.0477  0.5883 -0.7341
 2913TIP3    H1 8745   3.118   1.506   4.156 -0.1525  0.4701  1.0196
 2913TIP3    H2 8746   3.061   1.366   4.143 -0.0389  0.5654 -0.6341
 2914TIP3   OH2 8747   3.544   0.126   4.156  0.3382 -0.1617  0.3401
 2914TIP3    H1 8748   3.622   0.071   4.167 -0.4623 -1.5085 -0.4905
 2914TIP3    H2 8749   3.569   0.189   4.088  1.1591  0.3256  1.0763
 2915TIP3   OH2 8750   4.217   2.566   3.663 -0.0313  0.2432 -0.1603
 2915TIP3    H1 8751   4.206   2.472   3.677 -0.8985 -0.0091 -2.1626
 2915TIP3    H2 8752   4.134   2.595   3.624  0.2547  1.8302  0.3337
 2916TIP3   OH2 8753   2.271   2.454   2.038 -0.2542 -0.8411  0.1590
 2916TIP3    H1 8754   2.362   2.470   2.012 -0.9146  2.2290 -0.6799
 2916TIP3    H2 8755   2.251   2.367   2.005  2.2936 -1.5067  0.1850
 2917TIP3   OH2 8756   5.223   4.994   1.828 -0.0099  0.1561  0.3590
 2917TIP3    H1 8757   5.200   4.968   1.739  1.1777 -2.5282  0.7362
 2917TIP3    H2 8758   5.252   5.085   1.820 -3.8781  1.4860 -1.2095
 2918TIP3   OH2 8759   4.435   3.368   2.622 -0.1983 -0.4140  0.0474
 2918TIP3    H1 8760   4.437   3.449   2.571 -1.0065 -0.4416 -0.0426
 2918TIP3    H2 8761   4.481   3.390   2.704  0.4432 -0.1540 -0.3775
 2919TIP3   OH2 8762   0.830   2.781   3.479 -0.8041 -0.0661 -0.2071
 2919TIP3    H1 8763   0.748   2.804   3.434  0.4622 -0.4595 -2.9155
 2919TIP3    H2 8764   0.839   2.687   3.466  0.3023  0.0501 -0.3535
 2920TIP3   OH2 8765   5.527   5.817   3.667 -0.0290 -0.3724  0.0958
 2920TIP3    H1 8766   5.588   5.757   3.710  0.9608  0.5820  0.0540
 2920TIP3    H2 8767   5.528   5.896   3.721  2.0045  1.2400 -2.1056
 2921TIP3   OH2 8768   5.651   2.636   1.224 -0.1948 -0.1649  0.5691
 2921TIP3    H1 8769   5.729   2.606   1.177  0.7056  1.6072  0.8252
 2921TIP3    H2 8770   5.639   2.573   1.295  0.5184 -0.9137  0.0316
 2922TIP3   OH2 8771   1.412   1.577   3.946 -0.0053 -0.1639  0.5691
 2922TIP3    H1 8772   1.498   1.541   3.970  0.1201 -0.3678 -0.1505
 2922TIP3    H2 8773   1.359   1.500   3.924  0.3287  0.0590 -1.1777
 2923TIP3   OH2 8774   1.702   4.514   2.685 -0.4080 -0.0758  0.2787
 2923TIP3    H1 8775   1.716   4.482   2.774  0.3946 -1.0129 -0.1684
 2923TIP3    H2 8776   1.684   4.608   2.696 -0.4316 -0.2004  1.4252
 2924TIP3   OH2 8777   4.803   0.312   4.290  0.4523 -0.0323 -0.0343
 2924TIP3    H1 8778   4.823   0.402   4.318  1.3710 -0.3941  0.5281
 2924TIP3    H2 8779   4.818   0.312   4.195 -2.0569  1.0421 -0.5087
 2925TIP3   OH2 8780   5.322   1.705   3.848 -0.2152 -0.1530  0.1976
 2925TIP3    H1 8781   5.351   1.744   3.931  0.5304 -0.7383  0.2247
 2925TIP3    H2 8782   5.289   1.619   3.873  0.6824 -0.6229 -0.1914
 2926TIP3   OH2 8783   5.334   5.580   2.095  0.2285  0.8199  0.3447
 2926TIP3    H1 8784   5.422   5.584   2.131  0.6805  1.2159 -0.7494
 2926TIP3    H2 8785   5.343   5.612   2.005 -0.7609 -0.5677 -0.2891
 2927TIP3   OH2 8786   4.462   4.593   0.869  0.0241  0.0314 -0.4402
 2927TIP3    H1 8787   4.463   4.593   0.773 -2.4153  0.0998 -0.5293
 2927TIP3    H2 8788   4.411   4.516   0.892  2.1162 -1.0387  0.9273
 2928TIP3   OH2 8789   2.607   4.619   3.094  0.0345 -0.2044 -0.0942
 2928TIP3    H1 8790   2.543   4.666   3.148  0.5659  0.9712 -0.4426
 2928TIP3    H2 8791   2.628   4.540   3.144 -1.2242 -0.2963  0.3041
 2929TIP3   OH2 8792   1.383   0.286   1.859  0.1295  0.4246 -0.6194
 2929TIP3    H1 8793   1.316   0.344   1.895  0.7455  0.9376 -0.2837
 2929TIP3    H2 8794   1.438   0.343   1.806  0.5753  0.0938 -0.5151
 2930TIP3   OH2 8795   3.792   0.316   3.758 -0.5158 -0.2846 -0.2230
 2930TIP3    H1 8796   3.863   0.252   3.742  1.0988  1.5372 -0.7177
 2930TIP3    H2 8797   3.735   0.307   3.682  0.4172 -0.2533 -0.9468
 2931TIP3   OH2 8798   3.340   0.628   3.083 -0.4987  0.2982 -0.2021
 2931TIP3    H1 8799   3.300   0.694   3.026  0.0717  0.3978 -0.4988
 2931TIP3    H2 8800   3.433   0.653   3.086 -0.0238 -1.2188 -1.3298
 2932TIP3   OH2 8801   1.267   4.351   0.110 -0.3877  0.1039 -0.3225
 2932TIP3    H1 8802   1.354   4.312   0.101  0.0332  1.0003 -0.2633
 2932TIP3    H2 8803   1.284   4.445   0.116 -1.3502  0.2668 -0.0763
 2933TIP3   OH2 8804   0.834   5.395   1.016 -0.0823 -0.3885  0.1439
 2933TIP3    H1 8805   0.913   5.351   0.984  0.0236 -0.7336  0.8519
 2933TIP3    H2 8806   0.811   5.347   1.095  0.2065  1.0113  1.1131
 2934TIP3   OH2 8807   4.863   5.674   3.157  0.4101 -0.7858  0.5545
 2934TIP3    H1 8808   4.774   5.652   3.130 -0.6288  2.9815  0.3631
 2934TIP3    H2 8809   4.858   5.683   3.252  0.1298  1.0121  0.3906
 2935TIP3   OH2 8810   3.250   4.404   3.446 -0.5926  0.4177 -0.1918
 2935TIP3    H1 8811   3.341   4.388   3.469 -0.2507 -0.6985 -2.0873
 2935TIP3    H2 8812   3.202   4.397   3.529  1.1741  2.5704  1.0961
 2936TIP3   OH2 8813   1.734   2.231   4.591  0.5511 -0.5220  0.3921
 2936TIP3    H1 8814   1.649   2.190   4.606  0.3663 -0.0604  0.5926
 2936TIP3    H2 8815   1.772   2.181   4.518 -0.5399  0.2386 -0.7305
 2937TIP3   OH2 8816   2.870   0.921   3.946  0.5216  0.1062 -0.0448
 2937TIP3    H1 8817   2.850   1.014   3.949  1.2343  0.2512  0.3737
 2937TIP3    H2 8818   2.868   0.892   4.037  1.1074 -0.1063 -0.0954
 2938TIP3   OH2 8819   0.682   2.829   1.827 -0.2597  0.3581 -0.0938
 2938TIP3    H1 8820   0.689   2.922   1.850  1.2231  0.1996  0.1650
 2938TIP3    H2 8821   0.752   2.815   1.763 -0.5437 -0.5652 -0.2167
 2939TIP3   OH2 8822   1.250   2.428   5.008  0.1036  0.1485  0.4192
 2939TIP3    H1 8823   1.331   2.391   5.043 -0.5897 -1.8919  0.0240
 2939TIP3    H2 8824   1.180   2.389   5.061 -0.7182  0.3661 -0.4594
 2940TIP3   OH2 8825   3.360   1.431   2.407 -0.1042  0.5440 -0.9386
 2940TIP3    H1 8826   3.337   1.523   2.406 -0.9445  0.3481 -0.3118
 2940TIP3    H2 8827   3.452   1.430   2.434 -0.8586  1.0840  2.0282
 2941TIP3   OH2 8828   1.898   0.331   1.343 -0.1339 -0.3860  0.0588
 2941TIP3    H1 8829   1.953   0.389   1.395 -1.9274  0.2198  1.3937
 2941TIP3    H2 8830   1.813   0.332   1.387 -0.8609 -2.3198 -1.1385
 2942TIP3   OH2 8831   1.343   4.352   3.526 -0.1064  0.1500 -0.0492
 2942TIP3    H1 8832   1.370   4.399   3.605  0.8227 -0.6049  0.0864
 2942TIP3    H2 8833   1.281   4.286   3.558  0.3675 -0.2406  0.0749
 2943TIP3   OH2 8834   2.898   4.385   0.417  0.1328  0.1924 -0.5122
 2943TIP3    H1 8835   2.945   4.331   0.354  1.1266  0.3148  0.1045
 2943TIP3    H2 8836   2.878   4.466   0.369 -1.8200 -0.8620 -1.5994
 2944TIP3   OH2 8837   2.106   1.551   4.213 -0.3704 -0.3533  0.4798
 2944TIP3    H1 8838   2.100   1.485   4.143 -0.4001  1.3197 -1.1736
 2944TIP3    H2 8839   2.105   1.500   4.294  1.2310 -2.4992 -0.7407
 2945TIP3   OH2 8840   3.123   5.559   2.464  0.4273 -0.4963  0.2542
 2945TIP3    H1 8841   3.164   5.539   2.380 -0.2258  0.2627 -0.2615
 2945TIP3    H2 8842   3.057   5.491   2.475  0.2928 -0.4081 -0.0069
 2946TIP3   OH2 8843   5.499   3.228   4.298 -0.0360 -0.2708 -0.4229
 2946TIP3    H1 8844   5.508   3.202   4.390 -1.3641 -0.9722 -0.4608
 2946TIP3    H2 8845   5.422   3.285   4.297 -1.3391 -1.9781 -1.3954
 2947TIP3   OH2 8846   0.653   1.618   2.083  0.2029  0.1539 -0.0807
 2947TIP3    H1 8847   0.635   1.658   2.168  1.2689 -0.4089  0.4228
 2947TIP3    H2 8848   0.735   1.658   2.054 -0.1420  0.3315 -0.8498
 2948TIP3   OH2 8849   3.813   5.475   5.205  0.4104 -0.2931 -0.3787
 2948TIP3    H1 8850   3.820   5.408   5.138  1.2260 -1.1058  0.4955
 2948TIP3    H2 8851   3.854   5.552   5.167 -1.1066 -0.0536 -1.6375
 2949TIP3   OH2 8852   1.992   5.909   3.606  0.5018  0.6624  0.1042
 2949TIP3    H1 8853   2.053   5.979   3.629  1.5169 -0.5822  1.3718
 2949TIP3    H2 8854   1.925   5.912   3.675  1.0518 -0.1710  0.6936
 2950TIP3   OH2 8855   5.089   3.842   4.190  0.1507  0.0559 -0.0031
 2950TIP3    H1 8856   5.095   3.778   4.120 -1.1684  1.2837 -1.2999
 2950TIP3    H2 8857   5.168   3.827   4.243  0.0533 -2.3768 -0.4165
 2951TIP3   OH2 8858   0.141   5.768   1.540  0.3875 -0.0651  1.0473
 2951TIP3    H1 8859   0.119   5.769   1.633  1.1317 -0.7737  1.2487
 2951TIP3    H2 8860   0.134   5.675   1.515 -3.1004  0.4777 -0.4497
 2952TIP3   OH2 8861   3.077   2.741   2.180  0.9182  0.1050 -0.1243
 2952TIP3    H1 8862   3.019   2.725   2.105  1.3248  0.3805 -0.4983
 2952TIP3    H2 8863   3.079   2.657   2.226 -0.8951  0.4559  0.6956
 2953TIP3   OH2 8864   0.595   3.658   4.045  0.1289 -0.0908  0.0875
 2953TIP3    H1 8865   0.679   3.668   4.090  0.4860  0.2456 -0.6403
 2953TIP3    H2 8866   0.531   3.651   4.115  0.7480 -0.2236  0.6520
 2954TIP3   OH2 8867   0.674   4.540   3.720 -0.1272 -0.9509 -0.1986
 2954TIP3    H1 8868   0.754   4.568   3.676  0.7178 -3.2003 -0.1983
 2954TIP3    H2 8869   0.703   4.515   3.808 -1.4356  1.4036  1.0167
 2955TIP3   OH2 8870   5.873   1.188   2.136  0.0074 -0.0839  0.5388
 2955TIP3    H1 8871   5.901   1.180   2.227  1.8055  2.3136  0.3123
 2955TIP3    H2 8872   5.840   1.278   2.130 -0.5177 -0.3588 -1.0658
 2956TIP3   OH2 8873   5.452   2.358   0.631  0.4061 -0.1656 -0.0673
 2956TIP3    H1 8874   5.365   2.319   0.622  1.3214 -1.9882 -1.7640
 2956TIP3    H2 8875   5.505   2.291   0.673  0.8092  1.3626  2.0639
 2957TIP3   OH2 8876   2.886   1.475   4.367 -0.5495 -0.1801  0.0769
 2957TIP3    H1 8877   2.935   1.460   4.286 -0.1998 -1.7192  0.5461
 2957TIP3    H2 8878   2.853   1.389   4.392 -2.1879  0.5746  0.6216
 2958TIP3   OH2 8879   5.594   2.116   0.682 -0.7681 -0.1747  0.5397
 2958TIP3    H1 8880   5.553   2.111   0.769  0.6098 -1.5093  1.1483
 2958TIP3    H2 8881   5.680   2.154   0.699 -0.9254  0.6469 -0.4275
 2959TIP3   OH2 8882   0.362   0.642   0.941 -0.3784  0.6206  0.1759
 2959TIP3    H1 8883   0.423   0.681   1.003  1.7437 -0.8891 -0.8300
 2959TIP3    H2 8884   0.358   0.705   0.869  1.1523  0.1703 -0.3607
 2960TIP3   OH2 8885   5.631   4.836   4.146  0.4068 -0.0751  0.4883
 2960TIP3    H1 8886   5.538   4.856   4.152  0.5428  0.4560  0.8748
 2960TIP3    H2 8887   5.659   4.822   4.237  1.1558  1.9049  0.6095
 2961TIP3   OH2 8888   2.038   1.274   0.182 -0.3084  0.4567  0.8853
 2961TIP3    H1 8889   2.010   1.348   0.128  0.5012 -1.3619 -2.3461
 2961TIP3    H2 8890   1.960   1.221   0.193 -0.5494  0.9966  1.8568
 2962TIP3   OH2 8891   3.080   5.819   4.321  0.5060 -0.2453 -0.0295
 2962TIP3    H1 8892   3.039   5.771   4.250  1.5016 -1.9191  0.4700
 2962TIP3    H2 8893   3.011   5.876   4.355 -0.2849 -0.2126 -1.6162
 2963TIP3   OH2 8894   2.326   5.794   4.595  0.0147  0.1729  0.1053
 2963TIP3    H1 8895   2.357   5.807   4.684  0.0988 -0.5331  0.1830
 2963TIP3    H2 8896   2.311   5.700   4.588  0.0838  0.2089 -0.6496
 2964TIP3   OH2 8897   1.303   3.884   2.665 -0.0739  0.1391  0.3488
 2964TIP3    H1 8898   1.364   3.824   2.707 -0.1319  0.5227  1.0023
 2964TIP3    H2 8899   1.239   3.827   2.622  0.8134 -0.2609 -0.4699
 2965TIP3   OH2 8900   2.073   1.363   3.992  0.7740 -0.3252  0.3983
 2965TIP3    H1 8901   2.100   1.411   3.914  0.2098  1.5749  1.3034
 2965TIP3    H2 8902   1.980   1.344   3.977  0.3187  1.1664  1.0784
 2966TIP3   OH2 8903   6.321   0.695   2.301 -0.1745  0.0461 -0.7012
 2966TIP3    H1 8904   6.332   0.722   2.392 -1.6445  1.2455 -0.8396
 2966TIP3    H2 8905   6.321   0.599   2.305 -1.6277  0.0543  0.7800
 2967TIP3   OH2 8906   3.525   0.266   2.334 -0.2568  0.4056  0.3107
 2967TIP3    H1 8907   3.541   0.315   2.253  0.0374 -0.7518 -0.3552
 2967TIP3    H2 8908   3.608   0.272   2.382 -0.2073  0.5177  0.2127
 2968TIP3   OH2 8909   4.108   2.706   0.592 -0.2183  0.2752  0.1828
 2968TIP3    H1 8910   4.143   2.781   0.545 -1.3851  0.3135 -0.6438
 2968TIP3    H2 8911   4.014   2.721   0.597 -0.2448 -0.2323  1.6450
 2969TIP3   OH2 8912   1.742   4.431   2.214  0.5690  0.7902  0.2300
 2969TIP3    H1 8913   1.795   4.449   2.291  1.5619  0.2808 -0.3229
 2969TIP3    H2 8914   1.804   4.406   2.146 -0.4132 -0.6035 -0.2156
 2970TIP3   OH2 8915   1.266   0.153   2.768  0.0411 -0.1291  0.2222
 2970TIP3    H1 8916   1.226   0.232   2.805 -0.9431 -0.5385  0.0671
 2970TIP3    H2 8917   1.199   0.118   2.709  0.7877 -0.6308 -0.3367
 2971TIP3   OH2 8918   4.158   0.169   3.953  0.2785  0.0627  0.0632
 2971TIP3    H1 8919   4.251   0.163   3.974  0.4198 -1.1531 -0.8523
 2971TIP3    H2 8920   4.134   0.259   3.978  1.9504  0.7738 -0.7144
 2972TIP3   OH2 8921   4.725   2.698   2.061  0.2063 -0.0015  0.3907
 2972TIP3    H1 8922   4.713   2.749   1.981 -1.1324  2.7860  2.2130
 2972TIP3    H2 8923   4.814   2.719   2.089  0.0915  0.3419  0.4967
 2973TIP3   OH2 8924   1.384   3.199   2.813  0.3151 -0.5075  0.0970
 2973TIP3    H1 8925   1.440   3.180   2.888  0.6591 -2.1282 -0.5324
 2973TIP3    H2 8926   1.443   3.196   2.738 -0.1064  0.6628 -0.3057
 2974TIP3   OH2 8927   3.332   5.170   0.348 -0.0618  0.5092  0.8044
 2974TIP3    H1 8928   3.305   5.121   0.425  0.2909 -0.1091  0.5419
 2974TIP3    H2 8929   3.399   5.230   0.380 -0.7724  1.1064  1.2014
 2975TIP3   OH2 8930   0.961   3.592   5.011 -0.3152  0.0574 -0.0157
 2975TIP3    H1 8931   0.951   3.676   4.966 -0.9342  0.2206  0.4068
 2975TIP3    H2 8932   0.893   3.537   4.972 -0.2391 -0.0911  0.0626
 2976TIP3   OH2 8933   1.298   4.229   4.164 -0.0085 -0.3408  0.4554
 2976TIP3    H1 8934   1.284   4.243   4.071 -2.5752 -2.7336  0.3856
 2976TIP3    H2 8935   1.249   4.299   4.207 -0.7632 -0.5972  0.0162
 2977TIP3   OH2 8936   0.447   2.816   4.696  0.8920  0.0521 -0.1262
 2977TIP3    H1 8937   0.439   2.911   4.687  1.5849  0.0833 -0.4216
 2977TIP3    H2 8938   0.421   2.781   4.611  0.9977 -0.0059 -0.1346
 2978TIP3   OH2 8939   0.245   5.163   3.719 -0.2874 -0.0295 -0.3522
 2978TIP3    H1 8940   0.331   5.148   3.759 -0.5213 -1.7094 -0.4072
 2978TIP3    H2 8941   0.189   5.190   3.792  0.2420  0.8990 -0.2861
 2979TIP3   OH2 8942   6.096   1.867   1.023 -0.1170 -0.0011  0.7317
 2979TIP3    H1 8943   6.004   1.852   1.003 -0.3436 -0.5744  2.0613
 2979TIP3    H2 8944   6.096   1.942   1.083  0.4889  1.3859 -0.9167
 2980TIP3   OH2 8945   1.415   5.230   0.387 -0.0417 -0.3241  0.3697
 2980TIP3    H1 8946   1.342   5.286   0.364 -0.2801 -0.0413  1.7591
 2980TIP3    H2 8947   1.404   5.212   0.480  1.3460 -0.7374  0.4795
 2981TIP3   OH2 8948   2.689   2.986   4.097  0.4293 -0.0892  0.7949
 2981TIP3    H1 8949   2.656   2.931   4.168  2.0304 -1.0404  0.8535
 2981TIP3    H2 8950   2.682   3.076   4.131  0.3204 -0.4619  1.7751
 2982TIP3   OH2 8951   1.147   1.733   0.762 -0.2367 -0.0310 -0.3948
 2982TIP3    H1 8952   1.233   1.710   0.798 -0.6282 -0.8703  0.0244
 2982TIP3    H2 8953   1.167   1.775   0.678  0.6085  0.4446  0.0279
 2983TIP3   OH2 8954   1.847   2.726   4.803  0.0479  0.0001 -0.2635
 2983TIP3    H1 8955   1.807   2.743   4.888 -0.4302 -0.1827 -0.4496
 2983TIP3    H2 8956   1.845   2.631   4.794 -0.6643  0.0603 -0.8374
 2984TIP3   OH2 8957   0.183   5.210   0.930  0.3340 -0.2619 -0.0355
 2984TIP3    H1 8958   0.222   5.257   1.003 -1.0381  1.8503 -0.5987
 2984TIP3    H2 8959   0.234   5.237   0.854 -0.1801 -0.0323 -0.3022
 2985TIP3   OH2 8960   3.884   1.982   4.228 -0.1371 -0.3724 -0.5405
 2985TIP3    H1 8961   3.852   1.920   4.162  0.1211 -0.7229 -0.3435
 2985TIP3    H2 8962   3.808   2.004   4.281 -0.1820 -0.7127 -0.4623
 2986TIP3   OH2 8963   5.267   4.027   1.822  0.3447  0.1715 -0.2695
 2986TIP3    H1 8964   5.308   4.070   1.897  0.4706 -0.9252  0.3084
 2986TIP3    H2 8965   5.245   4.099   1.762  0.3594  1.0494  0.7554
 2987TIP3   OH2 8966   1.669   4.246   0.885 -0.0298 -0.3457 -0.1022
 2987TIP3    H1 8967   1.700   4.300   0.958  2.4289 -0.4729 -0.9589
 2987TIP3    H2 8968   1.625   4.308   0.827 -0.0989  0.1367  0.4481
 2988TIP3   OH2 8969   2.153   2.254   1.013 -0.6984  0.2243  0.5730
 2988TIP3    H1 8970   2.243   2.226   1.032 -0.2243  0.4881 -1.0627
 2988TIP3    H2 8971   2.106   2.173   0.995 -0.0432  0.2172 -1.3417
 2989TIP3   OH2 8972   1.384   4.563   4.585  0.6752  0.3697  0.1510
 2989TIP3    H1 8973   1.333   4.640   4.559  0.7583  0.4838  0.3230
 2989TIP3    H2 8974   1.350   4.541   4.672 -0.0442 -0.3944 -0.3094
 2990TIP3   OH2 8975   4.451   4.459   4.594  0.2429  0.1612  0.3313
 2990TIP3    H1 8976   4.528   4.419   4.555 -0.0678  1.9232 -2.3842
 2990TIP3    H2 8977   4.413   4.512   4.523 -1.5097  2.0938  2.5510
 2991TIP3   OH2 8978   2.962   1.547   1.663  0.2441 -0.2037 -0.0096
 2991TIP3    H1 8979   2.913   1.492   1.601  1.4888 -0.5984 -0.6930
 2991TIP3    H2 8980   3.016   1.603   1.607  0.5716  0.2178  0.7178
 2992TIP3   OH2 8981   2.782   2.758   0.275  0.0499  0.6030  0.4087
 2992TIP3    H1 8982   2.810   2.773   0.365  0.1893  0.6770  0.3537
 2992TIP3    H2 8983   2.687   2.743   0.281  0.0105  0.9048  0.5325
 2993TIP3   OH2 8984   0.869   1.469   0.973 -0.2096 -0.2813 -0.4758
 2993TIP3    H1 8985   0.903   1.441   1.058 -0.8823 -0.0917 -0.1344
 2993TIP3    H2 8986   0.887   1.396   0.914 -0.0084 -0.5381 -0.0973
 2994TIP3   OH2 8987   2.090   3.549   4.849 -0.5001  0.1710 -0.3178
 2994TIP3    H1 8988   2.051   3.502   4.775 -0.7126  0.3384 -0.3154
 2994TIP3    H2 8989   2.143   3.484   4.894 -1.8858 -0.4421  0.4890
 2995TIP3   OH2 8990   3.544   0.926   5.058 -0.7263 -0.1695 -0.5943
 2995TIP3    H1 8991   3.481   0.932   4.985 -0.8835 -1.9235 -0.6472
 2995TIP3    H2 8992   3.628   0.951   5.019 -0.6298 -1.9841 -1.6827
 2996TIP3   OH2 8993   1.117   5.620   0.555 -0.1926  0.4529 -0.2063
 2996TIP3    H1 8994   1.032   5.635   0.513 -0.0710 -1.2751 -1.1712
 2996TIP3    H2 8995   1.095   5.600   0.646 -1.0470 -1.6844 -0.8160
 2997TIP3   OH2 8996   4.753   0.835   4.493 -0.1214  0.2460 -0.0259
 2997TIP3    H1 8997   4.746   0.772   4.565 -0.1154  0.4338  0.1376
 2997TIP3    H2 8998   4.847   0.838   4.474 -0.2103 -0.5027 -0.6620
 2998TIP3   OH2 8999   6.287   0.170   4.674  0.0723 -0.1754  0.4408
 2998TIP3    H1 9000   6.311   0.117   4.750 -1.4613 -1.6105 -0.0083
 2998TIP3    H2 9001   6.192   0.162   4.668  0.0582  0.7131 -1.0539
 2999TIP3   OH2 9002   3.740   5.819   5.095 -0.1055  0.2943  0.2800
 2999TIP3    H1 9003   3.749   5.892   5.156 -0.7038 -0.2353  1.0134
 2999TIP3    H2 9004   3.820   5.768   5.107 -0.3743  0.0035  0.8859
 3000TIP3   OH2 9005   2.701   2.812   1.978 -0.3357  0.3057 -0.4765
 3000TIP3    H1 9006   2.665   2.847   1.896 -1.0706  0.0726 -0.2684
 3000TIP3    H2 9007   2.625   2.773   2.022 -0.3336  2.1142  1.2182
 3001TIP3   OH2 9008   6.221   3.163   2.852 -0.3368 -0.9716 -0.2594
 3001TIP3    H1 9009   6.157   3.178   2.922  0.0247  0.1688 -0.1465
 3001TIP3    H2 9010   6.291   3.114   2.895 -0.0485 -0.1522  0.2444
 3002TIP3   OH2 9011   3.253   2.901   4.367  0.2471  0.0530 -0.6626
 3002TIP3    H1 9012   3.319   2.831   4.360  1.6556  1.4029 -1.7466
 3002TIP3    H2 9013   3.226   2.917   4.277 -2.0248 -0.8288 -0.1868
 3003TIP3   OH2 9014   5.246   5.115   4.672 -0.1000  0.4531  0.5539
 3003TIP3    H1 9015   5.266   5.203   4.640  1.1116  0.2647  0.7287
 3003TIP3    H2 9016   5.254   5.122   4.767  0.9812 -0.0602  0.5084
 3004TIP3   OH2 9017   1.647   3.388   0.560 -0.2284  0.5544 -0.3122
 3004TIP3    H1 9018   1.631   3.294   0.562  0.4757  0.4378  0.5172
 3004TIP3    H2 9019   1.560   3.428   0.566 -0.4204 -0.0484  1.8347
 3005TIP3   OH2 9020   0.495   4.303   4.056 -0.6614  0.0989  0.4235
 3005TIP3    H1 9021   0.448   4.223   4.031  1.3215 -1.2592  0.7836
 3005TIP3    H2 9022   0.488   4.306   4.152 -0.8150  0.3974  0.4016
 3006TIP3   OH2 9023   4.029   1.957   0.304 -0.0809 -0.0206 -0.2268
 3006TIP3    H1 9024   4.025   1.953   0.400  4.1354 -1.5212  0.0873
 3006TIP3    H2 9025   4.065   2.043   0.285 -2.4351  0.9360 -0.6917
 3007TIP3   OH2 9026   4.597   2.887   2.509 -0.1624  0.5050 -0.4700
 3007TIP3    H1 9027   4.672   2.928   2.552  0.6238 -1.7120  0.4041
 3007TIP3    H2 9028   4.522   2.938   2.539  0.7088  1.0067  0.9790
 3008TIP3   OH2 9029   2.639   4.687   0.897 -0.3567  0.0401  0.0502
 3008TIP3    H1 9030   2.553   4.651   0.876 -0.7796 -0.5183  2.5098
 3008TIP3    H2 9031   2.699   4.639   0.840 -1.3331 -1.8970  0.5817
 3009TIP3   OH2 9032   0.567   2.852   3.449  0.2045 -0.2217  0.2623
 3009TIP3    H1 9033   0.568   2.947   3.454 -1.3001 -0.1287 -0.6241
 3009TIP3    H2 9034   0.514   2.825   3.524 -1.9370 -0.1343 -1.1062
 3010TIP3   OH2 9035   3.945   2.436   3.021  0.2209  0.1113 -0.1325
 3010TIP3    H1 9036   4.004   2.360   3.017 -0.0969 -0.2089  0.8869
 3010TIP3    H2 9037   3.902   2.427   3.106  0.3949  1.6009  0.1342
 3011TIP3   OH2 9038   1.578   3.205   2.601 -0.3971 -0.0190 -0.1752
 3011TIP3    H1 9039   1.649   3.255   2.641  0.7076 -1.0358 -0.7824
 3011TIP3    H2 9040   1.544   3.262   2.532 -0.0210  0.3960 -0.0202
 3012TIP3   OH2 9041   1.615   4.693   3.482 -0.7346 -0.0118  0.0017
 3012TIP3    H1 9042   1.589   4.635   3.411 -0.5825 -0.1536  0.0625
 3012TIP3    H2 9043   1.533   4.714   3.527 -0.9752  0.8959 -0.8284
 3013TIP3   OH2 9044   0.578   5.562   0.750  0.3511 -0.4611  0.0856
 3013TIP3    H1 9045   0.510   5.625   0.777  1.8339  1.4795 -0.4986
 3013TIP3    H2 9046   0.568   5.489   0.811 -2.4143 -0.3877 -0.1407
 3014TIP3   OH2 9047   3.469   2.467   1.631  0.0168 -0.3602  0.1818
 3014TIP3    H1 9048   3.480   2.553   1.590  0.1358 -0.3349  0.2674
 3014TIP3    H2 9049   3.397   2.427   1.583 -1.0473  0.3769  1.1115
 3015TIP3   OH2 9050   6.100   0.510   5.076 -0.2895  0.2623  0.0943
 3015TIP3    H1 9051   6.131   0.592   5.113 -0.2526  0.1759  0.2562
 3015TIP3    H2 9052   6.177   0.469   5.038 -0.1734 -0.0212  0.6264
 3016TIP3   OH2 9053   5.231   2.931   0.444 -0.0604  0.4274  0.3740
 3016TIP3    H1 9054   5.277   3.015   0.449  0.3531  0.1134  2.7680
 3016TIP3    H2 9055   5.276   2.884   0.373  2.1653  0.8568  1.4015
 3017TIP3   OH2 9056   2.646   5.224   4.793 -0.2423 -0.0767 -0.2775
 3017TIP3    H1 9057   2.725   5.244   4.743  0.2246  1.5341  1.0114
 3017TIP3    H2 9058   2.672   5.239   4.884 -1.4804 -1.4845  0.3346
 3018TIP3   OH2 9059   1.333   4.916   3.809  0.5849  0.0271 -0.0538
 3018TIP3    H1 9060   1.341   4.853   3.737 -0.3851 -0.3602  0.1510
 3018TIP3    H2 9061   1.281   4.869   3.875  0.8464  0.6345  0.5884
 3019TIP3   OH2 9062   6.273   5.548   0.105  0.9886 -0.3189 -0.1987
 3019TIP3    H1 9063   6.312   5.588   0.027  0.9107 -0.9975 -0.5943
 3019TIP3    H2 9064   6.344   5.498   0.146  0.9387 -0.2581 -0.0361
 3020TIP3   OH2 9065   4.364   0.828   2.065  0.1807  0.7280 -0.0898
 3020TIP3    H1 9066   4.371   0.923   2.052 -0.4518  0.6194 -1.2737
 3020TIP3    H2 9067   4.391   0.790   1.982 -0.5279 -0.1058  0.0538
 3021TIP3   OH2 9068   3.328   3.209   1.273  0.6096  0.0951 -0.2097
 3021TIP3    H1 9069   3.260   3.241   1.332  0.3014  0.8170 -0.9268
 3021TIP3    H2 9070   3.335   3.115   1.292 -0.6979 -0.0234 -0.2209
 3022TIP3   OH2 9071   4.926   2.786   3.330 -0.7298  0.0937  0.5553
 3022TIP3    H1 9072   4.903   2.743   3.248  2.4211 -0.0975 -0.3591
 3022TIP3    H2 9073   4.861   2.856   3.339 -1.7145 -0.4536 -1.6155
 3023TIP3   OH2 9074   2.322   0.730   3.944  0.0830 -0.3049  0.3110
 3023TIP3    H1 9075   2.394   0.794   3.948 -0.6251  0.4737  0.8139
 3023TIP3    H2 9076   2.243   0.783   3.939 -0.4004 -1.1112 -2.7434
 3024TIP3   OH2 9077   3.654   3.916   4.291  0.8575 -0.6472 -0.1372
 3024TIP3    H1 9078   3.688   3.980   4.228 -0.6955 -2.3242 -2.8656
 3024TIP3    H2 9079   3.560   3.916   4.275  0.6790 -2.6291  0.7343
 3025TIP3   OH2 9080   4.869   4.871   3.482  0.1571 -0.1748  0.0690
 3025TIP3    H1 9081   4.785   4.853   3.442  0.2716 -0.6772  0.0466
 3025TIP3    H2 9082   4.884   4.964   3.466 -0.5629  0.0031  0.4009
 3026TIP3   OH2 9083   2.211   0.116   1.904 -0.0668  0.3110 -0.1754
 3026TIP3    H1 9084   2.172   0.029   1.896  0.0211  0.1102  1.2859
 3026TIP3    H2 9085   2.183   0.148   1.990 -0.5430  1.9654 -0.8949
 3027TIP3   OH2 9086   5.465   2.625   3.288 -0.2267  0.2276  0.7564
 3027TIP3    H1 9087   5.542   2.595   3.337 -0.3926 -1.1929  0.2066
 3027TIP3    H2 9088   5.391   2.587   3.334 -0.5574  0.9552  0.8354
 3028TIP3   OH2 9089   5.844   0.593   4.884  0.5469 -1.1324  0.3934
 3028TIP3    H1 9090   5.797   0.558   4.959 -0.3098 -1.2448 -0.1763
 3028TIP3    H2 9091   5.875   0.679   4.913 -2.2617  0.1348  0.0061
 3029TIP3   OH2 9092   5.507   0.432   0.127 -0.4931 -0.0639 -0.0407
 3029TIP3    H1 9093   5.462   0.409   0.208 -1.1547 -1.3511 -0.7501
 3029TIP3    H2 9094   5.506   0.352   0.075  0.3632  0.6014 -1.1280
 3030TIP3   OH2 9095   2.241   0.183   5.151 -0.1146  0.0390 -0.0708
 3030TIP3    H1 9096   2.254   0.117   5.084 -0.9634  0.7909 -1.0046
 3030TIP3    H2 9097   2.279   0.263   5.114 -1.3547  0.6663 -0.0217
 3031TIP3   OH2 9098   2.653   5.766   4.593  0.4799 -0.1563 -0.4713
 3031TIP3    H1 9099   2.623   5.733   4.508 -0.2275  1.1842 -0.7734
 3031TIP3    H2 9100   2.601   5.845   4.607 -1.4817 -1.7704  2.5202
 3032TIP3   OH2 9101   2.405   2.547   1.582  0.2968  0.1229 -0.1045
 3032TIP3    H1 9102   2.340   2.566   1.515 -0.0409 -0.6247 -0.0095
 3032TIP3    H2 9103   2.353   2.527   1.660  0.6786  0.8006  0.3318
 3033TIP3   OH2 9104   3.215   0.139   1.691  0.0805  0.3979 -0.6603
 3033TIP3    H1 9105   3.280   0.103   1.631 -1.1246 -0.5653 -1.4465
 3033TIP3    H2 9106   3.212   0.232   1.671 -0.1870  0.1184 -2.0102
 3034TIP3   OH2 9107   4.065   4.733   1.774 -0.1208 -0.0616  0.6232
 3034TIP3    H1 9108   4.042   4.648   1.811 -1.3865 -0.4222 -0.8698
 3034TIP3    H2 9109   4.003   4.745   1.702  0.9730  1.4658 -0.1175
 3035TIP3   OH2 9110   3.865   2.567   3.812  0.4642  0.0174  0.1447
 3035TIP3    H1 9111   3.823   2.507   3.874  0.0340  0.5538  0.3791
 3035TIP3    H2 9112   3.809   2.566   3.735 -0.1481  0.9316  0.5550
 3036TIP3   OH2 9113   5.920   4.984   2.210  0.7028  0.6071 -0.4942
 3036TIP3    H1 9114   5.920   5.041   2.132  0.7937  0.4410 -0.6158
 3036TIP3    H2 9115   5.875   4.905   2.181 -0.0361  0.8797 -0.1306
 3037TIP3   OH2 9116   5.958   2.675   4.513 -0.1779  0.9002  0.4965
 3037TIP3    H1 9117   5.870   2.687   4.480  0.2491  1.4381 -0.4725
 3037TIP3    H2 9118   5.949   2.684   4.608 -0.9947  2.0397  0.3337
 3038TIP3   OH2 9119   3.731   4.968   4.446  0.1109  0.0217 -0.2192
 3038TIP3    H1 9120   3.781   4.906   4.500  1.0575  1.3314  0.4634
 3038TIP3    H2 9121   3.665   4.914   4.404  0.3900 -1.3368  0.9768
 3039TIP3   OH2 9122   3.428   4.177   2.512 -0.4577  0.1313 -0.2480
 3039TIP3    H1 9123   3.455   4.232   2.586 -0.9897 -0.2449  0.2402
 3039TIP3    H2 9124   3.510   4.146   2.473 -0.0365  3.0857 -1.9780
 3040TIP3   OH2 9125   4.740   1.821   0.891 -0.6075 -0.1752  0.7652
 3040TIP3    H1 9126   4.677   1.758   0.856  0.2162  0.1158 -1.3977
 3040TIP3    H2 9127   4.741   1.892   0.827  0.9725  0.4340  1.4145
 3041TIP3   OH2 9128   0.949   0.712   4.360  0.2987 -0.0265  0.4568
 3041TIP3    H1 9129   1.008   0.778   4.322 -0.4869  0.1353 -0.4893
 3041TIP3    H2 9130   0.947   0.642   4.296  0.3016 -0.5149  0.9867
 3042TIP3   OH2 9131   3.441   4.069   1.788 -0.1245 -0.3814 -0.0809
 3042TIP3    H1 9132   3.532   4.083   1.817  0.4386 -1.1603 -1.4103
 3042TIP3    H2 9133   3.389   4.115   1.854  1.1193 -1.4691  1.7840
 3043TIP3   OH2 9134   5.831   5.040   0.357 -0.5339  0.2191  0.0319
 3043TIP3    H1 9135   5.770   5.106   0.390 -1.1252 -0.5284  0.4588
 3043TIP3    H2 9136   5.871   5.003   0.435 -0.8830 -0.5572 -0.1434
 3044TIP3   OH2 9137   5.783   3.042   3.447 -0.6397 -0.5005  0.4283
 3044TIP3    H1 9138   5.763   3.028   3.539 -0.9713 -0.1730  0.4117
 3044TIP3    H2 9139   5.722   3.111   3.420  0.9277  0.9912  0.5165
 3045TIP3   OH2 9140   2.147   0.043   2.360  0.2482 -0.0485 -0.2291
 3045TIP3    H1 9141   2.215   0.088   2.411  1.0192 -1.2068 -0.1961
 3045TIP3    H2 9142   2.153   0.081   2.273 -0.2638  1.0965  0.2093
 3046TIP3   OH2 9143   0.073   2.622   0.599 -0.1108  0.4090  0.4384
 3046TIP3    H1 9144   0.092   2.581   0.515 -3.0510  1.3250 -0.8235
 3046TIP3    H2 9145   0.096   2.714   0.587  2.0251  0.0814  1.6369
 3047TIP3   OH2 9146   4.461   2.392   1.314  0.0419 -0.0795 -0.4060
 3047TIP3    H1 9147   4.516   2.469   1.300 -0.7328  0.2627 -1.7772
 3047TIP3    H2 9148   4.457   2.350   1.228 -0.6832 -0.8646 -0.0017
 3048TIP3   OH2 9149   3.747   3.626   5.041 -0.5771 -0.2409 -0.4085
 3048TIP3    H1 9150   3.797   3.553   5.005 -0.7057 -0.4483 -0.1652
 3048TIP3    H2 9151   3.733   3.603   5.132 -0.4805  0.1617 -0.2895
 3049TIP3   OH2 9152   4.171   2.914   0.410 -0.6673 -0.4232 -0.3061
 3049TIP3    H1 9153   4.084   2.949   0.431 -0.4732 -0.4266  0.5202
 3049TIP3    H2 9154   4.208   2.978   0.348 -0.3081  0.8840  1.1913
 3050TIP3   OH2 9155   3.138   1.340   2.901  0.8432 -0.7472 -0.0431
 3050TIP3    H1 9156   3.135   1.336   2.805 -1.9887 -1.4700 -0.0313
 3050TIP3    H2 9157   3.223   1.305   2.924  2.1471  0.6684 -2.3055
 3051TIP3   OH2 9158   1.685   1.152   1.760  0.3143  0.3151 -0.3667
 3051TIP3    H1 9159   1.660   1.060   1.765 -1.2509  0.7890  2.1306
 3051TIP3    H2 9160   1.624   1.190   1.697 -0.4684  0.0302  0.2028
 3052TIP3   OH2 9161   1.662   4.915   2.160 -0.4144  0.4578  0.1356
 3052TIP3    H1 9162   1.638   4.823   2.169 -1.1503  0.5868 -0.4116
 3052TIP3    H2 9163   1.626   4.957   2.238  2.3100 -0.1386  1.8435
 3053TIP3   OH2 9164   2.288   5.301   4.123 -0.2040 -0.6792 -0.4243
 3053TIP3    H1 9165   2.282   5.226   4.183  1.4707  0.8461  1.8031
 3053TIP3    H2 9166   2.379   5.331   4.131 -1.1832  2.4864 -0.0669
 3054TIP3   OH2 9167   3.606   2.620   4.918 -0.1837 -0.0776  0.1346
 3054TIP3    H1 9168   3.685   2.570   4.898  0.9276  2.2229 -1.7361
 3054TIP3    H2 9169   3.625   2.662   5.002 -0.8234 -2.0765  1.3382
 3055TIP3   OH2 9170   6.336   5.436   1.932  0.1620  0.2342  0.3840
 3055TIP3    H1 9171   6.313   5.516   1.980  0.6347 -0.3293  1.5787
 3055TIP3    H2 9172   6.258   5.416   1.880  0.1469  1.6421 -0.1853
 3056TIP3   OH2 9173   3.640   1.974   4.321 -0.1236 -0.1793  0.5032
 3056TIP3    H1 9174   3.601   1.901   4.368 -0.3062 -0.6271 -0.3217
 3056TIP3    H2 9175   3.566   2.014   4.274  0.1576 -0.1212  0.1091
 3057TIP3   OH2 9176   3.191   1.491   0.096 -0.0447 -0.0028 -0.1254
 3057TIP3    H1 9177   3.269   1.536   0.128 -0.0447  0.5662 -0.9039
 3057TIP3    H2 9178   3.118   1.547   0.121 -0.0315  0.5379 -1.2531
 3058TIP3   OH2 9179   1.836   5.873   2.928  0.0098 -0.4484  0.2460
 3058TIP3    H1 9180   1.776   5.944   2.907 -0.7286 -0.3714  2.3551
 3058TIP3    H2 9181   1.922   5.904   2.898 -0.6561  0.2914 -0.9922
 3059TIP3   OH2 9182   2.571   4.821   4.471  0.1645 -0.1801 -0.6859
 3059TIP3    H1 9183   2.605   4.750   4.417 -1.2473  1.3277 -3.8615
 3059TIP3    H2 9184   2.636   4.891   4.464 -0.0608  0.0580 -0.4638
 3060TIP3   OH2 9185   1.425   0.883   4.975 -0.4003  0.4482  0.2318
 3060TIP3    H1 9186   1.360   0.863   4.907 -0.5618 -0.5733  0.6756
 3060TIP3    H2 9187   1.388   0.959   5.021 -1.0939  0.1285  0.2201
 3061TIP3   OH2 9188   3.315   3.187   2.155 -0.3627 -0.2995 -0.3340
 3061TIP3    H1 9189   3.372   3.162   2.229 -2.1229 -0.9062  0.8722
 3061TIP3    H2 9190   3.295   3.279   2.171 -0.3960 -0.3142 -0.2895
 3062TIP3   OH2 9191   0.002   5.249   0.385 -0.1464 -0.3293 -0.0685
 3062TIP3    H1 9192   0.005   5.334   0.429 -0.5507 -0.6364  0.5720
 3062TIP3    H2 9193   0.054   5.261   0.306  1.2263  0.0478  0.8521
 3063TIP3   OH2 9194   1.140   4.592   3.649  0.8783  0.1086  0.5304
 3063TIP3    H1 9195   1.139   4.532   3.724 -0.2144  0.3933  0.7636
 3063TIP3    H2 9196   1.048   4.617   3.637  1.2674  1.5045  0.2619
 3064TIP3   OH2 9197   5.810   0.720   2.234  0.0082  0.0213 -0.2037
 3064TIP3    H1 9198   5.797   0.645   2.292 -0.0550 -1.1347 -1.6712
 3064TIP3    H2 9199   5.789   0.796   2.289  0.9534 -0.9498  1.5681
 3065TIP3   OH2 9200   0.072   4.255   3.292 -0.2217 -0.3440 -0.4477
 3065TIP3    H1 9201   0.131   4.195   3.246  0.4387 -0.3909  0.4331
 3065TIP3    H2 9202   0.086   4.236   3.385 -2.5908 -1.2867 -0.2115
 3066TIP3   OH2 9203   1.730   4.000   0.949  0.1449  0.5585 -0.1443
 3066TIP3    H1 9204   1.656   3.966   0.898  0.7320  0.8346 -1.2110
 3066TIP3    H2 9205   1.727   4.095   0.936  0.7586  0.5608 -0.3150
 3067TIP3   OH2 9206   3.609   3.161   3.783  0.4882 -0.3769  0.0595
 3067TIP3    H1 9207   3.539   3.161   3.848 -0.6804 -1.7276 -1.1371
 3067TIP3    H2 9208   3.651   3.075   3.792  0.1446 -0.6830 -1.1113
 3068TIP3   OH2 9209   3.881   0.700   2.180 -0.0206 -0.3959  0.1917
 3068TIP3    H1 9210   3.958   0.741   2.218  0.4906 -0.5612 -0.6445
 3068TIP3    H2 9211   3.853   0.636   2.245  1.4843 -1.4562 -0.1451
 3069TIP3   OH2 9212   2.567   5.204   4.142 -0.2055 -0.0761 -0.6056
 3069TIP3    H1 9213   2.630   5.207   4.213 -0.6588  2.9534 -0.1568
 3069TIP3    H2 9214   2.620   5.200   4.062  0.3790 -1.2981 -0.1744
 3070TIP3   OH2 9215   0.232   3.858   0.959  0.4785  0.3348 -0.1297
 3070TIP3    H1 9216   0.274   3.836   1.043 -1.2785  1.2478  1.0568
 3070TIP3    H2 9217   0.143   3.823   0.968 -0.3913  2.2601 -0.7501
 3071TIP3   OH2 9218   4.188   4.645   0.127  0.6321 -0.5567  0.0563
 3071TIP3    H1 9219   4.157   4.670   0.040  1.6810  0.1171 -0.1505
 3071TIP3    H2 9220   4.164   4.553   0.136  1.4298 -0.9433 -1.3939
 3072TIP3   OH2 9221   4.098   5.732   0.404 -0.3558  0.2222  0.0067
 3072TIP3    H1 9222   4.184   5.690   0.406 -0.1982  0.3524 -2.1691
 3072TIP3    H2 9223   4.048   5.685   0.471  1.1461 -0.4029  0.7533
 3073TIP3   OH2 9224   0.316   0.133   0.792  0.2092 -0.6695 -0.2006
 3073TIP3    H1 9225   0.222   0.131   0.810  0.1468  0.3436 -0.3798
 3073TIP3    H2 9226   0.350   0.200   0.851  0.8252 -1.0193 -0.1473
 3074TIP3   OH2 9227   4.052   2.559   2.082 -0.7355  0.0435  0.5155
 3074TIP3    H1 9228   4.035   2.654   2.083 -0.2039  0.2032 -1.4639
 3074TIP3    H2 9229   4.142   2.551   2.112 -0.0319  0.4189 -1.3327
 3075TIP3   OH2 9230   1.190   3.569   3.229  0.3386  0.5805  0.2113
 3075TIP3    H1 9231   1.178   3.501   3.295 -0.8801  1.1848  0.6506
 3075TIP3    H2 9232   1.274   3.548   3.188  0.5828 -0.4592  1.1768
 3076TIP3   OH2 9233   5.750   5.662   4.325  0.2878 -0.0885  0.2595
 3076TIP3    H1 9234   5.806   5.716   4.270 -1.1708 -0.7015 -1.9895
 3076TIP3    H2 9235   5.799   5.580   4.337  1.2390  0.5932  1.1614
 3077TIP3   OH2 9236   0.981   0.469   1.777  0.1992  0.5049 -0.7238
 3077TIP3    H1 9237   0.953   0.508   1.860 -0.6651  0.2988 -0.9074
 3077TIP3    H2 9238   0.916   0.401   1.760  1.1519 -0.3989 -0.8797
 3078TIP3   OH2 9239   3.560   4.391   4.656 -0.5759 -0.0434 -0.5223
 3078TIP3    H1 9240   3.500   4.392   4.731  1.1515 -0.7519  0.9367
 3078TIP3    H2 9241   3.531   4.316   4.603 -1.1073 -0.2480  0.0455
 3079TIP3   OH2 9242   5.060   0.524   2.865  0.2407  0.0818 -0.1543
 3079TIP3    H1 9243   5.076   0.430   2.870 -1.9087 -0.2772  1.0153
 3079TIP3    H2 9244   5.038   0.540   2.774 -0.2938 -0.7370 -0.1829
 3080TIP3   OH2 9245   4.087   5.232   3.334 -0.2673  0.4182  0.4167
 3080TIP3    H1 9246   4.120   5.193   3.254  1.0593  1.9937  0.1225
 3080TIP3    H2 9247   4.097   5.164   3.401 -3.0427 -1.5593 -0.9735
 3081TIP3   OH2 9248   0.509   1.202   3.275 -0.2558  0.5231 -0.0518
 3081TIP3    H1 9249   0.576   1.217   3.342  0.0688 -2.2705  0.3865
 3081TIP3    H2 9250   0.427   1.225   3.318  0.2667  3.0747 -0.2795
 3082TIP3   OH2 9251   2.221   0.067   3.998  0.0252 -0.6765  0.0866
 3082TIP3    H1 9252   2.247   0.028   3.915 -0.3062  0.0121 -0.3487
 3082TIP3    H2 9253   2.269   0.149   4.003  1.4715 -1.5626  1.4589
 3083TIP3   OH2 9254   1.474   5.127   1.279 -0.2736 -0.2430 -0.0173
 3083TIP3    H1 9255   1.392   5.078   1.281  0.3148 -1.2847 -0.7287
 3083TIP3    H2 9256   1.524   5.095   1.354 -0.5609  0.5024  0.5067
 3084TIP3   OH2 9257   0.751   3.358   1.616 -0.3092  0.0815  0.0195
 3084TIP3    H1 9258   0.692   3.327   1.685 -0.7691  0.7850 -0.0426
 3084TIP3    H2 9259   0.706   3.336   1.534 -0.3130  0.2786 -0.0332
 3085TIP3   OH2 9260   0.145   4.363   0.723 -0.3988 -0.2762  0.7034
 3085TIP3    H1 9261   0.138   4.269   0.741 -1.1312 -0.0706  1.5784
 3085TIP3    H2 9262   0.238   4.383   0.731 -0.4428 -0.5989  2.3139
 3086TIP3   OH2 9263   4.415   3.670   0.153 -0.4184  0.7710 -0.4438
 3086TIP3    H1 9264   4.498   3.713   0.172 -0.7048  2.0320 -1.8216
 3086TIP3    H2 9265   4.397   3.694   0.062 -2.7187  1.2677  0.0846
 3087TIP3   OH2 9266   2.291   1.997   4.409  0.2416  0.1699  0.4452
 3087TIP3    H1 9267   2.241   2.031   4.334 -1.4235 -1.5101  0.7404
 3087TIP3    H2 9268   2.288   1.902   4.399  0.9693 -0.0528  2.0584
 3088TIP3   OH2 9269   2.609   3.264   3.925  0.2908 -0.2571  0.1509
 3088TIP3    H1 9270   2.640   3.284   4.013  0.8133 -0.6326  0.0540
 3088TIP3    H2 9271   2.534   3.206   3.939 -0.7244  1.0648  0.4018
 3089TIP3   OH2 9272   0.159   2.118   1.052  0.1756 -0.1085 -0.1067
 3089TIP3    H1 9273   0.176   2.042   0.997  0.7271 -1.4823  1.8712
 3089TIP3    H2 9274   0.243   2.163   1.058 -0.2174  0.9052 -1.5266
 3090TIP3   OH2 9275   3.155   4.769   2.623  0.3364  0.1373 -0.4967
 3090TIP3    H1 9276   3.240   4.725   2.625 -0.1157 -0.7274 -0.3365
 3090TIP3    H2 9277   3.144   4.803   2.711 -0.5162 -1.7432  0.1591
 3091TIP3   OH2 9278   0.706   2.568   1.381 -0.1061 -0.3325  0.0205
 3091TIP3    H1 9279   0.748   2.598   1.301  0.7064  0.3884  0.6888
 3091TIP3    H2 9280   0.771   2.583   1.450 -0.3699 -1.9391  0.6697
 3092TIP3   OH2 9281   3.874   1.003   1.189 -0.2978 -0.0485 -0.0687
 3092TIP3    H1 9282   3.873   1.066   1.117  1.8100 -0.5322 -0.5814
 3092TIP3    H2 9283   3.891   1.055   1.267 -0.9989  0.2799 -0.1248
 3093TIP3   OH2 9284   0.995   0.199   1.498  0.0741 -0.1677 -0.8540
 3093TIP3    H1 9285   1.087   0.192   1.524  0.1643  0.6324 -0.9464
 3093TIP3    H2 9286   0.972   0.290   1.515 -0.7467 -0.4014 -0.6953
 3094TIP3   OH2 9287   0.378   5.648   0.892  0.0543 -0.4827 -0.1051
 3094TIP3    H1 9288   0.420   5.603   0.966  0.4198  1.5576  0.9957
 3094TIP3    H2 9289   0.389   5.741   0.911 -1.4053  0.1090 -1.8734
 3095TIP3   OH2 9290   2.416   3.364   2.356  0.3129 -0.1712 -0.0046
 3095TIP3    H1 9291   2.460   3.353   2.271  1.2390 -2.1414  0.6788
 3095TIP3    H2 9292   2.482   3.405   2.411 -0.7375  2.4046 -0.5394
 3096TIP3   OH2 9293   0.602   0.363   3.543 -0.5589 -0.1738  0.5340
 3096TIP3    H1 9294   0.535   0.365   3.475  0.2169 -1.0854 -0.2939
 3096TIP3    H2 9295   0.604   0.451   3.579 -1.9514 -0.0504  0.3273
 3097TIP3   OH2 9296   5.395   4.341   5.067  0.8705  0.4194  0.1359
 3097TIP3    H1 9297   5.344   4.401   5.121 -1.4741 -0.1812 -1.2491
 3097TIP3    H2 9298   5.361   4.255   5.088  0.9911  0.0322 -1.1539
 3098TIP3   OH2 9299   4.149   3.838   4.797 -0.2280 -0.4404 -0.1609
 3098TIP3    H1 9300   4.098   3.907   4.755 -0.6549 -0.8621 -0.3490
 3098TIP3    H2 9301   4.223   3.883   4.836 -1.1032  0.2936  0.7113
 3099TIP3   OH2 9302   4.837   0.147   3.236  0.3063 -0.1704  0.3353
 3099TIP3    H1 9303   4.813   0.054   3.234 -1.1918 -0.0665  4.1807
 3099TIP3    H2 9304   4.772   0.187   3.295  1.7782  3.0299 -0.0093
 3100TIP3   OH2 9305   1.976   4.378   1.497  0.1403 -0.1085 -0.1410
 3100TIP3    H1 9306   1.990   4.396   1.404 -0.8665  2.0342  0.0747
 3100TIP3    H2 9307   1.881   4.383   1.508  0.3833  1.8482  1.3831
 3101TIP3   OH2 9308   1.972   4.419   0.465 -0.2863  0.2835  0.4072
 3101TIP3    H1 9309   1.941   4.406   0.554  0.4565 -0.2844  0.5939
 3101TIP3    H2 9310   2.066   4.435   0.474 -0.1407 -0.1196 -0.2890
 3102TIP3   OH2 9311   2.370   0.658   4.336 -0.5385 -0.4834  0.6547
 3102TIP3    H1 9312   2.282   0.623   4.327 -0.9815  0.7370 -0.0564
 3102TIP3    H2 9313   2.365   0.746   4.298  1.2456 -0.7887 -0.4019
 3103TIP3   OH2 9314   2.722   2.802   0.803 -0.4998  0.0742 -0.4116
 3103TIP3    H1 9315   2.740   2.872   0.866  0.4374  0.4231 -1.0474
 3103TIP3    H2 9316   2.719   2.723   0.856 -2.4307  0.6486  0.4467
 3104TIP3   OH2 9317   2.402   3.036   1.100  0.1961 -0.7344 -0.0547
 3104TIP3    H1 9318   2.487   3.078   1.088  0.5162 -1.9817 -3.2101
 3104TIP3    H2 9319   2.409   2.954   1.052 -2.1350 -1.8822  1.3996
 3105TIP3   OH2 9320   5.368   3.873   0.616  0.0053 -0.4061  0.0721
 3105TIP3    H1 9321   5.421   3.938   0.661 -0.3507 -0.3006  0.3461
 3105TIP3    H2 9322   5.431   3.809   0.583  0.1862 -2.8803  4.3882
 3106TIP3   OH2 9323   4.689   5.468   4.612 -0.2339 -0.0155 -0.5473
 3106TIP3    H1 9324   4.662   5.379   4.634 -0.7762 -0.0110 -1.1682
 3106TIP3    H2 9325   4.625   5.497   4.547 -0.1693  0.8985 -0.2122
 3107TIP3   OH2 9326   4.976   2.307   0.791 -0.0670 -0.3562  0.2316
 3107TIP3    H1 9327   4.962   2.333   0.882 -0.1831 -1.2944  0.5002
 3107TIP3    H2 9328   4.972   2.388   0.741 -0.1443  0.1517  1.0507
 3108TIP3   OH2 9329   1.340   5.577   4.628  0.0516 -0.0375 -0.4218
 3108TIP3    H1 9330   1.419   5.617   4.665 -0.1767 -1.6693  2.0599
 3108TIP3    H2 9331   1.295   5.538   4.703 -1.7826 -1.4125 -2.1248
 3109TIP3   OH2 9332   1.161   0.573   4.681  0.2466  0.4180  0.1543
 3109TIP3    H1 9333   1.070   0.561   4.655  0.0122  1.1950  0.5710
 3109TIP3    H2 9334   1.162   0.658   4.726  1.5489  1.3606 -1.5312
 3110TIP3   OH2 9335   4.941   5.744   2.135 -0.2482 -0.0536  0.3490
 3110TIP3    H1 9336   5.032   5.716   2.142 -0.5269 -0.7231  1.5200
 3110TIP3    H2 9337   4.896   5.668   2.097 -0.3081  0.3143 -0.3282
 3111TIP3   OH2 9338   0.918   5.724   3.536 -0.0437 -0.0259  0.6160
 3111TIP3    H1 9339   0.852   5.788   3.564 -1.1190 -0.5814 -0.5832
 3111TIP3    H2 9340   1.001   5.771   3.541 -0.8484  1.6057 -0.5853
 3112TIP3   OH2 9341   3.153   0.239   4.080 -0.3076 -0.1319 -0.4475
 3112TIP3    H1 9342   3.089   0.229   4.010  0.0905  2.1815 -1.2318
 3112TIP3    H2 9343   3.238   0.240   4.035  0.2158 -1.7702  0.4290
 3113TIP3   OH2 9344   5.587   2.031   3.445 -1.1430 -0.4792  0.0697
 3113TIP3    H1 9345   5.538   1.976   3.506  1.0530 -1.5646  0.9638
 3113TIP3    H2 9346   5.621   1.970   3.380  1.5469 -0.3264  1.2133
 3114TIP3   OH2 9347   0.938   1.118   1.157  0.0770 -0.2314  0.8032
 3114TIP3    H1 9348   0.984   1.199   1.179 -1.1780  0.6699  0.1780
 3114TIP3    H2 9349   0.981   1.051   1.211  0.3634  1.0297  2.1995
 3115TIP3   OH2 9350   0.052   2.855   2.224  0.3341 -0.1106  0.1706
 3115TIP3    H1 9351   0.134   2.807   2.215 -0.0478 -1.1435  1.7727
 3115TIP3    H2 9352   0.075   2.935   2.271  0.6251  0.2553 -0.5840
 3116TIP3   OH2 9353   4.884   5.187   1.926  0.3610  0.3125  0.1578
 3116TIP3    H1 9354   4.815   5.251   1.943  0.3938  1.0104 -2.0367
 3116TIP3    H2 9355   4.962   5.224   1.967 -0.1372  0.4946  0.9505
 3117TIP3   OH2 9356   1.321   4.643   0.066 -0.1762 -0.3908  0.0466
 3117TIP3    H1 9357   1.381   4.651   0.140 -0.1317 -0.2205 -0.0086
 3117TIP3    H2 9358   1.255   4.710   0.080  1.8276  2.2644 -1.9594
 3118TIP3   OH2 9359   3.487   5.555   4.358 -0.3722  0.1871  0.9806
 3118TIP3    H1 9360   3.504   5.468   4.394 -0.5423 -2.3203 -4.1330
 3118TIP3    H2 9361   3.392   5.566   4.364 -0.7187 -1.3678 -0.7696
 3119TIP3   OH2 9362   4.042   2.678   0.926  0.1052  0.6846 -0.5499
 3119TIP3    H1 9363   4.066   2.628   1.004 -3.5313 -0.5442 -0.0468
 3119TIP3    H2 9364   4.073   2.624   0.853  1.8966  0.9529 -0.0559
 3120TIP3   OH2 9365   0.980   3.492   1.522 -0.0504  0.2397 -0.4886
 3120TIP3    H1 9366   1.003   3.421   1.463  0.9672  1.0184 -1.0719
 3120TIP3    H2 9367   0.902   3.462   1.568 -0.8069 -0.4324 -2.1524
 3121TIP3   OH2 9368   2.523   5.697   4.367 -0.1793  0.2522 -0.3533
 3121TIP3    H1 9369   2.551   5.722   4.279 -0.7992 -0.6154 -0.8069
 3121TIP3    H2 9370   2.427   5.694   4.362 -0.2122  0.0634  0.3132
 3122TIP3   OH2 9371   5.858   0.582   4.010 -0.1523 -0.0621  0.2255
 3122TIP3    H1 9372   5.929   0.557   4.070  0.4330  0.2647 -0.3207
 3122TIP3    H2 9373   5.903   0.610   3.930 -0.8901  0.5271  0.0120
 3123TIP3   OH2 9374   3.560   0.844   4.309 -0.0328 -0.2573 -0.0956
 3123TIP3    H1 9375   3.478   0.889   4.292  0.1700 -0.5367 -2.1658
 3123TIP3    H2 9376   3.627   0.913   4.305 -0.1039 -0.1082  1.0761
 3124TIP3   OH2 9377   1.832   5.218   4.137  0.4905  0.3030  0.2984
 3124TIP3    H1 9378   1.752   5.256   4.174 -0.3375 -1.7081  0.6785
 3124TIP3    H2 9379   1.889   5.293   4.123 -0.7425  1.5935  1.7830
 3125TIP3   OH2 9380   3.216   0.290   0.283 -0.3140 -0.5619  0.3626
 3125TIP3    H1 9381   3.257   0.375   0.267 -1.2552 -0.3712 -1.1143
 3125TIP3    H2 9382   3.218   0.281   0.379  2.5103 -0.2587  0.4139
 3126TIP3   OH2 9383   2.498   0.117   1.797  0.1649  0.4547  0.1750
 3126TIP3    H1 9384   2.424   0.087   1.851  0.1180 -0.9404 -0.5945
 3126TIP3    H2 9385   2.576   0.090   1.846  0.1256 -0.3533 -0.1860
 3127TIP3   OH2 9386   5.380   5.117   1.562  0.1950  0.4916 -0.1045
 3127TIP3    H1 9387   5.397   5.188   1.624 -0.8116  0.6232  0.0402
 3127TIP3    H2 9388   5.407   5.153   1.478  0.4429  0.7482  0.0783
 3128TIP3   OH2 9389   5.929   2.519   0.461 -0.0388  0.4133 -0.1172
 3128TIP3    H1 9390   5.980   2.596   0.488 -0.2328  0.2891  0.6138
 3128TIP3    H2 9391   5.846   2.528   0.507 -0.7411  0.6779 -1.4072
 3129TIP3   OH2 9392   0.030   2.564   3.201  0.2402 -0.3202 -0.1147
 3129TIP3    H1 9393  -0.038   2.508   3.237  1.7327 -0.9376  1.9715
 3129TIP3    H2 9394   0.096   2.504   3.167  2.2055 -0.0253  2.8020
 3130TIP3   OH2 9395   1.319   3.970   0.214 -0.0833  0.9261  0.3833
 3130TIP3    H1 9396   1.285   3.884   0.190  0.2065  0.7998  0.4248
 3130TIP3    H2 9397   1.393   3.952   0.272  1.6339  1.0854 -1.6038
 3131TIP3   OH2 9398   0.737   2.224   2.153  0.8176  0.3212  0.3237
 3131TIP3    H1 9399   0.791   2.230   2.074  1.3266  0.3266  0.6667
 3131TIP3    H2 9400   0.778   2.286   2.214 -0.4874  1.4810  0.0705
 3132TIP3   OH2 9401   3.359   1.306   3.467  0.1511 -0.2047 -0.0091
 3132TIP3    H1 9402   3.264   1.310   3.479  0.0897 -0.9142 -0.2281
 3132TIP3    H2 9403   3.386   1.397   3.457 -0.8521 -0.0985 -2.5581
 3133TIP3   OH2 9404   5.884   1.991   2.135 -0.3018 -0.3206 -0.3588
 3133TIP3    H1 9405   5.970   1.970   2.099 -0.9393 -2.7773 -0.6929
 3133TIP3    H2 9406   5.877   1.936   2.214 -2.0200 -1.1781 -1.0472
 3134TIP3   OH2 9407   5.670   0.759   2.002  0.0377  0.4548  0.4742
 3134TIP3    H1 9408   5.727   0.727   2.072 -1.6911 -0.2094  1.6284
 3134TIP3    H2 9409   5.659   0.852   2.022  2.9322  1.3404 -1.3950
 3135TIP3   OH2 9410   3.520   4.400   3.462  0.0967  0.3700  0.1496
 3135TIP3    H1 9411   3.596   4.346   3.482 -0.3216 -0.5098 -0.5282
 3135TIP3    H2 9412   3.538   4.434   3.374  0.5062  1.6234  0.7022
 3136TIP3   OH2 9413   1.900   2.125   0.435 -0.4465 -0.6342  0.2480
 3136TIP3    H1 9414   1.834   2.056   0.433 -0.9858 -0.1562  0.9896
 3136TIP3    H2 9415   1.984   2.079   0.432 -0.7917 -1.3366  0.9680
 3137TIP3   OH2 9416   3.639   4.849   0.986  0.2127 -0.1074 -0.2058
 3137TIP3    H1 9417   3.684   4.929   1.015  1.9763 -1.1808  0.1406
 3137TIP3    H2 9418   3.599   4.873   0.903 -0.5461  1.5509  0.5828
 3138TIP3   OH2 9419   5.771   4.629   0.738 -0.1316 -0.1976  0.1604
 3138TIP3    H1 9420   5.728   4.683   0.672 -0.0514 -0.0450  0.2321
 3138TIP3    H2 9421   5.860   4.666   0.744 -0.4997  0.5518  1.2116
 3139TIP3   OH2 9422   1.983   5.776   2.485 -0.0989 -0.4372  0.1022
 3139TIP3    H1 9423   2.066   5.818   2.506  0.8701 -0.9971 -2.3333
 3139TIP3    H2 9424   1.993   5.686   2.519  0.0210 -0.3213  0.3819
 3140TIP3   OH2 9425   0.586   5.892   2.896 -0.1707  0.0576 -0.4911
 3140TIP3    H1 9426   0.605   5.837   2.820  1.2773  1.4895 -1.2414
 3140TIP3    H2 9427   0.490   5.898   2.897 -0.3874 -2.3902 -0.3715
 3141TIP3   OH2 9428   2.715   0.648   2.401  0.7279 -0.2409 -0.0292
 3141TIP3    H1 9429   2.667   0.586   2.455  1.9760 -0.5860  0.7118
 3141TIP3    H2 9430   2.735   0.600   2.321 -2.2140  0.6538 -1.4434
 3142TIP3   OH2 9431   5.100   3.889   0.687 -0.0776  0.1930  0.5313
 3142TIP3    H1 9432   5.050   3.832   0.628 -0.6016 -0.1527  1.2937
 3142TIP3    H2 9433   5.191   3.879   0.659 -0.0467 -1.6486  1.1416
 3143TIP3   OH2 9434   5.326   0.138   0.183  0.2075  0.2825 -0.4906
 3143TIP3    H1 9435   5.289   0.203   0.122 -0.2177  0.1910 -0.3306
 3143TIP3    H2 9436   5.252   0.084   0.209  0.8945 -1.6705 -2.3071
 3144TIP3   OH2 9437   1.910   1.795   0.252  0.3641 -0.5582  0.5631
 3144TIP3    H1 9438   1.834   1.841   0.287  0.5219  0.4118 -0.3160
 3144TIP3    H2 9439   1.968   1.783   0.327 -0.1045 -0.1800  0.9910
 3145TIP3   OH2 9440   4.637   4.525   1.801 -0.3342  0.5153  0.0657
 3145TIP3    H1 9441   4.624   4.619   1.797  0.2702  0.5894 -2.6573
 3145TIP3    H2 9442   4.729   4.512   1.779 -0.9672 -0.7363 -2.2018
 3146TIP3   OH2 9443   5.586   3.656   1.932 -0.1815  0.4905  0.5045
 3146TIP3    H1 9444   5.655   3.650   1.998  0.1843  0.3729  0.1164
 3146TIP3    H2 9445   5.506   3.671   1.982  0.3238  2.1050  0.8913
 3147TIP3   OH2 9446   2.911   4.520   3.641 -0.0650 -0.2202  0.1476
 3147TIP3    H1 9447   2.871   4.433   3.632  0.7163 -0.4888 -0.9510
 3147TIP3    H2 9448   3.003   4.502   3.657  0.8354  0.3057 -3.4790
 3148TIP3   OH2 9449   2.966   3.163   3.217 -0.4729  0.0115 -0.1224
 3148TIP3    H1 9450   2.926   3.203   3.139 -0.6639  1.0349  0.4824
 3148TIP3    H2 9451   2.959   3.231   3.285  1.5351 -0.0850  0.2368
 3149TIP3   OH2 9452   4.344   4.659   1.571  0.9496  0.2663  0.2395
 3149TIP3    H1 9453   4.361   4.714   1.647  0.0429  0.3094  0.4239
 3149TIP3    H2 9454   4.346   4.569   1.606 -1.5707  0.3382  0.8186
 3150TIP3   OH2 9455   1.333   3.004   4.281 -0.0349  0.1780  0.0290
 3150TIP3    H1 9456   1.361   2.997   4.372  1.1159  0.3392 -0.3069
 3150TIP3    H2 9457   1.239   2.983   4.284  0.1771 -0.7406  1.1184
 3151TIP3   OH2 9458   4.851   3.386   1.155  0.3629 -0.3023 -0.4906
 3151TIP3    H1 9459   4.828   3.465   1.203  0.7159  0.1718 -1.0991
 3151TIP3    H2 9460   4.854   3.317   1.222 -4.2483 -0.7939 -0.4782
 3152TIP3   OH2 9461   2.209   1.316   5.044 -0.2404  0.0580 -0.1079
 3152TIP3    H1 9462   2.178   1.374   5.114  0.2230  0.1337  0.0373
 3152TIP3    H2 9463   2.155   1.339   4.969  0.5128  1.2913 -0.2971
 3153TIP3   OH2 9464   6.176   1.031   2.450  0.1508 -0.4934  0.4318
 3153TIP3    H1 9465   6.232   1.103   2.480  1.2368 -1.2118  0.1891
 3153TIP3    H2 9466   6.235   0.973   2.403 -1.0364 -0.6980 -0.8596
 3154TIP3   OH2 9467   0.765   5.119   0.786  0.6347  0.7965 -0.5059
 3154TIP3    H1 9468   0.840   5.087   0.835  0.9595  0.7196 -1.0460
 3154TIP3    H2 9469   0.733   5.043   0.738 -0.9136  0.3822  1.1064
 3155TIP3   OH2 9470   2.512   4.726   3.325  0.1435 -0.0693 -0.4531
 3155TIP3    H1 9471   2.423   4.739   3.356  0.6242  0.6638  0.6884
 3155TIP3    H2 9472   2.565   4.721   3.405  0.8662 -2.8925 -0.9683
 3156TIP3   OH2 9473   3.005   2.622   1.427  0.0230  0.9988  0.7832
 3156TIP3    H1 9474   2.999   2.595   1.335  0.8739  2.4059  0.2730
 3156TIP3    H2 9475   2.942   2.693   1.435  1.9499  2.8610  0.4513
 3157TIP3   OH2 9476   0.385   2.319   2.363 -0.2384  0.0213  0.3482
 3157TIP3    H1 9477   0.410   2.373   2.288  0.5736  1.2001  1.4290
 3157TIP3    H2 9478   0.413   2.370   2.439  0.2800 -1.7982  1.4282
 3158TIP3   OH2 9479   3.276   5.350   0.138  0.5062 -0.2593  0.1839
 3158TIP3    H1 9480   3.294   5.266   0.096  1.4021  0.7207 -1.4773
 3158TIP3    H2 9481   3.337   5.354   0.211  0.4013 -1.0718  0.3263
 3159TIP3   OH2 9482   1.852   4.019   2.907 -0.1837  0.5149 -0.6016
 3159TIP3    H1 9483   1.847   3.924   2.899  2.1303  0.0782  1.7631
 3159TIP3    H2 9484   1.922   4.044   2.846 -0.1502  0.5952 -0.5296
 3160TIP3   OH2 9485   0.739   2.300   0.968  0.0115 -0.2850  0.5297
 3160TIP3    H1 9486   0.809   2.286   1.031  0.5284  1.1429  0.3024
 3160TIP3    H2 9487   0.692   2.377   1.000  0.1889  0.3751 -0.7228
 3161TIP3   OH2 9488   1.854   1.927   2.387  0.3597 -0.4469 -0.4524
 3161TIP3    H1 9489   1.894   1.855   2.434 -0.5513 -1.5109 -1.2426
 3161TIP3    H2 9490   1.791   1.965   2.449  2.4082  1.1839  0.7644
 3162TIP3   OH2 9491   5.018   4.395   3.878  0.1905 -0.6648  0.1221
 3162TIP3    H1 9492   5.068   4.465   3.837  1.1390 -1.9757 -1.0577
 3162TIP3    H2 9493   5.032   4.407   3.972 -0.7951  1.4920  0.0637
 3163TIP3   OH2 9494   6.166   0.964   1.176 -0.8875 -0.2111 -0.3095
 3163TIP3    H1 9495   6.258   0.985   1.197 -1.1113 -0.5505  1.1625
 3163TIP3    H2 9496   6.153   0.876   1.211 -1.6890 -0.3062 -0.8228
 3164TIP3   OH2 9497   6.167   4.579   1.303  0.2377  0.0684 -0.4582
 3164TIP3    H1 9498   6.229   4.648   1.277  0.1593 -0.7122 -2.9234
 3164TIP3    H2 9499   6.106   4.624   1.361  2.0960  1.2613  0.7132
 3165TIP3   OH2 9500   4.367   5.654   0.390  0.1280 -0.1883 -0.0397
 3165TIP3    H1 9501   4.422   5.723   0.352 -1.2428  1.0533  0.1737
 3165TIP3    H2 9502   4.389   5.655   0.484  0.0106  0.0502 -0.0145
 3166TIP3   OH2 9503   4.717   3.062   4.747  0.8729 -0.2328 -0.1802
 3166TIP3    H1 9504   4.743   3.013   4.669 -1.0692 -0.0745 -0.9695
 3166TIP3    H2 9505   4.790   3.122   4.763  1.4726 -0.5359 -1.6411
 3167TIP3   OH2 9506   4.415   1.359   1.537 -0.0582  0.5466  0.6908
 3167TIP3    H1 9507   4.448   1.415   1.467 -1.5364  1.7093  0.8773
 3167TIP3    H2 9508   4.381   1.420   1.603  0.3826 -0.5379  1.9672
 3168TIP3   OH2 9509   5.696   4.425   2.604 -0.1060  0.1478 -0.2220
 3168TIP3    H1 9510   5.602   4.421   2.586  0.1908  0.1929 -1.9553
 3168TIP3    H2 9511   5.737   4.383   2.528  1.3347  1.5118 -0.2450
 3169TIP3   OH2 9512   0.028   1.553   3.395 -0.1120 -0.0520 -0.2101
 3169TIP3    H1 9513  -0.044   1.496   3.367 -0.3282 -0.2643  0.7095
 3169TIP3    H2 9514   0.071   1.580   3.315 -1.8692  0.9271 -0.8857
 3170TIP3   OH2 9515   3.301   4.309   1.687 -0.5183  0.6727  0.3623
 3170TIP3    H1 9516   3.361   4.252   1.735 -0.0676  0.5743 -0.3053
 3170TIP3    H2 9517   3.289   4.385   1.745  0.1458  0.6342  0.5630
 3171TIP3   OH2 9518   2.897   3.118   4.732 -0.3094 -0.4901  0.0395
 3171TIP3    H1 9519   2.962   3.050   4.713 -1.1144 -1.1577 -0.3989
 3171TIP3    H2 9520   2.891   3.120   4.827  0.9097  0.1323  0.1258
 3172TIP3   OH2 9521   0.614   4.667   4.341 -0.4101  0.0243 -0.0293
 3172TIP3    H1 9522   0.557   4.668   4.265  0.7409 -0.6099 -0.9237
 3172TIP3    H2 9523   0.660   4.751   4.337 -0.2867 -0.0463 -0.0691
 3173TIP3   OH2 9524   0.362   0.509   3.004 -0.3266  0.3281  0.5988
 3173TIP3    H1 9525   0.321   0.549   3.081 -2.1108  0.2267 -0.2661
 3173TIP3    H2 9526   0.304   0.437   2.980  1.6288 -1.3997  0.7390
 3174TIP3   OH2 9527   2.580   3.451   2.163 -0.3632  0.7769  0.1254
 3174TIP3    H1 9528   2.585   3.539   2.125 -2.3674  0.8591 -0.0816
 3174TIP3    H2 9529   2.667   3.414   2.150  0.1853  2.3142 -0.8340
 3175TIP3   OH2 9530   5.825   2.282   4.051 -0.1593  0.1435 -0.2859
 3175TIP3    H1 9531   5.919   2.292   4.036  0.0445  0.2454  0.9682
 3175TIP3    H2 9532   5.815   2.288   4.146 -1.2711 -1.2218 -0.2792
 3176TIP3   OH2 9533   2.365   4.402   4.108 -0.2757 -0.5239  0.3813
 3176TIP3    H1 9534   2.438   4.464   4.108  0.1890 -1.0647 -0.0941
 3176TIP3    H2 9535   2.301   4.441   4.167  0.7333 -0.4274  1.4500
 3177TIP3   OH2 9536   4.066   4.009   0.164 -0.0896 -0.1041  0.5072
 3177TIP3    H1 9537   4.155   4.013   0.130 -0.0323 -1.0700  0.5066
 3177TIP3    H2 9538   4.076   4.001   0.258 -0.1874  0.1480  0.5401
 3178TIP3   OH2 9539   4.552   1.602   0.743  0.7167 -0.0618  0.3960
 3178TIP3    H1 9540   4.622   1.563   0.691  0.6288 -0.5179  0.6115
 3178TIP3    H2 9541   4.472   1.560   0.711  0.3915  1.2822 -0.6404
 3179TIP3   OH2 9542   0.551   4.945   4.795  0.8615  0.0653 -0.0809
 3179TIP3    H1 9543   0.619   4.878   4.807  1.1192  0.4906  0.9909
 3179TIP3    H2 9544   0.513   4.926   4.709  0.5756 -1.7724  0.4015
 3180TIP3   OH2 9545   3.663   1.318   4.595 -0.2182  0.1864  0.3819
 3180TIP3    H1 9546   3.629   1.313   4.684 -0.5446 -0.2216  0.2428
 3180TIP3    H2 9547   3.651   1.229   4.560  0.5559  0.1569  0.1642
 3181TIP3   OH2 9548   4.361   3.873   3.634 -0.2821 -0.2352  0.2630
 3181TIP3    H1 9549   4.276   3.896   3.598 -0.8269 -0.3850  1.3922
 3181TIP3    H2 9550   4.405   3.824   3.565 -0.2343  1.6636 -1.1299
 3182TIP3   OH2 9551   5.293   3.882   4.375  0.2338  0.3010  0.1425
 3182TIP3    H1 9552   5.253   3.885   4.462 -1.2947  2.1478 -0.5680
 3182TIP3    H2 9553   5.332   3.969   4.364 -0.1774  0.3198 -1.2766
 3183TIP3   OH2 9554   3.954   2.199   4.520  0.4158  0.1433 -0.3407
 3183TIP3    H1 9555   3.915   2.116   4.547  0.5362  0.2397  0.1243
 3183TIP3    H2 9556   3.884   2.264   4.532  0.9024  0.4332  1.1396
 3184TIP3   OH2 9557   5.484   5.774   1.129  0.0257 -0.2779  0.2744
 3184TIP3    H1 9558   5.423   5.702   1.143  0.4697 -0.9168 -0.9196
 3184TIP3    H2 9559   5.550   5.739   1.069  0.2147  1.1448 -0.4066
 3185TIP3   OH2 9560   4.267   5.347   4.402 -0.6306 -0.0462  0.1921
 3185TIP3    H1 9561   4.178   5.364   4.433  0.3175  1.5858  2.2906
 3185TIP3    H2 9562   4.305   5.290   4.468  0.6242  1.3232  0.7226
 3186TIP3   OH2 9563   5.764   4.616   2.382  0.1115  0.5069 -0.2383
 3186TIP3    H1 9564   5.856   4.642   2.386  0.3098 -0.2659  1.1301
 3186TIP3    H2 9565   5.730   4.634   2.470 -0.3886 -1.4247  0.0159
 3187TIP3   OH2 9566   2.376   4.162   1.978 -0.4336 -0.0870  0.4568
 3187TIP3    H1 9567   2.449   4.219   1.953 -2.0485  1.6352 -0.6350
 3187TIP3    H2 9568   2.351   4.117   1.898 -0.9924 -0.1261  0.6424
 3188TIP3   OH2 9569   2.289   3.719   4.922 -0.0867 -0.1437 -0.3269
 3188TIP3    H1 9570   2.218   3.682   4.869 -1.1793  0.3480  0.7450
 3188TIP3    H2 9571   2.256   3.716   5.012  0.8381  1.0653  0.0757
 3189TIP3   OH2 9572   4.329   3.473   0.709  0.2750  0.4231  0.4441
 3189TIP3    H1 9573   4.294   3.419   0.639  2.2443 -2.1021  1.2637
 3189TIP3    H2 9574   4.417   3.496   0.681  0.9309 -0.2546  1.8372
 3190TIP3   OH2 9575   4.376   2.288   3.436 -0.1596 -0.0215 -0.7586
 3190TIP3    H1 9576   4.310   2.302   3.504  0.7286 -0.0699  0.1505
 3190TIP3    H2 9577   4.429   2.368   3.438 -0.0635 -0.0716 -1.3228
 3191TIP3   OH2 9578   3.153   0.338   0.012 -0.4799  0.1325 -0.7635
 3191TIP3    H1 9579   3.196   0.264  -0.030  1.3655  1.4378 -1.3248
 3191TIP3    H2 9580   3.170   0.326   0.106 -0.4621 -0.3152 -0.8238
 3192TIP3   OH2 9581   0.113   3.337   2.863  0.5801  0.7336  0.3576
 3192TIP3    H1 9582   0.090   3.244   2.871  1.3431  0.4280 -0.8119
 3192TIP3    H2 9583   0.030   3.379   2.839  0.5246  0.1156 -0.6188
 3193TIP3   OH2 9584   3.618   5.247   5.038 -0.0950  0.0710  0.2140
 3193TIP3    H1 9585   3.710   5.253   5.014 -0.5082 -0.1313 -1.5860
 3193TIP3    H2 9586   3.579   5.328   5.005 -0.5073  0.3488  1.3365
 3194TIP3   OH2 9587   5.232   5.075   2.952  0.6326  0.0188  0.2925
 3194TIP3    H1 9588   5.137   5.073   2.967  0.5903  1.4218  0.2968
 3194TIP3    H2 9589   5.242   5.114   2.866  1.1656 -1.6936 -0.4604
 3195TIP3   OH2 9590   3.626   3.637   0.340  0.0793  0.4481 -0.5145
 3195TIP3    H1 9591   3.636   3.585   0.260  0.9076  0.2926 -0.3118
 3195TIP3    H2 9592   3.713   3.673   0.357 -0.5758  2.3267 -0.9239
 3196TIP3   OH2 9593   2.094   2.785   2.017  0.8318  0.2924 -0.4997
 3196TIP3    H1 9594   2.113   2.793   2.110 -0.1862  0.2451 -0.2738
 3196TIP3    H2 9595   2.064   2.695   2.007 -2.2762  1.1795 -0.2179
 3197TIP3   OH2 9596   4.733   1.085   2.035 -0.0572  0.3350 -0.4254
 3197TIP3    H1 9597   4.791   1.105   1.961 -1.1455  2.2250 -0.8532
 3197TIP3    H2 9598   4.645   1.095   1.999 -0.6209  2.4928  1.3533
 3198TIP3   OH2 9599   0.316   1.096   4.260  0.7203  0.3410 -0.0541
 3198TIP3    H1 9600   0.394   1.045   4.239 -0.9941 -1.7258 -1.7826
 3198TIP3    H2 9601   0.328   1.121   4.352  2.8926 -0.8094  0.0387
 3199TIP3   OH2 9602   4.583   1.882   0.688  0.2058 -0.1320 -0.0557
 3199TIP3    H1 9603   4.505   1.908   0.639 -1.9671  2.3443  4.1521
 3199TIP3    H2 9604   4.563   1.794   0.720  0.2860 -0.4943 -0.9716
 3200TIP3   OH2 9605   0.817   5.295   2.110  0.3967 -0.2284  0.2098
 3200TIP3    H1 9606   0.853   5.383   2.096 -1.9402  0.7940  0.2124
 3200TIP3    H2 9607   0.865   5.261   2.185  1.9040  0.7063 -0.2887
 3201TIP3   OH2 9608   1.419   1.248   4.892 -0.0292 -0.1491  0.2267
 3201TIP3    H1 9609   1.424   1.199   4.974 -1.5097 -2.2164 -0.8417
 3201TIP3    H2 9610   1.484   1.206   4.836  0.8787  1.1711  0.2418
 3202TIP3   OH2 9611   1.790   3.381   2.635 -0.6731 -0.8498 -0.0894
 3202TIP3    H1 9612   1.815   3.418   2.551 -0.3648  0.8755  0.7106
 3202TIP3    H2 9613   1.858   3.317   2.655 -1.3943 -2.1597 -1.6649
 3203TIP3   OH2 9614   2.121   2.142   4.670 -0.0888 -0.2221 -0.8234
 3203TIP3    H1 9615   2.123   2.111   4.580  1.8320  0.0237 -0.9095
 3203TIP3    H2 9616   2.131   2.063   4.723 -2.1890 -0.4952 -0.7183
 3204TIP3   OH2 9617   6.315   1.243   3.082  0.1239  0.4099 -0.2560
 3204TIP3    H1 9618   6.298   1.337   3.083  0.9733  0.6244  2.3066
 3204TIP3    H2 9619   6.230   1.202   3.094  0.0377  1.0077  1.3973
 3205TIP3   OH2 9620   2.282   3.723   1.553 -0.1349  0.4432  0.2539
 3205TIP3    H1 9621   2.279   3.737   1.458  1.3893 -0.3093  0.0708
 3205TIP3    H2 9622   2.235   3.641   1.567 -0.6052  0.7000  0.1814
 3206TIP3   OH2 9623   2.139   2.305   4.911  0.4098  0.0400 -0.3727
 3206TIP3    H1 9624   2.151   2.386   4.860 -4.5324  1.3761  0.0568
 3206TIP3    H2 9625   2.142   2.235   4.847  0.4813  1.0291 -1.4781
 3207TIP3   OH2 9626   2.791   4.926   3.235  0.3685 -0.1720  0.1471
 3207TIP3    H1 9627   2.807   4.933   3.329  0.5083 -0.4064  0.1411
 3207TIP3    H2 9628   2.698   4.948   3.225  0.0327 -1.3551  0.4839
 3208TIP3   OH2 9629   0.902   3.686   3.043  0.1159 -0.1318 -0.1278
 3208TIP3    H1 9630   0.877   3.677   3.135  0.5047  1.0415  0.1118
 3208TIP3    H2 9631   0.888   3.779   3.023  2.3121  0.1815 -0.5422
 3209TIP3   OH2 9632   2.445   4.897   4.889 -0.6352 -0.2461  0.1875
 3209TIP3    H1 9633   2.479   4.961   4.952 -0.0148 -2.0873  1.8310
 3209TIP3    H2 9634   2.393   4.837   4.943  0.9995 -2.6584 -0.7823
 3210TIP3   OH2 9635   4.161   3.297   2.598 -0.3627  0.9726 -0.0083
 3210TIP3    H1 9636   4.147   3.236   2.670  1.7982  0.0752 -0.2775
 3210TIP3    H2 9637   4.252   3.325   2.607 -0.4341  1.8515 -1.6273
 3211TIP3   OH2 9638   0.905   1.544   0.100 -0.8901 -0.3568 -0.4331
 3211TIP3    H1 9639   0.939   1.456   0.115 -0.3078 -0.4597 -2.1673
 3211TIP3    H2 9640   0.935   1.594   0.176 -0.5657 -1.4590  0.1935
 3212TIP3   OH2 9641   5.677   5.185   2.735  0.1226  0.0622 -0.0668
 3212TIP3    H1 9642   5.588   5.193   2.768 -0.8581 -2.1348 -1.9464
 3212TIP3    H2 9643   5.671   5.210   2.642  1.4607 -0.1605 -0.2404
 3213TIP3   OH2 9644   5.119   0.605   1.663 -0.2280  0.0106 -0.0116
 3213TIP3    H1 9645   5.210   0.636   1.660  0.1706 -1.1492 -0.4824
 3213TIP3    H2 9646   5.103   0.567   1.577 -1.5855  1.2882 -0.3609
 3214TIP3   OH2 9647   6.276   0.955   2.749  0.2017 -0.3014  0.0851
 3214TIP3    H1 9648   6.328   0.971   2.828 -0.4369  0.2370  0.4054
 3214TIP3    H2 9649   6.216   0.885   2.774  0.7885 -0.9634 -0.3041
 3215TIP3   OH2 9650   4.570   2.067   0.403 -0.1211  0.6330  0.7869
 3215TIP3    H1 9651   4.603   2.020   0.479  0.8478  1.2796  0.7843
 3215TIP3    H2 9652   4.502   2.124   0.438  0.4681  1.0846  1.2154
 3216TIP3   OH2 9653   2.814   2.129   4.746 -0.1025 -0.4191 -0.0765
 3216TIP3    H1 9654   2.770   2.205   4.784 -0.3728 -1.5576  2.0318
 3216TIP3    H2 9655   2.869   2.166   4.677 -2.6995  1.3063 -1.4375
 3217TIP3   OH2 9656   5.928   1.665   3.831 -0.0354  0.8572  0.0808
 3217TIP3    H1 9657   5.955   1.686   3.920 -0.3111 -1.5254  0.7865
 3217TIP3    H2 9658   5.957   1.575   3.817 -0.4379  0.9922 -2.0782
 3218TIP3   OH2 9659   0.283   3.866   0.115  0.3234  0.1263 -0.3609
 3218TIP3    H1 9660   0.235   3.932   0.164 -0.6962 -0.0748 -1.0647
 3218TIP3    H2 9661   0.366   3.857   0.162  0.6654  2.1797 -0.4630
 3219TIP3   OH2 9662   2.690   5.599   4.996  0.0497 -0.3865 -0.4245
 3219TIP3    H1 9663   2.760   5.539   4.970 -0.5514 -1.7013  0.8270
 3219TIP3    H2 9664   2.610   5.559   4.962 -0.3065 -0.0255 -0.0285
 3220TIP3   OH2 9665   1.388   3.727   0.821 -0.1456 -0.3992 -0.0462
 3220TIP3    H1 9666   1.294   3.711   0.836 -0.4232 -0.6426 -1.8584
 3220TIP3    H2 9667   1.432   3.672   0.886 -1.2338 -2.2004 -0.7592
 3221TIP3   OH2 9668   5.378   5.037   0.461  0.4802 -0.9281  0.3901
 3221TIP3    H1 9669   5.364   5.082   0.377  1.5073  0.6365  1.0228
 3221TIP3    H2 9670   5.300   5.060   0.512  0.4538 -0.8353  0.3110
 3222TIP3   OH2 9671   2.128   3.638   4.418  0.3746 -0.0612 -0.8331
 3222TIP3    H1 9672   2.120   3.732   4.403 -1.6551  0.1112  0.8720
 3222TIP3    H2 9673   2.124   3.600   4.330 -1.6037  1.3282 -1.4245
 3223TIP3   OH2 9674   5.476   4.290   1.683 -0.1735 -0.3842 -0.3747
 3223TIP3    H1 9675   5.547   4.354   1.675  1.6363 -2.3927 -1.1886
 3223TIP3    H2 9676   5.477   4.264   1.775 -0.8555  0.6332 -0.0614
 3224TIP3   OH2 9677   1.777   2.984   4.731 -1.1381  0.2793 -0.4675
 3224TIP3    H1 9678   1.719   2.964   4.657  1.0455 -2.1686 -1.7081
 3224TIP3    H2 9679   1.779   2.903   4.782  0.4825  0.5701 -0.0130
 3225TIP3   OH2 9680   1.565   3.038   0.065  0.1893 -0.6339 -0.5789
 3225TIP3    H1 9681   1.532   3.092  -0.007 -0.7156 -0.9221 -0.3999
 3225TIP3    H2 9682   1.580   3.100   0.136 -1.3752 -0.6485 -0.1898
 3226TIP3   OH2 9683   6.097   3.334   1.567  0.1523 -0.3316  0.3105
 3226TIP3    H1 9684   6.008   3.356   1.539  0.2725  0.5549  0.6077
 3226TIP3    H2 9685   6.088   3.310   1.659  0.3912  0.9558  0.6844
 3227TIP3   OH2 9686   4.946   5.177   4.152  0.1841  0.1389  0.0229
 3227TIP3    H1 9687   4.984   5.093   4.124  0.6187 -0.1983  1.5319
 3227TIP3    H2 9688   4.927   5.165   4.245  1.7780  2.2260  0.7136
 3228TIP3   OH2 9689   6.308   2.760   0.034  0.5539 -0.3628 -0.1839
 3228TIP3    H1 9690   6.236   2.714   0.078  0.1506  0.7352  0.3362
 3228TIP3    H2 9691   6.342   2.696  -0.029 -1.6932 -0.5239 -1.3518
 3229TIP3   OH2 9692   3.918   3.547   1.551  0.0609 -0.1081  0.4336
 3229TIP3    H1 9693   3.825   3.567   1.550 -0.1887 -1.1248 -1.3736
 3229TIP3    H2 9694   3.926   3.466   1.500  2.1310  0.9703 -1.1155
 3230TIP3   OH2 9695   1.302   1.818   4.668  0.0231 -0.5623 -0.4125
 3230TIP3    H1 9696   1.301   1.856   4.580 -0.8957 -1.2676 -0.7237
 3230TIP3    H2 9697   1.395   1.812   4.691  0.2805 -0.6117 -1.4382
 3231TIP3   OH2 9698   1.003   4.825   3.226 -0.4475 -0.1357 -0.1711
 3231TIP3    H1 9699   0.952   4.803   3.148  0.3757 -1.4440 -0.3737
 3231TIP3    H2 9700   1.023   4.740   3.267 -0.0580  0.4681  0.9420
 3232TIP3   OH2 9701   5.761   3.025   4.452 -0.2930 -0.3463  0.0672
 3232TIP3    H1 9702   5.759   3.072   4.368 -0.5595 -2.3510 -1.1221
 3232TIP3    H2 9703   5.675   2.983   4.458  0.6415 -2.3958 -0.0079
 3233TIP3   OH2 9704   2.780   5.598   3.437  0.0462  0.0224  0.1122
 3233TIP3    H1 9705   2.839   5.609   3.363  0.2783  1.5952  0.5085
 3233TIP3    H2 9706   2.709   5.543   3.403  0.2070  0.6197 -1.2499
 3234TIP3   OH2 9707   5.801   4.292   1.976  0.9710 -0.3120  0.2137
 3234TIP3    H1 9708   5.737   4.285   1.905  2.5855  0.7076 -1.4568
 3234TIP3    H2 9709   5.773   4.227   2.040 -1.5242 -0.1161 -0.5611
 3235TIP3   OH2 9710   0.791   2.707   2.249  0.2357  0.4525  0.1271
 3235TIP3    H1 9711   0.847   2.710   2.327  0.5426  1.9128 -0.1263
 3235TIP3    H2 9712   0.811   2.787   2.202 -1.0555  0.3180 -0.6973
 3236TIP3   OH2 9713   3.271   3.905   4.284  0.0506  0.5344  0.0565
 3236TIP3    H1 9714   3.322   3.835   4.242  3.7577  1.7687  2.0491
 3236TIP3    H2 9715   3.233   3.863   4.362  0.5462  0.2607  0.1546
 3237TIP3   OH2 9716   2.503   3.876   4.022  0.3053 -0.5489  0.0586
 3237TIP3    H1 9717   2.592   3.874   4.057 -0.5506 -3.0087  2.4687
 3237TIP3    H2 9718   2.477   3.967   4.028  2.5232  0.1858 -0.4813
 3238TIP3   OH2 9719   2.095   0.099   3.201  0.4293 -0.2956  0.2611
 3238TIP3    H1 9720   2.097   0.003   3.201  0.3376 -0.2981  0.7025
 3238TIP3    H2 9721   2.177   0.125   3.242  1.0967 -0.1591 -1.0865
 3239TIP3   OH2 9722   5.914   1.829   0.173 -0.4815 -0.0035 -0.1378
 3239TIP3    H1 9723   5.885   1.865   0.257 -0.4808  0.8016 -0.4766
 3239TIP3    H2 9724   6.007   1.851   0.168 -0.2489 -0.8869  0.0697
 3240TIP3   OH2 9725   0.728   5.736   2.728 -0.0425  0.0762  0.0773
 3240TIP3    H1 9726   0.772   5.714   2.810 -0.7105 -0.2991  0.3408
 3240TIP3    H2 9727   0.730   5.655   2.677 -2.3528 -0.6154  0.9771
 3241TIP3   OH2 9728   2.606   4.925   3.795  0.4750  0.2223 -0.5703
 3241TIP3    H1 9729   2.622   4.836   3.824  0.4404  0.0632 -1.0272
 3241TIP3    H2 9730   2.511   4.937   3.804  0.5645  0.4561  0.1555
 3242TIP3   OH2 9731   4.299   0.690   4.281 -0.0916  0.0568  0.2920
 3242TIP3    H1 9732   4.354   0.742   4.339 -0.6998  1.6361 -0.4775
 3242TIP3    H2 9733   4.354   0.673   4.205  0.1794 -0.6212  0.6376
 3243TIP3   OH2 9734   5.185   5.392   3.490 -0.1848 -0.2431 -0.3078
 3243TIP3    H1 9735   5.133   5.472   3.501  0.4658  0.1003  0.3151
 3243TIP3    H2 9736   5.156   5.335   3.561 -0.9455 -0.7386 -0.9952
 3244TIP3   OH2 9737   1.567   4.145   4.177 -0.2556  0.4186 -0.0319
 3244TIP3    H1 9738   1.610   4.175   4.097  1.5676 -0.7548  0.4343
 3244TIP3    H2 9739   1.480   4.185   4.175  0.8059  2.8331 -1.0813
 3245TIP3   OH2 9740   4.743   1.712   2.968 -0.4401  0.3048  0.9034
 3245TIP3    H1 9741   4.694   1.740   3.046  0.5329 -0.5060  1.8310
 3245TIP3    H2 9742   4.685   1.648   2.926 -0.6885  0.2410  1.3326
 3246TIP3   OH2 9743   2.765   1.505   3.758  0.2094 -0.1197  0.0243
 3246TIP3    H1 9744   2.739   1.590   3.722  1.1370  0.2096  0.0845
 3246TIP3    H2 9745   2.755   1.514   3.852 -0.5619 -0.3959 -0.0226
 3247TIP3   OH2 9746   4.431   3.136   4.464  0.2541  0.5417 -0.3983
 3247TIP3    H1 9747   4.514   3.091   4.476  0.7603  1.9278  2.0692
 3247TIP3    H2 9748   4.454   3.220   4.425  0.1681  1.1926  0.8688
 3248TIP3   OH2 9749   4.699   0.655   4.675 -0.3146 -0.1510  0.0280
 3248TIP3    H1 9750   4.697   0.703   4.757 -0.4417 -0.4730  0.2164
 3248TIP3    H2 9751   4.693   0.563   4.701 -0.9041 -0.2298 -0.3631
 3249TIP3   OH2 9752   2.387   0.652   0.704 -0.2707 -0.0783 -0.0482
 3249TIP3    H1 9753   2.437   0.637   0.624  2.3437  0.4370  1.3588
 3249TIP3    H2 9754   2.298   0.669   0.674  0.3771 -0.8786 -2.7481
 3250TIP3   OH2 9755   3.576   2.100   4.843  0.2919  0.5212  0.0022
 3250TIP3    H1 9756   3.581   2.045   4.765  0.7352  2.4859 -1.4457
 3250TIP3    H2 9757   3.628   2.053   4.909 -0.0263 -1.1504 -0.8927
 3251TIP3   OH2 9758   3.261   3.956   2.626 -0.0037 -0.3569 -0.0794
 3251TIP3    H1 9759   3.311   3.875   2.614  0.9180  0.1581  0.2013
 3251TIP3    H2 9760   3.283   4.010   2.550  0.4002  0.1363  0.3769
 3252TIP3   OH2 9761   3.365   3.602   4.951 -0.2201 -0.2068 -1.1551
 3252TIP3    H1 9762   3.387   3.566   5.036 -0.2208  1.2925 -0.4814
 3252TIP3    H2 9763   3.342   3.526   4.897 -1.5615 -1.1046  0.5727
 3253TIP3   OH2 9764   4.913   2.618   1.258  0.0085 -0.2234 -0.2341
 3253TIP3    H1 9765   4.974   2.688   1.235  1.3776 -1.4881 -0.5585
 3253TIP3    H2 9766   4.923   2.553   1.189 -1.7349 -0.4848 -0.2956
 3254TIP3   OH2 9767   5.222   1.175   3.391 -0.6337  0.1358 -0.2221
 3254TIP3    H1 9768   5.256   1.163   3.303 -1.2211 -2.1376 -0.1889
 3254TIP3    H2 9769   5.127   1.169   3.381 -0.7359  0.4283  0.4969
 3255TIP3   OH2 9770   0.165   4.571   3.003 -0.2415  0.1071  0.5864
 3255TIP3    H1 9771   0.237   4.573   2.941  0.4890 -1.6841  1.2978
 3255TIP3    H2 9772   0.094   4.617   2.959  1.1813  1.5535 -0.2910
 3256TIP3   OH2 9773   4.437   0.362   2.404 -0.6786  0.5091 -0.0518
 3256TIP3    H1 9774   4.427   0.437   2.346 -1.6387  0.0003 -0.5695
 3256TIP3    H2 9775   4.530   0.338   2.397  0.0487  2.5866  1.3573
 3257TIP3   OH2 9776   2.515   5.804   1.839  0.5261  0.2078 -0.1848
 3257TIP3    H1 9777   2.537   5.728   1.893  0.5632  1.4429  1.6247
 3257TIP3    H2 9778   2.448   5.771   1.778  0.8824 -1.3743  0.2341
 3258TIP3   OH2 9779   5.327   3.046   1.499  0.4347 -0.1320 -0.4806
 3258TIP3    H1 9780   5.271   2.978   1.463 -0.5214  0.1745  0.3525
 3258TIP3    H2 9781   5.277   3.081   1.573  1.4898  0.5484 -0.0597
 3259TIP3   OH2 9782   4.265   2.923   3.079  0.3421  0.6054 -0.3476
 3259TIP3    H1 9783   4.324   2.849   3.094  1.5832  1.5015 -0.6661
 3259TIP3    H2 9784   4.213   2.897   3.004  0.0297 -0.3728  0.1916
 3260TIP3   OH2 9785   4.307   3.448   0.996  0.4641  0.3616 -0.4283
 3260TIP3    H1 9786   4.361   3.374   1.024  0.1583  0.5069  0.5593
 3260TIP3    H2 9787   4.309   3.444   0.900  1.3459 -0.2706 -0.3945
 3261TIP3   OH2 9788   3.586   2.599   3.330 -0.3592 -0.2178  0.0108
 3261TIP3    H1 9789   3.506   2.644   3.358 -1.2543 -0.6453 -1.7253
 3261TIP3    H2 9790   3.580   2.596   3.235  1.1676 -1.3313 -0.0921
 3262TIP3   OH2 9791   3.049   4.680   0.829 -0.5991 -0.8207  0.1984
 3262TIP3    H1 9792   3.063   4.769   0.862  1.1126 -1.4766  1.3555
 3262TIP3    H2 9793   3.065   4.623   0.904 -1.1738 -2.1625 -0.6472
 3263TIP3   OH2 9794   0.674   1.452   2.933 -0.1655  0.3170 -0.2244
 3263TIP3    H1 9795   0.670   1.388   2.863 -1.2562 -0.6683  0.6895
 3263TIP3    H2 9796   0.584   1.484   2.942  0.3419  1.9496 -0.6175
 3264TIP3   OH2 9797   6.312   4.476   1.773  0.3644  0.5423 -0.1029
 3264TIP3    H1 9798   6.234   4.466   1.828 -0.0423 -0.4057 -0.8298
 3264TIP3    H2 9799   6.281   4.464   1.684  1.3298  0.2535 -0.4131
 3265TIP3   OH2 9800   1.821   5.742   0.565 -0.5319  0.3808 -0.0291
 3265TIP3    H1 9801   1.846   5.829   0.533 -1.4644  0.3377 -0.9473
 3265TIP3    H2 9802   1.743   5.719   0.514  0.6821 -1.7384 -1.0912
 3266TIP3   OH2 9803   4.268   5.422   3.897 -0.1475 -0.4452 -0.6513
 3266TIP3    H1 9804   4.272   5.393   3.988  0.1023 -0.5239 -0.6878
 3266TIP3    H2 9805   4.329   5.495   3.892 -0.2848 -0.3349 -0.7166
 3267TIP3   OH2 9806   3.652   0.480   1.747  0.0923  0.0812 -0.3198
 3267TIP3    H1 9807   3.654   0.385   1.749  0.5457  0.0526 -1.4219
 3267TIP3    H2 9808   3.619   0.502   1.660 -0.5771  0.9355  0.1289
 3268TIP3   OH2 9809   2.154   5.188   3.640  0.0889  0.0410 -0.2304
 3268TIP3    H1 9810   2.165   5.206   3.733 -1.3005 -0.1278 -0.0097
 3268TIP3    H2 9811   2.067   5.149   3.633  0.4260 -0.5303 -1.5256
 3269TIP3   OH2 9812   4.145   4.352   2.625 -0.3804  0.5932  0.1112
 3269TIP3    H1 9813   4.113   4.408   2.695 -0.3468  1.3182 -0.4348
 3269TIP3    H2 9814   4.111   4.265   2.645 -0.4942  0.8263  0.9375
 3270TIP3   OH2 9815   1.436   1.122   1.175  0.0338  0.2156  0.0834
 3270TIP3    H1 9816   1.434   1.213   1.146 -1.9087 -0.2926 -1.5833
 3270TIP3    H2 9817   1.377   1.119   1.250  0.0861  0.3171  0.1288
 3271TIP3   OH2 9818   3.597   3.987   2.384  0.4103 -0.0876  0.2660
 3271TIP3    H1 9819   3.610   3.948   2.297 -1.8388  0.0208 -0.1950
 3271TIP3    H2 9820   3.589   3.912   2.443 -1.9563 -0.3852 -0.3109
 3272TIP3   OH2 9821   2.696   2.059   2.704 -0.1683  0.3407  0.1577
 3272TIP3    H1 9822   2.726   2.075   2.614 -0.1389  1.8990  0.4100
 3272TIP3    H2 9823   2.763   2.101   2.759 -1.7181  2.1274  0.7890
 3273TIP3   OH2 9824   0.815   0.649   5.140  0.5764 -0.6465  0.6172
 3273TIP3    H1 9825   0.876   0.704   5.190  1.8144 -0.8194 -0.6225
 3273TIP3    H2 9826   0.737   0.704   5.130  1.4050  0.5301  0.2730
 3274TIP3   OH2 9827   1.416   0.319   3.921 -0.1697  0.2428 -0.0911
 3274TIP3    H1 9828   1.506   0.326   3.954  0.1227  0.8522 -0.9648
 3274TIP3    H2 9829   1.406   0.225   3.902 -0.3184 -0.1053  1.5682
 3275TIP3   OH2 9830   5.934   3.828   3.834  0.1320  0.3670 -0.3808
 3275TIP3    H1 9831   5.883   3.905   3.809 -0.1909 -0.4741 -2.5648
 3275TIP3    H2 9832   5.868   3.758   3.842  0.5022  0.1401  0.8712
 3276TIP3   OH2 9833   0.055   1.191   3.898  0.5885 -0.5033 -0.1717
 3276TIP3    H1 9834   0.098   1.271   3.866 -1.8004  0.1603 -2.0568
 3276TIP3    H2 9835   0.054   1.200   3.993 -1.7451  3.0414 -0.3367
 3277TIP3   OH2 9836   2.599   2.203   3.006  0.5160  0.1212  0.5769
 3277TIP3    H1 9837   2.588   2.167   2.918  0.5234  1.7250 -0.1148
 3277TIP3    H2 9838   2.643   2.134   3.055 -1.1438 -1.5403 -0.1291
 3278TIP3   OH2 9839   4.383   3.038   2.607  0.3822  0.6346 -0.2018
 3278TIP3    H1 9840   4.375   3.116   2.662 -0.4132 -0.2859  1.0474
 3278TIP3    H2 9841   4.301   3.035   2.558  0.0889  0.1867  0.3089
 3279TIP3   OH2 9842   3.453   1.846   1.145 -0.0570 -0.0234  0.4906
 3279TIP3    H1 9843   3.445   1.837   1.050 -3.2681 -0.3996  0.6713
 3279TIP3    H2 9844   3.499   1.767   1.173  3.1230  1.1858 -0.8393
 3280TIP3   OH2 9845   1.094   1.192   4.027 -0.2743  0.4480 -0.2872
 3280TIP3    H1 9846   1.059   1.268   4.074  0.0835  0.4979 -0.0968
 3280TIP3    H2 9847   1.021   1.130   4.026 -1.0997  1.3703 -1.8180
 3281TIP3   OH2 9848   5.755   5.604   3.524  0.2602  0.3440  0.1501
 3281TIP3    H1 9849   5.733   5.634   3.612 -1.2054 -1.0328  0.2810
 3281TIP3    H2 9850   5.786   5.514   3.536  0.0641  0.1478 -0.7468
 3282TIP3   OH2 9851   0.229   2.562   1.960  0.1364  0.0720 -0.2315
 3282TIP3    H1 9852   0.294   2.632   1.966 -0.3313  0.5554 -0.7492
 3282TIP3    H2 9853   0.171   2.589   1.889 -1.4416  0.3265  1.0982
 3283TIP3   OH2 9854   0.523   4.828   3.831  0.4572  0.4859  0.8476
 3283TIP3    H1 9855   0.434   4.831   3.796  0.6124 -0.3289  0.3410
 3283TIP3    H2 9856   0.563   4.752   3.788  1.4352  0.9070  0.9677
 3284TIP3   OH2 9857   5.627   2.270   1.521 -0.2114  0.4537  0.2518
 3284TIP3    H1 9858   5.665   2.203   1.463 -1.5883 -0.0383 -0.1304
 3284TIP3    H2 9859   5.693   2.284   1.588  0.6742 -0.2954 -0.4323
 3285TIP3   OH2 9860   4.527   0.498   3.562 -0.5032 -0.2732 -0.4358
 3285TIP3    H1 9861   4.517   0.590   3.537  1.3047 -0.1534 -0.8889
 3285TIP3    H2 9862   4.451   0.479   3.617 -0.9891  1.4429 -0.4618
 3286TIP3   OH2 9863   3.450   2.903   2.514  0.5343 -0.2830  0.5329
 3286TIP3    H1 9864   3.386   2.919   2.584 -1.1640 -1.0663 -0.7561
 3286TIP3    H2 9865   3.466   2.809   2.516  0.0911 -0.3958 -0.4078
 3287TIP3   OH2 9866   3.683   1.940   0.921 -0.0225 -0.7777  0.1567
 3287TIP3    H1 9867   3.616   1.875   0.900 -0.3717 -0.6259  0.7724
 3287TIP3    H2 9868   3.637   2.024   0.916 -0.0735 -0.7234  1.3034
 3288TIP3   OH2 9869   0.222   5.312   1.864 -0.2507 -0.0458 -0.5720
 3288TIP3    H1 9870   0.149   5.355   1.908  1.0052 -0.1999  1.8127
 3288TIP3    H2 9871   0.287   5.381   1.850  0.0503 -0.3307 -0.6196
 3289TIP3   OH2 9872   0.657   4.080   4.631 -0.2314  0.0366 -0.1923
 3289TIP3    H1 9873   0.568   4.088   4.596  0.4318  0.8199 -1.8028
 3289TIP3    H2 9874   0.713   4.117   4.563  1.1980  1.2362  1.5426
 3290TIP3   OH2 9875   5.170   0.085   2.310  0.0347 -0.0387 -0.2713
 3290TIP3    H1 9876   5.174   0.152   2.242 -0.7134 -0.3286 -0.6093
 3290TIP3    H2 9877   5.146   0.133   2.390 -0.6755  0.0790 -0.5482
 3291TIP3   OH2 9878   5.781   3.539   2.730  0.4123  0.1663  0.0263
 3291TIP3    H1 9879   5.792   3.620   2.679 -0.0690  0.4550  0.3763
 3291TIP3    H2 9880   5.698   3.503   2.700 -0.2197  0.7012  1.1043
 3292TIP3   OH2 9881   3.618   3.273   5.056 -0.0726  0.1004  0.1452
 3292TIP3    H1 9882   3.524   3.281   5.066 -0.5395 -2.4437 -1.2412
 3292TIP3    H2 9883   3.636   3.306   4.967 -0.1044 -1.6222 -0.5527
 3293TIP3   OH2 9884   2.927   0.379   0.511  0.7057  0.4066  0.0856
 3293TIP3    H1 9885   2.936   0.416   0.599  0.1849  1.4395 -0.2729
 3293TIP3    H2 9886   2.835   0.351   0.507  0.3428  1.6046 -0.5622
 3294TIP3   OH2 9887   3.456   4.689   4.930  0.3555 -0.0439 -0.0930
 3294TIP3    H1 9888   3.370   4.654   4.952  0.7187 -1.1372 -0.3323
 3294TIP3    H2 9889   3.516   4.645   4.989  0.6056  1.9011  1.1762
 3295TIP3   OH2 9890   5.075   4.475   2.077 -0.2240 -0.7388  0.0695
 3295TIP3    H1 9891   5.020   4.553   2.068 -0.5302 -0.8048  1.1743
 3295TIP3    H2 9892   5.020   4.412   2.125  1.3595 -0.1386  2.9206
 3296TIP3   OH2 9893   5.043   1.152   0.759 -0.4692 -0.2833  0.3753
 3296TIP3    H1 9894   5.100   1.228   0.743 -2.0389  0.8007 -0.3791
 3296TIP3    H2 9895   5.103   1.082   0.785  1.2189  0.7329 -0.5743
 3297TIP3   OH2 9896   2.615   2.803   4.325 -0.6979 -0.2072  0.0145
 3297TIP3    H1 9897   2.698   2.793   4.372 -0.4444 -1.8147 -0.7049
 3297TIP3    H2 9898   2.552   2.754   4.378 -1.0044  0.2696  0.0942
 3298TIP3   OH2 9899   4.091   5.158   4.848  0.0965 -0.4696 -0.3810
 3298TIP3    H1 9900   4.108   5.072   4.886  2.8349 -0.6720 -1.8300
 3298TIP3    H2 9901   4.013   5.145   4.794 -0.4293 -1.6170  0.6033
 3299TIP3   OH2 9902   3.294   2.233   2.184 -0.0263  0.3730  0.3460
 3299TIP3    H1 9903   3.280   2.163   2.120 -1.4320  3.8479 -3.6308
 3299TIP3    H2 9904   3.373   2.278   2.154 -1.4893  2.9443  0.0005
 3300TIP3   OH2 9905   0.702   5.668   4.460 -0.1142 -0.1286 -0.0086
 3300TIP3    H1 9906   0.682   5.728   4.388  0.7463 -0.9236 -0.9431
 3300TIP3    H2 9907   0.795   5.648   4.450  0.1099  0.0363  1.5685
 3301TIP3   OH2 9908   5.310   3.245   3.281 -0.7622 -0.1562 -0.0047
 3301TIP3    H1 9909   5.227   3.216   3.245 -0.4651 -1.5321  0.3560
 3301TIP3    H2 9910   5.371   3.174   3.261 -0.0132  0.1861  0.9609
 3302TIP3   OH2 9911   6.047   2.339   5.070  0.7335 -0.2810  0.3597
 3302TIP3    H1 9912   6.069   2.399   5.142 -2.1366  0.7891  0.5059
 3302TIP3    H2 9913   6.093   2.375   4.994  2.2672 -0.2937  1.2413
 3303TIP3   OH2 9914   2.017   2.476   3.220  0.1708 -0.3023  0.0518
 3303TIP3    H1 9915   1.932   2.510   3.249  0.4225 -0.9347  1.6044
 3303TIP3    H2 9916   2.035   2.403   3.278  2.2112  0.3881  0.3568
 3304TIP3   OH2 9917   3.161   0.798   2.220 -0.2845 -0.3856  0.2038
 3304TIP3    H1 9918   3.155   0.721   2.163  0.3891 -0.1935 -0.1276
 3304TIP3    H2 9919   3.094   0.858   2.187  0.4963 -0.0305 -0.7620
 3305TIP3   OH2 9920   3.932   2.044   3.053  0.0031  0.3700 -0.6243
 3305TIP3    H1 9921   3.855   2.031   2.997 -0.4507 -1.4983  0.3586
 3305TIP3    H2 9922   3.994   1.976   3.025  0.7962  1.0341 -0.5304
 3306TIP3   OH2 9923   1.551   5.038   4.694  0.3421 -0.7563  0.1030
 3306TIP3    H1 9924   1.468   4.991   4.709  0.3217 -0.9251 -0.5177
 3306TIP3    H2 9925   1.554   5.104   4.763 -0.2247 -0.8652  0.2361
 3307TIP3   OH2 9926   3.456   1.367   3.830  0.3152 -0.2109 -0.2877
 3307TIP3    H1 9927   3.525   1.386   3.766  0.7055 -0.7523 -0.0410
 3307TIP3    H2 9928   3.504   1.355   3.912  0.0428 -1.6108 -0.3069
 3308TIP3   OH2 9929   0.686   4.146   0.567 -0.7635  0.3354  0.4799
 3308TIP3    H1 9930   0.608   4.154   0.512 -0.3841 -2.1016 -0.5675
 3308TIP3    H2 9931   0.759   4.152   0.506 -0.2288  0.1287  1.0900
 3309TIP3   OH2 9932   2.112   3.922   4.372  0.0141  0.5592 -0.5039
 3309TIP3    H1 9933   2.057   3.977   4.429  0.3408  1.4376 -1.0103
 3309TIP3    H2 9934   2.202   3.948   4.394  0.2629 -1.0962  0.5465
 3310TIP3   OH2 9935   4.576   0.899   0.231  0.0109  0.5801 -0.2830
 3310TIP3    H1 9936   4.649   0.857   0.186  0.6442 -0.8761  1.9206
 3310TIP3    H2 9937   4.499   0.878   0.178  1.0141  1.2907 -2.1045
 3311TIP3   OH2 9938   4.383   5.042   3.423 -0.2673 -0.2204 -0.0234
 3311TIP3    H1 9939   4.459   4.994   3.391 -0.4110  0.1885 -1.0250
 3311TIP3    H2 9940   4.367   5.007   3.510  0.1019 -1.4317 -0.4246
 3312TIP3   OH2 9941   2.598   0.417   4.187 -0.5010  0.4241 -0.1503
 3312TIP3    H1 9942   2.583   0.496   4.134  1.5311  0.8962 -0.1315
 3312TIP3    H2 9943   2.673   0.439   4.241 -0.1319 -1.3980  0.1461
 3313TIP3   OH2 9944   2.433   4.719   2.722  0.0623  0.4535 -0.0586
 3313TIP3    H1 9945   2.507   4.668   2.691  0.9018  1.4128  0.3227
 3313TIP3    H2 9946   2.464   4.809   2.724 -1.1050  0.8778  0.1441
 3314TIP3   OH2 9947   5.860   1.585   4.649  0.0646 -0.9339  0.2645
 3314TIP3    H1 9948   5.868   1.494   4.620  0.0395 -0.6326 -0.7095
 3314TIP3    H2 9949   5.809   1.628   4.581  0.4858 -0.0758  0.4783
 3315TIP3   OH2 9950   2.029   5.531   0.911  0.0741 -0.1510  0.0116
 3315TIP3    H1 9951   1.939   5.543   0.882  0.1774 -1.9470 -1.2176
 3315TIP3    H2 9952   2.022   5.507   1.003 -0.5990  0.8487  0.2377
 3316TIP3   OH2 9953   5.011   3.229   2.792  0.2334 -1.1881  0.1752
 3316TIP3    H1 9954   5.076   3.293   2.764 -1.5953 -0.0124 -1.7706
 3316TIP3    H2 9955   5.052   3.144   2.778  1.6853 -0.4898  0.0172
 3317TIP3   OH2 9956   2.145   3.617   0.226 -0.2073 -0.1766 -0.5659
 3317TIP3    H1 9957   2.132   3.653   0.314  0.6316  0.5933 -0.7544
 3317TIP3    H2 9958   2.184   3.530   0.241  1.3602  0.5640 -0.1965
 3318TIP3   OH2 9959   2.540   4.165   0.117  0.0648  0.8052  0.1649
 3318TIP3    H1 9960   2.474   4.181   0.184  0.0918 -1.1533  0.7438
 3318TIP3    H2 9961   2.603   4.236   0.127 -0.8518  1.5223  1.0246
 3319TIP3   OH2 9962   1.467   5.761   0.982 -0.5864  0.2776 -0.0112
 3319TIP3    H1 9963   1.385   5.753   0.932 -0.5669 -1.0920  0.1501
 3319TIP3    H2 9964   1.500   5.671   0.989 -1.1725  0.2162  3.4728
 3320TIP3   OH2 9965   2.970   2.028   4.336  0.2053  0.4775 -0.1807
 3320TIP3    H1 9966   2.883   1.990   4.328  0.6432 -0.5085 -0.5086
 3320TIP3    H2 9967   3.016   1.971   4.398  0.4204  1.3742  0.5105
 3321TIP3   OH2 9968   2.083   1.150   0.452  0.4949 -0.0790 -0.0306
 3321TIP3    H1 9969   2.086   1.217   0.384 -1.2940  0.3979  0.3158
 3321TIP3    H2 9970   2.125   1.074   0.412  4.4375  1.6908  0.2299
 3322TIP3   OH2 9971   0.974   3.600   1.120  0.3725 -0.2942  0.2562
 3322TIP3    H1 9972   0.953   3.510   1.097  0.6147 -0.2499 -0.1619
 3322TIP3    H2 9973   0.892   3.648   1.107  0.4414 -0.3183 -0.2789
 3323TIP3   OH2 9974   5.767   2.914   4.174 -0.4871 -0.0258  0.0063
 3323TIP3    H1 9975   5.695   2.967   4.139 -1.0353  0.2968  1.5302
 3323TIP3    H2 9976   5.846   2.965   4.156 -0.4086 -0.9308 -2.7699
 3324TIP3   OH2 9977   4.042   4.052   0.746 -0.6198  0.2594 -0.0270
 3324TIP3    H1 9978   3.966   4.090   0.791  0.0550  1.6235  0.0337
 3324TIP3    H2 9979   4.109   4.048   0.814 -1.0258 -2.3832  0.3276
 3325TIP3   OH2 9980   6.324   0.426   4.684 -0.2071 -0.8071 -0.2471
 3325TIP3    H1 9981   6.281   0.464   4.607 -0.6883 -0.4193  0.2055
 3325TIP3    H2 9982   6.316   0.331   4.671 -1.3357 -0.7400 -0.1026
 3326TIP3   OH2 9983   2.188   3.884   0.860 -0.1472 -0.1293  0.4531
 3326TIP3    H1 9984   2.099   3.882   0.825  0.8794  1.1873 -2.4755
 3326TIP3    H2 9985   2.231   3.809   0.819  1.0388  1.3556 -1.1530
 3327TIP3   OH2 9986   2.097   4.087   0.504  0.0833 -0.4657  0.7496
 3327TIP3    H1 9987   2.027   4.145   0.535 -0.1009 -1.3373  2.0301
 3327TIP3    H2 9988   2.063   3.999   0.520  1.4300 -0.9013  1.2860
 3328TIP3   OH2 9989   2.450   2.681   2.605 -0.2724 -0.3107  0.0457
 3328TIP3    H1 9990   2.536   2.659   2.639 -0.6600  0.7471  1.8692
 3328TIP3    H2 9991   2.393   2.610   2.635 -0.2614 -0.4037 -0.1485
 3329TIP3   OH2 9992   0.826   3.586   4.168  0.2888  0.2916 -0.2040
 3329TIP3    H1 9993   0.861   3.562   4.254 -0.2276 -0.0693 -0.0946
 3329TIP3    H2 9994   0.830   3.505   4.117  0.1247  0.3860 -0.3676
 3330TIP3   OH2 9995   3.473   0.885   1.765  0.3038  0.0445  0.6179
 3330TIP3    H1 9996   3.453   0.866   1.856  2.1621  0.4139  1.1591
 3330TIP3    H2 9997   3.553   0.938   1.769  1.3477 -1.2625 -1.2716
 3331TIP3   OH2 9998   0.989   2.442   4.292  0.2422 -0.3808 -0.1858
 3331TIP3    H1 9999   1.000   2.470   4.383  0.0704 -1.7423  0.2768
 3331TIP3    H210000   1.077   2.422   4.262  0.4740  1.3914 -0.7976
 3332TIP3   OH210001   5.419   4.580   4.632  0.0352 -0.3974  0.3952
 3332TIP3    H110002   5.346   4.571   4.693 -1.6897 -2.1146 -1.7598
 3332TIP3    H210003   5.388   4.639   4.564  1.3739  0.3107  0.3604
 3333TIP3   OH210004   3.961   3.740   2.440  0.0912  0.3468 -0.1556
 3333TIP3    H110005   3.919   3.661   2.476  0.9752 -0.7799 -1.5122
 3333TIP3    H210006   4.041   3.708   2.400  0.3273  1.9137 -0.9839
 3334TIP3   OH210007   5.278   1.574   0.913 -0.2682  0.3417  0.2853
 3334TIP3    H110008   5.257   1.625   0.991  0.1956  1.5203 -0.3234
 3334TIP3    H210009   5.363   1.608   0.884 -0.2598 -0.3185 -0.5280
 3335TIP3   OH210010   1.069   4.510   5.129 -1.0914  0.3499 -0.1358
 3335TIP3    H110011   1.004   4.523   5.060  0.5815  2.0537 -1.4995
 3335TIP3    H210012   1.060   4.588   5.185 -0.9813  0.0394  0.3214
 3336TIP3   OH210013   4.407   3.603   4.411  0.3778 -0.0499 -0.1836
 3336TIP3    H110014   4.446   3.677   4.364  1.3958 -1.2738 -1.3252
 3336TIP3    H210015   4.313   3.616   4.402  0.5485  0.6159 -1.1790
 3337TIP3   OH210016   0.689   1.152   5.071  0.1044  0.2334  0.4502
 3337TIP3    H110017   0.664   1.081   5.131 -0.9719  0.2435  0.0448
 3337TIP3    H210018   0.722   1.107   4.994  1.2220  0.2164  0.9193
 3338TIP3   OH210019   4.530   2.012   1.738 -0.5304  0.0340  0.0101
 3338TIP3    H110020   4.573   2.098   1.741 -1.2932  0.3910  1.0291
 3338TIP3    H210021   4.497   2.005   1.648  0.7880  0.1711 -0.5013
 3339TIP3   OH210022   2.389   0.988   0.182 -0.2174  0.3430 -0.3509
 3339TIP3    H110023   2.347   1.053   0.124 -1.4032 -0.5495 -0.5327
 3339TIP3    H210024   2.327   0.977   0.254  0.0721 -0.4458 -0.2193
 3340TIP3   OH210025   3.870   1.475   3.450  0.1925  0.5468 -0.8546
 3340TIP3    H110026   3.939   1.477   3.516  1.2548  0.6044 -1.9316
 3340TIP3    H210027   3.908   1.427   3.377 -0.4398  1.6951 -1.9842
 3341TIP3   OH210028   0.263   5.316   4.889 -0.0019  0.1633  0.0646
 3341TIP3    H110029   0.332   5.309   4.955 -0.0547 -0.1661  0.0824
 3341TIP3    H210030   0.293   5.262   4.816 -1.0569 -1.4442  0.7691
 3342TIP3   OH210031   2.493   4.099   3.298 -0.4580  0.1298  1.0041
 3342TIP3    H110032   2.548   4.095   3.220  1.4356  1.4277  2.1826
 3342TIP3    H210033   2.403   4.092   3.265  0.2339  1.4059 -1.3824
 3343TIP3   OH210034   2.809   0.520   3.026 -0.1210 -0.1649 -0.3004
 3343TIP3    H110035   2.746   0.465   3.073  1.2483 -2.2195 -0.7338
 3343TIP3    H210036   2.894   0.501   3.067  0.8947 -0.9098 -2.5831
 3344TIP3   OH210037   1.776   4.815   0.093 -0.0173  0.2637 -0.2817
 3344TIP3    H110038   1.742   4.736   0.049  0.8159 -1.0718  1.3458
 3344TIP3    H210039   1.866   4.792   0.117  0.1694  1.6376  0.4319
 3345TIP3   OH210040   0.319   3.229   0.607 -0.2013  0.0765  0.0530
 3345TIP3    H110041   0.385   3.293   0.630 -0.7123  0.2625  1.0925
 3345TIP3    H210042   0.295   3.188   0.691 -1.3572 -0.0087 -0.2909
 3346TIP3   OH210043   1.439   5.088   3.372  0.1626  0.0979 -0.6369
 3346TIP3    H110044   1.427   5.170   3.419 -1.0219 -0.0991 -0.5652
 3346TIP3    H210045   1.377   5.027   3.412  1.4289 -1.0219 -0.2977
 3347TIP3   OH210046   4.170   4.818   4.263  0.4153 -0.0351 -0.6888
 3347TIP3    H110047   4.127   4.733   4.266  0.4048 -0.0200 -0.2864
 3347TIP3    H210048   4.125   4.866   4.194  0.0656 -0.1667 -0.5532
 3348TIP3   OH210049   0.628   5.501   0.301 -0.5049 -0.0984 -0.0503
 3348TIP3    H110050   0.616   5.582   0.251 -1.4158 -2.0081 -3.2503
 3348TIP3    H210051   0.539   5.476   0.327 -0.1618  0.1854  1.5324
 3349TIP3   OH210052   6.062   3.025   2.658 -0.0610  0.4978  0.4509
 3349TIP3    H110053   6.104   2.946   2.624 -2.0585 -0.8659  0.9474
 3349TIP3    H210054   6.125   3.060   2.721  0.5186 -1.2082  0.8742
 3350TIP3   OH210055   2.669   4.333   5.190  0.1006  0.1326  0.6514
 3350TIP3    H110056   2.578   4.347   5.163 -0.6175  0.7162  3.0902
 3350TIP3    H210057   2.720   4.345   5.110 -1.7727  2.1360 -0.3579
 3351TIP3   OH210058   3.406   3.590   3.883 -0.7588 -0.4345  0.1800
 3351TIP3    H110059   3.326   3.537   3.876  0.0060 -1.5258 -0.5321
 3351TIP3    H210060   3.474   3.535   3.845 -0.0225  1.2712 -1.0476
 3352TIP3   OH210061   3.159   5.918   2.799 -0.5814  0.0973 -0.1514
 3352TIP3    H110062   3.140   5.989   2.738 -2.6232 -1.7628 -1.8725
 3352TIP3    H210063   3.093   5.927   2.868 -0.1640  0.4737  0.2021
 3353TIP3   OH210064   4.927   0.765   3.031  0.1048  0.7617  0.0033
 3353TIP3    H110065   4.900   0.683   2.991 -1.7313  0.8440  0.9499
 3353TIP3    H210066   4.848   0.820   3.029  1.2352  2.4445 -0.4403
 3354TIP3   OH210067   4.211   5.846   3.238  0.3578  0.0407  0.2633
 3354TIP3    H110068   4.306   5.842   3.231  0.4120 -1.0871  1.1889
 3354TIP3    H210069   4.194   5.923   3.293  0.8325 -0.4722  1.1594
 3355TIP3   OH210070   2.739   3.559   2.820 -0.3163 -0.1308 -0.0157
 3355TIP3    H110071   2.828   3.564   2.784  0.0629  0.8236  1.0069
 3355TIP3    H210072   2.684   3.601   2.754 -0.1631 -1.4840 -1.0498
 3356TIP3   OH210073   0.516   0.145   1.139  0.1758 -0.1724 -0.2312
 3356TIP3    H110074   0.514   0.091   1.218  0.6240  0.4233  0.1920
 3356TIP3    H210075   0.535   0.083   1.068  0.3898 -0.6105  0.2073
 3357TIP3   OH210076   0.157   5.010   1.142 -0.5084 -0.1238  0.4809
 3357TIP3    H110077   0.170   5.065   1.066  1.0559 -0.0857  0.7292
 3357TIP3    H210078   0.163   5.070   1.217  2.7243 -0.6828  0.8468
 3358TIP3   OH210079   0.436   3.176   2.548 -0.0161  0.3356 -0.2987
 3358TIP3    H110080   0.459   3.121   2.473  1.3292 -0.2532  0.5254
 3358TIP3    H210081   0.518   3.191   2.593 -0.6774  1.4133  0.5971
 3359TIP3   OH210082   3.616   0.761   3.516  0.3073  0.2637 -0.2879
 3359TIP3    H110083   3.700   0.739   3.557  0.2340 -1.0036 -0.7688
 3359TIP3    H210084   3.577   0.826   3.575  1.3967  0.5072  0.1991
 3360TIP3   OH210085   6.088   2.617   0.159 -0.6390  0.2767 -0.2452
 3360TIP3    H110086   6.109   2.569   0.239 -0.2131  0.8917  0.0181
 3360TIP3    H210087   6.113   2.558   0.088  0.3676  0.2969  0.0696
 3361TIP3   OH210088   4.304   3.301   0.490 -0.6399 -0.4627  0.5027
 3361TIP3    H110089   4.388   3.267   0.459 -0.1428  0.4382  0.8245
 3361TIP3    H210090   4.300   3.390   0.455 -2.2156 -1.0211 -0.8802
 3362TIP3   OH210091   2.929   5.080   1.794  0.4770  0.1305 -0.0434
 3362TIP3    H110092   2.856   5.131   1.759 -1.3396 -1.4140  1.3252
 3362TIP3    H210093   2.973   5.045   1.716 -1.1856 -0.1432 -0.9085
 3363TIP3   OH210094   6.180   5.845   0.031 -0.1007  0.5989 -1.1586
 3363TIP3    H110095   6.105   5.807  -0.015  0.5746 -2.4766 -0.0027
 3363TIP3    H210096   6.254   5.790   0.005  0.6331 -0.1595  2.0322
 3364TIP3   OH210097   2.086   4.189   1.786 -0.0020  0.2500  0.0875
 3364TIP3    H110098   2.141   4.261   1.753 -0.0867  0.4368  0.3542
 3364TIP3    H210099   2.034   4.162   1.710 -1.0253  1.4352  0.3324
 3365TIP3   OH210100   6.015   3.275   3.832  0.0361 -0.6128  0.2319
 3365TIP3    H110101   6.036   3.198   3.780 -0.7691 -1.2157  0.7867
 3365TIP3    H210102   6.088   3.283   3.894  1.8298  1.0132 -1.8951
 3366TIP3   OH210103   0.409   4.036   1.633  0.0146  0.0367  0.8385
 3366TIP3    H110104   0.352   4.105   1.599 -0.7893 -0.1391  1.7897
 3366TIP3    H210105   0.494   4.079   1.644 -0.3243  0.7146  0.8589
 3367TIP3   OH210106   2.088   4.182   0.037  0.7102  0.2672  0.2824
 3367TIP3    H110107   2.182   4.176   0.052  1.0707  0.6870 -1.5756
 3367TIP3    H210108   2.049   4.131   0.108  2.3880 -0.8437  0.4611
 3368TIP3   OH210109   1.359   0.808   1.233  0.1903 -0.2200 -0.0024
 3368TIP3    H110110   1.364   0.715   1.215 -0.9143 -0.7437  2.0670
 3368TIP3    H210111   1.448   0.833   1.256  0.5614 -0.6703 -0.9225
 3369TIP3   OH210112   4.482   0.047   3.562  0.1172 -0.1383  0.2702
 3369TIP3    H110113   4.396   0.053   3.605  0.2890  1.9240  0.4199
 3369TIP3    H210114   4.497   0.134   3.526  0.5928 -1.3574 -2.8851
 3370TIP3   OH210115   5.144   5.631   4.949 -0.0878  0.0204 -0.1924
 3370TIP3    H110116   5.118   5.719   4.920  1.3441  0.5082 -0.0849
 3370TIP3    H210117   5.239   5.638   4.963 -0.0378 -1.4144  0.3004
 3371TIP3   OH210118   1.924   4.148   4.878  0.7681  0.0080  0.1716
 3371TIP3    H110119   1.979   4.069   4.873 -0.6534 -0.9693 -0.6826
 3371TIP3    H210120   1.979   4.218   4.844  1.9487 -0.6607  0.6285
 3372TIP3   OH210121   4.715   0.559   1.087 -0.1482 -0.3092 -0.0429
 3372TIP3    H110122   4.751   0.584   1.172 -0.2339 -0.8796  0.1645
 3372TIP3    H210123   4.670   0.638   1.057 -0.1630 -0.1161  0.4656
 3373TIP3   OH210124   2.966   1.900   3.297 -0.2452 -0.4758  0.0908
 3373TIP3    H110125   3.027   1.971   3.314 -2.1813  1.0430  1.1797
 3373TIP3    H210126   2.935   1.874   3.384 -2.7091  0.3344 -0.4565
 3374TIP3   OH210127   4.062   4.715   2.645  0.3786 -0.3388  0.0449
 3374TIP3    H110128   4.150   4.738   2.615  1.0954 -3.9047 -1.1129
 3374TIP3    H210129   4.070   4.710   2.741  1.3149 -0.1996 -0.0170
 3375TIP3   OH210130   1.599   3.444   5.117  0.0118  0.7907  0.4880
 3375TIP3    H110131   1.656   3.397   5.178  0.4626  2.8296  1.7321
 3375TIP3    H210132   1.573   3.523   5.165 -1.4921  1.3479 -1.1449
 3376TIP3   OH210133   3.499   2.008   2.710  0.0441 -0.1847 -0.1871
 3376TIP3    H110134   3.433   1.985   2.775  1.0657  1.0837  1.3876
 3376TIP3    H210135   3.499   2.104   2.710  1.1831 -0.1730 -0.8697
 3377TIP3   OH210136   4.521   0.149   2.884  0.4875  0.1820 -0.0879
 3377TIP3    H110137   4.612   0.118   2.882  0.0049 -1.2536 -0.6852
 3377TIP3    H210138   4.490   0.136   2.794 -0.3259  0.6323  0.1239
 3378TIP3   OH210139   5.688   4.911   3.315 -0.2044  0.0690  0.6294
 3378TIP3    H110140   5.647   4.839   3.364  1.5556 -1.1116  0.4528
 3378TIP3    H210141   5.689   4.984   3.376 -2.2321  0.0754  0.7459
 3379TIP3   OH210142   3.271   1.849   4.092  0.0283  1.0331 -0.3423
 3379TIP3    H110143   3.256   1.860   4.185 -0.5132 -2.1004  0.0313
 3379TIP3    H210144   3.184   1.853   4.053 -0.0578 -0.3204 -0.3323
 3380TIP3   OH210145   0.802   2.829   4.517  0.0148  0.3464 -0.5544
 3380TIP3    H110146   0.827   2.839   4.425  1.9838  0.1853 -0.0876
 3380TIP3    H210147   0.763   2.742   4.522  2.1913 -0.7138 -0.8370
 3381TIP3   OH210148   5.600   5.432   4.555  0.2718 -0.0703 -0.1980
 3381TIP3    H110149   5.681   5.470   4.589  0.3476 -0.2450 -0.1856
 3381TIP3    H210150   5.557   5.505   4.510 -0.3505  0.4772  1.1904
 3382TIP3   OH210151   5.663   3.035   2.255  0.1937  0.0492  0.1933
 3382TIP3    H110152   5.741   3.070   2.298 -0.3013  0.7793  0.5134
 3382TIP3    H210153   5.666   2.941   2.273  0.4684  0.2144  1.0700
 3383TIP3   OH210154   1.657   2.245   2.446 -0.1185 -0.0903  0.3121
 3383TIP3    H110155   1.696   2.173   2.495 -0.5209  0.4662  1.5057
 3383TIP3    H210156   1.564   2.222   2.438  0.0255 -0.3878 -0.6015
 3384TIP3   OH210157   5.404   2.590   0.783  0.3792 -0.0552 -0.0425
 3384TIP3    H110158   5.410   2.505   0.739 -0.2398  0.1940 -0.6202
 3384TIP3    H210159   5.442   2.652   0.721  1.0947  0.0570  0.4966
 3385TIP3   OH210160   2.536   1.191   0.479  0.1131 -0.0314 -0.2179
 3385TIP3    H110161   2.526   1.102   0.512 -0.9631  0.1235 -0.0598
 3385TIP3    H210162   2.599   1.232   0.537  0.6429 -0.7001 -0.3165
 3386TIP3   OH210163   5.340   3.664   1.214  0.0241 -0.1434 -0.5062
 3386TIP3    H110164   5.258   3.640   1.170  0.6476  0.5169 -2.0802
 3386TIP3    H210165   5.317   3.743   1.264 -0.5057 -0.4744 -0.2100
 3387TIP3   OH210166   3.430   4.567   1.405  0.5819  0.3537 -0.1589
 3387TIP3    H110167   3.500   4.632   1.405  1.2565 -0.3410  0.5939
 3387TIP3    H210168   3.474   4.485   1.383 -0.0936 -0.0176 -0.1656
 3388TIP3   OH210169   2.834   5.087   2.184  0.2174 -0.0987 -0.2942
 3388TIP3    H110170   2.827   5.178   2.155 -0.6754 -0.1117 -0.1295
 3388TIP3    H210171   2.771   5.039   2.129 -0.5077 -0.3460  0.7351
 3389TIP3   OH210172   4.979   3.771   3.780 -0.0394 -0.1108 -0.0456
 3389TIP3    H110173   4.904   3.734   3.826 -1.0973  0.5107 -1.2078
 3389TIP3    H210174   4.978   3.728   3.694  0.6272  0.2667 -0.2450
 3390TIP3   OH210175   4.579   2.722   1.612  0.5387  0.0114 -0.4774
 3390TIP3    H110176   4.580   2.646   1.554  1.2991 -1.3795  1.2368
 3390TIP3    H210177   4.592   2.685   1.700  0.2312  2.0725  0.5074
 3391TIP3   OH210178   1.607   3.160   3.644 -0.4724  0.3014 -0.2169
 3391TIP3    H110179   1.688   3.170   3.695  1.5058 -1.9488 -2.5510
 3391TIP3    H210180   1.587   3.248   3.613  1.9080  0.7982 -0.5959
 3392TIP3   OH210181   4.145   5.558   3.701 -0.6753  0.0211 -0.2347
 3392TIP3    H110182   4.194   5.509   3.767 -0.9384  0.7222  0.5028
 3392TIP3    H210183   4.208   5.575   3.632 -0.3429 -0.5675 -0.0842
 3393TIP3   OH210184   3.861   1.060   3.549 -0.1743  0.0097  0.4340
 3393TIP3    H110185   3.767   1.079   3.545  0.1107  1.9775  1.5348
 3393TIP3    H210186   3.899   1.113   3.478  0.0329 -1.5471 -0.6544
 3394TIP3   OH210187   2.460   2.352   0.316 -0.1492  0.3012  0.1964
 3394TIP3    H110188   2.455   2.447   0.303  2.3807  0.8830  2.5754
 3394TIP3    H210189   2.428   2.338   0.405 -2.3478 -1.4114 -0.7761
 3395TIP3   OH210190   3.833   2.441   1.233  0.5433 -0.6069 -0.3849
 3395TIP3    H110191   3.772   2.437   1.307  1.9641 -0.4640  0.8508
 3395TIP3    H210192   3.828   2.531   1.202  1.4390 -0.0834  0.9086
 3396TIP3   OH210193   4.310   4.685   4.810 -0.1307  0.2250 -0.3320
 3396TIP3    H110194   4.290   4.710   4.720 -0.0821  1.2934 -0.0603
 3396TIP3    H210195   4.275   4.596   4.819  0.9879 -0.4064 -1.7690
 3397TIP3   OH210196   4.825   2.570   1.694  0.8746  0.3242  0.4326
 3397TIP3    H110197   4.822   2.546   1.602 -1.7927  0.7407  0.3318
 3397TIP3    H210198   4.896   2.634   1.700  0.6206  0.8359 -1.4642
 3398TIP3   OH210199   1.221   3.049   1.828  0.5201  0.2998  0.1474
 3398TIP3    H110200   1.310   3.063   1.797  0.6774  0.9393  0.8571
 3398TIP3    H210201   1.199   2.960   1.800  2.8389 -1.4961  3.3213
 3399TIP3   OH210202   6.311   5.166   2.591 -0.0842  0.6596  0.1225
 3399TIP3    H110203   6.385   5.209   2.548  1.5858 -2.2066 -0.1602
 3399TIP3    H210204   6.298   5.215   2.671 -0.5739  3.6607 -1.6636
 3400TIP3   OH210205   0.186   2.806   3.095  0.2146 -0.2178 -0.1748
 3400TIP3    H110206   0.274   2.788   3.128  0.4773 -1.7832 -1.6027
 3400TIP3    H210207   0.130   2.740   3.137  0.1881 -0.8411 -1.1456
 3401TIP3   OH210208   2.779   4.963   4.738 -0.0412 -0.7111 -0.2574
 3401TIP3    H110209   2.767   4.988   4.647  1.5119 -0.4120 -0.3986
 3401TIP3    H210210   2.690   4.962   4.774 -0.6428 -0.4743 -1.6626
 3402TIP3   OH210211   1.407   3.045   4.535 -0.4786  0.2296 -0.0135
 3402TIP3    H110212   1.459   2.984   4.587 -1.8117 -0.4531  0.5615
 3402TIP3    H210213   1.364   3.101   4.600  0.1347  1.3074 -0.5105
 3403TIP3   OH210214   4.382   0.522   4.767  0.4644  0.5009  0.5828
 3403TIP3    H110215   4.304   0.480   4.804  0.3829  0.6930  0.6327
 3403TIP3    H210216   4.371   0.615   4.787  0.4417  0.6031  0.1102
 3404TIP3   OH210217   0.179   3.529   0.912 -0.1391 -0.1134  0.0191
 3404TIP3    H110218   0.158   3.473   0.837  1.8242 -2.2343  0.9335
 3404TIP3    H210219   0.117   3.501   0.980  0.4740 -0.8160  0.2999
 3405TIP3   OH210220   0.243   5.903   1.103  0.2062 -0.1946 -0.5973
 3405TIP3    H110221   0.161   5.933   1.064  0.0426  0.0655 -0.0625
 3405TIP3    H210222   0.311   5.956   1.061  0.0124  0.2306 -0.3757
 3406TIP3   OH210223   4.861   3.367   3.839  0.2582 -0.1271  0.0207
 3406TIP3    H110224   4.956   3.380   3.841  0.1906  0.4954 -0.5143
 3406TIP3    H210225   4.848   3.283   3.883  1.0619 -0.2533  0.0409
 3407TIP3   OH210226   1.741   2.358   3.036  0.4408  0.1936  0.2371
 3407TIP3    H110227   1.796   2.437   3.042  1.1225 -0.3580  1.4269
 3407TIP3    H210228   1.803   2.286   3.038 -0.0119 -0.4179 -2.6709
 3408TIP3   OH210229   3.963   5.113   3.755  0.4764 -0.1114 -0.3974
 3408TIP3    H110230   4.004   5.081   3.675 -0.9482 -0.4863 -1.0153
 3408TIP3    H210231   3.878   5.067   3.758  0.1205  0.5912  0.8371
 3409TIP3   OH210232   5.152   3.635   1.747  0.7102 -0.6621  0.4644
 3409TIP3    H110233   5.153   3.541   1.730  1.9768 -0.4790 -0.5867
 3409TIP3    H210234   5.190   3.675   1.668  0.6777  0.6918  1.1007
 3410TIP3   OH210235   5.611   4.862   4.489  0.0690 -0.0585  0.5680
 3410TIP3    H110236   5.520   4.882   4.467  0.7925  0.3333 -2.4881
 3410TIP3    H210237   5.638   4.936   4.543 -1.0691  0.4581  0.4681
 3411TIP3   OH210238   6.009   0.817   5.022  0.5728 -0.1259  0.3047
 3411TIP3    H110239   6.040   0.848   5.107  0.2073 -1.3772  0.9200
 3411TIP3    H210240   6.086   0.822   4.965  0.2756  3.0184 -0.0196
 3412TIP3   OH210241   2.776   5.014   4.470 -0.3313  0.0024 -0.1838
 3412TIP3    H110242   2.848   4.962   4.432  0.6226  1.6792 -0.7799
 3412TIP3    H210243   2.791   5.102   4.436 -1.8963  0.6731  0.8147
 3413TIP3   OH210244   4.640   2.362   4.838 -0.1626 -0.1769  0.2210
 3413TIP3    H110245   4.571   2.425   4.821 -0.1551  0.4755  2.3088
 3413TIP3    H210246   4.672   2.384   4.926  3.4590  0.2876 -1.0287
 3414TIP3   OH210247   4.023   4.022   3.033 -0.2224  0.0766  0.0294
 3414TIP3    H110248   4.013   4.075   2.954  0.2573 -0.2607 -0.2675
 3414TIP3    H210249   3.936   4.020   3.073  0.2048  3.1462  1.4023
 3415TIP3   OH210250   0.839   4.983   4.646 -0.4075  0.0977 -0.1764
 3415TIP3    H110251   0.753   4.996   4.685  0.2934  1.0434  1.1274
 3415TIP3    H210252   0.899   4.977   4.720  0.4971 -2.0532 -1.0019
 3416TIP3   OH210253   4.789   5.660   3.420 -0.0314  0.0779  0.4145
 3416TIP3    H110254   4.759   5.572   3.399 -2.1706  0.6480  0.8599
 3416TIP3    H210255   4.732   5.689   3.490  0.0716  2.1271 -0.2750
 3417TIP3   OH210256   1.729   0.427   0.511 -0.3209  0.7218 -0.6395
 3417TIP3    H110257   1.764   0.516   0.508 -0.4112  0.7517 -0.8570
 3417TIP3    H210258   1.789   0.379   0.568 -0.2814  0.9263 -0.5104
 3418TIP3   OH210259   0.769   4.801   1.484  0.0165 -0.2669 -0.4122
 3418TIP3    H110260   0.697   4.769   1.539 -1.5303  0.3717 -1.9882
 3418TIP3    H210261   0.746   4.892   1.465  1.9515  0.3857  0.1250
 3419TIP3   OH210262   0.480   0.469   2.244 -0.3288  0.1459 -0.5214
 3419TIP3    H110263   0.499   0.386   2.200  0.6865  0.5616 -0.9122
 3419TIP3    H210264   0.390   0.488   2.220 -0.9196 -1.3336  0.4089
 3420TIP3   OH210265   2.150   1.055   2.881  0.1956  0.3611 -0.4594
 3420TIP3    H110266   2.186   1.122   2.822 -1.4417 -0.0065 -1.9456
 3420TIP3    H210267   2.081   1.013   2.831  1.0443 -2.3757  0.4849
 3421TIP3   OH210268   1.958   2.366   1.617 -0.3074  0.0248  0.4458
 3421TIP3    H110269   1.917   2.294   1.666 -0.3005  0.1497  0.6372
 3421TIP3    H210270   1.944   2.343   1.525  1.5223 -1.3076  0.4387
 3422TIP3   OH210271   5.446   1.872   0.898 -0.0827 -0.1375  0.1526
 3422TIP3    H110272   5.500   1.929   0.953  1.4704  0.9424 -2.3132
 3422TIP3    H210273   5.364   1.920   0.888 -0.0297  0.0910  0.7676
 3423TIP3   OH210274   4.180   2.071   4.498 -0.0196 -0.1738 -0.8632
 3423TIP3    H110275   4.149   1.994   4.450 -1.5231 -0.3184  0.2839
 3423TIP3    H210276   4.116   2.139   4.479  1.9633  1.3070 -2.9223
 3424TIP3   OH210277   5.695   4.398   0.485  0.1736  0.1028 -0.0846
 3424TIP3    H110278   5.683   4.318   0.433 -0.1723 -0.0090  0.1562
 3424TIP3    H210279   5.766   4.445   0.442  0.5890 -0.4819 -0.0584
 3425TIP3   OH210280   1.253   3.340   0.118  0.2774 -0.2807  0.3662
 3425TIP3    H110281   1.243   3.293   0.035  0.2507 -0.8097  0.6674
 3425TIP3    H210282   1.198   3.418   0.107  2.7260  1.3678 -1.3386
 3426TIP3   OH210283   1.146   1.771   3.538 -0.1883  0.1518 -0.3083
 3426TIP3    H110284   1.050   1.768   3.545 -0.2590  1.4460 -0.4636
 3426TIP3    H210285   1.165   1.734   3.452 -0.5583  0.0127 -0.3332
 3427TIP3   OH210286   1.885   4.771   2.471  0.0541 -0.6897 -0.2231
 3427TIP3    H110287   1.909   4.679   2.459  1.1855 -0.7735  2.1504
 3427TIP3    H210288   1.871   4.780   2.565 -0.3678  1.5143 -0.4459
 3428TIP3   OH210289   4.394   3.176   2.873  0.5128 -0.0812  0.4209
 3428TIP3    H110290   4.465   3.239   2.862 -0.1362  0.4879 -0.7199
 3428TIP3    H210291   4.438   3.094   2.896  1.5823  0.1468 -0.7086
 3429TIP3   OH210292   6.111   4.448   0.439  0.7306 -0.5737 -0.1494
 3429TIP3    H110293   6.157   4.481   0.362 -1.8156  5.5183  0.2851
 3429TIP3    H210294   6.161   4.481   0.513 -0.3470 -0.3861  0.5199
 3430TIP3   OH210295   0.248   1.524   1.883  0.0461  0.5961 -0.1915
 3430TIP3    H110296   0.279   1.558   1.968  2.0112 -1.1988 -0.1122
 3430TIP3    H210297   0.178   1.585   1.858 -2.0379  0.1094  3.6134
 3431TIP3   OH210298   1.829   1.908   3.753 -0.5489  0.2745 -0.4531
 3431TIP3    H110299   1.849   1.824   3.796  1.2351  0.3352 -1.0949
 3431TIP3    H210300   1.749   1.890   3.703 -1.9719 -0.1486  1.8341
 3432TIP3   OH210301   3.676   1.590   3.294  0.2526  0.5033  0.4196
 3432TIP3    H110302   3.744   1.587   3.361  1.4445  2.8533 -0.5511
 3432TIP3    H210303   3.725   1.605   3.212 -1.0815 -2.6642 -1.1427
 3433TIP3   OH210304   4.662   1.292   0.137  0.0525  0.6904  0.1231
 3433TIP3    H110305   4.632   1.228   0.072  0.5759  1.1662 -0.5977
 3433TIP3    H210306   4.659   1.376   0.092  2.0420  0.8201  0.1397
 3434TIP3   OH210307   3.769   1.172   2.804 -0.1912  0.0783 -0.2913
 3434TIP3    H110308   3.722   1.090   2.792  1.6357 -1.4127  2.0428
 3434TIP3    H210309   3.713   1.224   2.862 -1.6366  0.8512 -2.2508
 3435TIP3   OH210310   0.430   5.482   1.807  0.1522 -0.1459  0.0604
 3435TIP3    H110311   0.494   5.542   1.845  1.8739 -2.2897  0.7306
 3435TIP3    H210312   0.473   5.448   1.729 -0.6019 -0.8327 -0.0631
 3436TIP3   OH210313   5.865   3.703   1.541 -0.3147  0.4893 -0.3503
 3436TIP3    H110314   5.944   3.724   1.491 -0.4184 -0.7727 -1.0626
 3436TIP3    H210315   5.852   3.609   1.529 -0.5762  0.1999  1.7243
 3437TIP3   OH210316   3.013   3.978   3.236 -0.3122 -0.3745 -0.2683
 3437TIP3    H110317   2.993   4.039   3.165  0.4650 -0.7713 -0.8391
 3437TIP3    H210318   3.094   4.011   3.274 -1.8335  1.1393  1.9341
 3438TIP3   OH210319   6.221   3.989   3.405 -0.3002 -0.4253  0.0593
 3438TIP3    H110320   6.164   3.936   3.460 -0.8591  0.6972  0.6118
 3438TIP3    H210321   6.304   3.992   3.452 -0.5078 -0.1835  0.4147
 3439TIP3   OH210322   4.526   5.478   1.888  0.0707 -0.4105 -0.5346
 3439TIP3    H110323   4.502   5.513   1.974 -0.6191 -1.8031 -0.1238
 3439TIP3    H210324   4.506   5.548   1.827 -1.8138 -0.2610  0.1810
 3440TIP3   OH210325   2.730   0.308   0.067  0.0477 -0.5613  0.2226
 3440TIP3    H110326   2.667   0.267   0.126 -0.6951 -1.2745 -1.0265
 3440TIP3    H210327   2.815   0.294   0.109 -0.5408 -0.1895  1.5951
 3441TIP3   OH210328   6.107   4.264   3.623 -0.0520 -0.3812  0.2165
 3441TIP3    H110329   6.132   4.210   3.698  0.5734  1.7430  1.6369
 3441TIP3    H210330   6.175   4.247   3.558 -0.0576 -1.5351  0.4923
 3442TIP3   OH210331   3.212   0.363   0.539  0.1814  0.4697  0.3954
 3442TIP3    H110332   3.117   0.351   0.531  0.3309 -1.8827  1.3631
 3442TIP3    H210333   3.222   0.450   0.577 -1.6060  0.6302  0.5990
 3443TIP3   OH210334   3.779   5.732   1.222  0.1672  0.0570 -0.0187
 3443TIP3    H110335   3.722   5.739   1.146  0.9686 -1.8081 -0.8355
 3443TIP3    H210336   3.732   5.780   1.291 -1.4104  0.2904 -1.1949
 3444TIP3   OH210337   4.779   0.128   5.130  0.2149  0.3742  0.2050
 3444TIP3    H110338   4.737   0.054   5.087  2.5597  0.0574 -1.7371
 3444TIP3    H210339   4.719   0.152   5.201 -3.1554 -0.0086 -2.2859
 3445TIP3   OH210340   0.662   0.738   4.343 -0.1125 -0.3845 -0.2646
 3445TIP3    H110341   0.754   0.764   4.350 -0.5726  1.1088  0.3965
 3445TIP3    H210342   0.662   0.645   4.366  1.1823 -0.3155  0.0775
 3446TIP3   OH210343   3.685   2.302   1.428  0.1156 -0.5164 -0.1687
 3446TIP3    H110344   3.729   2.339   1.505  0.2078  0.0440 -0.4822
 3446TIP3    H210345   3.735   2.224   1.407  1.0010  0.1334 -0.5433
 3447TIP3   OH210346   2.681   5.481   4.180  0.6849 -0.0795 -0.3574
 3447TIP3    H110347   2.601   5.462   4.131  0.8079 -0.4436 -0.4154
 3447TIP3    H210348   2.751   5.462   4.118  0.8286 -0.1013 -0.1861
 3448TIP3   OH210349   5.503   5.111   2.327 -0.5435  0.3669  0.0333
 3448TIP3    H110350   5.460   5.035   2.365 -0.7827  0.7490  0.5304
 3448TIP3    H210351   5.437   5.151   2.270 -1.1960  1.4903  1.5134
 3449TIP3   OH210352   3.063   0.981   3.044 -0.0197  0.1469 -0.2478
 3449TIP3    H110353   3.000   1.052   3.030 -0.2003 -0.0077 -0.2148
 3449TIP3    H210354   3.085   0.986   3.137 -0.3024 -0.0665 -0.1697
 3450TIP3   OH210355   1.752   3.409   4.205  0.3525 -0.1987 -0.4707
 3450TIP3    H110356   1.752   3.497   4.242 -1.0767  0.3814 -1.7120
 3450TIP3    H210357   1.788   3.354   4.274  0.7296  1.2631  0.5607
 3451TIP3   OH210358   1.868   2.696  -0.003  0.0124 -0.1031  0.7024
 3451TIP3    H110359   1.928   2.634   0.039  1.3488 -0.6890 -1.8592
 3451TIP3    H210360   1.912   2.781   0.004  0.8597 -0.4101 -0.5133
 3452TIP3   OH210361   3.792   0.162   2.159 -0.4219  0.4009 -0.4286
 3452TIP3    H110362   3.782   0.068   2.176  0.3645 -0.0686 -2.3162
 3452TIP3    H210363   3.813   0.200   2.245  0.6796 -1.3563  0.1347
 3453TIP3   OH210364   1.238   0.744   3.711 -0.3242 -0.2000  0.1555
 3453TIP3    H110365   1.327   0.746   3.676 -0.8746 -1.1846 -1.3907
 3453TIP3    H210366   1.228   0.656   3.747 -0.9057 -0.3498 -0.3581
 3454TIP3   OH210367   3.302   0.686   4.102 -0.1708 -0.3234 -0.3446
 3454TIP3    H110368   3.317   0.756   4.165  1.6625 -1.8059  0.9753
 3454TIP3    H210369   3.238   0.629   4.143 -0.7005 -0.1003 -0.8519
 3455TIP3   OH210370   0.657   3.649   1.770 -0.4345 -0.1004 -0.0540
 3455TIP3    H110371   0.691   3.643   1.681 -1.7498 -0.5035 -0.5633
 3455TIP3    H210372   0.629   3.559   1.791  2.5709 -0.7346  1.9571
 3456TIP3   OH210373   0.857   2.444   4.748  0.4305  0.1954 -0.1624
 3456TIP3    H110374   0.853   2.351   4.769 -3.8030  0.2208 -0.0697
 3456TIP3    H210375   0.873   2.447   4.654  1.7269 -0.5088  0.0043
 3457TIP3   OH210376   0.867   4.887   0.148 -0.3781  0.1064  0.2169
 3457TIP3    H110377   0.887   4.924   0.062 -1.9004 -1.1675 -0.7576
 3457TIP3    H210378   0.928   4.814   0.158  0.3636  0.7753  0.6091
 3458TIP3   OH210379   4.220   2.668   4.227 -0.4520  0.2234 -0.2280
 3458TIP3    H110380   4.142   2.718   4.253  0.8939  1.9308  0.7977
 3458TIP3    H210381   4.273   2.731   4.178  0.7791 -0.5452  0.0810
 3459TIP3   OH210382   2.872   5.625   4.668  0.2845  0.2825  0.3505
 3459TIP3    H110383   2.816   5.698   4.696  2.1321  1.8955  0.0661
 3459TIP3    H210384   2.850   5.611   4.576 -1.3093 -0.7457  0.8497
 3460TIP3   OH210385   2.155   1.858   2.560 -0.1063 -0.7221 -0.3152
 3460TIP3    H110386   2.216   1.812   2.503 -0.6968 -2.6632  0.5245
 3460TIP3    H210387   2.195   1.944   2.575  1.6119 -1.3641 -1.0409
 3461TIP3   OH210388   5.098   0.849   4.175 -0.5641  0.0229 -0.0108
 3461TIP3    H110389   5.179   0.897   4.154  0.2962 -0.6871  1.5300
 3461TIP3    H210390   5.127   0.777   4.231 -2.1284 -0.9820 -0.4411
 3462TIP3   OH210391   5.184   1.604   5.121  0.2763  0.5577  0.0872
 3462TIP3    H110392   5.141   1.545   5.058  0.7258 -0.7420  0.9563
 3462TIP3    H210393   5.253   1.647   5.070  0.2563 -0.0388 -0.4577
 3463TIP3   OH210394   4.325   1.776   1.310  0.0277  0.0819  0.6190
 3463TIP3    H110395   4.274   1.717   1.366 -1.0637 -0.6822 -1.0680
 3463TIP3    H210396   4.264   1.847   1.288  1.4167  2.1181  2.8615
 3464TIP3   OH210397   4.836   4.114   5.097 -0.3063  0.4352  0.2012
 3464TIP3    H110398   4.758   4.123   5.042  0.9750  1.7234 -1.5227
 3464TIP3    H210399   4.894   4.057   5.047 -0.2575 -0.9098  1.6830
 3465TIP3   OH210400   1.174   4.513   1.687 -0.0292  0.4735 -0.0609
 3465TIP3    H110401   1.140   4.445   1.744  0.6507  0.5433  0.4338
 3465TIP3    H210402   1.216   4.576   1.746  0.4451  0.6826 -0.6080
 3466TIP3   OH210403   4.636   5.885   0.613 -0.1332  0.2088  0.3864
 3466TIP3    H110404   4.583   5.909   0.689  0.3030 -0.3603  0.8832
 3466TIP3    H210405   4.708   5.948   0.613  1.1001 -1.1074  1.7833
 3467TIP3   OH210406   1.352   2.890   4.866 -0.1761 -0.1294  0.0446
 3467TIP3    H110407   1.320   2.803   4.840 -0.5533  0.2027 -0.6015
 3467TIP3    H210408   1.284   2.951   4.836  0.3842  0.4483 -0.0612
 3468TIP3   OH210409   5.167   1.960   0.661 -0.3172 -0.6609 -0.4762
 3468TIP3    H110410   5.197   1.950   0.571  1.4037 -1.0767  0.0998
 3468TIP3    H210411   5.175   1.872   0.699  1.4294 -0.0319  0.7475
 3469TIP3   OH210412   5.624   3.911   3.458 -0.5014 -0.6146  0.1580
 3469TIP3    H110413   5.573   3.902   3.539 -1.2392 -0.4569 -0.2893
 3469TIP3    H210414   5.560   3.930   3.390  0.1338 -0.5766 -0.4455
 3470TIP3   OH210415   0.341   0.554   1.929  0.1733  0.0769  0.6283
 3470TIP3    H110416   0.380   0.641   1.940  1.3797 -0.1096 -1.5976
 3470TIP3    H210417   0.294   0.539   2.011 -0.4444  2.9911  0.9360
 3471TIP3   OH210418   2.223   5.729   2.697 -0.5450 -0.0491  0.1360
 3471TIP3    H110419   2.308   5.742   2.654  0.5404  2.3895  2.6723
 3471TIP3    H210420   2.238   5.658   2.759  0.1873  1.2894  1.5792
 3472TIP3   OH210421   1.312   4.669   4.848 -0.2753  0.5234  0.4263
 3472TIP3    H110422   1.227   4.626   4.838 -0.1073 -0.0136  1.2568
 3472TIP3    H210423   1.314   4.698   4.939  0.5712  0.2393  0.5019
 3473TIP3   OH210424   2.885   0.194   2.142  0.7032  0.4295  0.1574
 3473TIP3    H110425   2.879   0.111   2.189  0.5844 -0.2189 -0.9603
 3473TIP3    H210426   2.837   0.179   2.060  1.1926  1.4002 -0.3308
 3474TIP3   OH210427   1.874   4.610   1.807  0.3021 -0.4487 -0.2719
 3474TIP3    H110428   1.844   4.522   1.826  0.5034 -0.7605 -1.3100
 3474TIP3    H210429   1.820   4.667   1.862  0.6751 -1.2531  0.9508
 3475TIP3   OH210430   5.933   4.251   1.667  0.1324 -0.4858  0.2494
 3475TIP3    H110431   5.976   4.245   1.752  1.0368  1.1858 -0.0491
 3475TIP3    H210432   5.988   4.310   1.616 -0.1125 -1.8497 -1.6944
 3476TIP3   OH210433   3.934   3.331   3.632  0.4193  0.1072  0.3006
 3476TIP3    H110434   3.936   3.236   3.648 -2.2748  0.3260  2.5896
 3476TIP3    H210435   3.905   3.339   3.541  0.8653 -1.2218  0.0121
 3477TIP3   OH210436   2.594   5.854   3.891 -0.2899  0.5069 -0.1393
 3477TIP3    H110437   2.516   5.807   3.863 -1.7581  1.8778  1.4475
 3477TIP3    H210438   2.635   5.883   3.810 -1.8576  0.4136 -1.0005
 3478TIP3   OH210439   0.942   2.712   2.839  0.0621  0.0109  0.2722
 3478TIP3    H110440   1.037   2.724   2.832  0.0894 -0.3828 -0.1045
 3478TIP3    H210441   0.929   2.618   2.824 -0.7619  0.6124 -4.2799
 3479TIP3   OH210442   3.446   0.235   1.539  0.4130  0.2657  0.1472
 3479TIP3    H110443   3.471   0.328   1.546 -0.2004  0.5854 -1.5118
 3479TIP3    H210444   3.420   0.224   1.448  0.7680 -1.6355  0.2330
 3480TIP3   OH210445   5.437   3.918   3.252 -0.0567 -0.2554  0.1091
 3480TIP3    H110446   5.479   3.931   3.167  0.6788  3.2831  0.8671
 3480TIP3    H210447   5.371   3.850   3.237 -2.2772  2.4642 -4.1625
 3481TIP3   OH210448   5.786   5.996   0.307  0.7351 -0.1946  0.0984
 3481TIP3    H110449   5.858   5.934   0.318 -0.5448 -1.5940  0.8556
 3481TIP3    H210450   5.786   6.016   0.213  0.3773 -2.3759 -0.4154
 3482TIP3   OH210451   2.705   3.088   1.063 -0.2738 -0.2231  0.4311
 3482TIP3    H110452   2.755   3.121   1.138 -1.2635  0.7177  0.7018
 3482TIP3    H210453   2.754   3.119   0.987 -2.0451  3.6235  0.6065
 3483TIP3   OH210454   1.817   1.277   3.068 -0.4594  1.0937 -0.5130
 3483TIP3    H110455   1.765   1.350   3.035 -0.5302  0.9839 -0.6489
 3483TIP3    H210456   1.905   1.312   3.080  0.0442  0.6865 -2.5760
 3484TIP3   OH210457   5.461   2.368   1.853 -0.3232 -0.6718  0.2840
 3484TIP3    H110458   5.552   2.381   1.827  1.0061 -0.0459  4.4762
 3484TIP3    H210459   5.439   2.280   1.821  2.2656 -1.4284  0.3932
 3485TIP3   OH210460   1.072   3.647   1.743 -0.0267 -0.9742 -0.1713
 3485TIP3    H110461   1.020   3.703   1.685  0.6541 -0.8269 -0.6400
 3485TIP3    H210462   1.058   3.559   1.709 -1.4623 -1.1783  0.8369
 3486TIP3   OH210463   1.215   0.880   0.348  0.1071  0.2198  0.1935
 3486TIP3    H110464   1.129   0.855   0.316  0.6450  0.2573 -1.3612
 3486TIP3    H210465   1.198   0.918   0.434 -1.1533 -1.8162  0.9185
 3487TIP3   OH210466   1.273   1.483  -0.017 -0.1485  0.2734 -0.3920
 3487TIP3    H110467   1.210   1.418   0.014  1.2336 -1.4004 -0.8977
 3487TIP3    H210468   1.279   1.546   0.055 -1.1325 -0.4554  0.3632
 3488TIP3   OH210469   4.804   0.483   0.052  0.2013 -0.0907  0.0890
 3488TIP3    H110470   4.750   0.406   0.071  1.5337 -0.9789  0.4679
 3488TIP3    H210471   4.779   0.547   0.119 -0.8211 -0.2491 -0.1374
 3489TIP3   OH210472   6.015   0.308   0.070  0.0098  0.2990 -0.0702
 3489TIP3    H110473   6.064   0.322  -0.011 -0.3607 -1.3103 -0.6045
 3489TIP3    H210474   6.057   0.366   0.133 -0.5899  2.6596 -1.7237
 3490TIP3   OH210475   3.512   1.500   2.738  0.1593  0.1388  0.6529
 3490TIP3    H110476   3.432   1.552   2.734  0.1027  0.0026 -0.5577
 3490TIP3    H210477   3.571   1.542   2.676  1.7699  1.3713  2.9055
 3491TIP3   OH210478   4.639   1.495   4.231  0.5587  0.3321  0.4133
 3491TIP3    H110479   4.627   1.548   4.309 -0.7993  2.2843 -1.0352
 3491TIP3    H210480   4.560   1.441   4.225  0.8601 -0.1387  0.6029
 3492TIP3   OH210481   4.847   1.019   0.626  0.2239  0.1930 -0.2953
 3492TIP3    H110482   4.901   1.068   0.688 -1.2144 -0.9194  1.9850
 3492TIP3    H210483   4.861   0.927   0.650 -1.9031 -0.1703 -0.2546
 3493TIP3   OH210484   0.349   3.212   0.145  0.0952 -0.6563  0.0584
 3493TIP3    H110485   0.335   3.264   0.065  3.3345 -0.5968 -0.5990
 3493TIP3    H210486   0.310   3.265   0.215 -1.3928  0.0575 -1.2363
 3494TIP3   OH210487   6.139   2.025   2.956 -0.3186  0.2837 -0.4622
 3494TIP3    H110488   6.097   2.108   2.978  0.3041  0.1835  1.2444
 3494TIP3    H210489   6.228   2.050   2.930  1.3325  0.0383  4.0172
 3495TIP3   OH210490   5.586   4.526   2.849  0.2257  0.3290 -0.2683
 3495TIP3    H110491   5.592   4.582   2.926  0.0119  1.1889 -0.8731
 3495TIP3    H210492   5.666   4.544   2.800  0.2810 -0.0912 -0.3365
 3496TIP3   OH210493   0.587   2.258   5.011 -0.3438 -0.1200  0.0079
 3496TIP3    H110494   0.637   2.269   5.092 -1.7074  1.3234  0.6930
 3496TIP3    H210495   0.517   2.197   5.034 -0.9751  0.6116  0.0385
 3497TIP3   OH210496   1.524   0.119   2.630  0.0083 -0.7403 -0.2821
 3497TIP3    H110497   1.434   0.138   2.656  0.3345 -1.5867  1.5901
 3497TIP3    H210498   1.539   0.029   2.657  1.2357 -0.8221 -1.1340
 3498TIP3   OH210499   2.252   1.214   1.282 -0.3506  0.3287  0.1230
 3498TIP3    H110500   2.302   1.189   1.204  0.6283  0.3452  0.7235
 3498TIP3    H210501   2.192   1.140   1.297  0.2899 -0.2161  0.0452
 3499TIP3   OH210502   5.186   0.933   0.797 -0.1002 -0.0433 -0.1086
 3499TIP3    H110503   5.171   0.850   0.841 -0.8135  0.0195 -0.2179
 3499TIP3    H210504   5.251   0.978   0.852  0.5898 -0.8254 -0.2676
 3500TIP3   OH210505   0.700   2.628   2.644 -0.3033 -0.2094  0.7737
 3500TIP3    H110506   0.783   2.669   2.617 -0.1024 -0.6322  0.7474
 3500TIP3    H210507   0.649   2.700   2.681 -1.3135  0.8426 -2.3112
 3501TIP3   OH210508   0.313   0.589   3.726  0.4213 -0.4135 -0.7218
 3501TIP3    H110509   0.308   0.685   3.721  0.6489 -0.2749  1.1879
 3501TIP3    H210510   0.403   0.569   3.698  0.8252  0.0596  0.1896
 3502TIP3   OH210511   5.507   2.234   2.474  0.4467 -0.1695  0.3422
 3502TIP3    H110512   5.572   2.164   2.471 -0.0609 -0.7438  1.8559
 3502TIP3    H210513   5.428   2.196   2.434  0.4908 -0.0935  0.1816
 3503TIP3   OH210514   5.339   4.446   3.953 -0.5360  0.3192  0.1007
 3503TIP3    H110515   5.292   4.507   3.896 -0.9345  1.2455  1.3637
 3503TIP3    H210516   5.315   4.359   3.921 -0.2443  0.8084 -1.5128
 3504TIP3   OH210517   4.669   0.852   2.952 -0.1192  0.1844  0.0205
 3504TIP3    H110518   4.591   0.896   2.918 -0.5684  0.2317  1.0701
 3504TIP3    H210519   4.695   0.792   2.882 -0.8108  0.5187 -0.5411
 3505TIP3   OH210520   0.526   4.922   0.919 -0.1569 -0.0093  0.0315
 3505TIP3    H110521   0.523   4.933   0.824 -0.4458  0.0824  0.0498
 3505TIP3    H210522   0.597   4.860   0.934 -2.6502 -3.2819 -0.5397
 3506TIP3   OH210523   0.049   3.161   1.281  0.3170 -0.4510 -0.4043
 3506TIP3    H110524   0.011   3.143   1.367  1.7887  1.0665  0.6384
 3506TIP3    H210525   0.132   3.113   1.281  0.1168 -0.8131 -1.1874
 3507TIP3   OH210526   4.302   2.421   4.635 -0.4026  0.5100 -0.1521
 3507TIP3    H110527   4.219   2.456   4.603 -0.0341  2.4243  0.7904
 3507TIP3    H210528   4.283   2.394   4.725  0.3797  2.8259  0.7770
 3508TIP3   OH210529   5.716   5.772   4.860  0.0729  0.5789  0.3519
 3508TIP3    H110530   5.752   5.692   4.899 -0.6683 -0.2966 -0.6864
 3508TIP3    H210531   5.739   5.764   4.767 -3.4127 -0.4550 -0.5600
 3509TIP3   OH210532   3.771   0.197   2.441  0.3557  0.2247  0.2366
 3509TIP3    H110533   3.769   0.102   2.457  0.1656  0.0623 -0.6712
 3509TIP3    H210534   3.786   0.236   2.527  2.2192 -0.7195  0.3810
 3510TIP3   OH210535   3.716   5.324   2.510 -0.6398  0.0958 -0.4825
 3510TIP3    H110536   3.787   5.272   2.472  1.5054  1.9800  0.7288
 3510TIP3    H210537   3.673   5.365   2.435  0.0675 -0.4345 -1.1902
 3511TIP3   OH210538   3.736   4.615   4.326 -0.3891  0.3471 -0.3605
 3511TIP3    H110539   3.717   4.579   4.239  0.0274  0.4991 -0.5165
 3511TIP3    H210540   3.655   4.659   4.352 -0.7674 -0.3521 -0.3430
 3512TIP3   OH210541   3.250   2.849   3.903 -0.5432 -0.3343  0.1234
 3512TIP3    H110542   3.185   2.899   3.854  0.5482  2.9749  1.7754
 3512TIP3    H210543   3.199   2.803   3.971 -1.3416  0.7611  0.2832
 3513TIP3   OH210544   3.773   0.907   2.534 -0.4513  0.0456  0.1047
 3513TIP3    H110545   3.720   0.897   2.456 -0.2338  0.9272 -0.1719
 3513TIP3    H210546   3.737   0.843   2.596 -0.7454 -0.5252 -0.6418
 3514TIP3   OH210547   0.167   5.673   1.829 -0.3997  0.7715  0.1779
 3514TIP3    H110548   0.249   5.627   1.851 -0.4577  0.8666  0.6003
 3514TIP3    H210549   0.115   5.669   1.909 -0.4282  1.5286  0.2072
 3515TIP3   OH210550   3.893   2.223   0.470  0.1938  0.2295  0.0297
 3515TIP3    H110551   3.881   2.270   0.387 -0.3318  0.8146  0.4416
 3515TIP3    H210552   3.844   2.142   0.458 -1.0100  0.9040  0.2609
 3516TIP3   OH210553   1.881   4.479   5.015  0.2999  0.0536  0.3080
 3516TIP3    H110554   1.905   4.488   4.923  0.5099 -2.1674  0.0987
 3516TIP3    H210555   1.786   4.468   5.014  0.3498 -0.3672  0.3303
 3517TIP3   OH210556   3.461   2.583   0.551  0.3549 -0.4478 -0.0458
 3517TIP3    H110557   3.461   2.636   0.631 -0.1866 -0.2934 -0.1391
 3517TIP3    H210558   3.549   2.594   0.515  0.4887 -0.2237  0.3382
 3518TIP3   OH210559   4.733   3.894   0.400 -0.3694  0.4246 -0.2732
 3518TIP3    H110560   4.810   3.944   0.425 -0.0323 -0.8700  1.5269
 3518TIP3    H210561   4.709   3.847   0.480 -0.0458 -3.0650 -2.0372
 3519TIP3   OH210562   2.235   1.310   2.853 -0.0395 -0.1927 -0.0456
 3519TIP3    H110563   2.310   1.285   2.907  1.2081 -0.7678 -1.9359
 3519TIP3    H210564   2.198   1.387   2.897  1.5540  0.0070  1.0369
 3520TIP3   OH210565   5.682   2.792   1.822 -0.3400  0.2219 -0.2490
 3520TIP3    H110566   5.767   2.762   1.790 -0.6155  0.3484 -1.1237
 3520TIP3    H210567   5.703   2.860   1.886  0.2307 -0.1507 -0.0356
 3521TIP3   OH210568   1.952   2.565   4.384 -0.6113  0.2057  0.3956
 3521TIP3    H110569   2.032   2.553   4.333 -0.6284 -3.0132  0.8903
 3521TIP3    H210570   1.958   2.499   4.453 -3.2466  0.5110  1.0284
 3522TIP3   OH210571   2.029   0.691   1.982  0.4025 -0.2089 -0.0114
 3522TIP3    H110572   2.086   0.761   2.014  0.1181  0.0809 -0.1327
 3522TIP3    H210573   2.033   0.624   2.051 -0.3053  0.4657  0.7173
 3523TIP3   OH210574   6.191   4.682   1.956  0.1669  0.1849  0.0443
 3523TIP3    H110575   6.173   4.775   1.974 -1.8573  0.2390 -1.8406
 3523TIP3    H210576   6.208   4.679   1.862  2.0335 -1.1573  0.3758
 3524TIP3   OH210577   6.052   5.974   2.938  0.1425 -0.2187  0.2923
 3524TIP3    H110578   6.139   5.938   2.952 -0.2048 -0.8273  0.9160
 3524TIP3    H210579   6.063   6.036   2.866  1.0975 -0.2482  0.4089
 3525TIP3   OH210580   1.278   0.875   1.737  0.1879  0.2558  0.2579
 3525TIP3    H110581   1.304   0.848   1.825  1.0390  0.0863 -0.0378
 3525TIP3    H210582   1.211   0.813   1.711 -0.6405  0.7777  1.0898
 3526TIP3   OH210583   2.839   0.025   3.451 -0.1156  0.4966 -0.1319
 3526TIP3    H110584   2.906   0.093   3.463  1.7114 -0.9301 -1.6591
 3526TIP3    H210585   2.834   0.013   3.356 -1.8155 -0.1757  0.0107
 3527TIP3   OH210586   1.903   5.047   3.654 -0.4416 -0.0841  0.0713
 3527TIP3    H110587   1.884   5.112   3.722 -1.6866 -0.8140  0.4600
 3527TIP3    H210588   1.845   5.071   3.582 -0.2411 -0.2283 -0.1368
 3528TIP3   OH210589   5.521   5.812   3.212  0.2123  0.1012  0.3974
 3528TIP3    H110590   5.477   5.813   3.297 -0.9486  0.5475 -0.1972
 3528TIP3    H210591   5.473   5.875   3.159  0.2180 -0.9721 -0.9403
 3529TIP3   OH210592   5.306   4.363   4.277 -0.2277  0.0011  0.0076
 3529TIP3    H110593   5.374   4.318   4.327  0.2206 -0.7236 -1.1984
 3529TIP3    H210594   5.345   4.375   4.190 -1.4052  0.1617 -0.5099
 3530TIP3   OH210595   5.470   5.409   3.064  0.4495 -0.2066 -0.9512
 3530TIP3    H110596   5.401   5.435   3.003 -0.5066 -0.8772 -0.1924
 3530TIP3    H210597   5.430   5.341   3.119  1.1750  0.5545  0.6055
 3531TIP3   OH210598   5.932   5.535   3.111 -0.8582 -0.6349 -0.2573
 3531TIP3    H110599   5.837   5.548   3.117 -0.5483  1.5785  0.8966
 3531TIP3    H210600   5.960   5.519   3.201  0.2716  2.7036  0.1137
 3532TIP3   OH210601   5.330   1.387   1.594  0.0772 -0.3306  0.0856
 3532TIP3    H110602   5.359   1.297   1.605 -1.3567 -0.6873  1.2617
 3532TIP3    H210603   5.331   1.401   1.499  1.2965 -1.2276 -0.0513
 3533TIP3   OH210604   1.898   3.891   3.593  0.2583 -0.2206 -0.2443
 3533TIP3    H110605   1.816   3.940   3.580  0.0752 -0.7769 -1.3088
 3533TIP3    H210606   1.951   3.947   3.650  0.2511  1.4521 -1.7981
 3534TIP3   OH210607   2.657   3.083   2.251 -0.2593 -0.0729 -0.1457
 3534TIP3    H110608   2.598   3.103   2.178  0.8295 -0.2005 -1.1002
 3534TIP3    H210609   2.605   3.029   2.310 -1.2765  0.3181 -0.6608
 3535TIP3   OH210610   5.391   0.773   1.103 -0.5405  0.6949 -0.3029
 3535TIP3    H110611   5.341   0.810   1.176 -0.0658  0.0634  0.3469
 3535TIP3    H210612   5.443   0.847   1.071  0.3443  0.6306  0.9371
 3536TIP3   OH210613   0.735   2.913   4.753  0.4137  0.0752 -0.9130
 3536TIP3    H110614   0.782   2.895   4.672  0.1680  1.6858 -1.4443
 3536TIP3    H210615   0.643   2.896   4.732  0.4820 -0.7128 -0.5948
 3537TIP3   OH210616   0.225   2.918   3.826 -0.4142 -0.0138  0.4174
 3537TIP3    H110617   0.218   2.918   3.730  2.4374  0.7022  0.1032
 3537TIP3    H210618   0.166   2.987   3.855 -0.8486  0.1884 -0.8895
 3538TIP3   OH210619   4.045   5.610   4.034 -0.1919 -0.2597  0.1714
 3538TIP3    H110620   4.077   5.522   4.053 -0.6386 -0.4434  0.0758
 3538TIP3    H210621   3.979   5.627   4.102  1.5315  0.9167  1.6359
 3539TIP3   OH210622   6.301   3.813   1.470 -0.2945  0.0147  0.7279
 3539TIP3    H110623   6.219   3.785   1.431  0.4049 -0.7945 -0.2047
 3539TIP3    H210624   6.369   3.786   1.407  0.4885  3.9664 -0.4724
 3540TIP3   OH210625   5.031   4.007   1.104  0.2118 -0.0928  0.6519
 3540TIP3    H110626   5.109   3.988   1.156 -0.3639 -0.6488  1.3163
 3540TIP3    H210627   5.040   4.100   1.082  1.4920 -0.3529 -0.0159
 3541TIP3   OH210628   5.602   3.065   1.479 -0.2241 -0.2926  0.1068
 3541TIP3    H110629   5.511   3.095   1.470 -0.3880 -0.5982  0.6787
 3541TIP3    H210630   5.595   2.970   1.486  0.3529 -0.5817 -2.4349
 3542TIP3   OH210631   4.893   5.516   1.905 -0.0479 -0.0474  0.2632
 3542TIP3    H110632   4.831   5.539   1.836  1.6529  0.8118 -1.0495
 3542TIP3    H210633   4.838   5.478   1.974 -2.2326  2.0923 -0.1382
 3543TIP3   OH210634   0.408   3.937   4.390  0.4982  0.0887  0.0795
 3543TIP3    H110635   0.447   3.999   4.328  0.6274 -0.1144 -0.0441
 3543TIP3    H210636   0.378   3.991   4.463  4.3309 -0.0699  1.9805
 3544TIP3   OH210637   0.135   4.598   0.445 -0.2789 -0.0154 -0.1988
 3544TIP3    H110638   0.053   4.555   0.471  0.3980 -1.5018 -0.4170
 3544TIP3    H210639   0.131   4.600   0.349  1.0920 -2.6404 -0.4111
 3545TIP3   OH210640   0.815   0.958   2.577 -0.4044 -0.2559 -0.4420
 3545TIP3    H110641   0.862   1.040   2.594  1.4198 -1.1047 -1.1062
 3545TIP3    H210642   0.765   0.942   2.657  1.6406 -0.0453  0.9601
 3546TIP3   OH210643   5.725   4.355   4.435  0.1550  0.0528  0.3681
 3546TIP3    H110644   5.701   4.442   4.404  0.9845 -0.0711 -0.6779
 3546TIP3    H210645   5.642   4.315   4.462 -0.5295  0.4246 -1.0867
 3547TIP3   OH210646   5.512   1.664   3.304 -0.1737  0.1816  0.4387
 3547TIP3    H110647   5.499   1.744   3.252 -0.7782 -0.7561 -0.9227
 3547TIP3    H210648   5.494   1.691   3.394 -1.3109  1.3751 -0.1096
 3548TIP3   OH210649   4.646   5.388   4.254 -0.0564  0.0924 -0.5828
 3548TIP3    H110650   4.600   5.321   4.203  1.1448 -0.6794 -0.6893
 3548TIP3    H210651   4.599   5.390   4.338  1.2827 -2.6301  0.3340
 3549TIP3   OH210652   0.578   4.033   4.169 -0.1988 -0.0667 -0.1840
 3549TIP3    H110653   0.509   4.037   4.102  0.7559 -0.6116 -1.2393
 3549TIP3    H210654   0.639   4.103   4.145 -0.3201  0.3508  0.6840
 3550TIP3   OH210655   0.409   2.770   1.949 -0.0114  0.3136  0.4070
 3550TIP3    H110656   0.476   2.759   1.882  0.4775 -1.0847  1.0844
 3550TIP3    H210657   0.449   2.827   2.014  0.4833 -0.3576  0.7124
 3551TIP3   OH210658   2.590   4.387   3.243 -0.3653 -0.0082  0.8125
 3551TIP3    H110659   2.519   4.334   3.207 -2.0573  2.2322  0.5785
 3551TIP3    H210660   2.570   4.395   3.336 -0.8395  1.1435  0.6353
 3552TIP3   OH210661   2.254   1.997   4.866 -0.4219  0.1471  0.0048
 3552TIP3    H110662   2.336   1.954   4.843 -2.2261 -2.7858 -1.5007
 3552TIP3    H210663   2.251   1.995   4.961  1.2408  0.3831  0.0870
 3553TIP3   OH210664   3.925   0.913   0.715  0.0645  0.4038  0.7137
 3553TIP3    H110665   3.961   0.890   0.801  0.7852  2.9301  1.1761
 3553TIP3    H210666   3.991   0.884   0.652  0.3666  0.1312  1.1519
 3554TIP3   OH210667   0.358   1.645   1.151  0.0898  0.6821 -0.3551
 3554TIP3    H110668   0.433   1.690   1.114  1.1221 -1.4739 -1.0707
 3554TIP3    H210669   0.286   1.666   1.092  0.9001  0.2162 -1.5651
 3555TIP3   OH210670   3.568   4.328   1.353 -0.1215 -0.2166 -0.4188
 3555TIP3    H110671   3.605   4.278   1.425  1.3732  0.4790 -0.6554
 3555TIP3    H210672   3.601   4.284   1.274  2.6501  1.9736 -0.6544
 3556TIP3   OH210673   5.498   3.065   2.878 -0.3652  0.2320  0.7137
 3556TIP3    H110674   5.493   2.981   2.923  1.2817 -1.4263 -1.9181
 3556TIP3    H210675   5.422   3.065   2.820 -0.1533  0.3834  0.4345
 3557TIP3   OH210676   1.984   3.213   2.703 -0.0933  0.3544 -0.3058
 3557TIP3    H110677   2.050   3.220   2.773  0.2250 -1.0378 -0.4238
 3557TIP3    H210678   1.963   3.119   2.701 -1.2592  0.6201 -1.0340
 3558TIP3   OH210679   1.011   1.516   4.115  1.1002  0.0170 -0.3719
 3558TIP3    H110680   1.006   1.603   4.154  3.1801  0.0076  0.0010
 3558TIP3    H210681   1.001   1.532   4.021  1.0267  0.6088 -0.2701
 3559TIP3   OH210682   1.670   3.180   0.767  0.2654 -0.2896  0.5194
 3559TIP3    H110683   1.673   3.099   0.716 -0.2051 -0.7009  1.1238
 3559TIP3    H210684   1.743   3.172   0.828  0.9867  0.3184 -0.2363
 3560TIP3   OH210685   5.249   5.565   1.161  0.1167 -0.0080  0.1158
 3560TIP3    H110686   5.321   5.515   1.123  0.6291  2.4033 -2.3885
 3560TIP3    H210687   5.188   5.578   1.089 -0.7256  1.6216  1.0688
 3561TIP3   OH210688   6.268   0.875   1.895 -0.3371  0.7301 -0.0113
 3561TIP3    H110689   6.293   0.967   1.903 -0.2947  0.6377  1.1111
 3561TIP3    H210690   6.265   0.844   1.985  2.0911 -1.0294 -0.4346
 3562TIP3   OH210691   5.387   3.694   4.725 -0.0074  0.7541 -0.4922
 3562TIP3    H110692   5.322   3.751   4.683 -0.1012  0.5213 -0.6687
 3562TIP3    H210693   5.410   3.631   4.657 -0.7850 -0.1546  0.0665
 3563TIP3   OH210694   5.786   5.710  -0.003  0.3617 -0.2466 -0.4467
 3563TIP3    H110695   5.880   5.695   0.012  0.1837 -0.4556  0.5682
 3563TIP3    H210696   5.769   5.795   0.036 -0.5110 -1.6526  2.5768
 3564TIP3   OH210697   0.072   5.725   5.083 -0.0584 -0.0409  0.5063
 3564TIP3    H110698   0.105   5.810   5.055 -0.5391  0.2586  0.8371
 3564TIP3    H210699   0.115   5.709   5.167  1.3838 -0.9400 -0.3691
 3565TIP3   OH210700   0.225   4.584   1.085  0.0374 -0.4320  0.4087
 3565TIP3    H110701   0.176   4.542   1.014 -0.6919  2.5983 -1.0409
 3565TIP3    H210702   0.308   4.609   1.046  0.2274 -0.0489  1.0474
 3566TIP3   OH210703   2.964   3.769   1.246  0.2951  0.0548 -0.1157
 3566TIP3    H110704   2.980   3.860   1.221 -3.3882  0.7743 -0.3951
 3566TIP3    H210705   3.018   3.718   1.185  1.6899  1.9696 -0.5861
 3567TIP3   OH210706   3.655   3.741   3.602  0.0815 -0.1299 -0.3376
 3567TIP3    H110707   3.638   3.744   3.508 -1.1240  0.1220 -0.1288
 3567TIP3    H210708   3.647   3.649   3.626  0.6069 -0.2239 -0.5105
 3568TIP3   OH210709   3.420   3.086   3.967 -0.1561  0.4596 -0.0689
 3568TIP3    H110710   3.430   3.093   4.062 -1.2911  1.2798  0.0192
 3568TIP3    H210711   3.373   3.004   3.954  0.1175  0.2810  0.0708
 3569TIP3   OH210712   4.167   5.127   2.371 -0.1482  0.0655  0.0921
 3569TIP3    H110713   4.150   5.180   2.449  0.6092 -0.4092  0.5915
 3569TIP3    H210714   4.081   5.106   2.337 -0.4827  0.5018  0.6481
 3570TIP3   OH210715   1.849   1.394   1.805  0.5069 -0.4356  0.1880
 3570TIP3    H110716   1.929   1.422   1.761  0.9332 -1.4398  0.2927
 3570TIP3    H210717   1.812   1.474   1.842 -0.4827  0.7116 -2.9260
 3571TIP3   OH210718   4.912   0.815   3.864  0.0885 -0.0665  0.0479
 3571TIP3    H110719   4.841   0.816   3.801 -0.1960 -0.5482  0.3520
 3571TIP3    H210720   4.970   0.746   3.833 -0.1395 -0.4215  0.4020
 3572TIP3   OH210721   3.711   2.738   1.378 -0.1226 -0.3629  0.0140
 3572TIP3    H110722   3.629   2.699   1.411  0.6288  0.3665  2.9972
 3572TIP3    H210723   3.690   2.831   1.366 -0.7273 -0.7908 -3.0294
 3573TIP3   OH210724   5.391   2.126   4.651 -0.1237 -0.3715  0.0875
 3573TIP3    H110725   5.301   2.099   4.670 -0.5801  0.4438 -0.8535
 3573TIP3    H210726   5.386   2.169   4.566  1.5958 -2.5126 -1.1881
 3574TIP3   OH210727   6.370   4.101   0.720 -0.2276  0.0199 -0.2560
 3574TIP3    H110728   6.356   4.015   0.761  0.4758  0.2065  0.4068
 3574TIP3    H210729   6.293   4.152   0.745 -2.2187 -1.2885 -3.1889
 3575TIP3   OH210730   1.832   4.816   1.297  0.1362 -0.0284  1.1007
 3575TIP3    H110731   1.813   4.908   1.316  2.0643  0.4091  1.2045
 3575TIP3    H210732   1.895   4.791   1.365 -1.2974 -1.8245  1.8257
 3576TIP3   OH210733   0.425   0.339   0.954  0.2429  0.4027 -0.2516
 3576TIP3    H110734   0.374   0.398   1.010  1.5500  2.1487 -0.8313
 3576TIP3    H210735   0.459   0.273   1.014 -0.4036  0.8200  0.5972
 3577TIP3   OH210736   1.415   1.699   2.921 -0.2982 -0.5460 -0.0283
 3577TIP3    H110737   1.373   1.779   2.953 -0.7553 -1.0837  0.7658
 3577TIP3    H210738   1.436   1.717   2.830 -1.1750  0.1758 -0.1006
 3578TIP3   OH210739   3.456   3.778   4.567  0.5375  0.0973 -0.0401
 3578TIP3    H110740   3.515   3.832   4.619 -0.5466 -0.0934  1.4685
 3578TIP3    H210741   3.368   3.808   4.591 -0.0329 -0.6489 -1.0678
 3579TIP3   OH210742   0.587   2.313   3.659  0.3904  0.2223 -0.5196
 3579TIP3    H110743   0.595   2.351   3.747  1.9968 -1.7301  0.2335
 3579TIP3    H210744   0.677   2.302   3.629 -0.0109 -1.9801 -1.0939
 3580TIP3   OH210745   5.654   3.801   4.789  0.2666 -0.0110  0.3029
 3580TIP3    H110746   5.566   3.765   4.804  0.2243 -0.6756 -1.3996
 3580TIP3    H210747   5.712   3.726   4.794  0.7611  0.4109  1.3064
 3581TIP3   OH210748   1.812   2.425   4.764 -0.3396 -0.5065 -0.0437
 3581TIP3    H110749   1.832   2.380   4.846  0.4046 -0.7830 -0.3667
 3581TIP3    H210750   1.794   2.355   4.702  0.0831 -0.3321 -0.3637
 3582TIP3   OH210751   0.530   3.221   0.953 -0.0167  0.1230  0.1269
 3582TIP3    H110752   0.526   3.210   0.858  0.0084 -2.5399  0.3749
 3582TIP3    H210753   0.567   3.309   0.965  0.8625  0.1612 -2.3111
 3583TIP3   OH210754   1.191   2.970   0.426  0.3871  0.2329  0.3042
 3583TIP3    H110755   1.277   2.960   0.465  0.0941  0.3045  0.9830
 3583TIP3    H210756   1.172   2.885   0.385 -0.2052 -0.5847  2.1789
 3584TIP3   OH210757   1.701   2.815   0.474  0.4724  0.4131 -0.2113
 3584TIP3    H110758   1.700   2.749   0.404 -1.3079  0.6895 -0.5014
 3584TIP3    H210759   1.793   2.823   0.497  0.7926 -2.0269 -0.3104
 3585TIP3   OH210760   5.158   1.747   1.101 -0.0934 -0.1542 -0.0170
 3585TIP3    H110761   5.107   1.684   1.051 -1.1275  0.9781 -0.4304
 3585TIP3    H210762   5.124   1.740   1.190 -0.1673 -0.2242 -0.0509
 3586TIP3   OH210763   4.381   5.399   0.917 -0.2361 -0.9165 -0.0708
 3586TIP3    H110764   4.312   5.378   0.855 -0.9154 -1.5731  0.8845
 3586TIP3    H210765   4.388   5.322   0.973 -0.0638 -0.1177  1.0466
 3587TIP3   OH210766   5.385   4.318   0.173 -0.0967 -0.0317 -0.2181
 3587TIP3    H110767   5.410   4.372   0.248  1.7735  1.8474 -2.0226
 3587TIP3    H210768   5.313   4.367   0.132 -0.3884 -0.4781 -0.2396
 3588TIP3   OH210769   0.847   2.041   2.799  0.3192  0.4616  0.4686
 3588TIP3    H110770   0.876   2.034   2.708 -2.2170 -1.1327 -0.3092
 3588TIP3    H210771   0.913   1.992   2.849  1.0041  0.1767 -0.6979
 3589TIP3   OH210772   3.594   1.326   1.886  0.3702  0.1751 -0.1607
 3589TIP3    H110773   3.570   1.372   1.966 -0.2701 -0.6495  0.1356
 3589TIP3    H210774   3.552   1.376   1.816 -0.6268 -0.1450  0.1897
 3590TIP3   OH210775   6.052   5.353   0.929 -0.6621 -0.1260  0.3042
 3590TIP3    H110776   6.046   5.424   0.864  1.0201 -1.1110 -0.9933
 3590TIP3    H210777   5.986   5.376   0.995 -0.1673  2.6692 -0.0340
 3591TIP3   OH210778   5.366   3.017   4.755  0.5052 -0.2535  0.5085
 3591TIP3    H110779   5.439   2.984   4.808 -0.2522 -2.1206  0.4703
 3591TIP3    H210780   5.291   3.017   4.815  0.2608  0.4434  0.2116
 3592TIP3   OH210781   3.157   3.857   4.527  0.2775 -0.7598  0.5127
 3592TIP3    H110782   3.063   3.838   4.532  0.3667 -0.8386  2.3510
 3592TIP3    H210783   3.188   3.851   4.617  1.9365 -0.0721  0.0259
 3593TIP3   OH210784   6.066   0.954   4.392 -0.1234 -0.2927  0.0995
 3593TIP3    H110785   6.043   1.040   4.356 -0.3526  0.0239  0.9762
 3593TIP3    H210786   5.995   0.897   4.362 -0.7184  0.1323  0.6517
 3594TIP3   OH210787   4.820   0.641   4.114  0.0809  0.7322 -0.2028
 3594TIP3    H110788   4.781   0.573   4.060  0.1648  1.3935 -1.1188
 3594TIP3    H210789   4.788   0.622   4.203 -1.6841  0.7619 -0.7802
 3595TIP3   OH210790   6.073   5.835   1.987 -0.2797 -0.1563  0.7126
 3595TIP3    H110791   6.128   5.804   2.059 -0.2661  2.0703  1.7215
 3595TIP3    H210792   5.991   5.861   2.029 -0.6385  0.2558 -0.2168
 3596TIP3   OH210793   6.098   2.095   3.392  0.4798 -0.0950 -0.3193
 3596TIP3    H110794   6.024   2.087   3.332  1.2420  0.5152 -1.3764
 3596TIP3    H210795   6.071   2.162   3.454 -0.6032 -1.2414  0.4931
 3597TIP3   OH210796   2.273   1.702   5.029  0.2559  0.1047  0.5707
 3597TIP3    H110797   2.359   1.714   5.070  1.2039  1.8357 -1.7340
 3597TIP3    H210798   2.220   1.773   5.065 -0.2369 -0.8624  1.8615
 3598TIP3   OH210799   2.624   5.374   0.604  0.2948  0.2437 -0.7556
 3598TIP3    H110800   2.554   5.380   0.669 -0.2878 -1.8871 -1.0935
 3598TIP3    H210801   2.693   5.432   0.637  0.4155 -1.4428  2.3177
 3599TIP3   OH210802   2.123   4.296   3.217 -0.0702  0.5113  0.0938
 3599TIP3    H110803   2.125   4.329   3.307 -0.2435  0.5092  0.0986
 3599TIP3    H210804   2.062   4.354   3.171  0.8847  1.2209 -0.3071
 3600TIP3   OH210805   0.746   0.749   0.919  0.1510  0.7389 -0.4643
 3600TIP3    H110806   0.657   0.720   0.941 -0.0290  0.1542 -1.8734
 3600TIP3    H210807   0.755   0.833   0.962  0.1382 -0.6578  2.5243
 3601TIP3   OH210808   1.529   4.232   3.207  0.9734  0.1994  0.1829
 3601TIP3    H110809   1.474   4.193   3.274  0.2899  0.6731 -0.0950
 3601TIP3    H210810   1.592   4.163   3.185 -0.3025 -0.8148 -0.4103
 3602TIP3   OH210811   2.060   0.726   1.724 -0.7833  0.4763  0.1848
 3602TIP3    H110812   2.001   0.794   1.690  0.5934  1.9989  0.6962
 3602TIP3    H210813   2.053   0.733   1.819  1.0815  1.5667  0.3023
 3603TIP3   OH210814   0.445   3.103   4.661 -0.6244 -0.2697  0.1496
 3603TIP3    H110815   0.391   3.150   4.723 -0.9991 -0.0847 -0.3176
 3603TIP3    H210816   0.385   3.077   4.591 -0.5622 -1.9220  0.6477
 3604TIP3   OH210817   2.630   3.240   4.183 -0.2798  0.0527 -0.4180
 3604TIP3    H110818   2.671   3.304   4.241  0.2347  1.1032 -1.8759
 3604TIP3    H210819   2.542   3.228   4.219 -0.8832  2.6298 -0.8463
 3605TIP3   OH210820   3.812   0.838   0.195 -0.5393 -0.0364 -0.6782
 3605TIP3    H110821   3.830   0.879   0.110 -1.3772  1.1403 -0.3146
 3605TIP3    H210822   3.890   0.787   0.214  0.2290  0.7748 -1.5295
 3606TIP3   OH210823   2.512   2.260   1.710  0.1494  0.2873  0.0355
 3606TIP3    H110824   2.540   2.350   1.697 -1.4972  1.0464  1.3381
 3606TIP3    H210825   2.476   2.258   1.799 -0.0048 -1.6173 -0.0202
 3607TIP3   OH210826   5.715   4.441   1.684  0.5722 -0.3048 -0.0799
 3607TIP3    H110827   5.779   4.370   1.690  1.0986  0.1915  0.3295
 3607TIP3    H210828   5.764   4.520   1.711  0.6835  0.6496 -2.7726
 3608TIP3   OH210829   0.404   1.563   2.990 -0.9447 -0.2391 -0.1727
 3608TIP3    H110830   0.328   1.540   3.044 -1.0528  1.0693  0.2837
 3608TIP3    H210831   0.372   1.561   2.900 -0.5275 -3.3870 -0.3613
 3609TIP3   OH210832   2.307   4.793   3.484  0.1185 -0.2786  0.2859
 3609TIP3    H110833   2.298   4.885   3.460  1.2255 -0.1631  0.2578
 3609TIP3    H210834   2.271   4.787   3.572 -0.7647 -0.0027 -0.0459
 3610TIP3   OH210835   5.209   3.396   2.664 -0.2658  0.2112  0.3473
 3610TIP3    H110836   5.169   3.450   2.731  1.0254  0.9510  0.5466
 3610TIP3    H210837   5.224   3.456   2.591 -0.9974 -0.4248 -0.3433
 3611TIP3   OH210838   1.024   3.998   3.458 -0.1194 -0.3758  0.1693
 3611TIP3    H110839   1.039   3.933   3.388 -0.5044  1.5573 -1.8162
 3611TIP3    H210840   0.964   3.954   3.518 -1.1766 -1.5385 -1.6311
 3612TIP3   OH210841   3.871   4.838   4.652  0.4109 -0.2434  0.5243
 3612TIP3    H110842   3.959   4.858   4.620  0.7011 -3.6915 -1.3759
 3612TIP3    H210843   3.885   4.784   4.729 -0.0361 -0.3994  0.5002
 3613TIP3   OH210844   2.592   4.865   1.130 -0.0605  0.4152  0.3204
 3613TIP3    H110845   2.683   4.885   1.106  0.7879 -2.5830  0.6680
 3613TIP3    H210846   2.564   4.800   1.066 -1.9042  1.0807  0.4040
 3614TIP3   OH210847   3.593   0.662   0.870 -0.3594 -0.1201 -0.3070
 3614TIP3    H110848   3.529   0.733   0.870 -0.5158 -0.0650  3.2768
 3614TIP3    H210849   3.678   0.706   0.864 -0.4106  0.6213  2.7219
 3615TIP3   OH210850   5.980   2.287   2.642  0.3469 -0.5395 -0.3035
 3615TIP3    H110851   6.069   2.272   2.610  0.2345 -1.2650 -0.3023
 3615TIP3    H210852   5.928   2.299   2.562  0.4005 -0.3741 -0.3139
 3616TIP3   OH210853   0.248   0.246   1.509 -0.3429  0.2004 -0.2080
 3616TIP3    H110854   0.317   0.288   1.458 -1.2402 -0.4829 -2.0741
 3616TIP3    H210855   0.273   0.261   1.601  1.4972  1.1937 -0.8263
 3617TIP3   OH210856   6.136   1.872   0.499  0.5208 -0.5287 -0.0059
 3617TIP3    H110857   6.081   1.799   0.469  0.8065 -0.2971 -1.1266
 3617TIP3    H210858   6.084   1.912   0.569 -1.3514  0.4293 -1.8270
 3618TIP3   OH210859   6.182   3.300   4.041  0.0414  0.5933 -0.1152
 3618TIP3    H110860   6.276   3.284   4.034  0.0020 -0.0568  0.7160
 3618TIP3    H210861   6.176   3.392   4.068  0.3792  1.0434 -1.4949
 3619TIP3   OH210862   0.892   5.790   4.934 -0.5257  0.5793  0.2917
 3619TIP3    H110863   0.840   5.870   4.942 -1.2019  0.0389  1.5510
 3619TIP3    H210864   0.947   5.790   5.012 -0.0998  0.1071 -0.0063
 3620TIP3   OH210865   3.886   0.078   4.853 -0.2780  0.3645  0.2522
 3620TIP3    H110866   3.974   0.081   4.815 -0.5225  1.5278 -0.2611
 3620TIP3    H210867   3.834   0.029   4.789 -0.0159 -0.3151  0.5508
 3621TIP3   OH210868   0.200   2.261   1.352 -0.3427 -0.6269  0.1206
 3621TIP3    H110869   0.290   2.293   1.355 -0.5590  0.0839 -0.6068
 3621TIP3    H210870   0.207   2.169   1.329  0.1175 -0.0120 -2.4630
 3622TIP3   OH210871   2.194   5.123   2.444  0.3285  0.3119 -0.4114
 3622TIP3    H110872   2.118   5.094   2.392  0.4482  2.4650 -1.9430
 3622TIP3    H210873   2.265   5.066   2.415 -0.6460 -1.8959  1.2142
 3623TIP3   OH210874   5.257   0.634   0.919  0.4066 -0.5530  0.2577
 3623TIP3    H110875   5.322   0.678   0.973 -1.1565  4.5954 -1.4596
 3623TIP3    H210876   5.179   0.630   0.975 -0.1769  1.5342 -0.2829
 3624TIP3   OH210877   3.393   0.756   1.512  0.7114 -0.2363 -0.5131
 3624TIP3    H110878   3.428   0.797   1.591  0.2967 -0.0921 -0.4001
 3624TIP3    H210879   3.312   0.805   1.494  0.4241 -0.7455 -0.6120
 3625TIP3   OH210880   4.683   4.978   4.846  0.2062 -0.1575  1.0869
 3625TIP3    H110881   4.693   4.899   4.898  1.8993  0.5071  1.8352
 3625TIP3    H210882   4.665   4.947   4.757 -1.0479 -1.3286  1.7138
 3626TIP3   OH210883   0.910   4.804   2.966 -0.4049  0.2002  0.1907
 3626TIP3    H110884   0.821   4.838   2.969 -0.6720 -0.4882  0.3026
 3626TIP3    H210885   0.914   4.754   2.884  0.4529  1.7387 -0.7570
 3627TIP3   OH210886   3.807   0.552   0.404  0.1483  0.0321 -0.2393
 3627TIP3    H110887   3.836   0.532   0.315  0.1678  1.0243 -0.4647
 3627TIP3    H210888   3.780   0.467   0.439  0.8164 -0.4947 -0.9344
 3628TIP3   OH210889   0.199   3.810   2.080  0.0067 -0.3977 -0.4922
 3628TIP3    H110890   0.295   3.806   2.086  0.0916  0.6009 -0.9154
 3628TIP3    H210891   0.183   3.827   1.987 -0.5304  0.3628 -0.2706
 3629TIP3   OH210892   5.226   1.085   4.544  0.2048 -0.2397 -0.3104
 3629TIP3    H110893   5.211   1.104   4.452 -1.8063 -1.6921 -0.3313
 3629TIP3    H210894   5.157   1.132   4.590 -0.3351 -1.5377  0.2276
 3630TIP3   OH210895   3.049   2.931   4.119  0.2433  0.5354  0.1477
 3630TIP3    H110896   3.004   2.868   4.175  0.2131  0.6353  0.2339
 3630TIP3    H210897   3.015   2.913   4.031  0.5875  0.1059  0.0945
 3631TIP3   OH210898   1.250   4.029   0.920  0.0189  0.3313  0.4272
 3631TIP3    H110899   1.329   3.985   0.890  0.3644 -0.4054  2.2930
 3631TIP3    H210900   1.182   4.000   0.859  0.7352 -0.8294  0.1505
 3632TIP3   OH210901   2.226   4.924   3.226 -0.6081 -0.5664  0.1112
 3632TIP3    H110902   2.182   5.005   3.252 -0.8967 -0.0398 -1.8433
 3632TIP3    H210903   2.319   4.944   3.236 -0.7009 -0.3361  0.5579
 3633TIP3   OH210904   3.407   0.025   5.086  0.0286 -0.1419 -0.2682
 3633TIP3    H110905   3.455  -0.043   5.132  0.5087 -0.0171 -0.5810
 3633TIP3    H210906   3.420   0.104   5.139  2.0843  0.4219 -1.5320
 3634TIP3   OH210907   1.082   1.908   3.107 -0.2629  0.2857 -0.0249
 3634TIP3    H110908   1.051   1.890   3.018 -3.8067  2.2423  0.5892
 3634TIP3    H210909   1.176   1.922   3.098 -0.1007 -1.8042 -3.0129
 3635TIP3   OH210910   2.042   4.071   1.361 -0.3740  0.0890 -0.0879
 3635TIP3    H110911   2.032   4.014   1.285 -0.2643 -0.8895  0.6125
 3635TIP3    H210912   2.081   4.152   1.326  1.3609 -1.0021 -0.8215
 3636TIP3   OH210913   4.608   3.847   2.571  0.7054  0.2226  0.0362
 3636TIP3    H110914   4.533   3.809   2.617 -1.3890 -0.2871 -3.4280
 3636TIP3    H210915   4.677   3.781   2.579 -1.1773 -2.1095 -1.4804
 3637TIP3   OH210916   1.815   2.426   0.258  0.0607 -0.1588 -0.1776
 3637TIP3    H110917   1.733   2.434   0.308  0.1921 -2.4681  0.5017
 3637TIP3    H210918   1.787   2.425   0.166 -0.5503  0.2800 -0.0047
 3638TIP3   OH210919   2.581   2.684   3.855  0.2636 -0.0139  0.0630
 3638TIP3    H110920   2.501   2.682   3.908  0.9697  1.0995  1.2340
 3638TIP3    H210921   2.623   2.767   3.878  0.9701  0.1770 -1.7403
 3639TIP3   OH210922   0.680   5.296   3.610  0.7293 -0.4318 -0.3039
 3639TIP3    H110923   0.637   5.360   3.666 -0.0975 -1.8266  0.7337
 3639TIP3    H210924   0.687   5.339   3.525 -0.3665  0.7992  0.1908
 3640TIP3   OH210925   5.169   0.479   2.493 -0.3429  0.5344  0.2311
 3640TIP3    H110926   5.254   0.438   2.505 -0.9124 -0.5123  0.7988
 3640TIP3    H210927   5.167   0.551   2.556  0.5659  1.3119 -0.6010
 3641TIP3   OH210928   0.101   1.217   0.999 -0.3699 -0.7949  0.4531
 3641TIP3    H110929   0.068   1.301   1.032  0.6551 -1.0280  2.1721
 3641TIP3    H210930   0.090   1.156   1.072  2.0798 -1.3100  0.4851
 3642TIP3   OH210931   3.953   3.574   3.140 -0.0464 -0.3898 -0.0580
 3642TIP3    H110932   4.000   3.618   3.069 -1.6014 -0.1241 -0.9562
 3642TIP3    H210933   4.000   3.491   3.152  0.2866 -0.3994 -1.3456
 3643TIP3   OH210934   4.610   2.355   4.030 -0.9840  0.0382  0.2450
 3643TIP3    H110935   4.702   2.328   4.039 -1.3898 -1.1410  1.1643
 3643TIP3    H210936   4.570   2.286   3.977 -1.3861  0.4236  0.0420
 3644TIP3   OH210937   1.411   5.217   3.049  0.2157 -0.3332  0.1602
 3644TIP3    H110938   1.378   5.237   3.136  0.5043  0.0321  0.1872
 3644TIP3    H210939   1.501   5.187   3.063  0.3381 -0.0626 -0.0308
 3645TIP3   OH210940   5.285   3.592   5.096 -0.1371  0.3880 -0.8857
 3645TIP3    H110941   5.259   3.520   5.153 -1.1928  2.9021  2.0642
 3645TIP3    H210942   5.359   3.557   5.047 -0.5316 -2.6489  0.4297
 3646TIP3   OH210943   6.095   4.942   2.834 -0.3767  0.2892 -0.1858
 3646TIP3    H110944   6.064   4.956   2.924 -0.0840 -0.2758  0.0132
 3646TIP3    H210945   6.061   5.016   2.785  1.2284  1.7961  0.8219
 3647TIP3   OH210946   0.031   1.843   4.130  0.0679 -0.1012 -0.2572
 3647TIP3    H110947   0.029   1.772   4.194  0.4091  0.9639  0.9733
 3647TIP3    H210948   0.105   1.822   4.073 -0.5882 -1.3537 -0.6711
 3648TIP3   OH210949   1.422   2.830   0.198 -0.7881  0.0553  0.1410
 3648TIP3    H110950   1.329   2.842   0.177 -0.3540 -0.3338 -2.2529
 3648TIP3    H210951   1.465   2.907   0.161 -0.2168  0.7717  2.1614
 3649TIP3   OH210952   0.225   4.385   2.171  0.4271 -0.5991  0.0685
 3649TIP3    H110953   0.220   4.301   2.126  1.0749 -0.9562  0.6476
 3649TIP3    H210954   0.139   4.425   2.157  0.6834 -0.5895 -1.6707
 3650TIP3   OH210955   2.132   1.563   0.911  0.0882 -0.0083  0.2855
 3650TIP3    H110956   2.148   1.639   0.967  0.2070 -1.3070  2.0996
 3650TIP3    H210957   2.219   1.531   0.887  0.0433  0.0124  0.0867
 3651TIP3   OH210958   3.373   0.794   0.834 -0.0478 -0.3716  0.3605
 3651TIP3    H110959   3.309   0.865   0.827 -0.8491 -1.1451 -0.3899
 3651TIP3    H210960   3.357   0.756   0.921 -1.6713 -1.5107 -0.3840
 3652TIP3   OH210961   1.948   1.767   1.301 -0.1802  0.0818 -0.8184
 3652TIP3    H110962   2.041   1.744   1.293 -0.6884 -1.4943 -3.1027
 3652TIP3    H210963   1.946   1.861   1.289  1.1630  0.2137 -0.2186
 3653TIP3   OH210964   1.381   2.151   2.384 -0.0283 -0.1373 -0.1192
 3653TIP3    H110965   1.288   2.167   2.398  0.1845 -0.2803  1.8227
 3653TIP3    H210966   1.387   2.057   2.368 -0.1193 -0.3730  1.1244
 3654TIP3   OH210967   5.288   2.074   2.746 -0.0254  0.2179  0.1332
 3654TIP3    H110968   5.216   2.113   2.697  0.3567  2.0275  0.9359
 3654TIP3    H210969   5.271   2.096   2.837  1.0473 -0.1235  0.4383
 3655TIP3   OH210970   0.716   0.964   1.070  0.3336  0.1729  0.3031
 3655TIP3    H110971   0.798   0.999   1.105  1.3085  0.3142 -1.9772
 3655TIP3    H210972   0.681   1.034   1.015 -1.1846 -0.0124  0.9737
 3656TIP3   OH210973   2.150   3.203   0.265  0.3457 -0.1225 -0.1848
 3656TIP3    H110974   2.226   3.248   0.302 -0.8477  2.9204 -1.1643
 3656TIP3    H210975   2.163   3.207   0.171 -1.4047  1.3347 -0.4255
 3657TIP3   OH210976   5.151   3.423   1.076 -0.2641 -0.4684  0.2832
 3657TIP3    H110977   5.091   3.350   1.091 -2.4359  0.1906 -3.6902
 3657TIP3    H210978   5.097   3.501   1.088  0.6983  0.2825 -0.1427
 3658TIP3   OH210979   5.774   0.888   0.452  0.0481 -0.3961  0.0208
 3658TIP3    H110980   5.718   0.957   0.487 -0.0292 -1.0571  1.2412
 3658TIP3    H210981   5.715   0.828   0.408 -0.2188 -0.9807  1.1250
 3659TIP3   OH210982   2.167   1.939   5.135  0.0176  0.0505 -0.5300
 3659TIP3    H110983   2.164   2.023   5.181 -1.6404 -0.8145  1.1079
 3659TIP3    H210984   2.077   1.906   5.142 -0.0577 -0.6586 -3.5226
 3660TIP3   OH210985   4.061   1.392   1.065  0.1253  0.4786 -0.5459
 3660TIP3    H110986   4.055   1.482   1.033 -1.6298  0.8136  0.5838
 3660TIP3    H210987   4.084   1.401   1.157  2.0814 -0.3587 -0.8937
 3661TIP3   OH210988   2.002   0.656   0.394 -0.3330  0.6820  0.1364
 3661TIP3    H110989   1.954   0.685   0.316 -1.1172  1.4622  0.8922
 3661TIP3    H210990   1.941   0.669   0.466  0.0091 -0.9968  0.7784
 3662TIP3   OH210991   0.860   2.158   0.442  0.2598  0.3512  0.5862
 3662TIP3    H110992   0.859   2.197   0.354 -0.2040  1.4469  1.0624
 3662TIP3    H210993   0.848   2.232   0.501  1.5077 -0.2495  1.6351
 3663TIP3   OH210994   1.698   5.227   3.044  0.2061  0.2039 -0.0956
 3663TIP3    H110995   1.740   5.201   2.962 -1.4846  0.1402 -0.9713
 3663TIP3    H210996   1.680   5.321   3.033  2.0096  0.7589  1.1573
 3664TIP3   OH210997   6.028   2.176   0.090  0.3795  0.3253 -0.4383
 3664TIP3    H110998   5.935   2.197   0.103  0.5528  0.5669  0.4985
 3664TIP3    H210999   6.056   2.139   0.173  1.2074  0.5792 -0.5940
 3665TIP3   OH211000   1.045   4.222   1.026 -0.3643  0.0430  0.5569
 3665TIP3    H111001   0.959   4.229   0.986  0.8226  2.4098 -1.9172
 3665TIP3    H211002   1.094   4.164   0.968  0.3765  0.6350  0.5694
 3666TIP3   OH211003   3.143   2.517   2.329  0.0363  0.2978  0.4429
 3666TIP3    H111004   3.229   2.504   2.369  0.5601  2.0046 -0.0499
 3666TIP3    H211005   3.094   2.569   2.392 -0.2634  0.2471  0.2547
 3667TIP3   OH211006   6.124   4.297   4.964  0.7552 -0.0213 -0.2134
 3667TIP3    H111007   6.194   4.361   4.972 -0.3342  1.0803  0.7244
 3667TIP3    H211008   6.053   4.343   4.920 -0.6244 -0.0498  1.8328
 3668TIP3   OH211009   2.967   0.736   3.513 -0.0886 -1.0355  0.5972
 3668TIP3    H111010   3.057   0.705   3.511  0.6915  1.1096 -0.2427
 3668TIP3    H211011   2.915   0.661   3.482  1.4879 -1.9824  0.1302
 3669TIP3   OH211012   0.491   4.114   3.119  0.1590  0.1287 -0.0793
 3669TIP3    H111013   0.536   4.195   3.096  0.2793  0.4746  1.3124
 3669TIP3    H211014   0.550   4.071   3.180 -0.6585 -0.2196  0.4734
 3670TIP3   OH211015   4.281   3.664   2.167 -0.1969 -0.6268 -0.0803
 3670TIP3    H111016   4.343   3.592   2.156 -0.5416 -0.7095 -1.7707
 3670TIP3    H211017   4.325   3.724   2.227  2.5681  0.3709 -2.8538
 3671TIP3   OH211018   0.943   2.345   2.569  0.0640  0.4431 -0.0019
 3671TIP3    H111019   1.025   2.371   2.612  0.3745 -0.3300 -0.1113
 3671TIP3    H211020   0.939   2.250   2.581 -2.0073  0.7061  2.1224
 3672TIP3   OH211021   3.771   1.192   2.168  0.5072 -0.5915 -0.4524
 3672TIP3    H111022   3.797   1.170   2.257 -0.9271 -1.3205 -0.1855
 3672TIP3    H211023   3.790   1.113   2.117  1.5541 -0.0947 -0.8647
 3673TIP3   OH211024   5.594   0.838   3.439  0.0180  1.3502  0.0737
 3673TIP3    H111025   5.541   0.896   3.385 -0.0488 -0.6212 -2.1539
 3673TIP3    H211026   5.531   0.778   3.479  0.3114  0.2574 -1.0028
 3674TIP3   OH211027   2.085   3.721   2.592 -0.4640  0.3755  0.0136
 3674TIP3    H111028   2.118   3.643   2.637 -0.3057 -0.2033 -1.0630
 3674TIP3    H211029   2.125   3.794   2.639  1.1226 -0.2538 -0.2736
 3675TIP3   OH211030   1.202   4.062   2.059  0.4286  0.0189 -0.5851
 3675TIP3    H111031   1.150   4.014   1.994 -0.7062  0.9002 -0.3650
 3675TIP3    H211032   1.248   3.994   2.108 -3.0418 -1.1885  1.4135
 3676TIP3   OH211033   3.274   1.848   4.476 -0.3733 -0.1582  0.0462
 3676TIP3    H111034   3.217   1.776   4.503 -0.5895 -0.2765 -0.7114
 3676TIP3    H211035   3.358   1.806   4.456 -0.0495 -0.0021  1.0258
 3677TIP3   OH211036   2.679   1.680   3.370  0.2164  0.0850  0.7204
 3677TIP3    H111037   2.640   1.620   3.434  0.6220  0.3082  1.1797
 3677TIP3    H211038   2.744   1.729   3.419 -0.0428  0.8438  0.3233
 3678TIP3   OH211039   3.146   0.945   0.784  0.0637 -0.2393 -0.0918
 3678TIP3    H111040   3.060   0.923   0.747 -0.9227 -0.0993  1.9540
 3678TIP3    H211041   3.133   1.032   0.822  1.7228  0.6638 -1.4462
 3679TIP3   OH211042   6.252   5.522   1.646 -0.7760 -0.5771 -0.0431
 3679TIP3    H111043   6.292   5.439   1.672  1.9017  0.7636  0.4757
 3679TIP3    H211044   6.237   5.512   1.551  1.8736 -0.8291 -0.5039
 3680TIP3   OH211045   1.065   0.739   3.298 -0.2328 -0.3637 -0.5760
 3680TIP3    H111046   1.124   0.670   3.327  1.7568  1.0329 -1.1016
 3680TIP3    H211047   1.055   0.724   3.204 -2.9682 -2.1592 -0.1116
 3681TIP3   OH211048   6.307   0.479   4.142 -0.4879  0.2612  0.0308
 3681TIP3    H111049   6.326   0.544   4.074 -1.8658  0.8127  0.1361
 3681TIP3    H211050   6.363   0.505   4.215  0.7726 -0.1445 -0.7488
 3682TIP3   OH211051   4.729   5.059   1.207 -0.3835 -0.1272 -1.1091
 3682TIP3    H111052   4.823   5.058   1.229 -0.8495  0.6595  1.1208
 3682TIP3    H211053   4.726   5.096   1.118  1.2544  3.4094  0.0965
 3683TIP3   OH211054   1.842   3.821   2.670  0.4144 -0.2441  0.1805
 3683TIP3    H111055   1.797   3.760   2.728 -0.7051  1.1346  0.8152
 3683TIP3    H211056   1.896   3.765   2.613 -0.9188 -1.8447  0.4196
 3684TIP3   OH211057   4.394   3.364   1.880  0.3052 -0.1829 -0.4804
 3684TIP3    H111058   4.384   3.459   1.887 -0.3072 -0.3773  2.5466
 3684TIP3    H211059   4.306   3.329   1.894  0.8243 -1.2361  0.3511
 3685TIP3   OH211060   4.059   1.749   3.410  0.2581 -0.0905  0.3236
 3685TIP3    H111061   4.125   1.781   3.471  0.3942  0.1969  0.0290
 3685TIP3    H211062   3.979   1.743   3.462  0.2828  0.5091  0.4439
 3686TIP3   OH211063   0.175   5.976   0.063  0.0615  0.2264 -0.0122
 3686TIP3    H111064   0.270   5.979   0.049  0.0336 -1.2980 -0.7840
 3686TIP3    H211065   0.147   5.896   0.019 -1.6874  0.9641 -0.3233
 3687TIP3   OH211066   6.239   3.657   3.058 -0.0477 -0.4114 -0.2174
 3687TIP3    H111067   6.249   3.584   3.119  0.5588 -0.0019  0.1889
 3687TIP3    H211068   6.154   3.695   3.080  1.0789  1.0930  1.9298
 3688TIP3   OH211069   6.010   5.130   0.744  0.0413 -0.0291  0.1867
 3688TIP3    H111070   5.933   5.078   0.766  0.3169 -0.4220  0.2414
 3688TIP3    H211071   6.003   5.208   0.799 -0.2596 -0.1135  0.2712
 3689TIP3   OH211072   0.812   2.226   4.120 -0.3702 -0.2521  0.1084
 3689TIP3    H111073   0.822   2.304   4.175 -0.8611 -0.3259  0.3011
 3689TIP3    H211074   0.828   2.153   4.179 -0.1284 -0.3086 -0.0248
 3690TIP3   OH211075   6.214   2.077   2.223 -0.1215  0.0278 -0.2689
 3690TIP3    H111076   6.173   1.998   2.187  0.5054 -0.3852 -0.0884
 3690TIP3    H211077   6.257   2.048   2.303 -1.0702  0.8402  0.5794
 3691TIP3   OH211078   5.408   2.574   4.883 -0.2384 -0.3596  0.2818
 3691TIP3    H111079   5.451   2.498   4.923  1.4795  0.4571  0.0661
 3691TIP3    H211080   5.460   2.592   4.804  0.1873  1.7831  0.9932
 3692TIP3   OH211081   5.819   5.869   3.000 -0.2349 -0.7835  0.3932
 3692TIP3    H111082   5.840   5.830   3.084  0.2754  2.4251  1.9229
 3692TIP3    H211083   5.903   5.900   2.966 -0.8946  1.7931  0.9045
 3693TIP3   OH211084   6.273   1.486   4.127  0.2000  1.1032  0.3110
 3693TIP3    H111085   6.311   1.399   4.114 -2.0232  0.0730  0.3569
 3693TIP3    H211086   6.273   1.526   4.040 -0.9041  0.1091 -0.1703
 3694TIP3   OH211087   4.943   4.075   1.785 -0.3686 -0.3967  0.3471
 3694TIP3    H111088   4.973   4.014   1.718  0.6204 -1.1704  1.4655
 3694TIP3    H211089   4.975   4.160   1.756  1.0577 -0.8922  0.4205
 3695TIP3   OH211090   2.840   5.841   0.105 -0.0532  0.1776 -0.7286
 3695TIP3    H111091   2.853   5.854   0.011  0.4383  1.0486 -0.5483
 3695TIP3    H211092   2.844   5.746   0.116  0.6009  0.1064 -1.4925
 3696TIP3   OH211093   0.557   1.143   1.985  0.2082  0.0584  0.1888
 3696TIP3    H111094   0.631   1.203   1.984  0.4642 -0.2618 -0.0378
 3696TIP3    H211095   0.577   1.081   2.055 -0.0215  0.1925  0.3741
 3697TIP3   OH211096   5.440   3.130   5.057  0.2329  0.3012 -0.2701
 3697TIP3    H111097   5.392   3.144   4.976  0.1866 -0.7221 -0.4326
 3697TIP3    H211098   5.532   3.136   5.033  0.2495  2.4078  0.0667
 3698TIP3   OH211099   2.436   1.177   4.971  0.0735 -0.1566 -0.1850
 3698TIP3    H111100   2.412   1.190   4.879 -0.1589 -0.9423 -0.2444
 3698TIP3    H211101   2.378   1.236   5.019  0.5016  0.5955 -0.5607
 3699TIP3   OH211102   5.481   0.466   1.092  0.3939 -0.2635 -0.0282
 3699TIP3    H111103   5.492   0.560   1.107  2.2986 -0.7009  1.8390
 3699TIP3    H211104   5.543   0.445   1.023  0.0665 -0.1783 -0.3495
 3700TIP3   OH211105   5.075   4.252   4.947 -0.4944  0.3136 -0.0993
 3700TIP3    H111106   5.073   4.156   4.937  0.5529  0.1144  1.2193
 3700TIP3    H211107   5.059   4.266   5.040 -1.3523  1.4807 -0.4090
 3701TIP3   OH211108   6.163   1.369   0.768  0.7181 -0.5161 -0.6452
 3701TIP3    H111109   6.099   1.440   0.767 -0.3567 -1.4300  0.2503
 3701TIP3    H211110   6.246   1.411   0.745  0.5118  1.4291  1.6984
 3702TIP3   OH211111   2.584   3.102   5.015  0.2521 -0.4900  0.1418
 3702TIP3    H111112   2.547   3.129   4.931 -0.5300 -1.3713  0.1846
 3702TIP3    H211113   2.678   3.115   5.006  0.0966  0.1368 -0.6030
 3703TIP3   OH211114   2.384   4.272   3.586 -0.3574 -0.4831  0.0233
 3703TIP3    H111115   2.428   4.192   3.615 -0.5974 -0.0992  1.5232
 3703TIP3    H211116   2.455   4.331   3.563 -0.1105 -0.3954  0.9724
 3704TIP3   OH211117   0.473   5.219   2.649  0.1435  0.6334  0.2928
 3704TIP3    H111118   0.385   5.242   2.680  0.7028  2.3602  0.7062
 3704TIP3    H211119   0.513   5.174   2.724 -0.6821 -1.0964 -0.2405
 3705TIP3   OH211120   2.361   4.555   3.772  0.1667 -0.5003 -0.4587
 3705TIP3    H111121   2.430   4.527   3.712  1.2965  0.7242  0.2126
 3705TIP3    H211122   2.339   4.476   3.822  0.6383 -1.0493 -1.0967
 3706TIP3   OH211123   5.404   1.309   0.077 -0.4774  0.3158 -0.8574
 3706TIP3    H111124   5.366   1.391   0.046 -2.0344 -0.6029 -1.4753
 3706TIP3    H211125   5.407   1.319   0.172 -2.1072  0.5185 -0.8010
 3707TIP3   OH211126   0.443   2.466   2.597 -0.5885 -0.1008 -0.1408
 3707TIP3    H111127   0.534   2.481   2.622 -0.7400 -0.7526  0.8629
 3707TIP3    H211128   0.392   2.497   2.672 -1.4246  3.0396 -1.8213
 3708TIP3   OH211129   4.883   5.446   1.074  0.1265 -0.3469 -0.2952
 3708TIP3    H111130   4.796   5.478   1.050 -1.5279 -2.8068  1.8633
 3708TIP3    H211131   4.897   5.478   1.164  1.6559  0.3128 -0.7290
 3709TIP3   OH211132   0.560   5.122   2.884  0.7319 -0.0855  0.0536
 3709TIP3    H111133   0.618   5.165   2.947  0.0552  0.9433  0.0069
 3709TIP3    H211134   0.480   5.104   2.934  0.9964 -1.2903  0.0613
 3710TIP3   OH211135   6.247   4.533   0.218  0.2775 -0.0020  0.3930
 3710TIP3    H111136   6.231   4.627   0.218  0.6905  0.0706  0.8222
 3710TIP3    H211137   6.193   4.500   0.146  0.8074  0.6771 -0.3404
 3711TIP3   OH211138   6.079   3.692   1.341 -0.4047  0.1276  0.4202
 3711TIP3    H111139   6.134   3.614   1.345 -3.3122 -2.1149 -0.2408
 3711TIP3    H211140   6.022   3.677   1.266 -2.1946  2.1001  1.3006
 3712TIP3   OH211141   1.450   5.308   0.731  0.9612  0.4098 -0.0077
 3712TIP3    H111142   1.378   5.245   0.733  0.8022  0.5545 -0.7025
 3712TIP3    H211143   1.526   5.257   0.704  1.2225  0.1675  1.1625
 3713TIP3   OH211144   4.213   2.292   4.124 -0.9493 -0.4659  0.0143
 3713TIP3    H111145   4.243   2.268   4.036  2.9650 -0.1970  1.0801
 3713TIP3    H211146   4.199   2.387   4.119 -0.1299 -0.3438 -0.2165
 3714TIP3   OH211147   2.684   5.327   3.596  0.0021  0.5307  0.1059
 3714TIP3    H111148   2.650   5.371   3.518  1.6863 -0.0837 -1.0114
 3714TIP3    H211149   2.727   5.397   3.646  0.4572  0.6157 -0.3996
 3715TIP3   OH211150   2.024   2.293   0.008 -0.1914 -0.0356  0.0307
 3715TIP3    H111151   2.115   2.304   0.036 -0.0455 -0.2987 -0.3352
 3715TIP3    H211152   2.002   2.203   0.031 -0.1089 -0.2178 -0.5817
 3716TIP3   OH211153   6.184   5.325   3.876  0.5164  0.6161  0.3514
 3716TIP3    H111154   6.110   5.302   3.933  0.4550  1.4282  0.6016
 3716TIP3    H211155   6.175   5.419   3.861 -0.3803  0.1845 -2.2803
 3717TIP3   OH211156   3.200   2.625   1.805  0.0566 -0.0580  0.4327
 3717TIP3    H111157   3.293   2.621   1.824  0.2395  1.5284  0.0100
 3717TIP3    H211158   3.192   2.586   1.718  0.6756  1.7440 -0.4831
 3718TIP3   OH211159   6.073   3.750   0.576 -0.5615  0.6890  0.1284
 3718TIP3    H111160   6.086   3.660   0.547 -0.0747  0.6835  0.3635
 3718TIP3    H211161   6.009   3.786   0.514 -0.2524  0.3835 -0.3729
 3719TIP3   OH211162   2.761   0.042   4.347  0.0078  0.1631  0.4441
 3719TIP3    H111163   2.848   0.003   4.337  0.7811  2.1801 -1.7210
 3719TIP3    H211164   2.778   0.128   4.386 -0.7983  1.0479 -1.0347
 3720TIP3   OH211165   5.263   2.074   5.187  0.1839 -0.1094  0.6661
 3720TIP3    H111166   5.315   2.058   5.108 -1.5388 -1.9269 -0.1797
 3720TIP3    H211167   5.227   2.162   5.176  1.4086  0.3688  0.3300
 3721TIP3   OH211168   5.957   0.059   0.807  0.3148 -0.1670  0.3232
 3721TIP3    H111169   6.027   0.094   0.862  0.0471  0.8550  0.0351
 3721TIP3    H211170   6.002  -0.002   0.748  0.8970  0.1443  0.4347
 3722TIP3   OH211171   0.947   5.107   3.144 -0.2301 -0.5172 -0.5007
 3722TIP3    H111172   0.962   5.014   3.165 -0.1465 -0.7742 -1.6191
 3722TIP3    H211173   0.984   5.154   3.218 -0.1925 -1.3792  0.0496
 3723TIP3   OH211174   4.918   2.548   0.642  0.9830 -0.0464 -0.3591
 3723TIP3    H111175   4.884   2.628   0.601  0.7779  1.1747  1.9886
 3723TIP3    H211176   4.982   2.579   0.706 -0.4014 -1.5296  1.9165
 3724TIP3   OH211177   3.443   3.718   1.450 -0.4441 -0.2206  0.2813
 3724TIP3    H111178   3.409   3.636   1.413 -1.5833  0.5939 -0.5409
 3724TIP3    H211179   3.401   3.724   1.535  1.0692 -1.3779  1.1636
 3725TIP3   OH211180   4.933   1.997   3.099  0.2692 -0.0985 -0.1485
 3725TIP3    H111181   4.901   2.061   3.037  1.5662  0.3296 -0.4216
 3725TIP3    H211182   4.994   2.046   3.154 -0.6690 -0.5162  1.3274
 3726TIP3   OH211183   4.178   4.146   2.280 -0.2372  0.6897 -0.0713
 3726TIP3    H111184   4.265   4.159   2.241 -0.2568 -0.5268 -0.5850
 3726TIP3    H211185   4.195   4.089   2.355 -0.5661  0.6160 -0.0537
 3727TIP3   OH211186   1.196   0.513   4.063  0.5266 -0.2845  0.3090
 3727TIP3    H111187   1.239   0.597   4.075 -1.6948  0.8648  0.8155
 3727TIP3    H211188   1.228   0.481   3.979  1.8512  0.7787  0.3822
 3728TIP3   OH211189   1.149   2.112   3.660 -0.2414 -0.0253  1.0498
 3728TIP3    H111190   1.154   2.148   3.749 -0.2757  1.3171  0.5300
 3728TIP3    H211191   1.216   2.160   3.611 -1.5374  0.6725 -0.1108
 3729TIP3   OH211192   3.555   3.881   2.125  0.0983 -0.0048  0.7917
 3729TIP3    H111193   3.472   3.926   2.109  1.1347  2.6758  2.2947
 3729TIP3    H211194   3.549   3.800   2.074 -1.5681  2.2007 -2.9710
 3730TIP3   OH211195   1.625   4.215   3.497 -0.0059 -0.1301  0.2916
 3730TIP3    H111196   1.656   4.248   3.412 -1.2049 -0.4365 -0.2756
 3730TIP3    H211197   1.537   4.251   3.506  0.1854  0.0705  1.5202
 3731TIP3   OH211198   2.894   5.090   2.795  0.7769  0.0151  0.5731
 3731TIP3    H111199   2.823   5.096   2.860  1.0301  1.5803  0.7472
 3731TIP3    H211200   2.861   5.028   2.730 -1.0808  1.1823  0.3023
 3732TIP3   OH211201   5.243   1.728   2.489 -0.1867  0.3840  0.3856
 3732TIP3    H111202   5.291   1.773   2.559  0.9355 -1.4530  0.8487
 3732TIP3    H211203   5.156   1.767   2.491  0.5444  2.0944  1.1536
 3733TIP3   OH211204   0.486   0.621   5.064 -0.7300 -0.3850  0.6325
 3733TIP3    H111205   0.433   0.622   5.144 -1.4012 -0.9421  0.2089
 3733TIP3    H211206   0.479   0.711   5.030  0.8473  0.3027  1.9983
 3734TIP3   OH211207   3.410   4.694   1.691 -0.3639 -0.2644 -0.0673
 3734TIP3    H111208   3.416   4.768   1.632  0.4605 -0.2505  0.0256
 3734TIP3    H211209   3.378   4.622   1.637  1.2452 -0.4908 -0.7678
 3735TIP3   OH211210   4.459   0.691   5.071  1.2062  0.7199  0.2433
 3735TIP3    H111211   4.411   0.622   5.116  1.0438 -0.0540 -1.0618
 3735TIP3    H211212   4.500   0.742   5.141  1.5733 -0.8732  1.2330
 3736TIP3   OH211213   5.787   5.804   3.291 -0.1790 -0.1759 -0.0405
 3736TIP3    H111214   5.788   5.712   3.318 -0.9131 -0.5767 -1.2963
 3736TIP3    H211215   5.700   5.817   3.253  0.1116  0.8883 -0.3853
 3737TIP3   OH211216   2.597   0.811   1.185  0.3199 -0.1358 -0.2323
 3737TIP3    H111217   2.577   0.718   1.177 -2.6484  0.3809 -0.0001
 3737TIP3    H211218   2.588   0.845   1.096 -0.6768  0.2498  0.0054
 3738TIP3   OH211219   5.908   2.732   4.836  0.3353 -0.2413 -0.6514
 3738TIP3    H111220   5.851   2.754   4.910  0.1567  2.1691 -1.4350
 3738TIP3    H211221   5.996   2.754   4.867  0.7438 -2.5496  0.0218
 3739TIP3   OH211222   2.672   3.928   4.396 -0.0972 -0.5660 -0.4497
 3739TIP3    H111223   2.578   3.943   4.393 -0.1071  0.1445  1.7985
 3739TIP3    H211224   2.694   3.896   4.308 -2.3005 -0.1252 -1.2216
 3740TIP3   OH211225   3.175   0.305   0.869 -0.0516 -0.5336  0.3105
 3740TIP3    H111226   3.204   0.238   0.931  1.6289 -1.1068 -1.0276
 3740TIP3    H211227   3.233   0.379   0.885 -0.3986 -0.2329  0.2055
 3741TIP3   OH211228   1.009   1.036   1.852 -0.0395  0.0354 -0.0965
 3741TIP3    H111229   1.005   0.970   1.921  1.2734 -0.1886 -0.2045
 3741TIP3    H211230   0.931   1.020   1.798  0.3159 -1.5227 -0.1903
 3742TIP3   OH211231   5.235   1.794   0.083  0.0927 -0.1448 -0.6105
 3742TIP3    H111232   5.257   1.725   0.146 -0.6627 -0.9165 -1.1661
 3742TIP3    H211233   5.273   1.874   0.121  1.0802 -0.8732 -0.0113
 3743TIP3   OH211234   5.212   2.529   1.248 -0.2499 -0.5635  0.0939
 3743TIP3    H111235   5.138   2.491   1.202 -0.5440 -2.6344  2.0947
 3743TIP3    H211236   5.272   2.556   1.179 -1.4178 -1.8843 -1.5097
 3744TIP3   OH211237   0.317   2.312   0.147  0.4309  0.5990 -0.2064
 3744TIP3    H111238   0.302   2.407   0.143  0.7181  0.5941 -2.4803
 3744TIP3    H211239   0.406   2.303   0.180  0.0055  1.0343  1.1642
 3745TIP3   OH211240   4.045   2.499   4.583  0.0288  0.1857 -0.0790
 3745TIP3    H111241   3.958   2.466   4.560 -0.0600  0.4397 -0.1111
 3745TIP3    H211242   4.035   2.594   4.586  0.7176  0.3465 -1.7609
 3746TIP3   OH211243   2.534   1.157   3.875 -0.2615 -0.4251  0.3674
 3746TIP3    H111244   2.440   1.145   3.890 -0.5704  1.1936 -0.0342
 3746TIP3    H211245   2.553   1.242   3.916  1.0140 -0.7082  0.3873
 3747TIP3   OH211246   3.624   3.681   2.428 -0.3167 -0.3650  0.3629
 3747TIP3    H111247   3.656   3.639   2.349 -1.1776 -0.5167  0.0853
 3747TIP3    H211248   3.652   3.623   2.499 -1.2177 -1.2704  0.0118
 3748TIP3   OH211249   3.280   3.741   3.536 -0.4730  0.0893  0.2278
 3748TIP3    H111250   3.198   3.701   3.507  0.0353 -0.0382 -1.0532
 3748TIP3    H211251   3.285   3.823   3.488  0.7368 -0.4553 -0.6142
 3749TIP3   OH211252   5.433   2.208   4.381  0.4983 -0.4759 -0.0009
 3749TIP3    H111253   5.453   2.267   4.309  0.6540 -1.2129 -0.5751
 3749TIP3    H211254   5.400   2.128   4.339 -2.2833  0.1240  0.8327
 3750TIP3   OH211255   5.653   0.140   5.040 -0.0440 -0.6119  0.1409
 3750TIP3    H111256   5.571   0.190   5.043 -0.5759 -1.5038  0.9324
 3750TIP3    H211257   5.628   0.055   5.005  1.1113  0.0648 -2.6061
 3751TIP3   OH211258   0.053   0.458   3.223 -0.4678  0.1631  0.4747
 3751TIP3    H111259   0.088   0.538   3.183 -1.8168  0.0230 -1.1162
 3751TIP3    H211260  -0.031   0.444   3.178 -0.0692 -2.3831  0.4033
 3752TIP3   OH211261   1.394   3.319   2.188 -0.1948 -0.3460 -0.1213
 3752TIP3    H111262   1.345   3.297   2.109  0.9210  1.2825 -1.3178
 3752TIP3    H211263   1.381   3.413   2.200 -1.5948 -0.7617  2.5659
 3753TIP3   OH211264   1.489   3.257   3.322 -0.1400 -0.1927  0.3795
 3753TIP3    H111265   1.488   3.353   3.327  0.1731 -0.0047 -2.1448
 3753TIP3    H211266   1.405   3.231   3.360 -0.6784  1.1520  0.1654
 3754TIP3   OH211267   1.033   4.910   4.881  0.3013 -0.2210 -0.3595
 3754TIP3    H111268   1.016   4.820   4.854 -0.0150 -0.4715  0.6163
 3754TIP3    H211269   1.077   4.902   4.966 -0.6758  0.5455  0.2491
 3755TIP3   OH211270   2.178   2.409   0.665  0.2100  0.3672 -0.1404
 3755TIP3    H111271   2.258   2.370   0.630  0.7399  3.4311 -2.7238
 3755TIP3    H211272   2.114   2.337   0.662  2.0739 -1.3746 -0.7262
 3756TIP3   OH211273   0.282   1.901   0.965  0.7169  0.2264  0.6843
 3756TIP3    H111274   0.366   1.877   0.925  0.7274 -1.3585  1.5648
 3756TIP3    H211275   0.231   1.821   0.964 -0.0458  0.6614  1.9596
 3757TIP3   OH211276   4.979   5.858   2.983 -0.0771 -0.5389  0.1129
 3757TIP3    H111277   5.004   5.920   3.052 -0.4362 -0.4947  0.2047
 3757TIP3    H211278   4.953   5.779   3.031  1.2293 -1.0868 -0.0308
 3758TIP3   OH211279   3.937   2.120   4.899 -0.5371  0.0464 -0.0616
 3758TIP3    H111280   3.987   2.049   4.859  0.8954  0.8418  0.2740
 3758TIP3    H211281   3.981   2.200   4.872 -1.9767  0.8302 -0.2205
 3759TIP3   OH211282   3.094   5.387   4.194  0.2224 -0.1272  0.3174
 3759TIP3    H111283   3.031   5.447   4.156  0.1013  0.0113  0.7361
 3759TIP3    H211284   3.148   5.358   4.120 -0.0051  0.1472  0.0463
 3760TIP3   OH211285   5.206   1.233   1.156  1.0063  0.8834 -0.1615
 3760TIP3    H111286   5.162   1.309   1.195  0.5413  1.1655 -1.2048
 3760TIP3    H211287   5.136   1.171   1.139  1.2993  0.4916  0.0576
 3761TIP3   OH211288   4.526   3.058   2.202 -0.5704 -0.1503  0.2409
 3761TIP3    H111289   4.621   3.066   2.188 -0.3664  0.1628  1.6984
 3761TIP3    H211290   4.514   2.965   2.224 -0.4164  0.0492  1.2272
 3762TIP3   OH211291   0.646   3.113   0.258 -0.9956  0.1755  0.0010
 3762TIP3    H111292   0.648   3.209   0.263 -0.1477  0.1349  0.6285
 3762TIP3    H211293   0.559   3.090   0.291 -1.1022  0.7175  0.1205
 3763TIP3   OH211294   2.692   1.039   2.919 -0.1153  0.5904 -0.2021
 3763TIP3    H111295   2.748   1.109   2.953  1.4927 -0.6553 -0.1577
 3763TIP3    H211296   2.720   0.961   2.966 -1.0270 -0.3190 -1.1157
 3764TIP3   OH211297   1.837   1.205   0.568  0.0441 -0.1233  0.1447
 3764TIP3    H111298   1.928   1.216   0.539  0.5608 -2.0063  0.9043
 3764TIP3    H211299   1.838   1.231   0.660  0.2954 -1.9471  0.7003
 3765TIP3   OH211300   3.800   0.235   5.136 -0.3457 -0.5005  0.0160
 3765TIP3    H111301   3.741   0.230   5.061 -1.2869  2.4126  0.4157
 3765TIP3    H211302   3.755   0.185   5.205 -1.3415 -0.0767 -0.3004
 3766TIP3   OH211303   1.261   1.210   1.370 -0.0524 -0.1912 -0.2061
 3766TIP3    H111304   1.231   1.298   1.392 -2.4743 -1.4435  2.0837
 3766TIP3    H211305   1.210   1.153   1.427  2.7287 -2.9918 -0.2779
 3767TIP3   OH211306   2.061   3.970   1.092  0.4227  0.1425  1.1667
 3767TIP3    H111307   2.106   3.977   1.008  0.5640 -0.0271  1.2270
 3767TIP3    H211308   2.048   3.876   1.104 -0.7509  0.2281  0.7296
 3768TIP3   OH211309   1.235   4.797   0.418  0.3585 -0.0231  0.3244
 3768TIP3    H111310   1.227   4.842   0.334  1.7219  0.9281  0.6573
 3768TIP3    H211311   1.145   4.779   0.445 -0.1748 -3.2345 -2.7858
 3769TIP3   OH211312   2.120   3.329   1.895 -0.1012 -0.2357  0.0230
 3769TIP3    H111313   2.118   3.424   1.887 -0.1504 -0.3638 -2.2503
 3769TIP3    H211314   2.213   3.306   1.889 -0.0894 -0.3299  0.5622
 3770TIP3   OH211315   5.056   2.170   3.277  0.0398 -0.1596 -0.2404
 3770TIP3    H111316   5.121   2.110   3.313  0.7014  1.3887  1.2518
 3770TIP3    H211317   4.976   2.152   3.325  0.1711 -0.0373  0.0254
 3771TIP3   OH211318   1.802   1.306   3.940 -0.3505  0.2628  0.2616
 3771TIP3    H111319   1.848   1.278   3.861  0.3018 -0.5111  0.8900
 3771TIP3    H211320   1.768   1.225   3.978 -1.5163  0.7358  0.2615
 3772TIP3   OH211321   5.527   5.857   1.712  0.5671  0.1745 -0.4274
 3772TIP3    H111322   5.521   5.762   1.699  1.6625 -0.0882  0.8323
 3772TIP3    H211323   5.621   5.875   1.717  0.3553  0.9951  1.5307
 3773TIP3   OH211324   3.979   3.610   3.657 -0.3909 -0.2504 -0.6538
 3773TIP3    H111325   3.998   3.603   3.563 -2.3091  0.1942 -1.1037
 3773TIP3    H211326   3.923   3.535   3.676  0.2534 -0.5299  0.2445
 3774TIP3   OH211327   5.445   0.017   1.627  0.4230 -0.1748  0.3546
 3774TIP3    H111328   5.402  -0.043   1.688  0.6266 -0.7242 -0.0415
 3774TIP3    H211329   5.492   0.078   1.684 -1.8201  1.2199  0.8692
 3775TIP3   OH211330   1.000   3.322   0.981 -0.0714 -0.2343  0.2044
 3775TIP3    H111331   1.090   3.332   0.951  0.1713 -0.5946  0.7940
 3775TIP3    H211332   0.966   3.250   0.928 -0.2547  0.3860 -0.5391
 3776TIP3   OH211333   6.050   0.670   0.148 -0.1350  0.0604  0.0209
 3776TIP3    H111334   6.105   0.621   0.086  0.4115  1.7077 -0.8777
 3776TIP3    H211335   5.988   0.717   0.092 -0.4549  0.5890  0.8106
 3777TIP3   OH211336   0.773   2.457   0.021 -0.2560  0.4981 -0.4545
 3777TIP3    H111337   0.749   2.436   0.112  1.1230  0.3587 -0.0996
 3777TIP3    H211338   0.774   2.553   0.018 -3.3109  0.6151 -1.1917
 3778TIP3   OH211339   1.908   0.519   3.035 -0.2636 -0.1050  0.8398
 3778TIP3    H111340   1.876   0.609   3.026  0.3514  0.0343 -0.1421
 3778TIP3    H211341   2.003   0.528   3.043  0.0038 -0.7296 -1.0868
 3779TIP3   OH211342   0.927   5.165   2.314  0.0085 -0.4247  0.1722
 3779TIP3    H111343   0.980   5.207   2.381  2.0335 -1.0018 -0.9978
 3779TIP3    H211344   0.904   5.080   2.350 -0.2402 -0.1226  0.7349
 3780TIP3   OH211345   6.101   1.790   4.952 -0.7730  0.6563  0.0036
 3780TIP3    H111346   6.066   1.879   4.962 -0.5299  0.7931 -0.3469
 3780TIP3    H211347   6.024   1.736   4.936 -0.7750  1.0983 -1.7314
 3781TIP3   OH211348   0.616   1.539   3.687 -0.1750  0.0290  0.5242
 3781TIP3    H111349   0.658   1.566   3.605  0.3100  0.8754  1.0359
 3781TIP3    H211350   0.685   1.544   3.753 -0.7277  0.0455  1.1207
 3782TIP3   OH211351   2.471   0.082   4.757  0.3482  0.0475  0.1778
 3782TIP3    H111352   2.438   0.026   4.686  2.7161  0.2836 -1.2334
 3782TIP3    H211353   2.490   0.165   4.715 -0.0053  0.8471  1.5474
 3783TIP3   OH211354   5.510   1.620   1.792  0.3037 -0.8267  0.4076
 3783TIP3    H111355   5.493   1.582   1.707  1.0242  0.5436 -0.3901
 3783TIP3    H211356   5.605   1.621   1.799  0.2938  0.4269  0.5623
 3784TIP3   OH211357   2.037   5.423   4.760 -0.4904 -0.3731  0.0116
 3784TIP3    H111358   2.016   5.369   4.683 -2.8929 -0.4017  0.6078
 3784TIP3    H211359   2.115   5.382   4.797  0.2466 -0.8472 -1.9386
 3785TIP3   OH211360   5.143   4.476   1.644  0.0908  0.1743  0.1223
 3785TIP3    H111361   5.204   4.533   1.691  0.5961 -0.8543  0.7594
 3785TIP3    H211362   5.141   4.511   1.555 -0.1337  1.5784  0.6555
 3786TIP3   OH211363   2.323   0.919   4.266  0.5449 -0.8942 -0.0097
 3786TIP3    H111364   2.321   0.934   4.361 -0.3418 -1.8266  0.1352
 3786TIP3    H211365   2.257   0.980   4.231  1.0707 -0.3503 -0.0669
 3787TIP3   OH211366   3.869   2.113   0.072  0.3098  0.3756 -0.1319
 3787TIP3    H111367   3.940   2.056   0.100 -0.6165 -0.3975  0.7344
 3787TIP3    H211368   3.861   2.178   0.141  1.2399  1.4812 -1.0276
 3788TIP3   OH211369   4.642   4.403   2.264 -0.7370  0.1593  0.6572
 3788TIP3    H111370   4.599   4.488   2.259  0.5457  0.8859  1.3341
 3788TIP3    H211371   4.644   4.382   2.357  0.9701  0.5117  0.7412
 3789TIP3   OH211372   5.494   3.021   4.480 -0.0267 -0.5795 -0.6161
 3789TIP3    H111373   5.406   3.025   4.443 -0.0023  0.6277 -0.5611
 3789TIP3    H211374   5.479   3.017   4.575 -0.0114  0.3565 -0.5718
 3790TIP3   OH211375   4.234   4.156   4.447 -0.3601 -0.4795 -0.0391
 3790TIP3    H111376   4.291   4.080   4.459 -0.9899 -0.9366  0.1107
 3790TIP3    H211377   4.258   4.215   4.519  1.1681  0.1348 -1.0153
 3791TIP3   OH211378   4.470   3.664   4.990  0.2795 -0.3483  0.2300
 3791TIP3    H111379   4.455   3.656   4.896  0.1891 -0.3822  0.2474
 3791TIP3    H211380   4.455   3.575   5.024 -2.2865  0.1616  0.6576
 3792TIP3   OH211381   4.725   1.561   4.525 -0.1869 -0.2122  0.4949
 3792TIP3    H111382   4.691   1.651   4.521 -1.0038 -0.5620 -2.1931
 3792TIP3    H211383   4.688   1.525   4.606 -0.3677  1.6292  1.3032
 3793TIP3   OH211384   4.092   5.920   2.405 -0.2556  0.5475 -0.2426
 3793TIP3    H111385   4.158   5.971   2.453  1.0357 -0.7110 -0.5853
 3793TIP3    H211386   4.009   5.959   2.429  0.7111  3.4461 -1.2708
 3794TIP3   OH211387   1.029   5.552   2.325  0.1769  0.7472 -0.3533
 3794TIP3    H111388   1.108   5.577   2.276  0.6556  0.8417  0.4404
 3794TIP3    H211389   1.058   5.480   2.381 -0.2658  0.8660  0.0364
 3795TIP3   OH211390   5.936   5.536   2.156  0.6864 -0.6451  0.2596
 3795TIP3    H111391   5.877   5.477   2.203  0.7760 -1.1551 -0.2550
 3795TIP3    H211392   6.022   5.493   2.161  0.6146 -0.9188 -0.7228
 3796TIP3   OH211393   1.580   1.210   0.145  0.1799 -0.6476  0.3504
 3796TIP3    H111394   1.505   1.150   0.141 -0.2420 -0.0747 -0.8325
 3796TIP3    H211395   1.566   1.271   0.072  1.7817 -0.4943  0.1371
 3797TIP3   OH211396   3.387   2.926   1.299 -0.2816  0.3654 -0.2625
 3797TIP3    H111397   3.466   2.952   1.345 -0.8203  1.5386  0.0182
 3797TIP3    H211398   3.341   2.868   1.361 -0.4017  0.9419  0.1928
 3798TIP3   OH211399   3.274   5.296   2.185 -0.0059  0.3476  0.3076
 3798TIP3    H111400   3.341   5.233   2.213  1.3207  1.5317 -0.0485
 3798TIP3    H211401   3.225   5.251   2.116  2.7763  0.5916 -2.0409
 3799TIP3   OH211402   0.446   4.323   4.836  0.2674  0.2836  0.0224
 3799TIP3    H111403   0.355   4.312   4.862 -0.5351  0.6143 -2.3984
 3799TIP3    H211404   0.458   4.418   4.829  0.8995  0.2531  0.5433
 3800TIP3   OH211405   2.666   1.324   2.133 -0.2211 -0.0297  0.2546
 3800TIP3    H111406   2.643   1.279   2.214 -0.3837  0.2746  0.3776
 3800TIP3    H211407   2.636   1.266   2.063  0.0061 -0.3375  0.4096
 3801TIP3   OH211408   1.454   1.671   1.831  0.4689  0.0850  0.5658
 3801TIP3    H111409   1.537   1.717   1.846  0.5045  0.9727 -1.9274
 3801TIP3    H211410   1.475   1.579   1.843  1.2929  0.4248  2.0094
 3802TIP3   OH211411   2.418   5.000   0.433  0.5423  0.3293  0.3542
 3802TIP3    H111412   2.449   5.077   0.384 -1.8462  0.4088 -1.1830
 3802TIP3    H211413   2.365   5.037   0.503  1.0300  0.1080  0.8457
 3803TIP3   OH211414   3.277   1.577   3.786  0.4214 -0.3657 -0.2999
 3803TIP3    H111415   3.324   1.643   3.837  1.4286 -1.4180  0.1843
 3803TIP3    H211416   3.318   1.494   3.810  0.3273 -1.0016 -2.1529
 3804TIP3   OH211417   1.117   1.071   1.553 -0.6430  0.0834 -0.2020
 3804TIP3    H111418   1.146   1.029   1.634 -0.8556 -0.5143 -0.4319
 3804TIP3    H211419   1.037   1.117   1.577  0.3155  1.5518  0.3817
 3805TIP3   OH211420   0.854   4.181   4.166  0.1890  0.2717 -0.6371
 3805TIP3    H111421   0.900   4.192   4.083 -0.8371 -0.0440 -1.2680
 3805TIP3    H211422   0.858   4.087   4.184 -0.7928  0.1403 -1.0565
 3806TIP3   OH211423   0.459   1.915   2.854 -0.4257 -0.4065 -0.6152
 3806TIP3    H111424   0.467   1.963   2.771  0.8267 -0.5410 -0.5877
 3806TIP3    H211425   0.547   1.917   2.891 -1.0631  0.0427  0.9489
 3807TIP3   OH211426   3.557   2.299   2.159  0.5796  0.0488 -0.3386
 3807TIP3    H111427   3.608   2.218   2.161  0.3573 -0.0802  0.4551
 3807TIP3    H211428   3.621   2.367   2.136  0.6834 -0.3960 -1.4501
 3808TIP3   OH211429   5.747   2.223   3.007 -0.5254 -0.1413  0.0225
 3808TIP3    H111430   5.728   2.314   2.986 -0.0188  0.5072  2.0939
 3808TIP3    H211431   5.771   2.183   2.924 -0.0336  1.7966 -0.8146
 3809TIP3   OH211432   4.916   1.499   4.727 -0.1179 -0.4608 -1.0578
 3809TIP3    H111433   4.889   1.496   4.635 -0.1184 -3.1222 -1.0389
 3809TIP3    H211434   4.854   1.559   4.768 -1.1527 -0.5046 -2.4668
 3810TIP3   OH211435   5.899   3.943   0.807 -0.3455 -0.1511 -0.2090
 3810TIP3    H111436   5.877   4.016   0.866  1.7923  0.1036  0.3644
 3810TIP3    H211437   5.910   3.985   0.721 -1.8634 -0.2762 -0.4984
 3811TIP3   OH211438   1.919   1.514   0.082 -0.4043 -0.5684  0.4886
 3811TIP3    H111439   1.875   1.579   0.137  0.4335  0.1139  0.3808
 3811TIP3    H211440   1.917   1.551  -0.006 -1.8570 -1.7208  0.0121
 3812TIP3   OH211441   4.017   5.075   4.375 -0.3866 -0.1459 -0.3382
 3812TIP3    H111442   4.019   5.144   4.441 -1.1141 -0.5620  0.1357
 3812TIP3    H211443   4.063   5.001   4.416  0.8413  0.2004 -1.0337
 3813TIP3   OH211444   2.498   5.463   3.974 -0.0705  0.4635 -0.3517
 3813TIP3    H111445   2.503   5.536   3.912  2.7208 -0.3461 -1.2290
 3813TIP3    H211446   2.513   5.386   3.920  0.7949 -0.4111  1.0943
 3814TIP3   OH211447   3.145   2.596   3.115  0.6074 -0.4442  0.7518
 3814TIP3    H111448   3.101   2.523   3.073  2.9015 -0.9733 -0.9660
 3814TIP3    H211449   3.075   2.653   3.146 -1.2247 -1.8795 -0.5740
 3815TIP3   OH211450   6.324   0.724   2.577 -0.0327  0.2437  0.4893
 3815TIP3    H111451   6.376   0.666   2.633  0.4375  0.4894  0.3128
 3815TIP3    H211452   6.321   0.807   2.624 -2.1238 -0.3610  1.5602
 3816TIP3   OH211453   6.068   4.996   0.993  0.2369 -0.0229 -0.4541
 3816TIP3    H111454   6.049   4.904   0.976  0.2224 -0.5150  1.9313
 3816TIP3    H211455   6.062   5.038   0.907 -2.1984 -1.7974 -1.2439
 3817TIP3   OH211456   4.876   0.758   0.730 -0.5911 -0.3497  0.2942
 3817TIP3    H111457   4.842   0.752   0.819 -1.2151 -0.1604  0.0704
 3817TIP3    H211458   4.931   0.680   0.720  1.2607  0.7051  1.5690
 3818TIP3   OH211459   5.035   4.929   0.764  0.2674 -0.0173  0.4779
 3818TIP3    H111460   5.007   5.006   0.813 -2.5763 -0.0390 -0.9601
 3818TIP3    H211461   4.962   4.868   0.771  1.2728 -1.4551 -0.8131
 3819TIP3   OH211462   4.489   2.327   1.046 -0.6942 -0.1633 -0.5039
 3819TIP3    H111463   4.449   2.254   0.999 -3.3245  1.4238 -0.9643
 3819TIP3    H211464   4.472   2.403   0.990  0.6826  1.0395  0.6268
 3820TIP3   OH211465   1.066   1.149   3.661 -0.1140 -0.6540 -0.3959
 3820TIP3    H111466   1.110   1.094   3.597  0.3519 -2.3494  1.2770
 3820TIP3    H211467   1.134   1.171   3.725 -0.6449  0.6533 -0.2491
 3821TIP3   OH211468   4.067   4.291   3.745  0.3329  0.3804 -0.3077
 3821TIP3    H111469   4.055   4.288   3.840  0.0697  0.8173 -0.3264
 3821TIP3    H211470   4.085   4.383   3.725 -1.7719  0.7083 -0.9292
 3822TIP3   OH211471   5.003   2.569   4.374  0.3874  0.3483 -0.0823
 3822TIP3    H111472   5.026   2.651   4.330 -2.4005  0.6707 -1.1852
 3822TIP3    H211473   5.075   2.510   4.354  1.6667  2.0242 -0.6945
 3823TIP3   OH211474   5.713   1.456   5.037  0.0089  0.2164  0.2325
 3823TIP3    H111475   5.664   1.515   5.095  1.7309 -0.2155  2.2373
 3823TIP3    H211476   5.654   1.382   5.023 -0.8674  0.8390  0.5224
 3824TIP3   OH211477   4.333   0.564   2.257  0.2213 -0.4967 -0.3956
 3824TIP3    H111478   4.302   0.539   2.170  1.4043 -0.1706 -0.9290
 3824TIP3    H211479   4.255   0.597   2.302 -0.0997  0.9839 -1.9499
 3825TIP3   OH211480   3.553   4.709   0.010  0.4584  0.2159  0.3233
 3825TIP3    H111481   3.478   4.742   0.060  0.4846  0.8570 -0.0387
 3825TIP3    H211482   3.558   4.616   0.032  0.3738  0.4501  1.3787
 3826TIP3   OH211483   0.686   3.958   1.863 -0.2130  0.4920 -0.9515
 3826TIP3    H111484   0.662   4.050   1.855  1.4102  1.0114 -0.2307
 3826TIP3    H211485   0.733   3.939   1.782 -0.3970  0.3478 -1.0238
 3827TIP3   OH211486   0.999   4.613   4.776 -0.3974 -0.3258  0.2899
 3827TIP3    H111487   0.990   4.624   4.681 -0.7009 -1.1368  0.2227
 3827TIP3    H211488   0.966   4.525   4.794  0.6251 -0.5826  1.0131
 3828TIP3   OH211489   4.843   5.282   2.347 -0.2448 -0.1392  0.2807
 3828TIP3    H111490   4.839   5.200   2.298 -0.2030 -0.4652  0.8133
 3828TIP3    H211491   4.935   5.290   2.372 -0.2947 -0.0484  0.4328
 3829TIP3   OH211492   0.839   0.495   0.308  0.4483 -0.1724  0.2548
 3829TIP3    H111493   0.915   0.553   0.297  1.1807 -1.0075  0.7221
 3829TIP3    H211494   0.779   0.546   0.363  1.5467 -0.2265  1.5891
 3830TIP3   OH211495   2.689   1.247   4.296  0.2502  0.1086  0.1196
 3830TIP3    H111496   2.699   1.175   4.359  1.5307 -1.6308 -1.9039
 3830TIP3    H211497   2.727   1.212   4.215  0.1797  2.8234 -1.1755
 3831TIP3   OH211498   4.829   0.080   2.947  0.2241 -0.2711 -0.3619
 3831TIP3    H111499   4.851   0.084   3.040 -0.4110  1.0157 -0.2496
 3831TIP3    H211500   4.889   0.014   2.911  1.8748  0.6469  0.5824
 3832TIP3   OH211501   1.522   2.961   0.989  0.1004  0.4571  0.2269
 3832TIP3    H111502   1.558   2.973   0.902 -0.6338 -1.6565 -0.4221
 3832TIP3    H211503   1.430   2.989   0.981 -0.8857 -2.6134 -0.6178
 3833TIP3   OH211504   2.472   1.687   2.854 -0.3036 -0.2228 -0.1856
 3833TIP3    H111505   2.516   1.700   2.939 -1.4434  0.0934  0.3764
 3833TIP3    H211506   2.512   1.608   2.818  1.9478  0.9570 -0.5061
 3834TIP3   OH211507   2.371   2.850   1.941 -0.1730  0.1005 -0.5334
 3834TIP3    H111508   2.277   2.832   1.944 -0.5602  2.0911  0.5438
 3834TIP3    H211509   2.408   2.791   2.007 -0.7616 -0.0997 -0.3716
 3835TIP3   OH211510   0.027   3.267   0.639  0.3738 -0.4249  0.2911
 3835TIP3    H111511   0.119   3.242   0.643  0.3168 -0.5587  0.7868
 3835TIP3    H211512  -0.020   3.184   0.630  0.3016 -0.3522 -0.0351
 3836TIP3   OH211513   2.596   4.429   3.529 -0.3172  0.0783 -0.4371
 3836TIP3    H111514   2.673   4.393   3.573 -1.6595 -0.6393  1.4365
 3836TIP3    H211515   2.599   4.523   3.548 -0.2346 -0.0396  0.1281
 3837TIP3   OH211516   4.072   1.550   3.226 -0.0025 -0.1540  1.0057
 3837TIP3    H111517   4.064   1.625   3.284 -0.8018  1.2346 -0.8074
 3837TIP3    H211518   4.142   1.574   3.165 -1.2193 -0.2286 -0.4745
 3838TIP3   OH211519   3.631   3.899   3.047 -0.1157 -0.3416 -0.3538
 3838TIP3    H111520   3.565   3.962   3.075 -0.2272 -0.7264  0.2626
 3838TIP3    H211521   3.598   3.865   2.964 -0.0672  0.3868 -0.6837
 3839TIP3   OH211522   0.078   0.341   0.072  0.4542 -0.3975 -0.4556
 3839TIP3    H111523   0.025   0.273   0.114  0.7879 -1.0534 -1.0688
 3839TIP3    H211524   0.169   0.312   0.087  0.6079  0.1006 -0.4169
 3840TIP3   OH211525   4.234   2.969   4.354  0.2727 -0.2450 -0.2388
 3840TIP3    H111526   4.242   2.990   4.261 -1.5408 -1.1618 -0.6288
 3840TIP3    H211527   4.289   3.035   4.398  1.5476 -0.0904 -1.9530
 3841TIP3   OH211528   5.740   0.755   1.178  0.0343  0.2697  0.2116
 3841TIP3    H111529   5.669   0.811   1.208  0.2191  0.6022  0.0317
 3841TIP3    H211530   5.740   0.766   1.082  0.2030  0.1209  0.1934
 3842TIP3   OH211531   2.930   5.923   3.164  0.5681  0.0725 -0.2469
 3842TIP3    H111532   2.913   5.867   3.088 -0.7585  2.4188 -1.8044
 3842TIP3    H211533   2.991   5.989   3.131  2.8742 -0.8516  1.8177
 3843TIP3   OH211534   3.413   1.014   1.331 -0.5001  0.4035  0.1130
 3843TIP3    H111535   3.446   1.078   1.395 -3.5631 -0.7911  3.2234
 3843TIP3    H211536   3.343   1.060   1.285 -0.9407  0.0798  0.4588
 3844TIP3   OH211537   4.426   1.543   2.290 -0.3107 -0.2945  0.5960
 3844TIP3    H111538   4.450   1.451   2.279 -2.1233 -0.9303  1.5496
 3844TIP3    H211539   4.505   1.584   2.325  0.7771 -1.3012 -0.5568
 3845TIP3   OH211540   5.301   0.364   3.367 -0.2195  0.4343 -0.0346
 3845TIP3    H111541   5.251   0.438   3.401 -0.7411 -0.6239  1.6345
 3845TIP3    H211542   5.389   0.376   3.400 -0.8473 -0.8729  2.3192
 3846TIP3   OH211543   1.242   2.676   4.625  0.3560 -0.0990  0.0982
 3846TIP3    H111544   1.178   2.610   4.600  1.3563 -1.6470  1.4446
 3846TIP3    H211545   1.193   2.758   4.623 -1.3642 -1.0700 -0.0322
 3847TIP3   OH211546   2.107   0.519   4.303  0.1928 -0.4542  0.6209
 3847TIP3    H111547   2.075   0.558   4.221 -0.6333 -0.6088  0.8607
 3847TIP3    H211548   2.033   0.528   4.363 -0.6279 -3.7785  0.2605
 3848TIP3   OH211549   4.920   0.379   3.612 -0.3348 -1.1698  0.1640
 3848TIP3    H111550   4.927   0.467   3.650 -0.7873 -1.0622  0.0015
 3848TIP3    H211551   5.010   0.352   3.597 -0.2136 -0.3220 -0.7272
 3849TIP3   OH211552   5.216   2.226   0.396  0.4612  0.0396 -0.3020
 3849TIP3    H111553   5.235   2.133   0.395  1.4513  0.2124  1.0752
 3849TIP3    H211554   5.122   2.231   0.375 -0.1119 -1.4160  1.6118
 3850TIP3   OH211555   0.959   3.011   1.191 -0.0526 -0.3628 -0.3041
 3850TIP3    H111556   1.003   3.093   1.212 -2.0698  0.4939  0.8939
 3850TIP3    H211557   0.982   2.952   1.262 -0.5246 -0.0352  0.1276
 3851TIP3   OH211558   4.405   3.672   1.521  0.4297 -0.7678 -0.1913
 3851TIP3    H111559   4.393   3.577   1.524  0.2887 -0.7336  0.3654
 3851TIP3    H211560   4.499   3.685   1.534  0.2334 -0.7616  1.3729
 3852TIP3   OH211561   0.452   2.067   2.536 -0.4284  0.0054 -0.2524
 3852TIP3    H111562   0.413   2.137   2.484  1.6649 -0.8161 -3.2580
 3852TIP3    H211563   0.544   2.091   2.543 -0.2196 -1.0754  1.1886
 3853TIP3   OH211564   3.770   2.477   2.836  0.2534  0.6414  0.2234
 3853TIP3    H111565   3.801   2.562   2.804 -0.4516  0.5511 -0.7251
 3853TIP3    H211566   3.844   2.442   2.886  0.7262  1.5886  0.2123
 3854TIP3   OH211567   0.319   4.557   3.908  0.2082  0.0485  0.2918
 3854TIP3    H111568   0.378   4.490   3.941  0.6963 -0.8007 -2.0547
 3854TIP3    H211569   0.347   4.570   3.817 -1.7647  1.3104 -0.1981
 3855TIP3   OH211570   1.564   2.208   4.930 -0.4374 -0.2225 -0.1626
 3855TIP3    H111571   1.533   2.120   4.952 -1.4650  0.2179  0.2223
 3855TIP3    H211572   1.656   2.196   4.905 -0.4206 -1.3317  0.3760
 3856TIP3   OH211573   5.107   3.141   1.111  0.2437  0.2649 -0.5511
 3856TIP3    H111574   5.176   3.119   1.048 -0.3985  0.8989 -1.4858
 3856TIP3    H211575   5.025   3.120   1.066 -0.2075 -0.0859  0.3960
 3857TIP3   OH211576   5.576   2.848   4.838 -0.4438 -0.3233  0.5607
 3857TIP3    H111577   5.581   2.753   4.826 -1.7721 -0.2449 -0.8609
 3857TIP3    H211578   5.663   2.880   4.815  0.3095 -1.2531  1.9544
 3858TIP3   OH211579   2.274   3.809   3.863  0.0893  0.7410  0.1265
 3858TIP3    H111580   2.236   3.808   3.951  0.1292 -2.5401  0.2288
 3858TIP3    H211581   2.364   3.841   3.876 -0.1704  1.1134  1.1244
 3859TIP3   OH211582   2.710   3.562   3.445 -0.3364 -0.3736 -1.0106
 3859TIP3    H111583   2.670   3.590   3.363 -0.5536 -1.8803 -1.4512
 3859TIP3    H211584   2.801   3.593   3.439 -0.6750  0.6054 -1.2516
 3860TIP3   OH211585   3.546   0.741   0.267 -0.3596  0.4515  0.3077
 3860TIP3    H111586   3.631   0.773   0.237  0.1080 -1.8610 -1.0337
 3860TIP3    H211587   3.560   0.718   0.358  0.7952 -0.8984 -0.1809
 3861TIP3   OH211588   2.833   1.175   4.031  0.5485 -0.2622 -0.4062
 3861TIP3    H111589   2.920   1.162   4.068 -0.1547 -0.3214  1.3364
 3861TIP3    H211590   2.842   1.250   3.973  1.3455  1.0298  1.3045
 3862TIP3   OH211591   5.661   3.874   4.118 -0.3230 -0.2720 -0.3657
 3862TIP3    H111592   5.662   3.778   4.118 -2.0342 -0.3191 -0.0277
 3862TIP3    H211593   5.587   3.897   4.062 -1.4369  0.7782  1.4535
 3863TIP3   OH211594   5.420   5.270   2.676 -0.4520  0.6100 -0.3325
 3863TIP3    H111595   5.354   5.202   2.687  0.9257 -0.9966 -1.4642
 3863TIP3    H211596   5.417   5.291   2.582 -0.1188  1.3656 -0.1856
 3864TIP3   OH211597   1.541   3.970   0.439 -0.2203 -0.2855 -0.2624
 3864TIP3    H111598   1.587   3.906   0.384 -0.2772  0.4651 -1.2288
 3864TIP3    H211599   1.584   4.053   0.418 -0.4957  0.0722  0.5701
 3865TIP3   OH211600   4.762   1.492   1.504  0.3773 -0.4259 -0.3941
 3865TIP3    H111601   4.748   1.505   1.410  0.8718 -0.7206 -0.5103
 3865TIP3    H211602   4.675   1.471   1.538  0.3366 -1.1590 -0.9262
 3866TIP3   OH211603   0.479   4.370   3.711  1.0189  0.3807 -0.1359
 3866TIP3    H111604   0.563   4.410   3.731  2.8898 -2.1404 -2.2904
 3866TIP3    H211605   0.469   4.379   3.617  0.3482 -1.9382 -0.3540
 3867TIP3   OH211606   0.616   1.071   3.069 -0.3449 -0.1750  0.2025
 3867TIP3    H111607   0.576   1.109   3.147  0.9092  1.0292  0.2910
 3867TIP3    H211608   0.702   1.041   3.098  0.3166  0.6999 -0.8023
 3868TIP3   OH211609   2.264   4.276   4.474  0.5665 -0.5452 -0.2016
 3868TIP3    H111610   2.281   4.368   4.493 -1.4091 -0.0007 -0.8714
 3868TIP3    H211611   2.179   4.275   4.431 -0.7583 -2.9194  2.1535
 3869TIP3   OH211612   4.114   2.398   2.753 -0.1752 -0.1324 -0.4947
 3869TIP3    H111613   4.103   2.437   2.666 -1.6164 -1.0902 -0.7760
 3869TIP3    H211614   4.120   2.473   2.812 -2.4134  0.5781 -1.0776
 3870TIP3   OH211615   1.648   0.757   1.028  0.1310  0.1031 -0.4366
 3870TIP3    H111616   1.713   0.711   1.081 -1.1727 -1.3029  0.0002
 3870TIP3    H211617   1.651   0.714   0.942 -0.8219 -0.5841 -0.1428
 3871TIP3   OH211618   4.720   5.899   0.987  0.5194 -0.6452  0.1303
 3871TIP3    H111619   4.768   5.853   1.056  0.1567 -3.5556 -1.3528
 3871TIP3    H211620   4.628   5.879   1.005  0.3519 -0.5679 -0.6105
 3872TIP3   OH211621   1.515   5.894   3.350  0.8515  0.1444  0.1181
 3872TIP3    H111622   1.508   5.808   3.393 -0.8119  0.3461  0.2851
 3872TIP3    H211623   1.489   5.877   3.259  0.3535  0.4994  0.1925
 3873TIP3   OH211624   5.723   3.370   4.632  0.0804  0.2412  0.2507
 3873TIP3    H111625   5.660   3.301   4.653 -0.1165  0.7718  1.4925
 3873TIP3    H211626   5.765   3.390   4.715  0.3951  1.3669 -0.1564
 3874TIP3   OH211627   5.546   2.529   1.453  0.5896  0.0121 -0.1380
 3874TIP3    H111628   5.584   2.444   1.473  0.2789 -0.0785  0.0764
 3874TIP3    H211629   5.470   2.536   1.511  0.5271  0.3708 -0.2582
 3875TIP3   OH211630   4.346   1.358   2.090 -0.4345  0.1000 -0.8167
 3875TIP3    H111631   4.393   1.434   2.054 -1.7922  0.3559 -2.1626
 3875TIP3    H211632   4.254   1.385   2.090 -0.9118 -1.4426 -1.0681
 3876TIP3   OH211633   0.097   0.215   5.182  0.0939  0.2381 -0.2750
 3876TIP3    H111634   0.062   0.274   5.115  0.2982  0.8323  0.1281
 3876TIP3    H211635   0.088   0.127   5.145 -0.4557  0.5033 -0.7792
 3877TIP3   OH211636   1.207   5.884   4.110  0.3765 -0.2106  0.0057
 3877TIP3    H111637   1.269   5.953   4.133  0.5450 -0.2967 -0.1853
 3877TIP3    H211638   1.244   5.804   4.146 -0.0448 -0.1386  0.6205
 3878TIP3   OH211639   1.449   3.683   0.308  0.8386 -0.0119  0.4919
 3878TIP3    H111640   1.540   3.703   0.285  1.1914  0.3627  2.0808
 3878TIP3    H211641   1.453   3.659   0.401 -0.8341  1.0118  0.8628
 3879TIP3   OH211642   3.752   0.677   1.924  0.1947  0.4270  0.0586
 3879TIP3    H111643   3.716   0.597   1.885  1.3859  0.3124 -0.8718
 3879TIP3    H211644   3.763   0.655   2.017  0.8170 -0.6395 -0.2404
 3880TIP3   OH211645   5.680   0.892   2.406 -0.4202 -0.2864 -0.4410
 3880TIP3    H111646   5.643   0.974   2.375 -0.3172 -0.6371 -1.5484
 3880TIP3    H211647   5.625   0.867   2.480 -0.3881  0.8216 -0.0277
 3881TIP3   OH211648   4.843   3.004   2.635  0.2544  0.5216 -0.5040
 3881TIP3    H111649   4.888   3.076   2.677  1.1343 -0.2696 -0.0446
 3881TIP3    H211650   4.902   2.976   2.565  0.3275 -0.2855 -0.1369
 3882TIP3   OH211651   6.200   2.813   4.142 -0.0117  0.6264 -0.0252
 3882TIP3    H111652   6.260   2.857   4.082  0.0727  1.0354  0.3453
 3882TIP3    H211653   6.241   2.728   4.160 -0.6688 -0.0400 -1.5271
 3883TIP3   OH211654   5.136   0.299   2.119 -0.3019 -0.0591  0.5920
 3883TIP3    H111655   5.070   0.273   2.054 -0.0117 -1.2297  0.7586
 3883TIP3    H211656   5.173   0.380   2.083 -0.0921 -0.7304 -0.7524
 3884TIP3   OH211657   0.062   1.504   5.038 -0.1676  0.1962 -0.2383
 3884TIP3    H111658   0.124   1.468   4.974  0.6417  0.5605  0.3341
 3884TIP3    H211659  -0.023   1.466   5.012  0.2219 -0.0308 -1.2409
 3885TIP3   OH211660   2.414   3.489   1.689  0.2841  0.4339 -0.0332
 3885TIP3    H111661   2.452   3.575   1.669  1.9883 -0.0319  0.9411
 3885TIP3    H211662   2.412   3.486   1.785  0.8853 -0.8464 -0.0353
 3886TIP3   OH211663   1.391   0.968   1.525 -0.0506 -0.6838 -0.2467
 3886TIP3    H111664   1.361   0.943   1.613 -0.2959 -1.3090 -0.4989
 3886TIP3    H211665   1.337   1.043   1.501 -0.1898 -0.6974  0.0221
 3887TIP3   OH211666   2.266   2.041   2.214 -0.0746 -0.2508  0.0535
 3887TIP3    H111667   2.302   2.102   2.278  0.2379  0.8879 -1.1528
 3887TIP3    H211668   2.337   2.027   2.151 -0.6120 -0.7353 -0.4651
 3888TIP3   OH211669   2.061   1.831   4.759 -0.1433 -0.3106 -0.4477
 3888TIP3    H111670   2.054   1.775   4.836 -0.1542  0.1363 -0.1163
 3888TIP3    H211671   2.139   1.885   4.776  0.0470 -0.4355 -0.9010
 3889TIP3   OH211672   1.459   5.304   3.546  0.0041 -0.6416 -0.5617
 3889TIP3    H111673   1.529   5.369   3.543 -1.7156  1.3030 -1.0691
 3889TIP3    H211674   1.478   5.251   3.623  1.8210  0.0205 -0.5060
 3890TIP3   OH211675   1.732   0.949   0.459 -0.1175  0.3897 -0.2021
 3890TIP3    H111676   1.768   1.034   0.486  1.3442 -0.1862 -0.2559
 3890TIP3    H211677   1.732   0.952   0.364 -2.6217  1.3306 -0.2450
 3891TIP3   OH211678   2.462   3.892   0.262 -0.5431  0.2098  0.0414
 3891TIP3    H111679   2.415   3.969   0.230 -1.6238 -1.0433 -1.5956
 3891TIP3    H211680   2.405   3.857   0.331 -0.5134  0.3564  0.1413
 3892TIP3   OH211681   5.105   3.490   3.245 -0.1733  0.4452 -0.0811
 3892TIP3    H111682   5.013   3.479   3.269 -0.7212  0.1504 -2.0762
 3892TIP3    H211683   5.142   3.402   3.254  0.4307  0.8815  2.4275
 3893TIP3   OH211684   6.162   1.652   1.229 -0.2254  0.1490  0.6023
 3893TIP3    H111685   6.147   1.724   1.168  2.4462 -0.0937 -0.4926
 3893TIP3    H211686   6.184   1.695   1.311  1.3762  0.6435 -0.0496
 3894TIP3   OH211687   3.184   5.202   1.028  0.3932 -0.2869  0.0023
 3894TIP3    H111688   3.219   5.119   1.063 -0.3881 -0.3048  0.7662
 3894TIP3    H211689   3.091   5.198   1.047  0.3304  0.7298 -0.0610
 3895TIP3   OH211690   2.561   1.579   0.570 -0.0955 -0.6970 -0.4416
 3895TIP3    H111691   2.608   1.661   0.557 -0.2149 -0.2336  1.6614
 3895TIP3    H211692   2.607   1.516   0.514  0.8102  0.4946 -1.0959
 3896TIP3   OH211693   4.226   1.582   2.471  0.0371 -0.2867  0.2366
 3896TIP3    H111694   4.288   1.562   2.400 -0.3145 -1.4421  0.2271
 3896TIP3    H211695   4.157   1.516   2.461 -0.0965 -0.3703  1.5574
 3897TIP3   OH211696   0.833   1.543   5.039  0.2014 -1.0634 -0.3205
 3897TIP3    H111697   0.774   1.595   5.094 -0.4079 -1.7283 -0.3389
 3897TIP3    H211698   0.821   1.579   4.951 -0.1985 -1.2143 -0.3291
 3898TIP3   OH211699   5.222   2.442   4.590 -0.1989 -0.5675 -0.1460
 3898TIP3    H111700   5.208   2.536   4.603  1.1056 -0.2865 -0.7308
 3898TIP3    H211701   5.286   2.436   4.519  1.9619 -1.8007  1.7793
 3899TIP3   OH211702   0.845   2.456   3.116 -0.0567 -0.5100 -0.5874
 3899TIP3    H111703   0.935   2.469   3.087  0.2354 -1.2565 -0.0358
 3899TIP3    H211704   0.792   2.470   3.037  0.5367 -0.1346 -0.9297
 3900TIP3   OH211705   0.444   2.772   2.683  0.5397  0.2822 -0.5809
 3900TIP3    H111706   0.403   2.785   2.597 -0.2532 -0.5012 -0.3418
 3900TIP3    H211707   0.459   2.860   2.716 -1.8921  0.6679 -0.2606
 3901TIP3   OH211708   5.334   2.248   1.457 -0.7106  0.1203 -0.0209
 3901TIP3    H111709   5.338   2.344   1.459  2.1142  0.1297 -1.1294
 3901TIP3    H211710   5.401   2.220   1.519 -0.1866 -1.0683 -1.0671
 3902TIP3   OH211711   3.097   1.052   5.054  0.4791  0.6890  0.7678
 3902TIP3    H111712   3.095   1.044   4.958 -0.7747  0.0726  0.8268
 3902TIP3    H211713   3.153   1.128   5.070  0.0980  1.2742 -0.4977
 3903TIP3   OH211714   2.412   0.863   4.861  0.3767  0.4646  0.5092
 3903TIP3    H111715   2.331   0.901   4.828  0.2973  0.3814  0.6076
 3903TIP3    H211716   2.386   0.815   4.939 -0.1570 -2.6087 -1.3683
 3904TIP3   OH211717   1.398   2.996   3.734 -0.0273 -0.3730  0.1724
 3904TIP3    H111718   1.420   3.065   3.671  0.1417 -0.9838 -0.4433
 3904TIP3    H211719   1.350   3.042   3.804  0.8516  0.5241  0.2139
 3905TIP3   OH211720   3.319   2.541   0.305  0.4397 -0.2033  0.6433
 3905TIP3    H111721   3.231   2.560   0.338  0.0816 -1.0321  0.2182
 3905TIP3    H211722   3.374   2.538   0.383  0.0142 -0.0447  0.9536
 3906TIP3   OH211723   4.412   5.227   1.259 -0.1938  0.0299 -0.3835
 3906TIP3    H111724   4.493   5.256   1.218  0.4678  0.5363  1.2029
 3906TIP3    H211725   4.375   5.306   1.298 -0.6849 -0.4610  0.1661
 3907TIP3   OH211726   2.111   4.797   4.340 -0.0363 -0.0887  0.3199
 3907TIP3    H111727   2.099   4.891   4.349  1.0042  0.1135 -0.2956
 3907TIP3    H211728   2.158   4.786   4.257 -1.1228 -1.2314 -0.1637
 3908TIP3   OH211729   0.928   2.975   0.607 -0.1670 -0.0977 -0.1829
 3908TIP3    H111730   1.009   3.025   0.618  0.2135 -0.9206  0.8575
 3908TIP3    H211731   0.937   2.901   0.666 -1.9210  0.0759  0.3416
 3909TIP3   OH211732   3.746   4.863   0.352  0.8832 -0.2056 -0.0678
 3909TIP3    H111733   3.678   4.835   0.414 -0.7317 -0.0829 -1.7025
 3909TIP3    H211734   3.799   4.926   0.401 -2.3811  2.5540  0.2866
 3910TIP3   OH211735   3.791   4.293   2.938 -0.4103 -0.1045 -0.3506
 3910TIP3    H111736   3.745   4.319   3.017 -0.8016 -0.2460 -0.5285
 3910TIP3    H211737   3.742   4.218   2.905 -0.1077 -0.2000 -0.5938
 3911TIP3   OH211738   5.064   2.241   1.361  0.4796 -0.3230  0.3233
 3911TIP3    H111739   5.043   2.333   1.378  0.4956 -0.8585  3.8268
 3911TIP3    H211740   5.150   2.228   1.400  0.8985 -1.6409 -0.9538
 3912TIP3   OH211741   3.822   2.603   4.224 -0.5599 -0.3843 -0.6586
 3912TIP3    H111742   3.886   2.550   4.271 -0.2994  1.0077  0.6368
 3912TIP3    H211743   3.793   2.547   4.151  0.5752 -1.8121 -0.0635
 3913TIP3   OH211744   0.267   1.415   0.380 -0.2711 -0.2817 -0.4206
 3913TIP3    H111745   0.300   1.357   0.450  0.0343  1.4344  0.9262
 3913TIP3    H211746   0.242   1.355   0.310  1.1663 -1.9726  0.4183
 3914TIP3   OH211747   5.031   1.561   1.489  0.3560  0.2491 -0.6696
 3914TIP3    H111748   5.011   1.652   1.465 -0.2385  0.9717  2.1356
 3914TIP3    H211749   4.946   1.524   1.513  0.6067 -1.0579 -1.7236
 3915TIP3   OH211750   4.604   2.964   2.839 -0.5214  0.0624 -0.2689
 3915TIP3    H111751   4.674   2.971   2.775 -0.2747  0.6806  0.0603
 3915TIP3    H211752   4.648   2.976   2.924 -0.9369 -0.1231 -0.0210
 3916TIP3   OH211753   4.267   2.730   2.571 -0.3870  0.5418  0.5522
 3916TIP3    H111754   4.285   2.822   2.549 -1.1234  0.7759  0.9029
 3916TIP3    H211755   4.300   2.720   2.660  0.5975  0.1867  0.1621
 3917TIP3   OH211756   4.942   1.818   2.819  1.1775 -0.0038 -0.1805
 3917TIP3    H111757   4.875   1.774   2.870 -0.0644 -1.5589 -2.8877
 3917TIP3    H211758   5.023   1.804   2.868  0.6212 -4.2212 -0.0852
 3918TIP3   OH211759   4.496   5.733   1.764 -0.2153  0.4503 -0.3101
 3918TIP3    H111760   4.445   5.720   1.685 -0.3821  0.2864 -0.1754
 3918TIP3    H211761   4.578   5.772   1.733  0.8629 -2.0905 -0.8970
 3919TIP3   OH211762   1.882   4.682   3.549  0.5188 -0.2135 -0.6700
 3919TIP3    H111763   1.872   4.620   3.622  0.8129  0.8406  0.2905
 3919TIP3    H211764   1.795   4.719   3.537  0.0253 -1.7409 -2.1356
 3920TIP3   OH211765   3.312   0.363   3.122 -0.1140 -0.9680 -0.9173
 3920TIP3    H111766   3.345   0.452   3.107  1.7422 -1.5027 -0.2659
 3920TIP3    H211767   3.223   0.364   3.086  0.1728  0.9025 -1.6828
 3921TIP3   OH211768   5.201   0.192   4.524  0.5960  0.5108  1.0946
 3921TIP3    H111769   5.295   0.177   4.517  0.1867 -2.8309  1.0749
 3921TIP3    H211770   5.173   0.136   4.597 -1.3106  1.9824  1.5858
 3922TIP3   OH211771   5.976   5.551   2.835  0.2023 -0.1008 -0.1408
 3922TIP3    H111772   5.937   5.538   2.921  0.4299 -2.2918 -0.3129
 3922TIP3    H211773   5.924   5.621   2.796 -1.6980 -0.9390  0.7446
 3923TIP3   OH211774   2.148   0.221   0.016  0.1109 -0.0376 -0.2200
 3923TIP3    H111775   2.066   0.195   0.057 -0.8156 -1.9305 -2.9745
 3923TIP3    H211776   2.208   0.148   0.034  0.1649 -0.1697 -0.9222
 3924TIP3   OH211777   2.814   5.706   3.947  0.1888 -0.0441 -0.6803
 3924TIP3    H111778   2.741   5.761   3.917  0.4496  0.4153 -0.4871
 3924TIP3    H211779   2.815   5.633   3.886 -0.5379 -0.1410 -0.5832
 3925TIP3   OH211780   5.719   3.292   0.269 -0.0180 -0.1580  0.0057
 3925TIP3    H111781   5.649   3.306   0.206 -1.9263 -1.9346  1.5681
 3925TIP3    H211782   5.705   3.202   0.300  1.0407  0.4938  2.6417
 3926TIP3   OH211783   2.177   5.551   0.684  0.3133  0.2000 -0.0299
 3926TIP3    H111784   2.141   5.516   0.765 -2.6323 -0.7961 -1.6218
 3926TIP3    H211785   2.172   5.646   0.694 -2.1006  0.1131  0.2111
 3927TIP3   OH211786   5.835   3.678   0.914  0.1612 -0.1356 -0.1475
 3927TIP3    H111787   5.758   3.702   0.966 -0.2983  0.2607 -0.9839
 3927TIP3    H211788   5.846   3.751   0.853 -0.1654 -1.1938 -1.5327
 3928TIP3   OH211789   2.849   1.021   0.360 -0.0284  0.2066 -0.0680
 3928TIP3    H111790   2.767   0.987   0.324  0.2499  0.0683 -0.5944
 3928TIP3    H211791   2.833   1.030   0.454 -0.2342 -1.0226  0.0250
 3929TIP3   OH211792   1.757   1.659   4.260  0.1412  0.0322 -0.5335
 3929TIP3    H111793   1.829   1.722   4.265  0.4682 -0.4231  0.9192
 3929TIP3    H211794   1.767   1.605   4.338 -1.8072 -0.0371 -0.3007
 3930TIP3   OH211795   0.233   5.505   0.584 -0.3660 -0.5349  0.3293
 3930TIP3    H111796   0.278   5.460   0.655  0.1422  1.8087  1.5741
 3930TIP3    H211797   0.177   5.570   0.627  1.3591  2.2799 -1.3106
 3931TIP3   OH211798   3.940   2.825   2.065 -0.0365  0.1524 -0.1296
 3931TIP3    H111799   3.887   2.770   2.123 -1.8826  0.8255 -1.1050
 3931TIP3    H211800   3.876   2.875   2.014  1.4441 -0.5650 -2.9095
 3932TIP3   OH211801   5.947   4.722   4.061 -0.2207  0.2501  0.3230
 3932TIP3    H111802   5.971   4.633   4.087  0.4296  0.2583 -0.2237
 3932TIP3    H211803   5.952   4.773   4.142 -0.6796 -0.2203  0.6575
 3933TIP3   OH211804   0.951   1.092   0.876  0.4668  0.5225  0.2159
 3933TIP3    H111805   0.953   1.100   0.972 -0.1986 -1.4620  0.4512
 3933TIP3    H211806   0.906   1.170   0.846 -2.4460 -0.3693  1.8475
 3934TIP3   OH211807   3.489   0.576   4.385  0.2117 -0.2551 -0.1538
 3934TIP3    H111808   3.410   0.588   4.437  0.9287 -0.8276  1.1329
 3934TIP3    H211809   3.523   0.664   4.372 -0.2567 -0.0636 -0.1055
 3935TIP3   OH211810   1.814   4.758   0.804 -0.2737 -0.4050  0.4074
 3935TIP3    H111811   1.794   4.819   0.733 -1.3482 -0.3507  0.7408
 3935TIP3    H211812   1.907   4.740   0.795 -0.0318  0.9637  0.0557
 3936TIP3   OH211813   5.716   1.642   3.653  0.2046 -0.3429 -0.3407
 3936TIP3    H111814   5.763   1.644   3.570  1.2688  0.3239  0.2506
 3936TIP3    H211815   5.785   1.635   3.719 -0.6106 -0.6632  0.5048
 3937TIP3   OH211816   0.523   0.206   2.696 -0.2534  0.3298 -0.9353
 3937TIP3    H111817   0.436   0.246   2.695 -0.1623  0.5594 -0.3882
 3937TIP3    H211818   0.583   0.280   2.689 -0.0991  0.1735 -1.2833
 3938TIP3   OH211819   5.315   3.365   2.314 -0.0411 -0.1407  0.0811
 3938TIP3    H111820   5.319   3.438   2.376  1.5190 -0.4530  0.3697
 3938TIP3    H211821   5.398   3.367   2.268 -0.0263 -1.6398 -0.0202
 3939TIP3   OH211822   5.382   2.412   2.111 -0.2806  0.2828 -0.7037
 3939TIP3    H111823   5.358   2.326   2.145  1.7197  0.1100  0.3960
 3939TIP3    H211824   5.412   2.394   2.021 -0.0302 -0.1605 -0.5364
 3940TIP3   OH211825   0.863   4.606   4.150  0.2050  0.4968  0.4506
 3940TIP3    H111826   0.810   4.635   4.225  0.7913 -0.4601  1.2575
 3940TIP3    H211827   0.857   4.678   4.088 -2.0614  0.4158  0.4960
 3941TIP3   OH211828   0.169   5.145   3.264 -0.1192 -0.7435  0.3397
 3941TIP3    H111829   0.192   5.183   3.349  1.6178  0.8125 -0.7448
 3941TIP3    H211830   0.073   5.153   3.260 -0.1704 -0.2079  1.8477
 3942TIP3   OH211831   5.453   1.893   2.634 -0.1904  0.5327  0.5487
 3942TIP3    H111832   5.508   1.940   2.570 -1.0573 -1.4018 -1.7803
 3942TIP3    H211833   5.406   1.962   2.681 -1.3283  2.0934 -2.6080
 3943TIP3   OH211834   5.048   2.575   4.044 -0.1292  0.1089 -0.0153
 3943TIP3    H111835   4.970   2.519   4.035 -0.2622  0.4688 -1.3697
 3943TIP3    H211836   5.104   2.529   4.106 -0.2916 -1.4900 -0.9926
 3944TIP3   OH211837   0.866   3.914   4.237  0.4568 -0.3808  0.3854
 3944TIP3    H111838   0.952   3.912   4.194  0.0622 -1.3226 -0.3800
 3944TIP3    H211839   0.812   3.854   4.186 -0.2856 -0.8309  1.6606
 3945TIP3   OH211840   4.605   3.739   4.090 -0.4838 -0.2406 -0.1761
 3945TIP3    H111841   4.526   3.707   4.047 -2.0823  1.2430  1.4949
 3945TIP3    H211842   4.676   3.691   4.048 -2.1647 -0.9208 -2.4219
 3946TIP3   OH211843   2.862   4.317   3.298  0.0455 -0.0110 -0.5968
 3946TIP3    H111844   2.880   4.309   3.391  0.2259 -1.1692 -0.7154
 3946TIP3    H211845   2.769   4.336   3.293 -0.0710 -0.4654 -0.1956
 3947TIP3   OH211846   4.467   3.665   3.033 -0.0116 -0.3909  0.0566
 3947TIP3    H111847   4.408   3.649   2.960 -0.7889  0.2202  0.5294
 3947TIP3    H211848   4.462   3.586   3.086  0.7990 -0.9646 -0.7024
 3948TIP3   OH211849   0.824   4.515   0.420  0.4898 -0.0428 -0.2461
 3948TIP3    H111850   0.863   4.437   0.461  0.4997 -1.1137 -2.1598
 3948TIP3    H211851   0.859   4.515   0.331 -2.0270  0.2961 -1.3270
 3949TIP3   OH211852   6.120   4.690   4.427 -0.1558  0.0029  0.0545
 3949TIP3    H111853   6.108   4.628   4.355 -0.2881 -0.9413  0.8664
 3949TIP3    H211854   6.111   4.637   4.506  1.8333  0.6736  0.7726
 3950TIP3   OH211855   3.507   3.099   0.865 -0.3326  0.4582 -0.6843
 3950TIP3    H111856   3.491   3.177   0.919 -0.6758 -0.5454  0.7163
 3950TIP3    H211857   3.472   3.027   0.917  1.9335 -0.9086 -0.9391
 3951TIP3   OH211858   4.039   0.870   0.463 -0.3284 -0.0363  0.2425
 3951TIP3    H111859   4.046   0.793   0.407 -0.1584  0.3952 -0.3426
 3951TIP3    H211860   4.124   0.878   0.505  0.0471  0.5071 -0.6045
 3952TIP3   OH211861   5.905   2.682   2.481 -0.1074  0.4125  0.3682
 3952TIP3    H111862   5.876   2.592   2.492  0.3267  0.5417  3.6404
 3952TIP3    H211863   5.974   2.678   2.415 -0.3147 -1.5938  0.2310
 3953TIP3   OH211864   5.276   0.611   0.092  0.3181 -0.2562 -0.0996
 3953TIP3    H111865   5.244   0.595   0.003 -0.5532  0.1883  0.1283
 3953TIP3    H211866   5.355   0.557   0.098 -0.9175 -2.2182 -0.3261
 3954TIP3   OH211867   5.159   0.498   1.933 -0.1361 -0.2216 -0.2457
 3954TIP3    H111868   5.082   0.524   1.983 -0.2269  0.2480 -0.6308
 3954TIP3    H211869   5.166   0.562   1.863  1.3581  0.5361  0.5313
 3955TIP3   OH211870   0.202   5.642   3.012 -0.3206 -0.1718 -0.2013
 3955TIP3    H111871   0.272   5.609   3.069 -1.2395 -0.3387  0.8494
 3955TIP3    H211872   0.153   5.564   2.987 -1.2978  0.1350  0.6716
 3956TIP3   OH211873   5.659   4.787   1.593  0.6803 -0.4498 -0.4673
 3956TIP3    H111874   5.588   4.726   1.568 -0.2941  0.7596 -0.7378
 3956TIP3    H211875   5.703   4.742   1.665 -0.4984 -1.1602 -0.1435
 3957TIP3   OH211876   2.937   1.391   0.040 -0.3172  0.0976 -0.2096
 3957TIP3    H111877   3.030   1.396   0.061 -0.6749  2.6872  1.1401
 3957TIP3    H211878   2.905   1.317   0.091  0.8051 -0.2403  0.0356
 3958TIP3   OH211879   2.102   0.029   0.640  0.3691 -0.0244  0.6265
 3958TIP3    H111880   2.139   0.056   0.556  4.0172 -1.8300  1.4804
 3958TIP3    H211881   2.044  -0.044   0.619  0.8343 -0.1157 -0.3551
 3959TIP3   OH211882   5.662   1.241   0.743 -0.2928 -0.0686  0.3088
 3959TIP3    H111883   5.705   1.196   0.815 -0.0327 -1.7985 -0.8603
 3959TIP3    H211884   5.733   1.270   0.686 -0.5474 -0.3296 -0.1512
 3960TIP3   OH211885   3.577   1.762   2.573 -0.1666 -0.0061  0.1997
 3960TIP3    H111886   3.670   1.757   2.552 -0.0952 -0.9465  0.6975
 3960TIP3    H211887   3.570   1.832   2.637  0.4558 -0.9966  1.4082
 3961TIP3   OH211888   2.971   0.998   2.114  0.1424 -0.0514  0.2041
 3961TIP3    H111889   2.951   1.075   2.167 -2.4526  0.4052 -1.2894
 3961TIP3    H211890   2.889   0.948   2.112  0.6248 -0.8786 -2.0205
 3962TIP3   OH211891   5.163   4.672   0.080  0.0723  0.5364  0.3762
 3962TIP3    H111892   5.186   4.723   0.157 -2.1147  1.4747  0.4863
 3962TIP3    H211893   5.159   4.737   0.009  1.6108 -0.2381 -0.4736
 3963TIP3   OH211894   3.838   4.087   4.557  0.5911 -0.2324 -0.6403
 3963TIP3    H111895   3.830   4.180   4.535  0.8301 -0.3076 -1.0514
 3963TIP3    H211896   3.903   4.085   4.627  0.2889 -0.0528 -0.3529
 3964TIP3   OH211897   3.232   5.267   1.614 -0.0604  0.0904  0.2236
 3964TIP3    H111898   3.309   5.219   1.645 -0.4579 -0.4593  0.3633
 3964TIP3    H211899   3.216   5.233   1.526  0.3670  0.8258 -0.1571
 3965TIP3   OH211900   4.705   4.924   0.443 -0.0033 -0.4458  0.0907
 3965TIP3    H111901   4.737   4.900   0.356 -0.2486  0.4697 -0.2724
 3965TIP3    H211902   4.710   4.844   0.494  2.7312 -0.4079  0.0221
 3966TIP3   OH211903   1.695   0.703   4.196 -0.4905  0.0889  0.6273
 3966TIP3    H111904   1.753   0.714   4.121 -0.8880 -1.2164  0.0787
 3966TIP3    H211905   1.738   0.638   4.251 -1.4985 -1.0907  0.0855
 3967TIP3   OH211906   0.247   1.975   0.577 -0.0241  0.3503  0.1228
 3967TIP3    H111907   0.318   1.925   0.617  0.6690  0.4225 -0.9641
 3967TIP3    H211908   0.168   1.927   0.600  0.4063  0.0659  1.0568
 3968TIP3   OH211909   1.888   2.615   1.204  0.3766  0.4030  0.0630
 3968TIP3    H111910   1.949   2.686   1.184  1.3435 -0.4605 -0.1695
 3968TIP3    H211911   1.801   2.653   1.193  0.8651  1.7325  0.6106
 3969TIP3   OH211912   3.396   4.018   0.115 -0.2574 -0.6597  0.6717
 3969TIP3    H111913   3.304   4.007   0.092 -0.7806  0.8870  1.8152
 3969TIP3    H211914   3.420   4.104   0.081  0.6181 -0.8238  0.8376
 3970TIP3   OH211915   0.046   3.257   4.350 -0.2561 -0.2543  0.1991
 3970TIP3    H111916  -0.031   3.293   4.393 -0.0849 -0.5089  0.7389
 3970TIP3    H211917   0.024   3.255   4.257 -1.7951 -2.4430  0.5399
 3971TIP3   OH211918   3.572   5.309   4.478 -0.3711  0.4378 -0.1699
 3971TIP3    H111919   3.520   5.232   4.453 -1.6886  0.9559  0.8424
 3971TIP3    H211920   3.578   5.303   4.574  0.9712  0.7094 -0.2225
 3972TIP3   OH211921   5.084   1.142   3.940  0.0059 -0.1456  0.3640
 3972TIP3    H111922   5.102   1.168   3.850 -0.2365 -2.0011 -0.2726
 3972TIP3    H211923   5.157   1.084   3.963 -1.3585 -1.9958  0.2878
 3973TIP3   OH211924   4.767   2.235   3.679 -0.5130 -0.4688  0.2221
 3973TIP3    H111925   4.853   2.224   3.637 -0.9215  0.0632 -0.7963
 3973TIP3    H211926   4.760   2.329   3.695 -0.3760 -0.6680  1.4895
 3974TIP3   OH211927   4.853   1.616   0.290 -0.0116 -0.0360 -0.0822
 3974TIP3    H111928   4.804   1.608   0.209 -0.8529 -0.4820  0.4538
 3974TIP3    H211929   4.856   1.710   0.308 -0.3772  0.0143 -0.2934
 3975TIP3   OH211930   1.014   4.486   3.084  0.0948 -0.4402  0.1102
 3975TIP3    H111931   1.103   4.451   3.075 -0.2700 -1.1391 -1.0173
 3975TIP3    H211932   0.978   4.481   2.995 -1.0532 -0.1117  0.5453
 3976TIP3   OH211933   1.383   4.072   3.385 -0.4709 -0.0503  0.8821
 3976TIP3    H111934   1.383   3.978   3.368 -1.9998  0.0690  0.0295
 3976TIP3    H211935   1.372   4.079   3.480 -0.1217 -0.7167  0.9779
 3977TIP3   OH211936   6.312   2.529   2.562  0.5951 -0.2686 -0.0490
 3977TIP3    H111937   6.340   2.456   2.618  2.7957 -0.6348 -1.5044
 3977TIP3    H211938   6.240   2.492   2.510 -1.7237  0.1827  2.6156
 3978TIP3   OH211939   1.363   1.022   0.137 -0.5278 -0.2858  0.2941
 3978TIP3    H111940   1.291   0.993   0.194  0.2963 -2.1761  0.4234
 3978TIP3    H211941   1.355   0.968   0.059 -0.5118  1.0014 -0.6252
 3979TIP3   OH211942   5.691   5.738   2.441  0.0531 -0.3882  0.0787
 3979TIP3    H111943   5.770   5.787   2.417  0.3748 -0.9568 -0.0551
 3979TIP3    H211944   5.725   5.657   2.480 -0.4676 -0.4878  0.3266
 3980TIP3   OH211945   1.713   1.555   5.130  0.5797 -0.3418  0.7447
 3980TIP3    H111946   1.619   1.572   5.125  0.8309  1.1177  0.6435
 3980TIP3    H211947   1.749   1.631   5.176  2.0128  0.2976 -1.2880
 3981TIP3   OH211948   2.573   4.310   1.852  0.2276 -0.0041 -0.2076
 3981TIP3    H111949   2.595   4.397   1.885  0.2982 -0.1182  0.0468
 3981TIP3    H211950   2.604   4.311   1.761 -2.7528  1.4146 -1.3592
 3982TIP3   OH211951   3.542   2.298   2.702 -0.0946  0.0787 -0.7615
 3982TIP3    H111952   3.627   2.316   2.743  0.0609 -2.0348 -0.0450
 3982TIP3    H211953   3.485   2.368   2.733  1.2731  1.3778 -1.0217
 3983TIP3   OH211954   1.555   2.645   3.240 -0.2757 -0.1990  0.0225
 3983TIP3    H111955   1.494   2.571   3.242 -1.3387  0.6483 -0.1833
 3983TIP3    H211956   1.524   2.703   3.310  1.4848 -0.6406  1.2360
 3984TIP3   OH211957   6.067   5.556   1.313 -0.0891 -0.2582 -0.1778
 3984TIP3    H111958   6.012   5.613   1.366  0.6631  0.7617 -0.4618
 3984TIP3    H211959   6.017   5.475   1.304 -1.7967  0.8250 -0.9225
 3985TIP3   OH211960   3.196   5.699   0.987 -0.1280 -0.0475 -0.0293
 3985TIP3    H111961   3.179   5.612   0.951  1.3814 -0.8850  1.1402
 3985TIP3    H211962   3.109   5.736   1.002 -0.8087 -0.7075 -1.9717
 3986TIP3   OH211963   5.095   2.713   1.466  0.7843 -0.5961  0.3652
 3986TIP3    H111964   5.025   2.677   1.411  1.0272 -0.3487 -0.1053
 3986TIP3    H211965   5.175   2.681   1.426  1.0780  1.5145 -0.8375
 3987TIP3   OH211966   1.995   5.449   3.438  0.5650 -0.0290  0.2767
 3987TIP3    H111967   1.974   5.470   3.529  0.4991  0.0696  0.2403
 3987TIP3    H211968   2.024   5.533   3.401 -0.6171  0.2243 -0.1217
 3988TIP3   OH211969   6.014   3.983   1.793 -0.6281  0.2271 -0.2013
 3988TIP3    H111970   6.074   4.016   1.726  0.1618 -0.5090  0.1398
 3988TIP3    H211971   6.047   4.020   1.875  0.8464 -2.0915  0.3330
 3989TIP3   OH211972   0.428   3.014   3.642  0.3337 -0.2677 -0.1490
 3989TIP3    H111973   0.428   3.101   3.682 -2.2247 -0.9146  1.5015
 3989TIP3    H211974   0.348   3.013   3.589  0.4703 -1.5279 -0.3551
 3990TIP3   OH211975   1.543   0.503   5.127 -0.3879 -0.1521 -1.1197
 3990TIP3    H111976   1.537   0.410   5.149 -1.2994  0.5136  2.0951
 3990TIP3    H211977   1.609   0.537   5.188 -1.1367  1.5202 -1.1875
 3991TIP3   OH211978   6.264   2.190   0.975  0.4585  0.1346 -0.5792
 3991TIP3    H111979   6.242   2.131   0.902 -1.0370 -1.4437  1.0213
 3991TIP3    H211980   6.352   2.165   1.000  1.5652  1.6636 -2.6519
 3992TIP3   OH211981   5.646   2.139   2.151  0.3717  0.4359  0.4457
 3992TIP3    H111982   5.666   2.229   2.124  1.3224  0.0915 -0.0837
 3992TIP3    H211983   5.732   2.100   2.165 -0.0134 -0.5825  0.0038
 3993TIP3   OH211984   0.089   3.679   3.953  0.0026  0.0556  0.4088
 3993TIP3    H111985   0.125   3.706   4.037  1.0015  0.6571 -0.1903
 3993TIP3    H211986   0.031   3.750   3.927  0.8776  0.6026 -0.1066
 3994TIP3   OH211987   1.169   2.407   2.279 -0.4159 -0.2815  0.3730
 3994TIP3    H111988   1.185   2.501   2.274  0.3839 -0.3800  1.0603
 3994TIP3    H211989   1.188   2.383   2.370 -3.2934 -0.6275  0.9774
 3995TIP3   OH211990   6.131   1.168   2.058  0.2612 -0.3482  0.2421
 3995TIP3    H111991   6.036   1.178   2.046  0.1132 -1.1324  0.7006
 3995TIP3    H211992   6.140   1.091   2.115  1.1656 -0.1333  0.3988
 3996TIP3   OH211993   0.855   0.081   2.278 -0.1537 -0.0099 -0.3119
 3996TIP3    H111994   0.874   0.171   2.303 -1.4779 -0.0754  1.0870
 3996TIP3    H211995   0.789   0.088   2.209 -1.5937  0.1312  1.0084
 3997TIP3   OH211996   4.114   3.910   2.021 -0.5921 -0.3437  0.1372
 3997TIP3    H111997   4.140   3.819   2.035 -0.8688 -0.5338 -0.5307
 3997TIP3    H211998   4.196   3.957   2.009 -0.4938 -0.7731 -0.9928
 3998TIP3   OH211999   1.876   5.409   5.139 -0.4091  0.0436 -0.3818
 3998TIP3    H112000   1.963   5.390   5.105 -1.2561 -1.1556 -2.0190
 3998TIP3    H212001   1.854   5.333   5.194 -0.7739 -0.0994 -0.7188
 3999TIP3   OH212002   5.536   1.619   2.716  0.0812 -0.0922 -0.0702
 3999TIP3    H112003   5.528   1.688   2.651 -0.6142  0.1281  0.2396
 3999TIP3    H212004   5.455   1.568   2.707  1.1147 -1.6374 -1.1514
 4000TIP3   OH212005   1.743   1.831   1.754  0.4651  0.0110 -0.4285
 4000TIP3    H112006   1.755   1.926   1.759 -0.8465  0.3613 -2.4693
 4000TIP3    H212007   1.821   1.799   1.709  0.4546  0.2722 -0.6349
 4001TIP3   OH212008   5.973   1.457   3.030 -0.0426 -0.2865  0.2488
 4001TIP3    H112009   5.926   1.401   3.092 -0.1638 -0.4064  0.0501
 4001TIP3    H212010   5.921   1.538   3.027 -0.4009 -0.5253 -0.1845
 4002TIP3   OH212011   3.197   4.251   4.067  0.0156 -0.1193  0.2311
 4002TIP3    H112012   3.212   4.215   4.155  0.2499 -0.7617 -0.0741
 4002TIP3    H212013   3.109   4.222   4.044  0.0006 -0.0498  0.1988
 4003TIP3   OH212014   4.675   2.781   3.639 -0.5467  0.5852 -0.1355
 4003TIP3    H112015   4.768   2.802   3.637 -0.3481 -0.3113 -0.6663
 4003TIP3    H212016   4.631   2.865   3.630  0.1976  1.1294  1.0623
 4004TIP3   OH212017   0.305   4.860   2.803  0.3692  0.0635 -0.0548
 4004TIP3    H112018   0.249   4.933   2.775  1.0470  0.8166  0.5138
 4004TIP3    H212019   0.305   4.865   2.898 -1.9665 -2.5141  0.2154
 4005TIP3   OH212020   5.458   1.631   4.669  0.4148 -0.0726  0.0154
 4005TIP3    H112021   5.472   1.539   4.645 -0.5188 -0.0125 -0.8567
 4005TIP3    H212022   5.363   1.643   4.660  0.4495  0.8206  0.7277
 4006TIP3   OH212023   2.189   5.508   1.994  0.5702 -0.5705 -0.7234
 4006TIP3    H112024   2.102   5.481   1.967  0.4978  0.2313 -1.3364
 4006TIP3    H212025   2.239   5.516   1.912  0.7038  0.6842 -0.5400
 4007TIP3   OH212026   4.302   5.087   0.737  0.6707 -0.4515 -0.1374
 4007TIP3    H112027   4.291   5.096   0.832  1.8827 -1.5413  0.1420
 4007TIP3    H212028   4.274   5.171   0.701  1.4417  0.4623  1.2986
 4008TIP3   OH212029   3.141   0.908   1.929  0.4010 -0.1974  0.2616
 4008TIP3    H112030   3.085   0.878   1.858  1.2543  0.4105 -0.7091
 4008TIP3    H212031   3.081   0.928   2.001 -0.6260  0.3416 -0.7079
 4009TIP3   OH212032   4.040   2.812   4.505  0.4954 -0.5655 -0.0381
 4009TIP3    H112033   4.039   2.817   4.601 -0.4862  1.1062 -0.0928
 4009TIP3    H212034   4.109   2.873   4.479 -2.0757  2.4270 -0.4281
 4010TIP3   OH212035   0.285   4.053   0.595  0.4892  0.3792 -0.1596
 4010TIP3    H112036   0.329   3.980   0.638  2.2426  2.5416  2.0229
 4010TIP3    H212037   0.207   4.069   0.649 -0.9254 -0.9268 -1.7033
 4011TIP3   OH212038   3.426   5.585   2.515 -0.0589 -0.2698  0.1475
 4011TIP3    H112039   3.332   5.590   2.502 -0.0957 -1.6541 -0.2140
 4011TIP3    H212040   3.438   5.590   2.609 -0.3697  1.2725  0.1447
 4012TIP3   OH212041   3.436   3.357   2.619 -0.9206  0.5357  0.5815
 4012TIP3    H112042   3.418   3.344   2.712  2.5761 -1.1572  1.1797
 4012TIP3    H212043   3.526   3.390   2.616 -0.9397  0.5915 -2.2354
 4013TIP3   OH212044   1.704   5.528   4.519  0.0942 -0.7645 -0.1212
 4013TIP3    H112045   1.722   5.579   4.598 -1.5957 -2.5226  1.5250
 4013TIP3    H212046   1.732   5.584   4.447 -1.2685  2.3141  1.5392
 4014TIP3   OH212047   0.669   0.936   2.806  0.1155  0.8856  0.5073
 4014TIP3    H112048   0.699   0.968   2.891 -0.9411  0.4767  1.0483
 4014TIP3    H212049   0.588   0.890   2.825  0.9577 -1.0906 -0.4276
 4015TIP3   OH212050   1.016   1.384   1.222  0.3629  0.2821  0.1748
 4015TIP3    H112051   0.939   1.386   1.279  0.1712 -0.3912 -0.0536
 4015TIP3    H212052   1.088   1.412   1.278  0.1241 -0.0901  0.6720
 4016TIP3   OH212053   5.945   1.337   5.122 -0.3611  0.0712  0.7377
 4016TIP3    H112054   5.872   1.379   5.076  0.2896  0.6360  0.2006
 4016TIP3    H212055   5.904   1.292   5.196 -1.6147 -1.9232 -1.0562
 4017TIP3   OH212056   4.704   3.290   4.098  0.0379 -0.0722  0.2410
 4017TIP3    H112057   4.628   3.340   4.128 -0.7627 -1.4717  0.6229
 4017TIP3    H212058   4.667   3.219   4.045  1.2211  0.3878 -1.2812
 4018TIP3   OH212059   4.962   4.056   0.458 -0.1453 -0.0248  0.5534
 4018TIP3    H112060   5.020   4.105   0.517 -0.5050 -0.2394  1.0981
 4018TIP3    H212061   5.021   4.018   0.393  0.2546  0.2917  0.7272
 4019TIP3   OH212062   5.117   1.458   4.890 -0.4702 -0.3903 -0.6336
 4019TIP3    H112063   5.044   1.481   4.833 -1.4354 -0.9022  0.3454
 4019TIP3    H212064   5.193   1.452   4.832 -1.2909 -0.2650 -1.7417
 4020TIP3   OH212065   1.574   2.080   0.644  0.2230 -0.9361  0.1856
 4020TIP3    H112066   1.578   2.047   0.555  0.4382  2.9925 -1.4425
 4020TIP3    H212067   1.663   2.106   0.665 -0.4593  2.0971 -0.2376
 4021TIP3   OH212068   2.293   4.504   0.097 -0.3011 -0.0388  0.2071
 4021TIP3    H112069   2.252   4.500   0.010  0.1589 -2.7619  0.0318
 4021TIP3    H212070   2.370   4.559   0.085 -0.6050  0.1601 -0.9491
 4022TIP3   OH212071   1.544   4.967   0.930 -0.0948 -0.1905  0.2253
 4022TIP3    H112072   1.556   4.902   0.999  0.9573 -0.8528 -0.5395
 4022TIP3    H212073   1.543   4.916   0.849  0.7464  0.7272 -0.3916
 4023TIP3   OH212074   0.669   2.603   1.988  0.4538 -0.0931  0.2921
 4023TIP3    H112075   0.714   2.620   2.071  1.1040  0.2999 -0.1282
 4023TIP3    H212076   0.681   2.684   1.937 -2.3142  0.7505  0.8345
 4024TIP3   OH212077   1.114   0.210   0.937 -0.4147  0.3097 -0.5153
 4024TIP3    H112078   1.132   0.292   0.984  0.5987 -1.3301  2.2290
 4024TIP3    H212079   1.186   0.202   0.875 -0.7591  1.6589 -1.1286
 4025TIP3   OH212080   5.340   0.104   3.999 -0.8412  0.3627  0.0763
 4025TIP3    H112081   5.273   0.049   3.959 -0.1000 -0.3860 -0.1599
 4025TIP3    H212082   5.404   0.118   3.929 -0.4761  0.6167  0.4548
 4026TIP3   OH212083   0.927   0.625   3.625 -0.5171 -0.0429 -0.2236
 4026TIP3    H112084   1.022   0.637   3.627 -0.4404 -0.7188  0.8818
 4026TIP3    H212085   0.903   0.609   3.716 -1.1745 -3.5591 -0.8520
 4027TIP3   OH212086   0.051   3.477  -0.000  0.5444  0.1193  0.1169
 4027TIP3    H112087  -0.018   3.421  -0.035  0.5925  0.7576 -1.0701
 4027TIP3    H212088   0.005   3.542   0.054  0.1851  0.6300 -0.7825
 4028TIP3   OH212089   6.018   2.760   0.580  0.0154 -0.0424  0.2234
 4028TIP3    H112090   5.966   2.723   0.651 -1.0335  0.4913 -0.2386
 4028TIP3    H212091   6.002   2.854   0.584  2.5710  0.4344  1.3142
 4029TIP3   OH212092   4.646   5.013   0.921 -0.1853  0.5379  0.5529
 4029TIP3    H112093   4.558   5.040   0.948 -1.1457 -0.8603 -0.9759
 4029TIP3    H212094   4.661   5.059   0.838  0.7802  1.1841  1.0645
 4030TIP3   OH212095   5.649   4.928   2.145 -0.1647  0.2434 -0.2602
 4030TIP3    H112096   5.647   4.976   2.227  2.5230  0.1831 -0.0846
 4030TIP3    H212097   5.600   4.982   2.083 -4.5977 -0.9105  1.8270
 4031TIP3   OH212098   5.054   2.958   0.204 -0.3140 -0.0180  0.5032
 4031TIP3    H112099   5.107   2.931   0.279 -0.9506 -1.7305  0.3876
 4031TIP3    H212100   5.003   2.881   0.183 -3.7128  1.8398  1.2838
 4032TIP3   OH212101   0.973   2.793   0.846 -0.2720 -0.0306 -0.4635
 4032TIP3    H112102   1.053   2.741   0.846 -1.1856 -1.5331  1.2798
 4032TIP3    H212103   0.904   2.732   0.818 -1.0839  0.7367 -0.1999
 4033TIP3   OH212104   1.261   5.682   4.368  0.3121  0.5630  0.0347
 4033TIP3    H112105   1.308   5.664   4.449  0.0929  1.1780  0.3017
 4033TIP3    H212106   1.226   5.596   4.341  0.6417  0.3050  0.4228
 4034TIP3   OH212107   3.318   3.799   3.130  0.8758  0.4566 -0.1848
 4034TIP3    H112108   3.250   3.834   3.072  0.7663  0.0997 -0.2796
 4034TIP3    H212109   3.297   3.706   3.137  0.6423  0.5749  0.7685
 4035TIP3   OH212110   4.199   3.723   0.714  0.4012 -0.7001 -0.2564
 4035TIP3    H112111   4.210   3.629   0.697  0.1648 -0.9255  0.7607
 4035TIP3    H212112   4.177   3.728   0.807  0.6486  0.3894 -0.2447
 4036TIP3   OH212113   6.140   5.784   2.272  0.3432  0.2137 -0.0293
 4036TIP3    H112114   6.219   5.802   2.324  0.8074 -0.5335 -0.4557
 4036TIP3    H212115   6.123   5.691   2.287  0.2641  0.0811 -0.9138
 4037TIP3   OH212116   2.192   1.802   1.046 -0.0705  0.0872  0.2452
 4037TIP3    H112117   2.268   1.839   1.002 -0.4702  1.0346  0.3363
 4037TIP3    H212118   2.201   1.828   1.137 -0.5569  0.2969  0.2373
 4038TIP3   OH212119   2.422   0.374   3.475 -0.4888 -0.5055  0.4827
 4038TIP3    H112120   2.349   0.319   3.503 -0.6510  0.0622  1.1928
 4038TIP3    H212121   2.422   0.448   3.536  0.4393 -0.2988  0.2512
 4039TIP3   OH212122   0.309   1.770   3.183 -0.2339 -0.0759 -0.1078
 4039TIP3    H112123   0.278   1.751   3.094 -0.7903 -0.1214  0.0937
 4039TIP3    H212124   0.366   1.846   3.172 -2.4510  1.6847 -0.1679
 4040TIP3   OH212125   5.395   4.544   1.206 -0.3743 -0.5967  0.1574
 4040TIP3    H112126   5.423   4.631   1.179  1.3549 -1.3008 -0.4663
 4040TIP3    H212127   5.420   4.487   1.133 -1.0199 -1.6900  0.7628
 4041TIP3   OH212128   0.804   4.788   0.415  0.3463  0.3801 -0.2330
 4041TIP3    H112129   0.821   4.694   0.412  0.8308  0.4772 -1.1306
 4041TIP3    H212130   0.841   4.821   0.333  1.9142  1.6315  0.9146
 4042TIP3   OH212131   4.353   1.286   4.540 -0.3236 -0.0830  0.6134
 4042TIP3    H112132   4.290   1.243   4.598 -0.6608 -0.5596 -0.0817
 4042TIP3    H212133   4.303   1.355   4.496 -0.5410 -0.8636 -0.4004
 4043TIP3   OH212134   4.339   4.622   4.036 -0.2235 -0.1290  0.0314
 4043TIP3    H112135   4.266   4.682   4.052  0.1588  0.0705  1.1353
 4043TIP3    H212136   4.298   4.539   4.014 -0.9233 -0.8590  3.4834
 4044TIP3   OH212137   0.173   2.062   1.617 -0.4077 -0.3354 -0.4317
 4044TIP3    H112138   0.118   2.034   1.543 -1.4630 -1.9439  0.8852
 4044TIP3    H212139   0.261   2.029   1.595 -0.2567  0.9399 -1.8565
 4045TIP3   OH212140   6.251   4.463   0.675  0.1056  0.0703 -0.4991
 4045TIP3    H112141   6.336   4.426   0.699 -0.1843  1.0261  2.3484
 4045TIP3    H212142   6.188   4.397   0.701 -0.1599  0.5814  0.1781
 4046TIP3   OH212143   2.874   3.282   4.412 -0.2099  0.3568 -0.3864
 4046TIP3    H112144   2.783   3.265   4.437  0.0605  0.2416  0.5432
 4046TIP3    H212145   2.920   3.295   4.495  0.5349  0.8775 -0.8725
 4047TIP3   OH212146   3.714   4.619   3.879  0.4825  0.2582 -0.1589
 4047TIP3    H112147   3.768   4.697   3.866  2.7651 -1.4557 -2.0974
 4047TIP3    H212148   3.705   4.581   3.791 -0.6639 -1.5753  0.6831
 4048TIP3   OH212149   3.675   2.287   0.644  0.5880  0.2040  0.8930
 4048TIP3    H112150   3.717   2.342   0.709 -0.1487  1.0317  0.6911
 4048TIP3    H212151   3.731   2.295   0.567  1.6957 -1.1166  1.5236
 4049TIP3   OH212152   0.725   2.491   2.879 -0.6502  0.3089  0.1347
 4049TIP3    H112153   0.687   2.556   2.820  2.1362  0.3705 -1.8016
 4049TIP3    H212154   0.692   2.407   2.846 -1.0937  0.4800  0.1278
 4050TIP3   OH212155   1.047   0.572   2.230 -0.2702  0.1388  0.4797
 4050TIP3    H112156   0.990   0.639   2.265 -0.0737  1.1424 -1.0159
 4050TIP3    H212157   1.023   0.566   2.137  1.6080  0.1779 -0.0586
 4051TIP3   OH212158   2.044   3.615   0.520  0.3447  0.2891 -0.2794
 4051TIP3    H112159   2.108   3.566   0.572  0.3170  1.8704  1.3672
 4051TIP3    H212160   1.959   3.582   0.549  0.3640 -0.4291 -1.0201
 4052TIP3   OH212161   6.147   3.360   2.179 -0.4727  0.7509 -0.4799
 4052TIP3    H112162   6.228   3.351   2.230  0.5240  3.3363 -1.4180
 4052TIP3    H212163   6.137   3.276   2.134  0.5473 -0.3305  1.1959
 4053TIP3   OH212164   5.079   5.190   3.658  0.0934  0.5233  0.2382
 4053TIP3    H112165   5.047   5.226   3.740 -1.1704 -2.3431  1.1515
 4053TIP3    H212166   5.147   5.128   3.684  2.5266  2.3984 -1.2754
 4054TIP3   OH212167   2.989   0.480   0.759  0.2415  0.2277  0.7194
 4054TIP3    H112168   3.034   0.413   0.810  1.1576  0.1361 -0.1633
 4054TIP3    H212169   3.043   0.558   0.768  0.4386  0.1976 -0.1288
 4055TIP3   OH212170   4.707   0.575   4.360 -0.3398 -0.1758  0.2336
 4055TIP3    H112171   4.720   0.643   4.427  1.0256 -0.3905  0.2079
 4055TIP3    H212172   4.672   0.500   4.408 -0.1233 -0.0642  0.5660
 4056TIP3   OH212173   0.585   4.750   2.705 -0.2288  0.5698  0.0315
 4056TIP3    H112174   0.553   4.719   2.621  0.8499 -1.2965  0.2581
 4056TIP3    H212175   0.672   4.786   2.687 -0.2024  0.6365  0.2769
 4057TIP3   OH212176   1.080   5.056   2.566  0.0039 -0.6247  0.3461
 4057TIP3    H112177   1.055   5.042   2.657 -0.6792 -2.8451 -0.1179
 4057TIP3    H212178   1.142   4.986   2.547  1.9278  1.1293 -0.3112
 4058TIP3   OH212179   2.048   2.810   2.935 -0.1413  0.4445 -0.1912
 4058TIP3    H112180   2.126   2.835   2.885 -0.1995  0.4223 -0.2936
 4058TIP3    H212181   2.042   2.875   3.005  0.9866 -0.5609  0.8993
 4059TIP3   OH212182   5.541   3.209   4.703 -0.4845  0.3864  0.2397
 4059TIP3    H112183   5.445   3.209   4.713 -0.4091 -1.1433  1.2693
 4059TIP3    H212184   5.571   3.138   4.760  1.3312  1.2683  0.4421
 4060TIP3   OH212185   5.990   0.127   2.390  0.0420  0.1979  0.0150
 4060TIP3    H112186   5.939   0.046   2.394 -1.1246  0.8175 -1.2698
 4060TIP3    H212187   6.039   0.121   2.308  0.5897  0.4330  0.3182
 4061TIP3   OH212188   5.213   4.666   1.407  0.4972 -0.5876 -0.1446
 4061TIP3    H112189   5.199   4.596   1.343 -1.5911 -1.6700  1.3916
 4061TIP3    H212190   5.129   4.711   1.413  1.3220  1.0127  0.1577
 4062TIP3   OH212191   3.162   0.722   0.321 -0.5102 -0.5922 -0.3250
 4062TIP3    H112192   3.115   0.710   0.404  0.5036  1.2245  0.5836
 4062TIP3    H212193   3.094   0.740   0.257 -1.1602  0.7758  0.6994
 4063TIP3   OH212194   2.368   4.547   2.999 -0.1574 -0.2429 -0.0260
 4063TIP3    H112195   2.332   4.589   3.077 -0.3889 -0.8037  0.1722
 4063TIP3    H212196   2.463   4.553   3.009 -0.1862 -0.4495  0.3741
 4064TIP3   OH212197   0.391   5.114   5.167 -0.4677 -0.1383  0.4116
 4064TIP3    H112198   0.316   5.153   5.211 -0.2247  1.3957 -0.4894
 4064TIP3    H212199   0.432   5.186   5.119  1.0057 -1.1464  0.0767
 4065TIP3   OH212200   3.429   2.548   4.062  0.1980 -0.4632  0.5365
 4065TIP3    H112201   3.348   2.596   4.074 -1.0442 -2.3628  0.1576
 4065TIP3    H212202   3.469   2.587   3.984 -1.6933 -1.1565 -0.8662
 4066TIP3   OH212203   2.675   0.587   0.500 -0.0323 -0.0078  0.4490
 4066TIP3    H112204   2.666   0.653   0.431  0.0413 -0.0165  0.4311
 4066TIP3    H212205   2.601   0.528   0.486 -0.2302  0.2013  0.6068
 4067TIP3   OH212206   3.143   0.059   4.992 -0.1511  0.1464 -0.0602
 4067TIP3    H112207   3.217  -0.001   5.004 -0.4511 -0.6199 -1.7316
 4067TIP3    H212208   3.129   0.098   5.078  1.8603 -0.0802  0.4078
 4068TIP3   OH212209   4.392   4.422   1.748  0.3322 -0.0054  0.0697
 4068TIP3    H112210   4.427   4.334   1.732  0.7616  0.0683  0.5652
 4068TIP3    H212211   4.470   4.475   1.767 -0.0275  0.2035  1.0209
 4069TIP3   OH212212   4.003   4.467   0.639 -0.3170  0.6042 -0.1477
 4069TIP3    H112213   4.020   4.461   0.733 -0.6088  0.8209 -0.0799
 4069TIP3    H212214   4.063   4.535   0.607  1.1654 -0.7835 -0.4674
 4070TIP3   OH212215   5.795   3.787   2.084  0.1462 -0.4883 -0.0332
 4070TIP3    H112216   5.831   3.862   2.131  0.7709 -1.6531  1.4272
 4070TIP3    H212217   5.843   3.785   2.001  0.5371  0.3656  0.1643
 4071TIP3   OH212218   3.084   4.894   0.997 -0.3122 -0.6534 -0.7344
 4071TIP3    H112219   3.049   4.840   1.067 -0.4340  0.0196 -0.2686
 4071TIP3    H212220   3.009   4.942   0.963 -0.4426 -1.7190 -2.0133
 4072TIP3   OH212221   1.956   1.236   3.734  0.6615  0.0917  0.0378
 4072TIP3    H112222   2.005   1.153   3.732  0.6528  0.0292  1.4060
 4072TIP3    H212223   1.978   1.278   3.651  1.2635 -0.9411 -0.3551
 4073TIP3   OH212224   0.469   5.883   4.057  0.1974 -0.3915 -0.2561
 4073TIP3    H112225   0.506   5.950   4.115  1.0388  0.4069 -1.6632
 4073TIP3    H212226   0.400   5.929   4.008 -1.5687 -1.4322  1.1165
 4074TIP3   OH212227   1.811   5.601   2.793  0.0743  0.2055 -0.1128
 4074TIP3    H112228   1.769   5.676   2.750  0.6166  0.2147 -0.6480
 4074TIP3    H212229   1.872   5.641   2.855  0.2268  0.2068 -0.2630
 4075TIP3   OH212230   4.858   5.550   4.390  0.1731  0.8475 -0.2699
 4075TIP3    H112231   4.814   5.494   4.327  1.6014 -0.4024 -0.2319
 4075TIP3    H212232   4.800   5.553   4.466  0.2330 -0.9763 -0.1121
 4076TIP3   OH212233   4.870   3.085   1.544 -0.1704  0.9582  0.4014
 4076TIP3    H112234   4.795   3.031   1.516 -0.0576  0.9791  0.0553
 4076TIP3    H212235   4.941   3.022   1.555 -0.3764  0.8653  1.2520
 4077TIP3   OH212236   5.544   5.530   1.821 -0.1521  0.2821  0.1687
 4077TIP3    H112237   5.555   5.559   1.731  0.2929  0.0869  0.1574
 4077TIP3    H212238   5.621   5.565   1.867  0.9295 -1.6761 -0.0487
 4078TIP3   OH212239   1.270   5.322   0.048 -0.6088 -0.4689  0.0244
 4078TIP3    H112240   1.329   5.388   0.013 -1.0521 -0.3418 -0.5152
 4078TIP3    H212241   1.307   5.238   0.018 -0.8991 -0.3699 -0.6484
 4079TIP3   OH212242   6.008   1.070   4.631  0.2820  0.6291  0.6193
 4079TIP3    H112243   6.080   1.067   4.693  0.0062  0.7257  0.9502
 4079TIP3    H212244   6.034   1.012   4.560  0.0586 -0.4505  1.4094
 4080TIP3   OH212245   3.755   1.952   5.013 -0.0250  0.4204 -0.3796
 4080TIP3    H112246   3.807   2.020   4.970  1.5811  0.4039  1.4410
 4080TIP3    H212247   3.734   1.988   5.099  0.4426 -1.1829  0.4346
 4081TIP3   OH212248   5.428   4.249   3.639 -0.2482  0.4798 -0.4280
 4081TIP3    H112249   5.362   4.188   3.606 -0.0762  0.1860 -0.2357
 4081TIP3    H212250   5.428   4.237   3.734 -0.8916  1.4761 -0.2889
 4082TIP3   OH212251   3.488   2.358   3.622 -0.3196 -0.0892 -0.0480
 4082TIP3    H112252   3.496   2.321   3.534 -1.4453  0.4316 -0.3913
 4082TIP3    H212253   3.396   2.386   3.628  0.0922  1.1858  0.7664
 4083TIP3   OH212254   2.033   1.254   2.605  0.6566 -0.3082 -0.0594
 4083TIP3    H112255   1.976   1.199   2.658  0.4043 -3.8260 -3.5043
 4083TIP3    H212256   2.020   1.342   2.639 -0.7681 -1.9670  4.3376
 4084TIP3   OH212257   3.175   4.821   4.295  0.4537 -0.0751 -0.0749
 4084TIP3    H112258   3.182   4.896   4.354  0.8607  0.6757 -1.0669
 4084TIP3    H212259   3.090   4.782   4.317  1.4241 -1.0064  2.3717
 4085TIP3   OH212260   5.746   0.245   0.857  0.6392 -0.3141 -0.2118
 4085TIP3    H112261   5.816   0.181   0.858  0.4176 -0.6002  1.7784
 4085TIP3    H212262   5.700   0.232   0.940 -2.2900 -0.6764 -1.7361
 4086TIP3   OH212263   3.961   1.036   3.805  0.1869 -0.7050 -0.1385
 4086TIP3    H112264   3.917   0.961   3.845 -1.6215  0.4510  0.1691
 4086TIP3    H212265   3.945   1.027   3.711 -1.2724  0.0047  0.0170
 4087TIP3   OH212266   6.254   3.354   1.146 -0.1334  0.0247 -0.2191
 4087TIP3    H112267   6.264   3.336   1.052  0.0960 -3.0994  0.2890
 4087TIP3    H212268   6.311   3.289   1.188  1.5794  2.8246  2.0886
 4088TIP3   OH212269   6.056   3.014   3.406  0.0248  0.0242 -0.2731
 4088TIP3    H112270   6.086   2.994   3.318  1.3110 -0.5108  0.2633
 4088TIP3    H212271   5.961   3.018   3.399  0.0581 -0.8751 -1.5055
 4089TIP3   OH212272   4.089   0.333   4.565  0.1444  0.1771  0.0053
 4089TIP3    H112273   3.995   0.325   4.582  0.2012 -1.0707 -0.1595
 4089TIP3    H212274   4.104   0.427   4.552 -0.7639  0.6084  1.8108
 4090TIP3   OH212275   3.405   4.968   2.922  0.6188 -0.0023 -0.0708
 4090TIP3    H112276   3.317   4.932   2.918  1.2317 -1.5397 -0.2555
 4090TIP3    H212277   3.394   5.052   2.968 -0.9298 -0.1373 -0.1429
 4091TIP3   OH212278   1.783   5.098   3.399 -0.2130 -0.1464  0.3659
 4091TIP3    H112279   1.802   5.013   3.358  1.3600 -0.2647  1.2263
 4091TIP3    H212280   1.689   5.097   3.413 -0.3971 -1.2351 -0.7507
 4092TIP3   OH212281   0.185   1.169   2.577 -0.8445  0.0452  1.0843
 4092TIP3    H112282   0.276   1.195   2.593 -0.2568 -0.5314 -1.0629
 4092TIP3    H212283   0.137   1.207   2.651  1.0180  0.9698  1.9065
 4093TIP3   OH212284   2.533   2.070   5.023 -0.3402  0.0844 -0.2946
 4093TIP3    H112285   2.624   2.078   5.049 -0.6034  1.5356  0.2532
 4093TIP3    H212286   2.528   1.986   4.978  1.6144  0.7512 -1.8582
 4094TIP3   OH212287   0.175   3.427   4.644  0.2591 -0.2538 -0.0168
 4094TIP3    H112288   0.250   3.434   4.703  0.3606  0.5661 -0.2387
 4094TIP3    H212289   0.126   3.351   4.676 -0.2048  0.7326  1.6968
 4095TIP3   OH212290   6.159   5.498   2.345 -0.3677 -0.0162 -0.0256
 4095TIP3    H112291   6.230   5.435   2.355 -0.5421  0.0201  1.6728
 4095TIP3    H212292   6.100   5.480   2.418 -0.8957  1.5033 -0.0426
 4096TIP3   OH212293   4.309   0.260   0.798  0.2654  0.3752 -0.3906
 4096TIP3    H112294   4.229   0.235   0.845  0.4465 -0.8664 -0.7185
 4096TIP3    H212295   4.380   0.228   0.854  0.4891 -0.6637 -1.2445
 4097TIP3   OH212296   3.172   4.230   3.232  0.2591  0.0179 -0.0320
 4097TIP3    H112297   3.079   4.252   3.225 -0.1257 -0.6144  2.3898
 4097TIP3    H212298   3.205   4.288   3.301  1.3671 -0.6158 -0.0115
 4098TIP3   OH212299   0.424   0.949   0.247 -0.2047  0.3460  0.2240
 4098TIP3    H112300   0.476   0.919   0.173 -0.0333  0.9096  0.1199
 4098TIP3    H212301   0.485   0.999   0.301 -0.1438 -0.6389  1.1126
 4099TIP3   OH212302   4.997   4.765   4.229 -0.1137 -0.3667  0.0375
 4099TIP3    H112303   4.953   4.804   4.153 -2.7874  0.4874  1.8698
 4099TIP3    H212304   5.091   4.773   4.210 -0.6790  0.4632 -2.7991
 4100TIP3   OH212305   1.928   1.812   3.358 -0.4976  0.0742 -0.1569
 4100TIP3    H112306   2.012   1.824   3.315 -0.6282 -1.8945 -1.0511
 4100TIP3    H212307   1.890   1.900   3.362  1.1868  0.8514 -0.5681
 4101TIP3   OH212308   4.966   1.198   3.143  0.8560 -0.3889  0.0717
 4101TIP3    H112309   4.920   1.201   3.059  1.8984  0.1523 -0.4994
 4101TIP3    H212310   4.934   1.275   3.191 -0.3988 -1.1767  0.5552
 4102TIP3   OH212311   0.121   1.707   0.154  0.5757  0.7164  1.3000
 4102TIP3    H112312   0.094   1.794   0.185 -1.7915  0.1264  1.1305
 4102TIP3    H212313   0.066   1.646   0.203  0.9341 -0.5740  0.1633
 4103TIP3   OH212314   3.122   3.837   0.046  0.4509  0.4701 -0.1653
 4103TIP3    H112315   3.199   3.792   0.012 -0.0621 -1.0833  0.6351
 4103TIP3    H212316   3.115   3.808   0.137  0.0738  2.1706  0.3806
 4104TIP3   OH212317   5.190   1.161   0.147  0.4667  0.2560 -0.1850
 4104TIP3    H112318   5.126   1.221   0.187  0.4542  0.9206 -1.1614
 4104TIP3    H212319   5.262   1.218   0.119  0.6865 -0.2476 -0.6700
 4105TIP3   OH212320   4.031   0.038   0.518  0.1136  0.6214  0.5128
 4105TIP3    H112321   4.019   0.086   0.436  0.8101  3.1489  1.7793
 4105TIP3    H212322   4.019   0.105   0.586  0.9561 -1.0785  2.4237
 4106TIP3   OH212323   2.939   1.269   1.150 -0.6317 -0.3197  0.3926
 4106TIP3    H112324   2.970   1.354   1.119 -0.5932 -0.9280 -1.3630
 4106TIP3    H212325   3.004   1.240   1.213 -1.7073  1.8468  2.6358
 4107TIP3   OH212326   5.254   5.071   2.668  0.6087  0.2999  0.0136
 4107TIP3    H112327   5.164   5.040   2.677  0.2701  1.2804  0.1144
 4107TIP3    H212328   5.284   5.033   2.586 -0.1515  0.5345 -0.3853
 4108TIP3   OH212329   2.490   0.317   2.367  0.2051  0.0724 -0.4001
 4108TIP3    H112330   2.476   0.351   2.279  0.5405  1.2721 -0.0010
 4108TIP3    H212331   2.493   0.395   2.423  1.1476 -0.5993  0.5171
 4109TIP3   OH212332   4.076   3.438   0.570  0.3708 -0.3343 -0.5343
 4109TIP3    H112333   4.054   3.500   0.500  0.8533  0.9472  0.3978
 4109TIP3    H212334   4.096   3.356   0.524  0.6150  0.4432 -1.8901
 4110TIP3   OH212335   3.250   0.598   2.606  0.3720 -0.0385  0.4507
 4110TIP3    H112336   3.165   0.575   2.570 -0.0672  2.3405 -0.1909
 4110TIP3    H212337   3.270   0.684   2.569  3.7636 -1.1007 -0.5883
 4111TIP3   OH212338   2.918   3.797   3.652 -0.2987 -0.0697 -0.0838
 4111TIP3    H112339   2.831   3.792   3.691  0.2086  1.1429  1.3010
 4111TIP3    H212340   2.928   3.714   3.605 -1.5696 -0.9279  1.0705
 4112TIP3   OH212341   5.199   2.441   4.255 -0.4266  0.1409  0.1601
 4112TIP3    H112342   5.287   2.476   4.241 -1.4678  2.9965 -0.0301
 4112TIP3    H212343   5.199   2.357   4.211  1.9363  0.4764 -0.6281
 4113TIP3   OH212344   2.757   4.012   2.777 -0.7117  0.2521  0.0627
 4113TIP3    H112345   2.799   4.086   2.822  1.4617  0.5157 -2.1305
 4113TIP3    H212346   2.804   3.935   2.808 -0.0906  0.2970 -0.7261
 4114TIP3   OH212347   3.273   4.528   1.886 -0.5996  0.1587  0.2569
 4114TIP3    H112348   3.327   4.594   1.842 -2.1182  1.5851  0.4252
 4114TIP3    H212349   3.232   4.576   1.958 -1.4250 -1.0864  0.6364
 4115TIP3   OH212350   4.918   5.834   4.666  0.5529 -0.1945 -0.1087
 4115TIP3    H112351   4.835   5.790   4.687  1.4289 -1.9359 -0.0588
 4115TIP3    H212352   4.893   5.909   4.613 -0.9973 -1.3795 -1.1461
 4116TIP3   OH212353   4.572   1.192   3.737  0.0463  0.5361 -0.0668
 4116TIP3    H112354   4.591   1.139   3.659  1.8531  0.1546  0.5773
 4116TIP3    H212355   4.658   1.204   3.779 -1.0225 -0.3729  2.5797
 4117TIP3   OH212356   3.490   5.603   2.851  0.1024 -0.4731  0.3930
 4117TIP3    H112357   3.571   5.553   2.842  1.0278  1.1889 -1.2421
 4117TIP3    H212358   3.482   5.618   2.945  1.5398 -0.9352  0.6162
 4118TIP3   OH212359   5.878   2.148   1.918 -0.2577 -0.1751 -0.5162
 4118TIP3    H112360   5.971   2.142   1.939 -0.3730  1.8888  0.9783
 4118TIP3    H212361   5.837   2.076   1.968  0.2650  0.6151  1.1289
 4119TIP3   OH212362   2.668   1.312   4.842  0.2382  0.1683  0.1524
 4119TIP3    H112363   2.634   1.393   4.880 -1.2851  0.4228 -1.6215
 4119TIP3    H212364   2.614   1.243   4.881  0.4585  0.1736  0.4628
 4120TIP3   OH212365   3.829   1.462   2.192 -0.4126 -0.1758  0.4994
 4120TIP3    H112366   3.840   1.521   2.118  0.3533 -1.3155 -0.3262
 4120TIP3    H212367   3.803   1.379   2.153  0.6803 -0.9894  1.4315
 4121TIP3   OH212368   2.128   3.307   3.250  0.1779  0.7481  0.1714
 4121TIP3    H112369   2.135   3.402   3.258  0.4568  0.6124  1.7371
 4121TIP3    H212370   2.138   3.274   3.339  2.1038 -0.8712 -0.5536
 4122TIP3   OH212371   1.537   4.006   1.985  0.1330  0.5078 -0.2223
 4122TIP3    H112372   1.544   3.940   2.054 -0.4622 -1.5270 -1.9805
 4122TIP3    H212373   1.460   4.057   2.009 -1.6642 -1.8210 -0.6010
 4123TIP3   OH212374   0.410   0.807   2.912  0.0980 -0.0027  0.1810
 4123TIP3    H112375   0.390   0.745   2.982 -0.0248  1.1289  1.1912
 4123TIP3    H212376   0.360   0.885   2.935  0.2012  0.4581 -1.0910
 4124TIP3   OH212377   4.825   3.620   4.001  0.2095  0.2000  0.2240
 4124TIP3    H112378   4.864   3.532   4.002  1.6353  0.7762 -0.9410
 4124TIP3    H212379   4.888   3.675   4.048  0.2143  0.9101 -0.5759
 4125TIP3   OH212380   0.376   1.271   4.034  0.0310 -0.2689  0.0455
 4125TIP3    H112381   0.434   1.257   4.109  1.8867 -0.8167 -1.4152
 4125TIP3    H212382   0.310   1.201   4.042 -0.7319  0.5828  1.9305
 4126TIP3   OH212383   0.608   5.205   2.272  0.0618  0.1257 -0.4873
 4126TIP3    H112384   0.545   5.173   2.207 -0.8987  2.7333 -0.9406
 4126TIP3    H212385   0.682   5.237   2.220  1.0038 -1.2086 -0.0370
 4127TIP3   OH212386   0.477   3.882   2.037 -0.2648 -0.4349 -0.4138
 4127TIP3    H112387   0.502   3.973   2.047 -1.7524  0.0834 -1.1976
 4127TIP3    H212388   0.538   3.847   1.972  0.2027  0.0371 -0.2317
 4128TIP3   OH212389   1.141   2.397   3.552  0.0606  0.2279 -0.6969
 4128TIP3    H112390   1.218   2.341   3.561 -0.2682 -0.1282 -0.0057
 4128TIP3    H212391   1.136   2.415   3.458  1.1805  0.5538 -0.7120
 4129TIP3   OH212392   3.711   1.569   5.194  0.1955  0.4146  0.5747
 4129TIP3    H112393   3.662   1.620   5.130 -0.3979 -0.5006  0.2758
 4129TIP3    H212394   3.663   1.487   5.201  0.6707  0.2155  1.6548
 4130TIP3   OH212395   2.351   3.419   0.969 -0.0728 -0.1738 -0.4766
 4130TIP3    H112396   2.289   3.428   1.041 -1.7034  0.6468 -1.9167
 4130TIP3    H212397   2.320   3.342   0.920  2.2203 -2.0125  0.7393
 4131TIP3   OH212398   5.145   0.795   5.125 -0.0165 -0.1300 -0.1117
 4131TIP3    H112399   5.161   0.852   5.050 -0.4531  0.6343  0.3533
 4131TIP3    H212400   5.219   0.811   5.183 -0.7666  0.9472  0.5857
 4132TIP3   OH212401   1.283   1.668   0.217 -0.8319 -0.2621  0.5132
 4132TIP3    H112402   1.240   1.596   0.262 -1.7121 -0.1072 -0.0597
 4132TIP3    H212403   1.231   1.745   0.240 -0.6131 -0.0016  0.1482
 4133TIP3   OH212404   6.335   5.789   3.141  0.2594  0.1158 -0.3387
 4133TIP3    H112405   6.411   5.756   3.093 -0.8720 -1.2254 -1.2998
 4133TIP3    H212406   6.260   5.744   3.101 -0.8261 -0.4534  2.1330
 4134TIP3   OH212407   2.421   3.632   2.871 -0.0290 -0.6780 -0.0890
 4134TIP3    H112408   2.432   3.710   2.925  1.9332  0.7279 -2.2757
 4134TIP3    H212409   2.466   3.562   2.920 -0.7773 -0.1815  1.3536
 4135TIP3   OH212410   2.580   1.574   4.945 -0.2607  0.3024  0.0898
 4135TIP3    H112411   2.673   1.578   4.923 -0.1990  2.1396  0.5614
 4135TIP3    H212412   2.572   1.625   5.025 -1.3857 -1.5396  1.2083
 4136TIP3   OH212413   4.034   2.855   0.073  0.0805  0.2123  0.1594
 4136TIP3    H112414   3.983   2.776   0.089 -0.0244  0.1578 -0.4408
 4136TIP3    H212415   4.122   2.823   0.051 -0.0951  0.2419 -0.5949
 4137TIP3   OH212416   2.784   0.921   3.616 -0.3756 -0.1996  0.6065
 4137TIP3    H112417   2.828   0.979   3.678  0.0848  1.5304 -1.2101
 4137TIP3    H212418   2.853   0.893   3.556 -0.9113 -1.3095  0.4800
 4138TIP3   OH212419   5.707   2.526   4.264  0.5336  0.0576 -0.4547
 4138TIP3    H112420   5.632   2.475   4.232 -1.1801  0.5803  2.4221
 4138TIP3    H212421   5.695   2.613   4.226  0.4086 -0.2028 -1.0216
 4139TIP3   OH212422   3.712   5.697   4.453 -0.1348 -0.2423 -0.4220
 4139TIP3    H112423   3.668   5.767   4.503 -0.3815  2.0210 -3.5251
 4139TIP3    H212424   3.640   5.639   4.427 -0.6315  0.7938 -1.4482
 4140TIP3   OH212425   2.388   4.900   2.963 -0.2340 -0.1114  0.2724
 4140TIP3    H112426   2.355   4.811   2.974  1.6606 -1.0358 -1.0407
 4140TIP3    H212427   2.364   4.923   2.873 -0.2268  0.5113  0.4261
 4141TIP3   OH212428   1.331   4.524   3.990 -0.2214  0.4170 -0.1001
 4141TIP3    H112429   1.393   4.494   4.058 -0.2014  0.4390 -0.1086
 4141TIP3    H212430   1.387   4.548   3.916 -0.3458 -1.9785 -1.0604
 4142TIP3   OH212431   6.125   3.106   2.048 -0.2041  0.7988  0.3136
 4142TIP3    H112432   6.174   3.080   2.126  1.9843  1.1135 -0.8625
 4142TIP3    H212433   6.148   3.040   1.982 -2.3644  0.2838  0.0074
 4143TIP3   OH212434   4.556   0.459   2.924 -0.3046  0.1879  0.1445
 4143TIP3    H112435   4.518   0.374   2.901  1.8295 -1.1242  1.2042
 4143TIP3    H212436   4.617   0.440   2.995  2.0229  2.2194 -1.1580
 4144TIP3   OH212437   1.954   5.029   4.300 -0.2667 -0.1610  0.4900
 4144TIP3    H112438   1.904   5.092   4.249  0.2875  2.1351  2.6058
 4144TIP3    H212439   2.044   5.038   4.267 -0.1812  0.2074  0.8160
 4145TIP3   OH212440   0.629   0.432   2.988  0.2310  0.4773 -0.4976
 4145TIP3    H112441   0.544   0.475   2.985 -0.1835 -0.3030 -0.2728
 4145TIP3    H212442   0.613   0.349   3.032  1.4764  1.1288  1.3173
 4146TIP3   OH212443   0.408   2.251   1.066 -0.2048 -0.0428  0.2930
 4146TIP3    H112444   0.452   2.291   1.140 -1.7390  1.7073  0.3448
 4146TIP3    H212445   0.416   2.315   0.995  1.4545 -1.7792 -1.2105
 4147TIP3   OH212446   3.443   4.652   4.088 -0.1773  0.4026 -0.2673
 4147TIP3    H112447   3.398   4.730   4.119 -0.6690  0.0006  0.0395
 4147TIP3    H212448   3.410   4.581   4.143  2.2224  0.3758  1.2935
 4148TIP3   OH212449   4.791   1.378   3.014 -0.6245  0.2040 -0.0736
 4148TIP3    H112450   4.705   1.406   2.981  0.5860 -1.1966 -5.2389
 4148TIP3    H212451   4.852   1.442   2.978  0.7304  0.4231  2.4237
 4149TIP3   OH212452   5.524   3.030   3.210 -0.4094  0.6617  0.2603
 4149TIP3    H112453   5.562   2.948   3.179 -2.7983 -0.6984  0.6394
 4149TIP3    H212454   5.512   3.017   3.304 -1.8425  0.9438  0.1476
 4150TIP3   OH212455   1.689   4.094   1.370 -0.4046 -0.2648  0.3224
 4150TIP3    H112456   1.685   4.172   1.315 -1.2445  0.3610  1.2269
 4150TIP3    H212457   1.773   4.101   1.415  0.0785 -0.5399 -0.5090
 4151TIP3   OH212458   3.344   2.717   2.970  0.4172 -0.2610  0.1672
 4151TIP3    H112459   3.379   2.777   3.036  0.4062 -0.3943  0.2928
 4151TIP3    H212460   3.264   2.682   3.009 -1.3716  2.0669 -1.1508
 4152TIP3   OH212461   4.275   2.712   1.934  0.0140 -0.0318 -0.0796
 4152TIP3    H112462   4.298   2.673   2.018  0.0468 -0.4950 -0.2979
 4152TIP3    H212463   4.356   2.752   1.902  0.1725 -0.4437 -0.2014
 4153TIP3   OH212464   2.296   3.098   4.531 -0.7494  0.1774 -0.2357
 4153TIP3    H112465   2.290   3.117   4.625 -1.8552  1.3068 -0.5042
 4153TIP3    H212466   2.205   3.101   4.500 -0.8700 -3.8323 -0.7102
 4154TIP3   OH212467   4.393   5.662   0.654 -0.8156  0.4237 -0.5447
 4154TIP3    H112468   4.430   5.643   0.740 -2.8358 -1.6858 -0.0287
 4154TIP3    H212469   4.332   5.734   0.669 -2.4929 -1.0772  0.2684
 4155TIP3   OH212470   5.572   1.759   2.952  0.7197 -0.0163 -1.1303
 4155TIP3    H112471   5.568   1.682   2.895  0.6696 -0.0724 -1.0517
 4155TIP3    H212472   5.591   1.832   2.893 -0.4934  0.1144 -1.4049
 4156TIP3   OH212473   1.362   5.078   5.005 -0.3039 -0.4722 -0.2964
 4156TIP3    H112474   1.434   5.025   5.040 -2.5958 -2.4576  1.7752
 4156TIP3    H212475   1.349   5.045   4.916  1.6872  0.3852 -0.9606
 4157TIP3   OH212476   0.143   3.913   2.318  0.5760  0.0494 -0.0224
 4157TIP3    H112477   0.144   3.844   2.385 -1.6268 -0.6963 -0.6621
 4157TIP3    H212478   0.165   3.869   2.237 -0.4429  0.1527 -0.3705
 4158TIP3   OH212479   4.646   3.580   1.868 -0.9585 -0.1902 -0.7743
 4158TIP3    H112480   4.660   3.506   1.809  0.3109 -0.0329 -0.6937
 4158TIP3    H212481   4.726   3.586   1.919 -1.1915  1.0064 -0.5201
 4159TIP3   OH212482   4.051   4.738   2.931 -1.1779 -0.0953  0.1226
 4159TIP3    H112483   3.991   4.718   3.003 -0.7351  2.1628  1.2030
 4159TIP3    H212484   4.138   4.738   2.973 -0.8069  0.2755 -0.6368
 4160TIP3   OH212485   0.734   0.940   1.392 -0.2611 -0.5942 -0.3571
 4160TIP3    H112486   0.639   0.926   1.391 -0.3862  0.0817  0.4161
 4160TIP3    H212487   0.744   1.034   1.408  0.5353 -0.8143  0.5795
 4161TIP3   OH212488   4.893   3.296   1.753  0.2062 -0.2983 -0.5248
 4161TIP3    H112489   4.872   3.275   1.844 -0.5421  2.6360  0.0609
 4161TIP3    H212490   4.821   3.257   1.703  0.0155 -0.9574  0.2247
 4162TIP3   OH212491   0.896   3.237   2.431  0.0028  0.6965 -0.2297
 4162TIP3    H112492   0.899   3.276   2.519 -0.6595  2.7927 -1.0737
 4162TIP3    H212493   0.984   3.250   2.397 -0.1500  1.2831 -0.4175
 4163TIP3   OH212494   2.532   0.948   0.594 -0.1311 -0.2762 -0.6355
 4163TIP3    H112495   2.481   0.937   0.674  1.8945  0.5697  0.8619
 4163TIP3    H212496   2.542   0.859   0.560  0.5327 -0.9331  1.1215
 4164TIP3   OH212497   0.351   1.034   3.069 -0.2504  0.2402 -0.0664
 4164TIP3    H112498   0.344   1.070   3.157 -0.5063 -2.1671  0.9695
 4164TIP3    H212499   0.442   1.049   3.044  0.1091  0.0234  1.0522
 4165TIP3   OH212500   4.634   4.107   4.650  0.6869  0.5595  0.5972
 4165TIP3    H112501   4.566   4.049   4.617  0.3382  1.0763  0.3862
 4165TIP3    H212502   4.633   4.182   4.590  2.7763 -0.2841 -0.6014
 4166TIP3   OH212503   4.060   1.901   4.810 -0.0317  0.0202  0.1824
 4166TIP3    H112504   4.086   1.848   4.734  1.8395  2.4459 -0.9930
 4166TIP3    H212505   4.127   1.885   4.876 -0.3604 -0.2798  0.4501
 4167TIP3   OH212506   4.623   1.442   1.067 -0.2989  0.1301 -0.1486
 4167TIP3    H112507   4.685   1.501   1.023 -0.1461 -1.0919 -1.6725
 4167TIP3    H212508   4.677   1.367   1.093 -0.9430 -0.4876 -0.5729
 4168TIP3   OH212509   4.318   5.052   2.752 -0.2533 -0.2778  0.0167
 4168TIP3    H112510   4.230   5.076   2.720 -0.5345 -0.3871  0.6916
 4168TIP3    H212511   4.371   5.046   2.673 -1.6157 -3.4691 -0.8239
 4169TIP3   OH212512   0.539   2.851   2.982  0.5536  0.5298  0.0743
 4169TIP3    H112513   0.613   2.871   2.925  0.8991 -1.0860 -0.0776
 4169TIP3    H212514   0.473   2.916   2.958  1.9874  2.1895  0.4190
 4170TIP3   OH212515   1.098   2.515   3.010 -0.1435  0.8918  0.2404
 4170TIP3    H112516   1.188   2.481   3.009  0.1457  1.6315  0.3651
 4170TIP3    H212517   1.106   2.601   3.051 -1.1240  0.3900  1.5497
 4171TIP3   OH212518   4.485   2.907   4.787  0.3999 -0.3666 -0.2426
 4171TIP3    H112519   4.423   2.974   4.759  0.0650 -0.2846  0.6535
 4171TIP3    H212520   4.571   2.949   4.776  0.2715 -0.2850 -0.9691
 4172TIP3   OH212521   0.896   1.217   2.637 -0.4768 -0.3769 -0.2693
 4172TIP3    H112522   0.887   1.283   2.706 -0.8540 -1.1036  0.3882
 4172TIP3    H212523   0.987   1.188   2.644  0.1152  1.0247 -1.4663
 4173TIP3   OH212524   2.585   0.283   3.904 -0.1382  0.2587 -0.2404
 4173TIP3    H112525   2.624   0.270   3.991 -0.9643 -1.4514 -0.0843
 4173TIP3    H212526   2.537   0.365   3.911  1.1948  1.0225  0.3765
 4174TIP3   OH212527   5.863   4.218   2.397  0.7705 -0.0570  0.3561
 4174TIP3    H112528   5.836   4.194   2.309  2.1239 -1.6853  0.3265
 4174TIP3    H212529   5.958   4.234   2.390  0.7865  0.4189  1.3875
 4175TIP3   OH212530   4.763   4.701   4.343 -0.1901  0.5205 -0.2980
 4175TIP3    H112531   4.766   4.612   4.379  0.1793  0.9537  0.7833
 4175TIP3    H212532   4.854   4.721   4.320 -0.2889  0.5820 -0.6360
 4176TIP3   OH212533   4.987   2.382   2.969 -0.6659 -0.2435  0.1379
 4176TIP3    H112534   4.961   2.386   3.061 -2.1560  1.4122 -0.2948
 4176TIP3    H212535   4.907   2.360   2.922 -0.1276 -0.1904 -0.8318
 4177TIP3   OH212536   2.664   4.749   1.709  0.0149  0.6312  0.1114
 4177TIP3    H112537   2.671   4.700   1.791  1.1554  0.1275 -0.2702
 4177TIP3    H212538   2.720   4.702   1.647 -1.9298  0.1382 -1.4059
 4178TIP3   OH212539   4.516   3.414   0.153  0.5346  0.0970  0.4491
 4178TIP3    H112540   4.468   3.375   0.080  0.6774  0.9951 -0.1457
 4178TIP3    H212541   4.511   3.509   0.137  1.0587  0.2776  1.2955
 4179TIP3   OH212542   3.531   0.353   3.333 -0.6963 -0.0034  0.3594
 4179TIP3    H112543   3.439   0.382   3.330 -0.8429 -0.4662  0.2615
 4179TIP3    H212544   3.561   0.363   3.242 -0.8500 -0.4686  0.2520
 4180TIP3   OH212545   5.438   4.300   2.247 -0.2331 -0.1371 -0.0051
 4180TIP3    H112546   5.493   4.245   2.302 -1.5642 -1.1397  0.3703
 4180TIP3    H212547   5.432   4.383   2.294  1.1127  0.0778 -0.1720
 4181TIP3   OH212548   5.465   4.503   0.353  0.3212 -0.1301 -0.1228
 4181TIP3    H112549   5.497   4.589   0.326  2.7415 -0.9718 -0.2206
 4181TIP3    H212550   5.521   4.479   0.426  0.5683 -2.1334 -0.9011
 4182TIP3   OH212551   5.229   2.866   4.110  0.0973  0.4287  0.4600
 4182TIP3    H112552   5.316   2.904   4.122  0.7529 -0.6975 -0.4706
 4182TIP3    H212553   5.213   2.874   4.016  0.6985 -2.3844  0.0283
 4183TIP3   OH212554   4.678   5.739   4.804  0.1205  0.6803  0.4266
 4183TIP3    H112555   4.646   5.827   4.783  0.7687  0.9502  0.5305
 4183TIP3    H212556   4.611   5.680   4.771 -1.1468  1.2618  1.8474
 4184TIP3   OH212557   0.182   1.879   2.954  0.1880 -0.1358  0.6802
 4184TIP3    H112558   0.269   1.887   2.916 -0.5250  2.0096 -0.6840
 4184TIP3    H212559   0.151   1.793   2.924  1.1740 -0.1585 -0.3369
 4185TIP3   OH212560   6.039   0.425   2.225 -0.7096 -0.0150 -0.0220
 4185TIP3    H112561   6.094   0.349   2.247  2.7244  2.8968  2.7611
 4185TIP3    H212562   6.083   0.464   2.149 -2.0399 -0.2917 -0.9801
 4186TIP3   OH212563   3.983   5.573   0.611  0.5158 -0.0365 -0.1136
 4186TIP3    H112564   4.004   5.545   0.700  0.0173 -0.2227 -0.0557
 4186TIP3    H212565   4.016   5.502   0.555  1.7513  0.5402 -0.1605
 4187TIP3   OH212566   1.526   0.455   2.112 -0.5107  0.0929 -0.3182
 4187TIP3    H112567   1.541   0.531   2.168 -0.5568 -1.0491  1.3310
 4187TIP3    H212568   1.438   0.425   2.136 -0.4137 -0.6003 -0.7942
 4188TIP3   OH212569   5.962   2.864   1.281  0.3134  0.2578 -0.1848
 4188TIP3    H112570   5.995   2.796   1.222  1.3897  2.6788 -2.6088
 4188TIP3    H212571   6.021   2.938   1.267 -1.1659  1.9389  1.8495
 4189TIP3   OH212572   1.665   4.521   0.795  0.2255  0.7420 -0.5886
 4189TIP3    H112573   1.584   4.553   0.836 -0.0581  1.2004 -1.4787
 4189TIP3    H212574   1.721   4.598   0.790  0.3214  0.6529 -0.8997
 4190TIP3   OH212575   2.859   2.461   1.250 -0.0783 -0.4000 -0.4996
 4190TIP3    H112576   2.905   2.386   1.289 -0.6194  0.7298  2.5897
 4190TIP3    H212577   2.768   2.449   1.277 -0.0383  1.7135  0.7761
 4191TIP3   OH212578   6.003   0.477   1.362  0.2732  0.4169 -0.1735
 4191TIP3    H112579   5.941   0.548   1.375 -0.4787 -0.1837 -0.3359
 4191TIP3    H212580   5.949   0.398   1.362  1.3004 -0.3658  2.0052
 4192TIP3   OH212581   3.438   4.536   0.929 -0.6765 -0.6440 -0.0240
 4192TIP3    H112582   3.514   4.508   0.980 -0.5463 -0.9265 -0.3615
 4192TIP3    H212583   3.421   4.462   0.871 -1.1628 -0.5467 -0.0043
 4193TIP3   OH212584   0.186   1.251   2.904 -0.4185  0.2075  0.1738
 4193TIP3    H112585   0.096   1.237   2.931 -1.2415 -1.2092 -2.8623
 4193TIP3    H212586   0.233   1.174   2.936 -1.0957 -0.8288 -1.2619
 4194TIP3   OH212587   4.584   0.302   0.400  0.6168 -0.8949 -0.1211
 4194TIP3    H112588   4.630   0.257   0.329  0.6767  0.2253 -0.8035
 4194TIP3    H212589   4.637   0.379   0.418  0.3586 -0.9263  0.8463
 4195TIP3   OH212590   0.922   3.918   0.943 -0.1174  0.0231  0.1582
 4195TIP3    H112591   0.888   3.888   1.027  0.3754  1.8850  1.0681
 4195TIP3    H212592   0.844   3.942   0.893 -0.3812 -0.5391  0.2906
 4196TIP3   OH212593   0.011   5.646   2.104  0.5854 -0.3298 -0.0777
 4196TIP3    H112594  -0.028   5.641   2.191  2.0094  0.4745  0.6445
 4196TIP3    H212595   0.105   5.636   2.119  0.7873 -1.1078 -1.6350
 4197TIP3   OH212596   6.222   5.203   1.071 -0.8622 -0.4196  0.2244
 4197TIP3    H112597   6.182   5.265   1.011 -0.6879  0.2761  0.8185
 4197TIP3    H212598   6.172   5.122   1.058 -1.3754 -0.0357 -0.2418
 4198TIP3   OH212599   0.005   4.105   2.191  0.4011  0.4439  0.1465
 4198TIP3    H112600   0.016   4.043   2.263 -0.4199  0.7952  0.5871
 4198TIP3    H212601   0.087   4.099   2.141  1.1915  0.5635  1.3837
 4199TIP3   OH212602   1.891   4.198   3.636  0.1097  0.2331 -0.4358
 4199TIP3    H112603   1.964   4.232   3.585 -0.8019  1.4310 -0.9846
 4199TIP3    H212604   1.813   4.224   3.587 -0.7924  1.0511  1.3222
 4200TIP3   OH212605   3.055   3.048   1.678  0.1546  0.6078 -0.7044
 4200TIP3    H112606   3.046   2.980   1.744  1.3479  0.8523 -0.2715
 4200TIP3    H212607   2.968   3.090   1.675  0.1899  0.8689  1.0234
 4201TIP3   OH212608   5.897   3.416   3.288 -0.2269  0.0755 -0.0122
 4201TIP3    H112609   5.843   3.367   3.226  0.6197  1.2041 -1.7198
 4201TIP3    H212610   5.873   3.507   3.275  1.1124  0.4793  0.1601
 4202TIP3   OH212611   4.400   1.073   1.518  0.3548  0.0103  0.4087
 4202TIP3    H112612   4.457   1.048   1.445  1.3005 -1.4385  1.5731
 4202TIP3    H212613   4.399   1.168   1.516 -1.3578  0.0400 -2.7441
 4203TIP3   OH212614   1.881   1.275   2.053  0.3311 -0.1288 -0.5761
 4203TIP3    H112615   1.821   1.276   2.128 -0.6382  1.1288 -1.3281
 4203TIP3    H212616   1.962   1.314   2.087 -0.2415  0.8446 -0.2825
 4204TIP3   OH212617   4.471   0.886   4.395  0.0399  0.0760  0.2628
 4204TIP3    H112618   4.561   0.910   4.416 -0.0186  0.8247 -0.3136
 4204TIP3    H212619   4.432   0.966   4.359 -0.1871 -0.8261 -1.6471
 4205TIP3   OH212620   2.383   4.184   4.847  0.2295 -0.3963  0.2359
 4205TIP3    H112621   2.379   4.091   4.821 -2.2224  0.1454 -1.7099
 4205TIP3    H212622   2.337   4.187   4.931  0.6585 -0.9791  0.5034
 4206TIP3   OH212623   4.665   4.973   0.131 -0.2205 -0.2457 -0.6197
 4206TIP3    H112624   4.602   5.015   0.190 -1.8888 -1.3864 -1.4984
 4206TIP3    H212625   4.630   4.991   0.043  1.3101  0.0210 -1.1984
 4207TIP3   OH212626   1.889   0.281   0.662  0.0509  0.1072  0.1828
 4207TIP3    H112627   1.946   0.207   0.638 -1.5403 -1.4054  0.8267
 4207TIP3    H212628   1.936   0.326   0.732  0.8987 -0.5155  0.0301
 4208TIP3   OH212629   5.381   0.940   4.147 -0.0354 -0.3039 -0.1616
 4208TIP3    H112630   5.419   1.019   4.107 -0.5407  0.6242  1.1201
 4208TIP3    H212631   5.417   0.939   4.236  3.4493 -3.9445 -1.3057
 4209TIP3   OH212632   3.360   1.865   0.381  0.5889 -0.1078  0.1280
 4209TIP3    H112633   3.443   1.844   0.339  1.5299  1.6997  0.9878
 4209TIP3    H212634   3.306   1.903   0.311  1.2962  0.7355  0.0331
 4210TIP3   OH212635   3.121   4.164   2.771 -0.1853 -0.4199  0.3868
 4210TIP3    H112636   3.159   4.114   2.699  0.5001  0.2066  0.2934
 4210TIP3    H212637   3.128   4.256   2.743  1.3092 -0.0550  1.7889
 4211TIP3   OH212638   0.225   3.382   3.455  0.2624 -0.4996 -0.0145
 4211TIP3    H112639   0.213   3.403   3.363  0.9362  1.6257  0.3283
 4211TIP3    H212640   0.214   3.287   3.460  0.2121 -0.6554 -2.2588
 4212TIP3   OH212641   2.728   0.738   0.699  0.0895  0.4148  0.0098
 4212TIP3    H112642   2.702   0.690   0.621  1.7460 -0.7970  0.1473
 4212TIP3    H212643   2.731   0.672   0.769  0.5325  1.0889  0.6492
 4213TIP3   OH212644   0.091   3.159   4.063 -0.0938 -0.1794 -0.8217
 4213TIP3    H112645   0.059   3.096   3.998 -0.3526 -1.1759  0.2441
 4213TIP3    H212646   0.179   3.181   4.033 -0.4660 -0.0721 -1.8952
 4214TIP3   OH212647   0.120   3.518   2.121  0.1875 -0.1094  0.1780
 4214TIP3    H112648   0.092   3.444   2.176  0.6625  0.0154  0.5966
 4214TIP3    H212649   0.169   3.575   2.181 -0.6752  0.8482 -0.0026
 4215TIP3   OH212650   3.361   1.079   0.603 -0.2045 -0.3934 -0.1560
 4215TIP3    H112651   3.456   1.085   0.610 -0.2633 -1.1285  1.8091
 4215TIP3    H212652   3.346   1.017   0.531  0.7015  1.4456 -2.0474
 4216TIP3   OH212653   4.464   2.126   4.893  0.2670 -0.2537 -0.1256
 4216TIP3    H112654   4.518   2.201   4.866  3.2755 -2.0050  0.5152
 4216TIP3    H212655   4.502   2.052   4.846 -3.1051 -1.3994 -1.3409
 4217TIP3   OH212656   0.014   0.402   2.339  0.3280  0.1095 -0.4766
 4217TIP3    H112657   0.093   0.391   2.391 -0.8810 -0.0751  1.4334
 4217TIP3    H212658   0.005   0.319   2.291  0.3151 -0.6169  0.7365
 4218TIP3   OH212659   1.843   0.763   2.959  0.0043  0.3367  0.3974
 4218TIP3    H112660   1.888   0.845   2.976 -1.6066  1.8301 -1.8518
 4218TIP3    H212661   1.752   0.789   2.942 -0.3087 -1.7085 -1.6326
 4219TIP3   OH212662   0.733   5.193   2.557  0.2401  0.4925 -0.4226
 4219TIP3    H112663   0.641   5.206   2.582  0.0587 -0.6323 -0.4702
 4219TIP3    H212664   0.734   5.205   2.462  0.2704  1.1541 -0.3447
 4220TIP3   OH212665   2.026   2.038   1.332  0.3449  0.0704  0.2833
 4220TIP3    H112666   1.937   2.043   1.298  0.3654 -0.4851  0.1386
 4220TIP3    H212667   2.015   2.033   1.427  0.1824 -0.7555  0.2292
 4221TIP3   OH212668   2.095   3.079   4.012 -0.0244 -0.1719 -0.1431
 4221TIP3    H112669   2.070   3.098   4.103 -1.5643  2.8391 -1.0724
 4221TIP3    H212670   2.026   3.022   3.979  1.2242 -2.3805  0.8556
 4222TIP3   OH212671   3.810   0.454   1.033 -0.3671  0.3341 -0.2516
 4222TIP3    H112672   3.782   0.470   0.943  0.2842 -0.4718 -0.6084
 4222TIP3    H212673   3.868   0.528   1.053  0.1813  0.0611 -0.8030
 4223TIP3   OH212674   2.841   0.580   0.198 -0.1409  0.2975  0.0686
 4223TIP3    H112675   2.781   0.609   0.267  0.1995  1.4411 -0.1010
 4223TIP3    H212676   2.872   0.495   0.229 -1.2652  0.0244  0.5153
 4224TIP3   OH212677   4.997   2.913   0.609  0.2296 -0.3202 -0.1520
 4224TIP3    H112678   4.920   2.894   0.556  1.2005  1.1812 -2.2302
 4224TIP3    H212679   5.070   2.878   0.558  1.1165  0.2365  0.7140
 4225TIP3   OH212680   2.019   4.439   2.205  0.4771  0.0503  0.6953
 4225TIP3    H112681   2.078   4.456   2.278  1.4219  0.4364 -0.1309
 4225TIP3    H212682   2.052   4.358   2.165 -0.1339 -0.2510  0.7892
 4226TIP3   OH212683   4.001   5.574   1.341 -0.1640  1.2303  0.3085
 4226TIP3    H112684   3.973   5.586   1.432 -1.0262  1.6753 -0.0099
 4226TIP3    H212685   3.935   5.620   1.289  0.5135  1.2672 -0.5272
 4227TIP3   OH212686   5.336   2.494   1.599 -0.2786 -0.1450 -0.2986
 4227TIP3    H112687   5.352   2.506   1.692  0.5482 -1.6836 -0.2137
 4227TIP3    H212688   5.246   2.461   1.594 -0.3697  0.0662 -0.0600
 4228TIP3   OH212689   2.177   2.598   0.329  0.2050  0.2495 -0.5408
 4228TIP3    H112690   2.126   2.643   0.261  0.5654  0.5199 -0.6396
 4228TIP3    H212691   2.150   2.507   0.324 -0.3092  0.4011 -0.5523
 4229TIP3   OH212692   5.076   4.218   2.774  0.4003  0.2532  0.4172
 4229TIP3    H112693   5.103   4.183   2.689  0.1641  1.3502 -0.1352
 4229TIP3    H212694   4.985   4.190   2.785  0.9720 -1.4251  1.1728
 4230TIP3   OH212695   0.191   3.960   1.264  0.3043  0.1834 -0.6311
 4230TIP3    H112696   0.170   3.868   1.250  1.5908  0.1137 -2.4868
 4230TIP3    H212697   0.215   3.965   1.357 -1.5317 -0.9489 -0.0503
 4231TIP3   OH212698   2.068   1.060   0.760  0.1542  0.1887 -0.5826
 4231TIP3    H112699   2.001   1.089   0.822 -0.9432 -1.1965 -1.0617
 4231TIP3    H212700   2.021   1.052   0.677  1.2008  0.3194 -1.2006
 4232TIP3   OH212701   4.830   3.046   1.088 -0.1480 -0.0302 -0.2272
 4232TIP3    H112702   4.743   3.044   1.049  0.3928 -1.7613 -1.4412
 4232TIP3    H212703   4.815   3.077   1.177 -1.6461  2.2739 -1.1924
 4233TIP3   OH212704   4.726   2.899   4.536 -0.1081  0.1657 -0.2863
 4233TIP3    H112705   4.739   2.898   4.441  2.5990  0.4912  0.0048
 4233TIP3    H212706   4.772   2.821   4.567  2.5773  2.1072  1.0348
 4234TIP3   OH212707   4.429   5.002   5.042 -0.5189 -0.6112  0.2288
 4234TIP3    H112708   4.446   5.029   5.132  0.8713 -0.9234  0.0836
 4234TIP3    H212709   4.442   5.082   4.990 -0.1137 -0.7027  0.1860
 4235TIP3   OH212710   0.114   2.931   0.256  0.0925  0.8287  0.5151
 4235TIP3    H112711   0.059   3.002   0.289 -2.9947 -1.3038  0.3426
 4235TIP3    H212712   0.095   2.927   0.162  1.4617  0.7565  0.2212
 4236TIP3   OH212713   2.042   0.871   0.202  0.4731  0.0454  0.0985
 4236TIP3    H112714   2.066   0.842   0.114  1.8631  0.2980  0.3619
 4236TIP3    H212715   1.957   0.913   0.191  0.2746 -0.5943 -0.9831
 4237TIP3   OH212716   3.737   1.309   4.938 -0.0763  0.0593 -0.3927
 4237TIP3    H112717   3.698   1.313   5.026  1.3835  1.6171  0.2481
 4237TIP3    H212718   3.734   1.217   4.915 -3.0942 -0.0686  0.0396
 4238TIP3   OH212719   6.225   4.052   4.061  0.1770 -0.2619 -0.1004
 4238TIP3    H112720   6.158   4.117   4.038 -0.1074 -0.7820 -0.7689
 4238TIP3    H212721   6.199   3.973   4.013  1.1519 -0.5339 -0.1903
 4239TIP3   OH212722   2.655   0.989   4.926 -0.0034  0.0452 -0.0256
 4239TIP3    H112723   2.570   0.957   4.897  0.2517 -0.3372 -0.3638
 4239TIP3    H212724   2.635   1.048   4.999 -0.6109  0.6150 -0.6446
 4240TIP3   OH212725   2.993   2.463   5.034 -0.0485  0.1411  0.0235
 4240TIP3    H112726   3.019   2.494   4.947 -0.4174 -3.4864 -1.5723
 4240TIP3    H212727   3.061   2.495   5.092  0.5729  2.1533 -1.6952
 4241TIP3   OH212728   3.389   0.829   0.040  1.0254 -0.4084 -0.3762
 4241TIP3    H112729   3.350   0.742   0.028  0.9067 -0.7125  1.7337
 4241TIP3    H212730   3.429   0.824   0.127  0.5492  1.8339  0.0111
 4242TIP3   OH212731   3.502   2.231   1.068  0.5863  0.1839 -0.4084
 4242TIP3    H112732   3.495   2.211   0.975  0.0368  0.2365 -0.3786
 4242TIP3    H212733   3.527   2.324   1.071  0.4984  0.2097 -0.4965
 4243TIP3   OH212734   5.040   2.256   2.178 -0.1631 -1.1138  0.0429
 4243TIP3    H112735   5.123   2.210   2.165 -0.1285 -0.7432 -1.1173
 4243TIP3    H212736   4.979   2.214   2.117  0.0078  0.6999 -1.4363
 4244TIP3   OH212737   5.984   2.423   1.305  0.0072 -0.0632  0.8113
 4244TIP3    H112738   6.005   2.509   1.344 -1.2100  1.1243 -1.0253
 4244TIP3    H212739   5.927   2.443   1.231  0.1053 -2.4479  0.0049
 4245TIP3   OH212740   4.892   1.871   2.212 -0.5859  0.2391 -0.0486
 4245TIP3    H112741   4.831   1.938   2.243  0.2931  0.3330  1.6116
 4245TIP3    H212742   4.924   1.829   2.292  2.3216  0.9204 -0.7159
 4246TIP3   OH212743   3.708   4.195   4.998  0.0391  0.1493 -0.1055
 4246TIP3    H112744   3.692   4.270   5.055 -0.4468  0.5246 -0.7265
 4246TIP3    H212745   3.757   4.134   5.053  1.0729  1.2111  0.1916
 4247TIP3   OH212746   3.567   4.976   1.844  0.1190 -0.2987 -0.3876
 4247TIP3    H112747   3.611   4.904   1.889 -2.3175 -1.5396  0.1763
 4247TIP3    H212748   3.621   4.991   1.766  1.1213 -2.2307 -0.1415
 4248TIP3   OH212749   3.926   0.805   1.011 -0.2185  0.3049  0.3154
 4248TIP3    H112750   3.914   0.881   1.069  0.0150 -0.1405  0.9619
 4248TIP3    H212751   3.937   0.731   1.071 -2.5280 -0.5947 -0.3012
 4249TIP3   OH212752   4.533   0.774   3.425 -0.3786  0.5007  0.5683
 4249TIP3    H112753   4.595   0.796   3.356 -0.1617  0.8765  0.8793
 4249TIP3    H212754   4.457   0.738   3.379  0.4702 -0.9478  0.2422
 4250TIP3   OH212755   0.116   1.343   3.553 -0.6147 -0.1226  0.2455
 4250TIP3    H112756   0.065   1.410   3.506 -0.5141 -0.5210 -0.4413
 4250TIP3    H212757   0.198   1.387   3.574  0.0534 -0.4590 -1.5150
 4251TIP3   OH212758   1.818   1.115   0.211 -0.4454 -0.0337 -0.1558
 4251TIP3    H112759   1.741   1.168   0.190  0.3009  0.6821 -1.1617
 4251TIP3    H212760   1.837   1.066   0.131 -0.0625 -0.4813  0.2022
 4252TIP3   OH212761   2.965   5.437   3.259  0.7399  0.5853 -1.0624
 4252TIP3    H112762   2.913   5.473   3.187 -2.2364  0.6744  0.9532
 4252TIP3    H212763   2.911   5.366   3.294  2.4471  0.0194  0.5787
 4253TIP3   OH212764   5.408   5.826   2.851  0.2718 -0.2460  0.3858
 4253TIP3    H112765   5.343   5.893   2.875  0.5875  0.3642 -0.4298
 4253TIP3    H212766   5.426   5.781   2.933 -0.9028 -0.1740  0.7064
 4254TIP3   OH212767   2.189   2.484   1.752  0.1350  0.3431 -0.2175
 4254TIP3    H112768   2.129   2.429   1.702  0.6363  1.1739 -1.8410
 4254TIP3    H212769   2.142   2.505   1.833 -1.1101 -0.3018 -0.7538
 4255TIP3   OH212770   5.073   0.673   0.268  0.7371 -0.1511  0.4654
 4255TIP3    H112771   5.071   0.767   0.285 -0.8093  0.5237 -2.5540
 4255TIP3    H212772   5.137   0.663   0.198  1.7052 -1.5692  1.5060
 4256TIP3   OH212773   3.742   2.745   2.259  0.4830  0.2001  0.2017
 4256TIP3    H112774   3.652   2.753   2.225  0.0742 -0.4648  1.0764
 4256TIP3    H212775   3.746   2.811   2.329 -1.0455 -2.9383  3.5948
 4257TIP3   OH212776   5.941   3.050   0.635 -0.3463  0.3610  0.0318
 4257TIP3    H112777   6.033   3.078   0.640  0.2342 -1.6767  1.6092
 4257TIP3    H212778   5.894   3.113   0.690 -0.0337  1.6814 -1.1250
 4258TIP3   OH212779   4.773   3.350   2.630 -0.0578 -0.0384 -0.0751
 4258TIP3    H112780   4.731   3.283   2.576  0.4258  1.2306 -2.1418
 4258TIP3    H212781   4.859   3.314   2.649  0.0217 -0.2275 -0.7549
 4259TIP3   OH212782   1.755   5.740   3.469 -0.7846  0.1181  0.3200
 4259TIP3    H112783   1.848   5.734   3.450 -0.5051  2.3828  0.6827
 4259TIP3    H212784   1.712   5.727   3.384 -0.0155  1.1271 -0.2443
 4260TIP3   OH212785   0.764   1.861   1.577  0.4419  0.4912  0.5977
 4260TIP3    H112786   0.726   1.844   1.491  2.8825  1.0806 -0.6690
 4260TIP3    H212787   0.806   1.779   1.602 -1.9110 -0.3192  2.2242
 4261TIP3   OH212788   6.249   2.708   0.841 -0.5173 -0.2743  0.3497
 4261TIP3    H112789   6.240   2.617   0.867  0.5056 -0.2913  0.6922
 4261TIP3    H212790   6.287   2.704   0.753  0.4740 -0.1836  0.7611
 4262TIP3   OH212791   4.891   5.954   3.935  0.0201  0.1618  0.0468
 4262TIP3    H112792   4.890   5.929   4.028 -2.3324 -0.2455 -0.0179
 4262TIP3    H212793   4.798   5.964   3.912  0.5077 -0.2145 -2.3834
 4263TIP3   OH212794   1.767   0.565   1.654 -0.3628 -0.4371 -0.0812
 4263TIP3    H112795   1.857   0.538   1.640 -0.1835 -0.4260  0.9471
 4263TIP3    H212796   1.737   0.597   1.569  0.4941 -0.7439 -0.5044
 4264TIP3   OH212797   1.845   4.874   1.944  0.3452  0.2650 -0.3341
 4264TIP3    H112798   1.890   4.822   2.011 -0.9778  0.6606  0.9012
 4264TIP3    H212799   1.768   4.909   1.988 -0.2973  0.9660 -1.9383
 4265TIP3   OH212800   3.426   5.623   3.113  0.1991 -0.3615 -0.1857
 4265TIP3    H112801   3.370   5.678   3.168 -0.9535 -1.1811 -0.5116
 4265TIP3    H212802   3.515   5.652   3.133 -0.0595 -1.4616  3.0570
 4266TIP3   OH212803   5.643   0.729   4.034 -0.0044  0.0484  0.0313
 4266TIP3    H112804   5.716   0.667   4.033 -1.5743 -1.9248  0.6859
 4266TIP3    H212805   5.658   0.782   4.112  1.4312  0.6241 -0.5987
 4267TIP3   OH212806   0.092   0.576   0.914  0.2359  0.0432 -0.0070
 4267TIP3    H112807   0.060   0.503   0.968 -0.1678  1.0504  1.1578
 4267TIP3    H212808   0.185   0.582   0.935 -0.3471  1.9010  2.4541
 4268TIP3   OH212809   4.731   1.789   1.690 -0.4811 -0.1239 -0.5275
 4268TIP3    H112810   4.694   1.764   1.605 -1.5690  0.2632 -0.1916
 4268TIP3    H212811   4.678   1.864   1.718 -0.6217 -0.6817  0.8125
 4269TIP3   OH212812   5.686   5.820   2.758 -0.3657  0.4091 -0.5392
 4269TIP3    H112813   5.715   5.852   2.844  0.8093 -0.3625 -0.6282
 4269TIP3    H212814   5.591   5.816   2.765 -0.2243 -2.3033  1.7478
 4270TIP3   OH212815   0.928   1.967   0.645  0.5171  0.4454 -0.1920
 4270TIP3    H112816   0.988   1.909   0.598  0.9046 -0.2139  1.0740
 4270TIP3    H212817   0.875   2.007   0.577  1.1596 -0.3701 -1.1975
 4271TIP3   OH212818   4.380   0.264   1.109  0.5248  0.3738 -0.7923
 4271TIP3    H112819   4.365   0.170   1.108 -0.0853  0.4592 -0.4539
 4271TIP3    H212820   4.292   0.302   1.114  0.6608  0.9983 -2.4503
 4272TIP3   OH212821   4.916   4.854   3.158  0.4781  0.0166 -0.2889
 4272TIP3    H112822   5.002   4.842   3.117  0.7467  0.1573  0.2250
 4272TIP3    H212823   4.931   4.840   3.251 -0.2437 -0.8540 -0.2934
 4273TIP3   OH212824   0.714   3.120   0.694 -0.3849  0.2398 -0.0442
 4273TIP3    H112825   0.766   3.101   0.615 -0.8861 -0.7121 -0.1639
 4273TIP3    H212826   0.776   3.163   0.753  0.9124 -1.9384  0.2968
 4274TIP3   OH212827   4.884   4.491   4.525 -0.1929 -0.1143  0.0520
 4274TIP3    H112828   4.976   4.466   4.519 -0.0432  0.4800 -0.1778
 4274TIP3    H212829   4.881   4.561   4.590 -0.3523  0.4590 -0.5590
 4275TIP3   OH212830   5.296   0.382   2.985 -0.5378  0.5320 -0.3530
 4275TIP3    H112831   5.258   0.439   3.052  0.6438 -0.7151  1.4611
 4275TIP3    H212832   5.390   0.385   3.001 -0.4132 -1.6986 -0.3530
 4276TIP3   OH212833   4.915   3.555   1.932  0.4578 -0.2325  0.0698
 4276TIP3    H112834   4.990   3.552   1.872  1.6817  1.8584  1.3454
 4276TIP3    H212835   4.945   3.610   2.005 -2.3435  0.7206  0.6297
 4277TIP3   OH212836   5.248   4.077   2.953 -0.1238 -0.3932 -1.0542
 4277TIP3    H112837   5.339   4.107   2.942  0.2413 -0.6603  0.8653
 4277TIP3    H212838   5.196   4.142   2.906  0.9823  0.4686 -1.1367
 4278TIP3   OH212839   4.440   4.602   4.367 -0.0565  0.8004 -0.4534
 4278TIP3    H112840   4.414   4.622   4.277  1.9832  2.5087 -0.7470
 4278TIP3    H212841   4.495   4.676   4.393  0.9785 -0.5645  1.5140
 4279TIP3   OH212842   3.226   5.655   2.826  0.1903 -0.0394  0.3458
 4279TIP3    H112843   3.321   5.653   2.839  0.1783  0.9786  0.6678
 4279TIP3    H212844   3.202   5.748   2.832 -0.6790 -0.1570 -0.8420
 4280TIP3   OH212845   5.201   3.087   1.766  0.0945 -0.0748  0.1878
 4280TIP3    H112846   5.265   3.089   1.837 -0.5460  2.3199  0.7922
 4280TIP3    H212847   5.128   3.035   1.799  0.8551 -1.1395  0.2520
 4281TIP3   OH212848   5.168   2.970   3.370  0.2318 -0.2860  0.7344
 4281TIP3    H112849   5.127   3.048   3.333 -0.1526  0.0019  1.7402
 4281TIP3    H212850   5.106   2.900   3.351  1.5845 -0.8498 -2.1836
 4282TIP3   OH212851   2.241   3.326   4.985 -0.3752  0.6694  0.1415
 4282TIP3    H112852   2.222   3.237   4.955  2.2734 -0.0087  0.1961
 4282TIP3    H212853   2.196   3.332   5.069 -0.9980 -0.4398 -0.0825
 4283TIP3   OH212854   2.741   0.506   0.886  0.0074  0.0392 -0.2196
 4283TIP3    H112855   2.821   0.484   0.839  0.3041  0.9298 -0.1466
 4283TIP3    H212856   2.768   0.515   0.978 -0.7502 -2.7191  0.3637
 4284TIP3   OH212857   4.601   4.768   4.664 -0.6684 -0.3868 -0.0525
 4284TIP3    H112858   4.565   4.681   4.680 -2.0457  0.5168  2.1662
 4284TIP3    H212859   4.695   4.759   4.681 -0.6375 -1.6152 -0.7916
 4285TIP3   OH212860   2.164   0.621   3.118 -0.3726 -0.3941  0.6500
 4285TIP3    H112861   2.176   0.714   3.103  1.3394 -0.0202  3.5529
 4285TIP3    H212862   2.253   0.586   3.122 -0.9603 -2.0166  0.4427
 4286TIP3   OH212863   4.334   2.866   4.071 -0.1292 -0.5133 -0.6222
 4286TIP3    H112864   4.418   2.827   4.046  0.0200 -0.0514 -0.8490
 4286TIP3    H212865   4.314   2.928   4.001  0.7114  1.4363  0.7755
 4287TIP3   OH212866   5.755   5.023   0.083 -0.7564 -0.2760  0.0594
 4287TIP3    H112867   5.680   5.082   0.093  0.1684  1.0449 -0.4962
 4287TIP3    H212868   5.800   5.028   0.167 -0.7506 -0.3249  0.0596
 4288TIP3   OH212869   2.001   2.662   1.508  0.0344 -0.2968 -0.3192
 4288TIP3    H112870   2.024   2.576   1.542 -0.3710 -0.6193 -0.8491
 4288TIP3    H212871   1.955   2.644   1.426 -0.0652  0.4214 -0.4256
 4289TIP3   OH212872   1.166   4.171   2.300 -0.6508  0.1626 -0.5499
 4289TIP3    H112873   1.176   4.127   2.215  0.8345  1.2183 -0.9658
 4289TIP3    H212874   1.246   4.150   2.348 -0.9550  0.5305  0.1362
 4290TIP3   OH212875   1.763   5.090   1.720 -0.3174  0.0504  0.6059
 4290TIP3    H112876   1.833   5.041   1.763 -1.2532 -3.0419 -1.0530
 4290TIP3    H212877   1.685   5.036   1.733 -1.7354  1.7794 -0.2877
 4291TIP3   OH212878   4.731   1.136   1.124  0.4009  0.4840  0.1448
 4291TIP3    H112879   4.811   1.179   1.094  0.6071  1.0895  1.4854
 4291TIP3    H212880   4.762   1.068   1.185 -0.0229 -0.4514 -0.6581
 4292TIP3   OH212881   2.368   1.935   0.115  0.0841  0.5185 -0.2679
 4292TIP3    H112882   2.371   1.928   0.210 -2.3964  0.9742 -0.0863
 4292TIP3    H212883   2.418   1.859   0.084 -0.4876 -0.6155  1.4097
 4293TIP3   OH212884   4.042   3.115   0.593  0.7149 -0.1270  0.2617
 4293TIP3    H112885   4.027   3.084   0.682  1.4056  0.0721  0.4607
 4293TIP3    H212886   4.138   3.111   0.583  0.8730  2.0367  0.3607
 4294TIP3   OH212887   5.721   3.604   2.337 -0.2041 -0.1243 -0.3842
 4294TIP3    H112888   5.728   3.698   2.317 -1.2374 -0.1024 -0.6955
 4294TIP3    H212889   5.801   3.566   2.300 -0.5467  0.4007 -1.7365
 4295TIP3   OH212890   1.512   0.436   2.745  0.3265  0.3320  0.0576
 4295TIP3    H112891   1.559   0.426   2.828  1.3499  0.7879 -0.4380
 4295TIP3    H212892   1.462   0.355   2.736  0.1505  0.3014  1.1447
 4296TIP3   OH212893   5.386   3.159   2.123  0.3794  0.2804 -0.0874
 4296TIP3    H112894   5.365   3.252   2.131  0.5242  0.2710  0.4385
 4296TIP3    H212895   5.474   3.150   2.158  1.1921  0.2585 -2.0032
 4297TIP3   OH212896   1.195   3.805   3.581 -1.0052  0.3815 -0.1563
 4297TIP3    H112897   1.164   3.882   3.534  1.4651  2.1550  0.8740
 4297TIP3    H212898   1.149   3.808   3.665 -0.0550  1.5298  0.3654
 4298TIP3   OH212899   0.433   1.634   3.896  0.1200  0.2223 -0.6320
 4298TIP3    H112900   0.509   1.579   3.878  2.0078  1.8505  1.7093
 4298TIP3    H212901   0.441   1.707   3.834 -1.0626 -0.8411 -2.1215
 4299TIP3   OH212902   2.208   0.127   2.933  0.1253  0.8390 -0.1107
 4299TIP3    H112903   2.165   0.142   3.017  2.1304  1.5597  0.8483
 4299TIP3    H212904   2.165   0.188   2.873 -0.3957  1.2973  0.7132
 4300TIP3   OH212905   0.481   3.167   1.592 -0.0602  0.3499  0.1269
 4300TIP3    H112906   0.520   3.183   1.506  0.4993 -0.1986  0.2730
 4300TIP3    H212907   0.410   3.105   1.575  0.9865 -0.9283  0.2395
 4301TIP3   OH212908   2.752   5.583   3.160  0.4756  0.9063  0.2257
 4301TIP3    H112909   2.745   5.603   3.067 -0.2664  0.4873  0.1819
 4301TIP3    H212910   2.672   5.618   3.198  1.1241  1.7424  0.8385
 4302TIP3   OH212911   5.187   4.726   0.652  0.5895  0.3607  0.0797
 4302TIP3    H112912   5.277   4.731   0.684  1.6522  3.0889 -2.8374
 4302TIP3    H212913   5.146   4.806   0.685 -0.1066  0.1925 -0.3589
 4303TIP3   OH212914   1.145   3.579   4.097  0.2823  0.3422 -0.3350
 4303TIP3    H112915   1.131   3.621   4.182  1.0399  0.3345 -0.1974
 4303TIP3    H212916   1.220   3.520   4.112  2.3056  2.4009 -1.7083
 4304TIP3   OH212917   2.138   5.820   0.673 -0.0329 -0.3892 -0.2633
 4304TIP3    H112918   2.154   5.914   0.683  0.6946 -0.4662 -0.6651
 4304TIP3    H212919   2.057   5.815   0.621  0.4264  0.0187 -1.0288
 4305TIP3   OH212920   2.168   5.822   0.979  0.0340  0.1200 -0.1589
 4305TIP3    H112921   2.093   5.774   1.016 -0.6038  0.8987 -0.4204
 4305TIP3    H212922   2.159   5.810   0.884  0.6302 -0.3370 -0.1664
 4306TIP3   OH212923   6.118   2.093   4.914 -0.0995 -0.2276 -0.5986
 4306TIP3    H112924   6.155   2.078   5.001  0.0533  2.0860 -0.2125
 4306TIP3    H212925   6.191   2.078   4.854 -0.1907 -1.7854 -0.3678
 4307TIP3   OH212926   0.836   5.927  -0.010  0.6802  0.0603 -0.0183
 4307TIP3    H112927   0.920   5.963   0.019  0.7496 -0.7970  0.9137
 4307TIP3    H212928   0.771   5.966   0.049  0.9131 -2.3351  2.0054
 4308TIP3   OH212929   2.439   5.113   1.094 -0.8623  0.7694  0.1486
 4308TIP3    H112930   2.471   5.033   1.135 -0.8919  0.0614 -1.1395
 4308TIP3    H212931   2.503   5.132   1.025 -2.1157  0.4673 -1.1511
 4309TIP3   OH212932   5.802   4.060   2.606 -0.0529 -0.2432  0.2452
 4309TIP3    H112933   5.822   4.138   2.555 -0.0265  0.8385  1.8581
 4309TIP3    H212934   5.874   4.054   2.669 -1.0330 -0.4788  1.3687
 4310TIP3   OH212935   1.599   6.009   0.500 -0.0189 -0.4114 -0.0301
 4310TIP3    H112936   1.602   5.966   0.585  0.8803 -1.1124 -0.4025
 4310TIP3    H212937   1.612   5.939   0.436 -0.5194  0.1280 -0.7483
 4311TIP3   OH212938   5.433   3.748   2.834 -0.0510  0.0275  0.0699
 4311TIP3    H112939   5.492   3.689   2.881 -0.7016 -0.2817  0.5099
 4311TIP3    H212940   5.462   3.836   2.857 -0.8149 -0.1130  1.6563
 4312TIP3   OH212941   1.499   1.134   3.859  0.6091 -0.1627 -0.3049
 4312TIP3    H112942   1.504   1.109   3.767 -0.3307 -0.3958 -0.2978
 4312TIP3    H212943   1.535   1.058   3.906 -0.9298 -0.9852 -0.3699
 4313TIP3   OH212944   1.651   3.065   5.002  0.0246  0.5020  0.0840
 4313TIP3    H112945   1.708   3.042   4.929 -0.8150  1.7344 -0.9968
 4313TIP3    H212946   1.588   2.994   5.007  0.7009 -0.0947  0.2826
 4314TIP3   OH212947   1.391   1.309   3.138 -0.0572 -0.5459  0.3171
 4314TIP3    H112948   1.454   1.241   3.160  2.0858  0.9473 -0.8524
 4314TIP3    H212949   1.415   1.337   3.050 -2.3611  0.1312 -0.1564
 4315TIP3   OH212950   4.500   1.280   2.630  0.0294  0.3058  0.0237
 4315TIP3    H112951   4.488   1.186   2.627  0.6150  0.2227  0.0729
 4315TIP3    H212952   4.594   1.293   2.617  0.0627  0.8381  0.6808
 4316TIP3   OH212953   4.647   5.641   0.497  0.2668  0.2354  0.0091
 4316TIP3    H112954   4.577   5.604   0.551 -0.2954 -0.0775 -0.9088
 4316TIP3    H212955   4.651   5.734   0.523  0.5460 -0.0786  1.1292
 4317TIP3   OH212956   1.750   3.663   1.918 -0.0482 -0.2581  0.2999
 4317TIP3    H112957   1.656   3.651   1.907 -0.0405  0.7619 -1.1714
 4317TIP3    H212958   1.764   3.653   2.012 -1.2811 -2.5160  0.3092
 4318TIP3   OH212959   4.167   1.955   2.167 -0.3053  0.1857  0.2446
 4318TIP3    H112960   4.073   1.946   2.148 -0.6779  4.3094 -0.7135
 4318TIP3    H212961   4.171   1.965   2.262 -0.5771 -1.6228  0.4850
 4319TIP3   OH212962   3.681   4.997   3.195 -0.0740 -0.2847  0.1509
 4319TIP3    H112963   3.752   4.942   3.162 -0.1935  0.5162 -1.5658
 4319TIP3    H212964   3.655   4.957   3.278  2.4814 -0.5025  0.9277
 4320TIP3   OH212965   1.142   4.214   1.292 -0.2103  0.0461  0.4641
 4320TIP3    H112966   1.087   4.266   1.351 -0.9626  0.2480 -0.3946
 4320TIP3    H212967   1.107   4.232   1.205  1.0137 -0.0882 -0.0734
 4321TIP3   OH212968   2.921   0.240   4.864 -0.5271  0.5780  0.2923
 4321TIP3    H112969   3.003   0.190   4.857 -0.9016 -0.2114  1.3001
 4321TIP3    H212970   2.852   0.174   4.859 -1.0674  1.1227  0.4888
 4322TIP3   OH212971   2.570   1.199   2.357  0.7560 -0.6671 -0.3429
 4322TIP3    H112972   2.514   1.156   2.293 -0.8706 -0.7054  1.0334
 4322TIP3    H212973   2.602   1.127   2.413  0.2662 -0.3978  0.2913
 4323TIP3   OH212974   0.233   3.476   1.340  0.0797 -0.3164 -0.2089
 4323TIP3    H112975   0.164   3.432   1.389  0.9966 -1.4228  0.1267
 4323TIP3    H212976   0.302   3.491   1.404  0.9138 -0.9218 -0.9500
 4324TIP3   OH212977   5.899   1.306   0.629  0.2102  0.2543  0.5644
 4324TIP3    H112978   5.940   1.377   0.679  0.3790  1.3927 -1.1069
 4324TIP3    H212979   5.899   1.337   0.539 -0.9113 -1.3431 -0.0358
 4325TIP3   OH212980   0.352   5.296   2.417 -0.3903  0.1948  0.4588
 4325TIP3    H112981   0.399   5.279   2.499  0.1137  0.2056  0.1714
 4325TIP3    H212982   0.317   5.384   2.429 -0.8344 -0.0364  0.9077
 4326TIP3   OH212983   5.988   0.055   3.882  0.2018  0.1501  0.2722
 4326TIP3    H112984   5.966  -0.021   3.828 -0.2826 -0.4385  1.2644
 4326TIP3    H212985   6.050   0.021   3.947  0.8165  0.8563  0.0620
 4327TIP3   OH212986   1.137   4.834   1.239 -0.0342  0.5629  0.1492
 4327TIP3    H112987   1.192   4.890   1.294 -0.9836  0.9593  0.7176
 4327TIP3    H212988   1.192   4.814   1.163  0.1906  2.6431 -0.3045
 4328TIP3   OH212989   1.901   0.129   2.484  0.0401  0.1299  0.4382
 4328TIP3    H112990   1.862   0.158   2.401 -0.0345  0.5139  0.6050
 4328TIP3    H212991   1.985   0.091   2.459  1.0753  2.3338  0.4002
 4329TIP3   OH212992   6.278   3.391   0.868 -1.2778  0.3197 -0.4299
 4329TIP3    H112993   6.303   3.332   0.797  0.2015 -0.8935  1.0139
 4329TIP3    H212994   6.194   3.427   0.841 -1.8526 -1.8493 -1.7695
 4330TIP3   OH212995   3.122   5.409   2.795  0.1444  0.3022 -0.5166
 4330TIP3    H112996   3.170   5.394   2.877 -0.0429  2.2910 -0.0114
 4330TIP3    H212997   3.136   5.501   2.775  0.3723 -0.1866 -2.8859
 4331TIP3   OH212998   1.233   5.577   4.886  0.6775 -0.6243 -0.3992
 4331TIP3    H112999   1.252   5.669   4.899 -0.5340 -0.3272 -0.6220
 4331TIP3    H213000   1.313   5.532   4.911  1.7239  0.5532 -1.4935
 4332TIP3   OH213001   0.427   3.635   0.979  0.5221 -0.0089 -0.0745
 4332TIP3    H113002   0.413   3.702   1.045 -0.0942 -1.3727  1.2499
 4332TIP3    H213003   0.339   3.617   0.944  0.7760  0.3490 -0.9136
 4333TIP3   OH213004   4.982   1.776   1.350  0.3509  0.3557  0.4423
 4333TIP3    H113005   4.973   1.868   1.374  1.6028  0.1990  1.6145
 4333TIP3    H213006   4.892   1.744   1.341 -0.1065  1.3711  1.2681
 4334TIP3   OH213007   5.381   0.701   3.996 -0.6250 -0.6300 -0.0893
 4334TIP3    H113008   5.358   0.781   4.043 -0.8378 -1.2414  0.8867
 4334TIP3    H213009   5.477   0.702   3.994 -0.5825  1.2560 -3.0009
 4335TIP3   OH213010   0.135   4.699   1.832 -0.4859 -0.7108 -0.0037
 4335TIP3    H113011   0.134   4.603   1.834 -1.8357 -0.7004  1.2980
 4335TIP3    H213012   0.205   4.723   1.893  1.0916 -0.8235 -1.6623
 4336TIP3   OH213013   2.951   3.571   4.371  0.6761  0.7749 -0.3024
 4336TIP3    H113014   2.952   3.475   4.370  0.6068  0.7727 -0.1018
 4336TIP3    H213015   2.936   3.594   4.462 -1.2838  0.9506 -0.6226
 4337TIP3   OH213016   2.451   1.097   1.782  0.3777  0.4314 -0.0133
 4337TIP3    H113017   2.452   1.192   1.773 -0.2115  0.4189 -0.2078
 4337TIP3    H213018   2.405   1.066   1.704  1.5736 -0.0844 -0.5450
 4338TIP3   OH213019   0.878   3.920   0.198 -0.5614  0.3959 -0.0925
 4338TIP3    H113020   0.943   3.963   0.143 -0.5528  1.0693  0.4203
 4338TIP3    H213021   0.810   3.987   0.211 -1.2206 -0.2046 -0.4011
 4339TIP3   OH213022   6.157   5.910   1.532  0.0424 -0.3687  0.2138
 4339TIP3    H113023   6.210   5.880   1.458 -0.6047 -0.9828 -0.0112
 4339TIP3    H213024   6.080   5.951   1.491 -1.0116 -1.9457  0.5088
 4340TIP3   OH213025   4.499   1.515   3.895 -0.4925  0.0070 -0.1956
 4340TIP3    H113026   4.433   1.573   3.933 -1.5463 -0.3531 -1.4078
 4340TIP3    H213027   4.582   1.551   3.925 -1.1549  1.5791 -0.1273
 4341TIP3   OH213028   4.829   2.554   0.340 -0.2806  0.3348 -0.2929
 4341TIP3    H113029   4.856   2.633   0.387  0.2921  0.3871 -0.6896
 4341TIP3    H213030   4.764   2.513   0.396  1.7126 -0.6034  1.4605
 4342TIP3   OH213031   4.237   4.174   0.542 -0.3778 -0.3290 -0.2530
 4342TIP3    H113032   4.162   4.156   0.599 -1.5017 -0.5262 -1.7119
 4342TIP3    H213033   4.262   4.088   0.508  0.2502 -0.2117 -0.0890
 4343TIP3   OH213034   4.162   1.599   0.527  0.5837 -0.2298 -0.2076
 4343TIP3    H113035   4.192   1.586   0.436 -1.1689  0.4653 -0.9210
 4343TIP3    H213036   4.226   1.550   0.580  1.0104 -1.6041 -1.8831
 4344TIP3   OH213037   0.533   5.071   4.244 -0.2579 -0.4707  0.0279
 4344TIP3    H113038   0.507   5.042   4.157  1.8675 -0.5081 -0.6413
 4344TIP3    H213039   0.455   5.115   4.279 -0.4297  1.7001 -2.8214
 4345TIP3   OH213040   0.072   0.505   3.667 -0.5588  0.2821  0.3343
 4345TIP3    H113041   0.059   0.543   3.581 -1.9239 -0.1447  0.3217
 4345TIP3    H213042   0.160   0.532   3.693 -0.1029  0.3670 -1.2023
 4346TIP3   OH213043   5.461   3.937   2.569  0.8667  0.3202  0.0877
 4346TIP3    H113044   5.472   3.954   2.663 -2.0025 -0.6818  0.7006
 4346TIP3    H213045   5.478   3.844   2.560  0.4621  0.2764 -0.2423
 4347TIP3   OH213046   1.237   4.652   4.313  0.0280  0.4051 -0.3722
 4347TIP3    H113047   1.322   4.613   4.294 -0.2375 -0.0218 -0.7336
 4347TIP3    H213048   1.175   4.599   4.262 -0.6199 -0.1964  1.0028
 4348TIP3   OH213049   5.615   4.053   1.514 -0.6724 -0.4896 -0.2549
 4348TIP3    H113050   5.604   3.985   1.581 -0.0941  0.1190  0.4653
 4348TIP3    H213051   5.579   4.132   1.554 -0.6767 -0.2086 -0.8131
 4349TIP3   OH213052   5.775   2.178   1.183  0.0980  0.0569 -0.1853
 4349TIP3    H113053   5.869   2.169   1.169  0.4512 -0.7761  2.3051
 4349TIP3    H213054   5.736   2.116   1.122  1.4435 -2.6862  1.5425
 4350TIP3   OH213055   1.730   2.214   0.977  0.2963 -0.5441  0.5840
 4350TIP3    H113056   1.793   2.285   0.971 -1.0699  0.5764 -1.7690
 4350TIP3    H213057   1.743   2.163   0.897 -1.9373 -0.1099 -0.1110
 4351TIP3   OH213058   6.138   1.425   3.349 -0.1390 -0.2830 -0.7203
 4351TIP3    H113059   6.063   1.433   3.409  1.1141 -0.5442  0.9759
 4351TIP3    H213060   6.132   1.336   3.314 -0.2340 -0.5699 -0.0007
 4352TIP3   OH213061   3.650   1.516   0.144  0.0891  0.5279 -0.3070
 4352TIP3    H113062   3.644   1.421   0.140  0.6620  0.4554  0.4023
 4352TIP3    H213063   3.711   1.534   0.216 -1.8083  1.4658  1.1559
 4353TIP3   OH213064   5.810   1.327   1.663  0.3893 -0.3727  0.0309
 4353TIP3    H113065   5.772   1.325   1.575  1.2685  0.4203 -0.3971
 4353TIP3    H213066   5.754   1.271   1.715 -3.1144  2.8338  0.1541
 4354TIP3   OH213067   5.862   0.800  -0.006  0.3157  0.0122  0.2951
 4354TIP3    H113068   5.830   0.890   0.004  1.6987  0.5282  0.2779
 4354TIP3    H213069   5.784   0.746   0.006 -0.5199  1.2024  0.4506
 4355TIP3   OH213070   3.295   0.513   2.318  0.2565 -0.4575 -0.5553
 4355TIP3    H113071   3.257   0.600   2.319  0.4733 -0.3585 -0.7940
 4355TIP3    H213072   3.245   0.464   2.383  0.9148  0.1670  0.4459
 4356TIP3   OH213073   2.158   3.807   2.041 -0.4110 -0.3624  0.4001
 4356TIP3    H113074   2.108   3.768   2.113 -1.5250 -0.8194 -0.5916
 4356TIP3    H213075   2.104   3.880   2.011  0.2957  0.1499  0.3675
 4357TIP3   OH213076   4.403   3.919   4.602  0.0645  0.1295 -0.2689
 4357TIP3    H113077   4.420   3.842   4.656  1.0789  1.2003  0.9925
 4357TIP3    H213078   4.426   3.891   4.513  1.0951 -0.8154  0.2688
 4358TIP3   OH213079   0.328   5.606   3.401 -0.1634 -0.5359 -0.0012
 4358TIP3    H113080   0.235   5.629   3.405  0.0856  0.4130  0.8921
 4358TIP3    H213081   0.337   5.531   3.460 -0.7124 -2.0359 -1.7447
 4359TIP3   OH213082   3.217   3.743   5.157 -0.1188 -0.2870 -0.3473
 4359TIP3    H113083   3.166   3.684   5.101  2.6241 -1.7234 -1.5277
 4359TIP3    H213084   3.280   3.686   5.202  1.7845  1.5540 -0.5152
 4360TIP3   OH213085   5.046   5.224   1.647  0.1743  0.5072  0.1255
 4360TIP3    H113086   5.001   5.195   1.726 -1.6810  0.4709 -0.9055
 4360TIP3    H213087   5.116   5.282   1.680  0.0317 -0.2198  1.8188
 4361TIP3   OH213088   0.404   2.111   3.700  0.0281 -0.5666 -0.8464
 4361TIP3    H113089   0.319   2.154   3.708  0.7707  0.6674  0.9149
 4361TIP3    H213090   0.466   2.182   3.688  0.8940 -1.4330 -1.7988
 4362TIP3   OH213091   0.450   2.992   2.352 -0.2863  0.1162  0.1686
 4362TIP3    H113092   0.398   2.917   2.382 -0.5064  0.1832 -0.0436
 4362TIP3    H213093   0.528   2.952   2.314  0.0113  0.0326  0.8530
 4363TIP3   OH213094   3.616   5.887   0.600  0.1083  0.1207 -0.0997
 4363TIP3    H113095   3.640   5.801   0.634 -0.2523  0.7444  1.9070
 4363TIP3    H213096   3.697   5.923   0.565  0.5402 -0.5553  0.1948
 4364TIP3   OH213097   2.903   3.176   2.297 -0.4295  0.1391  0.3314
 4364TIP3    H113098   2.813   3.148   2.278 -0.0900 -0.9289  0.2162
 4364TIP3    H213099   2.898   3.271   2.301 -1.6399  0.0872  0.6668
 4365TIP3   OH213100   5.414   1.082   2.803 -0.5038  0.3035 -0.0381
 4365TIP3    H113101   5.333   1.059   2.849 -0.5351 -0.5123 -0.4814
 4365TIP3    H213102   5.385   1.106   2.715 -0.5330  2.6491  0.5391
 4366TIP3   OH213103   0.701   5.209   3.123 -0.3540 -0.0054 -0.5788
 4366TIP3    H113104   0.657   5.168   3.198 -0.2035 -1.4467 -1.2525
 4366TIP3    H213105   0.788   5.171   3.122  0.8477  2.4591  0.4379
 4367TIP3   OH213106   4.664   2.601   2.913  0.3951 -0.7775  0.4464
 4367TIP3    H113107   4.608   2.524   2.913 -1.1432  0.3052  0.5225
 4367TIP3    H213108   4.733   2.580   2.850  0.1224 -2.2813  0.6154
 4368TIP3   OH213109   2.738   5.342   2.119  0.2446 -0.1173  0.2707
 4368TIP3    H113110   2.752   5.435   2.140 -0.4999  0.1679 -0.4226
 4368TIP3    H213111   2.700   5.305   2.199 -0.8836  0.5384  0.0530
 4369TIP3   OH213112   1.791   0.920   3.672  0.4141 -0.4402  0.1696
 4369TIP3    H113113   1.760   1.004   3.636  0.5021 -0.8830 -0.9834
 4369TIP3    H213114   1.884   0.935   3.690 -0.0610  0.4278  2.2384
 4370TIP3   OH213115   0.145   4.995   2.315 -0.4369  0.2359  0.0772
 4370TIP3    H113116   0.174   5.065   2.256 -0.9136  0.6560  0.3329
 4370TIP3    H213117   0.210   4.994   2.385 -0.6597  0.7157  0.2942
 4371TIP3   OH213118   5.791   2.133   4.866 -0.5217 -0.4151  0.0014
 4371TIP3    H113119   5.871   2.105   4.910 -0.2820  0.4204  0.1225
 4371TIP3    H213120   5.791   2.229   4.875 -2.2187 -0.4700  1.2300
 4372TIP3   OH213121   5.056   0.943   3.250  0.4164 -0.0572 -0.0512
 4372TIP3    H113122   5.047   0.880   3.179  2.0647  0.9392 -1.2221
 4372TIP3    H213123   5.032   1.027   3.211  1.2043  0.4849  0.5860
 4373TIP3   OH213124   6.037   4.804   1.699 -0.1223  0.0957  0.5999
 4373TIP3    H113125   6.128   4.781   1.680  0.4993  1.3811  1.8763
 4373TIP3    H213126   6.031   4.897   1.677 -1.3637 -0.1606 -0.2216
 4374TIP3   OH213127   3.381   2.481   2.785 -0.1183  0.2330 -0.1804
 4374TIP3    H113128   3.335   2.555   2.746 -0.4122  0.5848  0.8074
 4374TIP3    H213129   3.391   2.505   2.877  0.2855 -0.7114  0.0302
 4375TIP3   OH213130   2.578   0.432   4.897  0.5001 -0.0240  0.3177
 4375TIP3    H113131   2.594   0.377   4.820  0.5489  1.0626 -0.4705
 4375TIP3    H213132   2.571   0.370   4.970  0.4412 -1.0746 -0.5589
 4376TIP3   OH213133   5.108   2.598   0.818  0.0480 -0.3172 -0.0780
 4376TIP3    H113134   5.116   2.692   0.832  1.2126 -0.2914 -0.8079
 4376TIP3    H213135   5.198   2.566   0.815 -0.2782 -1.1873 -1.5168
 4377TIP3   OH213136   0.039   4.958   2.763 -0.2856  0.2635 -0.6482
 4377TIP3    H113137   0.024   5.005   2.681 -1.1761 -1.2038 -1.3632
 4377TIP3    H213138  -0.048   4.944   2.800  0.1092  1.0009  0.6312
 4378TIP3   OH213139   0.040   4.205   3.878 -0.0188  0.2388  0.2369
 4378TIP3    H113140   0.059   4.194   3.971  1.2059 -1.1072 -0.1419
 4378TIP3    H213141   0.008   4.119   3.849  0.5973  0.3434 -0.7984
 4379TIP3   OH213142   0.552   0.732   0.704  0.1277  0.0622 -0.3378
 4379TIP3    H113143   0.513   0.760   0.621  1.3311 -4.0123 -2.5937
 4379TIP3    H213144   0.641   0.767   0.701  0.3348 -0.4997 -1.0812
 4380TIP3   OH213145   5.252   2.508   3.434  0.0845 -0.0327  0.5049
 4380TIP3    H113146   5.158   2.516   3.419  0.2368  1.9643  0.2771
 4380TIP3    H213147   5.259   2.449   3.509 -1.3113 -0.5929  0.2308
 4381TIP3   OH213148   5.187   4.320   3.191  0.2982 -0.4535 -0.6112
 4381TIP3    H113149   5.164   4.372   3.114  0.7981  0.2260 -0.3154
 4381TIP3    H213150   5.128   4.245   3.188 -1.2490  0.6882 -0.4546
 4382TIP3   OH213151   1.831   1.293   5.064  0.1175 -0.2339  0.4400
 4382TIP3    H113152   1.777   1.215   5.074  1.3929 -0.9781  1.9550
 4382TIP3    H213153   1.769   1.366   5.064 -1.1069 -1.2061 -1.1774
 4383TIP3   OH213154   2.224   0.874   0.401 -0.1184 -0.2305 -0.0075
 4383TIP3    H113155   2.275   0.793   0.393 -0.2739 -0.1682 -2.5586
 4383TIP3    H213156   2.150   0.861   0.342  0.3958  2.1145 -1.2957
 4384TIP3   OH213157   2.938   3.637   0.830 -0.3697 -0.3127 -0.1677
 4384TIP3    H113158   3.022   3.653   0.872 -0.5275 -1.0421  0.4498
 4384TIP3    H213159   2.900   3.564   0.879 -1.6760  0.4601  0.0219
 4385TIP3   OH213160   1.436   1.457   3.359  0.5934 -0.6361  0.2332
 4385TIP3    H113161   1.428   1.398   3.284  0.6569 -0.3493 -0.0046
 4385TIP3    H213162   1.478   1.405   3.427 -0.2922 -1.1793  0.3820
 4386TIP3   OH213163   5.773   0.448   0.473  0.3795  0.0674  0.5546
 4386TIP3    H113164   5.841   0.509   0.446  1.1044 -0.8448  0.2357
 4386TIP3    H213165   5.773   0.452   0.569  0.5201  0.4572  0.5380
 4387TIP3   OH213166   3.912   5.404   2.933 -0.3504  0.0764  0.2831
 4387TIP3    H113167   3.947   5.364   3.012  1.6304  1.0708 -0.0417
 4387TIP3    H213168   3.923   5.498   2.946 -0.7156  0.2902 -0.8421
 4388TIP3   OH213169   2.134   1.834   2.113 -0.2988 -0.1856  0.5811
 4388TIP3    H113170   2.172   1.911   2.155 -0.6273 -0.3779  1.2498
 4388TIP3    H213171   2.208   1.778   2.092  0.2697  1.4288 -2.3653
 4389TIP3   OH213172   2.934   1.194   2.968 -0.3890 -0.0808 -0.0134
 4389TIP3    H113173   2.919   1.182   2.874 -1.1759 -0.7770  0.1920
 4389TIP3    H213174   3.005   1.258   2.973  0.1925 -0.6211 -1.0955
 4390TIP3   OH213175   1.967   4.504   4.754  0.4673 -0.2709 -0.0475
 4390TIP3    H113176   2.047   4.548   4.727 -0.4074  0.8697 -0.9183
 4390TIP3    H213177   1.948   4.442   4.685  0.5482 -0.4772  0.1145
 4391TIP3   OH213178   1.709   5.196   0.678  0.5310 -0.4527  0.2621
 4391TIP3    H113179   1.747   5.114   0.646 -0.3257  0.0990 -2.5200
 4391TIP3    H213180   1.749   5.263   0.623 -0.0002  0.8021  1.3646
 4392TIP3   OH213181   2.475   5.491   3.121 -0.2640  0.4431 -0.5541
 4392TIP3    H113182   2.407   5.502   3.055 -2.5071 -1.6112  1.2465
 4392TIP3    H213183   2.543   5.439   3.077 -0.8450  0.6448 -1.7338
 4393TIP3   OH213184   0.074   5.216   3.935  0.2808  0.3979 -0.7243
 4393TIP3    H113185   0.060   5.135   3.984  2.4408  0.6596  0.4361
 4393TIP3    H213186  -0.013   5.256   3.930 -0.2447 -0.1756  2.0283
 4394TIP3   OH213187   3.049   5.824   3.432  0.2763 -0.1307  0.0220
 4394TIP3    H113188   3.015   5.909   3.406  0.5823 -0.1059 -0.3104
 4394TIP3    H213189   3.142   5.839   3.450  0.3965 -0.4475 -0.3130
 4395TIP3   OH213190   3.121   5.896   3.795 -0.9910  0.2221 -1.0608
 4395TIP3    H113191   3.102   5.805   3.772 -3.7419  0.1340  0.9858
 4395TIP3    H213192   3.068   5.947   3.734 -0.7718  0.4027 -1.1015
 4396TIP3   OH213193   0.909   0.236   4.736 -0.6520 -0.1460 -0.0208
 4396TIP3    H113194   0.988   0.203   4.695  0.0695  0.5991  0.7288
 4396TIP3    H213195   0.934   0.321   4.773 -1.7826  0.0807  0.2770
 4397TIP3   OH213196   2.263   2.777   4.511  0.2040  0.5644 -0.4636
 4397TIP3    H113197   2.215   2.756   4.591 -0.2046  0.6777 -0.6815
 4397TIP3    H213198   2.257   2.872   4.504 -1.2653  0.4164 -1.5704
 4398TIP3   OH213199   1.063   4.355   2.062 -0.0671  0.7785 -0.5657
 4398TIP3    H113200   1.084   4.338   2.154  0.8395 -0.4481 -0.9736
 4398TIP3    H213201   1.097   4.443   2.046  1.7823  0.1560 -0.2860
 4399TIP3   OH213202   5.712   4.609   3.832  0.2223  0.5014  0.6036
 4399TIP3    H113203   5.690   4.575   3.919  0.1758  0.5783  0.6220
 4399TIP3    H213204   5.637   4.587   3.777  1.1430 -1.5017  0.0382
 4400TIP3   OH213205   0.540   1.336   4.730 -0.6675  0.4432  0.0792
 4400TIP3    H113206   0.566   1.425   4.705 -1.1410  0.3654 -0.7230
 4400TIP3    H213207   0.543   1.337   4.826 -0.7476  1.3542  0.0877
 4401TIP3   OH213208   1.675   0.580   4.681  0.1681  0.1193  0.1808
 4401TIP3    H113209   1.740   0.568   4.612  0.0604 -1.6155  0.3473
 4401TIP3    H213210   1.628   0.497   4.685 -1.1307  0.8587  1.0304
 4402TIP3   OH213211   1.577   4.495   3.270  0.1636  0.0942 -0.3905
 4402TIP3    H113212   1.568   4.401   3.257  0.6133  0.1971 -1.6568
 4402TIP3    H213213   1.492   4.531   3.247  0.1083  0.0281 -0.2883
 4403TIP3   OH213214   1.557   2.358   2.841 -0.3915 -0.1978 -0.6712
 4403TIP3    H113215   1.623   2.385   2.904 -0.5953 -1.6708  0.2087
 4403TIP3    H213216   1.592   2.278   2.802 -0.1469  0.8135 -2.6632
 4404TIP3   OH213217   4.602   3.193   2.454 -0.0531  0.2802  0.3309
 4404TIP3    H113218   4.560   3.133   2.393  1.2005 -2.5782  2.0935
 4404TIP3    H213219   4.530   3.229   2.506 -0.9465  1.4097 -1.6083
 4405TIP3   OH213220   4.385   4.249   3.158 -0.0639 -0.0088  0.0138
 4405TIP3    H113221   4.367   4.160   3.187  0.5057 -0.4787 -1.0151
 4405TIP3    H213222   4.469   4.271   3.197 -0.6596  0.4714  1.0788
 4406TIP3   OH213223   4.228   2.600   3.242 -0.0708  0.0606  0.2808
 4406TIP3    H113224   4.283   2.639   3.311  2.3211  0.5928 -1.7732
 4406TIP3    H213225   4.219   2.509   3.268  3.0322 -0.4213  0.1110
 4407TIP3   OH213226   0.670   5.694   4.127  0.2772 -0.9295 -0.4115
 4407TIP3    H113227   0.730   5.726   4.059 -1.4124 -0.9489 -1.9932
 4407TIP3    H213228   0.584   5.725   4.099 -0.5893 -1.6683  1.3029
 4408TIP3   OH213229   4.859   5.667   0.317  0.5122 -0.0294  0.0746
 4408TIP3    H113230   4.774   5.660   0.361 -0.3299  1.0516 -1.2748
 4408TIP3    H213231   4.916   5.708   0.382 -0.1170 -0.3714  0.8574
 4409TIP3   OH213232   2.328   3.342   0.421 -0.2547  0.6903  0.0751
 4409TIP3    H113233   2.414   3.379   0.403 -0.2690  1.0945  0.8187
 4409TIP3    H213234   2.303   3.377   0.506 -1.0600  0.4004 -0.0255
 4410TIP3   OH213235   5.999   5.607   4.162 -0.1871 -0.1500  0.2603
 4410TIP3    H113236   6.053   5.680   4.192 -0.2900  1.0111 -2.1758
 4410TIP3    H213237   6.010   5.540   4.229  1.4844  1.3597  1.5811
 4411TIP3   OH213238   2.459   0.053   3.824 -0.3096  0.4310 -0.9704
 4411TIP3    H113239   2.473   0.135   3.872 -2.6656  0.2015  0.2863
 4411TIP3    H213240   2.408   0.079   3.747 -1.6302  0.1205 -0.2301
 4412TIP3   OH213241   3.145   3.314   4.471 -0.1522  0.1744 -0.2509
 4412TIP3    H113242   3.202   3.267   4.532 -0.5834 -0.3250 -0.2233
 4412TIP3    H213243   3.110   3.245   4.414 -2.2310  0.1518  0.9398
 4413TIP3   OH213244   5.903   1.527   1.407  0.0301 -0.3830 -0.5761
 4413TIP3    H113245   5.935   1.437   1.398 -0.2347 -0.3973 -1.3952
 4413TIP3    H213246   5.943   1.558   1.489 -1.0010 -1.7131  0.4728
 4414TIP3   OH213247   1.951   0.088   4.054  0.0957 -0.5141  0.2402
 4414TIP3    H113248   2.044   0.079   4.036 -0.2110 -2.2767 -0.6908
 4414TIP3    H213249   1.936   0.182   4.062  1.6988 -0.1359 -0.9679
 4415TIP3   OH213250   1.915   0.929   1.364 -0.0583 -0.3353 -0.2737
 4415TIP3    H113251   1.852   0.993   1.332 -0.2017 -0.9936 -1.3596
 4415TIP3    H213252   1.878   0.844   1.339  1.0893 -0.7498 -0.6391
 4416TIP3   OH213253   0.268   0.511   2.461 -0.6284  0.1912  0.4324
 4416TIP3    H113254   0.354   0.507   2.419 -0.1601 -0.8582  1.4336
 4416TIP3    H213255   0.262   0.600   2.496 -0.5789  0.7319 -0.8992
 4417TIP3   OH213256   2.720   4.669   3.877  0.1820  0.2459  0.4654
 4417TIP3    H113257   2.815   4.671   3.872  0.1266  0.3884 -2.8152
 4417TIP3    H213258   2.699   4.578   3.899  1.1167 -0.5035 -1.4925
 4418TIP3   OH213259   0.129   1.910   2.052 -0.0940  0.8708 -0.5488
 4418TIP3    H113260   0.207   1.918   1.998  0.2849  2.1905  0.1357
 4418TIP3    H213261   0.154   1.851   2.123 -0.4028 -0.3765 -1.4484
 4419TIP3   OH213262   1.556   5.766   2.820  0.0403 -0.3578 -0.0304
 4419TIP3    H113263   1.532   5.766   2.728  1.6281 -0.4890 -0.4845
 4419TIP3    H213264   1.569   5.859   2.842  1.5548 -0.4155 -0.5201
 4420TIP3   OH213265   4.573   2.311   0.714 -0.4124 -0.1602  0.5709
 4420TIP3    H113266   4.489   2.336   0.676  0.0060 -2.3738 -2.1538
 4420TIP3    H213267   4.550   2.258   0.790 -1.3189  2.4478  2.2490
 4421TIP3   OH213268   2.360   2.785   1.033 -0.2204 -0.2470  0.3294
 4421TIP3    H113269   2.302   2.828   0.971  1.9701 -0.8247 -2.3046
 4421TIP3    H213270   2.354   2.692   1.011  2.3946 -0.2360 -0.7834
 4422TIP3   OH213271   4.551   5.493   3.581  0.0250  0.3848  0.8208
 4422TIP3    H113272   4.564   5.561   3.647 -0.1930  0.9674  0.2671
 4422TIP3    H213273   4.565   5.411   3.629 -0.1206  0.7970  1.5873
 4423TIP3   OH213274  -0.014   4.448   4.252  0.5135  0.0005 -0.5030
 4423TIP3    H113275  -0.007   4.438   4.347  0.2795 -0.7559 -0.5582
 4423TIP3    H213276   0.065   4.408   4.217  1.1607  1.2873 -0.5899
 4424TIP3   OH213277   0.308   1.632   2.171  0.2661  0.3401 -0.0030
 4424TIP3    H113278   0.299   1.690   2.247  1.0350 -0.9530  1.1170
 4424TIP3    H213279   0.348   1.687   2.104 -0.8965  1.6555  0.3199
 4425TIP3   OH213280   5.789   3.349   3.036 -0.6655 -0.0363  0.1581
 4425TIP3    H113281   5.695   3.337   3.023 -0.2470 -1.4644 -2.0019
 4425TIP3    H213282   5.828   3.268   3.004  1.4835  1.6261 -1.7448
 4426TIP3   OH213283   6.168   5.959   1.025  0.6158 -0.2927  0.3915
 4426TIP3    H113284   6.111   5.886   1.047 -0.9431  0.6750 -0.2855
 4426TIP3    H213285   6.251   5.918   1.000  0.3056 -1.7183  1.5649
 4427TIP3   OH213286   1.542   0.695   2.271 -0.0582 -0.6267  0.1837
 4427TIP3    H113287   1.569   0.744   2.193  0.8680 -0.0798  0.8206
 4427TIP3    H213288   1.511   0.763   2.332  1.8465 -0.7145  1.3246
 4428TIP3   OH213289   3.861   2.371   0.904  0.0543  0.4652 -0.5341
 4428TIP3    H113290   3.865   2.463   0.875  1.6761  0.7479  0.4645
 4428TIP3    H213291   3.811   2.374   0.985  0.6744  0.5852 -0.1480
 4429TIP3   OH213292   3.233   3.145   0.237  0.1534  0.6912 -0.4589
 4429TIP3    H113293   3.252   3.070   0.180  0.9405  0.9350 -0.5326
 4429TIP3    H213294   3.163   3.114   0.294  0.1202  0.0652 -0.8242
 4430TIP3   OH213295   3.681   1.524   3.948  0.1743  0.0157 -0.1401
 4430TIP3    H113296   3.640   1.593   3.999 -1.2201 -0.8202 -0.0660
 4430TIP3    H213297   3.672   1.446   4.003  0.3737 -0.5147 -0.8484
 4431TIP3   OH213298   4.303   3.876   3.890 -0.6131 -0.8526 -0.7446
 4431TIP3    H113299   4.335   3.873   3.799  0.6804  1.0458 -0.4212
 4431TIP3    H213300   4.341   3.799   3.932  0.7841 -0.4574 -1.2404
 4432TIP3   OH213301   2.862   3.532   1.764  0.8208  0.1342 -0.1309
 4432TIP3    H113302   2.953   3.543   1.738  0.5861  0.7765 -0.7021
 4432TIP3    H213303   2.817   3.608   1.727  0.0120 -0.2900 -0.0411
 4433TIP3   OH213304   6.346   3.561   1.647 -0.1751  0.4103  0.2502
 4433TIP3    H113305   6.330   3.544   1.555 -0.7483 -1.3599  0.6331
 4433TIP3    H213306   6.266   3.531   1.691  0.8838 -0.7488  1.4802
 4434TIP3   OH213307   5.758   1.873   3.296  0.2070  0.3817  0.2005
 4434TIP3    H113308   5.817   1.828   3.357 -0.4085 -0.4846  0.1849
 4434TIP3    H213309   5.725   1.803   3.240  0.3202  1.0857 -0.7580
 4435TIP3   OH213310   0.779   1.644   1.264 -0.1251  0.0066  0.4330
 4435TIP3    H113311   0.766   1.738   1.255  0.0503 -0.0837 -0.9547
 4435TIP3    H213312   0.790   1.612   1.175  2.0514 -1.0029  0.9849
 4436TIP3   OH213313   3.856   1.411   1.917  0.2450 -0.2786  0.0768
 4436TIP3    H113314   3.783   1.353   1.898  0.8202 -0.4985 -1.6590
 4436TIP3    H213315   3.851   1.479   1.849  1.4410 -0.1152  0.1287
 4437TIP3   OH213316   0.927   2.166   4.799 -0.0235  0.1371  0.2787
 4437TIP3    H113317   0.842   2.133   4.770 -0.0735  0.5060  0.0031
 4437TIP3    H213318   0.989   2.136   4.732 -0.1527  1.0657 -0.2671
 4438TIP3   OH213319   5.991   2.696   3.244  0.2580 -0.1316  0.1250
 4438TIP3    H113320   6.045   2.702   3.323  1.3547  0.2243 -0.6245
 4438TIP3    H213321   6.050   2.722   3.173 -1.1685  1.2126 -0.6239
 4439TIP3   OH213322   4.075   0.620   4.846 -0.3057  0.0799 -0.6320
 4439TIP3    H113323   4.033   0.621   4.932  1.2476  0.5182  0.1561
 4439TIP3    H213324   4.051   0.535   4.809 -0.5434 -0.3422  0.4600
 4440TIP3   OH213325   3.501   3.236   3.085  0.1290 -0.8702  0.1650
 4440TIP3    H113326   3.528   3.176   3.155  1.6356 -0.3616  0.0599
 4440TIP3    H213327   3.571   3.229   3.020 -0.1181  0.3386 -0.2452
 4441TIP3   OH213328   4.793   2.310   0.537 -0.7628  0.1782 -0.4524
 4441TIP3    H113329   4.744   2.279   0.614  0.0584 -1.0601 -0.3908
 4441TIP3    H213330   4.840   2.387   0.568  1.0375 -1.3559  0.9064
 4442TIP3   OH213331   5.836   4.086   3.778  0.0101  0.1954  0.3627
 4442TIP3    H113332   5.895   4.158   3.801  0.1539  0.1069  0.2752
 4442TIP3    H213333   5.814   4.101   3.686 -0.5391  0.5306  0.5409
 4443TIP3   OH213334   0.195   4.291   4.134  0.0969  0.0156 -0.0745
 4443TIP3    H113335   0.160   4.205   4.153 -0.1777 -0.3101 -1.9394
 4443TIP3    H213336   0.241   4.281   4.050  0.0989  1.6612 -0.3043
 4444TIP3   OH213337   1.283   0.166   1.603 -0.1493 -0.1186  0.1973
 4444TIP3    H113338   1.298   0.076   1.575 -1.5855 -0.9532  1.9402
 4444TIP3    H213339   1.281   0.162   1.698  0.8706  1.9768  0.3602
 4445TIP3   OH213340   0.850   1.149   3.405 -0.3384  0.0360  0.1283
 4445TIP3    H113341   0.832   1.070   3.354 -0.2504 -0.2194  0.4911
 4445TIP3    H213342   0.844   1.220   3.341 -0.3521 -0.2684 -0.2153
 4446TIP3   OH213343   0.117   1.448   0.733 -0.5337  0.0027 -0.2967
 4446TIP3    H113344   0.175   1.391   0.684 -1.3201 -1.2944  0.2390
 4446TIP3    H213345   0.091   1.515   0.669  0.8800  0.1370 -0.7609
 4447TIP3   OH213346   5.713   3.368   0.707  0.4099  0.1647  0.2431
 4447TIP3    H113347   5.674   3.281   0.698 -0.2242  0.5711 -1.4269
 4447TIP3    H213348   5.639   3.426   0.724  0.5629  0.6332 -0.6315
 4448TIP3   OH213349   5.782   1.996   1.697 -0.1018 -0.1166 -0.1610
 4448TIP3    H113350   5.840   2.045   1.755 -0.7132 -0.1440  0.4857
 4448TIP3    H213351   5.806   2.026   1.609  0.9966 -0.2538  0.0780
 4449TIP3   OH213352   5.590   1.476   4.215  0.4720  0.0460  0.0262
 4449TIP3    H113353   5.608   1.446   4.304  0.2849  0.9610  0.3765
 4449TIP3    H213354   5.602   1.398   4.161  2.7481 -0.0286  0.5701
 4450TIP3   OH213355   3.958   1.177   3.320  0.4836 -0.0947 -0.2074
 4450TIP3    H113356   3.943   1.216   3.234  0.3064  0.0284 -0.1203
 4450TIP3    H213357   4.053   1.180   3.332  0.6545 -1.4373 -1.0258
 4451TIP3   OH213358   4.336   5.160   1.654 -0.2127  0.0045  0.3722
 4451TIP3    H113359   4.309   5.161   1.746  0.1317 -1.1802  0.4946
 4451TIP3    H213360   4.415   5.107   1.652  0.0535  0.4076 -0.5482
 4452TIP3   OH213361   0.837   5.543   0.023 -0.2557 -0.9791  0.2376
 4452TIP3    H113362   0.783   5.619   0.045  1.9783  0.7359  0.1936
 4452TIP3    H213363   0.918   5.581  -0.011  0.1580 -3.4367 -1.8291
 4453TIP3   OH213364   5.449   3.549   0.660 -0.6525 -0.9371 -0.7759
 4453TIP3    H113365   5.362   3.565   0.696 -0.8670 -1.7073 -0.9391
 4453TIP3    H213366   5.434   3.497   0.581 -0.0485 -1.0508 -0.8250
 4454TIP3   OH213367   0.534   4.263   1.331 -0.7251  0.5024 -0.5017
 4454TIP3    H113368   0.577   4.346   1.309  1.5846 -0.6682 -0.6709
 4454TIP3    H213369   0.481   4.284   1.409 -1.0694  2.3484 -1.1711
 4455TIP3   OH213370   1.924   0.442   2.717  0.0389 -0.3674  0.1730
 4455TIP3    H113371   1.867   0.366   2.700  0.4209 -0.6732  0.2517
 4455TIP3    H213372   1.888   0.482   2.796 -0.8620  0.2063 -0.5055
 4456TIP3   OH213373   0.270   1.158   2.079  0.4085 -0.1811  0.0034
 4456TIP3    H113374   0.241   1.228   2.137 -1.7166  0.3894 -1.6546
 4456TIP3    H213375   0.360   1.182   2.057  0.5308  0.7229  1.3319
 4457TIP3   OH213376   0.458   3.235   4.927 -0.0466 -0.1963  0.4647
 4457TIP3    H113377   0.440   3.174   4.999  1.1321  0.0587  0.9811
 4457TIP3    H213378   0.547   3.213   4.899 -0.6828 -0.6939 -1.3254
 4458TIP3   OH213379   5.663   4.701   0.261  0.0095  0.0376 -0.3875
 4458TIP3    H113380   5.697   4.764   0.197 -0.3018  1.2438  0.5922
 4458TIP3    H213381   5.734   4.638   0.272  0.5361  0.5023 -1.0196
 4459TIP3   OH213382   0.711   1.907   3.517 -0.0479 -0.4967 -0.4735
 4459TIP3    H113383   0.778   1.906   3.586  0.0580  1.5725 -0.4707
 4459TIP3    H213384   0.756   1.877   3.438  0.2968 -1.1851 -0.0221
 4460TIP3   OH213385   4.963   0.731   2.386 -0.1126  0.3010 -0.3775
 4460TIP3    H113386   4.938   0.775   2.305  0.4027  1.7027  0.1920
 4460TIP3    H213387   5.057   0.750   2.395 -0.0745 -0.1861  0.3327
 4461TIP3   OH213388   5.291   5.367   4.628 -0.5345 -0.3064 -0.0068
 4461TIP3    H113389   5.247   5.439   4.583 -0.4484 -1.9990 -3.1136
 4461TIP3    H213390   5.384   5.391   4.626 -0.6820  0.3475  0.7226
 4462TIP3   OH213391   1.472   3.500   3.859  0.3463 -0.6228  0.3731
 4462TIP3    H113392   1.453   3.473   3.769 -2.6951 -0.1047  0.7405
 4462TIP3    H213393   1.476   3.418   3.908 -0.6038 -0.8164  0.1530
 4463TIP3   OH213394   5.086   1.478   4.213  0.4342 -0.3820  0.4583
 4463TIP3    H113395   5.033   1.447   4.287 -1.2972 -0.5793 -0.7929
 4463TIP3    H213396   5.085   1.573   4.222 -0.5022 -0.3589  0.2487
 4464TIP3   OH213397   1.033   2.105   2.275  0.2693 -0.1455 -0.6134
 4464TIP3    H113398   0.998   2.177   2.222 -0.4652 -0.6699 -0.8552
 4464TIP3    H213399   1.115   2.080   2.232  0.9417  1.0522 -0.0789
 4465TIP3   OH213400   5.625   1.630   1.475 -0.4700  0.8091 -0.2025
 4465TIP3    H113401   5.661   1.556   1.426 -1.1105  0.3004  0.0907
 4465TIP3    H213402   5.696   1.655   1.535  0.1067  1.0671 -0.9614
 4466TIP3   OH213403   5.796   2.532   0.210  0.4404 -0.1560 -0.3003
 4466TIP3    H113404   5.750   2.615   0.195 -0.5017 -0.4668  0.6900
 4466TIP3    H213405   5.832   2.541   0.299  0.9366 -0.5442 -0.4551
 4467TIP3   OH213406   6.031   3.036   4.169 -0.0505  0.7765 -0.0818
 4467TIP3    H113407   6.093   3.096   4.128  0.4867  0.6963  0.6075
 4467TIP3    H213408   6.075   2.952   4.170 -0.8950  0.2851 -1.2657
 4468TIP3   OH213409   3.399   3.403   1.816 -0.2639 -0.2660  0.1318
 4468TIP3    H113410   3.428   3.385   1.727 -0.7214  0.2331 -0.1252
 4468TIP3    H213411   3.372   3.318   1.851 -0.1959 -0.4439 -0.2494
 4469TIP3   OH213412   1.517   2.070   3.776 -0.0850  0.0227 -0.1007
 4469TIP3    H113413   1.481   2.022   3.851  3.1725 -2.7835 -0.0881
 4469TIP3    H213414   1.557   2.002   3.722  1.8822  2.4581 -1.8994
 4470TIP3   OH213415   5.794   0.514   0.732 -0.0355  0.0033 -0.4458
 4470TIP3    H113416   5.726   0.580   0.747  1.3497  0.9583  2.0491
 4470TIP3    H213417   5.764   0.437   0.780 -0.3086 -0.2844 -1.0603
 4471TIP3   OH213418   5.475   4.705   0.743  0.6871  0.0761  0.7853
 4471TIP3    H113419   5.542   4.732   0.680  1.1367 -0.9479  0.8069
 4471TIP3    H213420   5.453   4.615   0.718 -1.6769  0.7881 -0.0619
 4472TIP3   OH213421   3.505   1.126   2.201 -0.5074  0.4272  0.2075
 4472TIP3    H113422   3.502   1.072   2.122 -1.8008  0.4339  0.2391
 4472TIP3    H213423   3.581   1.183   2.187 -0.9113  0.6565 -1.1845
 4473TIP3   OH213424   4.606   5.461   3.278  0.2488 -0.2239 -0.8936
 4473TIP3    H113425   4.627   5.374   3.244  1.0475 -0.1815 -0.5445
 4473TIP3    H213426   4.564   5.445   3.362 -0.9449 -0.3028 -1.4816
 4474TIP3   OH213427   3.080   2.853   1.883 -0.2717 -0.4275 -0.2955
 4474TIP3    H113428   3.144   2.881   1.949 -1.1587  0.7183  0.1103
 4474TIP3    H213429   3.115   2.771   1.849  2.0167  0.6919 -0.8736
 4475TIP3   OH213430   4.686   1.758   0.055  0.1834 -0.2445  0.5847
 4475TIP3    H113431   4.608   1.796   0.096 -0.5598  0.2035 -1.1678
 4475TIP3    H213432   4.749   1.830   0.051  0.6196 -0.5361  1.7510
 4476TIP3   OH213433   5.644   4.791   0.546 -0.4542 -0.4726  0.2041
 4476TIP3    H113434   5.639   4.885   0.534 -4.3080 -0.5656 -0.0862
 4476TIP3    H213435   5.653   4.755   0.458 -1.0327 -0.4082  0.1152
 4477TIP3   OH213436   0.094   2.457   2.800 -0.0791  0.7866  0.3391
 4477TIP3    H113437   0.187   2.479   2.814 -0.0709  0.2584  1.1703
 4477TIP3    H213438   0.093   2.362   2.792 -0.4548  0.8562 -0.4926
 4478TIP3   OH213439   1.896   4.140   5.188 -0.8892 -0.1624 -0.1628
 4478TIP3    H113440   1.870   4.171   5.101 -0.9009 -0.6422 -0.3343
 4478TIP3    H213441   1.815   4.137   5.238 -0.9424 -0.2697 -0.2553
 4479TIP3   OH213442   5.084   1.559   3.026 -1.0665 -0.5360 -0.0721
 4479TIP3    H113443   5.127   1.507   3.094 -0.6305  1.1324  0.9899
 4479TIP3    H213444   5.156   1.606   2.984 -1.7007  2.3698  1.7863
 4480TIP3   OH213445   4.134   3.665   0.962  0.1774 -0.2724 -0.2815
 4480TIP3    H113446   4.207   3.607   0.985  1.1635  0.3358 -1.7005
 4480TIP3    H213447   4.075   3.610   0.911  0.3477 -0.4275 -0.3134
 4481TIP3   OH213448   1.188   4.937   4.260  0.4962 -0.4222 -0.5786
 4481TIP3    H113449   1.166   4.985   4.340  1.8763  0.4219 -0.6663
 4481TIP3    H213450   1.219   4.852   4.291  0.8554 -0.1667 -0.2265
 4482TIP3   OH213451   0.338   2.251   2.836 -0.1540  0.7241 -0.2416
 4482TIP3    H113452   0.412   2.287   2.787  0.7980  0.9951  1.3431
 4482TIP3    H213453   0.372   2.235   2.923 -0.3698 -4.4445 -0.8153
 4483TIP3   OH213454   4.898   2.861   0.844 -0.0726 -0.5500 -0.1684
 4483TIP3    H113455   4.962   2.891   0.779 -0.3204  1.8144  0.5685
 4483TIP3    H213456   4.918   2.912   0.922 -1.1911 -1.7255  0.9234
 4484TIP3   OH213457   0.254   3.073   1.864  0.2190 -0.4852 -0.3859
 4484TIP3    H113458   0.313   3.000   1.846  1.1852  0.0553  0.4853
 4484TIP3    H213459   0.260   3.086   1.958  0.6562  1.2112 -0.6285
 4485TIP3   OH213460   3.929   4.782   3.864  0.2495  0.7120  0.6625
 4485TIP3    H113461   3.983   4.723   3.811 -0.9719  0.4699 -0.3410
 4485TIP3    H213462   3.979   4.864   3.866  1.5044 -0.0344  1.2675
 4486TIP3   OH213463   5.227   5.141   5.140 -0.9106  0.0173  0.2193
 4486TIP3    H113464   5.150   5.158   5.195  0.0416  1.9168  1.0720
 4486TIP3    H213465   5.204   5.062   5.091 -2.5337 -0.7298  2.0220
 4487TIP3   OH213466   0.160   0.945   3.272  0.2030  0.0686 -0.5070
 4487TIP3    H113467   0.230   0.882   3.287  1.2345  1.1113 -0.7531
 4487TIP3    H213468   0.082   0.892   3.259  0.7978 -1.1023  0.5254
 4488TIP3   OH213469   0.747   3.430   0.932 -0.2175 -0.1644  0.4635
 4488TIP3    H113470   0.733   3.474   0.848 -0.6982 -1.2336 -0.0524
 4488TIP3    H213471   0.823   3.374   0.917 -1.9901 -2.5779 -0.2768
 4489TIP3   OH213472   1.223   3.696   0.136  0.0746  0.2116  0.0223
 4489TIP3    H113473   1.297   3.680   0.193  0.3083  1.3736  0.0663
 4489TIP3    H213474   1.165   3.620   0.149  0.8626 -0.3006  0.5911
 4490TIP3   OH213475   2.732   0.778   3.017 -0.2744 -0.0531  0.2207
 4490TIP3    H113476   2.718   0.807   3.107  0.5811 -0.2868  0.4442
 4490TIP3    H213477   2.750   0.684   3.024  1.0872  0.1600 -0.0232
 4491TIP3   OH213478   3.892   0.570   1.600 -0.5796 -0.1646  0.0859
 4491TIP3    H113479   3.820   0.575   1.662 -1.6666  0.7283 -1.1863
 4491TIP3    H213480   3.867   0.629   1.529  0.1365 -1.8403 -1.6641
 4492TIP3   OH213481   1.844   5.369   1.384  0.4693  0.3779  0.0621
 4492TIP3    H113482   1.912   5.365   1.317  1.8988 -0.9560  1.4919
 4492TIP3    H213483   1.879   5.429   1.451  1.3283 -1.9563  1.8370
 4493TIP3   OH213484   2.660   4.260   2.732 -0.5732  0.4671  0.4938
 4493TIP3    H113485   2.678   4.170   2.705  1.0894  0.6694  0.8391
 4493TIP3    H213486   2.639   4.305   2.650 -2.0984 -0.3420  0.3945
 4494TIP3   OH213487   0.206   4.943   3.492  0.3350  0.3671 -0.1241
 4494TIP3    H113488   0.241   5.007   3.554 -1.0367  0.2366  0.8374
 4494TIP3    H213489   0.111   4.951   3.501 -0.0164  1.6797 -3.6158
 4495TIP3   OH213490   4.478   5.911   0.363  0.0691  0.0562  0.3153
 4495TIP3    H113491   4.566   5.945   0.343  0.0978  0.3631  0.9639
 4495TIP3    H213492   4.478   5.897   0.457  0.2314 -2.2272  0.0469
 4496TIP3   OH213493   5.511   5.866   0.259  0.3322 -0.3691 -0.8368
 4496TIP3    H113494   5.472   5.866   0.346 -0.3497 -0.8947 -1.1329
 4496TIP3    H213495   5.597   5.906   0.271 -0.1926  0.5719 -0.1285
 4497TIP3   OH213496   2.952   5.346   2.519  0.2304 -0.3500 -0.1822
 4497TIP3    H113497   2.903   5.265   2.500 -0.1451 -0.3973  0.9151
 4497TIP3    H213498   2.927   5.368   2.609  0.7556  0.6918 -0.2824
 4498TIP3   OH213499   1.996   0.496   4.907  0.3824  0.2056  0.0406
 4498TIP3    H113500   1.944   0.421   4.934  1.3823 -0.1900  0.9385
 4498TIP3    H213501   1.938   0.571   4.917 -0.7906 -0.4701 -1.3439
 4499TIP3   OH213502   5.869   1.117   3.750  0.3253  0.2269 -0.0547
 4499TIP3    H113503   5.909   1.195   3.711 -0.4151  1.1406  0.9076
 4499TIP3    H213504   5.869   1.136   3.844  1.7015 -1.7132  0.3894
 4500TIP3   OH213505   1.201   2.351   2.749  0.1628  0.1859  0.6576
 4500TIP3    H113506   1.239   2.263   2.756  1.2375  0.6431  0.6407
 4500TIP3    H213507   1.172   2.372   2.837 -0.2290 -0.2237  0.6381
 4501TIP3   OH213508   1.903   4.103   1.589 -0.3367 -0.3671 -0.2807
 4501TIP3    H113509   1.902   4.007   1.586  0.4802 -0.3761 -0.2604
 4501TIP3    H213510   1.943   4.129   1.506  1.1658 -0.0903  0.5025
 4502TIP3   OH213511   3.825   5.696   2.946 -0.0871 -0.4634  0.9582
 4502TIP3    H113512   3.903   5.750   2.944 -0.8334  0.7109  1.9373
 4502TIP3    H213513   3.799   5.686   2.854  1.0957 -0.7419  0.6413
 4503TIP3   OH213514   1.655   5.355   2.047 -0.0852 -0.4323 -0.5206
 4503TIP3    H113515   1.595   5.339   1.974 -1.6502 -0.4434  0.7370
 4503TIP3    H213516   1.618   5.431   2.093  2.3526  1.3518 -1.2354
 4504TIP3   OH213517   4.789   4.532   3.349  0.1795  0.0712  0.0547
 4504TIP3    H113518   4.782   4.618   3.308  1.2962  0.8446  1.3792
 4504TIP3    H213519   4.699   4.498   3.349 -0.2552  1.1533 -0.6334
 4505TIP3   OH213520   2.523   4.481   1.267  0.0887  0.4680  0.2698
 4505TIP3    H113521   2.546   4.389   1.282  0.3040  0.6960  1.4377
 4505TIP3    H213522   2.474   4.506   1.346 -0.3025  1.2446 -0.2133
 4506TIP3   OH213523   3.378   1.849   3.788 -0.4377  0.1169  0.1904
 4506TIP3    H113524   3.441   1.895   3.843 -0.1418  2.4969 -1.9004
 4506TIP3    H213525   3.296   1.897   3.801 -1.3014 -1.5762  1.2395
 4507TIP3   OH213526   6.001   0.259   0.544 -0.2529  0.2966  0.1815
 4507TIP3    H113527   5.986   0.261   0.638 -0.9723  0.9978  0.0629
 4507TIP3    H213528   5.990   0.167   0.520 -0.2185  0.1410  0.7534
 4508TIP3   OH213529   3.637   2.642   4.543  0.1917  0.2189  0.0386
 4508TIP3    H113530   3.574   2.648   4.471 -0.1495  0.4633  0.3523
 4508TIP3    H213531   3.649   2.733   4.571 -1.2075 -0.0300  1.5864
 4509TIP3   OH213532   1.787   5.571   0.774 -0.2190  0.1599  0.0236
 4509TIP3    H113533   1.820   5.653   0.737  1.4013  1.2873  3.5876
 4509TIP3    H213534   1.777   5.513   0.698  0.0243  3.1183 -2.4482
 4510TIP3   OH213535   0.108   0.378   0.572  0.5048 -0.4777 -0.5801
 4510TIP3    H113536   0.089   0.353   0.481 -0.6944 -0.4048 -0.3687
 4510TIP3    H213537   0.085   0.301   0.624 -1.6240  0.4141 -0.0859
 4511TIP3   OH213538   4.438   3.413   2.148  0.0062  0.3328  0.0275
 4511TIP3    H113539   4.372   3.358   2.191 -1.3479  1.8018 -0.0963
 4511TIP3    H213540   4.458   3.368   2.066 -1.5331  0.3116 -0.3598
 4512TIP3   OH213541   6.243   1.215   2.648  0.4489 -0.0609  0.2920
 4512TIP3    H113542   6.171   1.232   2.709  1.6953 -1.5595  2.3005
 4512TIP3    H213543   6.270   1.125   2.668  2.4794  0.2411 -0.8365
 4513TIP3   OH213544   0.007   0.987   0.404  0.4786  0.8780  0.2358
 4513TIP3    H113545   0.071   1.058   0.397 -0.8708  2.1189 -0.1915
 4513TIP3    H213546   0.020   0.935   0.324  2.1750 -0.0330  1.0414
 4514TIP3   OH213547   1.063   2.303   0.687 -0.4107  0.3470 -0.1659
 4514TIP3    H113548   1.131   2.356   0.728  1.9238 -0.4077 -2.7862
 4514TIP3    H213549   1.044   2.234   0.751 -0.1337  1.6525  1.3754
 4515TIP3   OH213550   3.914   4.651   2.118  0.2993 -0.2249  0.1741
 4515TIP3    H113551   4.000   4.668   2.156  0.4041 -0.6083  0.1141
 4515TIP3    H213552   3.915   4.557   2.097  0.1960 -0.0514 -0.6466
 4516TIP3   OH213553   5.489   3.993   3.903  0.4609  0.6734  0.4832
 4516TIP3    H113554   5.560   3.951   3.855  0.7011  2.3826 -0.7561
 4516TIP3    H213555   5.414   3.934   3.892  1.3218 -0.5088  0.7235
 4517TIP3   OH213556   5.813   2.341   1.721  0.3427  0.5134 -0.3408
 4517TIP3    H113557   5.823   2.273   1.787  0.9179  1.5587  0.6955
 4517TIP3    H213558   5.878   2.407   1.745  0.3238  1.0795 -1.7614
 4518TIP3   OH213559   3.109   1.683   1.472  0.1266  0.0350 -0.0070
 4518TIP3    H113560   3.087   1.598   1.433 -0.8848  0.5070 -0.5074
 4518TIP3    H213561   3.204   1.685   1.473  0.1682 -0.6447 -1.0416
 4519TIP3   OH213562   2.107   5.588  -0.011  0.2985  0.0746 -0.5465
 4519TIP3    H113563   2.171   5.517  -0.003  1.5008  1.2021  0.0397
 4519TIP3    H213564   2.024   5.547   0.017  1.0731 -0.9526  0.3585
 4520TIP3   OH213565   2.223   0.816   5.104 -0.3459 -0.3015 -0.1700
 4520TIP3    H113566   2.216   0.905   5.138 -2.4836  0.0580 -1.3783
 4520TIP3    H213567   2.133   0.790   5.086  0.4390 -1.1569 -3.6317
 4521TIP3   OH213568   2.563   2.001   2.438  0.6328 -0.2627  0.4654
 4521TIP3    H113569   2.527   1.920   2.475 -0.4075 -0.0928 -0.1414
 4521TIP3    H213570   2.655   1.980   2.420  1.0218 -0.5316  2.5471
 4522TIP3   OH213571   4.381   0.060  -0.016  0.5338  0.3975  0.4809
 4522TIP3    H113572   4.472   0.045  -0.043 -0.3775 -1.2225 -2.0886
 4522TIP3    H213573   4.371   0.008   0.064  2.1844  1.7628  1.6643
 4523TIP3   OH213574   0.708   3.981   0.778  0.6370  0.0169 -0.0039
 4523TIP3    H113575   0.616   3.953   0.773  0.6615 -0.0425 -0.1063
 4523TIP3    H213576   0.716   4.049   0.711  0.5137  0.4460  0.4092
 4524TIP3   OH213577   0.808   3.582   3.312 -0.1318  0.1519  0.0360
 4524TIP3    H113578   0.881   3.583   3.373  0.4293 -1.1458 -0.5759
 4524TIP3    H213579   0.794   3.489   3.292  0.1656  0.5547 -2.3414
 4525TIP3   OH213580   1.403   2.260   3.578 -0.0968  0.0510 -0.0488
 4525TIP3    H113581   1.436   2.199   3.644 -0.4459  0.0946  0.1654
 4525TIP3    H213582   1.482   2.301   3.543  0.1045 -0.1109  0.2063
 4526TIP3   OH213583   1.609   2.299   1.204 -0.2421 -0.0790 -0.1142
 4526TIP3    H113584   1.635   2.269   1.117 -0.8601  0.5649 -0.5311
 4526TIP3    H213585   1.691   2.308   1.252  0.1420 -0.0020 -0.7738
 4527TIP3   OH213586   5.716   5.505   2.567 -0.1262  0.1930  0.5157
 4527TIP3    H113587   5.672   5.428   2.531  1.1076 -1.7769  2.9430
 4527TIP3    H213588   5.681   5.514   2.655  1.5027  0.9066  1.1335
 4528TIP3   OH213589   1.357   4.329   2.947 -0.0060  0.2177 -0.0288
 4528TIP3    H113590   1.437   4.277   2.951  0.3013  0.6078 -0.9264
 4528TIP3    H213591   1.293   4.277   2.996  0.3672 -0.8823 -0.6636
 4529TIP3   OH213592   5.027   1.782   4.862  0.3674  0.4434 -0.0009
 4529TIP3    H113593   4.952   1.839   4.848  0.6871  1.2225  1.2627
 4529TIP3    H213594   4.991   1.693   4.863 -0.2198  0.6522 -1.4490
 4530TIP3   OH213595   2.526   3.246   1.671  0.0436 -0.1621  0.2062
 4530TIP3    H113596   2.479   3.329   1.683  0.4266 -0.1496  1.8008
 4530TIP3    H213597   2.522   3.230   1.577  1.0508  2.3043 -0.3258
 4531TIP3   OH213598   4.055   4.300   2.901 -0.0545  0.3047 -0.2467
 4531TIP3    H113599   4.083   4.332   2.987 -0.4966 -1.4257  0.5840
 4531TIP3    H213600   3.960   4.291   2.908 -0.2523  1.2738 -1.3399
 4532TIP3   OH213601   4.968   3.373   4.563 -0.2727  0.4432  0.2577
 4532TIP3    H113602   4.961   3.280   4.585  1.5083  0.1659 -0.1600
 4532TIP3    H213603   4.898   3.415   4.613 -1.6660 -1.2109 -0.2297
 4533TIP3   OH213604   1.218   3.078   1.520  0.1533  0.0046 -0.3928
 4533TIP3    H113605   1.236   3.037   1.605 -0.6049 -0.0942 -0.2724
 4533TIP3    H213606   1.187   3.005   1.466 -0.4209  0.2636 -0.4194
 4534TIP3   OH213607   3.304   0.781   3.609 -0.0213  0.0952 -0.5684
 4534TIP3    H113608   3.257   0.805   3.688  1.0959 -0.7896  0.3979
 4534TIP3    H213609   3.384   0.835   3.612  0.5685 -0.7721 -0.4838
 4535TIP3   OH213610   2.475   4.756   0.078 -0.4958 -0.5469 -0.1774
 4535TIP3    H113611   2.447   4.780  -0.010 -0.3965 -0.5955 -0.2225
 4535TIP3    H213612   2.420   4.808   0.136 -1.2764 -1.2679 -0.2458
 4536TIP3   OH213613   2.303   2.076   2.617 -0.0031  0.5819  0.4007
 4536TIP3    H113614   2.361   2.047   2.688  0.1054  1.3025  0.6158
 4536TIP3    H213615   2.314   2.171   2.615  0.5075  0.5023 -1.0529
 4537TIP3   OH213616   1.101   2.724   0.612 -0.3741 -0.0941 -0.0746
 4537TIP3    H113617   1.191   2.712   0.582 -0.2116  1.2341 -0.1608
 4537TIP3    H213618   1.104   2.802   0.666 -2.0014  1.8077 -2.5074
 4538TIP3   OH213619   5.444   3.457   3.570  0.4589 -0.5343  0.3248
 4538TIP3    H113620   5.535   3.487   3.565  0.3829 -0.4665 -1.6078
 4538TIP3    H213621   5.449   3.363   3.557  0.1445 -0.2496 -2.4443
 4539TIP3   OH213622   0.037   4.209   1.901 -0.5690  0.1347  0.0640
 4539TIP3    H113623   0.007   4.294   1.868 -0.6106  0.1291  0.0877
 4539TIP3    H213624   0.040   4.153   1.823  0.8882  0.5633 -0.2163
 4540TIP3   OH213625   4.563   0.082   1.885  0.3159 -0.5901  0.6765
 4540TIP3    H113626   4.605   0.000   1.857  1.0362 -0.2930  0.8632
 4540TIP3    H213627   4.543   0.127   1.803  1.6184 -0.1250  0.5774
 4541TIP3   OH213628   2.452   1.010   3.189  0.0879 -0.2279  0.3388
 4541TIP3    H113629   2.506   0.940   3.225 -0.8492 -0.9784  0.3297
 4541TIP3    H213630   2.395   0.966   3.127  1.0512  0.9128 -1.4242
 4542TIP3   OH213631   5.061   4.600   3.293 -0.1463  0.2373  0.1177
 4542TIP3    H113632   5.079   4.581   3.201 -0.3495  0.1489  0.0970
 4542TIP3    H213633   4.974   4.564   3.309  0.4105 -0.9061  0.6918
 4543TIP3   OH213634   2.838   4.838   2.675 -0.2633  0.6929  0.0198
 4543TIP3    H113635   2.928   4.806   2.685  0.0538  1.6357  0.2391
 4543TIP3    H213636   2.788   4.789   2.741  0.6189  2.1310  1.8578
 4544TIP3   OH213637   2.858   5.404   1.876  0.0886 -0.4357 -0.4848
 4544TIP3    H113638   2.820   5.362   1.953 -0.9654  1.9621  0.4079
 4544TIP3    H213639   2.917   5.471   1.911 -0.7916  1.0515 -1.7103
 4545TIP3   OH213640   0.261   1.471   2.750  0.5159 -0.2474 -0.0345
 4545TIP3    H113641   0.247   1.380   2.775 -0.1521  0.0764  0.7996
 4545TIP3    H213642   0.310   1.466   2.668  1.1013 -1.3444  0.3664
 4546TIP3   OH213643   1.264   1.207   2.898 -0.0572 -0.4089 -0.5705
 4546TIP3    H113644   1.226   1.171   2.818 -1.2893 -1.7869  0.5830
 4546TIP3    H213645   1.341   1.152   2.915 -0.6769 -1.1065  0.0067
 4547TIP3   OH213646   4.987   2.888   2.451 -0.0809 -0.6600  0.5515
 4547TIP3    H113647   5.080   2.869   2.438  0.5518  2.1983  0.1374
 4547TIP3    H213648   4.955   2.912   2.364 -0.1548  2.0285  1.2110
 4548TIP3   OH213649   3.843   3.570   0.134  0.2873  0.2581  0.0440
 4548TIP3    H113650   3.846   3.659   0.169  0.4752  0.3584 -0.2245
 4548TIP3    H213651   3.934   3.540   0.137  0.4475  0.5721 -1.1239
 4549TIP3   OH213652   5.177   1.669   4.654  0.1101 -0.4280 -0.0530
 4549TIP3    H113653   5.146   1.736   4.715  0.2051 -1.9075  1.6786
 4549TIP3    H213654   5.117   1.675   4.580  0.5363  2.0053 -0.2785
 4550TIP3   OH213655   1.179   3.876   4.835 -0.9822 -0.7982 -0.0652
 4550TIP3    H113656   1.220   3.852   4.752 -0.7035  1.3404 -0.6071
 4550TIP3    H213657   1.156   3.968   4.824  0.2864 -0.0583  2.7133
 4551TIP3   OH213658   0.410   3.033   2.807  0.6184 -0.2296  0.4227
 4551TIP3    H113659   0.331   2.997   2.765 -0.8716 -0.8546  3.5127
 4551TIP3    H213660   0.438   3.103   2.748 -2.1703 -0.0560 -0.8827
 4552TIP3   OH213661   0.625   5.469   2.365  0.0489 -0.0270 -0.2180
 4552TIP3    H113662   0.613   5.489   2.272 -1.9243  0.8574  0.1482
 4552TIP3    H213663   0.602   5.377   2.374  2.1268 -0.6555 -0.8493
 4553TIP3   OH213664   1.943   5.973   1.569 -0.5516  0.2664  0.2472
 4553TIP3    H113665   1.882   5.901   1.586 -1.3595  0.7809 -0.3803
 4553TIP3    H213666   1.892   6.052   1.586 -0.0595  0.7066 -0.2664
 4554TIP3   OH213667   0.212   0.900   4.086  0.3539  0.5358  0.2394
 4554TIP3    H113668   0.219   0.967   4.155 -0.9559  1.3789 -0.4000
 4554TIP3    H213669   0.138   0.846   4.113  0.2058  0.5144 -0.2098
 4555TIP3   OH213670   1.440   3.196   5.148  0.2476  0.1566  0.2103
 4555TIP3    H113671   1.460   3.280   5.106  2.3216  0.3389  1.4125
 4555TIP3    H213672   1.515   3.140   5.127  0.2176 -0.4806  1.6717
 4556TIP3   OH213673   5.868   5.600   5.014  0.5854  0.0855 -0.2606
 4556TIP3    H113674   5.831   5.512   5.009  0.6260  0.1012 -0.9676
 4556TIP3    H213675   5.963   5.586   5.018  0.5413  0.0009  2.6573
 4557TIP3   OH213676   3.284   3.486   0.454 -0.5176  0.4984  0.3542
 4557TIP3    H113677   3.229   3.416   0.489 -2.0478  0.8400 -1.2409
 4557TIP3    H213678   3.340   3.443   0.389  0.6737  0.2852  1.4617
 4558TIP3   OH213679   3.768   1.497   4.395  0.4367 -0.6767  0.1190
 4558TIP3    H113680   3.703   1.567   4.389  2.2454  1.2447  1.5331
 4558TIP3    H213681   3.729   1.432   4.452 -0.5785  0.0272  0.2437
 4559TIP3   OH213682   1.039   3.090   0.043 -0.1286  0.4066 -0.1321
 4559TIP3    H113683   0.952   3.120   0.017  0.2786  1.3481 -0.4472
 4559TIP3    H213684   1.029   3.065   0.135 -0.6981  0.6221 -0.1298
 4560TIP3   OH213685   5.678   3.105   0.758 -0.1727  0.9053 -0.7879
 4560TIP3    H113686   5.715   3.036   0.814 -0.0276 -0.8992 -2.9591
 4560TIP3    H213687   5.583   3.089   0.761 -0.2692  1.5430 -0.1864
 4561TIP3   OH213688   1.003   1.064   0.049 -0.6772  0.2701  0.4200
 4561TIP3    H113689   1.039   0.979   0.025 -0.8105  0.6252 -1.1611
 4561TIP3    H213690   0.910   1.049   0.062 -0.2316 -0.4326  3.4223
 4562TIP3   OH213691   2.634   4.134   3.818 -0.8366  0.0821  0.3734
 4562TIP3    H113692   2.573   4.093   3.880 -0.7681 -2.8249 -1.2946
 4562TIP3    H213693   2.620   4.086   3.736  3.4904 -0.6649 -0.1680
 4563TIP3   OH213694   2.134   4.446   4.237 -0.1126 -0.3236  0.1011
 4563TIP3    H113695   2.056   4.398   4.209 -0.6799  0.2702  0.6446
 4563TIP3    H213696   2.103   4.535   4.255  1.1591  0.6838 -2.2252
 4564TIP3   OH213697   5.648   3.781   3.739  0.0673  0.0532 -0.0424
 4564TIP3    H113698   5.556   3.778   3.712  0.2238  0.3751 -0.6159
 4564TIP3    H213699   5.696   3.741   3.667  0.2176 -1.9724  1.0944
 4565TIP3   OH213700   0.754   0.206   3.823 -0.1378  0.6476  0.8100
 4565TIP3    H113701   0.744   0.119   3.861  0.1416  0.8189  1.2911
 4565TIP3    H213702   0.697   0.206   3.746  1.6629 -0.7617 -0.6013
 4566TIP3   OH213703   0.076   2.423   0.388  0.0971 -0.5285  0.2091
 4566TIP3    H113704  -0.008   2.421   0.341  0.2342 -1.3173 -0.0199
 4566TIP3    H213705   0.136   2.467   0.328  0.2600 -1.4921 -0.3639
 4567TIP3   OH213706   2.659   0.287   1.512 -0.1646 -0.4831 -0.1101
 4567TIP3    H113707   2.614   0.230   1.449 -0.0350 -0.9566  0.2204
 4567TIP3    H213708   2.588   0.325   1.564 -0.1675 -2.1288  1.1815
 4568TIP3   OH213709   2.775   3.519   1.029  0.2093 -0.7369 -0.2678
 4568TIP3    H113710   2.847   3.466   1.062 -0.5977 -0.9576  1.1923
 4568TIP3    H213711   2.744   3.569   1.105  1.9884  3.1744 -1.8229
 4569TIP3   OH213712   3.102   3.391   0.115 -0.2622 -0.0218  0.1880
 4569TIP3    H113713   3.117   3.297   0.107 -1.6802 -0.2186 -0.3331
 4569TIP3    H213714   3.189   3.428   0.128  0.3798 -1.3367 -0.2332
 4570TIP3   OH213715   4.732   0.691   4.947 -0.4194  0.2841  0.3149
 4570TIP3    H113716   4.788   0.714   5.021 -0.1356  2.4323 -0.4796
 4570TIP3    H213717   4.643   0.702   4.980 -0.4122 -1.9063  1.2122
 4571TIP3   OH213718   3.442   2.678   3.742 -0.1477 -0.1927  0.2324
 4571TIP3    H113719   3.411   2.746   3.802  1.6821  1.5646 -0.7054
 4571TIP3    H213720   3.495   2.725   3.677  0.1316 -2.3652 -1.2151
 4572TIP3   OH213721   6.299   5.771   4.543 -0.2925 -0.3274 -0.0661
 4572TIP3    H113722   6.343   5.703   4.595  2.0622  1.5255  0.5536
 4572TIP3    H213723   6.355   5.848   4.552 -1.4584  0.9861 -2.8704
 4573TIP3   OH213724   0.407   5.023   1.738 -0.4119 -0.1881 -0.6062
 4573TIP3    H113725   0.383   4.952   1.677 -2.1227  0.0593 -0.2769
 4573TIP3    H213726   0.388   5.103   1.690 -0.0147  0.0270 -0.4050
 4574TIP3   OH213727   5.649   5.109   3.578 -0.3058  1.0693 -0.7695
 4574TIP3    H113728   5.724   5.141   3.630  0.3253  1.0496 -1.6443
 4574TIP3    H213729   5.586   5.080   3.643 -0.5267  3.2049  0.0525
 4575TIP3   OH213730   4.837   4.355   0.701  0.5018 -0.0270  0.3028
 4575TIP3    H113731   4.813   4.447   0.705 -1.3591 -0.4771  0.2789
 4575TIP3    H213732   4.927   4.355   0.669  0.6916  1.7852  0.7488
 4576TIP3   OH213733   0.383   4.314   3.437 -0.4013 -0.0690 -0.0132
 4576TIP3    H113734   0.363   4.221   3.426 -1.2626 -0.1300  1.8366
 4576TIP3    H213735   0.356   4.354   3.354 -1.1729 -1.2870 -0.3740
 4577TIP3   OH213736   2.421   3.635   4.186  0.1323 -0.2886  0.3185
 4577TIP3    H113737   2.508   3.609   4.153  0.6661  0.2403  1.2741
 4577TIP3    H213738   2.360   3.590   4.128  0.8892  3.4174 -3.9140
 4578TIP3   OH213739   3.498   4.987   5.097 -0.9133 -0.5350 -0.1119
 4578TIP3    H113740   3.566   4.927   5.129 -1.1374 -2.8030 -3.3226
 4578TIP3    H213741   3.532   5.074   5.116  3.3527 -1.4797 -2.0879
 4579TIP3   OH213742   3.252   0.136   1.104 -0.0353  0.2956 -0.4008
 4579TIP3    H113743   3.272   0.120   1.196  0.8090 -0.4203 -0.6924
 4579TIP3    H213744   3.337   0.127   1.060 -0.5897 -0.3044 -1.3680
 4580TIP3   OH213745   0.896   3.892   2.753 -0.3871 -0.6582  0.2926
 4580TIP3    H113746   0.909   3.982   2.724  2.1006 -0.7859  0.8432
 4580TIP3    H213747   0.932   3.838   2.682  1.5868 -1.0683  1.5185
 4581TIP3   OH213748   0.880   4.501   1.073 -0.1345  1.0501  0.0616
 4581TIP3    H113749   0.874   4.554   1.153 -1.6414 -1.0804  1.4827
 4581TIP3    H213750   0.951   4.439   1.090 -0.8822  0.1717  0.0442
 4582TIP3   OH213751   2.606   1.495   1.860  0.2830 -0.1167 -0.2934
 4582TIP3    H113752   2.674   1.432   1.883  0.0569 -0.0697  0.5293
 4582TIP3    H213753   2.560   1.455   1.787  1.1929 -0.1488 -0.8677
 4583TIP3   OH213754   5.345   3.166   0.608 -0.7913 -0.0970 -0.2394
 4583TIP3    H113755   5.354   3.220   0.529  0.0603 -0.0007 -0.0793
 4583TIP3    H213756   5.322   3.229   0.677  1.8118  0.3548  0.3016
 4584TIP3   OH213757   0.086   4.516   4.858 -0.2900  0.4264  0.2531
 4584TIP3    H113758   0.141   4.594   4.850  2.0330 -1.2317 -1.3332
 4584TIP3    H213759   0.016   4.542   4.918  0.4586  3.6424 -0.0743
 4585TIP3   OH213760   5.604   0.080   2.624 -0.4809 -0.2487  0.0602
 4585TIP3    H113761   5.517   0.042   2.614 -0.2687 -0.9419  0.7967
 4585TIP3    H213762   5.662   0.005   2.634  0.1311  0.2261  0.0936
 4586TIP3   OH213763   3.725   4.674   3.537  0.2592  0.0079  0.4945
 4586TIP3    H113764   3.633   4.665   3.511  0.4600  0.9310 -0.5474
 4586TIP3    H213765   3.741   4.596   3.592 -1.3500  0.2266  1.3442
 4587TIP3   OH213766   0.851   2.836   4.242  0.0746  0.1230 -0.0335
 4587TIP3    H113767   0.843   2.914   4.186  0.8617 -0.6807 -1.3132
 4587TIP3    H213768   0.851   2.763   4.180  3.6208 -0.6956  0.7488
 4588TIP3   OH213769   4.051   3.861   3.721 -0.8485  0.2183 -0.4675
 4588TIP3    H113770   4.098   3.857   3.805 -2.6809 -0.1801  0.5921
 4588TIP3    H213771   4.020   3.772   3.706  0.5604 -0.0273 -2.2903
 4589TIP3   OH213772   5.575   1.304   1.113 -0.2755 -0.1356 -0.5957
 4589TIP3    H113773   5.668   1.313   1.091 -0.4958  1.6602 -0.9533
 4589TIP3    H213774   5.541   1.393   1.108 -1.7796 -0.5962  0.6595
 4590TIP3   OH213775   5.471   3.190   3.628  0.1787 -0.0719 -0.2668
 4590TIP3    H113776   5.551   3.180   3.679  0.7452 -0.9694 -1.2709
 4590TIP3    H213777   5.441   3.100   3.613 -0.0905  0.1692 -1.3040
 4591TIP3   OH213778   4.985   2.521   3.427  0.2927  0.0039  0.3001
 4591TIP3    H113779   4.968   2.614   3.440  0.0687 -0.0738  0.5763
 4591TIP3    H213780   4.924   2.495   3.358  1.1965  0.3265 -0.6376
 4592TIP3   OH213781   1.618   0.152   0.596 -0.1130  0.6243 -0.4118
 4592TIP3    H113782   1.542   0.171   0.541  0.1442  1.8097 -0.3686
 4592TIP3    H213783   1.671   0.231   0.593  0.4094  0.3411  0.7323
 4593TIP3   OH213784   4.529   0.148   1.632  0.0216  0.0416  0.7083
 4593TIP3    H113785   4.603   0.176   1.578 -1.0973  0.2265 -0.8144
 4593TIP3    H213786   4.460   0.128   1.568 -1.5093  0.6528  2.1098
 4594TIP3   OH213787   1.360   4.757   3.566 -0.3754 -0.5540  0.4378
 4594TIP3    H113788   1.289   4.703   3.601 -0.7596 -1.7693 -2.0134
 4594TIP3    H213789   1.320   4.805   3.494  0.5225  1.4109  1.1675
 4595TIP3   OH213790   5.491   0.555   4.613  0.4025 -0.2122  0.7025
 4595TIP3    H113791   5.494   0.526   4.704  1.4496  0.7932  1.0154
 4595TIP3    H213792   5.436   0.633   4.614  0.3108 -0.2709  0.4390
 4596TIP3   OH213793   4.893   3.489   4.800 -1.3663 -0.0055 -0.4451
 4596TIP3    H113794   4.877   3.567   4.746 -0.4178  0.7234  0.2964
 4596TIP3    H213795   4.871   3.516   4.889 -0.4291 -0.3789 -0.0880
 4597TIP3   OH213796   3.123   1.859   4.792 -0.4806 -0.2281 -0.0488
 4597TIP3    H113797   3.126   1.850   4.697  2.2426  0.5599 -0.1275
 4597TIP3    H213798   3.115   1.954   4.807 -2.4469 -0.4347  0.5814
 4598TIP3   OH213799   2.524   1.908   1.916 -0.3643 -0.5415 -0.2726
 4598TIP3    H113800   2.535   1.988   1.967 -0.5974 -0.9526  0.4295
 4598TIP3    H213801   2.613   1.884   1.889 -0.0730 -1.0399  1.0566
 4599TIP3   OH213802   3.350   3.739   2.800 -0.0863  0.2727 -0.4389
 4599TIP3    H113803   3.305   3.655   2.798 -1.5756  1.0495 -1.0215
 4599TIP3    H213804   3.316   3.783   2.878  2.4124 -0.5170  1.2126
 4600TIP3   OH213805   3.321   4.291   0.800  0.3882 -0.6099  0.5828
 4600TIP3    H113806   3.266   4.310   0.724  0.6034 -0.1433  0.5344
 4600TIP3    H213807   3.291   4.206   0.832  2.1680 -2.2477 -1.7461
 4601TIP3   OH213808   3.970   1.059   4.508  0.7184 -0.4265 -0.1143
 4601TIP3    H113809   3.985   0.971   4.541  0.4952 -0.0336  1.1219
 4601TIP3    H213810   4.034   1.113   4.554 -0.6332  0.3811  0.8983
 4602TIP3   OH213811   1.281   3.464   2.925  0.5174  0.6735  0.1776
 4602TIP3    H113812   1.319   3.551   2.917  0.7340  0.5193 -0.6849
 4602TIP3    H213813   1.341   3.408   2.874 -1.4211  0.6085 -2.2372
 4603TIP3   OH213814   5.231   5.161   0.240 -0.2757 -0.5247 -0.1404
 4603TIP3    H113815   5.136   5.172   0.237 -0.0182  1.8734 -1.2945
 4603TIP3    H213816   5.260   5.225   0.305  0.4498 -2.6993  1.8187
 4604TIP3   OH213817   1.389   2.170   1.312  0.0329  0.2836 -0.1676
 4604TIP3    H113818   1.322   2.220   1.264  0.7206  0.6185 -0.7984
 4604TIP3    H213819   1.471   2.195   1.270  0.2685 -2.9909 -1.9552
 4605TIP3   OH213820   5.399   2.885   2.546  0.4429  0.3236  0.2676
 4605TIP3    H113821   5.493   2.867   2.550  0.2518 -0.5407  1.6363
 4605TIP3    H213822   5.393   2.978   2.523  1.6065  0.2515 -0.4063
 4606TIP3   OH213823   4.810   5.628   1.626 -0.2262  0.2209 -0.0016
 4606TIP3    H113824   4.780   5.716   1.602  0.5698  0.2609 -0.8952
 4606TIP3    H213825   4.902   5.627   1.602  0.0737 -0.4810  1.0888
 4607TIP3   OH213826   0.395   4.093   5.084 -0.1587  0.4890  0.5445
 4607TIP3    H113827   0.313   4.046   5.075  0.6729 -0.8921 -0.0453
 4607TIP3    H213828   0.428   4.103   4.995  1.5524 -1.2829  0.9120
 4608TIP3   OH213829   1.435   3.293   4.387 -0.3060 -0.0501  0.5693
 4608TIP3    H113830   1.494   3.351   4.436  1.0607 -1.0635  0.1882
 4608TIP3    H213831   1.455   3.205   4.419  0.2260 -0.6816 -1.3475
 4609TIP3   OH213832   3.425   2.878   1.028  0.1206 -0.1051  0.2945
 4609TIP3    H113833   3.446   2.849   1.117 -0.4318  0.4143  0.6003
 4609TIP3    H213834   3.347   2.931   1.038 -0.5352 -0.8594 -0.6387
 4610TIP3   OH213835   1.583   1.785   1.557 -0.2984 -0.0757  0.1426
 4610TIP3    H113836   1.637   1.828   1.623  2.7350  0.0390 -2.1848
 4610TIP3    H213837   1.593   1.692   1.575 -1.0793 -0.0092  0.9656
 4611TIP3   OH213838   1.771   4.079   2.552  0.4615  0.4752  0.4142
 4611TIP3    H113839   1.788   3.987   2.572  1.0453  0.6580  0.7746
 4611TIP3    H213840   1.839   4.103   2.489  1.4616  1.1641  1.7293
 4612TIP3   OH213841   4.681   3.610   1.081  0.1773 -0.0998  0.1614
 4612TIP3    H113842   4.631   3.676   1.034  0.3469 -1.6013 -2.3201
 4612TIP3    H213843   4.759   3.656   1.113  0.8971  0.7169 -2.5366
 4613TIP3   OH213844   3.222   1.637   1.159  0.6410 -0.8318 -0.0599
 4613TIP3    H113845   3.191   1.570   1.219 -0.7140  0.2325  0.4743
 4613TIP3    H213846   3.265   1.701   1.215 -1.8056  0.8462  0.0472
 4614TIP3   OH213847   4.751   1.384   2.317 -0.3733  0.0991 -0.0247
 4614TIP3    H113848   4.710   1.467   2.340 -0.4184  0.2873 -0.7620
 4614TIP3    H213849   4.770   1.342   2.401 -1.8508  0.1162  0.3416
 4615TIP3   OH213850   3.260   3.763   1.016 -0.6109 -0.1691  0.4759
 4615TIP3    H113851   3.276   3.748   0.923 -1.1393  0.9205  0.2000
 4615TIP3    H213852   3.302   3.847   1.035 -1.6030  0.2441  0.9175
 4616TIP3   OH213853   3.360   4.988   4.050  0.1911  0.6716  0.0536
 4616TIP3    H113854   3.405   5.054   3.997  1.5113 -1.9318 -2.3793
 4616TIP3    H213855   3.270   4.990   4.018  0.6153  0.1989 -1.2540
 4617TIP3   OH213856   0.538   2.634   1.603 -0.1443 -0.0134 -0.2848
 4617TIP3    H113857   0.562   2.724   1.627 -1.3500  0.6216 -1.3072
 4617TIP3    H213858   0.583   2.618   1.521  0.0773 -0.3568 -0.0988
 4618TIP3   OH213859   2.315   0.849   4.533 -0.3725  0.1458 -0.7756
 4618TIP3    H113860   2.389   0.798   4.501  1.8823  1.3404  2.0491
 4618TIP3    H213861   2.264   0.787   4.585  0.0666 -0.1413 -0.6801
 4619TIP3   OH213862   5.628   4.016   4.346 -0.2738 -0.5014  0.1462
 4619TIP3    H113863   5.656   3.952   4.411  4.3481  0.9352 -0.0318
 4619TIP3    H213864   5.652   3.976   4.262  0.4001  0.4226 -0.1187
 4620TIP3   OH213865   3.221   5.573   4.346  1.1320  0.2014  0.6327
 4620TIP3    H113866   3.181   5.510   4.286 -0.0418 -1.0997  2.6539
 4620TIP3    H213867   3.163   5.649   4.343 -1.1859 -1.2850  2.7854
 4621TIP3   OH213868   3.638   3.599   4.756 -0.6336 -0.5215 -0.1423
 4621TIP3    H113869   3.601   3.678   4.717 -1.9875 -0.3164  1.4669
 4621TIP3    H213870   3.641   3.617   4.850 -0.0426 -2.0149  0.1550
 4622TIP3   OH213871   4.964   1.401   3.968  0.5003 -0.6785 -0.5021
 4622TIP3    H113872   4.979   1.306   3.971  1.1349 -0.5852 -0.6401
 4622TIP3    H213873   5.005   1.434   4.048  0.6229 -0.4718 -0.6494
 4623TIP3   OH213874   1.652   2.673   0.248  0.3249 -0.0278  0.1793
 4623TIP3    H113875   1.580   2.734   0.231 -0.5016 -0.9234  0.4190
 4623TIP3    H213876   1.669   2.632   0.163  0.6026  0.2402  0.1062
 4624TIP3   OH213877   5.351   0.589   3.736 -0.4391  0.6170  0.6442
 4624TIP3    H113878   5.357   0.624   3.825 -1.2622  0.1635  0.8849
 4624TIP3    H213879   5.432   0.619   3.693 -0.0890  0.9366  1.5052
 4625TIP3   OH213880   1.974   2.502   1.988  0.5202 -0.1919 -0.0286
 4625TIP3    H113881   1.906   2.513   1.921  1.3030 -1.7405 -1.1443
 4625TIP3    H213882   1.925   2.489   2.069 -0.4551  1.4103 -0.3115
 4626TIP3   OH213883   1.370   0.265   4.377 -0.2570 -0.3242 -0.1660
 4626TIP3    H113884   1.376   0.228   4.466 -1.9515 -1.1827 -0.3629
 4626TIP3    H213885   1.460   0.286   4.354  0.2596 -0.2790  1.6750
 4627TIP3   OH213886   4.436   1.150   0.570  0.4334 -0.1628 -0.4178
 4627TIP3    H113887   4.518   1.148   0.620 -0.0304 -2.1781  0.3820
 4627TIP3    H213888   4.462   1.142   0.479  1.1705  0.4437 -0.2660
 4628TIP3   OH213889   5.714   3.489   3.581  0.0846  0.6883 -0.7638
 4628TIP3    H113890   5.711   3.426   3.509 -0.1306  1.5432 -1.5240
 4628TIP3    H213891   5.807   3.511   3.589  0.2106 -0.0316 -0.2191
 4629TIP3   OH213892   0.776   3.591   2.413 -0.4939  0.0985 -0.2226
 4629TIP3    H113893   0.695   3.574   2.461 -1.6427  1.3104 -1.6357
 4629TIP3    H213894   0.750   3.650   2.342  1.8700  1.6515  0.1001
 4630TIP3   OH213895   4.599   1.828   1.447  0.1720  0.2375 -0.3334
 4630TIP3    H113896   4.507   1.807   1.427 -0.1069  0.7858  0.3299
 4630TIP3    H213897   4.625   1.887   1.377  0.4566 -0.9793 -1.2927
 4631TIP3   OH213898   0.612   0.747   4.067  0.5522 -0.4865 -0.0719
 4631TIP3    H113899   0.704   0.774   4.073  0.3309  0.0931  0.8812
 4631TIP3    H213900   0.596   0.698   4.147  0.5657 -2.3855 -1.1534
 4632TIP3   OH213901   4.448   4.276   3.489 -0.5350 -0.0643  0.3842
 4632TIP3    H113902   4.382   4.225   3.442 -0.2381  0.4963 -0.6686
 4632TIP3    H213903   4.515   4.294   3.424 -0.3708  1.2006  0.8871
 4633TIP3   OH213904   3.483   5.204   2.651 -0.2586 -0.1261 -0.1882
 4633TIP3    H113905   3.540   5.254   2.594  0.1372 -1.2845 -0.8505
 4633TIP3    H213906   3.542   5.160   2.713 -0.3578 -1.6109 -1.0998
 4634TIP3   OH213907   0.651   4.456   4.561 -0.4227 -0.9003  0.1593
 4634TIP3    H113908   0.584   4.483   4.624  0.9441  2.4188  0.4277
 4634TIP3    H213909   0.656   4.529   4.499  3.6411 -0.4193  0.7975
 4635TIP3   OH213910   1.910   5.255   2.574 -0.1295  0.0705  0.2250
 4635TIP3    H113911   1.969   5.323   2.543 -0.0228  0.4472  1.1950
 4635TIP3    H213912   1.897   5.197   2.499 -0.6350  1.4427 -0.7842
 4636TIP3   OH213913   3.307   4.178   4.316 -0.1753 -0.0025 -0.0371
 4636TIP3    H113914   3.301   4.083   4.302 -0.6838 -0.1178  0.8927
 4636TIP3    H213915   3.361   4.186   4.395 -0.7870  0.4449  0.3420
 4637TIP3   OH213916   1.449   3.434   1.324  0.4231 -0.6584  0.0827
 4637TIP3    H113917   1.466   3.525   1.348 -2.3544 -0.3657  1.3367
 4637TIP3    H213918   1.386   3.439   1.252  0.8781 -1.6147 -0.4027
 4638TIP3   OH213919   6.134   2.945   2.386 -0.3495 -0.4546 -0.3386
 4638TIP3    H113920   6.151   2.868   2.441 -3.7902 -0.5168  0.8745
 4638TIP3    H213921   6.088   2.911   2.310  0.7163  0.1260 -1.2724
 4639TIP3   OH213922   0.941   4.206   3.283 -0.6486 -1.2202  0.1727
 4639TIP3    H113923   0.883   4.262   3.334  0.3016  0.0278 -0.0603
 4639TIP3    H213924   0.981   4.148   3.348 -0.4420 -0.5361  0.6682
 4640TIP3   OH213925   0.192   4.853   3.819  0.0560  0.1673 -0.2124
 4640TIP3    H113926   0.211   4.778   3.762 -0.2804  0.2302 -0.4144
 4640TIP3    H213927   0.097   4.863   3.813  0.0634  0.4054  0.0743
 4641TIP3   OH213928   3.038   1.440   3.784  0.2225  0.0696 -0.8246
 4641TIP3    H113929   3.086   1.522   3.792  0.3034 -0.0652  0.1215
 4641TIP3    H213930   2.946   1.466   3.775  0.2557  0.2605 -0.5893
 4642TIP3   OH213931   3.266   2.129   3.764  0.0948 -0.0621 -0.3217
 4642TIP3    H113932   3.182   2.173   3.762 -0.0178 -0.2812 -1.9711
 4642TIP3    H213933   3.306   2.156   3.847 -0.7432  1.6214 -0.4347
 4643TIP3   OH213934   0.392   4.310   1.101  0.0734 -0.3433  0.2759
 4643TIP3    H113935   0.434   4.394   1.082 -0.9706 -0.3072 -2.3441
 4643TIP3    H213936   0.456   4.262   1.155  0.9328  1.8614  1.3338
 4644TIP3   OH213937   5.729   4.033   1.873 -0.4275  1.0631  0.0382
 4644TIP3    H113938   5.813   4.048   1.828 -0.7302  1.6485 -0.3398
 4644TIP3    H213939   5.699   3.949   1.839  0.8731 -0.0799  1.5368
 4645TIP3   OH213940   0.960   3.040   4.080  0.2398  0.1251 -0.5173
 4645TIP3    H113941   1.022   3.070   4.145 -2.3152  2.1391  1.2090
 4645TIP3    H213942   0.968   3.103   4.008  0.2908  0.3047 -0.3554
 4646TIP3   OH213943   2.570   5.087   3.312 -0.3935  0.3069  0.7481
 4646TIP3    H113944   2.526   5.120   3.234 -0.0855  0.7370  0.7480
 4646TIP3    H213945   2.499   5.066   3.373 -0.7065 -1.5004 -0.1870
 4647TIP3   OH213946   5.355   4.183   2.541  0.0326  0.0227 -0.2559
 4647TIP3    H113947   5.267   4.177   2.504 -0.7178 -0.7071  1.5390
 4647TIP3    H213948   5.377   4.093   2.566  1.6915  0.0389 -1.4955
 4648TIP3   OH213949   3.803   3.996   2.848 -0.0694 -0.8098 -0.4311
 4648TIP3    H113950   3.760   4.008   2.932 -0.5180 -0.3689 -0.7148
 4648TIP3    H213951   3.756   3.923   2.807 -0.4210 -0.4716 -0.6477
 4649TIP3   OH213952   6.123   5.035   4.843  0.1964 -0.3416  0.1335
 4649TIP3    H113953   6.119   5.131   4.837 -2.2281 -0.2053  2.2257
 4649TIP3    H213954   6.032   5.008   4.859  0.9159 -2.9364  0.2558
 4650TIP3   OH213955   1.744   5.252   4.448 -0.1237 -0.6214 -0.1018
 4650TIP3    H113956   1.654   5.219   4.443 -0.8184  0.6643  2.2071
 4650TIP3    H213957   1.735   5.339   4.486  2.0144  0.2464 -1.4487
 4651TIP3   OH213958   5.086   5.381   4.852  0.2401 -0.1107 -0.2428
 4651TIP3    H113959   5.161   5.362   4.796 -0.8341  0.7400 -2.0704
 4651TIP3    H213960   5.104   5.467   4.890  0.5171 -0.2489 -0.0561
 4652TIP3   OH213961   3.770   5.220   4.303 -0.0006 -0.0968  0.4437
 4652TIP3    H113962   3.723   5.281   4.359 -0.9461  0.6817 -1.1087
 4652TIP3    H213963   3.796   5.148   4.361 -1.5649  0.3128  1.7102
 4653TIP3   OH213964   2.668   0.242   0.485  0.0866  0.7565 -0.2812
 4653TIP3    H113965   2.644   0.150   0.475  0.8300  0.6408 -1.1801
 4653TIP3    H213966   2.632   0.267   0.570  0.5207 -0.5827  0.3319
 4654TIP3   OH213967   2.995   4.723   3.154  0.1943  0.1820  0.0621
 4654TIP3    H113968   2.932   4.788   3.185 -1.3170 -1.4869  0.6274
 4654TIP3    H213969   3.057   4.715   3.227  0.4412  1.0183 -0.0416
 4655TIP3   OH213970   1.951   2.868   4.237  0.2754  0.0644  0.1512
 4655TIP3    H113971   1.972   2.869   4.330  2.2188  0.6730 -0.2423
 4655TIP3    H213972   1.995   2.790   4.204  2.2401  1.4272 -0.7211
 4656TIP3   OH213973   4.503   0.247   3.363 -0.1749 -0.7532 -0.2991
 4656TIP3    H113974   4.473   0.336   3.343 -1.5990 -0.6129  2.1724
 4656TIP3    H213975   4.473   0.194   3.289 -0.9630  0.4880 -0.8948
 4657TIP3   OH213976   2.682   4.365   1.021  0.2983 -0.2088  0.3910
 4657TIP3    H113977   2.640   4.361   1.106  0.0349 -1.4334  0.2315
 4657TIP3    H213978   2.614   4.337   0.959  0.7385 -0.1886 -0.1153
 4658TIP3   OH213979   0.621   4.193   2.841 -0.0649  0.0871  0.7315
 4658TIP3    H113980   0.532   4.217   2.867 -0.9491  0.1382 -2.0668
 4658TIP3    H213981   0.673   4.205   2.921 -2.4225  0.6533  2.2872
 4659TIP3   OH213982   4.419   1.863   2.107 -0.6536  0.4068 -0.0484
 4659TIP3    H113983   4.465   1.864   2.191 -0.1792 -0.4780 -0.2886
 4659TIP3    H213984   4.328   1.879   2.129 -0.3435  1.5126  0.5024
 4660TIP3   OH213985   1.201   5.803   2.957  0.1518  0.2061  0.0789
 4660TIP3    H113986   1.180   5.799   2.864 -0.4899  1.2310  0.1624
 4660TIP3    H213987   1.175   5.891   2.983  0.6657  0.0506  1.1494
 4661TIP3   OH213988   1.571   2.404   0.723  0.5377 -0.2210 -0.4331
 4661TIP3    H113989   1.666   2.408   0.719  0.5527  0.3956  0.2666
 4661TIP3    H213990   1.552   2.368   0.810  0.1315  0.9233 -0.0266
 4662TIP3   OH213991   4.590   2.512   0.485 -0.0886  0.0960 -0.3414
 4662TIP3    H113992   4.607   2.459   0.563 -0.0610  0.5488 -0.0385
 4662TIP3    H213993   4.569   2.599   0.519 -1.7486 -0.1079 -0.7403
 4663TIP3   OH213994   2.079   4.844   3.685  0.3141  0.0150  0.3958
 4663TIP3    H113995   2.048   4.935   3.685  0.5694  0.1060  0.8393
 4663TIP3    H213996   2.001   4.793   3.662  0.5989  0.4674 -1.7483
 4664TIP3   OH213997   3.010   5.732   0.369  0.1567 -0.0580  0.7223
 4664TIP3    H113998   3.099   5.695   0.369 -0.1117 -0.8017  2.5122
 4664TIP3    H213999   3.013   5.801   0.303  1.6387 -1.0640 -0.3247
 4665TIP3   OH214000   0.316   2.042   0.018  0.4488 -0.0202  0.1519
 4665TIP3    H114001   0.407   2.024   0.039  0.6968 -0.3887 -1.1662
 4665TIP3    H214002   0.299   2.129   0.054  1.5960  0.4423 -0.3777
 4666TIP3   OH214003   2.165   4.295   1.281  0.5225  0.1003 -1.2117
 4666TIP3    H114004   2.142   4.388   1.277  2.5959  0.6896 -0.7452
 4666TIP3    H214005   2.229   4.282   1.212  0.9592 -0.7536 -0.6738
 4667TIP3   OH214006   0.919   0.762   1.428  0.1736  0.2792 -0.0831
 4667TIP3    H114007   0.833   0.800   1.415 -1.7545 -3.7947 -0.5939
 4667TIP3    H214008   0.973   0.801   1.359 -1.0241  3.2458  0.5104
 4668TIP3   OH214009   1.223   3.720   5.059 -0.2128 -0.4880 -0.0554
 4668TIP3    H114010   1.230   3.787   4.992  1.2322 -0.3834  0.1653
 4668TIP3    H214011   1.137   3.680   5.044  0.3495 -0.9956 -2.4797
 4669TIP3   OH214012   5.904   3.749   1.813  0.1576  0.2804 -0.0095
 4669TIP3    H114013   5.945   3.835   1.803  0.0969  0.1706 -1.5630
 4669TIP3    H214014   5.903   3.713   1.724 -2.2675 -0.1967  0.1376
 4670TIP3   OH214015   3.962   4.017   5.141 -0.2328  0.1387 -0.1002
 4670TIP3    H114016   4.041   4.056   5.104 -1.3069  2.3502 -0.1807
 4670TIP3    H214017   3.959   3.929   5.103  1.2393  0.6332 -1.4586
 4671TIP3   OH214018   2.052   5.765   1.718  0.4825  0.2667  0.2032
 4671TIP3    H114019   2.133   5.803   1.684  0.4979 -0.1047 -0.1847
 4671TIP3    H214020   2.007   5.839   1.759  1.7403  0.1707  1.8467
 4672TIP3   OH214021   1.348   0.161   0.761  0.5095 -0.0249 -0.3333
 4672TIP3    H114022   1.320   0.235   0.706  0.5079  0.0040 -0.2936
 4672TIP3    H214023   1.331   0.084   0.707 -0.0392 -0.0385 -0.1499
 4673TIP3   OH214024   1.088   4.437   4.193 -0.1325 -0.7824 -0.2715
 4673TIP3    H114025   1.026   4.411   4.261  1.6102  0.0757  1.7694
 4673TIP3    H214026   1.039   4.501   4.140 -0.8587  0.3719  1.6565
 4674TIP3   OH214027   0.256   1.833   3.959  0.5241  0.3106 -0.0689
 4674TIP3    H114028   0.237   1.839   3.865 -0.3096 -1.4611 -0.0486
 4674TIP3    H214029   0.323   1.765   3.965 -0.2547 -0.3885  0.7178
 4675TIP3   OH214030   4.179   0.421   4.113 -0.4781 -0.3163 -1.1037
 4675TIP3    H114031   4.235   0.486   4.070 -0.2568 -0.3035 -0.7993
 4675TIP3    H214032   4.108   0.473   4.151 -0.2695 -0.2476 -0.8106
 4676TIP3   OH214033   3.721   4.624   4.976 -0.1356  0.6946  0.1746
 4676TIP3    H114034   3.762   4.610   4.891 -0.1997  0.0373  0.2508
 4676TIP3    H214035   3.764   4.702   5.011  2.3481 -0.9603  1.0497
 4677TIP3   OH214036   5.801   4.209   4.783  0.3978  0.5460  0.7599
 4677TIP3    H114037   5.728   4.250   4.736 -0.5109 -1.5259  0.2248
 4677TIP3    H214038   5.876   4.219   4.725 -0.5086 -1.1815 -0.8346
 4678TIP3   OH214039   5.557   4.035   0.722  0.3994 -0.2130  0.1601
 4678TIP3    H114040   5.611   3.957   0.710  0.1266 -0.6350  1.5277
 4678TIP3    H214041   5.585   4.071   0.806  0.4397  1.1193 -0.3928
 4679TIP3   OH214042   3.917   3.296   3.072 -0.4912 -0.0103 -0.1248
 4679TIP3    H114043   3.991   3.345   3.036 -0.5012  0.7578  0.8458
 4679TIP3    H214044   3.848   3.303   3.006 -0.2646  0.7194 -0.2910
 4680TIP3   OH214045   5.587   1.134   3.551  0.1563  0.0422  0.0137
 4680TIP3    H114046   5.547   1.061   3.599 -0.6290  0.3409 -0.1793
 4680TIP3    H214047   5.601   1.202   3.617 -1.4187  0.6589 -0.2494
 4681TIP3   OH214048   2.905   2.504   4.691 -0.3069 -0.1176  0.1908
 4681TIP3    H114049   2.971   2.573   4.679 -0.3971 -0.4795 -3.3615
 4681TIP3    H214050   2.948   2.424   4.662 -0.3992 -1.6087  3.7287
 4682TIP3   OH214051   3.468   3.928   0.665 -0.0089 -0.1839  0.3896
 4682TIP3    H114052   3.546   3.964   0.623  1.3224 -1.3353  1.7546
 4682TIP3    H214053   3.447   3.849   0.614 -0.5450  0.3319 -0.2094
 4683TIP3   OH214054   4.122   0.080   2.228 -0.0790  0.1736  0.0558
 4683TIP3    H114055   4.068   0.010   2.192 -0.0326  0.9948 -1.7354
 4683TIP3    H214056   4.212   0.057   2.202  0.1416  0.0486  0.9174
 4684TIP3   OH214057   2.210   0.825   2.669  0.3677  0.2289 -1.1590
 4684TIP3    H114058   2.275   0.778   2.721  0.0003  0.3516 -0.5758
 4684TIP3    H214059   2.247   0.913   2.660  0.7862 -0.0025 -1.7614
 4685TIP3   OH214060   5.223   0.629   0.484 -0.3347  0.0334 -0.1523
 4685TIP3    H114061   5.167   0.608   0.559  0.6310  2.0914  1.2452
 4685TIP3    H214062   5.162   0.642   0.411 -1.3962 -0.9151  0.5390
 4686TIP3   OH214063   2.213   5.319   0.464  0.0603  0.6827  0.1170
 4686TIP3    H114064   2.137   5.313   0.406  0.3670 -0.1385 -0.2218
 4686TIP3    H214065   2.187   5.380   0.532  0.4977  3.6123 -2.1086
 4687TIP3   OH214066   3.777   1.972   0.475  0.5341  0.3772 -0.1157
 4687TIP3    H114067   3.781   1.941   0.565  0.2010  1.3502  0.2400
 4687TIP3    H214068   3.819   1.902   0.424  0.3842 -0.3568  0.7356
 4688TIP3   OH214069   3.758   2.036   2.627  0.0001 -0.0758  0.9507
 4688TIP3    H114070   3.691   2.007   2.688  0.0615 -0.2539  0.9336
 4688TIP3    H214071   3.822   2.081   2.682 -0.1434  0.1153  0.9639
 4689TIP3   OH214072   2.857   3.155   3.808  0.1120  0.2043 -0.3687
 4689TIP3    H114073   2.819   3.208   3.878 -0.5428 -0.3109 -0.3303
 4689TIP3    H214074   2.799   3.171   3.733  0.1189 -0.1825 -0.4544
 4690TIP3   OH214075   2.839   5.390   2.761  0.0353 -0.1949 -0.0833
 4690TIP3    H114076   2.913   5.448   2.778 -0.0123 -0.5825  1.6787
 4690TIP3    H214077   2.863   5.307   2.803  0.8529 -2.1345 -3.9410
 4691TIP3   OH214078   0.753   1.855   3.926  0.2788 -0.1195 -0.3267
 4691TIP3    H114079   0.681   1.854   3.863  0.3574 -0.9974 -0.4147
 4691TIP3    H214080   0.816   1.918   3.890 -0.7531  1.2027  0.1216
 4692TIP3   OH214081   2.254   1.003   2.383 -0.3761 -0.1505  0.1167
 4692TIP3    H114082   2.266   1.033   2.473 -0.1717 -1.1311  0.4325
 4692TIP3    H214083   2.310   0.926   2.376  1.6683  1.3810 -1.6459
 4693TIP3   OH214084   6.348   4.093   0.409  0.0136 -0.2841  0.8389
 4693TIP3    H114085   6.370   4.132   0.494 -1.4139  0.6055  0.8413
 4693TIP3    H214086   6.253   4.104   0.402 -0.3094 -2.8022  0.3152
 4694TIP3   OH214087   5.522   3.430   2.649  0.2049  0.8380  0.1128
 4694TIP3    H114088   5.561   3.357   2.601 -0.6935  0.6815 -0.4148
 4694TIP3    H214089   5.444   3.393   2.690  0.3536  1.2405  0.7726
 4695TIP3   OH214090   4.120   4.867   0.315 -0.7588  0.5953  0.4807
 4695TIP3    H114091   4.156   4.817   0.243  0.9994  1.5945  0.6209
 4695TIP3    H214092   4.081   4.944   0.274 -1.1700  0.3901  0.4794
 4696TIP3   OH214093   3.802   4.444   4.089  0.3789  0.1479 -0.0024
 4696TIP3    H114094   3.880   4.413   4.044 -0.1626 -0.7483 -0.3677
 4696TIP3    H214095   3.756   4.498   4.025  1.0581  1.2980  0.4596
 4697TIP3   OH214096   4.028   3.026   3.358 -0.1246  0.5276 -0.2451
 4697TIP3    H114097   4.048   2.959   3.423 -0.5212  1.1924  0.5694
 4697TIP3    H214098   4.009   2.976   3.278 -1.6254 -0.4075  0.6479
 4698TIP3   OH214099   0.161   0.174   1.843  0.1460  0.0730  0.5274
 4698TIP3    H114100   0.135   0.188   1.934  0.7606 -0.5629  0.8095
 4698TIP3    H214101   0.099   0.108   1.811 -2.0170  2.4196 -0.4594
 4699TIP3   OH214102   5.860   1.815   2.355  0.1035  0.3034 -0.3132
 4699TIP3    H114103   5.943   1.809   2.402 -0.4262  0.0323  0.6278
 4699TIP3    H214104   5.847   1.728   2.317 -1.1013 -0.6094  1.9761
 4700TIP3   OH214105   2.718   5.877   4.971  0.0132 -0.7134  0.1688
 4700TIP3    H114106   2.803   5.908   5.002 -1.8366  1.1492  4.2392
 4700TIP3    H214107   2.716   5.784   4.992  0.8596 -0.6395  0.5889
 4701TIP3   OH214108   4.851   0.639   1.455  0.0277 -0.0320  0.4927
 4701TIP3    H114109   4.897   0.557   1.438  1.2520  0.2573  2.1695
 4701TIP3    H214110   4.894   0.676   1.532 -0.3962  2.2722 -0.2722
 4702TIP3   OH214111   1.176   1.464   4.948  0.2701  0.1628 -0.1480
 4702TIP3    H114112   1.142   1.552   4.930 -3.3290 -1.5727 -3.2205
 4702TIP3    H214113   1.129   1.435   5.027 -0.0751  0.2688 -0.3160
 4703TIP3   OH214114   5.925   3.575   1.144  0.6351  0.4463  0.3732
 4703TIP3    H114115   5.889   3.486   1.144  0.8917  0.3097 -1.1469
 4703TIP3    H214116   5.906   3.608   1.056  0.1531  2.0784  1.0595
 4704TIP3   OH214117   3.341   2.322   5.136  0.6781 -0.4810 -0.3600
 4704TIP3    H114118   3.322   2.354   5.047 -0.1790 -1.9700 -0.7420
 4704TIP3    H214119   3.273   2.362   5.190  1.4277  0.7382 -0.2728
 4705TIP3   OH214120   0.838   3.384   3.952 -0.7132 -1.4412  0.1918
 4705TIP3    H114121   0.800   3.458   3.904  1.2702  1.0811  2.1558
 4705TIP3    H214122   0.902   3.346   3.892  1.3796  1.3315  0.4812
 4706TIP3   OH214123   4.044   1.505   3.648 -0.3906  0.0751 -0.1265
 4706TIP3    H114124   4.118   1.560   3.674 -1.5468  1.3520  0.6031
 4706TIP3    H214125   4.065   1.418   3.682 -0.1897  0.8984  1.9821
 4707TIP3   OH214126   4.160   3.589   4.868  0.4081 -0.4077 -0.4684
 4707TIP3    H114127   4.156   3.681   4.839 -0.6804 -0.6024 -0.9805
 4707TIP3    H214128   4.124   3.539   4.795  0.0455 -1.1557  0.2123
 4708TIP3   OH214129   1.220   3.121   3.920  0.7603  0.4071  0.3124
 4708TIP3    H114130   1.182   3.042   3.958 -3.7581  2.2502  0.1801
 4708TIP3    H214131   1.243   3.176   3.995 -0.1531  0.6633  0.4080
 4709TIP3   OH214132   4.808   3.939   3.330  0.1158  0.2925  0.3491
 4709TIP3    H114133   4.812   3.875   3.260 -1.1916  2.0349 -1.4376
 4709TIP3    H214134   4.889   3.927   3.379  0.8146 -1.3555 -1.1289
 4710TIP3   OH214135   1.472   4.316   2.211  0.3193  0.4416  0.0079
 4710TIP3    H114136   1.565   4.337   2.215 -0.0282  2.3246 -1.1148
 4710TIP3    H214137   1.459   4.253   2.282  2.2389  0.9287  0.8398
 4711TIP3   OH214138   3.685   3.375   4.599  0.5031 -0.5990 -0.7950
 4711TIP3    H114139   3.750   3.400   4.533  0.1130  1.2440 -0.5439
 4711TIP3    H214140   3.659   3.458   4.639 -1.7139 -1.3125 -0.6175
 4712TIP3   OH214141   1.257   3.709   2.401 -0.5815 -0.3170  0.0587
 4712TIP3    H114142   1.264   3.683   2.493 -1.0217  1.0306  0.4894
 4712TIP3    H214143   1.170   3.748   2.394  0.9536  3.5108  0.1288
 4713TIP3   OH214144   6.095   4.944   4.303 -0.4081 -0.7091  0.0627
 4713TIP3    H114145   6.069   5.008   4.369 -1.7674 -0.5642 -0.5639
 4713TIP3    H214146   6.091   4.860   4.349  0.5430 -0.4417  0.6578
 4714TIP3   OH214147   4.640   1.945   3.106 -0.5463 -0.0326  0.0100
 4714TIP3    H114148   4.599   1.901   3.181 -1.0636  0.7760  0.2073
 4714TIP3    H214149   4.584   1.922   3.032 -1.3442  1.0048  0.2652
 4715TIP3   OH214150   5.858   4.414   5.004  1.5157 -0.0594 -0.1238
 4715TIP3    H114151   5.783   4.461   5.041  0.8167 -0.7972 -0.5593
 4715TIP3    H214152   5.827   4.324   4.993  2.8918 -0.6837  0.8742
 4716TIP3   OH214153   3.796   0.228   4.478 -0.0420 -0.2339  0.5342
 4716TIP3    H114154   3.758   0.232   4.566 -0.1055  0.6782  0.4727
 4716TIP3    H214155   3.820   0.319   4.458 -0.4373 -0.3612 -0.5653
 4717TIP3   OH214156   1.573   0.252   3.229  0.1827  0.1430  0.0047
 4717TIP3    H114157   1.664   0.264   3.202  0.8975  1.9388  2.7364
 4717TIP3    H214158   1.522   0.301   3.164  1.2566 -0.0034 -0.9758
 4718TIP3   OH214159   4.972   5.075   2.993 -0.4035  0.7668 -0.5482
 4718TIP3    H114160   4.914   5.016   3.041  0.5028  0.9615  0.8796
 4718TIP3    H214161   4.995   5.142   3.058  0.7416  1.1492 -1.3214
 4719TIP3   OH214162   4.750   5.572   4.052  0.5627 -0.4375  0.2963
 4719TIP3    H114163   4.716   5.500   4.105 -0.6459 -0.3110 -0.2616
 4719TIP3    H214164   4.730   5.650   4.103  0.5585 -0.4011  0.2386
 4720TIP3   OH214165   1.379   3.440   4.148 -0.0579  0.5904 -0.2664
 4720TIP3    H114166   1.447   3.499   4.114 -1.2681  2.6982  0.7333
 4720TIP3    H214167   1.411   3.417   4.236 -0.4396  1.3294  0.0805
 4721TIP3   OH214168   1.255   5.250   4.582  0.0793 -0.5690  0.1790
 4721TIP3    H114169   1.289   5.277   4.667  1.0610  1.4977 -0.7723
 4721TIP3    H214170   1.163   5.278   4.582  0.0997 -0.5051  0.5229
 4722TIP3   OH214171   0.436   3.485   4.822 -0.1899 -0.0464  0.5993
 4722TIP3    H114172   0.404   3.520   4.905  0.1775 -0.2892  0.8416
 4722TIP3    H214173   0.463   3.396   4.842 -3.7239 -1.5716 -0.5619
 4723TIP3   OH214174   0.551   2.843   4.074  0.6110 -0.4385 -0.0334
 4723TIP3    H114175   0.608   2.892   4.015 -0.5936  1.8234  0.5830
 4723TIP3    H214176   0.547   2.896   4.154 -0.8224 -1.5078  0.6472
 4724TIP3   OH214177   3.994   5.868   4.284  0.1056 -0.2720 -0.6054
 4724TIP3    H114178   4.044   5.901   4.209  0.7738 -1.9981 -0.9673
 4724TIP3    H214179   3.928   5.811   4.244  0.1063 -0.7610  0.0850
 4725TIP3   OH214180   2.341   4.078   1.699  0.1447 -0.0108 -0.2024
 4725TIP3    H114181   2.313   4.164   1.669  1.2446  0.1301 -0.8931
 4725TIP3    H214182   2.260   4.031   1.718 -0.4576  1.6700  1.6973
 4726TIP3   OH214183   2.080   4.900   4.869  0.5930  0.8842  0.1555
 4726TIP3    H114184   2.020   4.961   4.912 -1.8905 -1.0571 -0.2565
 4726TIP3    H214185   2.139   4.870   4.938  0.2022  1.8349  0.9162
 4727TIP3   OH214186   3.370   0.576   1.841 -0.1706 -0.8352 -0.7992
 4727TIP3    H114187   3.440   0.621   1.794  0.0180 -0.9176 -0.5973
 4727TIP3    H214188   3.415   0.515   1.899 -0.3230  0.5022  0.7957
 4728TIP3   OH214189   3.696   3.302   2.923  0.4849 -0.2004  0.2786
 4728TIP3    H114190   3.684   3.394   2.946  1.3954 -0.5601  2.4400
 4728TIP3    H214191   3.677   3.298   2.829 -1.8908  1.7342  0.5796
 4729TIP3   OH214192   0.989   4.080   0.419 -0.1778 -0.1859 -0.1887
 4729TIP3    H114193   0.962   4.032   0.341 -0.2516 -0.8307  0.2188
 4729TIP3    H214194   1.073   4.041   0.443  0.6360  1.0953 -0.8522
 4730TIP3   OH214195   2.681   4.341   4.609  0.4247 -0.0053 -0.1892
 4730TIP3    H114196   2.674   4.402   4.535  1.0053  0.2346 -0.0520
 4730TIP3    H214197   2.591   4.332   4.640  0.1173 -0.4409 -1.1826
 4731TIP3   OH214198   5.034   1.148   2.565  0.2075 -0.2269 -0.0888
 4731TIP3    H114199   5.032   1.060   2.601  0.7195 -0.0079  0.4935
 4731TIP3    H214200   5.012   1.137   2.473 -0.3228 -0.8889  0.1114
 4732TIP3   OH214201   6.288   0.280   1.633  0.1032 -0.3250 -0.0797
 4732TIP3    H114202   6.251   0.345   1.572 -0.3725  0.1580  0.7064
 4732TIP3    H214203   6.370   0.253   1.592  0.3421  0.8297 -0.3965
 4733TIP3   OH214204   3.412   2.074   1.623  0.2658  0.0977  0.1550
 4733TIP3    H114205   3.378   2.119   1.700 -0.7055  1.0453 -0.7957
 4733TIP3    H214206   3.376   2.123   1.548  2.3656  0.1189 -0.9111
 4734TIP3   OH214207   0.208   1.426   3.118  0.3769  0.0047 -0.5189
 4734TIP3    H114208   0.218   1.361   3.188 -0.1970  0.8559  0.3847
 4734TIP3    H214209   0.209   1.375   3.037 -0.8400 -1.2340  0.2001
 4735TIP3   OH214210   3.447   2.655   2.394  0.4958  0.4830 -0.2309
 4735TIP3    H114211   3.430   2.677   2.302 -1.2343 -0.1318 -0.0928
 4735TIP3    H214212   3.513   2.586   2.391  1.2344  1.1938 -0.9385
 4736TIP3   OH214213   6.208   1.675   0.885  0.0816  0.4085 -0.0690
 4736TIP3    H114214   6.132   1.642   0.838  0.6823  1.2631 -1.7200
 4736TIP3    H214215   6.172   1.736   0.950 -0.7720 -0.9576  0.7972
 4737TIP3   OH214216   5.540   2.848   3.743  0.4926  0.1595 -0.5976
 4737TIP3    H114217   5.472   2.816   3.684 -0.7561  0.4763  0.6191
 4737TIP3    H214218   5.557   2.775   3.802  0.1440  0.5745  0.0179
 4738TIP3   OH214219   4.411   3.000   0.527 -0.2964  0.1682 -0.3096
 4738TIP3    H114220   4.345   2.962   0.470  1.5250 -0.7061 -1.9672
 4738TIP3    H214221   4.457   3.064   0.473  1.6780 -0.8867  0.0004
 4739TIP3   OH214222   1.117   2.934   4.642  0.3041  0.1304 -0.4783
 4739TIP3    H114223   1.176   3.005   4.668 -0.6943  0.9728 -0.4154
 4739TIP3    H214224   1.030   2.974   4.642 -0.6096 -1.6457  1.7455
 4740TIP3   OH214225   1.223   0.439   2.821 -0.0602  0.0620  0.2033
 4740TIP3    H114226   1.159   0.497   2.862 -0.6859  0.7937 -1.7068
 4740TIP3    H214227   1.282   0.498   2.774  1.7609 -0.6272  1.4929
 4741TIP3   OH214228   2.087   5.279   0.134 -0.5939  0.6427  0.1959
 4741TIP3    H114229   2.036   5.199   0.145 -2.6756  1.7571 -0.8621
 4741TIP3    H214230   2.135   5.266   0.053  0.7580 -0.3498  1.1160
 4742TIP3   OH214231   4.826   2.561   2.713  0.1044  0.1076  0.7690
 4742TIP3    H114232   4.845   2.477   2.756  0.6382  0.5157  1.3411
 4742TIP3    H214233   4.903   2.577   2.657  0.7268  0.9490  1.8239
 4743TIP3   OH214234   1.063   2.294   1.703  0.4479 -0.2527 -0.4986
 4743TIP3    H114235   1.146   2.316   1.746  0.4953 -1.3055  0.0020
 4743TIP3    H214236   1.068   2.199   1.691 -1.5814 -0.6976  1.5161
 4744TIP3   OH214237   4.141   1.215   4.720 -0.0510  0.4969  0.0419
 4744TIP3    H114238   4.071   1.279   4.734  1.2975  2.4694 -1.6145
 4744TIP3    H214239   4.170   1.190   4.808 -2.4092  0.0352  0.7516
 4745TIP3   OH214240   5.122   0.886   4.755 -0.1386 -0.4550  0.8924
 4745TIP3    H114241   5.173   0.936   4.819  1.3053  1.5789 -1.6571
 4745TIP3    H214242   5.032   0.917   4.767  0.2265  0.4304  1.4858
 4746TIP3   OH214243   1.298   2.086   1.678 -0.0576  0.2503  0.0844
 4746TIP3    H114244   1.317   2.104   1.770  1.2818 -1.0101  0.0982
 4746TIP3    H214245   1.343   2.156   1.630  0.1833  0.2737  0.3424
 4747TIP3   OH214246   5.556   0.648   2.843 -0.1010 -0.6179 -0.2010
 4747TIP3    H114247   5.467   0.618   2.823 -1.2085  1.8184  0.7032
 4747TIP3    H214248   5.592   0.580   2.899 -1.0130 -2.1355 -1.3831
 4748TIP3   OH214249   5.981   2.871   3.825 -0.2894 -0.0452  0.8306
 4748TIP3    H114250   6.006   2.944   3.770  0.2924 -0.5176  0.4588
 4748TIP3    H214251   5.938   2.911   3.901  0.8038  0.7244  1.0487
 4749TIP3   OH214252   4.453   2.625   4.750  0.1335 -0.4135 -0.3305
 4749TIP3    H114253   4.454   2.669   4.665  1.3839 -0.4056 -0.3411
 4749TIP3    H214254   4.412   2.540   4.733 -0.9723  0.1554 -0.6118
 4750TIP3   OH214255   0.398   5.918   4.380  0.3850  0.4115  0.3167
 4750TIP3    H114256   0.494   5.910   4.374  0.2370 -0.4933 -1.8412
 4750TIP3    H214257   0.377   5.993   4.323 -0.0966  1.8475  2.2748
 4751TIP3   OH214258   0.974   3.270   1.928  0.1083  0.1078  0.9562
 4751TIP3    H114259   0.936   3.224   2.004 -3.5756  2.3092  0.6961
 4751TIP3    H214260   0.969   3.362   1.951  2.0726  0.6911 -0.7096
 4752TIP3   OH214261   4.834   3.839   1.115 -0.4018 -0.1422 -0.5537
 4752TIP3    H114262   4.802   3.842   1.025 -1.0717  1.3448 -0.2984
 4752TIP3    H214263   4.896   3.912   1.121 -0.7452  0.0861  0.3220
 4753TIP3   OH214264   1.397   2.134   0.847 -0.1987 -0.0243  0.4598
 4753TIP3    H114265   1.459   2.115   0.776 -1.8749  0.9099 -1.3450
 4753TIP3    H214266   1.389   2.051   0.894 -0.3577 -1.2194 -1.5543
 4754TIP3   OH214267   0.284   2.660   4.895 -0.6697 -0.3106  0.2304
 4754TIP3    H114268   0.311   2.569   4.892  0.0707 -0.2441  2.7810
 4754TIP3    H214269   0.357   2.708   4.855 -0.5296 -0.7297 -0.0191
 4755TIP3   OH214270   2.770   4.715   0.034 -0.6954 -0.0176 -0.2139
 4755TIP3    H114271   2.785   4.774  -0.040 -0.4553  1.0961  0.6915
 4755TIP3    H214272   2.748   4.773   0.106 -1.7769 -1.1463  0.3880
 4756TIP3   OH214273   3.376   2.267   1.421 -0.2291 -0.2522 -0.2018
 4756TIP3    H114274   3.372   2.247   1.328 -0.2544  1.0656 -0.5027
 4756TIP3    H214275   3.470   2.268   1.441 -0.1982  0.1144 -0.3641
 4757TIP3   OH214276   2.507   5.927   3.080  0.0083  0.6943 -0.1179
 4757TIP3    H114277   2.449   6.002   3.095 -0.3495  0.4067 -0.0468
 4757TIP3    H214278   2.564   5.955   3.008 -1.0918  0.4956 -1.0874
 4758TIP3   OH214279   1.305   2.222   0.300  0.2943 -0.1084 -0.1514
 4758TIP3    H114280   1.310   2.277   0.222 -2.1879  3.2030  1.7373
 4758TIP3    H214281   1.377   2.251   0.355  1.1605 -1.4248 -0.5258
 4759TIP3   OH214282   5.999   0.039   2.984 -0.4380 -0.4935  0.0803
 4759TIP3    H114283   6.028   0.102   2.917  0.0953 -0.4384  0.3578
 4759TIP3    H214284   6.064  -0.032   2.979 -0.0561 -0.2110  0.9432
 4760TIP3   OH214285   2.845   5.323   4.645  0.4161 -0.3019  0.3217
 4760TIP3    H114286   2.855   5.418   4.641 -0.0697 -0.2908 -1.1057
 4760TIP3    H214287   2.932   5.288   4.625  0.1581 -0.1441 -1.1979
 4761TIP3   OH214288   5.762   0.815   0.907  0.0278 -0.7557  0.2353
 4761TIP3    H114289   5.689   0.798   0.848 -0.6612 -2.0484  1.4047
 4761TIP3    H214290   5.783   0.907   0.893 -0.1007 -1.0047 -1.9992
 4762TIP3   OH214291   0.656   4.047   2.412 -0.2229  0.3580  0.4639
 4762TIP3    H114292   0.660   4.120   2.473  0.6579  1.6439 -1.0349
 4762TIP3    H214293   0.743   4.046   2.371 -1.2995  0.7525 -2.0335
 4763TIP3   OH214294   5.372   3.157   0.307 -0.1933  0.2044  0.6944
 4763TIP3    H114295   5.438   3.128   0.369  0.2344 -1.8923 -0.6134
 4763TIP3    H214296   5.365   3.084   0.244 -1.8234  1.4873 -0.7142
 4764TIP3   OH214297   2.230   5.091   0.651  0.1489  0.2263 -0.3720
 4764TIP3    H114298   2.195   5.154   0.715 -3.1700 -0.2114 -1.5823
 4764TIP3    H214299   2.238   5.142   0.570 -1.0323 -0.5161 -0.9653
 4765TIP3   OH214300   5.559   2.267   2.730  0.0865 -0.3791 -0.6161
 4765TIP3    H114301   5.488   2.213   2.762 -1.0503  0.3973 -1.7001
 4765TIP3    H214302   5.548   2.267   2.635  1.3906 -0.0257 -0.7931
 4766TIP3   OH214303   4.388   2.252   3.161  0.2239 -0.3165  0.0708
 4766TIP3    H114304   4.305   2.222   3.124  0.2550 -0.3786  0.0511
 4766TIP3    H214305   4.383   2.229   3.254  0.2756 -0.4465  0.0430
 4767TIP3   OH214306   4.273   0.877   4.933  0.6450  0.5851 -0.3910
 4767TIP3    H114307   4.318   0.867   4.849 -1.6801 -1.3898 -1.5033
 4767TIP3    H214308   4.312   0.809   4.989  0.3410  0.1334 -0.7303
 4768TIP3   OH214309   1.793   2.026   4.840  0.1174  0.2031  0.3980
 4768TIP3    H114310   1.838   2.088   4.897 -0.0462  0.0839  0.6587
 4768TIP3    H214311   1.848   1.948   4.841  0.8211  0.6738 -0.6920
 4769TIP3   OH214312   3.044   2.376   3.513  0.4154 -0.0868 -0.0577
 4769TIP3    H114313   3.027   2.462   3.475 -1.2552  0.2696  1.3654
 4769TIP3    H214314   3.115   2.391   3.576 -1.3086  0.8193  1.8084
 4770TIP3   OH214315   2.926   5.437   3.787 -0.3906 -0.0357  0.1258
 4770TIP3    H114316   2.977   5.509   3.751 -0.2113 -0.0897  0.2684
 4770TIP3    H214317   2.964   5.358   3.747  0.6218 -0.1990  1.3481
 4771TIP3   OH214318   1.370   5.415   1.088  0.6800 -0.3265  0.7197
 4771TIP3    H114319   1.442   5.381   1.142  1.2786  0.1579  0.2474
 4771TIP3    H214320   1.371   5.360   1.010  1.1645  0.2903  0.2873
 4772TIP3   OH214321   1.877   3.067   0.933  0.0456 -0.5664  0.0168
 4772TIP3    H114322   1.888   3.043   1.025  0.1924 -0.9044 -0.0840
 4772TIP3    H214323   1.882   2.983   0.886 -2.4170 -0.7174 -0.1124
 4773TIP3   OH214324   1.554   5.503   4.942  0.8925 -0.6429  0.5194
 4773TIP3    H114325   1.580   5.547   5.023  1.7573  1.2126 -0.6853
 4773TIP3    H214326   1.535   5.575   4.881  1.4238 -1.9518 -1.2748
 4774TIP3   OH214327   0.474   4.593   4.776 -0.0908  0.1969 -0.0094
 4774TIP3    H114328   0.381   4.598   4.798 -0.1301 -0.7497  0.0561
 4774TIP3    H214329   0.493   4.678   4.736 -0.9644  0.4223  0.0251
 4775TIP3   OH214330   1.724   5.824   1.584  0.4949  0.1003  0.3897
 4775TIP3    H114331   1.641   5.871   1.572  0.2611 -0.4101 -0.0114
 4775TIP3    H214332   1.700   5.746   1.636  0.6647 -0.2193 -0.0078
 4776TIP3   OH214333   3.369   4.919   0.130 -0.0109  0.6102 -0.2185
 4776TIP3    H114334   3.294   4.925   0.071 -0.6199 -0.1159  0.4551
 4776TIP3    H214335   3.331   4.897   0.215  1.0143 -0.4076  0.0062
 4777TIP3   OH214336   1.239   3.154   4.752 -0.1182 -0.0174  0.2310
 4777TIP3    H114337   1.314   3.181   4.806  1.0198  1.4313 -1.9199
 4777TIP3    H214338   1.164   3.200   4.790  0.3319 -0.3760  1.5821
 4778TIP3   OH214339   4.689   0.253   2.345 -0.6935  0.4275  0.1050
 4778TIP3    H114340   4.775   0.284   2.317  0.5666 -2.0978  0.8188
 4778TIP3    H214341   4.663   0.191   2.276 -1.2223  0.0408  0.6421
 4779TIP3   OH214342   4.165   0.977   2.456 -0.3891  0.2413 -0.6475
 4779TIP3    H114343   4.120   0.928   2.387 -0.8449  0.1248 -0.2688
 4779TIP3    H214344   4.214   1.045   2.409 -2.2941  1.4596 -0.9514
 4780TIP3   OH214345   6.080   2.638   3.507  1.1790 -0.2242 -0.1844
 4780TIP3    H114346   6.116   2.563   3.553  0.9328 -0.7026 -0.7619
 4780TIP3    H214347   5.993   2.650   3.544  0.5310 -1.3116 -1.2766
 4781TIP3   OH214348   5.008   3.533   4.355  0.2474 -0.2069  0.0373
 4781TIP3    H114349   5.014   3.468   4.425 -0.8660  0.4608  0.7816
 4781TIP3    H214350   5.085   3.589   4.367  0.4698 -0.5536  0.2433
 4782TIP3   OH214351   4.618   2.549   4.397  0.4055  0.0359  0.4860
 4782TIP3    H114352   4.682   2.558   4.467  2.2245  1.2108 -1.2005
 4782TIP3    H214353   4.549   2.612   4.418 -0.2037 -1.1683  2.2765
 4783TIP3   OH214354   1.346   2.349   3.986 -0.0934 -0.0914  0.5908
 4783TIP3    H114355   1.439   2.364   3.967 -0.1863  0.6249  0.6791
 4783TIP3    H214356   1.300   2.405   3.924 -0.4515  0.1998  1.1244
 4784TIP3   OH214357   0.823   1.371   4.239 -0.4797  0.0922  0.0263
 4784TIP3    H114358   0.854   1.281   4.249  0.2891 -0.0052 -2.5274
 4784TIP3    H214359   0.894   1.416   4.193 -2.2209  1.0595 -1.8797
 4785TIP3   OH214360   4.445   3.940   3.141  0.2682 -0.2346  0.7138
 4785TIP3    H114361   4.353   3.912   3.143 -0.1049  0.8753  0.1495
 4785TIP3    H214362   4.469   3.935   3.048 -0.6539  3.6971  0.0760
 4786TIP3   OH214363   3.041   2.077   1.551 -0.6542  0.0209  0.7758
 4786TIP3    H114364   3.122   2.110   1.513 -0.2378  0.0913  1.7015
 4786TIP3    H214365   3.061   2.065   1.644 -0.7278 -2.9802  0.4877
 4787TIP3   OH214366   5.157   3.382   0.184  0.0643  0.4282 -0.2695
 4787TIP3    H114367   5.097   3.357   0.255 -0.7079 -0.4186 -1.1852
 4787TIP3    H214368   5.209   3.453   0.221 -0.2892 -0.0127  1.1587
 4788TIP3   OH214369   5.209   0.117   3.039  0.2671 -0.2538  0.0527
 4788TIP3    H114370   5.218   0.209   3.013 -2.9966  1.3711  3.7299
 4788TIP3    H214371   5.286   0.100   3.093  1.6018 -0.2307 -1.7515
 4789TIP3   OH214372   5.108   4.088   2.480  0.1359  0.5147  0.0198
 4789TIP3    H114373   5.024   4.132   2.467  0.0891 -0.2674 -3.2466
 4789TIP3    H214374   5.086   3.995   2.488  0.5258  0.5834  2.8564
 4790TIP3   OH214375   3.412   5.198   4.732 -0.2018 -0.1622 -0.2373
 4790TIP3    H114376   3.487   5.253   4.754 -0.0822 -0.6468  0.6220
 4790TIP3    H214377   3.440   5.109   4.754 -1.0167 -0.3538  0.0903
 4791TIP3   OH214378   3.330   0.082   2.675 -0.1614  0.1899  0.1867
 4791TIP3    H114379   3.300   0.170   2.695 -0.8766 -0.1736  0.7333
 4791TIP3    H214380   3.412   0.095   2.627  0.6507  1.1276  1.7584
 4792TIP3   OH214381   0.694   5.934   0.785  0.3835 -0.1341 -0.3561
 4792TIP3    H114382   0.732   6.014   0.750 -1.3561  1.1997  0.6373
 4792TIP3    H214383   0.684   5.877   0.709  0.7248  0.9703 -1.2597
 4793TIP3   OH214384   1.051   3.529   3.481 -0.1759 -0.2372 -0.0131
 4793TIP3    H114385   1.088   3.612   3.511  0.0152  0.3970 -1.8847
 4793TIP3    H214386   1.065   3.469   3.554  1.7369  0.7840  0.5338
 4794TIP3   OH214387   5.312   1.455   2.795 -0.0241 -0.6324  0.7974
 4794TIP3    H114388   5.375   1.387   2.772 -0.9003 -1.1066 -0.3082
 4794TIP3    H214389   5.237   1.408   2.833  0.2895 -0.0725  2.1965
 4795TIP3   OH214390   2.065   2.347   0.336  0.0453 -0.0170 -0.0690
 4795TIP3    H114391   1.977   2.366   0.305  0.4005  1.6712 -0.1435
 4795TIP3    H214392   2.056   2.267   0.388 -1.5898  0.3370  0.2341
 4796TIP3   OH214393   3.815   4.702   0.691  0.4630  0.4675  0.3595
 4796TIP3    H114394   3.906   4.689   0.720  0.6144 -1.4691 -0.8272
 4796TIP3    H214395   3.772   4.620   0.710 -0.7069  0.9017 -0.3210
 4797TIP3   OH214396   6.154   5.789   0.582  0.2013 -0.0230  0.7368
 4797TIP3    H114397   6.127   5.757   0.496  1.6070  0.3893  0.1003
 4797TIP3    H214398   6.074   5.823   0.622 -0.1289  2.0155 -1.4094
 4798TIP3   OH214399   1.081   5.282   1.241 -0.2365  0.0064 -0.2733
 4798TIP3    H114400   1.123   5.361   1.274  0.2784 -0.6428  0.6818
 4798TIP3    H214401   1.090   5.288   1.146  0.0953  0.9244 -0.1902
 4799TIP3   OH214402   1.808   0.854   4.697  0.0741 -0.5822  0.3919
 4799TIP3    H114403   1.852   0.832   4.615 -1.0127  1.5568 -0.8602
 4799TIP3    H214404   1.728   0.802   4.697  1.3453 -2.6694  1.5172
 4800TIP3   OH214405   1.156   3.710   4.329 -0.4779 -0.4832  0.3511
 4800TIP3    H114406   1.148   3.710   4.424 -0.9536  0.1646  0.3193
 4800TIP3    H214407   1.217   3.781   4.310 -0.5208 -0.4968  0.1593
 4801TIP3   OH214408   2.661   5.337   2.559  0.0077  0.6064 -0.5123
 4801TIP3    H114409   2.749   5.355   2.594  0.1938 -1.7398  0.4274
 4801TIP3    H214410   2.601   5.369   2.626  0.2893 -0.9037  0.5168
 4802TIP3   OH214411   2.352   5.727   3.229  0.1997  0.1700 -0.3330
 4802TIP3    H114412   2.400   5.795   3.182 -0.5014  1.1239  0.2929
 4802TIP3    H214413   2.381   5.645   3.188 -0.2413  0.9261 -2.3023
 4803TIP3   OH214414   2.084   4.183   2.774  0.0464  0.6052 -0.0786
 4803TIP3    H114415   2.160   4.127   2.793 -1.7234 -1.4915  1.2183
 4803TIP3    H214416   2.104   4.266   2.817  2.6099  1.0050 -1.7865
 4804TIP3   OH214417   5.952   1.523   1.776  0.3639 -1.3236 -0.0952
 4804TIP3    H114418   5.903   1.450   1.737  0.7073  0.0113 -3.3316
 4804TIP3    H214419   5.887   1.590   1.793  0.5168 -1.0150 -0.6893
 4805TIP3   OH214420   6.152   3.431   3.165 -0.1055  0.2702 -0.0446
 4805TIP3    H114421   6.136   3.343   3.199 -0.3673  0.1470 -0.4849
 4805TIP3    H214422   6.081   3.446   3.103 -0.3461  0.9856  0.3907
 4806TIP3   OH214423   3.373   4.982   1.179  0.2752  0.3966 -0.2127
 4806TIP3    H114424   3.391   4.937   1.097 -1.7138 -0.6222 -0.1492
 4806TIP3    H214425   3.450   4.963   1.234  0.1435 -1.7307 -0.6951
 4807TIP3   OH214426   3.461   5.107   0.709  0.0323 -0.0137 -0.5143
 4807TIP3    H114427   3.519   5.033   0.727 -0.4645 -0.1696  0.5327
 4807TIP3    H214428   3.377   5.066   0.689 -0.5641  0.2752  1.2788
 4808TIP3   OH214429   2.406   1.323   1.969  0.6633 -0.2059  0.2204
 4808TIP3    H114430   2.327   1.364   1.934  0.2731 -0.0378  1.2564
 4808TIP3    H214431   2.473   1.391   1.965  0.8567 -0.4404 -0.9422
 4809TIP3   OH214432   2.166   2.319   1.311 -0.8042 -0.6356  0.1954
 4809TIP3    H114433   2.111   2.255   1.356  0.5984 -1.4444  0.8444
 4809TIP3    H214434   2.196   2.273   1.232 -0.7488 -0.3441  0.0458
 4810TIP3   OH214435   1.904   5.537   3.074 -0.1643  0.0386 -0.2389
 4810TIP3    H114436   1.863   5.487   3.145  0.0474  0.4447  0.1756
 4810TIP3    H214437   1.834   5.596   3.044 -0.5102 -0.7126 -0.9406
 4811TIP3   OH214438   2.247   3.620   0.745  0.2831 -0.2606  0.0749
 4811TIP3    H114439   2.162   3.583   0.768  0.2391 -1.5484 -1.8569
 4811TIP3    H214440   2.295   3.546   0.708  1.5792  0.8499 -0.5334
 4812TIP3   OH214441   2.183   0.917   1.337 -0.3682  0.0767 -0.2990
 4812TIP3    H114442   2.088   0.922   1.340 -0.4246 -1.1625  0.3123
 4812TIP3    H214443   2.202   0.859   1.264 -0.0425  0.8941 -0.8832
 4813TIP3   OH214444   0.826   0.917   1.674 -0.0585  1.0416 -0.3153
 4813TIP3    H114445   0.740   0.886   1.703 -0.1999  0.2114 -1.5614
 4813TIP3    H214446   0.817   0.927   1.579  0.4504  3.4747 -0.1559
 4814TIP3   OH214447   2.109   4.288   3.530  0.0876 -0.0143  0.2458
 4814TIP3    H114448   2.198   4.259   3.553  0.1376 -1.7024 -1.7742
 4814TIP3    H214449   2.114   4.384   3.535  2.3611 -0.0026 -0.8591
 4815TIP3   OH214450   6.283   2.459   1.802  0.4416 -0.1748  0.0000
 4815TIP3    H114451   6.280   2.420   1.714  1.2366  0.6472 -0.4066
 4815TIP3    H214452   6.327   2.394   1.856 -1.6038 -1.4592  0.2259
 4816TIP3   OH214453   4.369   1.774   4.337  0.3516 -0.1752  0.4283
 4816TIP3    H114454   4.425   1.802   4.409 -0.9697 -0.6023  1.6736
 4816TIP3    H214455   4.297   1.838   4.336  0.1084 -0.4436 -0.2007
 4817TIP3   OH214456   0.930   0.045   2.863  0.1863  0.2885  0.3740
 4817TIP3    H114457   0.902   0.136   2.871 -1.9090  0.1798 -3.2804
 4817TIP3    H214458   0.860  -0.005   2.905 -0.3425  0.3313 -0.4208
 4818TIP3   OH214459   2.270   2.510   1.005  0.1879 -0.0519  0.1289
 4818TIP3    H114460   2.237   2.421   1.022 -0.0133  0.1473  0.8251
 4818TIP3    H214461   2.278   2.515   0.910  0.5063 -0.9292  0.0931
 4819TIP3   OH214462   1.072   0.709   1.687  0.4171 -0.1063 -0.4411
 4819TIP3    H114463   1.043   0.626   1.724 -0.9861  1.0902  1.3528
 4819TIP3    H214464   1.012   0.727   1.616 -0.3965  0.1587  0.2928
 4820TIP3   OH214465   2.199   2.651   3.144  0.4383  0.3927  0.6058
 4820TIP3    H114466   2.124   2.599   3.172  1.6440 -1.2201  0.9883
 4820TIP3    H214467   2.227   2.610   3.062  1.0076  0.8602  0.5635
 4821TIP3   OH214468   2.269   5.092   2.720 -0.3063 -0.2206 -0.1429
 4821TIP3    H114469   2.245   5.121   2.632 -1.8928 -0.3433  0.2084
 4821TIP3    H214470   2.185   5.073   2.762  0.4767 -1.1560  1.0606
 4822TIP3   OH214471   3.440   5.850   0.337  0.1716 -0.0801 -0.0132
 4822TIP3    H114472   3.396   5.870   0.419 -2.7720 -0.9587 -1.2278
 4822TIP3    H214473   3.439   5.932   0.288 -0.7585 -0.2504 -0.2889
 4823TIP3   OH214474   1.006   1.332   2.866  0.1987  0.1125 -0.4796
 4823TIP3    H114475   1.035   1.389   2.938 -1.8563 -0.0603  0.5728
 4823TIP3    H214476   1.077   1.270   2.855  1.8471  1.9393 -0.6353
 4824TIP3   OH214477   1.433   2.669   0.741 -0.0925 -0.6954  0.1878
 4824TIP3    H114478   1.463   2.590   0.696 -1.9525 -1.7022  0.5965
 4824TIP3    H214479   1.490   2.676   0.818  2.6003  0.6024 -1.7538
 4825TIP3   OH214480   3.279   2.924   2.058  0.0865 -0.0604 -0.0425
 4825TIP3    H114481   3.310   3.014   2.059 -1.2775  0.4350 -0.4292
 4825TIP3    H214482   3.258   2.906   2.150  0.5912 -0.0867  0.0747
 4826TIP3   OH214483   4.343   0.612   3.984 -0.6247  0.0637 -0.0448
 4826TIP3    H114484   4.438   0.603   3.984 -0.5951 -0.0777  1.8810
 4826TIP3    H214485   4.327   0.696   3.941  0.4780  0.7522  0.8120
 4827TIP3   OH214486   6.068   1.572   2.745 -0.2818 -0.4338  0.3240
 4827TIP3    H114487   6.090   1.600   2.834  0.4073  0.9405 -0.2510
 4827TIP3    H214488   5.976   1.546   2.750 -0.0491 -1.1003  1.5921
 4828TIP3   OH214489   1.304   3.588   2.133 -0.1025 -0.7954  0.1922
 4828TIP3    H114490   1.212   3.579   2.157 -0.6948  0.7039 -1.2693
 4828TIP3    H214491   1.343   3.638   2.205 -0.1492 -2.2784  1.2975
 4829TIP3   OH214492   0.655   3.815   4.400  0.2312 -0.0091  0.1572
 4829TIP3    H114493   0.575   3.867   4.389  0.3798  0.3640  0.7810
 4829TIP3    H214494   0.725   3.872   4.367  0.1473 -0.6976 -1.2752
 4830TIP3   OH214495   5.579   3.986   0.146 -0.1521  0.1466 -0.0197
 4830TIP3    H114496   5.492   3.962   0.113  0.0590 -0.4079 -0.1761
 4830TIP3    H214497   5.635   3.983   0.069 -0.2758  2.0394 -0.2517
 4831TIP3   OH214498   4.841   4.970   1.707 -0.1498 -0.3362  0.3708
 4831TIP3    H114499   4.842   4.884   1.748  1.8616 -0.2459  0.6001
 4831TIP3    H214500   4.928   4.980   1.668  0.4913  2.4162  2.1729
 4832TIP3   OH214501   3.641   1.450   2.429 -0.3240  0.3393  0.1060
 4832TIP3    H114502   3.706   1.421   2.494 -1.4456 -1.0546  0.6706
 4832TIP3    H214503   3.679   1.425   2.345  0.9692  1.8053  0.2272
 4833TIP3   OH214504   1.465   1.128   3.590 -0.3193  0.3957  0.1849
 4833TIP3    H114505   1.414   1.106   3.513 -0.9224 -1.3060  1.0235
 4833TIP3    H214506   1.553   1.146   3.556 -0.9249  1.1640 -1.0351
 4834TIP3   OH214507   4.879   1.509   3.238 -0.0799 -0.3721  0.1144
 4834TIP3    H114508   4.817   1.475   3.173  0.1327  1.4891 -1.1269
 4834TIP3    H214509   4.937   1.567   3.189  2.8823 -2.2107  1.1725
 4835TIP3   OH214510   3.058   3.054   2.476  0.6723  0.0777  0.7236
 4835TIP3    H114511   3.006   3.105   2.414  0.8200  0.2781  0.7625
 4835TIP3    H214512   3.132   3.111   2.497  0.8487 -0.1617  0.7511
 4836TIP3   OH214513   1.796   2.809   2.565  0.4330 -0.3841  0.6913
 4836TIP3    H114514   1.795   2.877   2.498  0.6713  1.0536  2.0885
 4836TIP3    H214515   1.813   2.728   2.516 -0.9203  0.3609 -1.1485
 4837TIP3   OH214516   2.558   3.914   1.762 -0.1104  0.4319  0.1231
 4837TIP3    H114517   2.498   3.988   1.750  0.6546  1.0988  0.2832
 4837TIP3    H214518   2.502   3.837   1.764 -0.8720  0.9545 -0.6541
 4838TIP3   OH214519   5.221   0.126   1.078 -0.2257 -0.1313  0.4680
 4838TIP3    H114520   5.199   0.036   1.056  1.5048 -0.5130  0.1506
 4838TIP3    H214521   5.274   0.157   1.005  0.1446  0.7627  1.0910
 4839TIP3   OH214522   2.873   0.971   0.666  0.0042 -0.3202 -0.0198
 4839TIP3    H114523   2.871   1.064   0.686  1.9337 -0.3155  0.2532
 4839TIP3    H214524   2.784   0.940   0.687 -0.8957  1.5714 -0.8616
 4840TIP3   OH214525   6.066   3.623   4.128  0.1963  0.0865  0.1998
 4840TIP3    H114526   6.025   3.697   4.173  0.0851 -0.9903  1.9953
 4840TIP3    H214527   6.112   3.576   4.198  0.8394 -1.1446 -1.0118
 4841TIP3   OH214528   4.298   3.932   1.676  0.4703  0.1727  0.2529
 4841TIP3    H114529   4.374   3.990   1.686  1.9514 -1.9693  2.9697
 4841TIP3    H214530   4.234   3.964   1.739  0.1205  0.4881 -0.2544
 4842TIP3   OH214531   5.846   1.773   1.260 -0.5672 -0.6286  0.3864
 4842TIP3    H114532   5.826   1.753   1.169 -2.1028 -0.8919  0.7591
 4842TIP3    H214533   5.893   1.696   1.292  0.7056 -0.1973 -0.3849
 4843TIP3   OH214534   4.645   3.750   0.629 -0.4430 -0.0049  0.2111
 4843TIP3    H114535   4.643   3.657   0.649  0.4537 -0.4202 -1.4738
 4843TIP3    H214536   4.707   3.787   0.692  0.9787 -0.9741 -0.5601
 4844TIP3   OH214537   1.736   1.575   1.296 -0.1775  0.4366  0.6111
 4844TIP3    H114538   1.828   1.598   1.311 -0.4374  0.8530  1.6331
 4844TIP3    H214539   1.692   1.597   1.378 -0.7202 -2.3241  1.1644
 4845TIP3   OH214540   3.592   1.750   2.240  0.0324  0.4738  0.1349
 4845TIP3    H114541   3.609   1.757   2.334  0.0455 -1.7424  0.3592
 4845TIP3    H214542   3.497   1.736   2.234  0.0640  0.3772 -0.1599
 4846TIP3   OH214543   0.400   5.429   0.388  0.7053 -0.2328  0.5507
 4846TIP3    H114544   0.399   5.341   0.426  0.7943 -0.5647 -0.1933
 4846TIP3    H214545   0.339   5.479   0.441  1.6558 -0.3831  1.8287
 4847TIP3   OH214546   4.505   5.655   0.904  0.3193 -0.1730  0.0036
 4847TIP3    H114547   4.484   5.565   0.927 -1.0555  0.5713  1.8949
 4847TIP3    H214548   4.492   5.705   0.985  2.2369  1.5644 -0.6524
 4848TIP3   OH214549   1.390   0.220   0.426 -0.5423 -0.2637 -0.2888
 4848TIP3    H114550   1.430   0.143   0.384  0.2909  0.3544 -0.6455
 4848TIP3    H214551   1.296   0.201   0.426 -0.3884 -1.0718 -0.8037
 4849TIP3   OH214552   4.350   4.043   0.081  0.1626 -0.0844  0.4299
 4849TIP3    H114553   4.394   4.033   0.166  0.7663 -1.5676 -0.0222
 4849TIP3    H214554   4.352   4.137   0.064 -1.7447  0.5339  2.9509
 4850TIP3   OH214555   5.267   2.796   3.158  0.2867  0.0222 -0.8199
 4850TIP3    H114556   5.342   2.746   3.190 -0.0082 -0.6102 -1.0991
 4850TIP3    H214557   5.253   2.864   3.225  0.6739 -0.2851 -0.4194
 4851TIP3   OH214558   0.695   3.384   3.527  0.3865 -0.0550 -0.9765
 4851TIP3    H114559   0.602   3.407   3.521  0.6760  1.1732 -1.0829
 4851TIP3    H214560   0.716   3.344   3.443 -0.1561 -0.7987 -0.7645
 4852TIP3   OH214561   5.455   4.361   3.152  0.0260  0.3899 -0.2445
 4852TIP3    H114562   5.511   4.354   3.229  0.0824 -1.7728 -0.4128
 4852TIP3    H214563   5.367   4.344   3.185 -0.0038 -0.1263 -0.5785
 4853TIP3   OH214564   0.585   1.752   1.025  0.0122  0.2020  0.0780
 4853TIP3    H114565   0.622   1.830   1.066  0.6226  0.7357 -1.4162
 4853TIP3    H214566   0.637   1.739   0.946 -1.0225 -0.8597 -0.4692
 4854TIP3   OH214567   4.216   0.931   1.680 -0.1666 -0.0805 -0.0649
 4854TIP3    H114568   4.252   0.846   1.705 -0.1055  0.3365  1.3494
 4854TIP3    H214569   4.284   0.972   1.628  1.3502  0.5574  2.2693
 4855TIP3   OH214570   1.485   5.632   4.064  0.1510 -0.0521  0.4642
 4855TIP3    H114571   1.493   5.598   3.975  1.2711 -0.7913  0.8389
 4855TIP3    H214572   1.575   5.646   4.094 -0.1109 -1.4346  2.0805
 4856TIP3   OH214573   4.032   1.590   4.287  0.0983  0.1466  0.4165
 4856TIP3    H114574   3.941   1.576   4.313  0.6063 -1.8273  1.2880
 4856TIP3    H214575   4.040   1.547   4.202  0.3679 -0.2447  0.6368
 4857TIP3   OH214576   3.424   1.406   1.276  0.6101  0.0971  0.1127
 4857TIP3    H114577   3.456   1.343   1.341 -2.5642 -2.1977 -0.3216
 4857TIP3    H214578   3.416   1.355   1.195 -0.6556  1.4636 -0.6692
 4858TIP3   OH214579   6.097   3.657   2.750  0.0054 -0.3991  0.1483
 4858TIP3    H114580   6.062   3.612   2.826 -0.6904 -0.4081 -0.1657
 4858TIP3    H214581   6.020   3.674   2.695  0.3809  0.3355 -0.1695
 4859TIP3   OH214582   5.129   0.341   4.071 -0.2565  0.4508  0.1631
 4859TIP3    H114583   5.223   0.357   4.072  0.0673 -0.9313 -2.0967
 4859TIP3    H214584   5.120   0.247   4.085 -1.2856  0.5245  0.0936
 4860TIP3   OH214585   2.874   3.747   2.168  0.0509 -0.0172 -0.8836
 4860TIP3    H114586   2.901   3.809   2.236  0.5742 -1.1662 -0.0199
 4860TIP3    H214587   2.852   3.802   2.093 -0.9100  1.3178  0.3251
 4861TIP3   OH214588   3.201   2.213   1.772 -0.0686  0.2380  0.0824
 4861TIP3    H114589   3.167   2.201   1.860 -0.3835  1.0700  0.0830
 4861TIP3    H214590   3.218   2.307   1.765 -0.9763  0.3364 -1.0685
 4862TIP3   OH214591   2.545   2.118   2.131  0.1636 -0.2182 -0.2477
 4862TIP3    H114592   2.530   2.111   2.226  1.6536 -1.2664 -0.0426
 4862TIP3    H214593   2.548   2.212   2.114 -1.4769  0.0019  0.4931
 4863TIP3   OH214594   1.625   4.410   3.954 -0.2935 -0.1528 -0.4371
 4863TIP3    H114595   1.669   4.472   4.012 -1.1787 -1.0629  1.2892
 4863TIP3    H214596   1.688   4.339   3.944  0.6869  0.9152 -2.3457
 4864TIP3   OH214597   6.101   3.485   0.116 -0.5879 -0.1842 -0.0671
 4864TIP3    H114598   6.028   3.449   0.167 -1.0365  1.3554  0.4353
 4864TIP3    H214599   6.138   3.409   0.070 -0.9674 -1.3959  1.5441
 4865TIP3   OH214600   6.172   5.382   4.254  0.4121  0.5804  1.0970
 4865TIP3    H114601   6.265   5.406   4.259  0.8448 -0.9227  0.8299
 4865TIP3    H214602   6.172   5.293   4.219 -1.2899  1.4792 -1.4115
 4866TIP3   OH214603   0.078   3.279   2.284  0.8877  0.1378  0.0779
 4866TIP3    H114604   0.058   3.227   2.362 -3.7892 -0.0135 -0.8874
 4866TIP3    H214605   0.142   3.227   2.235  1.1717 -1.5260  2.0908
 4867TIP3   OH214606   6.262   2.111   0.712 -0.1425 -0.5128 -0.3899
 4867TIP3    H114607   6.177   2.077   0.685  0.0928 -1.8661  0.4678
 4867TIP3    H214608   6.323   2.041   0.693  0.7723  0.3817 -0.8346
 4868TIP3   OH214609   3.214   3.525   3.099 -0.1207  0.1697 -0.2479
 4868TIP3    H114610   3.175   3.517   3.012 -0.8540 -0.5499  0.1432
 4868TIP3    H214611   3.140   3.533   3.159  0.2439 -2.2919  0.6292
 4869TIP3   OH214612   4.467   3.819   3.387 -0.2206  0.0011  0.1166
 4869TIP3    H114613   4.400   3.886   3.371 -1.5688 -0.8730  1.7529
 4869TIP3    H214614   4.517   3.814   3.305 -0.6669  2.3114 -0.3756
 4870TIP3   OH214615   0.439   3.640   0.431 -0.5253  0.1903  0.1345
 4870TIP3    H114616   0.377   3.626   0.503  0.6870 -1.0963  0.9940
 4870TIP3    H214617   0.454   3.552   0.395  1.8128  0.2248  0.8675
 4871TIP3   OH214618   1.248   0.519   0.033  0.0228  0.3559 -0.0179
 4871TIP3    H114619   1.173   0.473   0.070 -1.1378 -0.3096 -2.9389
 4871TIP3    H214620   1.321   0.497   0.092 -1.4344 -1.4736  1.2056
 4872TIP3   OH214621   5.480   2.159   3.085  0.3514  0.1998 -0.1432
 4872TIP3    H114622   5.456   2.224   3.152  0.0886  0.4024 -0.4289
 4872TIP3    H214623   5.571   2.180   3.064  0.0795  0.8911 -0.6884
 4873TIP3   OH214624   3.908   4.592   2.468 -0.3157  0.1924 -0.5155
 4873TIP3    H114625   3.969   4.576   2.396 -0.2643 -1.5818 -0.1171
 4873TIP3    H214626   3.963   4.623   2.540 -0.3140  1.5555 -1.0709
 4874TIP3   OH214627   1.283   4.204   1.562 -0.8033 -0.0010 -0.2054
 4874TIP3    H114628   1.334   4.129   1.530  3.1190  1.7321  1.3426
 4874TIP3    H214629   1.281   4.265   1.488 -0.2446  0.0647 -0.1717
 4875TIP3   OH214630   0.553   1.042   4.805  0.3708 -1.2977  0.2243
 4875TIP3    H114631   0.564   1.137   4.810 -0.6386 -1.1650 -0.0850
 4875TIP3    H214632   0.470   1.029   4.761  2.7106 -2.3680 -4.5005
 4876TIP3   OH214633   1.747   1.741   3.098  0.4184 -0.1042  0.4269
 4876TIP3    H114634   1.743   1.835   3.116 -0.0185 -0.3971  2.0221
 4876TIP3    H214635   1.839   1.725   3.075  0.6355  0.6021  0.7578
 4877TIP3   OH214636   2.171   4.623   2.658  0.4304  0.2636  0.2508
 4877TIP3    H114637   2.248   4.679   2.661  0.3227  0.3859  0.8922
 4877TIP3    H214638   2.183   4.561   2.730 -0.5220  0.8968  0.9883
 4878TIP3   OH214639   4.612   5.276   3.765  0.0004  0.3396  1.0437
 4878TIP3    H114640   4.521   5.254   3.785  0.4550 -2.4193  0.4079
 4878TIP3    H214641   4.656   5.280   3.850 -0.4681  0.6509  1.2783
 4879TIP3   OH214642   3.171   2.039   2.937 -0.0765 -0.3240 -0.6338
 4879TIP3    H114643   3.202   2.097   2.867 -0.9927 -2.2170 -2.7036
 4879TIP3    H214644   3.079   2.023   2.917 -0.6127 -0.2795  1.5148
 4880TIP3   OH214645   6.216   4.963   1.975 -0.8883  0.3806 -0.6675
 4880TIP3    H114646   6.298   4.978   1.928 -0.5330  0.4985 -0.0195
 4880TIP3    H214647   6.216   5.030   2.044 -1.0874 -0.2118 -0.0874
 4881TIP3   OH214648   1.464   5.096   4.431  0.2219 -0.3918 -0.0830
 4881TIP3    H114649   1.499   5.033   4.494  1.2758  1.2955  1.0715
 4881TIP3    H214650   1.390   5.136   4.476  0.5041  0.2825 -0.2126
 4882TIP3   OH214651   2.547   4.596   4.150 -0.0986  0.3573  0.1030
 4882TIP3    H114652   2.617   4.563   4.095  1.0146 -0.1080  1.7370
 4882TIP3    H214653   2.568   4.689   4.163  0.1815  0.2414  0.5097
 4883TIP3   OH214654   5.539   2.346   4.909 -0.3677 -0.7199 -0.1595
 4883TIP3    H114655   5.627   2.365   4.941 -1.3315  0.7786  1.8296
 4883TIP3    H214656   5.548   2.344   4.813  1.7153 -0.0684 -0.0264
 4884TIP3   OH214657   3.430   4.656   2.608  0.1863 -0.0942  0.3100
 4884TIP3    H114658   3.500   4.694   2.661 -0.6567  2.0284  0.0214
 4884TIP3    H214659   3.472   4.628   2.527  0.5768  2.4268 -0.4516
 4885TIP3   OH214660   1.804   4.689   2.971  0.0471  0.2548  0.3043
 4885TIP3    H114661   1.847   4.705   2.886  2.3257 -0.0629  1.3161
 4885TIP3    H214662   1.733   4.628   2.951  1.0996 -0.5227 -1.2785
 4886TIP3   OH214663   2.661   2.189   1.008 -0.1651  0.1620 -0.1914
 4886TIP3    H114664   2.725   2.141   1.061 -0.7435  1.0625  1.3914
 4886TIP3    H214665   2.706   2.271   0.985 -0.8003  0.9135  1.1476
 4887TIP3   OH214666   1.218   3.407   0.490 -0.6773  0.0183 -0.1643
 4887TIP3    H114667   1.174   3.398   0.405  0.2118  1.0823 -0.7651
 4887TIP3    H214668   1.275   3.330   0.495 -0.3873  0.1803 -0.7661
 4888TIP3   OH214669   1.924   0.781   5.092  0.4783  0.7077 -0.2234
 4888TIP3    H114670   1.874   0.712   5.049  0.1122  0.9759 -0.2229
 4888TIP3    H214671   1.959   0.834   5.020 -0.1150  1.1426 -0.1967
 4889TIP3   OH214672   3.875   4.905   2.550  0.6064  0.2943  0.4346
 4889TIP3    H114673   3.961   4.865   2.562  0.5497  0.0173 -0.0760
 4889TIP3    H214674   3.842   4.916   2.639  0.4219 -1.2243  0.5723
 4890TIP3   OH214675   4.534   1.667   3.195 -0.6237 -0.4197 -0.5035
 4890TIP3    H114676   4.440   1.679   3.180 -0.5648 -0.9297 -1.3226
 4890TIP3    H214677   4.543   1.574   3.216 -0.3427 -0.2931 -0.0375
 4891TIP3   OH214678   3.398   0.908   4.851 -0.3107 -0.3953  0.4504
 4891TIP3    H114679   3.412   0.814   4.838 -1.4066 -0.5221  0.0756
 4891TIP3    H214680   3.362   0.939   4.768  1.6976  0.7346 -0.0745
 4892TIP3   OH214681   1.649   1.527   1.614  0.2692 -0.0644  0.5074
 4892TIP3    H114682   1.683   1.512   1.702 -0.9250  1.1056  1.2169
 4892TIP3    H214683   1.608   1.443   1.589  2.9150 -1.2827 -0.1099
 4893TIP3   OH214684   0.120   4.101   4.646  0.2536 -0.0380  0.2017
 4893TIP3    H114685   0.145   4.167   4.712  0.5092 -1.2943  1.4014
 4893TIP3    H214686   0.203   4.069   4.612  0.1484 -0.3122  0.2038
 4894TIP3   OH214687   4.940   1.183   4.675 -0.3097 -0.1249 -0.7393
 4894TIP3    H114688   4.879   1.121   4.714 -0.7821  0.0770 -1.1440
 4894TIP3    H214689   4.952   1.250   4.742 -0.8392  0.0354 -0.7992
 4895TIP3   OH214690   2.653   4.091   2.488  0.1490  0.4360  0.2733
 4895TIP3    H114691   2.699   4.026   2.541 -0.8039  1.1251  1.9910
 4895TIP3    H214692   2.584   4.042   2.443  0.9551 -0.1443 -0.3735
 4896TIP3   OH214693   1.721   0.054   1.430  0.4648  0.2777 -0.2335
 4896TIP3    H114694   1.670   0.046   1.349 -0.3866 -0.1482  0.3338
 4896TIP3    H214695   1.725   0.148   1.447 -0.0306  0.3232 -0.3544
 4897TIP3   OH214696   5.686   4.583   4.750 -0.0421 -0.6423 -0.2191
 4897TIP3    H114697   5.616   4.587   4.685  0.2733 -0.0800 -0.5306
 4897TIP3    H214698   5.669   4.503   4.799  0.1236 -1.4427 -1.4451
 4898TIP3   OH214699   1.234   3.027   1.032  0.3909  0.1363  0.3836
 4898TIP3    H114700   1.234   2.942   1.077 -0.2516  0.8467  1.7952
 4898TIP3    H214701   1.197   3.087   1.096  2.0636  1.7525 -0.0919
 4899TIP3   OH214702   3.195   1.227   3.872 -0.0832 -0.1660  0.7550
 4899TIP3    H114703   3.275   1.275   3.852  0.5835 -0.8577  1.6941
 4899TIP3    H214704   3.125   1.287   3.847  0.7259  0.7002  0.5059
 4900TIP3   OH214705   1.298   4.942   4.764  0.3400  0.0057 -0.1072
 4900TIP3    H114706   1.293   4.848   4.780 -1.6229  0.4612  2.5511
 4900TIP3    H214707   1.207   4.970   4.754  0.9600  1.3946 -3.1210
 4901TIP3   OH214708   3.877   0.657   5.066  0.3882 -0.1316  0.7229
 4901TIP3    H114709   3.786   0.635   5.083  0.0088  0.2166 -0.7925
 4901TIP3    H214710   3.923   0.631   5.147 -1.0758 -0.0205  1.6192
 4902TIP3   OH214711   3.657   5.362   4.743  0.1171 -0.5651 -0.2856
 4902TIP3    H114712   3.616   5.393   4.823  0.1380 -2.3932  0.4781
 4902TIP3    H214713   3.724   5.428   4.723  0.3949 -0.2825  1.4184
 4903TIP3   OH214714   0.745   3.741   1.108  0.2272 -0.3832 -0.3161
 4903TIP3    H114715   0.669   3.771   1.157  0.5472 -0.8466  0.4768
 4903TIP3    H214716   0.710   3.716   1.022 -0.2904  0.6932 -0.4273
 4904TIP3   OH214717   2.281   1.509   0.151  0.5352 -0.6364 -0.1527
 4904TIP3    H114718   2.189   1.536   0.143  0.2493 -1.2254  0.9384
 4904TIP3    H214719   2.293   1.492   0.245  0.8897 -3.4943 -0.6235
 4905TIP3   OH214720   3.538   5.327   0.399  0.2499 -0.1601  0.0930
 4905TIP3    H114721   3.548   5.413   0.438 -1.8026  0.4924 -0.6717
 4905TIP3    H214722   3.603   5.272   0.443  1.3300  1.6713  0.8601
 4906TIP3   OH214723   1.532   3.256   0.992  0.1557 -0.0332 -0.3587
 4906TIP3    H114724   1.528   3.212   1.077 -1.9665 -0.1993 -0.4773
 4906TIP3    H214725   1.574   3.192   0.934 -0.3712 -0.8143  0.0949
 4907TIP3   OH214726   5.637   2.474   0.943  0.1108  0.6306 -0.3361
 4907TIP3    H114727   5.584   2.402   0.976  1.3215  0.1268  0.6352
 4907TIP3    H214728   5.581   2.520   0.882 -2.0006  1.1031  1.8307
 4908TIP3   OH214729   2.677   5.867   4.209 -0.9218 -0.5265 -0.4451
 4908TIP3    H114730   2.717   5.883   4.294 -0.8982 -0.2024 -0.5147
 4908TIP3    H214731   2.749   5.870   4.146 -1.0462  0.0461 -0.5684
 4909TIP3   OH214732   3.476   5.846   4.967 -0.4706 -0.1554  0.1488
 4909TIP3    H114733   3.468   5.787   4.891 -0.2468  2.1357 -1.7838
 4909TIP3    H214734   3.562   5.827   5.003 -0.4053 -1.0180 -0.4179
 4910TIP3   OH214735   0.947   5.167   4.926 -0.2627  0.1024 -0.4249
 4910TIP3    H114736   1.012   5.102   4.898 -0.5513  0.4993 -2.0861
 4910TIP3    H214737   0.981   5.250   4.892 -0.0600  0.8181  1.4017
 4911TIP3   OH214738   6.039   0.180   4.149  0.3038 -0.1922  0.1325
 4911TIP3    H114739   5.977   0.170   4.221  0.3168  0.0599  0.1776
 4911TIP3    H214740   5.989   0.156   4.071  0.3046 -0.5146  0.2283
 4912TIP3   OH214741   3.175   0.596   2.043  0.1296 -0.2814 -0.1544
 4912TIP3    H114742   3.168   0.502   2.060  0.5341 -0.2009  0.4617
 4912TIP3    H214743   3.240   0.603   1.973  0.9425 -0.3868  0.5771
 4913TIP3   OH214744   3.620   0.963   2.903 -0.4476  0.3825  0.3913
 4913TIP3    H114745   3.577   0.879   2.888  1.3423 -0.3313 -1.0108
 4913TIP3    H214746   3.621   0.972   2.999 -1.5486 -0.6830  0.5352
 4914TIP3   OH214747   0.968   2.625   0.402 -0.3368 -0.0039  0.4389
 4914TIP3    H114748   1.014   2.542   0.412  2.3700  1.3119 -0.2436
 4914TIP3    H214749   1.005   2.682   0.469  0.3945  1.6351 -1.2675
 4915TIP3   OH214750   4.776   4.512   4.085  0.2159  0.3364  0.0845
 4915TIP3    H114751   4.845   4.461   4.127 -0.5219 -1.3656 -0.6667
 4915TIP3    H214752   4.736   4.451   4.023 -1.0334  1.7101 -0.5186
 4916TIP3   OH214753   4.569   5.969   1.937 -0.7887  0.0585 -0.0078
 4916TIP3    H114754   4.511   5.917   1.992  0.4926 -0.5873  0.7684
 4916TIP3    H214755   4.513   6.038   1.902 -2.5423 -1.8653 -1.1517
 4917TIP3   OH214756   4.671   1.756   3.931  0.2136 -0.6901 -0.1875
 4917TIP3    H114757   4.655   1.848   3.909  0.4121 -0.9823 -1.5954
 4917TIP3    H214758   4.691   1.714   3.848 -2.6420 -2.6077 -0.0633
 4918TIP3   OH214759   1.716   4.006   3.147  0.2433 -0.0216 -0.3889
 4918TIP3    H114760   1.759   4.034   3.066 -0.5391  0.0902 -0.7699
 4918TIP3    H214761   1.788   3.977   3.203  0.9189  1.2007 -0.5902
 4919TIP3   OH214762   4.180   4.596   2.259 -0.3336 -0.4093  0.2792
 4919TIP3    H114763   4.220   4.559   2.181  1.4056  1.5959  0.1276
 4919TIP3    H214764   4.241   4.574   2.330 -0.2803  0.4338  0.5080
 4920TIP3   OH214765   1.844   0.838   2.405 -0.0866  0.3258 -0.4118
 4920TIP3    H114766   1.874   0.770   2.465 -0.2334  1.2955  0.7864
 4920TIP3    H214767   1.904   0.911   2.419 -0.4454  0.7622 -1.0720
 4921TIP3   OH214768   2.834   5.554   0.063 -0.3436  0.2355  0.3733
 4921TIP3    H114769   2.899   5.500   0.017  0.1404  0.0124  1.2921
 4921TIP3    H214770   2.768   5.572  -0.003 -0.8342 -2.0008  0.1653
 4922TIP3   OH214771   4.657   5.180   3.269 -0.1751 -0.3659 -0.2904
 4922TIP3    H114772   4.639   5.172   3.363 -0.1542  3.2551  0.1593
 4922TIP3    H214773   4.751   5.161   3.262 -0.3221 -1.3999  0.2559
 4923TIP3   OH214774   3.854   1.372   2.624  0.3069  0.3700  0.1597
 4923TIP3    H114775   3.807   1.308   2.677  0.2272 -0.1419 -0.5049
 4923TIP3    H214776   3.938   1.384   2.668  1.2013 -1.8237 -0.8345
 4924TIP3   OH214777   2.404   4.056   4.372  0.5587 -0.8919 -0.7071
 4924TIP3    H114778   2.385   4.126   4.435 -1.9432 -2.2739  0.2118
 4924TIP3    H214779   2.385   4.094   4.287 -0.4430 -0.3203 -0.2454
 4925TIP3   OH214780   4.301   4.536   2.480 -0.0554 -0.1840 -0.6175
 4925TIP3    H114781   4.261   4.469   2.535 -1.9725  2.5277  1.5583
 4925TIP3    H214782   4.371   4.573   2.534 -0.9307  1.4804 -0.5708
 4926TIP3   OH214783   1.041   4.799   1.609  0.1165 -0.2415  0.2786
 4926TIP3    H114784   0.963   4.834   1.565  0.7188  1.1304  0.2292
 4926TIP3    H214785   1.029   4.824   1.701  0.0455 -0.8751  0.4401
 4927TIP3   OH214786   5.703   3.192   4.974  0.2657  0.0585 -0.5402
 4927TIP3    H114787   5.772   3.160   5.032 -0.9855  0.5006  1.2510
 4927TIP3    H214788   5.737   3.174   4.886  2.9330  0.7800  0.2246
 4928TIP3   OH214789   3.321   4.139   1.067 -0.4846  0.2485 -0.3413
 4928TIP3    H114790   3.401   4.099   1.100 -0.7304 -0.3591 -0.4688
 4928TIP3    H214791   3.321   4.120   0.974 -0.9906 -0.1298 -0.2668
 4929TIP3   OH214792   0.386   1.167   4.545  0.0784  0.0432  0.0730
 4929TIP3    H114793   0.465   1.188   4.595 -0.4497  0.9444  0.5439
 4929TIP3    H214794   0.345   1.251   4.528 -0.7255 -0.4088 -0.2734
 4930TIP3   OH214795   4.905   0.552   2.597 -0.0386  0.3062 -0.0227
 4930TIP3    H114796   4.850   0.489   2.551  1.1780 -0.5676 -0.3290
 4930TIP3    H214797   4.922   0.620   2.532  1.3151 -0.7063 -0.7741
 4931TIP3   OH214798   4.828   3.496   3.327 -0.3218  0.1857  0.1108
 4931TIP3    H114799   4.747   3.461   3.364 -0.2583  0.1417  0.2103
 4931TIP3    H214800   4.800   3.560   3.262 -0.4456  0.8856  0.8238
 4932TIP3   OH214801   1.451   3.590   3.165  0.4228  0.3228 -0.7115
 4932TIP3    H114802   1.536   3.590   3.209 -0.9794  1.2302  2.2154
 4932TIP3    H214803   1.442   3.679   3.130  0.3312  0.4735 -0.3041
 4933TIP3   OH214804   1.471   4.530   0.366 -0.1393 -0.2144  1.0079
 4933TIP3    H114805   1.544   4.506   0.422 -0.7966 -0.5508  1.7348
 4933TIP3    H214806   1.470   4.626   0.367  1.0479 -0.1564 -0.0243
 4934TIP3   OH214807   2.147   1.958   0.436  0.1484  0.3945  0.3379
 4934TIP3    H114808   2.235   1.948   0.399  0.2078 -0.1496  0.6184
 4934TIP3    H214809   2.131   1.876   0.482 -0.7494  0.2590 -0.2063
 4935TIP3   OH214810   0.662   1.050   2.343 -0.1529 -0.7835  0.1475
 4935TIP3    H114811   0.748   1.091   2.346 -1.1851  1.5569  0.1049
 4935TIP3    H214812   0.654   1.003   2.425  0.9998 -0.6681  0.3353
 4936TIP3   OH214813   4.022   0.430   3.277  0.7528  0.2248  0.3300
 4936TIP3    H114814   3.931   0.409   3.256 -0.1197  0.8573  3.0642
 4936TIP3    H214815   4.049   0.492   3.210 -0.7024 -0.2356 -0.7252
 4937TIP3   OH214816   2.102   5.659   4.874  0.1658  0.0933 -0.0384
 4937TIP3    H114817   2.078   5.593   4.809 -1.7325  0.5480  0.1194
 4937TIP3    H214818   2.021   5.673   4.923  0.7674  1.8936  0.5013
 4938TIP3   OH214819   5.656   0.401   4.006 -0.0622  0.0189 -0.1667
 4938TIP3    H114820   5.725   0.461   4.034  0.7280 -1.3231  0.9679
 4938TIP3    H214821   5.674   0.384   3.914 -0.4543  1.6617 -0.5750
 4939TIP3   OH214822   0.528   1.588   0.387 -0.5301  0.4604 -0.7667
 4939TIP3    H114823   0.493   1.665   0.342 -1.6019  0.7367  0.4860
 4939TIP3    H214824   0.457   1.559   0.444  1.2767  1.1427  2.0341
 4940TIP3   OH214825   5.528   3.410   4.957 -0.0475  0.1956 -0.3978
 4940TIP3    H114826   5.589   3.339   4.937 -0.0777 -0.1031  0.5324
 4940TIP3    H214827   5.568   3.456   5.031  0.2250  1.4767 -1.3091
 4941TIP3   OH214828   1.389   0.534   1.214  0.0451  0.1517  0.1830
 4941TIP3    H114829   1.471   0.493   1.185 -0.5214 -1.3956  0.6370
 4941TIP3    H214830   1.391   0.524   1.310 -1.4213 -1.4448  0.0828
 4942TIP3   OH214831   1.290   1.836   1.631 -0.0320 -0.0660 -0.0971
 4942TIP3    H114832   1.376   1.801   1.652  0.0989 -0.0193 -0.5557
 4942TIP3    H214833   1.298   1.930   1.649 -0.3635 -0.2447  1.0673
 4943TIP3   OH214834   4.311   2.407   1.616 -0.3796  0.0606 -0.0499
 4943TIP3    H114835   4.366   2.386   1.691 -1.3047 -2.0148  0.1234
 4943TIP3    H214836   4.366   2.390   1.540  0.2461  1.2305  0.1132
 4944TIP3   OH214837   4.751   2.518   3.717  0.5730 -0.0816  0.3702
 4944TIP3    H114838   4.727   2.598   3.672 -1.2416 -0.5614  0.3926
 4944TIP3    H214839   4.712   2.527   3.804 -0.6776 -1.4353 -0.0091
 4945TIP3   OH214840   5.634   1.865   4.934  0.3827  0.0767 -0.0338
 4945TIP3    H114841   5.699   1.797   4.950  1.9256  1.4887 -0.1223
 4945TIP3    H214842   5.655   1.897   4.846 -2.0176 -1.1099 -1.1351
 4946TIP3   OH214843   2.206   1.194   3.241 -0.0084  0.0115  0.0200
 4946TIP3    H114844   2.267   1.189   3.315  0.0796 -0.9332 -0.1025
 4946TIP3    H214845   2.200   1.104   3.209 -0.6811  0.2728 -0.6127
 4947TIP3   OH214846   0.759   5.248   4.290  0.2775  0.3738 -0.5700
 4947TIP3    H114847   0.705   5.181   4.248  1.5145 -1.2402  0.3308
 4947TIP3    H214848   0.849   5.226   4.265  0.7910  1.1347  0.5288
 4948TIP3   OH214849   2.323   1.353   0.827 -0.3559 -0.1923 -0.1641
 4948TIP3    H114850   2.411   1.317   0.837 -0.9593 -1.7387 -0.0883
 4948TIP3    H214851   2.307   1.353   0.732  0.0778  1.0626 -0.2621
 4949TIP3   OH214852   0.441   5.258   0.091  0.2088  0.2597  0.1335
 4949TIP3    H114853   0.455   5.185   0.031 -0.7147 -0.0143  0.2397
 4949TIP3    H214854   0.487   5.233   0.171  1.0354  0.4104 -0.2890
 4950TIP3   OH214855   0.070   0.644   3.418  0.2379 -0.5012 -0.0151
 4950TIP3    H114856   0.026   0.594   3.350  0.1120 -0.3420 -0.0508
 4950TIP3    H214857   0.028   0.730   3.416  0.4542 -0.3923  0.0440
 4951TIP3   OH214858   6.138   2.931   0.943  0.0590  0.1499  0.4758
 4951TIP3    H114859   6.168   2.841   0.934  1.9324  0.6498  1.1321
 4951TIP3    H214860   6.148   2.969   0.856  0.2093 -0.0029  0.4262
 4952TIP3   OH214861   1.650   0.556   2.549 -0.7582 -0.0405  0.2143
 4952TIP3    H114862   1.576   0.549   2.489 -1.3790  1.6888  0.7369
 4952TIP3    H214863   1.628   0.496   2.620 -0.5429 -1.2575 -0.7062
 4953TIP3   OH214864   0.030   2.436   2.123 -0.1047 -0.1189 -0.3569
 4953TIP3    H114865   0.107   2.487   2.099  0.5598 -1.0879 -0.3273
 4953TIP3    H214866   0.046   2.349   2.086  0.0377 -1.0891  1.8687
 4954TIP3   OH214867   6.200   0.560   4.479  0.3514  0.1914 -0.4973
 4954TIP3    H114868   6.222   0.596   4.393 -2.2866  0.8787 -0.9906
 4954TIP3    H214869   6.133   0.494   4.460 -1.8615  1.8430  1.1081
 4955TIP3   OH214870   4.143   4.757   5.094 -0.4835  0.5600  0.0101
 4955TIP3    H114871   4.053   4.774   5.121 -0.2383  0.0497  1.2049
 4955TIP3    H214872   4.188   4.840   5.107 -0.9496  1.0555 -1.3947
 4956TIP3   OH214873   5.670   5.554   3.167 -0.5562  0.2342 -0.0679
 4956TIP3    H114874   5.605   5.489   3.139  0.2247 -1.2251  1.3803
 4956TIP3    H214875   5.617   5.627   3.200 -1.5265 -0.9432  1.1300
 4957TIP3   OH214876   4.927   2.060   1.977 -0.9173 -0.0878 -0.2847
 4957TIP3    H114877   4.967   1.995   2.035 -2.4867 -1.2063 -0.3899
 4957TIP3    H214878   4.833   2.044   1.985 -1.2605  1.0684 -1.6338
 4958TIP3   OH214879   2.815   4.619   0.718  0.0535 -0.1271 -0.6999
 4958TIP3    H114880   2.899   4.648   0.753  0.2743 -0.9567 -0.5128
 4958TIP3    H214881   2.823   4.524   0.713 -1.8905 -0.5471  2.0010
 4959TIP3   OH214882   0.223   3.701   0.626  0.1914 -0.2027  0.3567
 4959TIP3    H114883   0.165   3.673   0.696 -1.0248  1.6234  0.1533
 4959TIP3    H214884   0.165   3.745   0.563  1.7598  1.9053  0.2595
 4960TIP3   OH214885   4.332   4.283   2.882 -0.3422  0.7996 -0.4125
 4960TIP3    H114886   4.237   4.289   2.878 -0.5798 -0.5816  1.5244
 4960TIP3    H214887   4.350   4.251   2.971  1.8208 -0.8896 -1.3568
 4961TIP3   OH214888   1.503   2.556   4.959  0.1836 -0.4517  0.1556
 4961TIP3    H114889   1.463   2.532   5.043  0.4698 -0.6009  0.2525
 4961TIP3    H214890   1.438   2.533   4.893  0.5210 -1.6920  0.2300
 4962TIP3   OH214891   2.544   0.955   1.455  0.2912  0.1370  0.0061
 4962TIP3    H114892   2.498   0.911   1.384 -1.1582  1.0419  0.3472
 4962TIP3    H214893   2.577   0.884   1.510 -0.4175 -0.5486 -0.4304
 4963TIP3   OH214894   6.092   1.082   3.016  0.0165  0.1737 -0.8518
 4963TIP3    H114895   6.001   1.057   3.002  0.4327 -2.1340  0.0943
 4963TIP3    H214896   6.117   1.127   2.935 -1.9105  0.8226 -1.1496
 4964TIP3   OH214897   5.341   4.608   1.807  0.1112  0.6798  0.5387
 4964TIP3    H114898   5.420   4.660   1.827 -0.0996  0.8988  0.8171
 4964TIP3    H214899   5.303   4.590   1.893 -0.8021  1.6027  0.3524
 4965TIP3   OH214900   3.199   4.043   0.493 -0.0142  0.4047 -0.0429
 4965TIP3    H114901   3.140   3.974   0.523  2.1334 -0.5536  2.3094
 4965TIP3    H214902   3.277   3.997   0.462  1.3148  1.7136  1.1979
 4966TIP3   OH214903   5.259   5.462   2.890 -0.1276 -0.0565  0.6351
 4966TIP3    H114904   5.174   5.499   2.915 -0.3850  0.0513 -0.3421
 4966TIP3    H214905   5.246   5.431   2.800  0.6175 -0.8526  0.7838
 4967TIP3   OH214906   0.346   5.681   4.509  0.2912 -0.0523 -0.2935
 4967TIP3    H114907   0.324   5.703   4.419 -0.1626  0.8861  0.0375
 4967TIP3    H214908   0.390   5.759   4.543  0.8554 -0.5568  0.1727
 4968TIP3   OH214909   3.664   3.628   1.689 -0.1196 -0.1634  0.1979
 4968TIP3    H114910   3.583   3.576   1.694 -0.8967  1.0293  0.3819
 4968TIP3    H214911   3.700   3.623   1.777 -1.2219  1.1716  0.7629
 4969TIP3   OH214912   1.132   1.692   1.243  0.6182 -0.1108  0.6816
 4969TIP3    H114913   1.222   1.723   1.252  0.3203  0.7616  0.7391
 4969TIP3    H214914   1.111   1.702   1.150  0.1113  1.0743  0.8991
 4970TIP3   OH214915   3.292   2.722   3.401  0.3238  0.1201  0.1487
 4970TIP3    H114916   3.361   2.769   3.448  1.0857 -0.7702 -0.0465
 4970TIP3    H214917   3.296   2.756   3.312 -1.6904  2.4352  0.8497
 4971TIP3   OH214918   1.887   2.469   0.980  0.2030 -0.5613 -0.0140
 4971TIP3    H114919   1.974   2.458   0.943 -0.4896 -0.9091 -1.5915
 4971TIP3    H214920   1.903   2.508   1.067  1.8556  0.5592 -0.7688
 4972TIP3   OH214921   4.038   1.395   2.356  0.2360 -0.1032  0.5985
 4972TIP3    H114922   4.003   1.349   2.432  0.1191  0.5131  0.9236
 4972TIP3    H214923   3.961   1.433   2.313  0.3578  0.0221  0.4876
 4973TIP3   OH214924   4.437   0.505   0.634 -0.2663  0.8337  0.1270
 4973TIP3    H114925   4.443   0.466   0.721  1.6191  1.1701  0.1875
 4973TIP3    H214926   4.423   0.598   0.650  1.8285  1.1952  0.1733
 4974TIP3   OH214927   3.254   1.436   4.904  0.0692  0.3730  0.9469
 4974TIP3    H114928   3.318   1.472   4.842 -0.2888 -0.2869  0.1800
 4974TIP3    H214929   3.186   1.397   4.849  0.1307 -0.9317  1.7422
 4975TIP3   OH214930   1.618   3.427   4.528 -0.3864 -0.3995  0.0299
 4975TIP3    H114931   1.696   3.397   4.481  0.0095 -1.6101  1.3874
 4975TIP3    H214932   1.627   3.391   4.616 -1.5232  1.0857  0.8064
 4976TIP3   OH214933   4.016   4.235   4.032  0.1749 -0.5038 -0.4273
 4976TIP3    H114934   3.982   4.211   4.118  0.9857 -1.2171 -0.2890
 4976TIP3    H214935   4.103   4.270   4.050  1.1725 -2.4797 -1.0923
 4977TIP3   OH214936   4.521   0.940   3.982  0.3370  0.7155  0.1024
 4977TIP3    H114937   4.485   0.855   3.958  2.3565 -0.5394  1.1942
 4977TIP3    H214938   4.574   0.966   3.906  0.1882  0.7326  0.0028
 4978TIP3   OH214939   5.777   0.331   1.371  0.3623 -0.2560 -0.2197
 4978TIP3    H114940   5.686   0.334   1.400  0.7950  1.0928  1.1449
 4978TIP3    H214941   5.808   0.245   1.401 -0.1936 -0.3225  0.1862
 4979TIP3   OH214942   0.632   4.032   3.660  0.1070  0.2648 -0.1228
 4979TIP3    H114943   0.680   4.111   3.685  1.5671  0.1873 -2.3581
 4979TIP3    H214944   0.633   3.977   3.738 -0.7582  2.2951  1.4295
 4980TIP3   OH214945   2.701   2.571   4.173  0.3253  0.4033 -0.5102
 4980TIP3    H114946   2.668   2.648   4.218 -1.4735 -1.4517  1.6260
 4980TIP3    H214947   2.629   2.543   4.117 -0.8522 -1.9835  1.9284
 4981TIP3   OH214948   5.846   2.341   2.109 -0.7591 -1.0821  0.9834
 4981TIP3    H114949   5.934   2.350   2.147 -1.0490 -1.8117  1.8500
 4981TIP3    H214950   5.856   2.275   2.040 -0.4383 -0.4630  0.4212
 4982TIP3   OH214951   6.298   1.905   3.452  0.3489 -0.2484 -0.1647
 4982TIP3    H114952   6.361   1.882   3.383 -0.9943 -3.2785 -0.5250
 4982TIP3    H214953   6.237   1.965   3.410  1.0672  0.0693 -0.7817
 4983TIP3   OH214954   1.637   2.237   1.698  0.0829  0.3971 -0.5985
 4983TIP3    H114955   1.574   2.242   1.626 -1.0069  0.6980  0.3515
 4983TIP3    H214956   1.614   2.310   1.755  0.7134 -0.0366  0.2300
 4984TIP3   OH214957   5.864   1.055   2.876 -0.7011  0.0277  0.1673
 4984TIP3    H114958   5.833   1.062   2.785 -0.0806 -0.3008 -0.0719
 4984TIP3    H214959   5.785   1.068   2.928 -1.1356 -0.1614 -0.4238
 4985TIP3   OH214960   1.860   1.332   1.445 -0.9335 -0.2826 -0.3135
 4985TIP3    H114961   1.832   1.423   1.451  1.0937  0.4168 -0.6820
 4985TIP3    H214962   1.896   1.312   1.532  0.2702 -0.1038 -0.7430
 4986TIP3   OH214963   2.919   3.655   4.622  0.1688 -0.1420  0.0528
 4986TIP3    H114964   2.906   3.745   4.652 -0.8355 -0.2319 -0.0729
 4986TIP3    H214965   2.881   3.601   4.692  2.5947 -0.5890  1.1278
 4987TIP3   OH214966   3.495   1.519   1.709  0.3592  0.3665  0.1871
 4987TIP3    H114967   3.403   1.514   1.732  0.2446 -0.9743 -0.4654
 4987TIP3    H214968   3.515   1.613   1.711 -1.9840  1.1479 -3.1977
 4988TIP3   OH214969   0.877   1.191   1.517  0.5883  0.4000 -0.3691
 4988TIP3    H114970   0.787   1.186   1.551  0.6832  0.9311 -0.0291
 4988TIP3    H214971   0.893   1.284   1.505  1.1852  0.3256 -0.1873
 4989TIP3   OH214972   0.613   2.618   4.834  0.5538  0.4245  0.5979
 4989TIP3    H114973   0.617   2.679   4.760  2.0696  1.5517  1.5451
 4989TIP3    H214974   0.695   2.568   4.828 -0.4738 -1.2776  0.0822
 4990TIP3   OH214975   0.622   4.195   1.708 -0.3487 -0.5549 -0.6239
 4990TIP3    H114976   0.714   4.211   1.688 -0.7622  0.3381 -1.9371
 4990TIP3    H214977   0.584   4.282   1.718 -1.2010 -0.8933 -0.8234
 4991TIP3   OH214978   2.475   1.985   2.828 -0.1667  0.2949  0.4024
 4991TIP3    H114979   2.458   1.893   2.808 -0.2917 -0.0112  1.8372
 4991TIP3    H214980   2.550   2.008   2.773  1.1424 -1.2526  1.4602
 4992TIP3   OH214981   0.799   1.587   1.757 -0.2263  0.1596  0.9421
 4992TIP3    H114982   0.857   1.617   1.826  3.5983 -4.1786  0.1304
 4992TIP3    H214983   0.753   1.512   1.794 -2.4631  1.1095  0.3035
 4993TIP3   OH214984   4.675   3.173   1.292 -0.3113  0.5299  0.0275
 4993TIP3    H114985   4.696   3.094   1.342  0.8086  1.4281  1.0354
 4993TIP3    H214986   4.672   3.243   1.357 -0.2981  1.4868 -0.9688
 4994TIP3   OH214987   0.629   1.989   1.145 -0.0107 -0.1138  0.2892
 4994TIP3    H114988   0.613   1.962   1.236  1.1641 -1.4401  0.1350
 4994TIP3    H214989   0.581   2.071   1.136 -2.1836 -1.1714  1.3833
 4995TIP3   OH214990   3.280   4.606   2.879 -0.2941 -0.2406 -0.2782
 4995TIP3    H114991   3.243   4.547   2.814 -0.3231  0.2456 -0.7124
 4995TIP3    H214992   3.344   4.553   2.927 -1.2941 -0.9932  0.2579
 4996TIP3   OH214993   2.827   1.362   1.487  0.1334  0.2625  0.6254
 4996TIP3    H114994   2.862   1.275   1.507  0.3889 -0.1768 -1.4873
 4996TIP3    H214995   2.744   1.345   1.443 -0.7202  1.1881  1.7961
 4997TIP3   OH214996   0.530   3.589   2.536  0.0030  0.0178 -0.3865
 4997TIP3    H114997   0.543   3.647   2.611  1.0864  0.4213 -0.8579
 4997TIP3    H214998   0.453   3.537   2.558  0.0395  0.4426  0.8036
 4998TIP3   OH214999   1.197   2.218   4.480 -0.4270 -0.7658  0.0185
 4998TIP3    H115000   1.224   2.246   4.568  1.0462 -1.8065 -0.0589
 4998TIP3    H215001   1.237   2.281   4.421 -2.5576  0.7678  0.0864
 4999TIP3   OH215002   0.582   5.720   0.147 -0.1476 -0.4494 -0.1523
 4999TIP3    H115003   0.488   5.703   0.139 -0.4260 -0.0120  1.8485
 4999TIP3    H215004   0.589   5.815   0.147  0.4677 -0.4598 -1.5845
 5000TIP3   OH215005   5.117   3.720   4.894  0.6011 -0.0206 -0.3658
 5000TIP3    H115006   5.191   3.670   4.929  0.3413 -1.1687 -1.3620
 5000TIP3    H215007   5.041   3.664   4.910 -0.0084  0.9879  0.3212
 5001TIP3   OH215008   3.844   0.828   3.959  0.0339  0.2497 -0.2680
 5001TIP3    H115009   3.831   0.752   3.902 -2.8258  0.4219 -0.0070
 5001TIP3    H215010   3.796   0.807   4.039 -0.5261  2.1348 -0.0427
 5002TIP3   OH215011   1.133   3.221   1.257  0.7644  0.3229  0.2801
 5002TIP3    H115012   1.146   3.310   1.225 -0.1982  0.7799  1.0813
 5002TIP3    H215013   1.097   3.232   1.345 -0.1026 -0.8406  0.1054
 5003TIP3   OH215014   2.594   5.257   2.315 -0.4024  0.0383 -0.3340
 5003TIP3    H115015   2.512   5.308   2.313  0.1667  0.9691 -0.3626
 5003TIP3    H215016   2.635   5.281   2.398 -0.1525 -0.4248 -0.3226
 5004TIP3   OH215017   6.072   3.154   3.083 -0.1076 -0.1035  0.0119
 5004TIP3    H115018   6.123   3.098   3.141 -1.9526  0.7889  2.6748
 5004TIP3    H215019   5.983   3.119   3.087 -0.5271  0.7185 -1.3632
 5005TIP3   OH215020   2.931   4.752   3.451  0.8400  0.2691  0.0897
 5005TIP3    H115021   3.016   4.709   3.439 -0.2257 -2.1359  0.4809
 5005TIP3    H215022   2.878   4.688   3.499 -1.1170  1.7871  0.1046
 5006TIP3   OH215023   0.670   2.997   3.848  0.2175  0.0565  0.6813
 5006TIP3    H115024   0.705   3.061   3.910 -0.2989  0.5951  0.4280
 5006TIP3    H215025   0.608   3.047   3.794  0.2937 -0.5130  0.0515
 5007TIP3   OH215026   1.097   2.362   3.285  0.1579 -0.3288 -0.1585
 5007TIP3    H115027   1.122   2.312   3.207 -0.4073  0.3127 -0.7636
 5007TIP3    H215028   1.103   2.453   3.258 -0.4454 -0.1059  0.4320
 5008TIP3   OH215029   3.541   0.521  -0.009  0.6463  0.2133  0.1813
 5008TIP3    H115030   3.556   0.616  -0.014  2.4010  0.0674  1.7159
 5008TIP3    H215031   3.614   0.488   0.043  0.5160 -2.1300 -1.0140
 5009TIP3   OH215032   0.726   5.376   4.539  0.0442 -0.2719 -0.8373
 5009TIP3    H115033   0.728   5.328   4.456  0.2898 -0.5355 -0.6838
 5009TIP3    H215034   0.714   5.467   4.514 -1.2481 -0.4946 -1.1032
 5010TIP3   OH215035   4.770   0.174   1.449  0.3660  0.0382 -0.3006
 5010TIP3    H115036   4.704   0.220   1.396  1.4731 -0.9214 -2.6479
 5010TIP3    H215037   4.765   0.084   1.419  0.3616 -0.8062  2.0373
 5011TIP3   OH215038   1.346   3.406   2.492  0.0034 -0.8417  0.0761
 5011TIP3    H115039   1.420   3.419   2.433  1.0200  0.5800  1.5547
 5011TIP3    H215040   1.271   3.445   2.448  1.0088  1.3966  0.2190
 5012TIP3   OH215041   2.514   5.578   0.339  0.1897  0.4749 -0.0370
 5012TIP3    H115042   2.575   5.607   0.406 -0.9716 -0.9319  1.7127
 5012TIP3    H215043   2.428   5.601   0.373 -0.3845  1.1892 -1.8305
 5013TIP3   OH215044   1.616   3.941   3.572 -0.4456  0.2331  0.0214
 5013TIP3    H115045   1.624   4.025   3.527 -0.3792 -0.8970 -2.2432
 5013TIP3    H215046   1.544   3.897   3.527  0.3163 -1.4059  0.3264
 5014TIP3   OH215047   1.417   5.432   2.554 -0.1355  0.4752  0.2452
 5014TIP3    H115048   1.379   5.408   2.639  0.5156 -0.9535  0.1596
 5014TIP3    H215049   1.512   5.434   2.570  0.2719 -2.7927 -1.0659
 5015TIP3   OH215050   6.329   0.202   4.116  0.1818  0.2390 -0.0604
 5015TIP3    H115051   6.245   0.157   4.114 -0.3062  0.8064  2.8932
 5015TIP3    H215052   6.307   0.295   4.113  0.8408  0.3712 -1.1810
 5016TIP3   OH215053   6.007   1.172   4.255  0.3852 -0.4071 -0.0459
 5016TIP3    H115054   6.024   1.267   4.261  1.4723 -0.5565 -0.5773
 5016TIP3    H215055   5.940   1.164   4.188 -1.0065  0.1128  1.2348
 5017TIP3   OH215056   1.501   5.081   4.163 -0.2884  0.3521 -0.2057
 5017TIP3    H115057   1.518   5.077   4.257 -1.7828 -0.4366  0.0672
 5017TIP3    H215058   1.406   5.093   4.157 -0.3549 -0.6761 -1.6193
 5018TIP3   OH215059   0.598   3.420   1.914  0.3102  0.2601 -0.3434
 5018TIP3    H115060   0.542   3.468   1.975 -0.4603  0.0383 -0.8584
 5018TIP3    H215061   0.641   3.354   1.968  0.3381  0.6446  0.1182
 5019TIP3   OH215062   2.143   0.686   4.674 -0.6242 -0.2023 -0.1897
 5019TIP3    H115063   2.092   0.646   4.744  0.0848 -1.2744 -0.2673
 5019TIP3    H215064   2.083   0.688   4.599 -1.1393  0.2591  0.2249
 5020TIP3   OH215065   4.902   0.654   3.362 -0.2678  0.3114 -0.2344
 5020TIP3    H115066   4.809   0.632   3.358  0.2657 -2.0628 -0.9904
 5020TIP3    H215067   4.912   0.728   3.302 -1.6641  0.6835 -0.0465
 5021TIP3   OH215068   0.066   3.054   3.009 -0.4767 -0.2591  0.8298
 5021TIP3    H115069   0.025   3.048   3.095 -0.1643 -0.5371  0.9569
 5021TIP3    H215070   0.134   2.987   3.009 -0.8966 -0.7070  0.1396
 5022TIP3   OH215071   2.968   4.953   5.005 -0.4386 -0.2285  0.1760
 5022TIP3    H115072   2.930   4.888   5.065 -3.4377  0.9997 -0.1867
 5022TIP3    H215073   3.007   5.019   5.063 -0.7292 -0.4936  0.6879
 5023TIP3   OH215074   3.456   5.976   4.176  0.2796 -0.1834 -0.0492
 5023TIP3    H115075   3.372   6.009   4.144 -0.7719 -1.3722  1.3516
 5023TIP3    H215076   3.433   5.905   4.235  2.3618 -1.7324 -0.9723
 5024TIP3   OH215077   5.877   3.159   2.825  0.0369  0.7975  0.1432
 5024TIP3    H115078   5.912   3.095   2.764 -0.2039  0.1457  0.6741
 5024TIP3    H215079   5.800   3.194   2.782 -1.4748 -1.2972  0.9484
 5025TIP3   OH215080   2.213   0.056   0.878 -0.2972  0.3389  0.1737
 5025TIP3    H115081   2.117   0.064   0.880 -0.4770 -1.4540  1.8462
 5025TIP3    H215082   2.233   0.035   0.787 -1.7341 -1.2983  0.1753
 5026TIP3   OH215083   2.312   4.783   0.974 -0.2393 -0.1783  0.2871
 5026TIP3    H115084   2.285   4.871   0.949 -0.1477 -0.6048 -1.4457
 5026TIP3    H215085   2.355   4.748   0.896 -1.0024 -2.0435  0.6427
 5027TIP3   OH215086   1.871   5.704   4.349 -0.7196  0.0093  0.0957
 5027TIP3    H115087   1.963   5.685   4.365 -0.7479 -1.9340 -1.5653
 5027TIP3    H215088   1.851   5.778   4.406  1.5452 -0.2615  1.3513
 5028TIP3   OH215089   3.646   1.020   0.680 -0.4211 -0.1964 -0.2189
 5028TIP3    H115090   3.645   0.926   0.665 -0.9476  0.1277 -2.5368
 5028TIP3    H215091   3.736   1.046   0.664 -0.7930  0.0113 -2.3321
 5029TIP3   OH215092   3.773   2.377   3.257 -0.0105  0.1931  0.0228
 5029TIP3    H115093   3.696   2.418   3.296  0.2805 -1.2554  2.2956
 5029TIP3    H215094   3.758   2.283   3.266  1.9611 -0.1326  0.4642
 5030TIP3   OH215095   1.918   5.398   1.781 -0.8420  0.0773 -0.8806
 5030TIP3    H115096   1.943   5.321   1.729  0.6895  0.0699 -0.1895
 5030TIP3    H215097   1.917   5.367   1.871  1.9617  1.2768 -0.3284
 5031TIP3   OH215098   4.101   0.807   3.171 -0.6665 -0.3839  0.5762
 5031TIP3    H115099   4.108   0.718   3.137 -0.0150 -0.6426  1.3614
 5031TIP3    H215100   4.012   0.835   3.147 -0.9339 -1.3028  0.4736
 5032TIP3   OH215101   3.075   1.450   5.108  0.0109  0.3429 -0.1098
 5032TIP3    H115102   3.060   1.531   5.157 -1.0177 -1.2142  2.3663
 5032TIP3    H215103   3.133   1.475   5.037 -1.1922  3.4621 -0.1526
 5033TIP3   OH215104   3.838   2.571   0.729 -0.2693 -0.1397 -0.0963
 5033TIP3    H115105   3.828   2.571   0.634  1.6480  0.9848 -0.3466
 5033TIP3    H215106   3.776   2.636   0.760  0.1556  0.5811 -0.7362
 5034TIP3   OH215107   1.028   5.062   2.881  0.1969 -0.0896  0.2804
 5034TIP3    H115108   1.016   5.091   2.972 -0.6263  0.5197 -0.0079
 5034TIP3    H215109   1.027   4.967   2.886 -1.6678 -0.0925  0.7216
 5035TIP3   OH215110   4.012   0.804   2.672 -0.6695 -0.0948 -0.1083
 5035TIP3    H115111   3.948   0.857   2.624 -1.4632 -0.9348 -0.0101
 5035TIP3    H215112   4.015   0.843   2.759  0.2137  0.9724 -0.5977
 5036TIP3   OH215113   1.875   5.209   1.986 -0.3428 -0.3317 -0.2647
 5036TIP3    H115114   1.804   5.272   2.000 -1.4979 -1.0045 -2.5942
 5036TIP3    H215115   1.831   5.127   1.963  1.1332 -1.9402  2.1498
 5037TIP3   OH215116   3.480   2.168   0.805 -0.1082 -0.3328 -0.3476
 5037TIP3    H115117   3.421   2.237   0.774 -0.3102  0.1823  1.0784
 5037TIP3    H215118   3.556   2.174   0.747  0.1382  1.5245  0.0973
 5038TIP3   OH215119   6.019   5.911   5.011  0.2905 -0.0151 -0.1352
 5038TIP3    H115120   6.111   5.892   4.989  0.3262 -1.0280  0.7825
 5038TIP3    H215121   6.015   5.899   5.106 -0.7777  0.1010 -0.1597
 5039TIP3   OH215122   1.627   5.898   4.220 -0.4501 -0.0666  0.5353
 5039TIP3    H115123   1.685   5.825   4.198 -0.4248  0.2358 -0.4748
 5039TIP3    H215124   1.647   5.919   4.311 -0.3922 -1.2575  0.8159
 5040TIP3   OH215125   2.302   2.551   1.278  0.3628 -0.7280  0.5735
 5040TIP3    H115126   2.243   2.600   1.220  0.1064 -0.6141  0.9286
 5040TIP3    H215127   2.259   2.467   1.290  1.3128 -1.4495 -0.8849
 5041TIP3   OH215128   2.459   1.393   1.664 -0.0289  0.1835 -0.1443
 5041TIP3    H115129   2.372   1.355   1.655  0.1175 -0.0474 -0.6174
 5041TIP3    H215130   2.480   1.425   1.577 -0.1990  1.4792  0.2686
 5042TIP3   OH215131   1.733   3.464   0.838 -0.5350 -0.1194  0.2974
 5042TIP3    H115132   1.718   3.392   0.776 -0.8957 -1.0292  1.4162
 5042TIP3    H215133   1.650   3.513   0.838  0.1358  1.1612 -1.4758
 5043TIP3   OH215134   2.605   4.511   4.406  0.2597 -0.6689 -0.6416
 5043TIP3    H115135   2.516   4.538   4.431 -0.4138 -1.0293 -2.4430
 5043TIP3    H215136   2.598   4.492   4.312  2.3433 -0.3432 -0.9067
 5044TIP3   OH215137   0.836   0.343   2.349 -0.7334 -0.1760 -0.7897
 5044TIP3    H115138   0.892   0.396   2.405  0.4451 -1.8428 -0.3088
 5044TIP3    H215139   0.757   0.327   2.401  0.1307 -1.2777  0.2453
 5045TIP3   OH215140   0.921   3.366   4.786 -0.3093 -0.0466 -0.5891
 5045TIP3    H115141   0.883   3.437   4.734 -0.0436 -0.2961 -1.1338
 5045TIP3    H215142   0.998   3.405   4.827 -0.8973  0.3387  0.1687
 5046TIP3   OH215143   0.486   4.719   4.091 -0.2577  0.5036 -0.0645
 5046TIP3    H115144   0.392   4.698   4.092 -0.8688  2.8471 -0.7647
 5046TIP3    H215145   0.505   4.737   3.999  0.6087  1.0915  0.2218
 5047TIP3   OH215146   0.842   6.015   1.356  0.4737 -0.3757 -0.6600
 5047TIP3    H115147   0.754   6.003   1.392  0.3106  0.4361 -0.7617
 5047TIP3    H215148   0.864   5.931   1.317  0.3718 -1.0789  0.7290
 5048TIP3   OH215149   2.590   4.122   3.045  0.5191  0.4411  0.0929
 5048TIP3    H115150   2.514   4.177   3.062  0.4818  0.1657  0.8987
 5048TIP3    H215151   2.604   4.128   2.951 -1.4064 -0.6728 -0.3277
 5049TIP3   OH215152   2.850   2.486   2.191 -0.1534 -0.3828  0.3054
 5049TIP3    H115153   2.872   2.493   2.098  1.1908 -0.0722  0.6266
 5049TIP3    H215154   2.842   2.576   2.221  1.8993 -0.3667  1.0121
 5050TIP3   OH215155   5.705   3.893   2.419  0.6145 -0.4870  0.2191
 5050TIP3    H115156   5.612   3.896   2.439  0.2000 -0.5751 -1.4747
 5050TIP3    H215157   5.745   3.957   2.478 -0.3714 -1.1305  1.6164
 5051TIP3   OH215158   2.024   2.345   4.524  0.3672 -0.0600  0.4100
 5051TIP3    H115159   2.072   2.287   4.583 -0.0679 -0.0415  0.7876
 5051TIP3    H215160   1.978   2.286   4.465 -0.8527 -0.1515  1.4025
 5052TIP3   OH215161   2.976   0.731   0.541 -0.1829 -0.0581 -0.0381
 5052TIP3    H115162   2.900   0.672   0.540 -1.9715  2.0658 -1.9421
 5052TIP3    H215163   2.948   0.804   0.595  1.1295  0.0730  0.4818
 5053TIP3   OH215164   6.024   1.417   3.827  0.0670 -0.2505  0.2620
 5053TIP3    H115165   6.113   1.431   3.859  0.0049 -1.8048  1.2496
 5053TIP3    H215166   5.979   1.374   3.900 -0.7251 -1.9255 -1.1453
 5054TIP3   OH215167   5.084   0.104   1.656 -0.1866  0.1077 -0.1738
 5054TIP3    H115168   5.163   0.154   1.677 -0.9586  1.5903 -0.6699
 5054TIP3    H215169   5.015   0.170   1.652 -0.9398 -0.7537 -2.5776
 5055TIP3   OH215170   5.487   5.654   4.405 -0.6162 -0.0842 -0.5224
 5055TIP3    H115171   5.573   5.676   4.368  0.0058 -1.2147  0.2174
 5055TIP3    H215172   5.426   5.671   4.333  0.3596 -0.3988 -1.4573
 5056TIP3   OH215173   1.870   4.010   4.153 -0.2804  0.1604  0.3359
 5056TIP3    H115174   1.796   3.984   4.098 -0.9902  0.6473  1.0505
 5056TIP3    H215175   1.851   3.971   4.238  1.2596 -1.3566  0.0411
 5057TIP3   OH215176   4.292   4.742   1.010  0.5025 -0.1820  0.1024
 5057TIP3    H115177   4.356   4.682   0.972  0.4732 -0.5149  0.5714
 5057TIP3    H215178   4.313   4.744   1.103 -0.0528 -0.1515  0.2324
 5058TIP3   OH215179   5.068   2.128   1.744 -0.0991  0.1693  0.4027
 5058TIP3    H115180   5.047   2.051   1.692 -0.3006  0.6429 -0.2421
 5058TIP3    H215181   5.011   2.123   1.820  0.5443 -0.7871  0.8375
 5059TIP3   OH215182   5.198   2.857   0.882  1.4012  0.3613  0.6122
 5059TIP3    H115183   5.146   2.929   0.848 -0.6794 -0.8215  1.0918
 5059TIP3    H215184   5.286   2.871   0.847  0.4843  1.8040 -1.2492
 5060TIP3   OH215185   4.012   4.253   4.313 -0.2209  0.3610  0.2130
 5060TIP3    H115186   3.952   4.279   4.384  0.5991 -0.2090  1.1367
 5060TIP3    H215187   4.088   4.217   4.358  1.0341  1.4885 -0.9253
 5061TIP3   OH215188   6.264   0.865   3.438  0.2790  0.3363  0.5114
 5061TIP3    H115189   6.310   0.947   3.459  1.5141  0.5106 -2.4287
 5061TIP3    H215190   6.175   0.892   3.417  0.7097  0.9929 -0.5534
 5062TIP3   OH215191   0.562   0.665   1.509 -0.2598  0.0215 -0.6550
 5062TIP3    H115192   0.470   0.640   1.520 -0.3371 -0.0310 -1.3920
 5062TIP3    H215193   0.576   0.735   1.574 -1.2539  1.1382 -1.6007
 5063TIP3   OH215194   5.489   0.319   0.634 -0.0918  0.7947 -0.0336
 5063TIP3    H115195   5.434   0.339   0.558  0.4885  0.0692 -0.6622
 5063TIP3    H215196   5.563   0.270   0.597 -0.1505 -0.1697  1.0825
 5064TIP3   OH215197   2.203   2.809   3.400 -0.0161  0.1212 -0.1580
 5064TIP3    H115198   2.255   2.815   3.480 -1.9762  0.8402  1.1522
 5064TIP3    H215199   2.118   2.848   3.424 -0.8748 -0.2074 -2.4167
 5065TIP3   OH215200   3.588   1.786   1.765 -0.0646  0.5146 -0.0703
 5065TIP3    H115201   3.601   1.793   1.860 -1.0765  0.4929  0.0793
 5065TIP3    H215202   3.662   1.832   1.727  0.0762  0.9745  0.7421
 5066TIP3   OH215203   5.347   0.880   0.544 -0.3364 -0.4747  0.3028
 5066TIP3    H115204   5.262   0.879   0.589 -0.7539  0.4267 -0.4241
 5066TIP3    H215205   5.338   0.814   0.475  0.2395 -1.7252  1.3703
 5067TIP3   OH215206   4.102   1.931   0.905 -0.3994  0.2411 -0.0313
 5067TIP3    H115207   4.124   2.000   0.843 -0.2842 -0.2630 -0.5680
 5067TIP3    H215208   4.052   1.974   0.974 -0.9706  0.7230 -0.7341
 5068TIP3   OH215209   1.793   0.553   2.315  0.2086 -0.0278 -0.0408
 5068TIP3    H115210   1.712   0.603   2.319 -0.1309 -0.4987 -0.7141
 5068TIP3    H215211   1.830   0.558   2.403 -0.2843  0.6255  0.1307
 5069TIP3   OH215212   4.071   1.757   2.618  0.3684 -0.3168 -0.5655
 5069TIP3    H115213   4.109   1.841   2.642 -0.9426  0.5787 -1.5273
 5069TIP3    H215214   4.129   1.722   2.551  0.3962  0.2611 -0.8445
 5070TIP3   OH215215   3.122   1.024   3.329 -0.0496  0.3770 -1.1120
 5070TIP3    H115216   3.072   1.101   3.357 -0.8913 -0.5360 -0.0173
 5070TIP3    H215217   3.117   0.964   3.403 -0.5518 -1.2847 -2.4442
 5071TIP3   OH215218   5.023   4.937   4.598  0.6533  0.2275 -0.2366
 5071TIP3    H115219   4.960   4.995   4.555  0.9032  0.3029 -0.4992
 5071TIP3    H215220   5.107   4.982   4.589  0.6338  0.4882  0.7565
 5072TIP3   OH215221   5.509   5.450   0.761 -0.2730  0.0784  0.8493
 5072TIP3    H115222   5.472   5.498   0.687 -1.9079 -1.6591  0.4713
 5072TIP3    H215223   5.596   5.424   0.732 -0.1276  1.1165  0.3181
 5073TIP3   OH215224   2.910   5.043   0.563  0.0210  0.4062  0.5861
 5073TIP3    H115225   2.950   5.105   0.624  0.7106 -0.5044  1.0856
 5073TIP3    H215226   2.922   5.084   0.477 -0.8231  1.6282  1.0243
 5074TIP3   OH215227   2.857   2.208   3.366  0.3046 -0.1187 -0.3908
 5074TIP3    H115228   2.791   2.244   3.425  1.4547  3.4432 -0.9969
 5074TIP3    H215229   2.936   2.258   3.386  1.6746 -1.2717 -2.5478
 5075TIP3   OH215230   0.456   0.805   1.972  0.4262 -0.0066  0.5794
 5075TIP3    H115231   0.387   0.863   1.939 -0.1259  0.4499  2.4132
 5075TIP3    H215232   0.479   0.841   2.057  1.8618 -1.0580  0.6746
 5076TIP3   OH215233   1.085   3.929   1.853 -0.4218  0.0754 -0.4519
 5076TIP3    H115234   1.023   3.905   1.783  1.0280  0.9830 -2.1384
 5076TIP3    H215235   1.169   3.895   1.822  0.3289  0.8414  0.6814
 5077TIP3   OH215236   0.152   5.464   3.829 -0.0861 -0.0131  0.1120
 5077TIP3    H115237   0.113   5.393   3.880  1.0287 -1.0638 -0.4218
 5077TIP3    H215238   0.082   5.527   3.817 -0.6215 -0.1221  2.2046
 5078TIP3   OH215239   4.680   4.200   1.942 -0.5343 -0.6410 -0.1770
 5078TIP3    H115240   4.746   4.131   1.948 -0.0306 -0.1668 -0.1607
 5078TIP3    H215241   4.725   4.273   1.898 -0.4018  0.4190  1.6110
 5079TIP3   OH215242   1.882   1.653   0.998 -0.1674 -0.4648 -0.0447
 5079TIP3    H115243   1.968   1.646   0.957 -0.0406  0.7230 -0.0202
 5079TIP3    H215244   1.896   1.622   1.088  0.6165  1.1034  0.4167
 5080TIP3   OH215245   1.394   0.095   4.595  0.0033  0.2127  1.5506
 5080TIP3    H115246   1.470   0.037   4.591  0.0131  0.2112  1.7411
 5080TIP3    H215247   1.412   0.152   4.669 -0.7967 -0.6597  2.4530
 5081TIP3   OH215248   2.595   0.822   1.709  0.4133 -0.2247  0.4340
 5081TIP3    H115249   2.512   0.774   1.709  0.1088  0.2875 -0.0697
 5081TIP3    H215250   2.578   0.900   1.762  0.5958 -0.1506  0.3851
 5082TIP3   OH215251   2.360   1.699   2.016  0.1679 -0.3365 -0.5499
 5082TIP3    H115252   2.416   1.627   1.988  0.2749  0.0385 -1.3184
 5082TIP3    H215253   2.404   1.778   1.984 -0.0183  0.0650  0.1611
 5083TIP3   OH215254   1.608   5.749   0.347 -0.2409  0.3314 -0.8813
 5083TIP3    H115255   1.597   5.746   0.252  0.7241  1.2695 -1.0458
 5083TIP3    H215256   1.583   5.661   0.377 -0.6473  0.0536 -1.9818
 5084TIP3   OH215257   0.058   5.889   3.725 -0.2838  0.1396  0.0265
 5084TIP3    H115258   0.060   5.808   3.776 -1.1217 -0.0305 -0.1953
 5084TIP3    H215259  -0.025   5.885   3.678 -0.4166  1.2131  0.1476
 5085TIP3   OH215260   1.786   0.190   2.732  0.2178  0.7355  0.4813
 5085TIP3    H115261   1.693   0.188   2.709  0.2580  3.1302 -0.2073
 5085TIP3    H215262   1.829   0.143   2.661 -0.5577 -2.3786  1.9244
 5086TIP3   OH215263   3.319   4.106   3.712  0.1951  0.2046 -0.0680
 5086TIP3    H115264   3.314   4.025   3.762 -0.5769  1.0540  1.3249
 5086TIP3    H215265   3.393   4.094   3.653  0.7098 -1.1260  0.8116
 5087TIP3   OH215266   0.377   4.314   1.545 -0.0008  0.7400 -0.0368
 5087TIP3    H115267   0.328   4.375   1.490  0.4181  1.0949 -0.0205
 5087TIP3    H215268   0.397   4.365   1.624 -0.8570  0.1475  0.5805
 5088TIP3   OH215269   5.611   0.027   0.798 -0.2202  0.0053 -0.3098
 5088TIP3    H115270   5.664   0.105   0.816  0.0535 -0.2379 -0.0377
 5088TIP3    H215271   5.657  -0.018   0.728  0.2845 -0.5245  0.3412
 5089TIP3   OH215272   1.555   5.731   4.768 -0.8587 -0.5062 -0.7173
 5089TIP3    H115273   1.478   5.783   4.789 -0.3284  0.0960 -0.2522
 5089TIP3    H215274   1.621   5.795   4.741 -0.6123 -1.0400 -1.4088
 5090TIP3   OH215275   1.724   5.787   3.724 -0.3922 -0.3102 -0.3493
 5090TIP3    H115276   1.778   5.723   3.771 -1.2116 -0.7933 -0.0456
 5090TIP3    H215277   1.733   5.763   3.632 -2.2727 -2.1662 -0.1167
 5091TIP3   OH215278   1.626   5.389   0.276 -0.0458  0.3338  0.5607
 5091TIP3    H115279   1.606   5.430   0.360  0.4120 -0.4495  1.0645
 5091TIP3    H215280   1.584   5.303   0.282  0.8621 -0.1247  0.4036
 5092TIP3   OH215281   2.755   1.021   4.471 -1.0463 -0.5129 -0.0949
 5092TIP3    H115282   2.742   0.990   4.560 -1.2692 -0.7193 -0.2008
 5092TIP3    H215283   2.850   1.026   4.461 -0.9901  1.5975  0.8833
 5093TIP3   OH215284   3.774   5.429   3.316  0.2902 -0.7060 -0.0245
 5093TIP3    H115285   3.771   5.510   3.265  0.7167 -0.5475  0.2015
 5093TIP3    H215286   3.683   5.399   3.318  0.2026 -0.4843 -0.5094
 5094TIP3   OH215287   6.169   3.277   4.541  0.3203 -0.1371  0.1886
 5094TIP3    H115288   6.089   3.325   4.519  1.4649  0.4474 -3.1901
 5094TIP3    H215289   6.156   3.190   4.503  1.3699  0.0704 -0.6958
 5095TIP3   OH215290   2.962   4.774   1.222 -0.3301  0.8085  0.7453
 5095TIP3    H115291   3.033   4.724   1.263 -0.2511  0.2475 -0.0406
 5095TIP3    H215292   2.883   4.724   1.242 -0.5067  1.4323  1.6197
 5096TIP3   OH215293   0.136   1.665   0.956  0.3190  0.2495 -0.3524
 5096TIP3    H115294   0.042   1.659   0.938  0.6812 -2.1541 -1.8033
 5096TIP3    H215295   0.171   1.580   0.931  2.6074  0.3463  2.1285
 5097TIP3   OH215296   0.345   1.818   2.426 -0.1107  1.0563  0.3225
 5097TIP3    H115297   0.291   1.779   2.495 -0.6947  0.7575 -0.2913
 5097TIP3    H215298   0.372   1.903   2.461 -1.1564  1.2982  0.5583
 5098TIP3   OH215299   4.302   3.304   3.420  0.4869 -0.0562  0.2554
 5098TIP3    H115300   4.253   3.261   3.350  3.1297 -0.0089 -1.8076
 5098TIP3    H215301   4.302   3.396   3.396 -0.0506  0.2314  1.3200
 5099TIP3   OH215302   4.936   1.078   1.321  0.0160  1.0398 -0.8677
 5099TIP3    H115303   4.972   0.989   1.313 -0.5129  0.8128 -0.7135
 5099TIP3    H215304   5.005   1.127   1.365  0.1350  0.6009 -0.5571
 5100TIP3   OH215305   2.730   3.921   1.971 -0.0533 -0.3600 -0.5807
 5100TIP3    H115306   2.669   3.916   1.898 -1.8252  0.8893  0.7292
 5100TIP3    H215307   2.737   4.015   1.991  1.3362 -0.5693  0.1009
 5101TIP3   OH215308   0.487   3.256   2.107 -0.4601 -0.6718  0.0018
 5101TIP3    H115309   0.508   3.318   2.177 -0.3928  0.0590 -0.6515
 5101TIP3    H215310   0.442   3.309   2.041  0.5657 -1.0837 -1.0554
 5102TIP3   OH215311   3.033   3.208   4.211  0.0210 -0.3680  0.7413
 5102TIP3    H115312   3.030   3.113   4.194  0.7966 -0.3694  0.5572
 5102TIP3    H215313   2.967   3.222   4.278 -1.4270 -0.7515 -0.5540
 5103TIP3   OH215314   3.214   0.492   3.803  0.0736 -0.4141 -0.0875
 5103TIP3    H115315   3.253   0.561   3.856 -0.8343 -0.7553  1.0524
 5103TIP3    H215316   3.263   0.413   3.827  0.3261 -0.3938 -0.5181
 5104TIP3   OH215317   1.426   3.413   3.597 -0.2887  0.9938 -0.3210
 5104TIP3    H115318   1.331   3.411   3.588 -0.3100  0.8314 -0.0835
 5104TIP3    H215319   1.456   3.472   3.528 -0.4507 -0.1269 -1.3843
 5105TIP3   OH215320   2.444   4.393   4.711 -0.5015 -0.0300 -0.2107
 5105TIP3    H115321   2.365   4.442   4.691  0.1798  1.2101  0.0259
 5105TIP3    H215322   2.414   4.318   4.762 -1.6668 -0.3847 -1.3807
 5106TIP3   OH215323   1.745   1.555   3.750  0.0050  0.0096  0.6369
 5106TIP3    H115324   1.702   1.569   3.834 -1.6127 -1.6794  0.1605
 5106TIP3    H215325   1.683   1.501   3.700  1.9825 -1.1552 -0.7034
 5107TIP3   OH215326   0.742   5.167   4.011 -0.1052  0.8067  0.0554
 5107TIP3    H115327   0.782   5.254   4.011 -1.0376  1.2490  0.8330
 5107TIP3    H215328   0.791   5.119   3.944  1.8197  1.2794  1.0361
 5108TIP3   OH215329   4.910   0.211   4.911  0.1665  0.0296  0.2781
 5108TIP3    H115330   4.870   0.194   4.996 -0.0792 -0.2763  0.1007
 5108TIP3    H215331   4.910   0.307   4.904 -1.1421  0.0285 -0.0023
 5109TIP3   OH215332   0.788   1.332   3.190 -0.3463  0.4062 -0.5066
 5109TIP3    H115333   0.722   1.355   3.125 -0.9671  0.1965  0.0414
 5109TIP3    H215334   0.862   1.389   3.169 -0.5613  0.4012 -1.3445
 5110TIP3   OH215335   2.024   4.514   3.753  0.4014  0.7137 -0.4378
 5110TIP3    H115336   2.072   4.433   3.771  0.5715  1.0369  0.6493
 5110TIP3    H215337   2.089   4.573   3.715  0.3756  0.4806 -0.8473
 5111TIP3   OH215338   3.204   3.035   1.007 -0.2327  0.2375 -0.2021
 5111TIP3    H115339   3.189   3.094   0.933 -0.9186  0.2707 -0.0406
 5111TIP3    H215340   3.166   3.081   1.082  2.9541  1.5604  0.7890
 5112TIP3   OH215341   3.870   1.962   4.618  0.6200  0.5088 -0.2171
 5112TIP3    H115342   3.931   1.972   4.691  2.0478 -1.2318 -1.1000
 5112TIP3    H215343   3.858   1.867   4.609  0.7590  0.6426 -2.4168
 5113TIP3   OH215344   2.738   0.030   4.826  0.1367 -0.2091  0.5796
 5113TIP3    H115345   2.721  -0.050   4.777 -1.4101  0.8543 -0.7530
 5113TIP3    H215346   2.666   0.089   4.801  1.9316  2.0640  0.4133
 5114TIP3   OH215347   6.051   1.454   2.417 -0.0933  0.3546 -0.3104
 5114TIP3    H115348   6.114   1.416   2.355 -0.5947 -0.2932 -0.4230
 5114TIP3    H215349   6.106   1.493   2.485  0.4360  0.0127 -0.5354
 5115TIP3   OH215350   4.053   0.311   5.094 -0.2235 -0.1279  0.6872
 5115TIP3    H115351   3.970   0.264   5.084 -1.0729  0.9905  1.9770
 5115TIP3    H215352   4.092   0.311   5.007 -1.2625 -1.2681  0.1966
 5116TIP3   OH215353   3.265   5.633   0.329 -0.4371 -0.4016 -0.3792
 5116TIP3    H115354   3.295   5.557   0.279 -1.5327 -1.0785 -0.0506
 5116TIP3    H215355   3.311   5.707   0.291  2.3515 -1.4443  0.6783
 5117TIP3   OH215356   3.082   1.110   0.536 -0.5973  0.2086  0.0688
 5117TIP3    H115357   3.025   1.036   0.514 -0.8642  0.6252 -0.6846
 5117TIP3    H215358   3.167   1.070   0.551 -0.3482 -0.1281 -1.8952
 5118TIP3   OH215359   0.045   4.992   4.123 -0.2438 -0.3314  0.2517
 5118TIP3    H115360  -0.005   4.912   4.108 -0.8343 -0.0502  0.6797
 5118TIP3    H215361   0.000   5.035   4.196 -0.9012  1.1788 -0.9826
 5119TIP3   OH215362   4.201   5.685   2.752  0.2993 -0.0446  0.1991
 5119TIP3    H115363   4.162   5.621   2.693  0.6707 -0.0826 -0.0061
 5119TIP3    H215364   4.295   5.670   2.745  0.5115  1.6688 -1.1655
 5120TIP3   OH215365   4.993   1.371   1.299  0.4109 -1.0280  0.4519
 5120TIP3    H115366   5.023   1.458   1.326 -0.4433 -0.0772 -1.4833
 5120TIP3    H215367   4.989   1.321   1.381  1.0496  0.6888  1.6008
 5121TIP3   OH215368   4.585   1.817   4.532  0.7863 -0.5228  0.0479
 5121TIP3    H115369   4.531   1.815   4.612  2.6243 -3.0962  1.3772
 5121TIP3    H215370   4.628   1.902   4.535 -0.9524  0.3953  0.4877
 5122TIP3   OH215371   5.768   4.996   1.137  0.5675 -0.0142 -0.1520
 5122TIP3    H115372   5.857   5.016   1.109  0.5628  0.1721 -0.0399
 5122TIP3    H215373   5.754   4.905   1.110 -0.3545  0.9033 -3.0980
 5123TIP3   OH215374   0.879   3.660   0.291  0.2184 -0.3447 -0.0145
 5123TIP3    H115375   0.874   3.733   0.230 -0.8351 -0.6323 -0.2922
 5123TIP3    H215376   0.885   3.701   0.377 -1.3148  0.1052 -0.0902
 5124TIP3   OH215377   3.315   5.601   1.895  0.0611 -0.1980  0.5338
 5124TIP3    H115378   3.378   5.566   1.832  0.2629 -0.2398  0.7564
 5124TIP3    H215379   3.365   5.666   1.945 -0.0380 -0.3145  0.7876
 5125TIP3   OH215380   6.008   2.038   0.670 -0.2875 -0.2696 -0.4872
 5125TIP3    H115381   5.955   1.968   0.709  0.2231 -0.3614  0.0559
 5125TIP3    H215382   5.953   2.116   0.675 -0.1424 -0.2283  0.6493
 5126TIP3   OH215383   3.135   1.441   1.339 -0.2100 -0.4077 -0.1937
 5126TIP3    H115384   3.220   1.411   1.306 -0.8425 -1.4307 -0.9212
 5126TIP3    H215385   3.110   1.375   1.403 -0.9707 -0.7152 -0.7967
 5127TIP3   OH215386   1.223   3.792   1.161  0.7639  0.2073 -0.9449
 5127TIP3    H115387   1.146   3.764   1.210  0.2567  1.6728 -0.8660
 5127TIP3    H215388   1.189   3.825   1.078  1.4858 -0.8352 -1.6857
 5128TIP3   OH215389   5.853   0.164   4.851  0.0665  0.3676 -0.4868
 5128TIP3    H115390   5.829   0.245   4.807 -0.7622 -0.0102 -0.7569
 5128TIP3    H215391   5.789   0.154   4.921  1.9613  1.4693  1.4971
 5129TIP3   OH215392   2.821   4.253   3.610  0.8932 -0.2859  0.0355
 5129TIP3    H115393   2.889   4.186   3.601  1.7863  0.5618  0.2772
 5129TIP3    H215394   2.761   4.218   3.675  0.3170 -1.6644 -1.1775
 5130TIP3   OH215395   1.511   0.955   0.646 -0.5527 -0.4359 -0.7154
 5130TIP3    H115396   1.535   1.042   0.615 -2.1004  0.1130 -0.4720
 5130TIP3    H215397   1.581   0.898   0.615  1.1132  1.0536  0.1259
 5131TIP3   OH215398   3.980   0.618   4.191 -0.0842 -0.4022 -0.4808
 5131TIP3    H115399   3.890   0.627   4.159 -0.1225 -0.9016 -0.5140
 5131TIP3    H215400   4.006   0.707   4.214 -1.3806 -0.5054  1.6542
 5132TIP3   OH215401   5.006   3.593   3.539 -0.1089 -0.3179  0.9198
 5132TIP3    H115402   4.935   3.602   3.476  2.7587 -0.0206 -2.6220
 5132TIP3    H215403   5.010   3.499   3.558 -0.5366 -0.5592 -0.0924
 5133TIP3   OH215404   1.260   0.447   2.116 -0.2306  0.0171 -0.4896
 5133TIP3    H115405   1.202   0.502   2.169  0.9139 -1.0562  2.0164
 5133TIP3    H215406   1.213   0.364   2.106  0.7140 -0.7944  1.4003
 5134TIP3   OH215407   4.365   2.434   4.923  0.3375  0.2271  0.4086
 5134TIP3    H115408   4.309   2.366   4.962 -0.5804 -0.6148 -2.0982
 5134TIP3    H215409   4.374   2.500   4.991 -2.1434 -0.5254  1.6021
 5135TIP3   OH215410   4.001   2.381   3.409  0.6641  0.1744  0.2898
 5135TIP3    H115411   3.946   2.428   3.347  1.3035 -1.3937 -1.5690
 5135TIP3    H215412   3.948   2.308   3.439  1.3510 -0.8244 -0.8195
 5136TIP3   OH215413   4.658   2.725   0.832 -0.0977  0.0899  0.6599
 5136TIP3    H115414   4.738   2.779   0.834 -0.4480  0.6132  0.6741
 5136TIP3    H215415   4.675   2.656   0.895 -0.0514  0.7772  1.4185
 5137TIP3   OH215416   0.977   0.736   1.966 -0.1109 -0.2864 -0.2414
 5137TIP3    H115417   0.897   0.686   1.953 -1.1931  0.8619  1.6296
 5137TIP3    H215418   1.020   0.735   1.880 -1.0113 -2.7532 -0.7272
 5138TIP3   OH215419   5.654   1.767   0.152  0.5392 -0.0081  1.1109
 5138TIP3    H115420   5.641   1.681   0.192  0.2034 -0.3377  0.3245
 5138TIP3    H215421   5.746   1.788   0.169  0.6163 -0.5171  1.3301
 5139TIP3   OH215422   1.494   0.513   4.123  0.1787 -0.1727  0.3703
 5139TIP3    H115423   1.559   0.571   4.162 -0.6762  1.2988 -0.3054
 5139TIP3    H215424   1.469   0.454   4.194 -0.9749  2.1043  2.0024
 5140TIP3   OH215425   4.521   3.445   3.162  0.0182 -0.5862 -0.0678
 5140TIP3    H115426   4.561   3.425   3.246 -0.6773 -0.0770  0.3993
 5140TIP3    H215427   4.568   3.390   3.099  0.2160 -1.3468  0.7188
 5141TIP3   OH215428   4.549   0.434   0.905 -0.6246  0.1372  0.1498
 5141TIP3    H115429   4.466   0.466   0.939  0.2295  1.0638  1.4897
 5141TIP3    H215430   4.614   0.467   0.967  0.6487 -1.4286 -0.2806
 5142TIP3   OH215431   0.411   3.853   3.518 -0.1804 -0.3803  0.3272
 5142TIP3    H115432   0.371   3.804   3.590  0.4339 -0.1208  0.8514
 5142TIP3    H215433   0.500   3.819   3.513  0.7879  1.7100  1.7322
 5143TIP3   OH215434   3.375   3.842   3.790 -0.3951 -0.6340  0.5913
 5143TIP3    H115435   3.429   3.771   3.824 -0.9778 -1.7943 -0.8121
 5143TIP3    H215436   3.332   3.805   3.713 -0.7275  1.2384 -0.1883
 5144TIP3   OH215437   2.977   2.823   3.175  0.1540 -0.5123 -0.3109
 5144TIP3    H115438   3.050   2.881   3.192 -0.1206 -0.2924  0.1381
 5144TIP3    H215439   2.934   2.812   3.260 -1.3812  0.7943 -0.8638
 5145TIP3   OH215440   3.904   1.944   2.134  0.7537 -0.0873  0.1804
 5145TIP3    H115441   3.888   2.038   2.132 -0.1981 -0.2257 -1.7707
 5145TIP3    H215442   3.874   1.916   2.221  0.7416  1.3538  0.6601
 5146TIP3   OH215443   1.396   0.830   2.707  0.1644  0.2523  0.0071
 5146TIP3    H115444   1.322   0.885   2.732  0.8442  2.1722 -1.8566
 5146TIP3    H215445   1.431   0.872   2.628  3.6245 -0.2071  1.1379
 5147TIP3   OH215446   2.181   1.666   4.545  0.5301  0.3391 -0.1683
 5147TIP3    H115447   2.212   1.614   4.619  4.6074  2.1848 -0.3390
 5147TIP3    H215448   2.148   1.747   4.585  1.4623  0.7762 -0.2690
 5148TIP3   OH215449   0.948   4.889   1.836 -0.3537 -0.6132 -0.4288
 5148TIP3    H115450   1.035   4.900   1.874 -0.2348 -1.4441 -0.4374
 5148TIP3    H215451   0.906   4.974   1.848  1.2087  0.5357 -2.3915
 5149TIP3   OH215452   5.593   0.676   5.089  0.2213  0.1517 -0.2947
 5149TIP3    H115453   5.677   0.658   5.130  0.3274  1.0899 -0.0766
 5149TIP3    H215454   5.537   0.707   5.160  0.2660  1.3365 -0.7502
 5150TIP3   OH215455   3.479   1.519   0.831  0.3504 -0.3792 -0.0814
 5150TIP3    H115456   3.530   1.505   0.751 -1.2509 -0.4088 -1.1335
 5150TIP3    H215457   3.413   1.451   0.829 -0.6405  0.5421  0.4934
 5151TIP3   OH215458   3.832   3.283   0.984 -0.1971 -0.4802 -0.0971
 5151TIP3    H115459   3.805   3.231   0.909 -0.3634 -1.3148  0.5233
 5151TIP3    H215460   3.889   3.224   1.034  0.2241  0.1946  0.2267
 5152TIP3   OH215461   6.231   3.728   2.023  0.1706  0.2542  0.5283
 5152TIP3    H115462   6.239   3.665   1.952  1.1094  0.0327  0.8048
 5152TIP3    H215463   6.318   3.728   2.065  0.4859  2.3658 -0.0005
 5153TIP3   OH215464   3.321   1.699   2.174  0.5678 -0.0974  0.2677
 5153TIP3    H115465   3.273   1.717   2.255  0.6723 -2.1079  0.8383
 5153TIP3    H215466   3.268   1.633   2.129  1.8903 -1.0571  0.0553
 5154TIP3   OH215467   0.168   4.260   4.874  0.5047 -0.3852  0.2513
 5154TIP3    H115468   0.135   4.349   4.883 -0.6302 -0.6286 -1.1484
 5154TIP3    H215469   0.107   4.207   4.925  0.9493 -0.4139  0.7587
 5155TIP3   OH215470   3.274   3.958   3.372  0.6392  0.1127 -0.1768
 5155TIP3    H115471   3.278   4.049   3.342 -0.0610  0.2548  0.1427
 5155TIP3    H215472   3.292   3.906   3.293  1.2323  0.5240 -0.3221
 5156TIP3   OH215473   0.852   1.207   2.009  0.5805 -0.6089  0.2424
 5156TIP3    H115474   0.932   1.178   1.965  1.3205 -0.4327  1.4257
 5156TIP3    H215475   0.868   1.189   2.102 -0.1324  0.8083  0.6715
 5157TIP3   OH215476   3.714   4.675   2.288  0.6726  0.2333 -0.3315
 5157TIP3    H115477   3.769   4.645   2.360  0.9073 -1.9705 -1.3376
 5157TIP3    H215478   3.771   4.671   2.211 -0.4994 -0.9283 -1.1940
 5158TIP3   OH215479   4.885   0.297   1.660 -0.0953  0.1039 -0.3584
 5158TIP3    H115480   4.831   0.245   1.601  0.0260 -0.7298  0.2584
 5158TIP3    H215481   4.841   0.382   1.664 -0.1654  0.1471 -1.5546
 5159TIP3   OH215482   5.509   3.279   0.073 -0.5514 -0.7231  0.1088
 5159TIP3    H115483   5.486   3.320  -0.010 -0.4404  1.8457  1.2399
 5159TIP3    H215484   5.436   3.299   0.131  0.6021  0.0501  1.3714
 5160TIP3   OH215485   5.967   2.498   2.801  0.0865  0.0779  0.1534
 5160TIP3    H115486   6.029   2.451   2.857  0.8751 -0.4232 -1.1008
 5160TIP3    H215487   5.931   2.430   2.743 -1.9091  0.2951  1.0462
 5161TIP3   OH215488   0.347   2.624   0.716 -0.3897 -0.0930  0.3838
 5161TIP3    H115489   0.403   2.662   0.648  0.5563  0.7338  1.5873
 5161TIP3    H215490   0.258   2.645   0.688  0.0488  2.0376  0.4046
 5162TIP3   OH215491   5.265   4.739   2.739 -0.2409 -0.3745  0.0625
 5162TIP3    H115492   5.303   4.740   2.651 -1.2897  1.4792 -0.4147
 5162TIP3    H215493   5.336   4.771   2.796  0.5430 -1.8728 -0.0181
 5163TIP3   OH215494   6.311   4.027   1.685 -0.0116 -0.4926  0.5789
 5163TIP3    H115495   6.364   3.950   1.703  1.4884  0.4800  0.5206
 5163TIP3    H215496   6.273   4.011   1.598  0.2162 -1.1880  0.6063
 5164TIP3   OH215497   1.395   5.047   2.087 -0.3608 -0.0339 -0.7438
 5164TIP3    H115498   1.482   5.063   2.049 -0.8732  0.5883 -1.6748
 5164TIP3    H215499   1.390   5.110   2.160  0.1994 -0.5000 -0.2861
 5165TIP3   OH215500   3.049   5.215   3.679 -0.6232  0.5450 -0.9280
 5165TIP3    H115501   2.993   5.148   3.640 -0.2580 -0.1709 -0.2586
 5165TIP3    H215502   3.094   5.255   3.605 -1.7893  0.9385 -1.4535
 5166TIP3   OH215503   0.172   0.839   1.396 -0.8459 -0.2405  0.2255
 5166TIP3    H115504   0.117   0.765   1.370 -0.1272 -0.9573  0.6924
 5166TIP3    H215505   0.158   0.845   1.491 -1.1950  0.4740  0.1317
 5167TIP3   OH215506   1.224   4.112   3.608  0.3914 -0.4612  0.2612
 5167TIP3    H115507   1.165   4.128   3.535  0.0690  0.9913  0.7942
 5167TIP3    H215508   1.175   4.056   3.668  0.5280 -1.3623 -0.4575
 5168TIP3   OH215509   4.904   2.621   4.870  0.7685  0.1840 -0.0516
 5168TIP3    H115510   4.988   2.666   4.876  1.0501 -0.4663  1.3010
 5168TIP3    H215511   4.913   2.545   4.928 -0.3630 -0.5342 -0.7696
 5169TIP3   OH215512   1.545   3.728   2.216 -0.7518  0.4401 -0.9885
 5169TIP3    H115513   1.537   3.736   2.311 -1.2091 -0.4495 -0.9425
 5169TIP3    H215514   1.624   3.675   2.204  0.1368  1.7386 -1.1705
 5170TIP3   OH215515   4.337   4.810   1.857  0.3542 -0.2077  0.5728
 5170TIP3    H115516   4.348   4.861   1.937  0.2605  0.3547  0.2368
 5170TIP3    H215517   4.243   4.806   1.843  0.3479 -0.7278  0.7532
 5171TIP3   OH215518   5.808   5.871   2.103  0.1018  0.5458  0.4856
 5171TIP3    H115519   5.849   5.867   2.189 -1.3156  0.3328  1.1849
 5171TIP3    H215520   5.751   5.948   2.107 -1.4001 -0.5075  0.4374
 5172TIP3   OH215521   2.418   3.054   0.608  0.3438 -0.3612 -0.4007
 5172TIP3    H115522   2.326   3.077   0.620  0.5074  0.7638 -1.1435
 5172TIP3    H215523   2.423   3.016   0.520  0.3618 -1.7959  0.1942
 5173TIP3   OH215524   0.471   2.978   4.298 -0.0593  0.9735  0.4228
 5173TIP3    H115525   0.438   3.054   4.250 -1.2233  1.4801  1.9187
 5173TIP3    H215526   0.540   3.014   4.354 -0.5384  0.9191  1.0566
 5174TIP3   OH215527   3.873   5.541   4.628 -0.2598 -0.3194  0.6943
 5174TIP3    H115528   3.928   5.605   4.673  0.3663  0.6314 -1.2974
 5174TIP3    H215529   3.803   5.594   4.589 -0.3334 -0.9691 -0.0808
 5175TIP3   OH215530   5.358   4.998   3.492 -0.1872 -0.0109  0.0939
 5175TIP3    H115531   5.412   5.043   3.427  0.7531 -1.8838 -0.5161
 5175TIP3    H215532   5.333   4.916   3.449 -2.3217  0.1628  0.9244
 5176TIP3   OH215533   3.306   4.931   2.056  0.0783  0.2852  0.1378
 5176TIP3    H115534   3.320   4.843   2.019  0.7569 -0.2797  1.6298
 5176TIP3    H215535   3.279   4.984   1.982  0.2866 -1.0399 -0.9381
 5177TIP3   OH215536   3.963   3.682   1.248 -0.9190  0.3108 -0.3495
 5177TIP3    H115537   3.884   3.682   1.193 -0.9439 -0.4241 -0.3268
 5177TIP3    H215538   4.006   3.599   1.227  1.0931  1.6941 -2.1253
 5178TIP3   OH215539   4.017   2.447   4.304 -0.0259 -0.1784 -0.1996
 5178TIP3    H115540   4.060   2.371   4.342  1.0518  1.0364  1.1745
 5178TIP3    H215541   4.078   2.519   4.321 -0.0818  0.7020 -3.1849
 5179TIP3   OH215542   1.533   3.934   0.721 -0.3791  0.4404  0.6954
 5179TIP3    H115543   1.488   3.852   0.739  0.1768 -0.0417 -0.0299
 5179TIP3    H215544   1.521   3.948   0.627  0.3956  0.6592  0.6216
 5180TIP3   OH215545   5.785   0.546   3.543 -0.1661  0.0416  0.0138
 5180TIP3    H115546   5.809   0.550   3.450  0.5581  1.4825  0.2385
 5180TIP3    H215547   5.862   0.579   3.589 -0.8280  0.1464  1.0730
 5181TIP3   OH215548   4.804   1.728   4.233 -0.1873 -0.1470 -0.5971
 5181TIP3    H115549   4.859   1.730   4.155  0.7103 -0.3411  0.0039
 5181TIP3    H215550   4.755   1.646   4.225  0.4941 -0.5691 -0.5774
 5182TIP3   OH215551   5.010   5.104   1.231 -0.7953 -0.2211 -0.2466
 5182TIP3    H115552   5.038   5.148   1.151  0.3798 -1.3808 -0.5154
 5182TIP3    H215553   5.080   5.043   1.250 -1.1975 -0.1735  1.5311
 5183TIP3   OH215554   4.273   1.590   3.734 -0.2554  0.4198  0.1329
 5183TIP3    H115555   4.310   1.507   3.764 -0.0095 -0.2552 -1.8869
 5183TIP3    H215556   4.348   1.639   3.701 -0.6003  0.8713  0.0085
 5184TIP3   OH215557   2.643   4.080   4.920 -0.2890  0.1115  0.3788
 5184TIP3    H115558   2.568   4.128   4.886  1.0642  2.2236  0.2061
 5184TIP3    H215559   2.684   4.042   4.842  0.1847  1.0424  0.1596
 5185TIP3   OH215560   6.200   4.647   3.590  0.1621 -0.6467  0.5336
 5185TIP3    H115561   6.238   4.697   3.662 -0.0597 -0.4308  0.5003
 5185TIP3    H215562   6.204   4.705   3.515 -1.9272  0.0999  0.9327
 5186TIP3   OH215563   2.187   3.826   4.108  0.1425  0.3172 -0.1532
 5186TIP3    H115564   2.156   3.879   4.181  1.5382 -0.7091  1.2561
 5186TIP3    H215565   2.276   3.801   4.133  0.3219 -0.8367 -1.7815
 5187TIP3   OH215566   2.686   5.656   2.792  0.3093 -0.5560 -0.2797
 5187TIP3    H115567   2.715   5.705   2.715  1.0251 -1.6759 -0.7446
 5187TIP3    H215568   2.601   5.695   2.814 -0.3857 -0.8269 -2.2271
 5188TIP3   OH215569   1.880   1.010   1.940  0.6888  0.0664 -0.1481
 5188TIP3    H115570   1.866   0.947   1.869  0.5999 -0.4813  0.3453
 5188TIP3    H215571   1.940   0.965   2.000 -0.0317  0.1140  0.6269
 5189TIP3   OH215572   0.503   4.471   2.154 -0.0823 -0.3693 -0.1820
 5189TIP3    H115573   0.574   4.477   2.219  0.1384  0.3644 -0.4837
 5189TIP3    H215574   0.431   4.431   2.202  0.4606 -0.9332  0.1895
 5190TIP3   OH215575   3.946   1.277   0.464 -0.7167  0.3272  0.1688
 5190TIP3    H115576   3.873   1.247   0.409  0.1808  2.8796 -2.7439
 5190TIP3    H215577   4.020   1.225   0.435 -1.0713 -1.5240  2.3768
 5191TIP3   OH215578   3.442   2.635   4.331 -0.4047 -0.6630 -0.1201
 5191TIP3    H115579   3.496   2.684   4.269  2.2677 -1.5347  1.3406
 5191TIP3    H215580   3.399   2.568   4.278  0.3714 -0.2682 -1.2949
 5192TIP3   OH215581   5.756   4.906   3.026 -0.5253  0.1927 -0.2743
 5192TIP3    H115582   5.677   4.948   2.992  0.1024  2.1193  0.5405
 5192TIP3    H215583   5.738   4.890   3.118 -0.8412 -1.6642 -0.6012
 5193TIP3   OH215584   5.345   0.408   0.414 -0.3670  0.3025  0.0259
 5193TIP3    H115585   5.304   0.488   0.446  0.8875  0.5306  1.1094
 5193TIP3    H215586   5.272   0.348   0.399 -1.2536  1.3670 -0.0368
 5194TIP3   OH215587   1.488   1.038   2.919 -0.2560 -0.1552  0.0201
 5194TIP3    H115588   1.505   0.944   2.921 -0.4170 -0.1839  1.8223
 5194TIP3    H215589   1.556   1.073   2.861 -0.6994 -1.4409 -1.3348
 5195TIP3   OH215590   4.344   2.307   2.294 -0.2499 -0.1388 -0.0037
 5195TIP3    H115591   4.306   2.224   2.323 -0.2407 -0.2463 -0.2951
 5195TIP3    H215592   4.436   2.300   2.319  0.1216 -0.9019 -1.4554
 5196TIP3   OH215593   3.368   3.692   4.154  0.3248 -0.2793 -0.1820
 5196TIP3    H115594   3.350   3.601   4.178  0.3500 -0.2165  0.0806
 5196TIP3    H215595   3.397   3.688   4.063  0.9673 -0.6146  0.0269
 5197TIP3   OH215596   4.794   4.023   4.015  0.3556 -0.1624 -0.3404
 5197TIP3    H115597   4.762   3.939   4.049 -1.2052  0.6251  0.2788
 5197TIP3    H215598   4.719   4.059   3.968  1.2993  0.4912 -1.3839
 5198TIP3   OH215599   6.200   2.652   2.289 -0.2979  0.2775 -0.2501
 5198TIP3    H115600   6.282   2.700   2.271 -0.0239  0.3453  1.0789
 5198TIP3    H215601   6.132   2.706   2.250  0.3628 -0.3491 -2.4023
 5199TIP3   OH215602   0.674   1.545   4.626 -0.8737  0.5443 -0.2856
 5199TIP3    H115603   0.677   1.563   4.532 -2.1002  1.9460 -0.1049
 5199TIP3    H215604   0.746   1.596   4.663  1.7896 -2.5759 -0.7200
 5200TIP3   OH215605   1.258   4.693   0.722  0.3536  0.0176  0.3670
 5200TIP3    H115606   1.244   4.724   0.632 -0.6376 -1.3593  0.0251
 5200TIP3    H215607   1.181   4.641   0.742  0.5622  0.2976  2.0402
 5201TIP3   OH215608   0.022   4.756   2.339  0.3035  0.1917  0.5755
 5201TIP3    H115609   0.061   4.839   2.309 -0.2789  0.0559 -0.5771
 5201TIP3    H215610   0.055   4.747   2.429  2.7950  0.1915 -0.2396
 5202TIP3   OH215611   1.628   3.286   3.980  0.0297  0.1734  0.2477
 5202TIP3    H115612   1.588   3.200   3.991 -1.8770  0.7311 -1.5761
 5202TIP3    H215613   1.633   3.322   4.069 -3.9817  0.1786  0.6366
 5203TIP3   OH215614   6.127   2.476   4.837 -0.4475 -0.1428 -0.0214
 5203TIP3    H115615   6.190   2.409   4.809 -2.1771 -3.0090  2.3163
 5203TIP3    H215616   6.172   2.559   4.822  2.0005 -1.7568 -2.7752
 5204TIP3   OH215617   5.540   3.380   0.964 -0.0046 -0.6781 -0.3101
 5204TIP3    H115618   5.616   3.321   0.968 -1.4445 -2.5262  2.0827
 5204TIP3    H215619   5.526   3.409   1.054 -3.0325 -1.6934 -0.3299
 5205TIP3   OH215620   1.337   3.895   4.221 -0.3461 -0.2187 -0.4238
 5205TIP3    H115621   1.390   3.974   4.220  0.3236 -0.6442  0.1230
 5205TIP3    H215622   1.392   3.828   4.180 -0.8162 -0.4538 -0.6799
 5206TIP3   OH215623   0.388   3.060   0.375 -0.2623 -0.5297 -0.4920
 5206TIP3    H115624   0.353   3.095   0.457 -0.2426  2.1260 -1.5176
 5206TIP3    H215625   0.329   3.092   0.308  0.9453 -0.7715 -1.7165
 5207TIP3   OH215626   0.792   0.656   3.222  0.4830  0.5169 -0.2969
 5207TIP3    H115627   0.725   0.598   3.185  1.1727  0.3289 -1.2854
 5207TIP3    H215628   0.867   0.599   3.238 -0.0620  0.3894  2.3030
 5208TIP3   OH215629   0.608   5.667   1.860 -0.0073  0.3878 -0.7273
 5208TIP3    H115630   0.567   5.745   1.824 -1.4035  0.1391  0.2563
 5208TIP3    H215631   0.693   5.662   1.815  1.1847  3.7316  0.8327
 5209TIP3   OH215632   2.431   5.667   3.757  0.7315 -0.1337 -0.4698
 5209TIP3    H115633   2.402   5.697   3.670  1.6200  1.7712 -0.1618
 5209TIP3    H215634   2.356   5.683   3.814  0.3608 -0.8029 -0.7622
 5210TIP3   OH215635   0.293   0.177   0.029 -0.6834  0.0870 -0.2084
 5210TIP3    H115636   0.255   0.091   0.043 -1.5994  0.0345 -2.6485
 5210TIP3    H215637   0.351   0.167  -0.047 -0.4354  1.5086 -0.2458
 5211TIP3   OH215638   0.076   0.986   2.983  0.1403  0.2944 -0.4945
 5211TIP3    H115639   0.156   0.938   3.005 -1.1398 -0.9343  1.9052
 5211TIP3    H215640   0.065   1.049   3.054 -2.1020 -1.0950  0.5242
 5212TIP3   OH215641   2.860   2.060   3.755 -0.5787 -0.5157 -0.2545
 5212TIP3    H115642   2.838   2.024   3.669  0.9054 -0.2266 -0.7742
 5212TIP3    H215643   2.779   2.050   3.806 -0.6188 -3.4802 -0.7216
 5213TIP3   OH215644   0.768   6.012   2.565 -0.2944 -0.5732 -0.5969
 5213TIP3    H115645   0.708   6.002   2.492  0.4993  0.5436 -1.4274
 5213TIP3    H215646   0.808   5.925   2.575  0.2060 -0.5293 -2.0346
 5214TIP3   OH215647   1.687   3.774   1.114  0.9581  0.5135  0.0488
 5214TIP3    H115648   1.640   3.719   1.050  0.6784 -1.0746  1.5510
 5214TIP3    H215649   1.701   3.857   1.068 -0.2404 -0.1713 -1.6679
 5215TIP3   OH215650   6.075   4.518   4.228 -0.1183  0.5301  0.3727
 5215TIP3    H115651   6.012   4.446   4.217 -1.4962  1.6647  0.5366
 5215TIP3    H215652   6.160   4.476   4.223 -0.8818 -1.2952  1.5317
 5216TIP3   OH215653   2.622   2.130   3.922  0.2185  0.0671 -0.4568
 5216TIP3    H115654   2.636   2.064   3.990 -3.3519  0.6003  1.0192
 5216TIP3    H215655   2.533   2.114   3.891 -0.0538  2.9403 -1.4908
 5217TIP3   OH215656   5.983   2.804   2.177 -0.1558 -0.3505  0.4918
 5217TIP3    H115657   5.901   2.755   2.179 -1.1189  1.1724  1.9562
 5217TIP3    H215658   6.006   2.810   2.085 -0.0608 -3.3395  0.2372
 5218TIP3   OH215659   1.736   3.790   1.399 -0.5513 -0.6600  0.4594
 5218TIP3    H115660   1.712   3.753   1.314 -1.8597  0.6678  0.2212
 5218TIP3    H215661   1.704   3.880   1.396  0.5465 -0.1835  1.8769
 5219TIP3   OH215662   1.003   3.005   3.551  0.0172  0.1249 -0.5360
 5219TIP3    H115663   1.021   2.951   3.627  0.3227 -0.6577 -1.1463
 5219TIP3    H215664   0.961   2.946   3.489 -0.3831  0.7921 -0.9094
 5220TIP3   OH215665   1.197   2.658   0.880 -0.4224 -0.1542  0.2237
 5220TIP3    H115666   1.182   2.565   0.897  0.8284 -0.0179  2.4767
 5220TIP3    H215667   1.287   2.662   0.847 -0.9220  0.1640 -1.1532
 5221TIP3   OH215668   2.440   3.928   2.702 -0.3838 -0.4522  0.4481
 5221TIP3    H115669   2.528   3.892   2.689 -1.1233 -2.2856  0.2899
 5221TIP3    H215670   2.407   3.943   2.614 -0.0906  0.6417  0.5128
 5222TIP3   OH215671   6.041   0.416   4.784  0.0224  0.7324  0.3787
 5222TIP3    H115672   6.127   0.458   4.776  0.4756 -0.2119  0.1650
 5222TIP3    H215673   5.982   0.487   4.809  0.5855  1.7109 -0.9093
 5223TIP3   OH215674   0.814   5.131   1.883  0.7622 -0.7175 -0.3500
 5223TIP3    H115675   0.840   5.201   1.824  4.0873 -0.1741  1.4965
 5223TIP3    H215676   0.782   5.176   1.961 -1.0705 -1.3853 -0.6655
 5224TIP3   OH215677   6.312   2.906   1.956  0.3967  0.3555  0.3018
 5224TIP3    H115678   6.385   2.870   1.906  0.3532 -1.2226  1.3194
 5224TIP3    H215679   6.334   2.888   2.047 -2.1659 -2.0348  0.5620
 5225TIP3   OH215680   5.801   2.077   2.774 -0.0605  0.0664  0.6326
 5225TIP3    H115681   5.726   2.088   2.715  0.2646  0.5941  0.3012
 5225TIP3    H215682   5.877   2.092   2.718  0.2874 -0.3968  0.9820
 5226TIP3   OH215683   1.939   3.715   4.611  0.9358 -0.0558 -0.6021
 5226TIP3    H115684   2.004   3.671   4.556  1.9780  0.3965  0.2409
 5226TIP3    H215685   1.989   3.780   4.660  0.0136 -0.3366  0.7662
 5227TIP3   OH215686   2.298   0.175   3.634  0.0827 -0.4728 -0.0690
 5227TIP3    H115687   2.214   0.194   3.676 -0.1440  0.7674 -1.0217
 5227TIP3    H215688   2.283   0.092   3.588 -0.3867 -0.6452  0.3839
 5228TIP3   OH215689   4.113   1.261   4.144  0.1620  0.4814 -0.4781
 5228TIP3    H115690   4.057   1.257   4.222 -1.0876  0.9005 -1.3175
 5228TIP3    H215691   4.054   1.289   4.074  1.5954  1.6117 -1.2751
 5229TIP3   OH215692   5.844   1.545   2.235  0.4909 -0.2131 -0.1674
 5229TIP3    H115693   5.922   1.559   2.181 -0.2178 -1.7802 -1.6910
 5229TIP3    H215694   5.879   1.514   2.318  1.5250 -2.0210 -1.2035
 5230TIP3   OH215695   3.430   3.278   0.343  0.1116 -0.0892  0.2756
 5230TIP3    H115696   3.371   3.233   0.283 -1.3285 -0.5773  1.9535
 5230TIP3    H215697   3.426   3.227   0.424  1.1220  1.1183  1.1359
 5231TIP3   OH215698   4.269   1.713   4.964  0.7377 -0.8597  0.3676
 5231TIP3    H115699   4.215   1.636   4.981  0.9471 -1.2655 -0.7213
 5231TIP3    H215700   4.241   1.777   5.029 -0.3176 -1.4177  0.4775
 5232TIP3   OH215701   2.457   4.287   0.835  0.7700 -0.6880  0.0051
 5232TIP3    H115702   2.386   4.247   0.786  0.9797 -1.2716  0.1743
 5232TIP3    H215703   2.482   4.364   0.783 -0.5318 -0.0054  0.3691
 5233TIP3   OH215704   5.564   0.862   2.643  0.0854 -0.1314 -0.5380
 5233TIP3    H115705   5.560   0.800   2.716  0.5449  1.9992  1.4064
 5233TIP3    H215706   5.480   0.908   2.646  1.1117  1.7855  0.4092
 5234TIP3   OH215707   2.896   3.384   4.060  0.6794  0.0590 -0.5062
 5234TIP3    H115708   2.926   3.395   3.969  2.3770 -0.7958 -0.0927
 5234TIP3    H215709   2.967   3.336   4.103  0.6221  1.7568  1.6602
 5235TIP3   OH215710   3.557   1.311   4.056 -0.1046 -0.1545 -0.5558
 5235TIP3    H115711   3.637   1.259   4.056 -0.7691 -1.3689  1.8749
 5235TIP3    H215712   3.514   1.289   4.139 -1.8616  2.1661 -0.7281
 5236TIP3   OH215713   2.957   3.640   3.163 -0.2367  0.5773 -0.1005
 5236TIP3    H115714   2.900   3.567   3.142 -1.0142  0.9660  0.5819
 5236TIP3    H215715   2.934   3.709   3.101  0.4629  0.2698 -0.7135
 5237TIP3   OH215716   4.301   1.231   3.752  0.3844  0.0558  0.4415
 5237TIP3    H115717   4.279   1.158   3.809  0.7242  0.0738  0.5932
 5237TIP3    H215718   4.396   1.236   3.754  0.3376  0.8721  0.8974
 5238TIP3   OH215719   2.915   3.588   0.535 -0.0164  0.4516  0.1093
 5238TIP3    H115720   2.875   3.559   0.453  0.7638  0.7138 -0.3729
 5238TIP3    H215721   2.862   3.547   0.604  0.8763 -1.9622 -0.5400
 5239TIP3   OH215722   3.544   5.841   4.655  0.0842  0.6761 -0.1499
 5239TIP3    H115723   3.564   5.932   4.631 -2.7578  1.4559  0.0154
 5239TIP3    H215724   3.449   5.833   4.640  0.0021 -1.8492  1.2078
 5240TIP3   OH215725   0.953   5.034   0.374 -0.1271  0.4180  0.0334
 5240TIP3    H115726   0.904   4.983   0.310  1.7196 -0.9023 -0.4014
 5240TIP3    H215727   0.933   5.125   0.351 -2.2509 -0.0269 -0.1494
 5241TIP3   OH215728   5.166   3.003   2.211  0.2095 -0.3013  0.0157
 5241TIP3    H115729   5.232   3.059   2.169  0.5448 -0.4557  0.3351
 5241TIP3    H215730   5.193   2.914   2.189  0.6712 -0.4104  0.9588
 5242TIP3   OH215731   0.816   5.833   3.924 -0.3245  0.2328 -0.2240
 5242TIP3    H115732   0.755   5.837   3.851 -0.6003 -1.2147 -0.1043
 5242TIP3    H215733   0.900   5.860   3.887 -0.8934  1.7140 -0.5181
 5243TIP3   OH215734   0.321   2.906   0.825  0.6540  0.2813 -0.0840
 5243TIP3    H115735   0.411   2.873   0.822  0.1884 -0.9922 -1.3430
 5243TIP3    H215736   0.318   2.961   0.903  2.6334  0.6900 -0.2347
 5244TIP3   OH215737   5.115   5.602   4.590 -0.3342  0.3578 -0.4794
 5244TIP3    H115738   5.064   5.659   4.648  1.4296  0.0309  1.5098
 5244TIP3    H215739   5.052   5.540   4.555 -1.2507 -0.6022  2.5902
 5245TIP3   OH215740   3.725   2.159   2.397  0.2626 -0.6738 -0.1182
 5245TIP3    H115741   3.667   2.125   2.327  0.8985 -0.9138 -0.5395
 5245TIP3    H215742   3.694   2.115   2.476 -0.3872 -0.5015 -0.2698
 5246TIP3   OH215743   0.116   4.227   3.597 -0.3465 -0.1368  0.4917
 5246TIP3    H115744   0.158   4.151   3.556 -1.4656  0.1407 -1.3089
 5246TIP3    H215745   0.128   4.214   3.691  0.4706 -1.9518  0.1761
 5247TIP3   OH215746   4.076   3.934   3.320 -0.0787 -0.1211  0.4062
 5247TIP3    H115747   3.985   3.956   3.300 -1.1796 -3.9729  0.3459
 5247TIP3    H215748   4.107   3.888   3.242  1.6918  0.4461  0.7374
 5248TIP3   OH215749   0.351   5.309   0.739 -0.2279  0.0117  0.0978
 5248TIP3    H115750   0.433   5.326   0.784  0.4258  2.0704 -1.7053
 5248TIP3    H215751   0.362   5.222   0.700  0.7505 -0.0892  0.5743
 5249TIP3   OH215752   1.226   1.082   0.815  0.1164 -0.3896  0.0712
 5249TIP3    H115753   1.141   1.100   0.854  0.3549 -0.8034  0.7924
 5249TIP3    H215754   1.255   1.167   0.781  0.2723  0.1693  1.5277
 5250TIP3   OH215755   6.337   4.954   0.858 -0.2785  0.2827  0.1639
 5250TIP3    H115756   6.421   4.984   0.892 -0.2599 -0.7248  1.0645
 5250TIP3    H215757   6.277   4.962   0.932 -1.0556  1.2299 -0.5449
 5251TIP3   OH215758   0.527   5.554   4.828 -0.1700 -0.3633 -0.5156
 5251TIP3    H115759   0.548   5.461   4.842 -0.3401 -0.3151  0.0735
 5251TIP3    H215760   0.444   5.567   4.873 -0.4542 -0.0678 -1.1248
 5252TIP3   OH215761   1.115   1.873   4.022 -0.0832  0.4415  0.4101
 5252TIP3    H115762   1.087   1.850   4.110 -0.0065  0.5180  0.4549
 5252TIP3    H215763   1.121   1.969   4.023  0.3753  0.4115  0.4576
 5253TIP3   OH215764   1.347   0.621   1.932  0.0197  0.3880  0.2443
 5253TIP3    H115765   1.410   0.572   1.879 -1.1363 -0.1898 -0.6343
 5253TIP3    H215766   1.333   0.565   2.009  1.7579  1.2654  1.2780
 5254TIP3   OH215767   5.802   1.586   4.097 -0.3498  0.1385  0.0802
 5254TIP3    H115768   5.734   1.535   4.140 -1.3932  1.0038 -0.4938
 5254TIP3    H215769   5.808   1.667   4.148  0.3019  0.0418  0.1665
 5255TIP3   OH215770   2.773   2.451   2.600  0.0027  0.2314  0.4338
 5255TIP3    H115771   2.714   2.400   2.654  1.3661  0.6252  2.4313
 5255TIP3    H215772   2.750   2.542   2.619 -0.2091  0.3818 -0.5066
 5256TIP3   OH215773   5.471   1.970   0.247  0.1394  0.2374 -0.4428
 5256TIP3    H115774   5.528   1.895   0.232  0.4831  0.4062  0.0094
 5256TIP3    H215775   5.529   2.038   0.281 -0.5833 -0.1504  1.7505
 5257TIP3   OH215776   1.207   4.957   1.899  0.5794  0.2657 -0.1549
 5257TIP3    H115777   1.267   4.974   1.972  1.2673  1.1020 -0.8934
 5257TIP3    H215778   1.240   5.012   1.828 -0.3171 -0.2361 -0.9758
 5258TIP3   OH215779   3.905   5.907   4.565 -0.1345 -0.1106 -0.0493
 5258TIP3    H115780   3.874   5.995   4.587  2.1456  0.5359  0.9417
 5258TIP3    H215781   3.907   5.906   4.469 -2.1384  0.1354 -0.1287
 5259TIP3   OH215782   0.026   0.891   4.312 -0.5745 -0.2791 -0.0548
 5259TIP3    H115783   0.072   0.827   4.366 -1.1821 -0.8967 -0.2463
 5259TIP3    H215784  -0.011   0.953   4.374  1.4077  0.8783  0.0544
 5260TIP3   OH215785   0.623   0.052   0.559  0.1353  0.1027 -0.0244
 5260TIP3    H115786   0.575   0.038   0.477  0.0861 -0.8744  0.1597
 5260TIP3    H215787   0.581   0.127   0.600  0.2618  0.7016 -0.9696
 5261TIP3   OH215788   0.248   4.115   2.053 -0.1597  0.0494 -0.2772
 5261TIP3    H115789   0.253   4.021   2.037 -0.4134 -0.2283  1.1836
 5261TIP3    H215790   0.213   4.151   1.971  1.5829 -0.8827 -1.5200
 5262TIP3   OH215791   0.559   5.977   2.007 -0.2690  0.3833 -0.0577
 5262TIP3    H115792   0.642   5.937   1.984 -1.1929 -0.5407 -2.0264
 5262TIP3    H215793   0.506   5.905   2.042 -1.4334  0.0919 -2.2379
 5263TIP3   OH215794   0.719   0.402   2.618  0.0230 -0.0610  0.1939
 5263TIP3    H115795   0.813   0.414   2.630 -0.3419  2.1520  1.2767
 5263TIP3    H215796   0.688   0.487   2.586 -1.5872 -0.8387 -0.3962
 5264TIP3   OH215797   3.697   5.238   0.894 -0.0196 -0.3377  0.5011
 5264TIP3    H115798   3.644   5.220   0.817  2.2712  0.1715 -1.3045
 5264TIP3    H215799   3.634   5.246   0.966 -2.5691  1.8892 -1.7678
 5265TIP3   OH215800   4.541   0.316   4.649  0.2594  0.3391  0.1372
 5265TIP3    H115801   4.542   0.284   4.739 -1.1058  0.0432  0.0628
 5265TIP3    H215802   4.504   0.404   4.654 -1.1021 -0.1907 -0.2706
 5266TIP3   OH215803   1.926   4.707   2.179 -0.2076 -0.3643  0.1879
 5266TIP3    H115804   1.901   4.751   2.260 -0.8063  1.3907 -0.8906
 5266TIP3    H215805   1.937   4.615   2.204  1.3172  0.3917  2.5742
 5267TIP3   OH215806   3.511   0.918   3.730 -0.2728  0.7309 -0.0745
 5267TIP3    H115807   3.511   0.938   3.823  1.0690  2.1859 -0.3383
 5267TIP3    H215808   3.550   0.995   3.689  0.5517 -0.4858 -1.6912
 5268TIP3   OH215809   3.121   3.323   3.644  0.0710 -0.4758 -0.0993
 5268TIP3    H115810   3.114   3.344   3.737  0.2123 -3.3270  0.6470
 5268TIP3    H215811   3.191   3.380   3.612 -0.8335  1.4724  1.1699
 5269TIP3   OH215812   0.265   3.111   2.180  0.2451  0.6254 -0.2577
 5269TIP3    H115813   0.314   3.054   2.240  0.2123  1.9895  1.1150
 5269TIP3    H215814   0.330   3.171   2.144  0.0583  0.5684 -0.7031
 5270TIP3   OH215815   3.127   1.257   2.645 -0.6475  0.1448  0.0140
 5270TIP3    H115816   3.040   1.223   2.625 -0.5102  1.2989 -3.0800
 5270TIP3    H215817   3.187   1.189   2.612 -0.3999  0.4694 -0.2124
 5271TIP3   OH215818   5.943   3.902   4.842  0.0556 -0.1524  0.5493
 5271TIP3    H115819   5.864   3.874   4.889  0.7081 -0.2996  1.5983
 5271TIP3    H215820   5.989   3.820   4.823 -0.1000 -0.0759 -0.1696
 5272TIP3   OH215821   0.845   1.085   4.071 -0.0650  0.2388  0.0844
 5272TIP3    H115822   0.781   1.127   4.014 -0.5055  0.4610  0.7270
 5272TIP3    H215823   0.811   0.996   4.085  0.8113 -0.3153 -1.1889
 5273TIP3   OH215824   4.898   0.131   0.421 -0.3750  0.2025  0.0153
 5273TIP3    H115825   4.837   0.139   0.347  0.0061  1.3339 -0.2057
 5273TIP3    H215826   4.864   0.058   0.473 -1.0008 -0.2111 -0.9509
 5274TIP3   OH215827   4.950   0.804   1.668 -0.2774 -0.1940 -0.1846
 5274TIP3    H115828   4.986   0.856   1.596  1.3794  0.8599  1.3201
 5274TIP3    H215829   5.014   0.733   1.680 -0.2385 -0.0380  0.5891
 5275TIP3   OH215830   6.084   0.163   2.663 -0.4315 -0.0099  0.1441
 5275TIP3    H115831   6.060   0.174   2.571  0.8332  1.1987 -0.0746
 5275TIP3    H215832   6.179   0.167   2.663 -0.4700  2.2616  1.7644
 5276TIP3   OH215833   6.189   0.808   3.101 -0.5984  0.4841  0.1124
 5276TIP3    H115834   6.188   0.899   3.070  0.3065  0.9842  1.4646
 5276TIP3    H215835   6.112   0.768   3.060 -0.9335  1.8112 -0.6157
 5277TIP3   OH215836   5.433   1.984   4.206 -0.1264 -0.1302  0.2511
 5277TIP3    H115837   5.501   2.016   4.146  0.0395 -0.4338  0.2760
 5277TIP3    H215838   5.415   1.895   4.177 -1.1249  0.2251 -0.2888
 5278TIP3   OH215839   2.125   3.491   4.184  0.1577 -0.6346 -0.2862
 5278TIP3    H115840   2.068   3.556   4.144  1.2147  0.7993  0.4176
 5278TIP3    H215841   2.189   3.470   4.116 -2.0414 -3.5327 -1.6859
 5279TIP3   OH215842   1.905   5.821   2.168 -0.2708 -0.5047 -0.4855
 5279TIP3    H115843   1.942   5.783   2.248  3.1788  2.1012 -0.6265
 5279TIP3    H215844   1.927   5.759   2.099 -0.2526 -1.1686  0.1077
 5280TIP3   OH215845   0.408   5.519   1.138  0.3802 -0.1591 -0.1519
 5280TIP3    H115846   0.390   5.553   1.226 -0.3586 -0.0953 -0.3235
 5280TIP3    H215847   0.434   5.428   1.152 -0.7606 -0.4586  0.0495
 5281TIP3   OH215848   2.147   2.560   2.269 -0.1916 -0.1615  0.3294
 5281TIP3    H115849   2.195   2.512   2.201  2.2193 -0.9132  2.3935
 5281TIP3    H215850   2.194   2.643   2.278  0.1247 -0.4528  1.6490
 5282TIP3   OH215851   2.997   5.650   5.006  0.0897  0.3423 -0.2707
 5282TIP3    H115852   2.971   5.716   5.071 -0.0336  1.5088 -1.4425
 5282TIP3    H215853   3.051   5.699   4.944  0.4271 -0.8062 -0.8995
 5283TIP3   OH215854   5.959   1.018   0.639  0.5143 -0.1314  0.2227
 5283TIP3    H115855   5.928   1.107   0.657 -1.4804 -0.7809  0.2986
 5283TIP3    H215856   5.902   0.986   0.570 -0.9929 -2.4037  2.3225
 5284TIP3   OH215857   1.386   3.964   2.231 -0.1581 -0.9692 -0.1456
 5284TIP3    H115858   1.430   4.012   2.302 -1.2771 -1.6628  1.0790
 5284TIP3    H215859   1.415   3.874   2.241  0.0069 -0.9971 -0.8585
 5285TIP3   OH215860   4.586   1.781   1.152 -0.0921 -0.3943 -0.2901
 5285TIP3    H115861   4.499   1.817   1.164 -0.2190 -0.1060 -1.8712
 5285TIP3    H215862   4.623   1.830   1.078  1.0240 -1.1987 -0.3020
 5286TIP3   OH215863   5.728   0.743   1.654  0.0088 -0.2576 -0.5315
 5286TIP3    H115864   5.697   0.686   1.724 -1.6634 -0.2457 -1.2235
 5286TIP3    H215865   5.779   0.684   1.597 -0.9313 -0.8864 -0.7453
 5287TIP3   OH215866   0.338   0.359   0.358  0.0899 -0.3637 -0.3561
 5287TIP3    H115867   0.419   0.366   0.307  0.3227 -2.8112 -0.4216
 5287TIP3    H215868   0.366   0.326   0.444 -0.7315 -0.2256 -0.0216
 5288TIP3   OH215869   2.926   3.984   0.911 -0.1204  0.2049  0.5416
 5288TIP3    H115870   2.979   4.063   0.923 -0.0197  0.1637  0.3682
 5288TIP3    H215871   2.919   3.975   0.816  0.8855 -0.6785  0.5396
 5289TIP3   OH215872   1.525   3.328   0.211  0.2074 -0.1300 -0.1266
 5289TIP3    H115873   1.446   3.376   0.185  1.3348  1.8438 -0.1566
 5289TIP3    H215874   1.593   3.395   0.215  2.2238 -1.9525 -1.4382
 5290TIP3   OH215875   0.268   0.415   4.470  0.7799  0.2015  0.4411
 5290TIP3    H115876   0.271   0.333   4.421  1.5522 -0.2508  1.2141
 5290TIP3    H215877   0.357   0.426   4.504  0.1275  0.1071  2.3232
 5291TIP3   OH215878   2.326   1.580   3.472  0.4577  0.4818 -0.0287
 5291TIP3    H115879   2.282   1.502   3.505 -0.0817  1.3862  1.5384
 5291TIP3    H215880   2.418   1.566   3.492  0.2747  0.5254  0.9084
 5292TIP3   OH215881   4.668   4.594   3.732  0.0110 -0.3415 -0.1569
 5292TIP3    H115882   4.701   4.684   3.738 -1.5195  0.3143 -0.9519
 5292TIP3    H215883   4.575   4.604   3.712 -0.0272 -2.1230 -1.0703
 5293TIP3   OH215884   3.088   5.037   3.106  0.4749 -0.0550  0.7917
 5293TIP3    H115885   3.082   5.128   3.078  0.1008  0.1880  1.6625
 5293TIP3    H215886   3.006   5.020   3.152  0.0962 -1.1331 -0.2201
 5294TIP3   OH215887   0.195   4.649   0.064  0.0749 -0.0019 -0.4274
 5294TIP3    H115888   0.123   4.607   0.016  0.8787 -1.3803 -0.4787
 5294TIP3    H215889   0.187   4.742   0.043 -0.7631 -0.3265 -1.6680
 5295TIP3   OH215890   5.504   1.459   0.614 -0.2563  0.2594 -0.3091
 5295TIP3    H115891   5.500   1.365   0.632  0.2659  0.2176 -0.3992
 5295TIP3    H215892   5.527   1.499   0.698  2.4435  0.0414 -0.8567
 5296TIP3   OH215893   6.154   5.135   2.374  0.3613  0.1613  0.6435
 5296TIP3    H115894   6.195   5.175   2.297 -0.2803 -0.0681  0.1717
 5296TIP3    H215895   6.208   5.165   2.448  0.8605  0.5593  0.1334
 5297TIP3   OH215896   1.819   2.367   2.237 -0.0967  0.2597  0.8461
 5297TIP3    H115897   1.891   2.305   2.248 -0.1248 -0.2594 -1.4147
 5297TIP3    H215898   1.751   2.335   2.296  0.7423 -0.4998  1.4258
 5298TIP3   OH215899   0.641   4.275   2.566 -0.3319  0.0476 -0.4144
 5298TIP3    H115900   0.555   4.316   2.559  0.0661  1.2040  0.9517
 5298TIP3    H215901   0.656   4.266   2.660  2.1317  2.4283 -0.4560
 5299TIP3   OH215902   1.006   2.241   5.048 -0.3670  0.1261 -0.0103
 5299TIP3    H115903   1.010   2.202   4.960 -0.7119 -0.8694  0.4070
 5299TIP3    H215904   0.921   2.285   5.051 -1.3763 -1.7947  0.6121
 5300TIP3   OH215905   4.502   2.757   3.084  0.2485 -0.7596 -0.2399
 5300TIP3    H115906   4.541   2.730   3.167  0.8049  2.3478  0.6560
 5300TIP3    H215907   4.551   2.709   3.017  3.2125  0.2657  1.0484
 5301TIP3   OH215908   3.630   3.112   4.518  0.8818  0.7834 -0.7499
 5301TIP3    H115909   3.709   3.087   4.470  0.4006 -2.3485 -0.0870
 5301TIP3    H215910   3.661   3.177   4.581  3.5273 -1.9021  0.9978
 5302TIP3   OH215911   0.002   0.104   2.903  0.2053 -0.3899 -0.0390
 5302TIP3    H115912  -0.006   0.016   2.941  0.5109 -0.5298 -0.2922
 5302TIP3    H215913   0.009   0.089   2.809 -2.3011  0.0452 -0.3703
 5303TIP3   OH215914   6.184   2.471   0.666 -0.0821 -0.6875  0.2982
 5303TIP3    H115915   6.259   2.529   0.652 -1.0647  1.3249  2.6330
 5303TIP3    H215916   6.178   2.420   0.586  3.4114 -0.5451 -0.2096
 5304TIP3   OH215917   0.639   4.012   5.215  0.1324 -0.2275  0.7880
 5304TIP3    H115918   0.555   4.037   5.175  0.7411  0.5529 -0.0336
 5304TIP3    H215919   0.696   3.992   5.141  1.0138  0.3441  1.2937
 5305TIP3   OH215920   2.284   5.316   4.788 -0.6775  0.3242 -0.2590
 5305TIP3    H115921   2.313   5.279   4.871 -1.5863  1.0349  0.3979
 5305TIP3    H215922   2.356   5.300   4.728  0.6831  1.1969  1.0699
 5306TIP3   OH215923   3.141   4.323   0.579 -0.0096 -0.4522 -0.1389
 5306TIP3    H115924   3.157   4.232   0.551  0.1623 -0.6096  0.4597
 5306TIP3    H215925   3.057   4.345   0.540  0.2242 -0.6694 -0.7793
 5307TIP3   OH215926   2.490   1.197   3.364 -0.6165  0.4756 -0.2161
 5307TIP3    H115927   2.470   1.114   3.320 -0.4695  0.8223 -0.9643
 5307TIP3    H215928   2.569   1.228   3.319 -1.4000  1.6408 -0.8367
 5308TIP3   OH215929   2.736   4.647   2.842 -0.4941  0.3383 -0.5998
 5308TIP3    H115930   2.806   4.583   2.851  0.0293  0.9675 -0.0609
 5308TIP3    H215931   2.705   4.661   2.932 -1.3694  0.0041 -0.8411
 5309TIP3   OH215932   1.556   5.765   1.906 -0.6972 -0.3058  0.1132
 5309TIP3    H115933   1.478   5.801   1.863 -2.0446 -2.0406  0.9843
 5309TIP3    H215934   1.575   5.685   1.858  0.1199 -0.2635  0.3550
 5310TIP3   OH215935   1.806   4.101   2.057 -0.0747  0.4106 -0.0932
 5310TIP3    H115936   1.718   4.071   2.036 -0.5014 -0.7740  2.9056
 5310TIP3    H215937   1.864   4.038   2.014 -0.8207 -0.8135  0.6314
 5311TIP3   OH215938   0.916   0.757   4.856 -0.5602  0.5188  0.0608
 5311TIP3    H115939   0.851   0.815   4.895  0.1384 -0.2836  2.5821
 5311TIP3    H215940   0.912   0.677   4.908  0.3066 -0.7453 -1.6980
 5312TIP3   OH215941   4.633   4.168   0.589  0.2563  0.0291  0.1605
 5312TIP3    H115942   4.626   4.164   0.493 -0.2106 -1.4205  0.2203
 5312TIP3    H215943   4.709   4.223   0.606  0.5851 -0.0279 -1.0621
 5313TIP3   OH215944   3.448   2.195   0.485 -0.3328  0.0389  0.0096
 5313TIP3    H115945   3.472   2.159   0.400  0.9622  1.8337 -0.4599
 5313TIP3    H215946   3.533   2.210   0.529 -0.9671 -0.9267  1.6835
 5314TIP3   OH215947   4.392   5.446   3.081 -0.1705  0.0325 -0.0056
 5314TIP3    H115948   4.437   5.479   3.159 -1.4113  2.3259 -0.1728
 5314TIP3    H215949   4.378   5.353   3.098  0.7522  0.2108  1.9146
 5315TIP3   OH215950   4.530   2.890   1.190 -0.0182  0.2230 -0.6263
 5315TIP3    H115951   4.473   2.942   1.246  0.7187 -0.1298  0.4737
 5315TIP3    H215952   4.519   2.928   1.103  0.7027  2.4368  0.1836
 5316TIP3   OH215953   2.638   2.987   0.317  0.3218 -0.3239 -0.1688
 5316TIP3    H115954   2.603   2.908   0.276  1.5736 -0.4228 -1.1029
 5316TIP3    H215955   2.584   3.058   0.283  1.4605 -0.3820 -2.2141
 5317TIP3   OH215956   5.364   5.873   0.480 -0.8434  0.7268  0.4307
 5317TIP3    H115957   5.309   5.795   0.475  1.1359 -0.6747 -1.1633
 5317TIP3    H215958   5.398   5.873   0.570  0.9177 -1.6318 -0.1527
 5318TIP3   OH215959   4.944   0.259   2.750 -0.4033  0.9039 -0.6231
 5318TIP3    H115960   4.898   0.202   2.812 -0.3806 -0.2842 -1.6565
 5318TIP3    H215961   4.896   0.342   2.753 -0.7341  0.6800  0.5600
 5319TIP3   OH215962   2.538   3.248   0.222 -0.4086  0.1720  0.1990
 5319TIP3    H115963   2.476   3.238   0.150  1.2231 -3.0623 -0.9556
 5319TIP3    H215964   2.595   3.321   0.196  0.6713 -1.4498 -2.3342
 5320TIP3   OH215965   5.270   2.690   2.113 -0.9700  0.2673  0.2949
 5320TIP3    H115966   5.309   2.604   2.128  0.2309  1.0315  1.8465
 5320TIP3    H215967   5.317   2.725   2.037  1.7660  1.2848  2.2917
 5321TIP3   OH215968   1.197   0.246   3.289  0.0981  0.3035  0.9129
 5321TIP3    H115969   1.154   0.165   3.262 -0.4998  1.1397 -0.7495
 5321TIP3    H215970   1.284   0.242   3.249  0.1165  0.4326  0.9393
 5322TIP3   OH215971   0.045   1.802   0.682 -0.9248 -0.1242 -0.0522
 5322TIP3    H115972  -0.009   1.786   0.759  0.9306 -1.1620  1.1090
 5322TIP3    H215973   0.027   1.729   0.624 -0.7884 -0.4624  0.3266
 5323TIP3   OH215974   3.232   1.909   0.684 -0.1384 -0.8145 -0.6464
 5323TIP3    H115975   3.170   1.973   0.651  0.9591 -0.2010 -1.5783
 5323TIP3    H215976   3.288   1.888   0.609  0.7286 -1.4098  0.1328
 5324TIP3   OH215977   4.855   4.294   2.422  0.2504  0.1587 -0.0689
 5324TIP3    H115978   4.837   4.282   2.329  0.1296  1.2760 -0.2017
 5324TIP3    H215979   4.873   4.387   2.432 -3.2013  0.8137  1.5589
 5325TIP3   OH215980   0.808   1.302   3.690  0.0860 -0.2576 -0.5078
 5325TIP3    H115981   0.764   1.283   3.773 -0.4764  0.5726 -0.6098
 5325TIP3    H215982   0.874   1.368   3.712  2.0712 -2.2227 -0.1484
 5326TIP3   OH215983   3.024   3.123  -0.003  0.2446  0.4976 -0.1390
 5326TIP3    H115984   3.011   3.216  -0.019 -0.1734  0.8627  2.0246
 5326TIP3    H215985   2.950   3.098   0.053  0.6607 -1.0173 -0.2183
 5327TIP3   OH215986   4.113   1.854   4.282 -0.3521  0.1783  0.0205
 5327TIP3    H115987   4.047   1.919   4.260  0.1323 -0.2065 -2.9909
 5327TIP3    H215988   4.065   1.771   4.287 -0.5744  0.3611  1.3441
 5328TIP3   OH215989   0.119   3.721   2.549 -0.4724 -0.0176  0.1699
 5328TIP3    H115990   0.208   3.712   2.584 -0.9256 -2.1042  0.9349
 5328TIP3    H215991   0.088   3.631   2.538 -2.0293  0.6484 -1.3449
 5329TIP3   OH215992   3.168   3.917   3.966 -0.3185 -0.4189  0.1957
 5329TIP3    H115993   3.250   3.891   3.922 -0.1287 -1.0835  0.9244
 5329TIP3    H215994   3.163   3.861   4.043 -1.1708  0.0295  0.4814
 5330TIP3   OH215995   1.811   4.881   0.352 -0.6516  0.2763  0.3644
 5330TIP3    H115996   1.778   4.937   0.281  1.0040  0.8137 -0.0335
 5330TIP3    H215997   1.792   4.792   0.322 -0.7333  0.5260 -0.3675
 5331TIP3   OH215998   6.193   0.429   0.804 -0.0088  0.2012 -0.4361
 5331TIP3    H115999   6.192   0.463   0.715  0.7662 -1.5954 -1.1916
 5331TIP3    H216000   6.268   0.471   0.845 -0.2543  0.8909 -0.6780
 5332TIP3   OH216001   4.551   4.608   2.106  0.0172  0.1441 -0.0482
 5332TIP3    H116002   4.479   4.567   2.058  0.8082 -0.4010 -0.7883
 5332TIP3    H216003   4.565   4.691   2.061 -0.8193  0.7385  0.7417
 5333TIP3   OH216004   6.198   0.487   3.834 -0.0435 -0.0467  0.0934
 5333TIP3    H116005   6.278   0.500   3.784 -0.1749 -2.8654 -1.0323
 5333TIP3    H216006   6.186   0.569   3.883  3.1534  0.6816 -0.1631
 5334TIP3   OH216007   5.819   0.465   3.247  0.2495 -0.1686  0.2009
 5334TIP3    H116008   5.828   0.419   3.164 -0.8731 -2.8127  1.4417
 5334TIP3    H216009   5.908   0.466   3.283  0.6065  0.3132 -0.6440
 5335TIP3   OH216010   0.288   3.407   4.159  0.4965 -0.2838  0.3305
 5335TIP3    H116011   0.307   3.480   4.219  0.8572 -0.2517  0.1813
 5335TIP3    H216012   0.283   3.330   4.215 -0.0028 -0.1259  0.5045
 5336TIP3   OH216013   3.923   4.237   1.451  0.2481 -0.3444 -0.1304
 5336TIP3    H116014   3.889   4.160   1.496 -0.6964  0.5116  0.6412
 5336TIP3    H216015   4.018   4.223   1.448  0.0779 -1.5944 -0.1336
 5337TIP3   OH216016   5.741   5.620   1.984  0.1535 -0.2607  0.1578
 5337TIP3    H116017   5.817   5.569   2.011  0.0056 -0.5236  0.0774
 5337TIP3    H216018   5.763   5.710   2.009  1.1874 -0.0680 -1.3398
 5338TIP3   OH216019  -0.020   2.392   1.507 -0.7556  0.4527 -0.0715
 5338TIP3    H116020  -0.024   2.417   1.415 -1.9991 -2.5022 -0.9375
 5338TIP3    H216021   0.067   2.353   1.518 -0.8440  0.2288 -0.1668
 5339TIP3   OH216022   2.942   0.305   0.255 -0.3447  0.8145  0.2140
 5339TIP3    H116023   3.035   0.283   0.257 -0.0222  1.8841 -1.4938
 5339TIP3    H216024   2.924   0.339   0.343  0.7352  0.1755  0.7143
 5340TIP3   OH216025   5.283   3.346   3.026 -0.2905  0.7363  0.2922
 5340TIP3    H116026   5.225   3.422   3.034 -0.5873  0.9343 -2.6347
 5340TIP3    H216027   5.225   3.270   3.034 -0.3815  0.8597  0.8131
 5341TIP3   OH216028   2.404   2.246   2.359 -0.2877 -0.0100  0.0268
 5341TIP3    H116029   2.460   2.323   2.348  0.2783 -0.5893 -1.2811
 5341TIP3    H216030   2.462   2.180   2.398 -0.5920 -0.0112  0.4952
 5342TIP3   OH216031   4.438   4.711   5.042  0.3224 -0.0145  0.3203
 5342TIP3    H116032   4.412   4.710   4.949 -0.9689 -0.9648  0.6656
 5342TIP3    H216033   4.432   4.803   5.067  0.9078  0.2883 -0.5879
 5343TIP3   OH216034   1.616   2.299   4.351 -0.7479  0.3320 -0.2149
 5343TIP3    H116035   1.636   2.391   4.333  0.2150 -0.0907 -1.3644
 5343TIP3    H216036   1.657   2.283   4.436 -0.6853  0.8843 -0.1337
 5344TIP3   OH216037   3.071   2.141   0.691 -0.4852 -0.6617 -0.3848
 5344TIP3    H116038   3.089   2.203   0.762  1.3953 -1.3302 -0.2135
 5344TIP3    H216039   3.020   2.191   0.627  0.0108  0.7187  0.2644
 5345TIP3   OH216040   1.158   0.461   1.017  0.0029  0.1185  0.4142
 5345TIP3    H116041   1.079   0.516   1.017 -1.4426 -1.8635  1.5537
 5345TIP3    H216042   1.205   0.487   1.096  0.8121  1.6441 -0.5125
 5346TIP3   OH216043   6.271   4.829   4.900  0.6238  0.0617  0.3091
 5346TIP3    H116044   6.218   4.781   4.964 -0.1858  0.7049  0.1513
 5346TIP3    H216045   6.206   4.879   4.850  1.3159  0.1421 -0.5163
 5347TIP3   OH216046   1.928   1.765   1.580 -0.0527  0.5165 -0.2412
 5347TIP3    H116047   1.936   1.744   1.487  1.7738 -1.0896  0.2173
 5347TIP3    H216048   1.979   1.845   1.591  0.6407  0.1142 -0.4596
 5348TIP3   OH216049   0.655   2.141   4.786  0.0924 -0.1153 -0.7132
 5348TIP3    H116050   0.637   2.181   4.871  0.3763 -1.1279 -0.1582
 5348TIP3    H216051   0.591   2.070   4.779  0.7532 -0.7197 -0.8410
 5349TIP3   OH216052   4.014   0.776   4.610  0.3071  0.9120  0.5398
 5349TIP3    H116053   4.052   0.746   4.692 -2.3202 -1.1741  1.1284
 5349TIP3    H216054   4.037   0.709   4.546  0.5478  1.4259  0.0793
 5350TIP3   OH216055   4.591   2.977   0.940  0.1077 -0.2606  0.2624
 5350TIP3    H116056   4.601   2.892   0.896  0.1854 -0.4428  0.6345
 5350TIP3    H216057   4.605   3.041   0.870  0.7056 -0.5429  0.1211
 5351TIP3   OH216058   3.708   3.311   1.423 -0.0108 -0.1423  0.2190
 5351TIP3    H116059   3.714   3.352   1.337  0.3389  0.2525  0.4306
 5351TIP3    H216060   3.793   3.328   1.464 -0.2833 -0.0589  0.7597
 5352TIP3   OH216061   1.637   1.712   3.375 -0.0929  0.5586  0.1518
 5352TIP3    H116062   1.575   1.662   3.322  0.3368 -1.0596  1.1041
 5352TIP3    H216063   1.713   1.726   3.318 -0.5374  0.8243 -0.3788
 5353TIP3   OH216064   1.653   1.514   0.358  0.1373 -0.1934  0.1149
 5353TIP3    H116065   1.625   1.435   0.312  0.7721 -0.1942 -0.2777
 5353TIP3    H216066   1.683   1.573   0.289 -1.9083  1.0733  0.2265
 5354TIP3   OH216067   1.307   5.839   4.863  0.1592  0.0862  0.4598
 5354TIP3    H116068   1.313   5.911   4.926  0.1137  0.5162 -0.0206
 5354TIP3    H216069   1.270   5.879   4.785  1.7613 -0.0657 -0.4102
 5355TIP3   OH216070   0.501   1.994   3.181 -0.1446  0.0747 -0.1224
 5355TIP3    H116071   0.570   2.007   3.246  1.1396 -0.7463 -1.2527
 5355TIP3    H216072   0.476   2.082   3.153  0.6127  0.3805  0.1482
 5356TIP3   OH216073   0.938   5.807   1.183  0.0307  0.5807  0.4445
 5356TIP3    H116074   0.969   5.716   1.186 -1.8901 -0.1096  1.0674
 5356TIP3    H216075   0.958   5.837   1.095 -0.5751 -0.9447 -0.2348
 5357TIP3   OH216076   5.808   1.503   2.763  0.5211 -0.0108 -0.3639
 5357TIP3    H116077   5.721   1.542   2.752  0.0597  0.1278  2.8103
 5357TIP3    H216078   5.813   1.436   2.695 -2.5169 -0.7237 -0.0274
 5358TIP3   OH216079   2.397   2.234   4.090  0.1804 -0.7687  0.2188
 5358TIP3    H116080   2.413   2.284   4.170  1.9490 -0.9950  0.0446
 5358TIP3    H216081   2.458   2.271   4.026 -2.0212  0.2048 -1.4331
 5359TIP3   OH216082   5.525   4.108   1.179 -0.4590 -0.1729 -0.0276
 5359TIP3    H116083   5.584   4.045   1.219 -1.7210 -1.9209 -0.7784
 5359TIP3    H216084   5.509   4.173   1.248 -0.2378 -1.4615  1.2847
 5360TIP3   OH216085   5.218   4.876   1.100 -0.0550  0.4616 -0.2703
 5360TIP3    H116086   5.140   4.821   1.108  1.4620 -1.9665 -1.1314
 5360TIP3    H216087   5.264   4.865   1.183  1.5491 -1.8348 -1.3504
 5361TIP3   OH216088   3.607   5.816   2.598 -0.2333 -0.0719  0.1695
 5361TIP3    H116089   3.614   5.787   2.689 -1.3623  0.3584  0.4094
 5361TIP3    H216090   3.565   5.743   2.553 -0.3878  0.0198  0.1627
 5362TIP3   OH216091   0.498   5.549   2.874 -0.2359 -0.3833 -0.3920
 5362TIP3    H116092   0.593   5.564   2.882 -0.5688  4.8915 -2.4042
 5362TIP3    H216093   0.463   5.574   2.959  0.0062 -0.5099 -0.2524
 5363TIP3   OH216094   2.333   5.576   5.013  0.2493 -0.9075 -0.6607
 5363TIP3    H116095   2.265   5.608   4.954 -0.2644 -1.2679 -0.2645
 5363TIP3    H216096   2.389   5.521   4.957 -0.3380 -1.3949 -0.7811
 5364TIP3   OH216097   4.030   5.524   3.355 -0.6735  0.2082 -0.1115
 5364TIP3    H116098   4.112   5.545   3.400 -2.0566  1.2027  2.1319
 5364TIP3    H216099   4.017   5.597   3.294  0.2301 -0.1086 -0.7011
 5365TIP3   OH216100   5.332   2.417   3.740 -1.0030 -0.2685 -0.5117
 5365TIP3    H116101   5.236   2.422   3.732 -1.1105  0.3951  0.7506
 5365TIP3    H216102   5.348   2.334   3.785 -1.1343  0.3177  0.6727
 5366TIP3   OH216103   3.562   5.863   1.351 -0.1764  0.1411 -0.4335
 5366TIP3    H116104   3.515   5.814   1.418  2.9591 -3.3238 -0.4524
 5366TIP3    H216105   3.501   5.868   1.277 -1.9825 -0.1923  0.9828
 5367TIP3   OH216106   5.186   0.648   3.391 -0.2443  0.5666  0.0639
 5367TIP3    H116107   5.093   0.626   3.397 -0.0527 -0.1738  0.3460
 5367TIP3    H216108   5.207   0.636   3.298 -0.1972 -0.2399  0.1714
 5368TIP3   OH216109   6.198   0.551   0.547  0.0697  0.6178 -0.4096
 5368TIP3    H116110   6.132   0.556   0.478  1.1414 -0.2164 -1.5420
 5368TIP3    H216111   6.263   0.489   0.514 -0.7659 -2.1433  2.5554
 5369TIP3   OH216112   0.838   1.832   0.297 -0.2278  0.0174  0.3534
 5369TIP3    H116113   0.759   1.867   0.338  0.1339  2.3484 -0.7185
 5369TIP3    H216114   0.813   1.817   0.206  0.5551  0.9301 -0.0357
 5370TIP3   OH216115   0.709   3.187   4.081 -0.1752 -0.2067 -0.6090
 5370TIP3    H116116   0.744   3.181   4.170 -2.1911 -0.0324  0.2385
 5370TIP3    H216117   0.757   3.260   4.041  0.1971  0.2360  0.6065
 5371TIP3   OH216118   3.050   0.224   2.436 -0.1194  0.0822  0.2441
 5371TIP3    H116119   3.013   0.150   2.485 -0.6750 -0.3626 -0.8197
 5371TIP3    H216120   3.131   0.189   2.399 -1.1793 -0.5507 -1.6116
 5372TIP3   OH216121   0.281   2.126   3.352 -0.5167  0.0337 -0.2221
 5372TIP3    H116122   0.247   2.141   3.440 -2.3415  0.3693 -0.9427
 5372TIP3    H216123   0.376   2.131   3.362 -0.7188  1.2141  1.5243
 5373TIP3   OH216124   0.428   3.000   5.158 -0.2393  0.5394  0.6238
 5373TIP3    H116125   0.446   2.906   5.149 -0.6555  0.1689  2.9504
 5373TIP3    H216126   0.513   3.042   5.145 -0.0243 -0.1477 -0.3365
 5374TIP3   OH216127   0.244   2.727   0.385 -0.1084  0.0468  0.2034
 5374TIP3    H116128   0.210   2.807   0.344  0.2952 -0.2006 -0.6275
 5374TIP3    H216129   0.310   2.758   0.447  0.1115  0.3502 -0.1808
 5375TIP3   OH216130   2.511   3.344   3.128  0.2041  0.3283  0.3324
 5375TIP3    H116131   2.469   3.278   3.182 -0.4122 -0.2511 -0.8134
 5375TIP3    H216132   2.485   3.427   3.168  1.0671 -0.0943  1.8350
 5376TIP3   OH216133   5.953   4.812   3.254 -0.6643  0.2946 -0.5265
 5376TIP3    H116134   5.958   4.746   3.185 -0.4412  1.3483 -1.5505
 5376TIP3    H216135   5.890   4.776   3.317 -0.0720 -1.1659 -0.7318
 5377TIP3   OH216136   6.084   3.612   0.825 -0.2899 -0.1803  0.3218
 5377TIP3    H116137   5.996   3.627   0.859  0.5059  0.7156  2.1164
 5377TIP3    H216138   6.094   3.676   0.754 -0.2216  1.5581  1.8181
 5378TIP3   OH216139   2.883   4.364   0.792  0.7482 -0.5124 -0.0766
 5378TIP3    H116140   2.968   4.332   0.761  0.2553 -0.4268 -1.6266
 5378TIP3    H216141   2.872   4.324   0.878  1.2069 -2.6575 -0.9429
 5379TIP3   OH216142   4.794   5.386   0.507 -0.2649  0.3184  0.5857
 5379TIP3    H116143   4.801   5.400   0.602 -0.3203 -0.0587  0.6463
 5379TIP3    H216144   4.772   5.472   0.472  1.7097  0.9079  0.6931
 5380TIP3   OH216145   1.345   1.972   3.066 -0.6914 -0.1047 -0.3913
 5380TIP3    H116146   1.374   1.947   3.153  0.2826 -0.2807 -0.7562
 5380TIP3    H216147   1.414   2.029   3.032 -0.2543 -1.3118 -1.6459
 5381TIP3   OH216148   5.734   3.472   1.711  0.1725  0.0739 -0.6590
 5381TIP3    H116149   5.709   3.536   1.777 -1.8036 -0.5973 -0.6984
 5381TIP3    H216150   5.686   3.497   1.632 -0.2655 -1.1451 -0.8086
 5382TIP3   OH216151   6.110   2.488   3.982  0.1687  0.8758 -0.0920
 5382TIP3    H116152   6.059   2.558   4.024 -0.6963 -0.5990  1.4454
 5382TIP3    H216153   6.194   2.490   4.027  0.7652  1.9409 -1.1842
 5383TIP3   OH216154   4.713   2.092   4.074 -0.3212 -0.3128  0.1604
 5383TIP3    H116155   4.792   2.086   4.020 -0.5616  0.8212 -0.3735
 5383TIP3    H216156   4.745   2.089   4.164  0.7527  3.1268  0.0535
 5384TIP3   OH216157   1.428   3.199   0.428  0.1692  0.0744 -0.1206
 5384TIP3    H116158   1.498   3.137   0.449  0.9688  0.2235 -2.1816
 5384TIP3    H216159   1.449   3.230   0.340 -2.0193  0.8115 -0.4308
 5385TIP3   OH216160   0.027   4.537   0.905 -0.3417 -0.3745  0.4833
 5385TIP3    H116161  -0.066   4.518   0.900  0.2822 -4.0570  0.6178
 5385TIP3    H216162   0.059   4.527   0.815 -0.1917  2.2589  0.1555
 5386TIP3   OH216163   6.098   5.060   0.299 -0.2431 -0.8638 -0.0471
 5386TIP3    H116164   6.009   5.078   0.326  0.0578  2.1540 -0.7350
 5386TIP3    H216165   6.152   5.123   0.347  1.0472 -0.0482 -2.3728
 5387TIP3   OH216166   4.376   2.479   0.232  0.4500 -0.4472 -0.5071
 5387TIP3    H116167   4.317   2.413   0.268 -0.1157 -0.0297 -0.6394
 5387TIP3    H216168   4.460   2.434   0.222 -0.0725 -1.3305 -1.1643
 5388TIP3   OH216169   2.309   5.336   1.152 -0.4156  0.0117 -0.1382
 5388TIP3    H116170   2.340   5.248   1.133 -1.1605 -0.7447  1.8498
 5388TIP3    H216171   2.388   5.390   1.158 -0.0501  0.2733 -4.3808
 5389TIP3   OH216172   1.531   2.070   4.196 -0.2662  0.0920  0.6928
 5389TIP3    H116173   1.534   2.165   4.205  0.1369  0.2151 -0.5655
 5389TIP3    H216174   1.439   2.051   4.177 -0.0325  0.4402 -0.9177
 5390TIP3   OH216175   6.183   2.390   3.299 -0.5332  0.7475 -0.8290
 5390TIP3    H116176   6.087   2.396   3.298 -0.8484 -1.4823  2.0494
 5390TIP3    H216177   6.201   2.301   3.269  0.4054  0.2970  0.9568
 5391TIP3   OH216178   1.003   2.284   2.073  0.3065 -0.4167 -0.4324
 5391TIP3    H116179   1.092   2.284   2.039  0.4472  1.0410 -0.1247
 5391TIP3    H216180   1.008   2.336   2.154 -1.0139  0.6426 -0.9920
 5392TIP3   OH216181   0.701   3.487   2.859 -0.3636 -0.0115  0.4042
 5392TIP3    H116182   0.673   3.579   2.860 -2.0621 -0.4188 -1.7510
 5392TIP3    H216183   0.797   3.491   2.857 -0.3598  1.6404  1.7902
 5393TIP3   OH216184   6.308   0.096   0.145  0.4221  0.0062  0.4194
 5393TIP3    H116185   6.227   0.078   0.097  0.1566  0.9715  0.4896
 5393TIP3    H216186   6.362   0.018   0.131 -1.0505 -1.2920  1.5437
 5394TIP3   OH216187   3.582   1.137   3.568  0.1813 -0.0948  0.2350
 5394TIP3    H116188   3.630   1.211   3.605 -0.1508  0.3756 -0.2568
 5394TIP3    H216189   3.516   1.177   3.512 -0.0569 -0.7650  0.0251
 5395TIP3   OH216190   1.472   3.673   4.553 -0.1304  0.0827 -0.0062
 5395TIP3    H116191   1.537   3.734   4.588 -1.0659  0.1835  1.6571
 5395TIP3    H216192   1.521   3.593   4.536  0.2753 -0.2234  2.3121
 5396TIP3   OH216193   4.601   5.246   2.514 -0.5272  0.0748  0.4018
 5396TIP3    H116194   4.598   5.321   2.574  0.2346  1.0983 -0.8036
 5396TIP3    H216195   4.659   5.274   2.443 -0.7171 -1.4380 -0.3866
 5397TIP3   OH216196   3.639   0.488   5.108  0.1397  0.2842  0.2980
 5397TIP3    H116197   3.699   0.447   5.171 -0.1853  0.4248  0.6990
 5397TIP3    H216198   3.595   0.414   5.066 -0.0366  0.2032  0.6215
 5398TIP3   OH216199   1.309   5.795   1.796 -0.5624  0.1114  0.5443
 5398TIP3    H116200   1.297   5.825   1.706 -2.6053 -1.5710  0.1705
 5398TIP3    H216201   1.276   5.866   1.850 -1.2996  0.2998 -0.1402
 5399TIP3   OH216202   6.252   5.474   0.546  0.8695 -0.5212 -0.1545
 5399TIP3    H116203   6.319   5.539   0.566  1.5342 -1.2842  0.1725
 5399TIP3    H216204   6.259   5.410   0.618 -2.1057  0.7914  1.4985
 5400TIP3   OH216205   4.911   4.058   4.697  0.5368 -0.0080 -0.0298
 5400TIP3    H116206   4.968   4.129   4.668 -0.5763  0.8667 -0.1586
 5400TIP3    H216207   4.835   4.062   4.638  0.4263 -1.2719 -0.0009
 5401TIP3   OH216208   5.887   0.071   0.140 -0.3040 -0.0298  0.0652
 5401TIP3    H116209   5.829   0.094   0.213 -1.0516  1.1635 -0.8755
 5401TIP3    H216210   5.932   0.153   0.118  1.4841 -0.8373  0.5014
 5402TIP3   OH216211   0.789   3.604   4.727 -0.5727 -0.6364 -0.1129
 5402TIP3    H116212   0.755   3.583   4.814 -0.5056 -1.6128 -0.3205
 5402TIP3    H216213   0.712   3.605   4.671 -0.6615  0.3209  0.0032
 5403TIP3   OH216214   0.142   1.734   1.736  0.4813 -0.5883 -0.1332
 5403TIP3    H116215   0.089   1.711   1.659 -0.4461 -0.9649  0.6004
 5403TIP3    H216216   0.203   1.800   1.704 -2.7025  2.5818 -0.2872
 5404TIP3   OH216217   4.134   3.016   2.180  0.1839  0.1984 -0.0696
 5404TIP3    H116218   4.085   2.946   2.137  0.9139 -0.1872 -0.2880
 5404TIP3    H216219   4.211   3.029   2.124  0.6737  0.3264  0.6269
 5405TIP3   OH216220   1.482   5.919   1.195 -0.0399 -0.0083  0.6691
 5405TIP3    H116221   1.493   5.846   1.256  1.0824 -1.1900 -0.8633
 5405TIP3    H216222   1.472   5.878   1.109 -0.0762  1.6201 -0.1512
 5406TIP3   OH216223   0.601   3.749   2.813 -0.4161  0.1296  0.7487
 5406TIP3    H116224   0.665   3.820   2.817 -0.4543  0.0980  3.2602
 5406TIP3    H216225   0.517   3.793   2.801 -0.2786  0.4124  0.8055
 5407TIP3   OH216226   1.384   1.830   1.226 -0.4181 -0.0858  0.1628
 5407TIP3    H116227   1.426   1.874   1.153 -0.2849 -0.3943  0.0526
 5407TIP3    H216228   1.387   1.893   1.297 -2.4290  1.0501 -0.6726
 5408TIP3   OH216229   5.893   3.764   2.618  0.0856  0.1029 -0.0124
 5408TIP3    H116230   5.849   3.801   2.542  0.2836 -0.6451 -0.5130
 5408TIP3    H216231   5.901   3.836   2.680  0.3439  0.8484 -0.8992
 5409TIP3   OH216232   2.941   5.071   2.438  0.0094 -0.1229  0.3824
 5409TIP3    H116233   3.010   5.005   2.428 -0.6717 -0.9226  0.8766
 5409TIP3    H216234   2.891   5.066   2.357 -0.0915 -0.2699  0.4540
 5410TIP3   OH216235   2.656   0.266   0.768  0.3228 -0.2460 -0.4119
 5410TIP3    H116236   2.655   0.198   0.836 -0.7528 -0.3259 -0.4922
 5410TIP3    H216237   2.650   0.348   0.816  2.0059 -0.1571 -0.2916
 5411TIP3   OH216238   1.097   0.240   2.077  0.2519 -0.0583  0.4579
 5411TIP3    H116239   1.152   0.176   2.031 -1.2632 -2.0141  1.2319
 5411TIP3    H216240   1.008   0.223   2.044 -0.2789  1.2599  1.1379
 5412TIP3   OH216241   4.917   4.403   1.843 -0.2356 -0.1080  0.4097
 5412TIP3    H116242   5.002   4.415   1.801  0.2321  0.0135  1.3657
 5412TIP3    H216243   4.921   4.457   1.922 -1.3812  0.2659  0.2266
 5413TIP3   OH216244   0.224   1.346   4.896  0.0120  0.0848 -0.0684
 5413TIP3    H116245   0.314   1.378   4.889  0.1628 -0.1162  0.8653
 5413TIP3    H216246   0.227   1.281   4.967 -0.5189 -1.1563 -1.1385
 5414TIP3   OH216247   2.562   2.405   3.937 -0.1704 -0.1970  0.8286
 5414TIP3    H116248   2.601   2.471   3.881 -1.7852  0.9408  0.9755
 5414TIP3    H216249   2.609   2.324   3.917 -0.6653  0.1551 -2.1459
 5415TIP3   OH216250   5.009   0.319   1.079  0.4761 -0.1525 -0.3889
 5415TIP3    H116251   4.993   0.322   0.985 -1.4725 -1.5509 -0.1702
 5415TIP3    H216252   5.068   0.245   1.092  0.5709 -0.0954 -0.5003
 5416TIP3   OH216253   5.964   1.571   0.732 -0.7346 -0.0964  0.0203
 5416TIP3    H116254   5.897   1.593   0.797 -1.9053 -3.1110  0.0068
 5416TIP3    H216255   5.952   1.635   0.662 -1.3176  1.4788  1.4907
 5417TIP3   OH216256   1.447   5.605   0.711 -0.2491 -0.5663 -0.3947
 5417TIP3    H116257   1.364   5.612   0.759  0.5527 -0.2042  0.9760
 5417TIP3    H216258   1.496   5.536   0.755  0.0024 -1.1445 -1.5208
 5418TIP3   OH216259   3.857   0.666   2.980  0.1464 -0.1739  0.8541
 5418TIP3    H116260   3.943   0.631   3.004  0.2213 -0.7771 -0.2288
 5418TIP3    H216261   3.875   0.755   2.951  0.8454 -1.0798 -1.7916
 5419TIP3   OH216262   5.091   3.621   1.434  0.2505  0.3194 -0.5352
 5419TIP3    H116263   5.174   3.578   1.413  0.2632  0.2255 -0.2980
 5419TIP3    H216264   5.027   3.549   1.439  0.3144  0.2995  0.0769
 5420TIP3   OH216265   2.792   5.771   1.555 -0.2301  0.2615 -0.1992
 5420TIP3    H116266   2.885   5.784   1.575 -0.5820 -0.3117  2.0874
 5420TIP3    H216267   2.775   5.828   1.481  1.4755  2.0282  0.6785
 5421TIP3   OH216268   0.244   5.684   4.077  0.3755  0.0818  0.4922
 5421TIP3    H116269   0.336   5.709   4.069 -0.1056  1.6260 -0.9564
 5421TIP3    H216270   0.245   5.589   4.079  2.1139  0.0730  2.5437
 5422TIP3   OH216271   3.164   3.775   0.332 -0.3798 -0.2036 -0.4633
 5422TIP3    H116272   3.255   3.804   0.336  0.0427 -1.2902 -1.5934
 5422TIP3    H216273   3.160   3.698   0.389 -1.0122  0.7776  0.8875
 5423TIP3   OH216274   5.791   5.584   0.332  0.1001  0.0051  0.9852
 5423TIP3    H116275   5.886   5.578   0.322  0.3729  0.3136  2.9142
 5423TIP3    H216276   5.756   5.570   0.244  1.9278 -0.0217  0.2241
 5424TIP3   OH216277   5.786   2.074   3.629  0.7619  0.4699 -0.4014
 5424TIP3    H116278   5.799   1.986   3.662 -1.5144  0.5461  0.8914
 5424TIP3    H216279   5.714   2.067   3.567  1.0982  1.2976 -0.9115
 5425TIP3   OH216280   5.061   0.036   3.639  0.4147  0.1072 -0.1338
 5425TIP3    H116281   4.979  -0.014   3.648  0.0705  0.8279  1.0175
 5425TIP3    H216282   5.058   0.070   3.550 -0.1169 -0.5937 -0.4007
 5426TIP3   OH216283   1.961   5.034   5.082  0.3124  0.0395  0.1904
 5426TIP3    H116284   2.041   5.070   5.121  0.0551  0.3530  0.4321
 5426TIP3    H216285   1.890   5.071   5.134  0.0728 -1.6288  1.1575
 5427TIP3   OH216286   5.089   1.305   2.816  0.2343  0.0032 -0.1709
 5427TIP3    H116287   5.052   1.367   2.878  1.5680  1.3902 -0.6924
 5427TIP3    H216288   5.054   1.332   2.731  0.4953 -0.2062 -0.3485
 5428TIP3   OH216289   4.900   1.996   0.739  0.2879 -0.0408 -0.3232
 5428TIP3    H116290   4.984   1.993   0.692  0.6067  0.9637  0.1443
 5428TIP3    H216291   4.876   2.088   0.737  0.4136  0.0749  1.6489
 5429TIP3   OH216292   2.101   0.667   3.667 -0.6290  0.0997  0.0556
 5429TIP3    H116293   2.102   0.753   3.709  1.6812  0.8709 -1.3383
 5429TIP3    H216294   2.010   0.651   3.645 -1.2221  1.7840  1.1369
 5430TIP3   OH216295   5.056   0.360   0.089  0.0426  0.0157  0.5508
 5430TIP3    H116296   5.060   0.355   0.185 -0.3136 -0.9594  0.5305
 5430TIP3    H216297   5.027   0.449   0.070  4.2697  1.7976  1.2132
 5431TIP3   OH216298   1.194   1.005   4.565  0.0368  0.4891 -0.3269
 5431TIP3    H116299   1.135   0.949   4.616  1.1555  0.6380  1.1888
 5431TIP3    H216300   1.269   0.949   4.544  0.5831  1.0436  0.0989
 5432TIP3   OH216301   1.057   5.329   5.123  0.3631  0.0988 -0.4275
 5432TIP3    H116302   1.132   5.368   5.169  1.3429 -1.7584 -0.3473
 5432TIP3    H216303   1.078   5.341   5.030 -0.2234  1.3206 -0.4157
 5433TIP3   OH216304   0.052   2.783   4.995  0.1857 -0.7780 -0.0070
 5433TIP3    H116305   0.126   2.742   4.950  0.5676 -0.2696  0.1492
 5433TIP3    H216306   0.025   2.718   5.061 -1.2896 -2.1564 -1.8455
 5434TIP3   OH216307   4.532   2.766   2.254 -0.3249 -0.2948  0.0947
 5434TIP3    H116308   4.609   2.724   2.218 -0.8955 -2.6257  1.3577
 5434TIP3    H216309   4.556   2.788   2.344 -0.6684  0.3152  0.0455
 5435TIP3   OH216310   2.555   5.083   2.101  0.0470  0.0218 -0.0105
 5435TIP3    H116311   2.540   5.161   2.154 -1.3991 -0.4688  0.3488
 5435TIP3    H216312   2.532   5.010   2.159 -2.6730 -0.5071 -1.5935
 5436TIP3   OH216313   1.197   5.362   3.505 -0.1460 -0.2907  0.2680
 5436TIP3    H116314   1.283   5.339   3.540 -0.7809 -2.7420  0.4334
 5436TIP3    H216315   1.135   5.331   3.571 -1.1835  0.9029 -0.1150
 5437TIP3   OH216316   1.755   4.373   1.118 -0.4288 -0.5141 -0.3097
 5437TIP3    H116317   1.682   4.362   1.179 -1.1740  0.0694 -1.0829
 5437TIP3    H216318   1.749   4.464   1.089 -0.6981 -1.0346 -2.0124
 5438TIP3   OH216319   3.931   3.077   2.624 -0.0939  0.1146 -0.1290
 5438TIP3    H116320   3.843   3.114   2.623  0.6641  2.0143 -0.5484
 5438TIP3    H216321   3.964   3.094   2.712 -1.2442 -3.5721  1.2024
 5439TIP3   OH216322   3.617   3.017   1.404  0.3066  0.6154 -0.0692
 5439TIP3    H116323   3.627   3.035   1.498  1.5056 -1.2295  0.2183
 5439TIP3    H216324   3.645   3.098   1.361  0.0124  1.3906  1.1412
 5440TIP3   OH216325   0.011   2.747   2.822 -0.0120  0.0273 -0.4156
 5440TIP3    H116326   0.020   2.655   2.800  0.6279 -0.1144  0.3791
 5440TIP3    H216327   0.079   2.763   2.887  0.1023  1.1428 -0.7825
 5441TIP3   OH216328   5.145   4.487   4.479 -0.2952 -0.3748  0.6423
 5441TIP3    H116329   5.211   4.431   4.437  0.1123  1.0574 -0.7179
 5441TIP3    H216330   5.149   4.569   4.431 -0.3137  1.1471  3.0803
 5442TIP3   OH216331   5.920   5.383   4.028  0.1241  0.1109 -0.3894
 5442TIP3    H116332   5.899   5.465   4.072  0.0398 -0.2469  0.2423
 5442TIP3    H216333   5.839   5.359   3.982 -0.2692 -0.3030  0.5117
 5443TIP3   OH216334   0.871   2.574   4.111  0.0974 -0.2774  0.2605
 5443TIP3    H116335   0.902   2.534   4.030 -0.4294 -0.9033  0.3526
 5443TIP3    H216336   0.923   2.533   4.180  1.8412  1.5688  0.1505
 5444TIP3   OH216337   0.765   5.007   5.025 -0.4144  0.1417  0.0265
 5444TIP3    H116338   0.840   5.061   5.001  0.0215 -0.6889 -0.5333
 5444TIP3    H216339   0.711   5.004   4.946 -0.1814 -0.6359 -0.1178
 5445TIP3   OH216340   0.992   1.518   4.489  0.1806  0.3285  0.4725
 5445TIP3    H116341   1.012   1.589   4.429 -1.6368  1.0765  0.6884
 5445TIP3    H216342   1.042   1.539   4.568  1.2745  0.2247 -0.1713
 5446TIP3   OH216343   3.477   4.768   4.363 -0.3072  0.1944  0.1306
 5446TIP3    H116344   3.386   4.790   4.344 -0.5054 -2.2072 -2.1550
 5446TIP3    H216345   3.474   4.723   4.448 -1.3090 -0.3193 -0.1701
 5447TIP3   OH216346   3.857   0.343   4.752 -0.9287  0.3456 -0.2016
 5447TIP3    H116347   3.847   0.260   4.798 -0.3294  0.3387 -0.0819
 5447TIP3    H216348   3.772   0.387   4.764 -1.3159 -0.3294 -0.4366
 5448TIP3   OH216349   0.024   5.780   0.933 -0.4163  0.4633 -0.4572
 5448TIP3    H116350   0.119   5.792   0.940 -0.7367  2.4785  1.8318
 5448TIP3    H216351   0.004   5.707   0.992 -0.3211  0.0740 -0.8988
 5449TIP3   OH216352   3.203   5.473   4.972 -0.1150 -0.1857 -0.3004
 5449TIP3    H116353   3.122   5.521   4.990 -0.4073 -0.5221 -0.7008
 5449TIP3    H216354   3.222   5.492   4.880 -1.1789 -2.1759 -1.0068
 5450TIP3   OH216355   0.458   4.122   0.374 -0.2007  0.3154 -0.5542
 5450TIP3    H116356   0.422   4.073   0.448 -0.9168  1.8915  0.1875
 5450TIP3    H216357   0.383   4.143   0.319  0.3074 -0.7187 -1.6865
 5451TIP3   OH216358   2.811   3.223   1.664  0.2272 -0.3319  0.3179
 5451TIP3    H116359   2.715   3.215   1.664  0.2624 -0.7758 -0.1234
 5451TIP3    H216360   2.829   3.296   1.605  0.1389  0.0626  0.7739
 5452TIP3   OH216361   0.256   5.588   4.908 -0.0345  0.4096 -0.0829
 5452TIP3    H116362   0.240   5.496   4.889  0.4691  0.2697  0.1678
 5452TIP3    H216363   0.199   5.608   4.982  0.2275  0.1670  0.1847
 5453TIP3   OH216364   4.754   4.977   2.748 -0.2425 -0.0702 -0.5735
 5453TIP3    H116365   4.849   4.967   2.742 -0.1802  0.6331 -0.8053
 5453TIP3    H216366   4.719   4.891   2.723  0.3463 -0.5532  0.2300
 5454TIP3   OH216367   0.838   0.398   2.062  0.4508 -0.1614 -0.0459
 5454TIP3    H116368   0.769   0.464   2.058  0.3052 -0.2724  0.5778
 5454TIP3    H216369   0.852   0.384   2.155  2.1032  0.6864 -0.1200
 5455TIP3   OH216370   0.219   4.709   0.706 -0.1963 -0.4374  0.0745
 5455TIP3    H116371   0.138   4.722   0.755 -0.4017  0.7987 -0.5597
 5455TIP3    H216372   0.192   4.704   0.615  0.5014  0.7621 -0.2181
 5456TIP3   OH216373   2.583   4.886   4.149 -0.4622  0.3281 -0.4480
 5456TIP3    H116374   2.667   4.887   4.104 -2.0331  1.7512 -3.7716
 5456TIP3    H216375   2.547   4.974   4.136 -2.7123 -0.4002  0.2777
 5457TIP3   OH216376   5.529   4.755   1.922  0.0445  0.0785  0.2397
 5457TIP3    H116377   5.618   4.791   1.924  0.2664 -0.4752  1.2040
 5457TIP3    H216378   5.521   4.708   2.005 -0.8221 -0.6662 -0.2490
 5458TIP3   OH216379   3.982   5.845   0.668 -0.3182  0.2360 -0.4462
 5458TIP3    H116380   4.001   5.822   0.759 -0.2478 -1.0016 -0.7576
 5458TIP3    H216381   3.998   5.765   0.619 -2.9105  0.0703 -1.2012
 5459TIP3   OH216382   2.663   3.998   1.006  0.2936  0.3179  0.6087
 5459TIP3    H116383   2.750   3.961   0.994 -0.5426 -1.4353 -0.4538
 5459TIP3    H216384   2.662   4.076   0.952  0.7141 -0.5444 -0.6894
 5460TIP3   OH216385   0.919   1.942   3.700 -0.4209  0.2658  0.4327
 5460TIP3    H116386   1.005   1.974   3.674  0.5357 -0.1858  2.8025
 5460TIP3    H216387   0.888   2.006   3.763 -1.1611 -0.3697  0.7228
 5461TIP3   OH216388   0.433   2.763   3.230  0.3855 -0.2154  0.2636
 5461TIP3    H116389   0.465   2.810   3.307  1.9584 -0.9178  0.0657
 5461TIP3    H216390   0.478   2.804   3.157  0.4783 -0.9249 -0.0795
 5462TIP3   OH216391   4.866   1.738   0.566  0.0044  0.5598 -1.0950
 5462TIP3    H116392   4.893   1.799   0.497  1.3030  2.4341  0.9407
 5462TIP3    H216393   4.803   1.788   0.619  0.5492 -0.1056  0.2270
 5463TIP3   OH216394   0.283   4.490   1.366  0.6181  0.7403 -0.3620
 5463TIP3    H116395   0.261   4.455   1.280  0.3086  0.0376 -0.0031
 5463TIP3    H216396   0.348   4.558   1.348  0.2725  0.8655 -1.1800
 5464TIP3   OH216397   5.040   5.222   0.937  0.4792  0.0598  0.0446
 5464TIP3    H116398   4.985   5.215   0.859  1.6515  3.2082 -1.2537
 5464TIP3    H216399   5.000   5.293   0.988  0.6578 -0.8652  1.5334
 5465TIP3   OH216400   5.358   2.746   2.879 -0.1169  0.2607  0.7033
 5465TIP3    H116401   5.305   2.787   2.948  0.6639 -1.2969  2.2964
 5465TIP3    H216402   5.304   2.673   2.848  0.2308 -0.0521  0.8386
 5466TIP3   OH216403   5.832   3.143   3.963 -0.1379  0.1726  0.4831
 5466TIP3    H116404   5.791   3.205   4.023  0.8094  0.4584  0.8546
 5466TIP3    H216405   5.912   3.187   3.934  0.7407 -1.0223  1.0289
 5467TIP3   OH216406   0.110   0.694   3.043  0.0341 -0.0622 -0.2239
 5467TIP3    H116407   0.020   0.726   3.048 -0.4104 -1.2852 -0.1187
 5467TIP3    H216408   0.120   0.665   2.953 -0.3422 -1.7287  0.2307
 5468TIP3   OH216409   1.671   0.221   1.970  0.3425 -0.4129  0.1577
 5468TIP3    H116410   1.738   0.225   1.902  0.0523 -1.0209 -0.1766
 5468TIP3    H216411   1.645   0.312   1.983 -0.7961 -0.3954 -1.7800
 5469TIP3   OH216412   5.846   3.580   4.809 -0.1951 -0.1601  1.0769
 5469TIP3    H116413   5.887   3.586   4.722 -0.5075  1.7924  1.0198
 5469TIP3    H216414   5.911   3.535   4.862 -0.0220 -1.4658 -0.1671
 5470TIP3   OH216415   2.710   3.302   4.676  0.5008  0.2392  0.6088
 5470TIP3    H116416   2.763   3.224   4.692 -1.8157 -1.4691  0.4546
 5470TIP3    H216417   2.622   3.279   4.705 -1.3759  1.0810 -3.5263
 5471TIP3   OH216418   2.582   1.253   5.201  0.0652  0.0903 -0.3303
 5471TIP3    H116419   2.667   1.296   5.192 -0.6731  1.4615 -1.1137
 5471TIP3    H216420   2.558   1.229   5.111 -1.2126  1.4403 -0.3827
 5472TIP3   OH216421   4.274   5.562   3.445  0.3552 -0.0331 -0.1053
 5472TIP3    H116422   4.333   5.637   3.439 -0.7954  0.8802 -0.2594
 5472TIP3    H216423   4.332   5.486   3.438  1.4171  0.8359 -1.2284
 5473TIP3   OH216424   6.259   3.485   3.823  0.1320  0.1863 -0.4652
 5473TIP3    H116425   6.191   3.535   3.778 -0.3822 -1.1049 -1.1710
 5473TIP3    H216426   6.329   3.548   3.839 -0.7092  1.2425 -0.8534
 5474TIP3   OH216427   4.414   5.603   5.177  0.4093  0.1116  0.4105
 5474TIP3    H116428   4.376   5.526   5.221  0.2232 -0.0561 -0.0414
 5474TIP3    H216429   4.477   5.567   5.115  0.1504  0.3066  0.0271
 5475TIP3   OH216430   2.568   4.207   1.298  0.0388  0.3354 -0.4397
 5475TIP3    H116431   2.477   4.190   1.275  0.1510 -0.5373 -0.2982
 5475TIP3    H216432   2.589   4.140   1.364  0.9626  0.1141 -0.9369
 5476TIP3   OH216433   0.349   3.381   4.422  0.2164  0.0344 -0.1817
 5476TIP3    H116434   0.301   3.372   4.505 -1.7352 -3.1025 -1.4666
 5476TIP3    H216435   0.440   3.362   4.446 -0.2536 -0.5553  1.2932
 5477TIP3   OH216436   3.877   3.181   5.073  0.0451  0.4743 -0.1921
 5477TIP3    H116437   3.897   3.257   5.018  0.4035  1.5064  1.3124
 5477TIP3    H216438   3.785   3.190   5.095 -0.1453 -0.0390 -0.7471
 5478TIP3   OH216439   1.344   1.816   4.373 -0.3664  0.3506  0.2959
 5478TIP3    H116440   1.254   1.783   4.364 -0.3002  0.5229 -1.3666
 5478TIP3    H216441   1.385   1.796   4.289  0.4613  2.3446  0.1788
 5479TIP3   OH216442   2.225   4.211   0.716 -0.6168  0.0093 -0.0962
 5479TIP3    H116443   2.220   4.146   0.785 -0.4618 -0.0327 -0.1231
 5479TIP3    H216444   2.191   4.167   0.638 -0.0237 -0.2119 -0.2350
 5480TIP3   OH216445   1.411   4.139   2.443  0.0734 -0.1236  0.2175
 5480TIP3    H116446   1.386   4.072   2.508 -0.5233  0.9824  1.1582
 5480TIP3    H216447   1.455   4.207   2.494  1.2053 -0.0439 -0.8225
 5481TIP3   OH216448   0.523   0.357   4.142  0.2486 -0.6189 -0.1162
 5481TIP3    H116449   0.455   0.356   4.076 -0.0496  3.0306 -0.0541
 5481TIP3    H216450   0.605   0.342   4.094  0.0856  2.3922 -1.5200
 5482TIP3   OH216451   0.857   5.813   0.408  0.6097 -0.5116 -0.1407
 5482TIP3    H116452   0.880   5.728   0.371  1.0603 -0.0769 -0.8969
 5482TIP3    H216453   0.806   5.793   0.486 -2.1869 -1.4842 -2.0781
 5483TIP3   OH216454   2.812   4.654   2.160  0.0110  0.2501 -0.0374
 5483TIP3    H116455   2.882   4.643   2.224  0.1956  1.5831  0.0152
 5483TIP3    H216456   2.845   4.719   2.098 -0.7067  0.0004 -0.7120
 5484TIP3   OH216457   3.406   4.945   4.836 -0.4858  0.2112  0.2596
 5484TIP3    H116458   3.416   4.851   4.848  1.8445 -0.0808 -2.8767
 5484TIP3    H216459   3.452   4.984   4.912  0.4015 -1.2101  0.4864
 5485TIP3   OH216460   2.683   4.988   0.041  0.4892  0.8617  0.9516
 5485TIP3    H116461   2.665   4.950   0.127 -1.6136 -0.5021 -0.0115
 5485TIP3    H216462   2.599   5.024   0.013  1.4190  2.3408 -0.0744
 5486TIP3   OH216463   4.821   3.298   0.627 -0.2543 -0.0762  0.3406
 5486TIP3    H116464   4.904   3.275   0.584 -0.3417 -1.4291  0.8278
 5486TIP3    H216465   4.846   3.316   0.717 -0.6729 -2.4827  1.0161
 5487TIP3   OH216466   0.413   0.750   2.574 -0.2943  0.1675  0.1333
 5487TIP3    H116467   0.406   0.746   2.669  0.5443 -0.3808  0.1770
 5487TIP3    H216468   0.503   0.724   2.554 -0.4298  0.3535 -0.8037
 5488TIP3   OH216469   3.835   3.382   4.868 -0.3798  0.5466  0.0407
 5488TIP3    H116470   3.773   3.378   4.795 -0.0443  0.4148 -0.2422
 5488TIP3    H216471   3.919   3.403   4.827 -0.7272  3.6194  0.6888
 5489TIP3   OH216472   3.142   5.191   1.938 -0.3028 -0.1739 -0.3588
 5489TIP3    H116473   3.173   5.126   1.876 -1.3265  0.0616 -1.1342
 5489TIP3    H216474   3.055   5.161   1.963 -0.0280 -0.1036  0.7391
 5490TIP3   OH216475   4.346   5.175   3.820 -0.6316  0.5161 -0.2908
 5490TIP3    H116476   4.315   5.136   3.902  0.2620  1.3257  0.4583
 5490TIP3    H216477   4.295   5.255   3.810 -1.1373  0.1275 -0.8263
 5491TIP3   OH216478   1.833   2.628   2.998 -0.0761  0.2298  0.3916
 5491TIP3    H116479   1.756   2.669   2.957  0.1989 -0.6790 -1.0987
 5491TIP3    H216480   1.907   2.680   2.965  0.1921 -0.8356 -0.7445
 5492TIP3   OH216481   5.164   3.474   3.782 -0.1715  0.0965 -0.8710
 5492TIP3    H116482   5.145   3.414   3.710  0.2696 -0.3733 -0.6005
 5492TIP3    H216483   5.259   3.480   3.784 -0.0268 -1.6797  1.0884
 5493TIP3   OH216484   5.712   5.929   1.263  0.1478  0.2216  0.3699
 5493TIP3    H116485   5.618   5.947   1.269  0.5640  2.3554  1.3647
 5493TIP3    H216486   5.743   5.985   1.192  0.8993  0.7026  1.0530
 5494TIP3   OH216487   2.250   5.504   2.943 -0.0782 -0.2098  0.0958
 5494TIP3    H116488   2.178   5.502   3.006  0.7453 -1.5276  1.0489
 5494TIP3    H216489   2.211   5.480   2.859 -0.8666 -0.2148  0.4649
 5495TIP3   OH216490   0.770   3.650   2.053 -0.5362  0.3341 -0.3130
 5495TIP3    H116491   0.723   3.634   1.971  0.0057 -0.2405 -0.5226
 5495TIP3    H216492   0.779   3.745   2.058 -1.2967  0.4277 -0.4998
 5496TIP3   OH216493   0.694   4.177   0.960  0.1208 -0.0217  0.1690
 5496TIP3    H116494   0.767   4.213   0.910 -0.5694  0.2420 -0.6776
 5496TIP3    H216495   0.684   4.087   0.928  0.7119 -0.3958  1.0113
 5497TIP3   OH216496   0.680   4.114   0.204  0.0900 -0.0831 -0.2531
 5497TIP3    H116497   0.641   4.090   0.120  0.7813  1.7153 -1.1310
 5497TIP3    H216498   0.605   4.127   0.263 -0.3783 -2.8785 -0.0516
 5498TIP3   OH216499   1.229   4.638   1.454 -0.1429  0.3638  0.3411
 5498TIP3    H116500   1.218   4.590   1.536 -3.5060 -0.5423 -0.4784
 5498TIP3    H216501   1.191   4.725   1.472 -0.3373  0.3672 -0.0613
 5499TIP3   OH216502   0.698   3.889   3.906  0.0996  0.1445 -0.4757
 5499TIP3    H116503   0.787   3.855   3.919 -0.4508 -1.2954 -0.2253
 5499TIP3    H216504   0.643   3.830   3.957 -0.8711  1.9298  0.6531
 5500TIP3   OH216505   5.917   5.385   4.360  0.0403 -0.0711  0.1156
 5500TIP3    H116506   5.861   5.307   4.359  0.2385 -0.2588  1.3521
 5500TIP3    H216507   5.975   5.375   4.285  0.3782 -1.3685  0.5238
 5501TIP3   OH216508   0.589   1.804   4.530 -0.1625 -0.2977 -0.0813
 5501TIP3    H116509   0.495   1.800   4.510 -0.8635 -0.9142  2.8984
 5501TIP3    H216510   0.630   1.753   4.460 -2.3234 -2.2853 -0.0241
 5502TIP3   OH216511   5.494   5.049   3.040 -0.2346  0.0010  0.0293
 5502TIP3    H116512   5.517   5.108   3.112  0.1067 -0.4183  0.2605
 5502TIP3    H216513   5.398   5.053   3.036 -0.3752 -1.1152  1.4888
 5503TIP3   OH216514   0.949   1.136   5.184 -0.2260  0.1861 -0.4627
 5503TIP3    H116515   0.873   1.142   5.126 -1.2556 -0.5641  0.7545
 5503TIP3    H216516   0.967   1.043   5.192  0.2938  0.3139 -0.0507
 5504TIP3   OH216517   0.773   0.067   3.174  0.1098  0.1436 -0.1252
 5504TIP3    H116518   0.684   0.087   3.203  0.4651 -0.5143  1.5040
 5504TIP3    H216519   0.829   0.095   3.247  1.2513  0.5172 -1.1034
 5505TIP3   OH216520   5.218   3.912   3.868  0.3141  0.2392 -0.1667
 5505TIP3    H116521   5.168   3.967   3.929  0.1298  0.6560 -0.6926
 5505TIP3    H216522   5.154   3.848   3.836  0.1887  0.5765 -0.5993
 5506TIP3   OH216523   0.397   4.184   4.585  0.1148 -0.3384  0.2909
 5506TIP3    H116524   0.401   4.237   4.505  3.3348 -0.6365  0.1185
 5506TIP3    H216525   0.407   4.248   4.656 -2.1095 -0.1509  0.5275
 5507TIP3   OH216526   1.670   0.672   1.410  0.1646 -0.2800  0.2008
 5507TIP3    H116527   1.728   0.667   1.334  0.0553 -0.1405  0.1088
 5507TIP3    H216528   1.628   0.758   1.403 -1.2777 -1.0216 -0.6170
 5508TIP3   OH216529   0.083   3.029   4.692 -0.6386 -0.1360 -0.3193
 5508TIP3    H116530   0.132   3.056   4.614  0.8926 -1.2144  0.2226
 5508TIP3    H216531   0.025   2.960   4.661 -0.7494  0.1102 -0.6745
 5509TIP3   OH216532   2.608   3.703   2.619 -0.0966  0.7322  0.0144
 5509TIP3    H116533   2.534   3.673   2.671  0.2292 -0.3069 -0.0887
 5509TIP3    H216534   2.575   3.708   2.529  0.1216 -0.4200 -0.1481
 5510TIP3   OH216535   1.188   5.387   4.325  0.1563 -0.0500 -0.0824
 5510TIP3    H116536   1.146   5.313   4.281 -0.8211  0.1142  0.5483
 5510TIP3    H216537   1.218   5.351   4.409 -0.0611  0.1913  0.1009
 5511TIP3   OH216538   1.422   5.568   0.165 -0.0886 -0.4704 -0.5374
 5511TIP3    H116539   1.350   5.548   0.224 -0.4777  0.6553 -0.6066
 5511TIP3    H216540   1.489   5.504   0.187 -0.3254 -0.2476  0.9326
 5512TIP3   OH216541   2.850   2.877   3.899 -0.2670  0.3321  0.1316
 5512TIP3    H116542   2.884   2.958   3.861 -0.8290  0.3458 -0.3480
 5512TIP3    H216543   2.782   2.906   3.960 -0.3248  0.2364  0.1133
 5513TIP3   OH216544   4.827   5.417   5.194  0.0813 -0.1064 -0.2972
 5513TIP3    H116545   4.765   5.456   5.132 -0.9586 -0.8287  0.2452
 5513TIP3    H216546   4.895   5.483   5.205 -1.5772  1.5512  0.5391
 5514TIP3   OH216547   0.540   5.049   3.660  0.3668 -0.4313  0.1930
 5514TIP3    H116548   0.509   5.040   3.751  0.1234  3.5414  0.6578
 5514TIP3    H216549   0.606   5.118   3.664  1.1384 -0.8949 -2.5629
 5515TIP3   OH216550   0.032   3.071   2.453 -0.2838  0.3571  0.2077
 5515TIP3    H116551   0.086   3.048   2.529 -0.6027 -0.8007  0.1030
 5515TIP3    H216552  -0.052   3.028   2.468  0.3451 -1.8057 -1.8058
 5516TIP3   OH216553   4.024   1.437   1.353  0.7426 -0.4013  0.3678
 5516TIP3    H116554   3.946   1.493   1.344 -0.2052 -1.6796  0.3169
 5516TIP3    H216555   4.092   1.495   1.387  0.0875  1.0120 -0.6643
 5517TIP3   OH216556   0.883   1.094   2.939  0.3735 -0.3489  0.4407
 5517TIP3    H116557   0.927   1.079   3.022 -1.4005  2.9476  2.1823
 5517TIP3    H216558   0.892   1.188   2.924 -0.8850 -0.5674 -2.2297
 5518TIP3   OH216559   3.342   0.546   0.208  0.4230 -0.0319  0.1610
 5518TIP3    H116560   3.422   0.591   0.236  0.1390 -0.7550  2.3513
 5518TIP3    H216561   3.271   0.605   0.232  0.2323  0.5089 -1.5787
 5519TIP3   OH216562   5.127   4.245   4.615  0.2847 -0.4462  0.1978
 5519TIP3    H116563   5.134   4.323   4.560 -1.0318 -0.9230 -0.6966
 5519TIP3    H216564   5.156   4.274   4.701 -0.7831  1.2308  0.0520
 5520TIP3   OH216565   4.725   1.122   2.849 -0.1221 -0.3205  0.1447
 5520TIP3    H116566   4.753   1.198   2.900 -0.8375 -0.4268  0.7204
 5520TIP3    H216567   4.764   1.047   2.894  2.6998 -0.2086 -1.8434
 5521TIP3   OH216568   1.116   0.001   5.017 -0.2957 -0.6967  0.0064
 5521TIP3    H116569   1.074   0.003   4.932 -0.1600 -1.5941 -0.0849
 5521TIP3    H216570   1.055   0.047   5.075  0.7908  2.3971 -1.0636
 5522TIP3   OH216571   5.034   2.502   2.062  0.6472 -0.6820 -0.1750
 5522TIP3    H116572   5.043   2.421   2.113 -0.6261 -0.9374 -0.3248
 5522TIP3    H216573   5.027   2.571   2.128  1.0337 -0.7680 -0.0405
 5523TIP3   OH216574   4.405   1.355   4.159 -0.2036 -0.3038 -0.0030
 5523TIP3    H116575   4.414   1.400   4.075 -0.8899 -2.0067 -1.0613
 5523TIP3    H216576   4.311   1.340   4.168 -0.6091  2.9129  2.8542
 5524TIP3   OH216577   5.647   4.089   3.158  0.4636  0.6482  0.2405
 5524TIP3    H116578   5.592   4.080   3.236 -0.5917  0.1814 -0.5464
 5524TIP3    H216579   5.667   4.182   3.154  0.2703  0.7262  0.8888
 5525TIP3   OH216580   3.150   0.920   1.452  0.7268  0.0309 -0.7327
 5525TIP3    H116581   3.073   0.904   1.399 -0.1465  0.8946  0.2303
 5525TIP3    H216582   3.206   0.975   1.396  1.2610 -1.6218 -1.9090
 5526TIP3   OH216583   0.269   2.231   4.173  0.1268  0.2381 -0.0259
 5526TIP3    H116584   0.235   2.171   4.107  0.4764  0.0952 -0.0827
 5526TIP3    H216585   0.291   2.310   4.125 -0.7714  0.5863  0.1266
 5527TIP3   OH216586   2.990   5.679   3.661 -0.4856 -0.0069  0.0219
 5527TIP3    H116587   2.896   5.664   3.671 -0.2609 -1.3788  0.2898
 5527TIP3    H216588   2.997   5.735   3.583 -1.5631  0.8732  0.5286
 5528TIP3   OH216589   3.995   0.920   5.010 -0.2978  0.1439 -0.1192
 5528TIP3    H116590   4.078   0.911   4.964 -0.1179  1.4371 -0.0686
 5528TIP3    H216591   3.964   0.830   5.021  1.5459 -0.4355  0.6844
 5529TIP3   OH216592   0.730   3.153   4.877  0.0650 -0.1950 -0.3292
 5529TIP3    H116593   0.762   3.076   4.829  0.2757 -1.1882  1.2903
 5529TIP3    H216594   0.786   3.225   4.847  0.1201 -0.7419 -1.6070
 5530TIP3   OH216595   4.841   3.000   4.149  0.6863 -0.8566 -0.1647
 5530TIP3    H116596   4.873   3.016   4.060 -0.0797 -1.5174 -0.5652
 5530TIP3    H216597   4.848   3.086   4.192  1.2423 -0.5763 -0.7946
 5531TIP3   OH216598  -0.001   3.221   3.767 -0.1704 -0.3487 -0.4646
 5531TIP3    H116599  -0.047   3.305   3.774 -1.1957 -1.0018  1.0507
 5531TIP3    H216600   0.091   3.244   3.781 -0.5352  0.4430  0.8044
 5532TIP3   OH216601   4.713   4.719   5.041 -0.0690 -0.4288  0.1012
 5532TIP3    H116602   4.634   4.669   5.022  0.2626 -0.9622  0.0909
 5532TIP3    H216603   4.784   4.655   5.034  0.4329  0.1869 -0.5456
 5533TIP3   OH216604   6.314   5.015   1.498 -0.1748 -0.4782  0.2683
 5533TIP3    H116605   6.311   4.929   1.541 -1.4380 -0.4177  0.3192
 5533TIP3    H216606   6.253   5.008   1.425 -0.9678  0.6543  0.8032
 5534TIP3   OH216607   3.310   1.139   1.684 -0.2045 -0.0783  0.6948
 5534TIP3    H116608   3.218   1.141   1.658 -0.0080  0.0334 -0.0150
 5534TIP3    H216609   3.330   1.046   1.694 -0.0096 -0.2002 -0.6083
 5535TIP3   OH216610   5.847   4.665   2.906 -0.4697 -0.1410 -0.1607
 5535TIP3    H116611   5.837   4.754   2.938 -1.9281 -0.3875  0.1627
 5535TIP3    H216612   5.855   4.611   2.985 -0.2573 -0.3628 -0.3301
 5536TIP3   OH216613   0.942   1.120   4.789  0.8811 -0.0500 -0.4089
 5536TIP3    H116614   0.890   1.069   4.727 -1.0136  1.7986 -0.4379
 5536TIP3    H216615   0.901   1.206   4.791  1.6044  0.3428  2.5111
 5537TIP3   OH216616   2.271   4.326   1.617 -0.7591  0.3728  0.4464
 5537TIP3    H116617   2.335   4.393   1.592  0.6086 -0.9520  0.2428
 5537TIP3    H216618   2.200   4.337   1.554 -0.1158  1.0065 -0.1911
 5538TIP3   OH216619   4.909   5.206   4.670 -0.4480  0.2704 -0.5277
 5538TIP3    H116620   4.892   5.156   4.750 -0.9888 -0.3988 -1.0481
 5538TIP3    H216621   4.971   5.274   4.697 -0.9586  0.3286  0.5516
 5539TIP3   OH216622   4.524   3.355   4.316 -0.2666 -0.1425  0.1534
 5539TIP3    H116623   4.594   3.418   4.334 -0.7527 -0.0271  1.7743
 5539TIP3    H216624   4.448   3.409   4.296 -0.2146 -0.2552 -0.3663
 5540TIP3   OH216625   1.780   4.188   3.908  0.3467 -0.1621 -0.1966
 5540TIP3    H116626   1.832   4.198   3.829 -0.5675  1.3105 -0.6562
 5540TIP3    H216627   1.744   4.099   3.902  0.2467 -0.0574 -1.4813
 5541TIP3   OH216628   2.826   5.179   3.398  0.5903 -0.0643 -0.3743
 5541TIP3    H116629   2.743   5.169   3.352 -0.2044 -0.4990  1.0739
 5541TIP3    H216630   2.806   5.154   3.489  1.8517  1.5926  0.4197
 5542TIP3   OH216631   5.908   5.910   2.375 -0.2907 -0.1001 -0.0170
 5542TIP3    H116632   5.994   5.894   2.337 -0.5991 -0.8053 -0.4528
 5542TIP3    H216633   5.914   5.997   2.414  1.1860 -0.8779  1.5737
 5543TIP3   OH216634   5.007   1.223   5.039  0.0474 -0.3978 -0.3806
 5543TIP3    H116635   5.048   1.299   4.997  2.1878 -0.0886  1.9464
 5543TIP3    H216636   4.926   1.257   5.077  0.5042  0.5012 -0.1873
 5544TIP3   OH216637   5.935   1.395   0.351 -0.3267 -0.0325 -0.0113
 5544TIP3    H116638   5.902   1.328   0.291  1.6240 -0.3304 -0.8558
 5544TIP3    H216639   6.029   1.376   0.359 -0.2427  0.9116  1.9838
 5545TIP3   OH216640   1.614   3.990   1.724 -0.0822 -0.5420  0.1303
 5545TIP3    H116641   1.603   4.020   1.815  1.1392  1.6456 -0.3831
 5545TIP3    H216642   1.706   3.965   1.718 -0.1142 -0.5076 -0.5493
 5546TIP3   OH216643   4.000   1.538   4.022 -0.3278 -0.6782  0.2925
 5546TIP3    H116644   3.914   1.579   4.007 -0.5994 -1.0447  0.8295
 5546TIP3    H216645   3.995   1.455   3.973  0.6269  0.3951 -1.7282
 5547TIP3   OH216646   3.491   4.119   3.179 -0.1561 -0.5941  0.4224
 5547TIP3    H116647   3.421   4.176   3.147  0.2782 -0.6708 -0.7088
 5547TIP3    H216648   3.569   4.175   3.179  0.3442 -1.2314 -1.0177
 5548TIP3   OH216649   4.620   5.387   0.115  0.2019 -0.2127  0.2514
 5548TIP3    H116650   4.703   5.423   0.083 -0.5364 -0.0034 -1.5671
 5548TIP3    H216651   4.636   5.293   0.123  0.7477 -0.1153  0.3443
 5549TIP3   OH216652   0.800   5.227   1.236 -0.2410 -0.0071 -0.0155
 5549TIP3    H116653   0.807   5.133   1.221  1.0716  0.2287 -1.1116
 5549TIP3    H216654   0.849   5.242   1.317 -0.5472 -0.2669  0.2226
 5550TIP3   OH216655   1.334   1.350   0.800 -0.1256  0.6171  0.1143
 5550TIP3    H116656   1.402   1.378   0.739  0.8850 -2.1922 -0.2075
 5550TIP3    H216657   1.371   1.366   0.887  1.2414 -1.2583 -0.0517
 5551TIP3   OH216658   3.968   5.864   2.156  0.2288 -0.5772  0.1137
 5551TIP3    H116659   4.024   5.886   2.231 -1.3837 -0.1482  1.2523
 5551TIP3    H216660   3.906   5.800   2.191 -0.7101 -0.1718 -0.7826
 5552TIP3   OH216661   3.294   1.952   2.090  0.3849 -0.1564  0.3140
 5552TIP3    H116662   3.313   1.943   1.997  2.4508 -1.7461  0.8056
 5552TIP3    H216663   3.332   1.873   2.130 -0.6472  0.3702  2.4707
 5553TIP3   OH216664   3.147   2.640   4.837  0.1758 -0.2674  0.3797
 5553TIP3    H116665   3.109   2.727   4.821  0.0432 -0.5555 -1.0035
 5553TIP3    H216666   3.218   2.634   4.774 -0.1230 -1.3513  0.1332
 5554TIP3   OH216667   6.047   2.157   1.164  0.4909 -0.1446 -0.1605
 5554TIP3    H116668   6.050   2.220   1.236 -0.3420 -0.2341 -0.0450
 5554TIP3    H216669   6.125   2.177   1.111  0.8321  0.2455  0.4848
 5555TIP3   OH216670   2.850   4.282   2.327 -0.6113  0.2682 -0.5326
 5555TIP3    H116671   2.795   4.219   2.375  0.7277 -0.4757  0.0757
 5555TIP3    H216672   2.839   4.364   2.375 -0.7756 -0.0005 -0.1040
 5556TIP3   OH216673   1.580   1.140   4.697  0.4085 -1.0355  0.1465
 5556TIP3    H116674   1.647   1.072   4.705 -0.6062 -2.1310 -0.3237
 5556TIP3    H216675   1.530   1.115   4.620  0.6349  0.8460 -0.6462
 5557TIP3   OH216676   4.818   3.295   2.971 -0.0418  0.4046 -0.3777
 5557TIP3    H116677   4.851   3.258   3.053 -0.1346  1.1367  0.0043
 5557TIP3    H216678   4.888   3.279   2.907  0.8653  1.5177  0.3088
 5558TIP3   OH216679   3.734   0.436   3.147 -0.4324  0.6958  0.0537
 5558TIP3    H116680   3.744   0.344   3.123 -0.2940  0.4051  1.1643
 5558TIP3    H216681   3.765   0.485   3.070  0.2886 -0.1882 -0.2331
 5559TIP3   OH216682   4.492   4.995   2.557  0.4055 -0.1742  0.2729
 5559TIP3    H116683   4.543   5.075   2.555 -1.2138  0.9488  1.4385
 5559TIP3    H216684   4.553   4.927   2.528  2.2985  1.2059  0.8105
 5560TIP3   OH216685   3.049   5.826   1.541  0.6495  0.0773  0.4660
 5560TIP3    H116686   3.057   5.806   1.634  3.1161 -0.5357  0.2026
 5560TIP3    H216687   3.054   5.922   1.537 -0.0979  0.1457  0.9873
 5561TIP3   OH216688   2.520   0.258   5.100 -0.5743 -0.3239  0.4612
 5561TIP3    H116689   2.599   0.204   5.100 -0.6383 -0.4200  0.3779
 5561TIP3    H216690   2.520   0.301   5.185  1.3054  2.2829 -0.7445
 5562TIP3   OH216691   6.075   2.676   1.139 -0.0049  0.5641  0.4751
 5562TIP3    H116692   6.012   2.609   1.110 -1.2175  1.0217  1.9095
 5562TIP3    H216693   6.138   2.681   1.067 -0.9037 -0.8024 -0.4899
 5563TIP3   OH216694   0.343   4.818   4.349 -0.0701  0.7411  0.0422
 5563TIP3    H116695   0.249   4.816   4.366  0.0218 -1.2651  0.5211
 5563TIP3    H216696   0.351   4.860   4.263 -1.3248  1.6687  0.3513
 5564TIP3   OH216697   1.551   4.853   3.224 -0.5055  0.4958 -0.3983
 5564TIP3    H116698   1.484   4.784   3.227 -0.1796  0.2038  1.6048
 5564TIP3    H216699   1.515   4.924   3.277 -0.5636  1.6573 -1.9304
 5565TIP3   OH216700   3.599   4.886   2.435  0.4210 -0.0396  0.0796
 5565TIP3    H116701   3.613   4.799   2.398 -0.0386 -0.0269 -0.1252
 5565TIP3    H216702   3.677   4.902   2.489 -0.7001 -1.7678  2.4213
 5566TIP3   OH216703   0.690   1.604   4.360 -0.4442 -0.2945 -0.1289
 5566TIP3    H116704   0.762   1.567   4.309  0.9717  1.7211  0.2792
 5566TIP3    H216705   0.621   1.623   4.295 -0.4396 -1.7762 -0.5956
 5567TIP3   OH216706   3.811   1.642   1.331  0.2015 -0.1993  0.4465
 5567TIP3    H116707   3.734   1.650   1.275  1.0174 -1.7513 -1.0148
 5567TIP3    H216708   3.841   1.732   1.345  0.2923  0.2637 -2.1712
 5568TIP3   OH216709   1.954   5.440   3.707 -0.4176  0.6069 -0.2068
 5568TIP3    H116710   1.889   5.451   3.775  0.6179  2.3237  0.5636
 5568TIP3    H216711   2.038   5.447   3.752  0.3023  0.4012 -1.4612
 5569TIP3   OH216712   1.702   3.512   0.284  0.4950  0.3758 -0.1753
 5569TIP3    H116713   1.713   3.503   0.379  2.1418  0.2901 -0.3433
 5569TIP3    H216714   1.710   3.607   0.268 -0.2264  0.4414 -0.2000
 5570TIP3   OH216715   2.553   5.471   4.794  0.1494 -0.3633  0.4676
 5570TIP3    H116716   2.587   5.382   4.804  0.8077 -0.0329  1.2881
 5570TIP3    H216717   2.556   5.488   4.700  1.5481 -0.6367  0.4444
 5571TIP3   OH216718   5.827   1.091   0.930 -0.5603  0.6543  1.1318
 5571TIP3    H116719   5.899   1.150   0.905  0.0271 -0.6832 -0.5071
 5571TIP3    H216720   5.841   1.074   1.023  1.4551  0.1679  0.7802
 5572TIP3   OH216721   4.953   3.370   1.462  0.4889 -0.2112  0.1079
 5572TIP3    H116722   4.905   3.365   1.545  2.6319 -0.0975  1.4143
 5572TIP3    H216723   4.974   3.279   1.440  0.0704 -0.2277 -0.2448
 5573TIP3   OH216724   4.480   5.545   4.419 -0.0605 -0.4223  0.0761
 5573TIP3    H116725   4.436   5.621   4.456  1.6938  1.1291 -0.8358
 5573TIP3    H216726   4.409   5.484   4.398 -1.4661  0.6446  1.4434
 5574TIP3   OH216727   5.959   3.386   2.543  0.2281 -0.3557 -0.1027
 5574TIP3    H116728   5.893   3.424   2.600  1.3805  1.3430  0.1666
 5574TIP3    H216729   6.036   3.377   2.598  0.5574 -1.3013 -0.6876
 5575TIP3   OH216730   5.146   0.986   2.900 -0.4165 -0.2007  0.4693
 5575TIP3    H116731   5.106   0.911   2.856 -1.6371  0.3507  0.6139
 5575TIP3    H216732   5.130   1.060   2.841  1.2821 -0.1218  0.0480
 5576TIP3   OH216733   2.004   0.468   1.566 -0.3397 -0.1154 -0.2451
 5576TIP3    H116734   2.040   0.545   1.609  3.9963 -1.6250 -0.7384
 5576TIP3    H216735   2.013   0.398   1.631 -0.2495 -1.0313 -1.2169
 5577TIP3   OH216736   0.609   2.198   1.687 -0.1711 -0.1447  0.4642
 5577TIP3    H116737   0.595   2.277   1.739 -1.3922 -1.0049  1.5219
 5577TIP3    H216738   0.690   2.160   1.721  0.9400  1.1102 -0.6976
 5578TIP3   OH216739   2.039   0.552   2.218 -0.5430  0.2580  0.4288
 5578TIP3    H116740   2.069   0.602   2.293  0.2325 -0.7507  0.8163
 5578TIP3    H216741   1.945   0.539   2.233 -0.7034  1.3599  0.4406
 5579TIP3   OH216742   4.500   5.846   3.237  0.4209  0.2586  0.2763
 5579TIP3    H116743   4.593   5.867   3.244  0.2668  1.3312 -0.5687
 5579TIP3    H216744   4.490   5.808   3.149 -0.1197  1.3364 -0.1561
 5580TIP3   OH216745   5.868   2.709   1.633  0.0865 -0.4213  0.3325
 5580TIP3    H116746   5.913   2.793   1.620 -0.4112 -0.0779  0.7655
 5580TIP3    H216747   5.890   2.657   1.556  0.9112 -0.1205  0.3551
 5581TIP3   OH216748   5.558   4.343   4.729 -0.5451  0.3122 -0.4821
 5581TIP3    H116749   5.513   4.400   4.665 -1.9970  1.0065  1.0669
 5581TIP3    H216750   5.489   4.285   4.761  0.2097 -0.1894  0.2614
 5582TIP3   OH216751   3.892   4.716   0.150 -0.3403  0.2563  0.1808
 5582TIP3    H116752   3.819   4.757   0.197  0.0550 -0.1929  1.2226
 5582TIP3    H216753   3.926   4.651   0.212 -1.0104 -1.7354 -1.4334
 5583TIP3   OH216754   0.443   5.977   0.425  0.0922 -0.1052  0.0219
 5583TIP3    H116755   0.419   5.885   0.425  3.0892 -1.0144  1.3142
 5583TIP3    H216756   0.367   6.022   0.387 -1.1645 -3.1403 -1.3943
 5584TIP3   OH216757   2.124   2.915   1.615 -0.2443  0.1743  0.3039
 5584TIP3    H116758   2.217   2.891   1.619 -0.3457 -0.1236  1.0526
 5584TIP3    H216759   2.080   2.838   1.580 -0.1859  0.4054 -0.2944
 5585TIP3   OH216760   5.915   5.631   0.770 -0.3675  0.2890 -0.2445
 5585TIP3    H116761   5.908   5.625   0.865 -2.2799  0.7009 -0.3157
 5585TIP3    H216762   5.941   5.722   0.753 -0.9289  0.4704 -0.1396
 5586TIP3   OH216763   3.853   1.208   0.990 -0.2724 -0.0035 -0.6778
 5586TIP3    H116764   3.899   1.288   1.014 -2.3367  0.6418  1.6250
 5586TIP3    H216765   3.853   1.208   0.894  0.9286  2.0407 -0.7429
 5587TIP3   OH216766   4.634   0.877   0.522 -0.6131  0.6437  0.2085
 5587TIP3    H116767   4.639   0.890   0.427  2.8834 -2.4398 -0.2157
 5587TIP3    H216768   4.694   0.942   0.559  0.7831 -0.4680 -0.0560
 5588TIP3   OH216769   6.279   1.548   0.228 -0.1159  0.4287 -0.7300
 5588TIP3    H116770   6.295   1.454   0.215 -2.6947 -0.4823  1.5911
 5588TIP3    H216771   6.206   1.568   0.169 -2.6569 -0.3189  1.9193
 5589TIP3   OH216772   4.883   0.748   5.165 -0.4164  0.3077 -0.1739
 5589TIP3    H116773   4.864   0.839   5.186 -0.1435  0.2649  0.2886
 5589TIP3    H216774   4.979   0.744   5.162 -0.4367  0.1194 -0.5776
 5590TIP3   OH216775   5.370   0.453   4.104  0.7460 -0.2196 -0.1726
 5590TIP3    H116776   5.381   0.548   4.116 -0.5875  0.3185 -2.5462
 5590TIP3    H216777   5.449   0.426   4.058  1.7671 -0.5915  1.6937
 5591TIP3   OH216778   3.950   3.088   1.721  0.3664 -0.5240 -0.5422
 5591TIP3    H116779   3.990   3.004   1.741  0.6765 -0.6064 -1.4565
 5591TIP3    H216780   4.007   3.153   1.763  0.7774 -0.7074 -0.8155
 5592TIP3   OH216781   2.400   3.050   2.369  0.0052 -0.1431  0.3115
 5592TIP3    H116782   2.389   3.123   2.308  0.2514  0.0492  0.4996
 5592TIP3    H216783   2.417   3.091   2.453  1.3662 -0.4191  0.1914
 5593TIP3   OH216784   5.912   3.017   0.148 -0.3959 -0.2878 -0.8843
 5593TIP3    H116785   5.847   2.949   0.131 -1.1447  0.0141  0.5524
 5593TIP3    H216786   5.983   2.972   0.194 -0.9455 -0.1025  0.1734
 5594TIP3   OH216787   2.020   2.992   4.535  0.4244 -0.3484  0.3153
 5594TIP3    H116788   1.961   3.056   4.495 -0.9696 -1.7892 -0.0502
 5594TIP3    H216789   1.981   2.973   4.621  1.9372  0.7548  1.2872
 5595TIP3   OH216790   4.771   1.617   4.908  0.1868  0.2453 -0.2314
 5595TIP3    H116791   4.765   1.527   4.942 -2.8369 -0.4238 -2.0686
 5595TIP3    H216792   4.761   1.672   4.986  1.2551 -0.9954  0.8419
 5596TIP3   OH216793   3.703   3.406   1.159 -0.4790  0.4357  0.1282
 5596TIP3    H116794   3.721   3.489   1.114 -1.5369  0.4228 -0.3459
 5596TIP3    H216795   3.740   3.339   1.102 -1.3448  0.4578 -0.4817
 5597TIP3   OH216796   2.585   4.484   0.048  0.2556  0.0896 -0.4597
 5597TIP3    H116797   2.566   4.465   0.140  2.1635 -1.1127 -0.2532
 5597TIP3    H216798   2.606   4.577   0.047  1.4685 -0.1402  0.5961
 5598TIP3   OH216799   3.656   2.278   1.820  0.6361  0.2711  0.2545
 5598TIP3    H116800   3.626   2.365   1.794 -0.3012 -0.3007 -0.6733
 5598TIP3    H216801   3.744   2.271   1.783  0.7317  0.8386  0.3728
 5599TIP3   OH216802   1.415   2.689   2.577 -0.7284  0.0287  0.2414
 5599TIP3    H116803   1.464   2.756   2.530 -1.0091 -0.0528 -0.1752
 5599TIP3    H216804   1.480   2.622   2.598 -0.3774  0.5873  0.9647
 5600TIP3   OH216805   3.688   4.368   0.991 -0.0279 -0.8738 -0.2032
 5600TIP3    H116806   3.711   4.450   1.035 -2.0143 -0.9610  1.1100
 5600TIP3    H216807   3.709   4.299   1.055  0.7829 -1.3370 -0.9489
 5601TIP3   OH216808   2.863   4.141   4.581 -0.5989  0.7657  0.5579
 5601TIP3    H116809   2.848   4.122   4.488  1.9140  1.9626 -0.1930
 5601TIP3    H216810   2.791   4.200   4.605 -1.1236  0.6692 -0.6963
 5602TIP3   OH216811   2.694   2.921   3.115 -0.2801 -0.0809  0.0375
 5602TIP3    H116812   2.774   2.899   3.067 -0.7165 -0.0616 -0.7161
 5602TIP3    H216813   2.684   2.851   3.179  0.9144  0.4768  0.8678
 5603TIP3   OH216814   4.614   3.475   0.663  0.1530 -0.0614  0.3278
 5603TIP3    H116815   4.634   3.431   0.746  0.1236  0.7051  0.7586
 5603TIP3    H216816   4.692   3.466   0.610  0.5956  0.4054  0.8814
 5604TIP3   OH216817   2.681   4.711   4.984  0.1904 -0.2901 -0.1630
 5604TIP3    H116818   2.660   4.756   4.902  0.8472  0.8563  0.2794
 5604TIP3    H216819   2.596   4.679   5.016 -0.4624  1.4640 -0.0311
 5605TIP3   OH216820   0.978   4.578   0.210 -0.1534  0.1652 -0.2817
 5605TIP3    H116821   1.071   4.554   0.212 -0.1463  0.0733 -1.2024
 5605TIP3    H216822   0.955   4.574   0.117 -0.2244  3.4234 -0.5141
 5606TIP3   OH216823   3.016   4.094   4.327  0.2297 -0.1369  0.5308
 5606TIP3    H116824   2.963   4.016   4.312  0.9609 -0.8217  1.4011
 5606TIP3    H216825   3.073   4.070   4.399  0.3427  1.2763  0.9321
 5607TIP3   OH216826   2.289   1.302   3.555 -0.1277  0.0470  0.0619
 5607TIP3    H116827   2.293   1.207   3.568  0.1465  0.2795  1.9938
 5607TIP3    H216828   2.375   1.325   3.520 -0.4020 -0.4821 -0.9684
 5608TIP3   OH216829   3.510   0.700   3.927 -0.3479 -0.8000  0.0497
 5608TIP3    H116830   3.452   0.735   3.995  0.9801 -0.5607  1.1219
 5608TIP3    H216831   3.505   0.763   3.856 -0.2757  0.0134  0.7458
 5609TIP3   OH216832   3.601   5.665   3.811 -0.0136  0.6025  0.4897
 5609TIP3    H116833   3.529   5.726   3.827  0.0252  1.0780 -1.0509
 5609TIP3    H216834   3.620   5.629   3.898 -1.0094  1.6803  1.1971
 5610TIP3   OH216835   3.210   2.599   2.583  1.2063 -0.3253 -0.2271
 5610TIP3    H116836   3.163   2.680   2.562  2.5356  1.3856  2.7806
 5610TIP3    H216837   3.293   2.606   2.537  1.0525 -0.3251 -0.5087
 5611TIP3   OH216838   4.906   0.287   1.960  0.1352  0.0721 -0.7181
 5611TIP3    H116839   4.877   0.283   1.869  1.0694  0.0835 -1.0289
 5611TIP3    H216840   4.832   0.326   2.007 -1.1697 -1.8489 -1.0951
 5612TIP3   OH216841   1.334   5.641   3.738  0.2017 -0.2181  0.7473
 5612TIP3    H116842   1.371   5.656   3.651  3.7846 -0.0458  2.1299
 5612TIP3    H216843   1.296   5.726   3.762  0.7021  0.2221  0.0209
 5613TIP3   OH216844   5.275   2.231   3.510 -0.0080  0.1655  0.4666
 5613TIP3    H116845   5.334   2.224   3.585  1.0622 -1.4531 -0.4516
 5613TIP3    H216846   5.241   2.142   3.498 -1.3078  0.7050 -0.0952
 5614TIP3   OH216847   4.682   5.395   1.523 -0.0408  0.6071  0.3713
 5614TIP3    H116848   4.747   5.343   1.476 -0.7599 -0.5968  0.6765
 5614TIP3    H216849   4.733   5.464   1.565  0.7971  0.7986 -0.9090
 5615TIP3   OH216850   4.693   4.777   2.489 -0.3571 -0.1210  0.4215
 5615TIP3    H116851   4.733   4.698   2.453  1.3326  0.1228  1.6307
 5615TIP3    H216852   4.748   4.849   2.457 -0.5085  0.3418  1.1696
 5616TIP3   OH216853   3.041   1.813   1.029 -0.4150 -0.2780  0.4402
 5616TIP3    H116854   3.050   1.886   1.090  2.4685 -0.8818  0.8904
 5616TIP3    H216855   3.117   1.757   1.047 -1.2978 -2.2240 -1.4231
 5617TIP3   OH216856   3.609   3.073   0.226 -0.5321  0.2796 -0.8494
 5617TIP3    H116857   3.564   3.149   0.263  0.5649  0.1341  0.8776
 5617TIP3    H216858   3.702   3.094   0.233 -0.2370  0.4392 -4.0739
 5618TIP3   OH216859   3.476   0.184   4.720 -0.3585  0.6268 -0.4315
 5618TIP3    H116860   3.503   0.221   4.637  0.7728 -1.4329 -1.0519
 5618TIP3    H216861   3.424   0.107   4.697 -2.3381  1.5186  0.7954
 5619TIP3   OH216862   1.391   1.694   0.848 -0.8531  0.1834 -0.0145
 5619TIP3    H116863   1.435   1.621   0.891  0.0004  0.3104 -0.6582
 5619TIP3    H216864   1.445   1.713   0.772 -1.1018  1.4380  0.1027
 5620TIP3   OH216865   6.342   5.432   3.063 -0.0607 -0.0366 -0.1264
 5620TIP3    H116866   6.278   5.503   3.064 -0.1558 -0.1101 -0.8082
 5620TIP3    H216867   6.327   5.385   3.145  1.6841  2.2015  1.6318
 5621TIP3   OH216868   0.988   0.196   3.672 -0.1594 -0.0033 -0.5534
 5621TIP3    H116869   0.921   0.223   3.734  1.6147 -0.7571  1.8621
 5621TIP3    H216870   0.993   0.101   3.682  0.6303 -0.0637 -1.3546
 5622TIP3   OH216871   0.837   2.847   4.997  1.1602  0.5617  0.0672
 5622TIP3    H116872   0.793   2.869   4.915 -0.3993 -1.2899  0.3646
 5622TIP3    H216873   0.872   2.759   4.983  1.3871  0.4547  1.1903
 5623TIP3   OH216874   0.882   5.705   1.723  0.0107 -0.0224  0.2453
 5623TIP3    H116875   0.863   5.685   1.632 -0.0947 -2.2835  0.7047
 5623TIP3    H216876   0.972   5.739   1.723 -0.2852  0.7903 -0.7630
 5624TIP3   OH216877   4.520   4.570   3.411 -0.0629  1.0578 -0.0428
 5624TIP3    H116878   4.551   4.541   3.497 -0.7829 -0.3029 -0.2097
 5624TIP3    H216879   4.427   4.586   3.423 -0.3931 -0.1511 -0.7809
 5625TIP3   OH216880   5.635   1.188   1.808 -0.1273 -0.5519  0.4342
 5625TIP3    H116881   5.679   1.106   1.829  0.2771 -0.3711  0.3188
 5625TIP3    H216882   5.563   1.163   1.750  0.5809 -0.7303 -0.3929
 5626TIP3   OH216883   4.302   5.510   1.310  0.2205 -0.1052  0.1040
 5626TIP3    H116884   4.330   5.489   1.399  1.0253 -0.4771 -0.2333
 5626TIP3    H216885   4.207   5.524   1.318  0.0387 -1.5306  0.7723
 5627TIP3   OH216886   2.521   0.368   2.120 -0.5115  0.3310  0.1506
 5627TIP3    H116887   2.533   0.459   2.093  0.5394  0.0282 -0.4317
 5627TIP3    H216888   2.492   0.323   2.041  0.7273 -0.1836 -0.0278
 5628TIP3   OH216889   4.291   3.210   0.805 -0.7555  0.0087 -0.1333
 5628TIP3    H116890   4.317   3.136   0.749 -0.7328  0.5258 -0.8264
 5628TIP3    H216891   4.313   3.288   0.753 -1.2279  0.4970  0.3828
 5629TIP3   OH216892   2.661   0.472   3.289 -0.2096 -0.4272 -0.1682
 5629TIP3    H116893   2.588   0.484   3.350  0.0650 -0.8625  0.2502
 5629TIP3    H216894   2.715   0.404   3.329  1.1187  0.7655  0.1668
 5630TIP3   OH216895   3.066   3.488   5.015  0.0410 -0.0055 -0.0015
 5630TIP3    H116896   3.101   3.409   5.055 -1.6631 -1.0124 -0.3906
 5630TIP3    H216897   2.982   3.503   5.060 -0.4558  0.5957 -1.0675
 5631TIP3   OH216898   2.515   1.861   4.197  0.3758  0.3348  0.6051
 5631TIP3    H116899   2.488   1.942   4.240  0.8808  0.1428  1.3019
 5631TIP3    H216900   2.439   1.803   4.206 -0.0215  0.7554  0.0191
 5632TIP3   OH216901   3.862   3.942   1.254  0.4424 -0.1629  0.1753
 5632TIP3    H116902   3.801   3.904   1.317  0.8511 -0.4837  0.3817
 5632TIP3    H216903   3.920   3.870   1.229 -0.9336 -0.5740 -2.0929
 5633TIP3   OH216904   6.313   2.082   4.423 -0.6162 -0.9826  0.4814
 5633TIP3    H116905   6.331   1.989   4.408 -0.8729 -0.9074 -0.3892
 5633TIP3    H216906   6.322   2.122   4.336  0.2392 -0.0607  0.9735
 5634TIP3   OH216907   6.215   4.887   0.629 -0.1608 -0.7803 -0.0646
 5634TIP3    H116908   6.275   4.905   0.556 -0.5276 -1.5148 -0.5544
 5634TIP3    H216909   6.271   4.894   0.707 -0.0116  1.2034 -0.2773
 5635TIP3   OH216910   1.631   0.253   0.875 -0.6046 -0.0240  0.0895
 5635TIP3    H116911   1.688   0.239   0.800 -0.1229 -0.7127  0.5706
 5635TIP3    H216912   1.543   0.241   0.841 -0.3529 -1.0503 -0.2115
 5636TIP3   OH216913   4.012   4.348   2.319 -0.0131 -0.1532 -0.0766
 5636TIP3    H116914   4.051   4.381   2.400 -2.2815 -0.3168  1.1817
 5636TIP3    H216915   4.058   4.266   2.302  0.5052 -0.1159  1.0706
 5637TIP3   OH216916   6.259   3.337   4.788 -0.4327  0.6259 -0.4901
 5637TIP3    H116917   6.301   3.265   4.835  0.3916  1.5914  0.3140
 5637TIP3    H216918   6.260   3.310   4.696  0.9477  0.1175 -0.3498
 5638TIP3   OH216919   1.693   1.759   0.841  0.3258  0.2111  0.3176
 5638TIP3    H116920   1.751   1.711   0.900  1.3551  0.7817 -0.2041
 5638TIP3    H216921   1.745   1.773   0.762  0.2476  2.5570  0.5982
 5639TIP3   OH216922   1.216   2.330   1.164 -0.0108 -0.0097  0.2105
 5639TIP3    H116923   1.135   2.288   1.134  1.1907 -2.3032  0.0015
 5639TIP3    H216924   1.186   2.413   1.202 -2.1452  0.5626 -2.4106
 5640TIP3   OH216925   1.529   4.699   3.902 -0.5002 -0.6816 -0.0970
 5640TIP3    H116926   1.477   4.778   3.914 -0.8071 -0.8265 -0.4469
 5640TIP3    H216927   1.615   4.731   3.874 -0.9092 -0.4936 -1.2071
 5641TIP3   OH216928   0.618   5.385   1.615  0.2158  0.5896  0.0208
 5641TIP3    H116929   0.591   5.465   1.569  1.0668 -0.3360 -2.2328
 5641TIP3    H216930   0.710   5.374   1.591  0.3135 -0.6750  0.8899
 5642TIP3   OH216931   0.427   3.817   1.170 -0.4582  0.2855  0.1632
 5642TIP3    H116932   0.467   3.903   1.185  0.2308  0.0308 -0.1687
 5642TIP3    H216933   0.390   3.793   1.255  0.2580  0.4500  0.5350
 5643TIP3   OH216934   4.169   1.183   0.716  0.0459  0.6192  0.4406
 5643TIP3    H116935   4.233   1.144   0.657 -0.3505  1.3494 -0.4883
 5643TIP3    H216936   4.174   1.130   0.795  0.0678 -0.8198 -0.4993
 5644TIP3   OH216937   4.721   3.812   4.454  0.0566 -0.2153 -0.0224
 5644TIP3    H116938   4.797   3.862   4.425 -0.3934  0.4374 -0.1045
 5644TIP3    H216939   4.649   3.843   4.398 -0.2267 -0.9723 -0.0876
 5645TIP3   OH216940   0.267   0.977   0.543  0.5121  0.5557  0.1153
 5645TIP3    H116941   0.339   0.935   0.497  1.9567  2.4709  0.4795
 5645TIP3    H216942   0.193   0.917   0.533  1.2717 -0.0013 -3.0095
 5646TIP3   OH216943   0.308   1.533   3.609 -0.4897 -0.1313  0.0214
 5646TIP3    H116944   0.287   1.625   3.593 -0.2362 -0.3844 -1.9929
 5646TIP3    H216945   0.393   1.536   3.653 -1.2302  0.6186  1.4812
 5647TIP3   OH216946   2.570   5.418   4.467 -0.0339 -0.1665 -0.1854
 5647TIP3    H116947   2.563   5.501   4.421 -0.0526  0.0936  0.2799
 5647TIP3    H216948   2.657   5.384   4.443  0.4910  0.5832  0.5970
 5648TIP3   OH216949   4.048   0.306   1.213  0.0771 -0.1570 -0.5549
 5648TIP3    H116950   4.117   0.309   1.280 -0.5926 -0.5746  0.1619
 5648TIP3    H216951   4.019   0.397   1.206 -0.5148 -0.2600  0.4320
 5649TIP3   OH216952   4.357   4.935   3.684  0.1180  0.4921  0.3866
 5649TIP3    H116953   4.384   4.886   3.762 -0.1813  1.3215  1.0161
 5649TIP3    H216954   4.352   5.026   3.712 -1.0189  0.6715 -0.3306
 5650TIP3   OH216955   1.387   0.071   3.015  0.1393 -0.0847 -0.3105
 5650TIP3    H116956   1.347   0.083   2.929  0.4086 -0.5821 -0.5087
 5650TIP3    H216957   1.460   0.012   3.000  1.4896  1.4563 -0.1163
 5651TIP3   OH216958   4.416   0.935   0.946 -0.5154  0.3388 -0.1204
 5651TIP3    H116959   4.332   0.970   0.974 -0.9887 -0.4242 -0.5604
 5651TIP3    H216960   4.462   1.010   0.907 -0.9208  0.7887  0.2576
 5652TIP3   OH216961   1.935   5.098   3.117 -0.3923  0.1926  0.8130
 5652TIP3    H116962   1.880   5.024   3.144  0.2980 -0.7602 -0.3266
 5652TIP3    H216963   1.876   5.174   3.120 -1.7928 -0.7933 -0.3254
 5653TIP3   OH216964   2.268   5.508   4.559 -0.0059  0.2315  0.5753
 5653TIP3    H116965   2.330   5.453   4.511 -0.0614 -1.1006  1.9170
 5653TIP3    H216966   2.216   5.446   4.611 -0.3865  1.5164  1.8170
 5654TIP3   OH216967   3.193   4.605   0.482 -0.2432  0.3624 -0.0962
 5654TIP3    H116968   3.206   4.511   0.469 -1.8099  0.2016 -0.7858
 5654TIP3    H216969   3.166   4.614   0.573 -1.8520 -0.1138 -0.4909
 5655TIP3   OH216970   0.295   3.365   0.359  0.6516 -0.0959  0.2074
 5655TIP3    H116971   0.201   3.387   0.357  0.0568 -2.4075 -1.1226
 5655TIP3    H216972   0.307   3.320   0.442  0.4309 -0.3001  0.1323
 5656TIP3   OH216973   2.423   2.233   4.772 -0.2335 -0.5441 -0.0779
 5656TIP3    H116974   2.448   2.186   4.852 -0.8100 -0.3462  0.2267
 5656TIP3    H216975   2.329   2.248   4.782  0.1232  1.6979  0.3976
 5657TIP3   OH216976   4.531   5.183   4.583  0.0570  0.5214  0.3878
 5657TIP3    H116977   4.580   5.144   4.512 -0.8269 -0.3357  0.2333
 5657TIP3    H216978   4.480   5.111   4.621 -0.3559  1.1871  1.1483
 5658TIP3   OH216979   1.299   3.891   4.569  0.2417 -0.4617  0.2507
 5658TIP3    H116980   1.358   3.815   4.570  1.7783  0.6760 -0.2671
 5658TIP3    H216981   1.357   3.966   4.581 -1.3051  0.6219  1.1901
 5659TIP3   OH216982   2.237   0.417   1.254  0.1021  0.0109  0.1783
 5659TIP3    H116983   2.206   0.337   1.296  1.3204  0.2287  1.5707
 5659TIP3    H216984   2.282   0.387   1.175 -0.3849 -0.5773  0.1150
 5660TIP3   OH216985   2.882   0.797   2.577  0.1889 -0.1840  0.0844
 5660TIP3    H116986   2.846   0.748   2.502  0.9147  0.2363 -0.5576
 5660TIP3    H216987   2.959   0.841   2.541  0.4588  0.1469  1.0553
 5661TIP3   OH216988   1.020   4.571   3.339 -0.0366 -0.0501  0.4452
 5661TIP3    H116989   1.111   4.550   3.363 -0.2513 -0.1624  1.1928
 5661TIP3    H216990   0.999   4.511   3.268  0.8602  0.7704 -0.5437
 5662TIP3   OH216991   5.717   4.459   4.075 -0.1922  0.0542  0.7547
 5662TIP3    H116992   5.727   4.363   4.072  2.1132  0.2370 -1.5576
 5662TIP3    H216993   5.798   4.490   4.116  0.5327  1.0510 -1.2684
 5663TIP3   OH216994   2.600   2.023   3.602  0.2324  0.7560 -0.0722
 5663TIP3    H116995   2.580   2.012   3.509  1.0993 -1.4517 -0.0496
 5663TIP3    H216996   2.515   2.036   3.644 -0.5146 -1.3106 -0.8266
 5664TIP3   OH216997   4.200   1.639   1.499 -0.0821 -0.0732 -0.4064
 5664TIP3    H116998   4.164   1.724   1.525  1.7142  0.5800  0.0985
 5664TIP3    H216999   4.239   1.604   1.579 -0.0537 -0.9831 -0.8066
 5665TIP3   OH217000   5.745   1.238   1.386 -0.2102  0.9938 -0.2528
 5665TIP3    H117001   5.715   1.300   1.318 -0.0502  1.8740  0.4593
 5665TIP3    H217002   5.837   1.223   1.364 -1.0172 -1.6895 -2.4240
 5666TIP3   OH217003   4.619   2.845   4.273 -0.2584  0.0903  0.0768
 5666TIP3    H117004   4.687   2.896   4.229  0.3230  0.1904  1.0536
 5666TIP3    H217005   4.599   2.774   4.212  0.5674  0.1900 -0.3269
 5667TIP3   OH217006   0.146   4.735   2.593 -0.2422  0.1444  0.2178
 5667TIP3    H117007   0.124   4.736   2.686 -1.1986 -2.2941  0.1031
 5667TIP3    H217008   0.205   4.809   2.581  0.0576  0.4134  2.8040
 5668TIP3   OH217009   2.779   1.771   4.329 -0.3348  0.2412 -0.4989
 5668TIP3    H117010   2.689   1.803   4.319 -0.9696  0.7062  4.3204
 5668TIP3    H217011   2.774   1.678   4.310 -2.1644  0.0531  0.6412
 5669TIP3   OH217012   4.426   5.183   3.114  0.1725  0.3080 -0.1985
 5669TIP3    H117013   4.447   5.159   3.024  0.9036  0.4467 -0.0717
 5669TIP3    H217014   4.505   5.161   3.163 -0.3058  0.0076  0.4512
 5670TIP3   OH217015   2.009   2.071   2.792 -0.2919 -0.3936  0.0992
 5670TIP3    H117016   1.939   2.097   2.732  1.1408  1.5133 -0.8661
 5670TIP3    H217017   2.045   1.990   2.755 -0.9740 -0.5342 -0.2565
 5671TIP3   OH217018   2.833   0.223   4.580  0.0145  0.5874 -0.6730
 5671TIP3    H117019   2.895   0.296   4.577  0.8112 -0.0906 -1.5457
 5671TIP3    H217020   2.888   0.146   4.594 -0.7963  0.1272  0.0848
 5672TIP3   OH217021   5.406   0.208   0.895 -0.6588  0.3614  0.0716
 5672TIP3    H117022   5.478   0.147   0.878 -1.7180 -1.5433  1.9513
 5672TIP3    H217023   5.406   0.266   0.819  2.6007  0.2449 -0.1887
 5673TIP3   OH217024   1.114   5.597   3.372  0.4426 -0.0723  0.9203
 5673TIP3    H117025   1.033   5.607   3.422  0.3812 -0.2178  0.8498
 5673TIP3    H217026   1.148   5.511   3.397  0.4722 -0.0962  0.8011
 5674TIP3   OH217027   1.644   4.269   4.413  0.0586  0.2849 -0.5355
 5674TIP3    H117028   1.561   4.314   4.431  0.2482  1.1157 -1.6642
 5674TIP3    H217029   1.625   4.213   4.337 -1.0280 -3.9751  2.4947
 5675TIP3   OH217030   1.514   5.872   3.863 -0.1283 -0.9989 -0.1302
 5675TIP3    H117031   1.567   5.822   3.801  2.2742  1.1183  0.0759
 5675TIP3    H217032   1.571   5.885   3.939 -1.2173  0.6652  0.4552
 5676TIP3   OH217033   2.321   0.494   4.815 -0.1708  0.0799  0.3050
 5676TIP3    H117034   2.297   0.578   4.776 -0.1313  0.4602  1.0854
 5676TIP3    H217035   2.416   0.501   4.828 -0.4468  0.7102  2.1923
 5677TIP3   OH217036   4.897   3.563   2.988 -0.1962 -0.4971 -0.4414
 5677TIP3    H117037   4.992   3.552   2.983 -0.0899  0.0384  0.2552
 5677TIP3    H217038   4.862   3.474   2.983  0.3373 -0.6923 -0.7484
 5678TIP3   OH217039   1.687   0.272   4.686 -0.0532  0.1851  0.2933
 5678TIP3    H117040   1.733   0.253   4.768 -0.9018 -0.9302  0.5465
 5678TIP3    H217041   1.723   0.209   4.623 -0.2986  0.1934  0.1433
 5679TIP3   OH217042   1.432   0.402   0.206  0.4448 -0.0853  0.0834
 5679TIP3    H117043   1.524   0.379   0.194  0.4631 -0.6956  1.3149
 5679TIP3    H217044   1.409   0.366   0.292 -0.9874 -0.0795 -0.2805
 5680TIP3   OH217045   4.526   4.634   2.644 -0.0756 -0.0564  0.1680
 5680TIP3    H117046   4.578   4.693   2.589  0.2559 -0.1988  0.3190
 5680TIP3    H217047   4.590   4.597   2.705 -0.2543 -0.6748 -0.0094
 5681TIP3   OH217048   4.041   5.720   0.138  0.3949 -0.1235 -0.1651
 5681TIP3    H117049   3.989   5.639   0.138 -0.5904  0.4437  1.5328
 5681TIP3    H217050   4.073   5.727   0.228  3.9368 -0.6964 -1.2502
 5682TIP3   OH217051   0.691   4.609   1.999  0.6004 -0.0759  0.0540
 5682TIP3    H117052   0.740   4.554   1.938  1.1119 -0.9333  1.1933
 5682TIP3    H217053   0.620   4.553   2.031 -1.1149  1.0991 -1.4647
 5683TIP3   OH217054   2.553   2.734   0.604  0.0336 -0.2902  0.6658
 5683TIP3    H117055   2.617   2.779   0.659  1.0367 -1.2521  0.3291
 5683TIP3    H217056   2.549   2.645   0.639 -1.4575 -0.1426  0.9424
 5684TIP3   OH217057   2.844   4.878   1.510 -0.0790  0.0290 -0.0107
 5684TIP3    H117058   2.817   4.970   1.505  2.6158  1.0332  1.9112
 5684TIP3    H217059   2.767   4.829   1.478 -1.6328  2.8866 -1.0275
 5685TIP3   OH217060   4.125   2.225   3.010  0.2144 -0.6131 -0.3814
 5685TIP3    H117061   4.062   2.158   3.033 -1.3478  0.8053 -0.2999
 5685TIP3    H217062   4.126   2.225   2.914  0.9516 -1.3858 -0.3802
 5686TIP3   OH217063   1.510   0.497   1.750  0.0598 -0.0704 -0.0547
 5686TIP3    H117064   1.598   0.512   1.714  0.0556  0.8258  0.2758
 5686TIP3    H217065   1.451   0.513   1.675  0.1694 -0.4826 -0.2284
 5687TIP3   OH217066   2.136   3.127   1.153 -0.3740 -0.5032 -0.1284
 5687TIP3    H117067   2.121   3.109   1.246  1.6060  1.3214  0.6475
 5687TIP3    H217068   2.226   3.099   1.138 -0.4701 -0.2063 -1.3321
 5688TIP3   OH217069   2.969   2.347   0.482  0.2309 -0.3269 -0.5801
 5688TIP3    H117070   3.045   2.317   0.433 -0.5139 -1.8051 -0.8667
 5688TIP3    H217071   2.896   2.339   0.421 -0.4953 -0.9294  0.3462
 5689TIP3   OH217072   4.259   2.476   0.678  0.6036  0.1816  0.1671
 5689TIP3    H117073   4.234   2.531   0.603  0.6927  0.4394  0.3269
 5689TIP3    H217074   4.193   2.406   0.678  1.0312 -0.2376 -0.5976
 5690TIP3   OH217075   1.308   2.640   0.436 -0.4143  0.0315 -0.4309
 5690TIP3    H117076   1.266   2.554   0.429 -1.7758  0.5555  0.9401
 5690TIP3    H217077   1.275   2.688   0.360 -3.2658  0.7768  1.1317
 5691TIP3   OH217078   2.377   0.570   3.664  0.2004  0.2878  0.1557
 5691TIP3    H117079   2.413   0.633   3.726 -1.7026  0.1471  1.4513
 5691TIP3    H217080   2.283   0.585   3.665  0.0695  0.0797 -2.5128
 5692TIP3   OH217081   4.426   0.030   2.634  0.4964  0.3600  1.0862
 5692TIP3    H117082   4.426  -0.036   2.564  1.9654  1.6738 -0.2123
 5692TIP3    H217083   4.345   0.078   2.622 -0.3553 -0.8649  1.7424
 5693TIP3   OH217084   0.533   1.289   3.542  0.5799 -0.3087  0.2971
 5693TIP3    H117085   0.622   1.274   3.575  0.4311 -0.0113  0.8459
 5693TIP3    H217086   0.510   1.376   3.574  0.6097  0.1993 -1.0154
 5694TIP3   OH217087   3.912   2.022   1.073 -0.0457  0.5800  0.1099
 5694TIP3    H117088   3.859   2.079   1.129 -0.9642 -1.0283  0.9543
 5694TIP3    H217089   3.848   1.982   1.013  0.3182 -0.6784  0.5236
 5695TIP3   OH217090   4.921   1.244   0.199  0.1592 -0.0118  0.0389
 5695TIP3    H117091   4.906   1.172   0.138 -1.8475  0.4518 -0.0731
 5695TIP3    H217092   4.855   1.309   0.176  1.3972  1.5377  0.6711
 5696TIP3   OH217093   2.171   4.469   5.163  0.2880 -0.0443 -0.6295
 5696TIP3    H117094   2.094   4.483   5.107  0.4648 -1.4471 -1.2673
 5696TIP3    H217095   2.174   4.546   5.219 -3.7078 -1.4686  1.9575
 5697TIP3   OH217096   4.391   3.857   0.565  1.0090  0.5177  0.0995
 5697TIP3    H117097   4.471   3.805   0.562  0.6663 -0.1591  1.4651
 5697TIP3    H217098   4.329   3.801   0.613  0.1153  1.5448  0.1733
 5698TIP3   OH217099   0.549   1.313   4.250  0.3187 -0.5710 -0.4939
 5698TIP3    H117100   0.533   1.220   4.270 -0.9921 -0.3409 -0.3762
 5698TIP3    H217101   0.640   1.328   4.277 -1.1869 -0.1899  6.0215
 5699TIP3   OH217102   4.812   4.760   0.863 -0.0959  0.1296  0.1941
 5699TIP3    H117103   4.757   4.821   0.912  0.4471  0.0158  0.9638
 5699TIP3    H217104   4.776   4.674   0.884 -0.3107  0.1212 -0.1926
 5700TIP3   OH217105   3.463   2.705   2.119  0.8737  0.3640  0.0214
 5700TIP3    H117106   3.489   2.644   2.051 -0.1409 -1.1754  0.9644
 5700TIP3    H217107   3.440   2.785   2.071  0.7726 -0.4737 -1.3833
 5701TIP3   OH217108   2.678   0.431   3.691  0.7885 -0.5517 -0.7073
 5701TIP3    H117109   2.658   0.520   3.717 -0.2407 -0.8215 -0.5431
 5701TIP3    H217110   2.653   0.377   3.766 -0.2115 -1.1299 -1.4234
 5702TIP3   OH217111   4.097   4.117   1.161 -0.1250  0.0841  0.6972
 5702TIP3    H117112   4.135   4.070   1.087  0.0384  0.2712  0.6611
 5702TIP3    H217113   4.007   4.086   1.166 -0.2821  0.4399  0.1117
 5703TIP3   OH217114   1.752   1.994   3.194 -0.1672  0.0445  0.2308
 5703TIP3    H117115   1.694   2.019   3.122  0.0822  1.4371  0.4785
 5703TIP3    H217116   1.802   2.074   3.213  1.9682 -1.1371 -0.0850
 5704TIP3   OH217117   4.374   2.271   2.740  0.0657 -0.1340  0.2719
 5704TIP3    H117118   4.349   2.338   2.677  1.1891 -1.4928 -1.7258
 5704TIP3    H217119   4.304   2.205   2.735  0.6330 -0.7060 -0.2983
 5705TIP3   OH217120   2.581   1.259   0.855 -0.3391  0.8301  0.0153
 5705TIP3    H117121   2.602   1.263   0.948 -0.0009 -0.5815  0.0259
 5705TIP3    H217122   2.666   1.261   0.811 -0.3622 -0.5525 -0.1468
 5706TIP3   OH217123   4.239   3.268   2.298  0.1014  0.8447  0.3827
 5706TIP3    H117124   4.174   3.251   2.366  2.3284  1.7211  2.9132
 5706TIP3    H217125   4.313   3.212   2.322  0.4754  0.0206 -2.2822
 5707TIP3   OH217126   5.553   0.400   3.433 -0.1750  0.2011 -1.0218
 5707TIP3    H117127   5.589   0.366   3.515 -0.4816  1.1445 -0.4747
 5707TIP3    H217128   5.613   0.470   3.408 -1.2102  1.3156 -0.4782
 5708TIP3   OH217129   3.844   5.645   4.223 -0.1950 -0.1909 -0.0730
 5708TIP3    H117130   3.801   5.664   4.306  1.2279  2.8509  0.0796
 5708TIP3    H217131   3.771   5.636   4.161 -1.2338  2.3236  0.6331
 5709TIP3   OH217132   3.889   2.154   3.496 -0.2837 -0.6133 -0.1744
 5709TIP3    H117133   3.879   2.088   3.427  1.2467 -1.3090  0.2227
 5709TIP3    H217134   3.837   2.121   3.569  0.7379 -1.5823  0.1372
 5710TIP3   OH217135   1.736   2.751   3.606 -0.2061  0.3555 -0.1257
 5710TIP3    H117136   1.688   2.709   3.677  0.9560  0.8307  0.9709
 5710TIP3    H217137   1.685   2.828   3.583 -0.0042  0.8300  0.9919
 5711TIP3   OH217138   1.356   5.819   0.038  0.0716 -0.2880 -0.1963
 5711TIP3    H117139   1.343   5.736   0.083 -0.0056 -0.8384 -1.1955
 5711TIP3    H217140   1.338   5.886   0.104  0.2036 -1.0638  0.6349
 5712TIP3   OH217141   5.256   3.327   4.642  0.1232  0.1749  0.1806
 5712TIP3    H117142   5.224   3.347   4.730  0.0976  1.6223 -0.1467
 5712TIP3    H217143   5.182   3.343   4.584  0.4922  0.4186 -0.2361
 5713TIP3   OH217144   5.753   5.343   2.224 -0.2270  0.0782  0.3618
 5713TIP3    H117145   5.691   5.415   2.227  2.2473  2.3891  0.3579
 5713TIP3    H217146   5.754   5.315   2.133 -0.5424  0.6902  0.1664
 5714TIP3   OH217147   3.326   4.954   2.538 -0.1281  0.6237  0.0215
 5714TIP3    H117148   3.398   4.911   2.584 -0.9197  1.7085  2.4333
 5714TIP3    H217149   3.253   4.893   2.544 -0.4332  1.0598  0.8810
 5715TIP3   OH217150   4.837   0.559   0.339 -0.2739  0.4477  0.1862
 5715TIP3    H117151   4.817   0.575   0.431  1.6332  1.4602  0.4670
 5715TIP3    H217152   4.919   0.607   0.323  0.2502 -0.9411 -1.6394
 5716TIP3   OH217153   3.182   4.641   4.943 -0.1181  0.4296  0.1969
 5716TIP3    H117154   3.208   4.678   5.028  1.1575  0.1800 -0.0545
 5716TIP3    H217155   3.111   4.580   4.963 -0.3852  0.9776  0.9719
 5717TIP3   OH217156   1.024   4.562   4.508  0.3024 -0.2512 -0.0356
 5717TIP3    H117157   0.948   4.618   4.491  0.6832  0.6325  1.0573
 5717TIP3    H217158   1.091   4.594   4.447  0.3998  0.2542  0.3275
 5718TIP3   OH217159   3.298   2.058   3.467 -1.2101 -0.4945 -0.1253
 5718TIP3    H117160   3.339   2.134   3.426 -1.0264 -0.1299  0.7076
 5718TIP3    H217161   3.286   2.084   3.559 -1.3267 -1.3939  0.1247
 5719TIP3   OH217162   2.699   3.060   0.580 -0.0377  0.5404  0.0601
 5719TIP3    H117163   2.688   3.043   0.487  0.2378 -0.1065  0.1393
 5719TIP3    H217164   2.612   3.046   0.617  0.1080 -0.4192  0.0710
 5720TIP3   OH217165   5.935   5.004   1.914 -0.1119  0.0864  0.4110
 5720TIP3    H117166   6.025   4.973   1.924 -0.4906 -1.4125 -0.4134
 5720TIP3    H217167   5.929   5.032   1.823 -0.4692  0.1882  0.4658
 5721TIP3   OH217168   3.704   0.761   4.627  0.3551  0.3260  0.6220
 5721TIP3    H117169   3.799   0.758   4.636  0.4438 -0.7886 -0.4528
 5721TIP3    H217170   3.676   0.670   4.632 -0.4408  0.4374 -1.0816
 5722TIP3   OH217171   5.721   5.963   0.926 -0.3817 -0.1700  0.6062
 5722TIP3    H117172   5.678   6.036   0.881  3.0431  1.5652 -0.1950
 5722TIP3    H217173   5.662   5.889   0.913 -1.7800  1.3114 -2.8473
 5723TIP3   OH217174   5.059   0.437   4.629 -0.2891 -0.0048  0.2103
 5723TIP3    H117175   5.100   0.355   4.601  0.9031  0.0136  1.7786
 5723TIP3    H217176   5.043   0.485   4.548  0.6621 -1.0232 -0.6035
 5724TIP3   OH217177   1.914   4.642   4.470 -0.2651 -0.3033 -0.2729
 5724TIP3    H117178   1.981   4.704   4.442 -0.1071 -0.0869  0.5464
 5724TIP3    H217179   1.831   4.688   4.455 -0.1362  0.2634  0.6614
 5725TIP3   OH217180   5.067   1.529   0.435 -0.4788  0.5525 -0.0354
 5725TIP3    H117181   4.994   1.553   0.379  0.2006 -1.0074 -1.7110
 5725TIP3    H217182   5.067   1.434   0.436  0.3331  0.5292  1.5856
 5726TIP3   OH217183   2.935   4.083   3.970 -0.0470  0.4272 -0.0401
 5726TIP3    H117184   2.938   4.093   3.875  1.0494  2.6786  0.1543
 5726TIP3    H217185   3.013   4.031   3.991  0.1834  0.6599 -0.3132
 5727TIP3   OH217186   0.295   2.750   2.265 -0.3144 -0.7141  0.7741
 5727TIP3    H117187   0.386   2.741   2.291 -0.2833  0.1104  0.9629
 5727TIP3    H217188   0.292   2.718   2.175  0.1826 -0.6154  0.7219
 5728TIP3   OH217189   0.623   3.353   4.442  0.1581  0.0838 -0.4156
 5728TIP3    H117190   0.663   3.404   4.372 -0.3668  0.8123 -0.2030
 5728TIP3    H217191   0.670   3.270   4.441  1.6342  0.8774 -0.1950
 5729TIP3   OH217192   4.198   5.949   3.723 -0.1661  0.0259  0.1701
 5729TIP3    H117193   4.219   6.026   3.777  1.3014 -0.2796  0.0725
 5729TIP3    H217194   4.240   5.967   3.639 -0.3049 -0.6289 -0.0428
 5730TIP3   OH217195   2.722   5.693   1.078  0.3732 -0.0573 -0.0528
 5730TIP3    H117196   2.648   5.647   1.118 -0.2442  0.9941  0.0366
 5730TIP3    H217197   2.791   5.626   1.072  0.4097 -0.3453  2.4812
 5731TIP3   OH217198   4.754   2.127   2.341  0.6668 -0.1490  0.7455
 5731TIP3    H117199   4.699   2.194   2.301 -0.6288 -1.4284  0.2898
 5731TIP3    H217200   4.840   2.168   2.350  0.9803  0.3606 -3.0898
 5732TIP3   OH217201   3.742   2.929   1.001  0.0838  0.1730 -0.6137
 5732TIP3    H117202   3.795   2.999   1.037 -1.1008 -0.1201  1.8780
 5732TIP3    H217203   3.653   2.964   1.001 -1.0251 -2.0754  3.3277
 5733TIP3   OH217204   1.153   3.289   3.710 -0.4493  0.2883 -0.2561
 5733TIP3    H117205   1.164   3.228   3.783  1.5173  0.4599 -0.3445
 5733TIP3    H217206   1.122   3.370   3.750 -0.9266 -0.0997  0.1668
 5734TIP3   OH217207   3.459   3.354   1.547  0.1256 -0.6659 -0.0027
 5734TIP3    H117208   3.398   3.382   1.479 -0.0334  0.1775  0.4771
 5734TIP3    H217209   3.537   3.326   1.499  0.4426  0.9726 -0.5165
 5735TIP3   OH217210   1.112   2.840   3.948  0.3074  0.2671 -0.1281
 5735TIP3    H117211   1.064   2.819   3.868 -0.9755  1.4066  0.3019
 5735TIP3    H217212   1.051   2.892   4.000  1.9125  1.5124  0.5976
 5736TIP3   OH217213   6.151   0.344   0.309 -0.3287  0.5488 -0.1144
 5736TIP3    H117214   6.096   0.307   0.378  1.9353  0.2787  1.6450
 5736TIP3    H217215   6.218   0.278   0.295  0.2009  1.3368 -1.4286
 5737TIP3   OH217216   2.352   1.137   1.040  0.0723 -0.7356  0.5036
 5737TIP3    H117217   2.415   1.199   1.005  0.1387 -0.2538  1.4453
 5737TIP3    H217218   2.324   1.085   0.965 -1.8573  2.0184 -0.8640
 5738TIP3   OH217219   0.692   2.599   1.042  0.6956 -0.3712  0.2286
 5738TIP3    H117220   0.599   2.584   1.059  0.9085 -0.4778  1.4169
 5738TIP3    H217221   0.695   2.635   0.954 -0.2946 -2.3496 -0.6798
 5739TIP3   OH217222   2.434   3.640   0.143  0.1480  0.6335  0.4027
 5739TIP3    H117223   2.342   3.660   0.125 -0.0880  0.1924  1.0818
 5739TIP3    H217224   2.466   3.718   0.189  0.5353  1.4210 -1.1254
 5740TIP3   OH217225   2.043   5.559   0.435 -0.6663  0.0762  0.2622
 5740TIP3    H117226   2.032   5.642   0.389  1.8627  0.4193  0.1250
 5740TIP3    H217227   2.102   5.579   0.507  1.0583 -1.7928 -0.5323
 5741TIP3   OH217228   0.800   5.554   2.908  0.2581  0.0189  0.0359
 5741TIP3    H117229   0.813   5.478   2.852  1.9815  0.8928 -0.8239
 5741TIP3    H217230   0.862   5.542   2.980 -0.4221 -0.0239  0.6378
 5742TIP3   OH217231   0.768   3.300   3.257 -0.0571 -0.1034  0.2552
 5742TIP3    H117232   0.838   3.271   3.199  0.2916 -1.7248  1.4090
 5742TIP3    H217233   0.687   3.284   3.208  0.3272  1.0856 -0.7949
 5743TIP3   OH217234   3.010   3.096   2.759 -0.3381 -0.2712 -0.6822
 5743TIP3    H117235   2.987   3.101   2.666  0.0795  0.0729 -0.7676
 5743TIP3    H217236   3.008   3.003   2.779  1.3167 -0.5029 -1.4773
 5744TIP3   OH217237   3.095   2.295   1.331  0.1947 -0.0775  0.6341
 5744TIP3    H117238   3.118   2.208   1.297 -0.6039  0.7363 -2.3407
 5744TIP3    H217239   3.160   2.354   1.292 -1.8933  1.1618 -1.2325
 5745TIP3   OH217240   1.143   0.898   4.811  0.1162  0.4797 -0.0317
 5745TIP3    H117241   1.057   0.863   4.833  0.1061 -0.5649 -1.6277
 5745TIP3    H217242   1.127   0.990   4.789 -0.5198  0.3923  0.0577
 5746TIP3   OH217243   1.491   1.766   0.568 -0.0489  0.1115 -0.3023
 5746TIP3    H117244   1.439   1.843   0.591  1.4494  0.7725  1.0501
 5746TIP3    H217245   1.544   1.795   0.494 -0.4681 -0.0821 -0.6871
 5747TIP3   OH217246   5.689   0.147   1.105  0.1350  0.6617 -0.1128
 5747TIP3    H117247   5.694   0.188   1.191  0.2636  1.0752 -0.3162
 5747TIP3    H217248   5.654   0.059   1.122 -0.3368  0.9280  0.2939
 5748TIP3   OH217249   4.641   0.268   3.720 -0.0483 -0.3465 -0.8121
 5748TIP3    H117250   4.618   0.332   3.653  0.7298  0.1392 -0.6220
 5748TIP3    H217251   4.733   0.248   3.704  0.0039 -0.6242 -0.2077
 5749TIP3   OH217252   3.131   4.630   2.101  0.4513  0.0175 -0.5968
 5749TIP3    H117253   3.073   4.567   2.144 -0.9883  0.9100 -1.1613
 5749TIP3    H217254   3.139   4.702   2.163  0.8617 -0.0356 -0.5821
 5750TIP3   OH217255   3.752   0.434   0.125 -0.6427 -0.6635 -0.2922
 5750TIP3    H117256   3.710   0.349   0.136 -2.3956  0.4452  3.3636
 5750TIP3    H217257   3.842   0.420   0.154 -1.1515 -1.1625  1.1174
 5751TIP3   OH217258   5.301   1.571   0.233 -0.7884 -0.0011 -0.3240
 5751TIP3    H117259   5.383   1.568   0.283 -1.1138 -0.0755  0.2065
 5751TIP3    H217260   5.238   1.522   0.285 -1.0040 -0.5290 -1.0637
 5752TIP3   OH217261   2.361   2.037   3.791  0.4464  0.1154 -0.2817
 5752TIP3    H117262   2.330   1.967   3.732  0.8538 -0.3067 -0.0068
 5752TIP3    H217263   2.372   1.993   3.875 -1.1995  0.9566  0.4197
 5753TIP3   OH217264   2.839   1.344   1.860 -0.2681 -0.3902 -0.7575
 5753TIP3    H117265   2.878   1.398   1.791  0.2141 -0.3758 -0.4776
 5753TIP3    H217266   2.882   1.373   1.941 -0.9419 -0.2962 -0.4228
 5754TIP3   OH217267   1.595   0.399   1.108 -0.2028  0.6356 -0.5766
 5754TIP3    H117268   1.599   0.366   1.018 -0.0644  1.7625 -0.9947
 5754TIP3    H217269   1.614   0.322   1.162 -0.2274 -0.0459 -1.5057
 5755TIP3   OH217270   5.200   4.488   0.774  0.2327  0.1766  0.4218
 5755TIP3    H117271   5.168   4.562   0.722  0.7441  2.3606  2.9767
 5755TIP3    H217272   5.268   4.526   0.830  0.2126 -2.1341  2.1540
 5756TIP3   OH217273   2.420   3.780   3.616 -0.1628  0.1143 -0.2897
 5756TIP3    H117274   2.396   3.692   3.587  0.4757  0.3019 -1.4705
 5756TIP3    H217275   2.361   3.798   3.689 -0.4286 -1.2150 -0.1501
 5757TIP3   OH217276   4.435   5.497   1.577  0.0268  0.1748  0.5168
 5757TIP3    H117277   4.515   5.451   1.553 -0.3724  0.1183 -0.7960
 5757TIP3    H217278   4.391   5.437   1.638  0.7369 -0.0180  0.8506
 5758TIP3   OH217279   3.912   5.024   0.792 -0.1550  0.0813 -0.0376
 5758TIP3    H117280   3.959   4.954   0.838  1.9376  0.9111 -0.7674
 5758TIP3    H217281   3.835   4.981   0.755 -0.1776 -1.3037  1.4999
 5759TIP3   OH217282   5.955   1.462   3.535  0.3081  0.3418  0.2446
 5759TIP3    H117283   5.897   1.388   3.513  0.2907  0.3926  0.1171
 5759TIP3    H217284   5.982   1.445   3.625  2.2704 -1.1203 -0.5489
 5760TIP3   OH217285   2.546   5.751   0.780  0.1374  0.0656 -0.2279
 5760TIP3    H117286   2.616   5.689   0.760  1.8500  1.8575 -0.0253
 5760TIP3    H217287   2.552   5.764   0.875 -2.0481 -1.5024  0.2101
 5761TIP3   OH217288   0.146   2.112   3.587 -0.0843  0.3622  0.6755
 5761TIP3    H117289   0.087   2.039   3.606  0.2440 -0.8852 -2.4598
 5761TIP3    H217290   0.088   2.182   3.557 -0.1871  0.2432  0.5944
 5762TIP3   OH217291   1.317   5.128   1.003 -0.5883  0.1392  0.5024
 5762TIP3    H117292   1.263   5.049   1.008 -0.1781 -0.1440  0.5535
 5762TIP3    H217293   1.407   5.095   1.006 -0.3989  0.5548 -0.3553
 5763TIP3   OH217294   1.349   1.936   3.580  1.0868 -0.0459  0.4364
 5763TIP3    H117295   1.313   1.976   3.659 -1.3244 -0.2777 -0.4776
 5763TIP3    H217296   1.276   1.888   3.541  2.6257 -1.2824 -1.1053
 5764TIP3   OH217297   0.291   5.614   2.127  0.2096 -0.5487 -0.0823
 5764TIP3    H117298   0.359   5.549   2.115  1.5458  0.7172  0.3854
 5764TIP3    H217299   0.278   5.619   2.222  0.6085  0.3339 -0.0640
 5765TIP3   OH217300   4.803   1.093   4.457  0.5130 -0.3283 -0.0399
 5765TIP3    H117301   4.770   1.005   4.471 -1.7883 -0.0885 -2.8491
 5765TIP3    H217302   4.823   1.126   4.544 -0.9362 -2.7719  1.3193
 5766TIP3   OH217303   1.146   3.032   2.752 -0.3974 -0.1436 -0.0762
 5766TIP3    H117304   1.221   3.084   2.781 -0.9178  1.5962 -1.6646
 5766TIP3    H217305   1.175   2.941   2.763  2.9245  0.3506 -2.7558
 5767TIP3   OH217306   4.716   5.873   1.635 -0.6519  0.1584  0.1313
 5767TIP3    H117307   4.747   5.937   1.571 -1.2899 -0.6336 -1.0160
 5767TIP3    H217308   4.732   5.914   1.720  4.4852 -0.5488 -0.1908
 5768TIP3   OH217309   5.636   1.359   3.942  0.4789 -0.0678 -0.3462
 5768TIP3    H117310   5.551   1.320   3.923  0.8981 -0.7783 -0.7948
 5768TIP3    H217311   5.630   1.448   3.908 -0.5713  0.3658  0.9076
 5769TIP3   OH217312   0.065   1.274   4.675 -0.1683  0.2855  0.0862
 5769TIP3    H117313   0.133   1.283   4.741  0.3096  0.6969 -0.4536
 5769TIP3    H217314   0.003   1.346   4.694 -0.2532  0.1480  0.3370
 5770TIP3   OH217315   4.086   2.212   0.886  0.0474 -0.3358  0.2159
 5770TIP3    H117316   4.016   2.276   0.872 -0.4426 -0.7464  0.7775
 5770TIP3    H217317   4.098   2.209   0.981  0.6089 -0.5109  0.1481
 5771TIP3   OH217318   1.097   1.535   3.048  0.1254  0.0896 -0.5236
 5771TIP3    H117319   1.126   1.621   3.020  0.7376  0.4655  1.1943
 5771TIP3    H217320   1.173   1.495   3.089 -0.8042 -0.2930  0.8923
 5772TIP3   OH217321   0.607   4.842   2.953  1.2674 -0.0001 -0.1270
 5772TIP3    H117322   0.583   4.933   2.933  1.1765  0.0938  0.3984
 5772TIP3    H217323   0.584   4.794   2.874 -0.6255  0.1079  0.3080
 5773TIP3   OH217324   0.855   0.281   4.276  0.2300  0.7436  0.5440
 5773TIP3    H117325   0.949   0.287   4.289  0.2255 -0.4217  1.2138
 5773TIP3    H217326   0.820   0.255   4.361 -0.6849  1.0167  0.2645
 5774TIP3   OH217327   0.147   5.959   4.969 -0.0335 -0.3807  0.2804
 5774TIP3    H117328   0.067   5.997   4.931 -0.4363 -2.3455 -0.9419
 5774TIP3    H217329   0.210   5.958   4.898  0.7133  0.0063  0.9155
 5775TIP3   OH217330   3.872   2.463   1.624 -0.2514  0.2085 -0.3092
 5775TIP3    H117331   3.942   2.467   1.688 -0.7405  0.7660  0.2087
 5775TIP3    H217332   3.914   2.484   1.540 -0.1549  2.7491  0.3078
 5776TIP3   OH217333   3.011   0.606   1.604 -0.5232  0.3353  0.2789
 5776TIP3    H117334   2.949   0.534   1.594 -1.1868  1.0799 -1.4414
 5776TIP3    H217335   2.956   0.680   1.630 -0.1399  0.6487  0.1974
 5777TIP3   OH217336   0.782   2.523   3.369 -0.0952  0.0662 -0.4815
 5777TIP3    H117337   0.697   2.479   3.371  0.1535 -0.5079 -1.6394
 5777TIP3    H217338   0.809   2.519   3.277  0.7684  1.0527 -0.2871
 5778TIP3   OH217339   3.724   4.458   0.738 -0.3856 -0.2001 -0.6082
 5778TIP3    H117340   3.701   4.425   0.825 -1.2938 -0.9831 -1.1281
 5778TIP3    H217341   3.757   4.382   0.691 -0.9976 -0.0340 -1.3224
 5779TIP3   OH217342   4.053   5.889   0.995 -0.6951  0.4961  0.1540
 5779TIP3    H117343   4.075   5.796   1.001  0.2059  0.6029 -1.0957
 5779TIP3    H217344   3.988   5.903   1.064  1.2033 -0.4529  2.2705
 5780TIP3   OH217345   3.176   5.607   3.278 -0.7684  0.1223 -0.2812
 5780TIP3    H117346   3.115   5.534   3.264  0.7762 -0.9749 -1.6779
 5780TIP3    H217347   3.132   5.664   3.341 -3.1322 -0.7209 -1.0750
 5781TIP3   OH217348   5.694   2.017   2.508 -0.3115  0.0121 -0.2297
 5781TIP3    H117349   5.713   1.924   2.495 -1.7036 -0.2212 -0.7597
 5781TIP3    H217350   5.770   2.063   2.472 -0.4389 -0.8673 -1.6725
 5782TIP3   OH217351   6.319   5.570   1.097 -0.0662 -0.1508  0.1270
 5782TIP3    H117352   6.232   5.541   1.125  0.0179 -2.4159 -1.6643
 5782TIP3    H217353   6.379   5.505   1.132  0.6956  0.3628 -0.1964
 5783TIP3   OH217354   3.014   0.727   2.822 -0.1063 -0.8262  0.5662
 5783TIP3    H117355   2.976   0.744   2.735  0.7549  0.2665  0.3777
 5783TIP3    H217356   2.964   0.784   2.880  1.7269  1.3131  0.1823
 5784TIP3   OH217357   0.814   0.604   3.876 -0.9522 -0.3074  0.0766
 5784TIP3    H117358   0.825   0.680   3.933  0.3422 -0.8550  0.5944
 5784TIP3    H217359   0.803   0.530   3.935 -0.2745 -0.7833 -0.3686
 5785TIP3   OH217360   5.786   5.431   0.663 -0.4097  0.1990  0.2589
 5785TIP3    H117361   5.838   5.380   0.601 -1.7421  0.4877 -1.1474
 5785TIP3    H217362   5.842   5.505   0.686 -0.3953  0.8691 -1.7483
 5786TIP3   OH217363   5.735   0.111   4.567  0.0884  0.0866  0.0463
 5786TIP3    H117364   5.649   0.153   4.566 -0.5327 -1.1415  0.4132
 5786TIP3    H217365   5.789   0.171   4.619 -0.4644  0.9997 -0.3957
 5787TIP3   OH217366   3.284   3.501   1.375 -0.1533 -0.3473  0.4873
 5787TIP3    H117367   3.248   3.495   1.286  0.6293 -0.5751  0.1728
 5787TIP3    H217368   3.210   3.529   1.429 -0.1528  2.0950 -0.6091
 5788TIP3   OH217369   0.923   5.962   4.576  0.1325  0.2252 -0.2103
 5788TIP3    H117370   0.941   5.870   4.596  1.6354  0.4007 -0.6652
 5788TIP3    H217371   0.933   5.969   4.481  2.7471  1.3646  0.0511
 5789TIP3   OH217372   5.327   4.616   2.126 -0.2428 -0.0915  0.2007
 5789TIP3    H117373   5.259   4.551   2.141 -1.5918  0.6110 -2.1608
 5789TIP3    H217374   5.388   4.606   2.199 -0.8371 -3.3698  0.3851
 5790TIP3   OH217375   3.831   1.970   1.714  0.2059  0.4330 -0.8040
 5790TIP3    H117376   3.898   2.018   1.762 -0.1931 -1.6012  1.9963
 5790TIP3    H217377   3.757   2.030   1.709 -0.4036  0.2139  2.8807
 5791TIP3   OH217378   0.468   4.837   3.492 -0.9947  0.1758 -0.4452
 5791TIP3    H117379   0.372   4.835   3.489 -1.0029 -1.8116 -0.6554
 5791TIP3    H217380   0.489   4.897   3.563 -2.4227  0.1099  0.0731
 5792TIP3   OH217381   5.932   0.438   4.467 -0.1481  0.7754 -0.5288
 5792TIP3    H117382   5.892   0.520   4.499  0.0717  1.4875 -2.0103
 5792TIP3    H217383   5.928   0.445   4.372  1.1106 -0.3494 -0.6868
 5793TIP3   OH217384   4.517   4.447   0.076 -0.2656  0.2461 -0.3204
 5793TIP3    H117385   4.457   4.385   0.117 -2.1785 -0.2869 -3.5976
 5793TIP3    H217386   4.587   4.392   0.041 -1.3369  0.0262 -2.1833
 5794TIP3   OH217387   5.011   0.220   3.842  0.7616 -0.1123 -0.2754
 5794TIP3    H117388   5.032   0.174   3.761  1.2141  0.4484 -0.4839
 5794TIP3    H217389   5.092   0.265   3.867  0.6555 -0.3403  0.5361
 5795TIP3   OH217390   2.009   1.175   1.749 -0.5753  0.8204 -0.0962
 5795TIP3    H117391   1.998   1.102   1.689 -0.1373  1.6367 -1.2063
 5795TIP3    H217392   2.095   1.212   1.726 -0.3691  1.1034  1.0820
 5796TIP3   OH217393   5.024   5.745   3.840  0.3486 -0.0896 -0.5592
 5796TIP3    H117394   4.973   5.819   3.874  1.8602  0.6912  0.0950
 5796TIP3    H217395   4.989   5.669   3.886 -2.3413 -0.1288 -2.3925
 5797TIP3   OH217396   2.182   4.644   0.484  0.4908  0.2819  0.4897
 5797TIP3    H117397   2.168   4.630   0.578 -2.2383 -0.9428  0.0023
 5797TIP3    H217398   2.197   4.557   0.448 -0.6589  0.4440 -0.4610
 5798TIP3   OH217399   3.990   3.660   2.828  0.1743 -0.3919  0.4996
 5798TIP3    H117400   3.968   3.750   2.805  0.3241 -0.5211 -0.1452
 5798TIP3    H217401   3.926   3.607   2.781  1.7897 -0.7742 -1.3994
 5799TIP3   OH217402   4.700   3.703   0.221  0.2536 -0.1777  0.1171
 5799TIP3    H117403   4.704   3.783   0.274 -2.7910  0.0273  0.2458
 5799TIP3    H217404   4.710   3.733   0.131  1.2356  0.0296  0.2827
 5800TIP3   OH217405   4.421   5.045   2.303  0.7718  0.3583 -0.3589
 5800TIP3    H117406   4.468   5.039   2.386  0.6256 -1.2586 -0.3794
 5800TIP3    H217407   4.334   5.078   2.327  1.3054  1.6692 -0.1177
 5801TIP3   OH217408   4.195   3.965   2.491  0.3905 -0.5714 -0.0562
 5801TIP3    H117409   4.168   4.030   2.556 -0.1207  0.1508 -0.9542
 5801TIP3    H217410   4.116   3.913   2.475  1.0110 -1.9635  1.2451
 5802TIP3   OH217411   0.429   3.958   2.752 -0.2229 -0.2524  0.2220
 5802TIP3    H117412   0.469   4.045   2.756  0.4107 -0.5628  0.8764
 5802TIP3    H217413   0.393   3.952   2.664 -1.1517  1.0543  0.4926
 5803TIP3   OH217414   2.987   5.053   1.287 -0.5950 -0.1056 -0.3849
 5803TIP3    H117415   2.910   5.065   1.343  1.0571 -0.9084  2.2475
 5803TIP3    H217416   2.986   4.960   1.264 -0.0712 -0.2761  0.2487
 5804TIP3   OH217417   2.273   0.579   0.170 -0.0391  0.4790  0.1435
 5804TIP3    H117418   2.225   0.653   0.132  0.6387  0.0778 -1.6080
 5804TIP3    H217419   2.328   0.547   0.098  2.1948  0.3669  1.7789
 5805TIP3   OH217420   5.276   3.659   3.498  0.4303 -0.4397 -0.4797
 5805TIP3    H117421   5.329   3.579   3.507 -0.4591 -0.7893  3.0431
 5805TIP3    H217422   5.187   3.631   3.517  0.2695  1.4760  2.2581
 5806TIP3   OH217423   0.262   5.834   0.671  0.1606 -0.1959  0.3096
 5806TIP3    H117424   0.297   5.806   0.587 -0.1602  0.7980 -0.1644
 5806TIP3    H217425   0.188   5.775   0.687  1.2075 -1.4391  0.6860
 5807TIP3   OH217426   3.105   5.496   0.001 -0.2095  0.4941 -1.0143
 5807TIP3    H117427   3.118   5.581   0.043 -0.7739  0.7076 -1.2544
 5807TIP3    H217428   3.168   5.438   0.043 -0.4807  0.8002 -0.1595
 5808TIP3   OH217429   1.305  -0.008   4.321  0.0548 -0.0920  0.0514
 5808TIP3    H117430   1.361  -0.017   4.243  0.0286  1.5051 -0.1973
 5808TIP3    H217431   1.313   0.084   4.345 -2.1499  0.0951  0.2699
 5809TIP3   OH217432   5.028   4.922   2.733 -0.1678 -0.4017  0.3395
 5809TIP3    H117433   5.075   4.843   2.706 -0.2787  0.3901 -2.4656
 5809TIP3    H217434   5.072   4.949   2.814  1.9723 -1.5985 -0.3402
 5810TIP3   OH217435   2.350   0.214   3.261  0.6860 -0.4477 -0.0417
 5810TIP3    H117436   2.433   0.189   3.220  1.3058  0.3209  0.7227
 5810TIP3    H217437   2.372   0.288   3.318 -0.7678  0.6313 -0.8227
 5811TIP3   OH217438   5.077   2.411   1.642 -0.3291 -0.1390  0.5776
 5811TIP3    H117439   5.014   2.421   1.571  0.7623 -0.8252 -0.5338
 5811TIP3    H217440   5.067   2.320   1.671  0.7867 -0.5615 -0.2780
 5812TIP3   OH217441   1.696   5.694   0.079  0.2642 -0.5527  0.0781
 5812TIP3    H117442   1.749   5.773   0.088 -0.1067  0.0207 -2.0766
 5812TIP3    H217443   1.758   5.622   0.089  1.3552  0.0997 -1.4762
 5813TIP3   OH217444   3.941   5.844   3.318 -0.1960 -0.1944 -0.1403
 5813TIP3    H117445   3.954   5.805   3.404  0.9130  0.8374  0.1858
 5813TIP3    H217446   4.023   5.826   3.271 -0.1486  0.6580 -0.4044
 5814TIP3   OH217447   0.455   3.508   3.474 -0.1649  0.6402  0.4164
 5814TIP3    H117448   0.374   3.459   3.487 -0.3356  0.5242 -0.8972
 5814TIP3    H217449   0.429   3.582   3.419  0.8665 -0.2452 -1.3586
 5815TIP3   OH217450   0.821   0.236   1.761  0.4413 -0.0789 -0.2604
 5815TIP3    H117451   0.865   0.177   1.700 -0.4161 -0.5954 -0.4043
 5815TIP3    H217452   0.837   0.199   1.847  3.8768  2.0616  0.1903
 5816TIP3   OH217453   0.800   5.511   2.600  0.6979  0.2011  0.0464
 5816TIP3    H117454   0.832   5.443   2.659 -0.5990 -0.6122 -0.1518
 5816TIP3    H217455   0.759   5.464   2.528  1.2919  1.1939 -0.9765
 5817TIP3   OH217456   1.077   0.652   2.893  0.5326 -0.1104  0.6011
 5817TIP3    H117457   0.984   0.638   2.876  0.8696 -0.5099 -1.0806
 5817TIP3    H217458   1.094   0.741   2.862  1.3612 -1.1878 -2.3853
 5818TIP3   OH217459   6.307   1.686   3.622  0.2415 -0.7129 -0.1669
 5818TIP3    H117460   6.268   1.768   3.590  0.6378  0.5775  2.4444
 5818TIP3    H217461   6.330   1.638   3.542  0.6339  2.0146 -1.8062
 5819TIP3   OH217462   5.252   2.981   4.364  0.1889 -0.1006  0.0608
 5819TIP3    H117463   5.196   2.909   4.337  1.2023 -0.9985  0.2786
 5819TIP3    H217464   5.197   3.059   4.355 -1.0893 -0.9434  0.3001
 5820TIP3   OH217465   1.470   2.234   4.653 -0.3547  0.3363 -0.4511
 5820TIP3    H117466   1.510   2.258   4.737 -0.0891 -0.3929 -0.3583
 5820TIP3    H217467   1.403   2.301   4.638 -1.1425 -0.1203  0.8735
 5821TIP3   OH217468   6.218   5.540   3.310  0.2047  0.2038 -0.5980
 5821TIP3    H117469   6.154   5.610   3.299 -1.4079 -0.8055  1.5875
 5821TIP3    H217470   6.283   5.575   3.370  0.5624  0.5086 -1.1533
 5822TIP3   OH217471   5.497   1.062   3.290  0.7668 -0.1997  0.0939
 5822TIP3    H117472   5.475   1.136   3.233  2.1640 -0.4974 -0.8714
 5822TIP3    H217473   5.511   1.102   3.376  0.2031  0.4622 -0.1092
 5823TIP3   OH217474   5.301   3.473   1.516 -0.0981  0.0332  0.2064
 5823TIP3    H117475   5.302   3.412   1.442  1.4785  1.4431 -0.9842
 5823TIP3    H217476   5.247   3.428   1.582  1.3093 -2.8448 -0.4324
 5824TIP3   OH217477   0.821   4.265   1.982 -0.1325  0.5222 -0.0765
 5824TIP3    H117478   0.883   4.313   2.037 -0.5457  0.9101  0.0603
 5824TIP3    H217479   0.862   4.262   1.896 -0.1189  1.1640 -0.0962
 5825TIP3   OH217480   2.412   3.449   1.953  0.4163  0.1625  0.3132
 5825TIP3    H117481   2.451   3.414   2.034  0.7618 -0.2786 -0.0389
 5825TIP3    H217482   2.382   3.537   1.978 -0.7606 -0.4943  1.2921
 5826TIP3   OH217483   4.754   4.641   0.577 -0.6453  0.2010 -0.1913
 5826TIP3    H117484   4.762   4.582   0.502 -0.8772  2.0055 -1.6922
 5826TIP3    H217485   4.845   4.662   0.601 -0.5567 -0.8178  0.4412
 5827TIP3   OH217486   3.693   3.621   0.663 -0.5816 -0.4166 -0.1937
 5827TIP3    H117487   3.689   3.528   0.641 -1.2254  0.1144 -2.6667
 5827TIP3    H217488   3.605   3.654   0.646 -0.7358  0.4453  1.9433
 5828TIP3   OH217489   2.367   2.925   3.161 -0.3525  0.3095 -0.0059
 5828TIP3    H117490   2.419   2.983   3.216 -1.2444 -0.0563  1.2760
 5828TIP3    H217491   2.400   2.940   3.073 -0.2370  2.4299  0.3325
 5829TIP3   OH217492   6.196   2.728   1.782  0.5242  0.6752 -0.0733
 5829TIP3    H117493   6.238   2.642   1.792  0.4718  0.8515  2.2336
 5829TIP3    H217494   6.247   2.786   1.838 -0.9614  1.5561  0.4335
 5830TIP3   OH217495   0.409   5.061   0.648  0.7061  0.1737  0.3890
 5830TIP3    H117496   0.487   5.088   0.599  1.4892 -1.5476  0.6034
 5830TIP3    H217497   0.382   4.979   0.608  0.3562 -0.4066  1.7416
 5831TIP3   OH217498   4.107   0.305   3.013 -0.2395 -0.4866 -0.1276
 5831TIP3    H117499   4.147   0.235   3.065  1.3102  0.9961  0.7912
 5831TIP3    H217500   4.052   0.259   2.950  0.6397 -2.5252  0.4937
 5832TIP3   OH217501   1.218   5.926   4.627  0.3169 -0.2248  0.0999
 5832TIP3    H117502   1.262   5.915   4.543 -0.3371  3.3879 -0.9038
 5832TIP3    H217503   1.127   5.902   4.610  0.2025  0.4231 -0.2354
 5833TIP3   OH217504   5.883   1.275   4.028  0.1979  0.0528 -0.2098
 5833TIP3    H117505   5.807   1.315   3.986  0.8803  1.3375 -0.2436
 5833TIP3    H217506   5.911   1.339   4.093  1.6580 -0.0995 -0.6588
 5834TIP3   OH217507   0.601   5.316   0.875  0.4154  0.1252 -0.0914
 5834TIP3    H117508   0.642   5.238   0.838 -0.6845 -0.7989  0.5613
 5834TIP3    H217509   0.643   5.326   0.960 -0.3370 -0.5521  0.3810
 5835TIP3   OH217510   2.736   5.609   2.186  0.3028  0.4075 -0.4388
 5835TIP3    H117511   2.650   5.647   2.201  0.4358 -0.1496  2.2707
 5835TIP3    H217512   2.798   5.677   2.213  0.6466 -0.0486 -0.0512
 5836TIP3   OH217513   2.865   0.819   1.717 -0.7169 -0.0926 -0.3854
 5836TIP3    H117514   2.865   0.914   1.708 -0.3054 -0.1481 -1.0692
 5836TIP3    H217515   2.773   0.795   1.720 -0.8202  0.3486  0.0143
 5837TIP3   OH217516   5.633   1.379   4.707  0.5156  0.3612 -0.2017
 5837TIP3    H117517   5.709   1.323   4.726  1.2395  1.4927  0.3239
 5837TIP3    H217518   5.576   1.367   4.783  0.7657  0.4845  0.0089
 5838TIP3   OH217519   5.509   2.275   3.362  0.9205  0.0288 -0.6839
 5838TIP3    H117520   5.416   2.280   3.384  0.9692  2.2071 -0.7663
 5838TIP3    H217521   5.536   2.188   3.394 -0.7733 -0.0496  0.7374
 5839TIP3   OH217522   4.026   1.681   1.030 -0.2332  0.0917  0.1608
 5839TIP3    H117523   4.062   1.769   1.024  0.9211 -0.2971  1.0403
 5839TIP3    H217524   3.934   1.690   1.002 -0.2104  1.6021  0.5231
 5840TIP3   OH217525   2.128   0.061   1.256 -0.4889  0.7546  0.8706
 5840TIP3    H117526   2.062   0.062   1.186  1.3625  0.2228 -1.0027
 5840TIP3    H217527   2.129  -0.030   1.286  0.3258  0.4120 -0.1145
 5841TIP3   OH217528   3.111   3.665   2.453 -0.1547  0.4819  0.4841
 5841TIP3    H117529   3.203   3.667   2.430 -0.4034 -1.7892 -0.9795
 5841TIP3    H217530   3.109   3.683   2.547  1.6756  1.4343  0.3664
 5842TIP3   OH217531   4.619   5.251   5.122  0.0992  0.1433 -0.3653
 5842TIP3    H117532   4.591   5.255   5.030  0.5193  0.6571 -0.4784
 5842TIP3    H217533   4.702   5.300   5.123  0.0808  0.1587  0.2925
 5843TIP3   OH217534   0.457   2.161   0.528 -0.0560 -0.4058  0.3262
 5843TIP3    H117535   0.373   2.118   0.545  0.0521 -1.2663 -1.1371
 5843TIP3    H217536   0.495   2.174   0.614 -1.8435  0.3361  1.0505
 5844TIP3   OH217537   4.341   5.843   2.058  0.0944  0.2868  0.4058
 5844TIP3    H117538   4.328   5.766   2.114 -0.8014  1.5591  2.0431
 5844TIP3    H217539   4.309   5.817   1.972 -3.0040 -0.2891  1.6250
 5845TIP3   OH217540   0.625   1.206   1.667 -0.7176 -1.0549 -0.3424
 5845TIP3    H117541   0.624   1.298   1.694  0.8479 -0.7856 -1.0747
 5845TIP3    H217542   0.588   1.158   1.741 -1.9706  0.1947 -0.1203
 5846TIP3   OH217543   3.823   2.442   4.896 -0.1492  0.2528 -0.2408
 5846TIP3    H117544   3.817   2.413   4.805  2.3807  0.6277 -0.6058
 5846TIP3    H217545   3.917   2.452   4.911 -0.5061  0.1986  2.4342
 5847TIP3   OH217546   1.116   1.623   4.715  0.1430 -0.2842  0.0545
 5847TIP3    H117547   1.181   1.691   4.701 -0.1085 -0.4024 -1.9512
 5847TIP3    H217548   1.043   1.668   4.758  1.1180  0.0469  1.4322
 5848TIP3   OH217549   1.251   5.291   1.902  0.1383  0.5289  0.5428
 5848TIP3    H117550   1.178   5.310   1.844 -0.4791 -0.0263  1.1236
 5848TIP3    H217551   1.213   5.240   1.973  0.9056  1.0338  1.3449
 5849TIP3   OH217552   1.764   0.657   4.916 -0.4511  0.5480  0.0379
 5849TIP3    H117553   1.682   0.695   4.949 -1.3981 -1.2361 -0.1767
 5849TIP3    H217554   1.741   0.621   4.831  0.0468 -1.6232  0.7705
 5850TIP3   OH217555   2.788   1.563   4.047 -0.4860  0.0803 -0.0843
 5850TIP3    H117556   2.877   1.542   4.077 -0.2872 -1.1008 -1.3800
 5850TIP3    H217557   2.733   1.548   4.124  0.1727 -1.5453  0.1246
 5851TIP3   OH217558   6.220   1.485   4.728 -0.1976  0.1688  0.1273
 5851TIP3    H117559   6.161   1.418   4.764 -1.8465  0.2423 -2.1949
 5851TIP3    H217560   6.172   1.567   4.739  0.3664  0.5175  0.0279
 5852TIP3   OH217561   1.887   2.964   5.161 -0.2250 -0.1659  0.0530
 5852TIP3    H117562   1.794   2.982   5.171 -0.3978 -1.3041  0.6738
 5852TIP3    H217563   1.898   2.875   5.195  1.2556  0.3259  0.9386
 5853TIP3   OH217564   3.758   3.659   4.212  0.7224 -0.6778  0.2062
 5853TIP3    H117565   3.831   3.687   4.157 -0.1653 -1.1248 -1.2714
 5853TIP3    H217566   3.710   3.740   4.230  0.9138 -0.5500  0.1414
 5854TIP3   OH217567   0.900   2.181   3.405 -0.2803  0.0918  0.6037
 5854TIP3    H117568   0.957   2.247   3.365  0.3009 -1.5732 -1.5081
 5854TIP3    H217569   0.954   2.142   3.474  0.3742 -0.0281  0.0365
 5855TIP3   OH217570   0.773   1.091   4.447  0.4845 -0.2299 -0.0708
 5855TIP3    H117571   0.779   1.025   4.516  0.3457 -0.7655 -0.5674
 5855TIP3    H217572   0.860   1.131   4.445  0.2276  0.4316  1.0383
 5856TIP3   OH217573   4.409   3.344   3.871  0.1906  0.3755 -0.2907
 5856TIP3    H117574   4.318   3.366   3.852 -0.7822 -3.0239 -0.2148
 5856TIP3    H217575   4.453   3.346   3.787 -0.4190  0.1740 -0.6172
 5857TIP3   OH217576   3.615   4.147   1.565  0.8935 -0.0396  0.2192
 5857TIP3    H117577   3.557   4.137   1.640  1.0390 -2.4142  0.0968
 5857TIP3    H217578   3.695   4.101   1.590  1.0098 -0.7205 -1.3050
 5858TIP3   OH217579   3.505   0.116   3.533 -0.0510 -0.2408  0.1320
 5858TIP3    H117580   3.492   0.203   3.494 -1.1610 -0.2142  0.5365
 5858TIP3    H217581   3.546   0.065   3.463  0.8423  0.6619 -0.0342
 5859TIP3   OH217582   1.232   4.410   4.747 -0.2677 -0.3776 -0.2867
 5859TIP3    H117583   1.192   4.391   4.662 -1.5800 -0.4226  0.3292
 5859TIP3    H217584   1.185   4.355   4.809  1.8701 -1.7201  0.2708
 5860TIP3   OH217585   0.567   0.996   4.265 -0.1543 -0.1174  0.1034
 5860TIP3    H117586   0.632   1.033   4.324 -0.0484  0.1593 -0.1848
 5860TIP3    H217587   0.573   0.901   4.279 -1.0310  0.0032  1.4801
 5861TIP3   OH217588   5.891   5.752   1.433 -0.3690  0.0059  0.6736
 5861TIP3    H117589   5.902   5.724   1.524  1.7064 -1.7693 -0.0233
 5861TIP3    H217590   5.901   5.847   1.435  2.1360 -0.2030  2.0769
 5862TIP3   OH217591   4.009   4.099   2.652  0.0006 -0.0526 -0.4999
 5862TIP3    H117592   3.944   4.073   2.586 -1.4717  1.1057  0.4212
 5862TIP3    H217593   3.972   4.069   2.735 -0.5715  2.6231  0.3217
 5863TIP3   OH217594   2.052   1.466   2.164 -0.2055 -0.8692  0.4160
 5863TIP3    H117595   2.068   1.542   2.220 -0.9461 -0.9086  0.7014
 5863TIP3    H217596   2.062   1.500   2.075 -2.0549 -0.0021  0.4696
 5864TIP3   OH217597   2.376   1.307   4.726  1.0255 -0.3462  1.1075
 5864TIP3    H117598   2.401   1.309   4.633 -0.1299 -0.3066  0.7873
 5864TIP3    H217599   2.355   1.398   4.747 -1.1624 -0.7093  0.6958
 5865TIP3   OH217600   0.347   4.930   2.517 -0.3411  0.5577 -0.4611
 5865TIP3    H117601   0.434   4.942   2.479  0.3368 -2.5698 -0.2025
 5865TIP3    H217602   0.364   4.911   2.609 -1.3713  0.7150 -0.2254
 5866TIP3   OH217603   3.786   5.828   3.696 -0.1444 -0.3799 -0.0226
 5866TIP3    H117604   3.858   5.788   3.647  0.4230  0.2134  0.3140
 5866TIP3    H217605   3.741   5.754   3.737  3.1354 -0.6213  3.7475
 5867TIP3   OH217606   6.015   3.551   2.325 -0.2883 -0.1815  0.4462
 5867TIP3    H117607   6.055   3.503   2.253  0.4398  1.5005 -0.3225
 5867TIP3    H217608   6.007   3.487   2.395 -1.8328 -2.0940 -1.3891
 5868TIP3   OH217609   5.627   0.516   2.537 -0.6139 -0.7749  0.0375
 5868TIP3    H117610   5.680   0.458   2.482  1.0206  0.7509 -0.0746
 5868TIP3    H217611   5.690   0.577   2.575 -2.1174  0.1301  1.1799
 5869TIP3   OH217612   4.849   3.296   2.026 -0.0344  0.0848  0.5768
 5869TIP3    H117613   4.886   3.309   2.113 -0.9680  1.5781  0.7904
 5869TIP3    H217614   4.868   3.377   1.979  1.1129 -0.9907 -0.8905
 5870TIP3   OH217615   3.977   2.709   3.150 -0.0309 -0.4118 -0.0841
 5870TIP3    H117616   4.063   2.700   3.190  0.1217 -0.9294 -0.5097
 5870TIP3    H217617   3.963   2.625   3.105 -0.8955 -0.4623  0.2550
 5871TIP3   OH217618   4.143   1.958   1.267  0.1585 -0.3354 -0.0732
 5871TIP3    H117619   4.081   1.988   1.202 -0.0237 -3.2320 -1.3791
 5871TIP3    H217620   4.096   1.964   1.350 -2.3457 -3.2199 -1.1038
 5872TIP3   OH217621   2.822   4.911   4.043  0.3235  0.1362  0.1289
 5872TIP3    H117622   2.899   4.967   4.045 -1.8280  3.4037 -1.2267
 5872TIP3    H217623   2.850   4.833   3.994  2.7964  1.1025 -0.0843
 5873TIP3   OH217624   5.683   0.010   3.647 -0.0212 -0.6167  0.0877
 5873TIP3    H117625   5.727   0.064   3.582  0.1107  1.4035  1.7331
 5873TIP3    H217626   5.738  -0.068   3.655  0.7467 -0.2201 -1.1331
 5874TIP3   OH217627   6.271   1.069   4.779  0.4112  0.4375 -0.3561
 5874TIP3    H117628   6.334   1.127   4.735  0.2869  0.5579 -0.3733
 5874TIP3    H217629   6.274   1.096   4.871  2.0916 -1.0542  0.0962
 5875TIP3   OH217630   4.088   3.590   1.958  0.4739 -0.6130  0.3866
 5875TIP3    H117631   4.096   3.589   2.054  0.2819 -0.7088  0.4022
 5875TIP3    H217632   4.178   3.601   1.927  0.3935  1.0250  0.6103
 5876TIP3   OH217633   3.267   4.979   1.782  0.5171  0.4970 -0.4006
 5876TIP3    H117634   3.215   4.940   1.711  0.5991 -0.8609  0.2426
 5876TIP3    H217635   3.354   4.941   1.770  1.0225  1.7296 -0.6870
 5877TIP3   OH217636   1.334   1.103   4.125  0.2422  0.6316 -0.0490
 5877TIP3    H117637   1.260   1.147   4.083 -1.0155 -2.1702 -0.9851
 5877TIP3    H217638   1.366   1.041   4.059  0.5992 -1.3074  1.8372
 5878TIP3   OH217639   6.152   4.253   3.331  0.5400 -0.3335  0.4479
 5878TIP3    H117640   6.226   4.287   3.282 -0.9443 -0.9488 -2.4200
 5878TIP3    H217641   6.157   4.158   3.320 -1.7266 -0.3170 -1.6494
 5879TIP3   OH217642   3.594   2.401   4.221 -0.3573  0.4940 -0.0413
 5879TIP3    H117643   3.609   2.412   4.315 -2.5342 -3.1895  0.9346
 5879TIP3    H217644   3.524   2.464   4.201 -0.1529  1.0473  0.9037
 5880TIP3   OH217645   0.598   1.948   0.365  0.7117  0.0529 -0.0158
 5880TIP3    H117646   0.589   2.036   0.400  1.8363  0.4077 -0.5614
 5880TIP3    H217647   0.511   1.925   0.333  0.0603  0.3713  1.4652
 5881TIP3   OH217648   4.973   5.237   0.348  0.2073  0.4117 -0.0705
 5881TIP3    H117649   4.897   5.285   0.380 -0.5640 -0.6184 -0.3083
 5881TIP3    H217650   5.013   5.199   0.426 -0.0328  0.2231 -0.0412
 5882TIP3   OH217651   3.375   3.228   3.319 -0.1616  0.4356 -0.0030
 5882TIP3    H117652   3.419   3.260   3.241 -2.2094 -1.0006 -1.9139
 5882TIP3    H217653   3.412   3.278   3.391  1.0796  2.6063 -2.0134
 5883TIP3   OH217654   4.805   1.590   3.762  0.2025 -0.5292  0.0482
 5883TIP3    H117655   4.866   1.587   3.836  1.9093  1.2859 -1.2015
 5883TIP3    H217656   4.762   1.505   3.764  1.4566 -1.2028  2.0643
 5884TIP3   OH217657   4.912   2.358   3.941  0.3091  0.8312 -0.3579
 5884TIP3    H117658   4.885   2.397   3.858  0.0414 -0.6049 -0.9760
 5884TIP3    H217659   4.994   2.313   3.921 -0.6786 -1.0596 -0.3234
 5885TIP3   OH217660   1.516   4.788   0.703 -0.4530  0.7094 -0.0667
 5885TIP3    H117661   1.438   4.733   0.695  0.4667 -0.8009  0.7646
 5885TIP3    H217662   1.550   4.795   0.614 -0.8029  0.2537 -0.2406
 5886TIP3   OH217663   4.573   3.381   2.870 -0.3560 -0.0822 -0.1312
 5886TIP3    H117664   4.663   3.350   2.872 -0.5137 -0.4972  0.8881
 5886TIP3    H217665   4.580   3.475   2.886 -0.2555 -0.5109  2.8336
 5887TIP3   OH217666   5.657   2.592   4.727  0.3448 -0.6765 -0.1394
 5887TIP3    H117667   5.727   2.586   4.791  1.2684 -1.3141 -1.1787
 5887TIP3    H217668   5.671   2.518   4.668 -0.6961 -0.3247 -0.8732
 5888TIP3   OH217669   3.657   0.207   1.740 -0.0002  0.2165  0.0070
 5888TIP3    H117670   3.583   0.182   1.684 -0.9096  0.3973  1.0860
 5888TIP3    H217671   3.624   0.198   1.829  0.7819  1.7715  0.4937
 5889TIP3   OH217672   2.835   4.107   1.291  0.1208  0.2638 -0.4681
 5889TIP3    H117673   2.910   4.153   1.255 -0.8269  0.6345 -2.0421
 5889TIP3    H217674   2.761   4.165   1.275 -0.6675 -0.5510  0.1246
 5890TIP3   OH217675   5.073   4.684   3.562 -0.0622 -0.3858  0.2551
 5890TIP3    H117676   4.996   4.741   3.557 -0.4767 -0.9351  0.3009
 5890TIP3    H217677   5.098   4.669   3.471 -0.1005 -0.3319  0.2354
 5891TIP3   OH217678   3.612   2.034   1.251  0.0220  0.2666 -0.0473
 5891TIP3    H117679   3.575   1.951   1.221 -0.4945 -0.3044  2.0493
 5891TIP3    H217680   3.563   2.100   1.202 -2.2905 -0.5475  1.0050
 5892TIP3   OH217681   2.775   4.197   2.081 -0.1579 -0.2881  0.0488
 5892TIP3    H117682   2.749   4.279   2.122  0.2401  0.2189 -0.6697
 5892TIP3    H217683   2.825   4.151   2.149  1.3380  0.9654 -0.1211
 5893TIP3   OH217684   5.153   0.592   3.127 -0.5890  0.0823  0.1262
 5893TIP3    H117685   5.127   0.601   3.035  0.3820  0.1922 -0.1434
 5893TIP3    H217686   5.070   0.581   3.174 -1.0671 -0.5205 -0.8213
 5894TIP3   OH217687   2.602   0.743   0.295 -0.7310  0.6395  0.6598
 5894TIP3    H117688   2.591   0.833   0.264  1.7446  0.3163 -1.4495
 5894TIP3    H217689   2.589   0.689   0.217 -1.1978 -0.7997  1.6848
 5895TIP3   OH217690   0.484   5.071   2.034  0.1553  0.2103  0.0853
 5895TIP3    H117691   0.468   5.085   1.941 -0.6837  1.8081  0.4482
 5895TIP3    H217692   0.553   5.005   2.036 -0.3105 -0.3885 -1.6490
 5896TIP3   OH217693   0.906   2.937   2.096 -0.1192 -0.4480  0.0003
 5896TIP3    H117694   0.989   2.953   2.140  0.4339 -1.8319 -0.4712
 5896TIP3    H217695   0.926   2.867   2.033 -1.7985 -1.3275  0.3912
 5897TIP3   OH217696   5.624   5.321   0.421 -0.0541  0.1920  0.4596
 5897TIP3    H117697   5.627   5.300   0.328 -0.9814 -0.3034  0.5295
 5897TIP3    H217698   5.597   5.412   0.425  1.4067  0.6539  0.2160
 5898TIP3   OH217699   1.861   4.615   3.949  0.3365 -0.3936 -0.0045
 5898TIP3    H117700   1.923   4.570   3.892  1.5192  0.4704  0.5431
 5898TIP3    H217701   1.850   4.702   3.909  0.6608 -0.0168  0.6963
 5899TIP3   OH217702   1.437   4.377   1.740  0.5706  0.2588  0.4794
 5899TIP3    H117703   1.428   4.304   1.801 -0.6611  1.4117  1.7334
 5899TIP3    H217704   1.353   4.382   1.695  0.7007  0.8044  0.2834
 5900TIP3   OH217705   2.433   0.134   4.217 -0.9020  0.2035  0.3085
 5900TIP3    H117706   2.347   0.166   4.189 -0.2935 -0.6037 -2.9280
 5900TIP3    H217707   2.490   0.211   4.213 -0.1700 -0.2376 -4.2456
 5901TIP3   OH217708   4.735   4.258   1.086 -0.3608 -0.0207 -0.0970
 5901TIP3    H117709   4.648   4.218   1.084 -1.0753  1.4857 -0.9153
 5901TIP3    H217710   4.783   4.213   1.016 -1.2247  0.6902 -1.1702
 5902TIP3   OH217711   0.213   1.370   2.250  0.7428 -0.2820  0.4331
 5902TIP3    H117712   0.278   1.342   2.314  0.6698  1.7189  1.4597
 5902TIP3    H217713   0.244   1.455   2.219  0.1202 -0.6366 -1.2966
 5903TIP3   OH217714   1.898   1.016   3.066  0.0406 -0.1646 -0.2225
 5903TIP3    H117715   1.981   1.039   3.025  0.8534 -0.3165  1.2452
 5903TIP3    H217716   1.848   1.098   3.069  0.1475 -0.0631 -1.0700
 5904TIP3   OH217717   0.848   0.084   1.979 -0.7088  0.2138  0.5431
 5904TIP3    H117718   0.899   0.013   2.017 -0.4457 -1.8257 -3.1765
 5904TIP3    H217719   0.762   0.046   1.961 -1.1857  1.4207  0.1175
 5905TIP3   OH217720   4.098   4.130   1.714 -0.0411  0.0054  0.5070
 5905TIP3    H117721   4.031   4.089   1.659  0.5744  0.5486 -0.6910
 5905TIP3    H217722   4.164   4.160   1.652  0.6162  0.7628  1.5486
 5906TIP3   OH217723   3.861   3.818   4.499  0.1248  0.1891  0.3608
 5906TIP3    H117724   3.785   3.791   4.448  0.6057 -2.0812  0.7188
 5906TIP3    H217725   3.842   3.908   4.527 -2.3886 -0.3038  0.3886
 5907TIP3   OH217726   4.162   4.908   3.177  0.2773 -0.1402 -0.3075
 5907TIP3    H117727   4.228   4.961   3.223  0.6700  0.6176 -1.6824
 5907TIP3    H217728   4.193   4.818   3.187  1.1343  0.1436 -0.2989
 5908TIP3   OH217729   3.910   1.231   1.487  0.4428  0.7383  0.2628
 5908TIP3    H117730   3.826   1.276   1.501  0.2629  0.2677  0.7537
 5908TIP3    H217731   3.962   1.292   1.436 -0.8759  0.2925 -1.6984
 5909TIP3   OH217732   1.509   0.767   0.388 -0.5862  0.3905  0.3865
 5909TIP3    H117733   1.422   0.797   0.359 -1.0107 -1.1191  0.0270
 5909TIP3    H217734   1.497   0.675   0.408  1.1870 -0.1366 -0.7575
 5910TIP3   OH217735   6.037   3.824   3.562 -0.3243 -0.1418  0.3669
 5910TIP3    H117736   6.056   3.741   3.518 -1.4637 -1.5530  2.4009
 5910TIP3    H217737   6.022   3.800   3.653  0.0665  2.4318  1.1701
 5911TIP3   OH217738   5.655   1.058   3.966 -0.7083 -0.4278 -0.1666
 5911TIP3    H117739   5.610   1.006   3.899  1.2423 -0.8422 -1.2193
 5911TIP3    H217740   5.614   1.144   3.962 -2.3224 -1.1652 -0.1119
 5912TIP3   OH217741   0.543   2.957   2.079 -0.0246  0.9312  0.5886
 5912TIP3    H117742   0.543   3.020   2.152  0.5939  1.8998 -0.2187
 5912TIP3    H217743   0.569   3.009   2.003 -0.9093  0.0025 -0.3844
 5913TIP3   OH217744   2.594   1.238   1.431  0.2377 -0.2013  0.1965
 5913TIP3    H117745   2.596   1.158   1.484 -0.3238 -0.1316  0.3245
 5913TIP3    H217746   2.508   1.237   1.390  0.1352  0.4658  0.3928
 5914TIP3   OH217747   3.987   0.245   3.488  0.1986  0.0102  0.1527
 5914TIP3    H117748   3.999   0.282   3.401  0.9102  1.2828  0.7590
 5914TIP3    H217749   3.908   0.287   3.522  1.3238  1.4948  1.0624
 5915TIP3   OH217750   5.487   0.564   0.765  0.3077  0.1298 -0.5678
 5915TIP3    H117751   5.492   0.482   0.716  1.7806  0.4136 -0.9360
 5915TIP3    H217752   5.421   0.547   0.833  0.2639 -1.1988 -0.9133
 5916TIP3   OH217753   2.257   1.170   3.906  0.4950  0.1613 -0.2981
 5916TIP3    H117754   2.199   1.242   3.931  1.1898 -0.5563  4.1228
 5916TIP3    H217755   2.198   1.103   3.872 -0.6516  1.2620 -0.5652
 5917TIP3   OH217756   5.419   3.916   2.274  0.1250  0.3285 -0.0364
 5917TIP3    H117757   5.394   4.000   2.236 -0.1077 -0.1062 -0.8768
 5917TIP3    H217758   5.397   3.924   2.366  0.6232  1.3858  0.0140
 5918TIP3   OH217759   5.212   4.220   1.636  0.6878 -0.0051  0.8084
 5918TIP3    H117760   5.171   4.306   1.640 -0.9080 -0.6600 -0.1453
 5918TIP3    H217761   5.303   4.235   1.660  0.2693  1.8046  1.4304
 5919TIP3   OH217762   5.106   5.713   1.811 -0.1529 -0.6988 -0.3846
 5919TIP3    H117763   5.155   5.760   1.878 -0.0573 -1.2180 -0.0849
 5919TIP3    H217764   5.041   5.663   1.859  0.2086 -1.4257 -0.6364
 5920TIP3   OH217765   3.961   5.327   0.261  0.4499  0.4725  0.2664
 5920TIP3    H117766   3.888   5.273   0.292  1.1350 -0.1463  0.8499
 5920TIP3    H217767   3.923   5.382   0.192 -0.5173  0.0341  0.4321
 5921TIP3   OH217768   5.630   1.989   4.680  0.2074  0.2909 -0.1606
 5921TIP3    H117769   5.660   2.069   4.722 -0.8528  0.7669 -0.2614
 5921TIP3    H217770   5.537   2.005   4.663 -0.5153 -1.6859  1.5333
 5922TIP3   OH217771   3.762   5.287   1.797  0.1592 -0.0809 -0.3855
 5922TIP3    H117772   3.827   5.250   1.857 -1.2845  1.0465  2.0159
 5922TIP3    H217773   3.778   5.381   1.800 -0.4543  0.0602 -1.2010
 5923TIP3   OH217774   5.840   2.690   0.774  0.0007 -0.1790  0.2437
 5923TIP3    H117775   5.832   2.777   0.814 -3.0582 -0.1880 -0.0713
 5923TIP3    H217776   5.811   2.629   0.841  1.3753 -0.9183  0.2006
 5924TIP3   OH217777   1.987   1.104   2.372 -0.1845  0.0705 -0.7792
 5924TIP3    H117778   1.963   1.181   2.423 -1.0971 -0.6499 -0.0836
 5924TIP3    H217779   2.076   1.082   2.401 -1.0393 -0.8965  1.2632
 5925TIP3   OH217780   0.265   1.841   4.756  0.0513  0.1906  0.3726
 5925TIP3    H117781   0.237   1.840   4.664  2.1367 -0.0347 -0.3075
 5925TIP3    H217782   0.183   1.847   4.806 -1.1328  0.2608 -1.4853
 5926TIP3   OH217783   3.982   2.160   3.795  0.2148 -0.0095  0.7304
 5926TIP3    H117784   3.890   2.152   3.773  0.3206  0.8630 -0.1171
 5926TIP3    H217785   3.983   2.181   3.889 -0.3126 -2.4397  1.3324
 5927TIP3   OH217786   0.274   3.652   3.736 -0.1412  0.0768 -0.0499
 5927TIP3    H117787   0.207   3.630   3.671 -0.5231  0.0350  0.3495
 5927TIP3    H217788   0.229   3.643   3.820  0.4095 -0.0863  0.2303
 5928TIP3   OH217789   4.800   2.796   0.481 -0.1818  0.0282  0.3139
 5928TIP3    H117790   4.790   2.838   0.396  1.8894  0.4705  0.2225
 5928TIP3    H217791   4.711   2.784   0.513 -1.0063  0.0416 -1.8052
 5929TIP3   OH217792   2.521   2.844   1.732  0.4651 -0.4898 -0.1749
 5929TIP3    H117793   2.463   2.880   1.799  0.1332 -0.5121 -0.4472
 5929TIP3    H217794   2.489   2.755   1.718 -0.3801 -0.0219 -1.3869
 5930TIP3   OH217795   4.871   2.281   2.532 -0.5154  0.2624  0.5183
 5930TIP3    H117796   4.800   2.251   2.589  0.3688  0.1842  1.6177
 5930TIP3    H217797   4.837   2.361   2.492 -1.2789  0.1366  0.9019
 5931TIP3   OH217798   4.565   3.057   3.724  0.3314 -0.2263 -0.3133
 5931TIP3    H117799   4.480   3.086   3.691  0.0359 -2.6042 -1.9496
 5931TIP3    H217800   4.551   3.042   3.818 -1.0098 -0.3290 -0.5142
 5932TIP3   OH217801   3.796   0.055   3.606  0.1868 -1.0189 -0.9395
 5932TIP3    H117802   3.701   0.063   3.603 -0.0005  0.2227  2.9848
 5932TIP3    H217803   3.812  -0.029   3.649  0.7537 -0.5455 -0.1867
 5933TIP3   OH217804   2.007   2.931   2.655  0.1740 -0.5338 -0.0924
 5933TIP3    H117805   2.068   2.881   2.709 -0.3239  0.0044  1.0054
 5933TIP3    H217806   1.931   2.874   2.644 -0.1692 -0.2454  0.7024
 5934TIP3   OH217807   0.384   3.847   1.445 -0.2846  0.1041  0.2239
 5934TIP3    H117808   0.357   3.771   1.496 -2.9425  0.4658 -0.4845
 5934TIP3    H217809   0.385   3.920   1.507  1.4730 -0.2999  0.7308
 5935TIP3   OH217810   5.596   4.168   0.354 -0.3134 -0.0624  0.3713
 5935TIP3    H117811   5.600   4.101   0.285 -0.6502  2.1399 -1.9067
 5935TIP3    H217812   5.503   4.187   0.364 -0.2491 -0.1879  1.2982
 5936TIP3   OH217813   0.460   5.152   0.380  0.0587 -0.2288 -0.0659
 5936TIP3    H117814   0.547   5.129   0.346 -0.4721  0.9955 -2.5426
 5936TIP3    H217815   0.403   5.082   0.350  0.0874 -0.8870  1.3221
 5937TIP3   OH217816   3.368   2.291   4.838 -0.0016 -0.9203  0.0275
 5937TIP3    H117817   3.454   2.250   4.849  0.4412  0.2798  1.3932
 5937TIP3    H217818   3.376   2.345   4.759  2.0071  2.5112  2.2884
 5938TIP3   OH217819   3.342   2.128   4.157  0.2653 -0.1199  0.0338
 5938TIP3    H117820   3.336   2.056   4.094  1.3098  0.2437 -0.5202
 5938TIP3    H217821   3.355   2.206   4.102  1.0001  0.2342  0.6949
 5939TIP3   OH217822   1.680   5.062   3.966  0.5546 -0.0753  0.1991
 5939TIP3    H117823   1.754   5.095   4.018  0.6632  0.7236 -0.4424
 5939TIP3    H217824   1.606   5.062   4.027  0.7082  0.7265  0.3993
 5940TIP3   OH217825   4.900   0.470   4.900 -0.2147 -0.0160  0.1375
 5940TIP3    H117826   4.961   0.476   4.827 -0.1633 -2.2040 -0.0485
 5940TIP3    H217827   4.868   0.560   4.912 -0.0811  0.4401 -2.4361
 5941TIP3   OH217828   3.782   2.405   4.571  0.5049 -0.3233 -0.1883
 5941TIP3    H117829   3.707   2.360   4.533 -0.5453  1.8023 -0.8235
 5941TIP3    H217830   3.750   2.493   4.591  2.9248  0.8099 -0.8603
 5942TIP3   OH217831   2.270   0.235   4.544  0.3682 -0.0336 -0.7331
 5942TIP3    H117832   2.282   0.328   4.527  1.1859 -0.2667 -1.4761
 5942TIP3    H217833   2.204   0.207   4.481 -0.9084  0.3129  0.4039
 5943TIP3   OH217834   4.368   4.377   1.338 -0.4885  0.0984 -0.7406
 5943TIP3    H117835   4.431   4.448   1.330 -0.1440 -0.2724 -1.3422
 5943TIP3    H217836   4.421   4.298   1.349 -0.7029 -0.6139 -3.8925
 5944TIP3   OH217837   6.160   1.195   1.597 -0.2868  0.0958 -0.2394
 5944TIP3    H117838   6.088   1.258   1.600  0.2635  0.6893  0.9399
 5944TIP3    H217839   6.134   1.126   1.657  0.5244  0.7707  0.9222
 5945TIP3   OH217840   4.946   3.100   4.552  0.0469 -0.1952 -0.1334
 5945TIP3    H117841   4.904   3.096   4.467 -1.4250 -0.9941  0.5957
 5945TIP3    H217842   4.969   3.009   4.572 -0.5348 -0.1572  0.7495
 5946TIP3   OH217843   1.915   4.422   0.116 -0.0377 -0.5181 -0.2246
 5946TIP3    H117844   1.850   4.410   0.048  0.4298 -0.7237 -0.6406
 5946TIP3    H217845   1.980   4.354   0.100  0.2487 -0.3556  0.2194
 5947TIP3   OH217846   3.741   0.587   3.830 -0.2163 -0.1971 -0.2816
 5947TIP3    H117847   3.648   0.581   3.852 -0.4092 -1.4771 -1.3204
 5947TIP3    H217848   3.763   0.500   3.797  0.7869  0.7202 -2.1638
 5948TIP3   OH217849   3.847   5.967   0.476  1.1546 -0.1091 -0.5111
 5948TIP3    H117850   3.879   5.925   0.397 -0.1443 -2.8520  0.3008
 5948TIP3    H217851   3.905   5.936   0.546  0.5270 -0.1151  0.0242
 5949TIP3   OH217852   4.383   5.862   4.294 -0.2712 -0.4303 -0.4311
 5949TIP3    H117853   4.320   5.890   4.360  0.0916  0.2071 -0.3420
 5949TIP3    H217854   4.345   5.783   4.256 -1.0869 -0.0901 -0.3371
 5950TIP3   OH217855   3.144   3.516   2.823  0.2614  0.0480 -0.1967
 5950TIP3    H117856   3.191   3.435   2.843 -0.4598 -0.4509 -0.4406
 5950TIP3    H217857   3.067   3.487   2.773  0.6643  0.9969 -1.4430
 5951TIP3   OH217858   2.638   0.275   1.102 -0.2828 -0.2092 -0.0750
 5951TIP3    H117859   2.678   0.361   1.107  0.2209 -0.3016 -1.8954
 5951TIP3    H217860   2.612   0.255   1.192  0.7678  1.2687  0.5880
 5952TIP3   OH217861   3.921   0.920   2.910  0.4539 -0.4163  0.1573
 5952TIP3    H117862   3.983   0.990   2.890  0.8351 -0.9462 -0.5632
 5952TIP3    H217863   3.835   0.960   2.895  0.6880 -0.3691 -1.2315
 5953TIP3   OH217864   3.527   3.126   4.218 -0.3034  0.2085 -0.5066
 5953TIP3    H117865   3.604   3.109   4.272 -0.6181 -0.4475 -0.2538
 5953TIP3    H217866   3.506   3.218   4.235 -0.9176 -0.2027  1.1981
 5954TIP3   OH217867   5.762   5.821   4.578  0.4047  0.1260  0.6879
 5954TIP3    H117868   5.669   5.828   4.557  0.2175  1.0489  1.7594
 5954TIP3    H217869   5.800   5.773   4.504 -0.9148 -0.2644  0.2426
 5955TIP3   OH217870   3.000   0.253   1.189 -0.0572  0.2009 -0.3178
 5955TIP3    H117871   3.081   0.247   1.138 -0.4573  0.2975 -0.9769
 5955TIP3    H217872   2.996   0.170   1.237 -0.6293 -0.7396 -1.9076
 5956TIP3   OH217873   3.366   1.818   3.360  0.1572  0.5292  0.0580
 5956TIP3    H117874   3.348   1.894   3.415 -1.5613 -0.4067  0.8976
 5956TIP3    H217875   3.393   1.854   3.276 -0.2345  2.0547  0.5522
 5957TIP3   OH217876   2.079   0.949   2.098 -0.0108 -0.7354  0.3632
 5957TIP3    H117877   2.069   0.968   2.192  1.0560 -0.8830  0.5127
 5957TIP3    H217878   2.173   0.933   2.086 -0.0914 -0.4200 -0.7902
 5958TIP3   OH217879   4.173   4.688   0.522  0.3200  0.4849 -0.1335
 5958TIP3    H117880   4.169   4.742   0.601 -1.3247  0.3450 -0.0952
 5958TIP3    H217881   4.144   4.746   0.452 -1.3362 -0.2621 -0.1106
 5959TIP3   OH217882   6.079   3.031   4.455 -0.1749 -0.8630  0.1097
 5959TIP3    H117883   6.081   3.023   4.359 -1.8326  0.5623 -0.0886
 5959TIP3    H217884   5.998   2.987   4.481 -0.6622  0.3107  0.6505
 5960TIP3   OH217885   5.825   3.932   3.015  0.0024 -0.0185 -0.3655
 5960TIP3    H117886   5.831   3.953   2.922 -2.2701 -3.2774 -1.4620
 5960TIP3    H217887   5.760   3.993   3.049 -0.1179  0.3712 -1.2524
 5961TIP3   OH217888   6.105   0.176   1.822  0.2891  0.2852  0.4395
 5961TIP3    H117889   6.019   0.214   1.801  0.4617 -0.2243 -1.2926
 5961TIP3    H217890   6.165   0.218   1.761  0.9861 -0.6357  0.4852
 5962TIP3   OH217891   6.228   3.897   0.888  0.4459 -0.0911 -0.3482
 5962TIP3    H117892   6.238   3.975   0.942  1.2931 -0.2423 -0.2725
 5962TIP3    H217893   6.136   3.896   0.863  0.6068  1.4103 -1.0779
 5963TIP3   OH217894   1.900   0.366   4.029 -0.4677  0.3779  0.2900
 5963TIP3    H117895   1.960   0.426   3.984 -0.2962  0.5126  0.6895
 5963TIP3    H217896   1.815   0.410   4.026 -0.1386  1.1543  1.5001
 5964TIP3   OH217897   3.441   1.225   4.807 -0.0701  0.0794 -0.3494
 5964TIP3    H117898   3.415   1.228   4.899  1.9232  0.5668  0.2474
 5964TIP3    H217899   3.475   1.137   4.794  3.6700  1.1555  0.6895
 5965TIP3   OH217900   2.467   1.818   3.915 -0.7358 -0.6476  0.1946
 5965TIP3    H117901   2.519   1.859   3.984  0.0075  0.6870 -1.1241
 5965TIP3    H217902   2.467   1.724   3.937  1.1747 -0.5136  0.8982
 5966TIP3   OH217903   1.345   4.623   2.887  0.0922 -0.2530 -0.4257
 5966TIP3    H117904   1.344   4.530   2.908 -0.9050  0.1379  1.4125
 5966TIP3    H217905   1.376   4.627   2.796  2.7165 -2.1985  0.2565
 5967TIP3   OH217906   2.480   1.732   4.575  0.1148  0.3437 -0.4418
 5967TIP3    H117907   2.530   1.665   4.528  0.8410  0.2130  0.4724
 5967TIP3    H217908   2.523   1.814   4.552 -0.7161  0.5004 -1.4872
 5968TIP3   OH217909   5.551   2.159   0.437 -0.0432  0.3828 -0.8365
 5968TIP3    H117910   5.475   2.216   0.448  0.3392  1.1395 -1.9493
 5968TIP3    H217911   5.581   2.141   0.526  1.0775  3.6560 -0.3870
 5969TIP3   OH217912   5.078   2.821   1.136 -0.4091  0.5830  0.7800
 5969TIP3    H117913   5.160   2.836   1.184 -0.0635  0.6290  0.1929
 5969TIP3    H217914   5.105   2.820   1.044 -0.4284 -3.1505  0.6756
 5970TIP3   OH217915   2.659   1.258   1.118  0.0500  0.0000  0.0915
 5970TIP3    H117916   2.631   1.183   1.171  0.0066  0.9039  1.4156
 5970TIP3    H217917   2.750   1.273   1.143  0.6543 -0.7250 -1.5494
 5971TIP3   OH217918   5.944   4.450   3.847 -0.5868 -0.0128 -0.2275
 5971TIP3    H117919   5.868   4.508   3.842 -2.3148 -2.1417 -0.7952
 5971TIP3    H217920   5.975   4.443   3.757 -0.6800 -0.2831 -0.2421
 5972TIP3   OH217921   1.920   4.054   2.307  0.4028 -0.2231 -0.2679
 5972TIP3    H117922   2.004   4.098   2.309 -1.0583  2.7870  0.8698
 5972TIP3    H217923   1.874   4.092   2.232 -0.6262 -0.3182  0.2871
 5973TIP3   OH217924   4.633   2.616   1.293  1.1513  0.1184  0.0670
 5973TIP3    H117925   4.590   2.663   1.221  0.9633 -0.8486 -0.4797
 5973TIP3    H217926   4.723   2.602   1.262  1.2984  0.4088  0.3652
 5974TIP3   OH217927   5.093   1.211   1.873 -0.4317 -0.5804  0.2695
 5974TIP3    H117928   5.152   1.284   1.854 -2.3880  0.7809 -1.0384
 5974TIP3    H217929   5.051   1.235   1.956 -1.8760  0.4032 -0.7028
 5975TIP3   OH217930   6.215   1.400   1.196  0.7692  0.6167  0.1132
 5975TIP3    H117931   6.310   1.405   1.207  0.6907  0.3682  0.9380
 5975TIP3    H217932   6.185   1.490   1.201  1.0851  0.8598 -1.5264
 5976TIP3   OH217933   6.200   0.896   2.177 -0.4523 -0.3973  0.3758
 5976TIP3    H117934   6.291   0.927   2.168 -0.8382  0.9492  0.8359
 5976TIP3    H217935   6.208   0.808   2.214  0.6685 -0.4049  0.1518
 5977TIP3   OH217936   6.273   2.953   3.892 -0.2971 -0.4177  0.0618
 5977TIP3    H117937   6.285   2.888   3.824  2.2104  0.0817 -0.0507
 5977TIP3    H217938   6.225   3.024   3.849 -0.7339 -1.0499 -0.5236
 5978TIP3   OH217939   0.806   2.798   0.041  0.3246 -0.3520  0.0118
 5978TIP3    H117940   0.841   2.848   0.114  0.8405 -2.1301  1.0522
 5978TIP3    H217941   0.716   2.778   0.067 -0.3664  1.1973 -1.0541
 5979TIP3   OH217942   0.705   3.060   1.249 -0.1672  0.0031  0.6237
 5979TIP3    H117943   0.799   3.044   1.242 -0.2634 -1.2129  1.7012
 5979TIP3    H217944   0.666   2.998   1.187 -0.2516  0.9485 -0.2957
 5980TIP3   OH217945   4.102   3.381   1.714 -0.2767 -0.3497  0.3532
 5980TIP3    H117946   4.084   3.422   1.799 -0.0569 -0.2385  0.3463
 5980TIP3    H217947   4.046   3.429   1.652 -0.7264 -0.6851  0.4953
 5981TIP3   OH217948   5.420   5.438   5.004 -0.4960  0.1618 -0.3380
 5981TIP3    H117949   5.364   5.437   5.082  0.8385  0.1240  0.6676
 5981TIP3    H217950   5.453   5.528   5.000  1.5316 -0.4658  0.7535
 5982TIP3   OH217951   5.615   2.095   4.029  0.4966 -0.2329  0.9826
 5982TIP3    H117952   5.695   2.135   4.062  0.2455  4.6171 -3.0495
 5982TIP3    H217953   5.641   2.057   3.945 -0.9000 -1.5515  1.1113
 5983TIP3   OH217954   1.259   3.463   1.123 -0.0527 -0.6274 -0.3051
 5983TIP3    H117955   1.199   3.537   1.136 -1.1068 -1.3586 -0.8273
 5983TIP3    H217956   1.224   3.417   1.047  1.3087 -0.9734 -0.7408
 5984TIP3   OH217957   5.318   1.444   3.535 -0.4546  0.0884 -0.0802
 5984TIP3    H117958   5.346   1.391   3.460  2.0601  0.3644  0.5653
 5984TIP3    H217959   5.251   1.503   3.499  0.1977 -0.2300 -1.9622
 5985TIP3   OH217960   1.351   0.038   3.896 -0.0649 -0.1014  0.2483
 5985TIP3    H117961   1.402   0.017   3.974  1.0533  0.3124 -0.3382
 5985TIP3    H217962   1.261   0.015   3.918  0.4748 -1.5063  1.0888
 5986TIP3   OH217963   5.078   2.357   4.840  0.3132 -0.0797 -0.3648
 5986TIP3    H117964   5.105   2.413   4.768  1.0899  1.0660  0.7748
 5986TIP3    H217965   5.160   2.323   4.876  0.1353  1.3057  1.4640
 5987TIP3   OH217966   1.264   2.418   4.710 -0.3154 -0.0548 -0.1125
 5987TIP3    H117967   1.327   2.490   4.714  0.2991 -0.5215 -0.9316
 5987TIP3    H217968   1.219   2.420   4.794  0.4077  0.6449  0.2700
 5988TIP3   OH217969   6.103   0.113   4.961  0.2317  0.1898 -0.4346
 5988TIP3    H117970   6.086   0.164   5.040 -1.5796 -1.9911  0.7000
 5988TIP3    H217971   6.024   0.124   4.908 -1.2059 -2.9635  0.8114
 5989TIP3   OH217972   4.155   0.423   2.617  0.0443  0.0096 -0.1758
 5989TIP3    H117973   4.182   0.334   2.594  0.4640  0.1393 -0.1936
 5989TIP3    H217974   4.235   0.475   2.611 -0.2668  0.4605 -0.5129
 5990TIP3   OH217975   1.775   2.884   2.071  1.0858 -0.0282  0.5216
 5990TIP3    H117976   1.707   2.906   2.009  0.4867  0.0496  1.1901
 5990TIP3    H217977   1.774   2.788   2.076  0.1784  0.0122  1.4335
 5991TIP3   OH217978   4.121   0.843   3.453 -0.2542 -1.0595  0.5757
 5991TIP3    H117979   4.119   0.842   3.358  0.1984  0.4261  0.5272
 5991TIP3    H217980   4.030   0.861   3.478 -0.7983 -3.4582  0.5205
 5992TIP3   OH217981   3.815   1.665   2.647 -0.1990 -0.2401  0.1782
 5992TIP3    H117982   3.832   1.571   2.640 -0.2745 -0.1648 -1.8206
 5992TIP3    H217983   3.902   1.704   2.658 -0.0209 -0.4882 -0.2696
 5993TIP3   OH217984   2.208   0.770   3.420 -0.0253  0.0640 -0.1430
 5993TIP3    H117985   2.200   0.735   3.509 -0.1831  2.6362  0.9467
 5993TIP3    H217986   2.123   0.750   3.379 -0.0391 -0.9415  0.3346
 5994TIP3   OH217987   3.239   3.815   4.813  0.3908 -0.2917 -0.1250
 5994TIP3    H117988   3.279   3.755   4.877  0.8745 -0.1992 -0.3314
 5994TIP3    H217989   3.183   3.872   4.866 -0.1653 -0.9897  0.0616
 5995TIP3   OH217990   1.022   2.950   2.506 -0.3346  0.2476  0.1965
 5995TIP3    H117991   1.049   3.021   2.447 -1.6689  0.7835  0.1765
 5995TIP3    H217992   1.065   2.970   2.589  1.7329 -0.6265 -0.5887
 5996TIP3   OH217993   3.889   2.538   2.450  0.3046  0.0462  0.0894
 5996TIP3    H117994   3.796   2.524   2.468  0.0407  0.2551 -1.0466
 5996TIP3    H217995   3.893   2.620   2.402  1.4384  1.8477  2.9587
 5997TIP3   OH217996   3.009   5.535   1.180  0.5285  0.2734  0.0774
 5997TIP3    H117997   3.081   5.598   1.187 -0.3945  1.4868 -1.0008
 5997TIP3    H217998   2.966   5.537   1.265  0.2918  1.3945 -0.0557
 5998TIP3   OH217999   3.200   2.797   1.519 -0.3125 -0.1252  0.0741
 5998TIP3    H118000   3.146   2.719   1.505 -0.2713 -0.1816  0.2178
 5998TIP3    H218001   3.169   2.832   1.603 -0.3909  0.0635 -0.0324
 5999TIP3   OH218002   4.725   2.983   3.355  0.1439  0.0590 -0.9041
 5999TIP3    H118003   4.639   3.018   3.331 -0.5821  0.6682  2.2076
 5999TIP3    H218004   4.782   3.060   3.359  0.0782  0.0706 -0.0732
 6000TIP3   OH218005   5.873   4.966   4.792 -0.2515  0.0717  0.1171
 6000TIP3    H118006   5.789   4.933   4.760 -0.4878  0.6642  0.1130
 6000TIP3    H218007   5.850   5.038   4.851  0.2269 -0.2334  0.6912
 6001TIP3   OH218008   4.393   1.366   0.900 -0.5938  0.0173  0.0538
 6001TIP3    H118009   4.476   1.395   0.938 -0.4768  1.3312 -1.1208
 6001TIP3    H218010   4.327   1.392   0.964 -0.1292 -1.0401  0.9984
 6002TIP3   OH218011   6.063   0.473   3.421  0.1766  0.2047  0.0299
 6002TIP3    H118012   6.096   0.526   3.493  1.7432  0.6081 -0.9307
 6002TIP3    H218013   6.087   0.383   3.444  0.3381  0.2850  0.1751
 6003TIP3   OH218014   3.588   4.814   2.774 -0.2740  0.3149  0.0913
 6003TIP3    H118015   3.527   4.873   2.820 -0.1642  0.9260 -0.5217
 6003TIP3    H218016   3.675   4.843   2.803 -0.1968  0.8210 -0.6241
 6004TIP3   OH218017   3.067   4.267   1.028 -0.5462 -0.2846  0.5819
 6004TIP3    H118018   3.153   4.252   1.068 -1.2421 -0.0819  2.2352
 6004TIP3    H218019   3.061   4.362   1.019 -0.3271 -0.3369 -0.1997
 6005TIP3   OH218020   5.789   0.983   4.994  0.0519 -0.4720 -0.1007
 6005TIP3    H118021   5.751   1.025   5.071 -0.7399 -2.3624  0.6041
 6005TIP3    H218022   5.857   0.926   5.029  0.8664 -0.0808 -0.9898
 6006TIP3   OH218023   5.822   3.979   4.600 -0.1125  0.2806 -0.4771
 6006TIP3    H118024   5.829   3.986   4.695 -0.9471 -1.2569 -0.2577
 6006TIP3    H218025   5.860   4.060   4.567  2.0741  0.0145  1.0814
 6007TIP3   OH218026   2.341   0.910   0.780 -0.4933  0.0672  0.5639
 6007TIP3    H118027   2.309   0.821   0.796  0.0180 -0.2845 -0.2761
 6007TIP3    H218028   2.263   0.965   0.784 -0.9893 -0.5803 -0.0309
 6008TIP3   OH218029   3.582   3.742   3.336 -0.0652 -0.2855  0.0519
 6008TIP3    H118030   3.570   3.775   3.247  0.7611 -0.7247 -0.2284
 6008TIP3    H218031   3.526   3.665   3.340  2.6771 -2.5108 -1.3561
 6009TIP3   OH218032   4.412   5.800   3.499  0.4980  0.7386 -0.5376
 6009TIP3    H118033   4.490   5.783   3.552  0.1966 -0.9776 -0.5898
 6009TIP3    H218034   4.445   5.830   3.415  1.0072  2.4029  0.1994
 6010TIP3   OH218035   0.931   5.566   4.328 -0.2222 -0.2649  0.0004
 6010TIP3    H118036   0.949   5.592   4.237 -1.6322  0.2204 -0.1779
 6010TIP3    H218037   0.978   5.484   4.339  1.0585  0.3313 -0.7375
 6011TIP3   OH218038   5.482   4.590   4.162 -0.8615  0.0141 -0.2945
 6011TIP3    H118039   5.421   4.562   4.094 -0.7030 -0.6860 -0.1563
 6011TIP3    H218040   5.569   4.576   4.124 -0.7381  2.7147 -1.1955
 6012TIP3   OH218041   2.043   3.152   3.500 -0.2345 -0.3087 -0.0544
 6012TIP3    H118042   1.959   3.191   3.525  0.2244 -1.1603  3.3724
 6012TIP3    H218043   2.022   3.060   3.486  0.1400 -0.6416  1.3822
 6013TIP3   OH218044   0.064   2.132   0.420  0.3438 -0.2733  0.3019
 6013TIP3    H118045   0.070   2.226   0.407  0.0327 -0.2043  0.6345
 6013TIP3    H218046   0.104   2.116   0.505  0.2370 -0.4177  0.3261
 6014TIP3   OH218047   2.814   5.568   0.678 -0.1999  0.2412 -0.3364
 6014TIP3    H118048   2.868   5.618   0.740 -0.1216  1.3802 -1.2857
 6014TIP3    H218049   2.875   5.508   0.635 -0.3358 -0.8982  0.9865
 6015TIP3   OH218050   4.197   5.644   1.061  0.8682  0.4374  0.0831
 6015TIP3    H118051   4.254   5.568   1.051  0.5289  0.2614 -0.5761
 6015TIP3    H218052   4.216   5.678   1.148 -0.6985 -1.8437  1.4046
 6016TIP3   OH218053   0.541   3.818   0.240 -0.5541 -0.1377 -0.3564
 6016TIP3    H118054   0.635   3.802   0.244 -0.3339  0.9465 -0.8507
 6016TIP3    H218055   0.505   3.770   0.315  0.6527  1.2932  1.1963
 6017TIP3   OH218056   6.253   5.214   2.099  0.0529  0.2040 -0.0940
 6017TIP3    H118057   6.310   5.288   2.078  0.0128  0.6488  1.2981
 6017TIP3    H218058   6.173   5.232   2.051  0.5737  0.2868 -0.9573
 6018TIP3   OH218059   5.830   1.354   2.550 -0.1061  0.2609  0.3018
 6018TIP3    H118060   5.825   1.261   2.527  0.2422  0.7962 -2.2138
 6018TIP3    H218061   5.914   1.383   2.514 -0.1758  1.5609  1.1273
 6019TIP3   OH218062   4.727   4.660   3.096 -0.0891  0.0916  0.4515
 6019TIP3    H118063   4.801   4.717   3.115 -0.9245  0.5730  2.5586
 6019TIP3    H218064   4.653   4.721   3.084 -0.2333 -0.3788 -1.4907
 6020TIP3   OH218065   4.754   1.003   5.148  0.3667 -0.7351  0.1287
 6020TIP3    H118066   4.705   0.940   5.200  0.2214  1.2301  2.5619
 6020TIP3    H218067   4.687   1.050   5.098  0.4019 -1.8818 -1.0518
 6021TIP3   OH218068   1.007   2.018   1.622  0.1504  0.3173 -0.2482
 6021TIP3    H118069   1.060   1.953   1.574  0.6048 -1.4496  2.4298
 6021TIP3    H218070   0.919   1.980   1.624 -0.1823  1.0299 -0.7506
 6022TIP3   OH218071   4.427   2.824   0.180 -0.1114  0.2174 -0.3097
 6022TIP3    H118072   4.513   2.861   0.199  0.0804  0.0548 -0.8645
 6022TIP3    H218073   4.427   2.739   0.224  0.4349 -0.2766 -1.2327
 6023TIP3   OH218074   2.255   2.750   3.883 -0.4756  0.4628  0.0207
 6023TIP3    H118075   2.231   2.732   3.974 -0.7130  2.3343  0.3667
 6023TIP3    H218076   2.248   2.665   3.839  0.3591 -0.6235  1.8906
 6024TIP3   OH218077   2.317   4.162   0.332 -0.2050 -0.7189 -0.0434
 6024TIP3    H118078   2.240   4.134   0.381 -0.8785 -0.4417 -0.8955
 6024TIP3    H218079   2.390   4.153   0.393 -0.6877 -2.3724  0.3340
 6025TIP3   OH218080   1.662   2.794   1.159 -0.1681 -0.0980 -0.0473
 6025TIP3    H118081   1.605   2.853   1.109  0.8328  0.6369 -0.3664
 6025TIP3    H218082   1.716   2.854   1.212  0.3475 -0.7711  0.1944
 6026TIP3   OH218083   3.834   4.279   0.574  0.1761 -0.1900  0.1969
 6026TIP3    H118084   3.883   4.226   0.511  1.3471  2.2173 -1.0622
 6026TIP3    H218085   3.892   4.353   0.593 -1.2654  0.5305  2.0565
 6027TIP3   OH218086   5.976   4.706   1.452  0.5672  0.0863 -0.0683
 6027TIP3    H118087   5.966   4.715   1.547  0.3858 -1.1330  0.0497
 6027TIP3    H218088   5.901   4.652   1.425  1.3411 -0.7108 -0.6856
 6028TIP3   OH218089   4.279   0.199   1.976  0.2824 -0.1543 -0.0257
 6028TIP3    H118090   4.257   0.265   2.042 -0.2833  0.0150 -0.3778
 6028TIP3    H218091   4.332   0.135   2.023 -1.1717 -0.7016  0.9097
 6029TIP3   OH218092   0.257   1.943   1.319  0.2657 -0.4237 -0.1075
 6029TIP3    H118093   0.197   1.870   1.307 -0.2222  0.0847 -0.8353
 6029TIP3    H218094   0.256   1.989   1.235  2.4747 -0.9954 -0.5061
 6030TIP3   OH218095   6.063   0.992   1.747 -0.0067  0.0753 -0.1795
 6030TIP3    H118096   5.983   0.994   1.800 -0.3735  0.8336 -0.7376
 6030TIP3    H218097   6.129   0.954   1.804 -0.2109  1.5383  1.1028
 6031TIP3   OH218098   5.976   3.826   4.437  0.2795  0.8193 -0.0597
 6031TIP3    H118099   5.922   3.866   4.505  0.8784  1.5543  0.0016
 6031TIP3    H218100   5.959   3.878   4.359  0.5926  0.8044 -0.1393
 6032TIP3   OH218101   0.515   0.782   1.112  0.2073  0.0747 -0.0694
 6032TIP3    H118102   0.490   0.838   1.186  1.6048 -0.6173  0.9823
 6032TIP3    H218103   0.581   0.834   1.065  0.1295  0.0755 -0.1760
 6033TIP3   OH218104   2.948   5.554   0.919 -0.5411 -0.1153 -0.1662
 6033TIP3    H118105   3.017   5.499   0.881  0.5689  0.0314  1.4993
 6033TIP3    H218106   2.969   5.557   1.013 -0.9817  2.4958 -0.0549
 6034TIP3   OH218107   0.644   1.215   2.806 -0.2538 -0.4504 -0.3617
 6034TIP3    H118108   0.727   1.176   2.777  0.3085 -0.3173  1.0022
 6034TIP3    H218109   0.628   1.175   2.891 -0.5963  0.9711  0.2639
 6035TIP3   OH218110   1.624   2.979   3.452  0.4019 -0.0727  0.4797
 6035TIP3    H118111   1.558   3.008   3.389  1.6163  0.1309 -0.7203
 6035TIP3    H218112   1.613   3.038   3.527 -1.1176 -0.3859  0.5373
 6036TIP3   OH218113   4.275   3.089   1.583 -0.1452  0.0320  0.2786
 6036TIP3    H118114   4.253   3.097   1.676  1.3938  0.1557  0.6562
 6036TIP3    H218115   4.369   3.073   1.581 -0.5609 -2.8612 -1.1555
 6037TIP3   OH218116   4.191   1.936   5.113  0.7884  0.0897 -0.4651
 6037TIP3    H118117   4.179   1.900   5.201  0.8166  0.5082 -0.2882
 6037TIP3    H218118   4.132   2.011   5.109  2.0786  1.1628 -0.1593
 6038TIP3   OH218119   3.001   1.872   5.056 -0.3790  0.1006 -0.1883
 6038TIP3    H118120   3.055   1.888   4.979  0.9476 -1.2345  0.4314
 6038TIP3    H218121   2.978   1.960   5.088  0.4092  0.6792 -1.1548
 6039TIP3   OH218122   5.435   0.718   1.895  0.9873 -0.3656 -0.0708
 6039TIP3    H118123   5.521   0.729   1.935  0.6158 -0.2156  0.6969
 6039TIP3    H218124   5.374   0.717   1.969  0.4867 -2.1732 -0.4536
 6040TIP3   OH218125   0.459   0.796   3.467  0.2921  0.3170  0.3435
 6040TIP3    H118126   0.439   0.886   3.491  0.3576 -0.0377  1.8405
 6040TIP3    H218127   0.549   0.782   3.497 -0.0256 -0.5043  0.9793
 6041TIP3   OH218128   2.774   1.441   0.417 -0.3912  0.0088  0.1777
 6041TIP3    H118129   2.864   1.408   0.420 -0.9996 -1.7536  0.0929
 6041TIP3    H218130   2.756   1.455   0.324 -0.5052 -0.5151  0.1207
 6042TIP3   OH218131   5.787   3.175   1.640 -0.2167 -0.1042  0.3195
 6042TIP3    H118132   5.726   3.141   1.575 -0.3816  0.9654 -0.1108
 6042TIP3    H218133   5.752   3.147   1.724 -0.5192 -0.6956  0.0012
 6043TIP3   OH218134   6.228   4.817   3.798 -0.1278  0.2089 -0.1645
 6043TIP3    H118135   6.259   4.764   3.871 -0.1931  0.8637  0.3569
 6043TIP3    H218136   6.157   4.870   3.836  0.3822  1.1464 -0.4976
 6044TIP3   OH218137   5.413   3.592   3.939  0.1101  0.3005  0.2705
 6044TIP3    H118138   5.463   3.543   4.004  1.3320  1.1753  0.0446
 6044TIP3    H218139   5.459   3.575   3.856  0.9054  2.1692  0.2627
 6045TIP3   OH218140   0.361   4.122   0.895 -0.1909  0.1700 -0.1916
 6045TIP3    H118141   0.343   4.043   0.945 -1.9015 -0.0570 -1.0761
 6045TIP3    H218142   0.367   4.192   0.960  2.2196 -0.7325  0.6952
 6046TIP3   OH218143   3.289   4.344   1.243  0.1219 -0.1431  0.1274
 6046TIP3    H118144   3.319   4.276   1.183  1.8699  0.0210  0.7499
 6046TIP3    H218145   3.365   4.362   1.298 -0.7012  1.3969  0.8205
 6047TIP3   OH218146   0.784   4.367   3.399 -0.7018 -0.2791  0.4809
 6047TIP3    H118147   0.698   4.409   3.406 -0.1351  1.2454 -0.9999
 6047TIP3    H218148   0.846   4.439   3.407  0.3308 -0.8727 -1.5343
 6048TIP3   OH218149   0.806   2.625   0.743  0.0285 -0.0388 -0.1348
 6048TIP3    H118150   0.740   2.640   0.676  1.9300  0.5950 -1.9799
 6048TIP3    H218151   0.815   2.530   0.747  0.9146 -0.0629 -1.8965
 6049TIP3   OH218152   0.899   1.981   1.061  0.2795  0.1272  0.0735
 6049TIP3    H118153   0.935   1.894   1.046  0.1577 -0.5291  3.0116
 6049TIP3    H218154   0.804   1.970   1.052  0.3783  0.6815 -2.3953
 6050TIP3   OH218155   4.828   5.312   2.834 -0.0438 -0.5623  0.1805
 6050TIP3    H118156   4.826   5.222   2.868 -0.1861 -1.1704 -1.3223
 6050TIP3    H218157   4.743   5.323   2.792  0.9180 -0.7302 -1.9692
 6051TIP3   OH218158   4.317   4.521   1.993 -0.3177 -0.0013  0.0308
 6051TIP3    H118159   4.326   4.459   1.920  0.0115 -1.1502  1.0290
 6051TIP3    H218160   4.277   4.598   1.953 -1.9406 -1.3140 -1.0131
 6052TIP3   OH218161   4.430   4.887   4.346 -0.2228 -0.1035  0.4211
 6052TIP3    H118162   4.472   4.852   4.268  0.6980 -1.6007  1.5295
 6052TIP3    H218163   4.337   4.889   4.324  0.1474  0.9248 -1.1990
 6053TIP3   OH218164   6.252   4.577   5.027 -0.2558 -0.3086 -0.3080
 6053TIP3    H118165   6.311   4.568   5.102 -0.5322 -0.9999 -0.1660
 6053TIP3    H218166   6.167   4.599   5.067 -0.3154 -0.2824 -0.4488
 6054TIP3   OH218167   1.418   3.591   0.571 -0.6727 -0.0989 -0.7196
 6054TIP3    H118168   1.410   3.622   0.661 -0.3288  0.5350 -0.9064
 6054TIP3    H218169   1.330   3.560   0.549 -0.2745 -2.4363  0.6074
 6055TIP3   OH218170   3.033   2.633   3.384 -0.1039  0.3434  0.1652
 6055TIP3    H118171   3.124   2.656   3.367 -0.5045  0.9789 -1.2378
 6055TIP3    H218172   3.015   2.671   3.470  1.2326 -0.6919  0.9447
 6056TIP3   OH218173   5.894   3.419   4.420 -0.4364 -0.6683 -0.1678
 6056TIP3    H118174   5.818   3.409   4.477 -1.8961  1.3896 -1.5647
 6056TIP3    H218175   5.938   3.498   4.452 -0.1680 -0.6058 -0.6687
 6057TIP3   OH218176   4.216   1.711   0.778  0.3877 -0.0487 -0.4580
 6057TIP3    H118177   4.154   1.640   0.765  2.6013 -2.2277  0.0242
 6057TIP3    H218178   4.169   1.776   0.830 -1.3712 -1.6815  0.0758
 6058TIP3   OH218179   0.978   0.808   0.813  0.1155 -0.0518 -0.1749
 6058TIP3    H118180   0.978   0.899   0.842  1.3308 -0.6352  1.9179
 6058TIP3    H218181   0.889   0.777   0.831  0.1464  0.3136  0.6695
 6059TIP3   OH218182   4.725   4.522   1.002  0.1529 -0.1251 -0.4144
 6059TIP3    H118183   4.737   4.438   1.046 -0.2993  0.1890  0.3367
 6059TIP3    H218184   4.635   4.520   0.971  0.1505  0.0720 -0.4201
 6060TIP3   OH218185   4.585   0.709   2.254 -0.1578 -0.0078  0.2515
 6060TIP3    H118186   4.490   0.722   2.261 -0.6698 -3.4923  2.2121
 6060TIP3    H218187   4.594   0.624   2.210  2.0790  0.3200 -0.0358
 6061TIP3   OH218188   2.741   3.291   2.762 -0.2129  0.4958 -0.3306
 6061TIP3    H118189   2.698   3.246   2.835  0.5661 -0.3830 -0.3906
 6061TIP3    H218190   2.738   3.384   2.786 -1.4487  0.3829  0.0186
 6062TIP3   OH218191   0.540   2.970   1.035  0.4961  0.2849 -0.7138
 6062TIP3    H118192   0.599   2.934   0.969  0.6663 -0.1343 -0.3345
 6062TIP3    H218193   0.543   3.065   1.019  1.0552  0.2471 -0.8777
 6063TIP3   OH218194   0.408   2.667   3.830 -0.2182 -0.5324  0.3962
 6063TIP3    H118195   0.472   2.738   3.838 -1.1639  0.3050  0.8941
 6063TIP3    H218196   0.379   2.671   3.738  0.6147 -1.0840  0.1018
 6064TIP3   OH218197   5.042   2.325   3.609  0.0766  0.0670  0.1254
 6064TIP3    H118198   5.004   2.399   3.563 -0.8760  0.0759  0.8979
 6064TIP3    H218199   5.108   2.290   3.549 -0.9200  0.2565 -1.1058
 6065TIP3   OH218200   3.150   3.915   2.955  0.2747  0.2099 -0.3243
 6065TIP3    H118201   3.062   3.950   2.966  0.2969  0.7039 -1.5242
 6065TIP3    H218202   3.195   3.979   2.900  0.7006 -1.0563 -1.5354
 6066TIP3   OH218203   0.672  -0.012   4.262 -0.1445  0.3331 -0.0723
 6066TIP3    H118204   0.642   0.054   4.324  1.6877  1.6493 -0.5002
 6066TIP3    H218205   0.767  -0.002   4.260 -0.0543 -0.3179 -2.3376
 6067TIP3   OH218206   6.036   2.247   3.838 -0.2703  0.4229  0.0917
 6067TIP3    H118207   6.059   2.337   3.860 -0.6783  1.0150 -1.6912
 6067TIP3    H218208   6.010   2.251   3.746 -3.1919 -0.9670  0.7340
 6068TIP3   OH218209   2.193   4.478   0.705 -0.4983 -0.2115  0.3150
 6068TIP3    H118210   2.197   4.383   0.704  0.1922 -0.2244  1.7075
 6068TIP3    H218211   2.157   4.500   0.790  0.3718  0.7868  0.4579
 6069TIP3   OH218212   1.576   5.906   2.430  0.0981  0.2501 -0.3344
 6069TIP3    H118213   1.496   5.883   2.476  0.9918 -0.4009  0.9557
 6069TIP3    H218214   1.575   5.852   2.351 -0.3471 -0.3386  0.0688
 6070TIP3   OH218215   4.678   4.978   4.411  0.2403 -0.1662  0.4359
 6070TIP3    H118216   4.726   4.912   4.361 -0.6781 -1.4932  1.2445
 6070TIP3    H218217   4.586   4.954   4.400 -0.1946  1.5693 -0.0264
 6071TIP3   OH218218   1.759   3.727   4.937  0.0327  0.2117 -0.4937
 6071TIP3    H118219   1.849   3.750   4.958 -0.4436  1.7697  0.0222
 6071TIP3    H218220   1.709   3.750   5.016 -0.9357  0.2527 -1.0960
 6072TIP3   OH218221   0.046   3.668   0.184 -0.1449 -0.0627  0.0294
 6072TIP3    H118222   0.049   3.681   0.279 -0.1574  0.4823 -0.0437
 6072TIP3    H218223   0.121   3.718   0.151 -0.3273  0.0077 -0.2780
 6073TIP3   OH218224   3.959   1.317   3.091 -0.1635 -0.2708  0.1233
 6073TIP3    H118225   4.000   1.399   3.118  2.3427 -1.5605  0.5787
 6073TIP3    H218226   3.961   1.319   2.996 -1.1535  0.6344  0.1028
 6074TIP3   OH218227   4.869   4.916   2.316  0.1108 -0.2495  0.2513
 6074TIP3    H118228   4.877   4.918   2.220  0.3984  0.5279  0.2861
 6074TIP3    H218229   4.960   4.921   2.347  0.0292 -0.7086  0.5616
 6075TIP3   OH218230   4.242   1.524   4.442 -0.3770 -0.0954 -0.2607
 6075TIP3    H118231   4.313   1.584   4.418  0.5759 -1.4225 -0.9134
 6075TIP3    H218232   4.169   1.551   4.387 -0.5182  1.4965  0.6394
 6076TIP3   OH218233   4.260   1.019   4.120 -0.2498 -0.0207 -0.2910
 6076TIP3    H118234   4.355   1.028   4.111 -0.0380 -1.3347  0.3021
 6076TIP3    H218235   4.225   1.105   4.098  1.2067  1.0551  1.3998
 6077TIP3   OH218236   6.136   5.137   4.125 -0.2155  0.4698 -0.0161
 6077TIP3    H118237   6.090   5.108   4.046 -1.9354 -0.2170  1.1953
 6077TIP3    H218238   6.133   5.062   4.184  2.3292  0.4713  0.2324
 6078TIP3   OH218239   5.794   1.156   4.795 -0.2405  0.1777  0.5778
 6078TIP3    H118240   5.866   1.115   4.746 -0.0004  0.8779  0.3353
 6078TIP3    H218241   5.782   1.099   4.871  0.4456 -0.0535  0.5224
 6079TIP3   OH218242   3.287   0.148   2.280 -0.2171 -0.0449 -0.3384
 6079TIP3    H118243   3.361   0.184   2.330 -0.6666 -1.8625  1.8030
 6079TIP3    H218244   3.294   0.053   2.292 -2.1021 -0.3429 -1.2853
 6080TIP3   OH218245   6.196   2.799   4.829 -0.1086  0.8745  0.4583
 6080TIP3    H118246   6.247   2.737   4.777 -1.1444  1.2671 -1.0640
 6080TIP3    H218247   6.253   2.818   4.904  1.2687  0.0200 -0.3095
 6081TIP3   OH218248   4.126   5.352   1.572 -0.1222 -0.2072  0.0341
 6081TIP3    H118249   4.077   5.315   1.500  0.3790  0.1335 -0.4948
 6081TIP3    H218250   4.180   5.280   1.604  0.2717 -0.1500 -0.4825
 6082TIP3   OH218251   0.947   2.125   0.012 -0.4739  0.1219 -0.1572
 6082TIP3    H118252   1.036   2.137  -0.021 -0.7471  0.4495 -0.7974
 6082TIP3    H218253   0.939   2.188   0.083 -0.6546  1.1130 -1.0283
 6083TIP3   OH218254   3.685   2.696   1.699 -0.6819  0.7633 -0.5072
 6083TIP3    H118255   3.710   2.604   1.690 -0.1981  0.9199 -0.8209
 6083TIP3    H218256   3.757   2.744   1.659 -0.6323  1.3100  0.2268
 6084TIP3   OH218257   6.275   2.026   5.122  0.5686  0.2158  0.4788
 6084TIP3    H118258   6.342   2.091   5.100  0.7783  0.1718  0.9604
 6084TIP3    H218259   6.323   1.959   5.172  0.4631 -0.5800 -0.4566
 6085TIP3   OH218260   4.394   4.995   2.039  0.6615  0.1132  0.0048
 6085TIP3    H118261   4.426   5.082   2.014 -1.4030  1.1205  0.6191
 6085TIP3    H218262   4.404   4.991   2.134 -0.4431  0.2397  0.1440
 6086TIP3   OH218263   0.828   4.343   4.755 -0.7096 -0.3612  0.4561
 6086TIP3    H118264   0.770   4.378   4.688 -0.7741  1.5553  1.4237
 6086TIP3    H218265   0.769   4.309   4.823 -0.6795 -0.3532  0.4866
 6087TIP3   OH218266   0.564   0.097   2.446  0.6960  0.2103 -0.5593
 6087TIP3    H118267   0.652   0.061   2.461 -0.0324 -0.7861  1.9186
 6087TIP3    H218268   0.543   0.143   2.527 -1.4330 -0.4210 -0.6965
 6088TIP3   OH218269   5.691   3.907   1.301 -0.3135 -0.1854 -0.1793
 6088TIP3    H118270   5.702   3.973   1.370 -0.5317 -1.0372  0.6955
 6088TIP3    H218271   5.720   3.826   1.342  1.1121 -0.4482 -1.6293
 6089TIP3   OH218272   2.818   3.830   2.996 -0.5745 -0.3863 -0.1271
 6089TIP3    H118273   2.821   3.913   3.044 -1.5007  0.0135 -0.7283
 6089TIP3    H218274   2.725   3.808   2.993 -0.4517 -0.7833 -1.0927
 6090TIP3   OH218275   5.429   2.358   0.275 -0.0519  0.0634 -0.5552
 6090TIP3    H118276   5.349   2.332   0.320 -0.3912  0.6002 -0.8285
 6090TIP3    H218277   5.456   2.280   0.227  1.5064 -1.2402  2.1938
 6091TIP3   OH218278   0.436   4.943   1.192 -0.4435  0.4592  0.1596
 6091TIP3    H118279   0.359   4.999   1.186 -1.5969 -1.1787 -1.7952
 6091TIP3    H218280   0.459   4.924   1.101  0.8459 -0.9567  0.7358
 6092TIP3   OH218281   3.187   4.530   3.713 -0.1300 -0.8355 -0.3230
 6092TIP3    H118282   3.277   4.533   3.744 -0.5676 -0.1560  0.9558
 6092TIP3    H218283   3.134   4.522   3.793 -1.2758  0.1382 -0.9525
 6093TIP3   OH218284   3.364   0.053   1.905 -0.2685 -0.0655  0.1862
 6093TIP3    H118285   3.414   0.120   1.952 -0.0009 -1.9859  2.8521
 6093TIP3    H218286   3.306   0.103   1.848  1.2897  2.3604  0.5526
 6094TIP3   OH218287   2.345   4.823   4.594  0.1885 -0.7115 -0.2824
 6094TIP3    H118288   2.367   4.881   4.667  0.6087  0.1315 -1.0665
 6094TIP3    H218289   2.419   4.829   4.534 -0.7154 -0.3623 -1.4076
 6095TIP3   OH218290   3.010   1.160   0.898 -0.2356 -0.3405 -0.4652
 6095TIP3    H118291   3.037   1.230   0.838  2.8130 -0.9652  0.0064
 6095TIP3    H218292   2.972   1.206   0.973 -1.0837  0.6034 -1.4312
 6096TIP3   OH218293   3.329   5.916   2.132 -0.0943 -0.4656  0.0554
 6096TIP3    H118294   3.414   5.875   2.115  0.3431 -0.0491  1.1237
 6096TIP3    H218295   3.316   5.906   2.226 -0.7370  0.4123  0.0797
 6097TIP3   OH218296   3.976   5.363   4.194 -0.1686 -0.2273  0.6626
 6097TIP3    H118297   3.962   5.456   4.211 -0.1490 -0.2991  1.0708
 6097TIP3    H218298   3.905   5.319   4.241  0.7333 -0.5231  1.8083
 6098TIP3   OH218299   0.114   5.055   1.859  0.0889 -0.4459  0.5362
 6098TIP3    H118300   0.181   4.991   1.836 -1.1257 -1.6021  0.0675
 6098TIP3    H218301   0.163   5.135   1.879  1.5180 -0.8777 -1.0004
 6099TIP3   OH218302   5.546   1.621   0.830  0.4170 -0.1847 -0.2226
 6099TIP3    H118303   5.527   1.711   0.803  0.6015 -0.1949 -0.3915
 6099TIP3    H218304   5.637   1.624   0.860  0.4390 -0.3258 -0.2778
 6100TIP3   OH218305   3.440   0.084   3.808 -0.1276  0.1526 -0.2443
 6100TIP3    H118306   3.452   0.091   3.713  2.5795  1.1796  0.0753
 6100TIP3    H218307   3.510   0.025   3.837 -1.8253 -1.3401  1.0032
 6101TIP3   OH218308   4.983   1.110   3.540 -0.3090 -0.1713 -0.1312
 6101TIP3    H118309   4.918   1.165   3.496 -0.6525 -0.5444 -0.0999
 6101TIP3    H218310   4.986   1.030   3.488 -0.4441 -0.4644  0.2989
 6102TIP3   OH218311   0.322   0.864   4.956 -0.3362  0.0249 -0.3918
 6102TIP3    H118312   0.246   0.805   4.955  0.7434 -1.4363  0.4504
 6102TIP3    H218313   0.317   0.911   4.872 -1.1132 -1.4210 -1.1973
 6103TIP3   OH218314   3.636   2.133   3.740  0.1192 -0.2031 -0.4365
 6103TIP3    H118315   3.589   2.204   3.695  0.5423  0.5219  0.2326
 6103TIP3    H218316   3.610   2.142   3.831  0.6437 -0.5381 -0.2496
 6104TIP3   OH218317   2.680   2.280   3.569  0.3808  0.3084 -0.2255
 6104TIP3    H118318   2.724   2.299   3.651  2.0749  0.5324 -1.1494
 6104TIP3    H218319   2.629   2.201   3.587  1.5070 -0.2166  0.7719
 6105TIP3   OH218320   3.852   0.104   1.311  0.4153  0.4412 -0.3928
 6105TIP3    H118321   3.879   0.021   1.273  0.3333 -0.8791  2.2510
 6105TIP3    H218322   3.905   0.170   1.264  0.7208 -1.0627 -2.2990
 6106TIP3   OH218323   1.616   1.178   3.213 -1.2506 -0.1365 -0.2595
 6106TIP3    H118324   1.640   1.088   3.232  0.3326  0.7174  2.3079
 6106TIP3    H218325   1.692   1.214   3.167 -1.0376  0.3765  0.4722
 6107TIP3   OH218326   1.072   1.313   0.187  0.2720  0.2270 -0.7898
 6107TIP3    H118327   1.143   1.318   0.250  0.9559  0.0338 -1.5318
 6107TIP3    H218328   1.068   1.220   0.163 -0.5861  0.1430 -0.3575
 6108TIP3   OH218329   2.517   5.519   2.392 -0.2659  0.0591  0.3495
 6108TIP3    H118330   2.474   5.524   2.306 -0.2789 -0.4786  0.3194
 6108TIP3    H218331   2.595   5.466   2.377 -0.0264  0.3412  0.5801
 6109TIP3   OH218332   4.593   4.773   4.110 -0.7607 -0.0735  0.1678
 6109TIP3    H118333   4.542   4.720   4.049  0.3234 -0.7088 -0.2072
 6109TIP3    H218334   4.653   4.712   4.152  0.5574  0.8527 -0.3156
 6110TIP3   OH218335   4.556   2.796   3.947  0.2278 -0.4538  0.0824
 6110TIP3    H118336   4.651   2.801   3.935 -0.0390  0.3502 -2.4155
 6110TIP3    H218337   4.529   2.725   3.888 -1.0569  2.1423 -2.7501
 6111TIP3   OH218338   1.345   0.770   4.009 -0.1908  0.3836  0.2407
 6111TIP3    H118339   1.322   0.761   3.916  1.1049 -0.7302 -0.0019
 6111TIP3    H218340   1.437   0.795   4.010 -0.0851  0.0249  1.2304
 6112TIP3   OH218341   0.055   1.350   4.416 -0.5296 -0.0040 -0.1894
 6112TIP3    H118342   0.008   1.302   4.485 -1.2305 -0.1148 -0.7326
 6112TIP3    H218343   0.138   1.375   4.456  0.0579 -2.0726 -0.0280
 6113TIP3   OH218344   4.481   1.535   1.311  0.8489 -0.1842  0.4887
 6113TIP3    H118345   4.471   1.630   1.310  1.3071 -0.1323 -0.0001
 6113TIP3    H218346   4.486   1.510   1.218  1.3913 -0.6066  0.6250
 6114TIP3   OH218347   4.606   1.065   1.727  0.0861  0.1887 -0.3802
 6114TIP3    H118348   4.680   1.095   1.674 -0.5922  2.9519  0.0742
 6114TIP3    H218349   4.535   1.052   1.664  0.5098 -1.0026 -0.6365
 6115TIP3   OH218350   0.125   2.212   2.015 -0.2827 -0.2079  0.1240
 6115TIP3    H118351   0.206   2.197   1.965 -0.2187  0.7409 -0.0675
 6115TIP3    H218352   0.106   2.127   2.055  0.3969 -0.6375 -0.4370
 6116TIP3   OH218353   0.511   4.754   0.324  0.2385  0.7560 -0.1817
 6116TIP3    H118354   0.463   4.674   0.347 -0.3558  0.9231 -0.8119
 6116TIP3    H218355   0.589   4.752   0.380 -0.6428  0.6355  1.0782
 6117TIP3   OH218356   3.656   1.362   3.144  0.0965  0.2169  0.2578
 6117TIP3    H118357   3.640   1.436   3.204  0.5793  0.2226  0.3815
 6117TIP3    H218358   3.745   1.377   3.111  0.2137 -0.3337  0.3166
 6118TIP3   OH218359   6.089   1.246   0.998 -0.3811  0.4543  0.4000
 6118TIP3    H118360   6.154   1.271   1.063 -1.1646  3.0916  0.2673
 6118TIP3    H218361   6.117   1.291   0.918 -0.3940 -1.3545 -0.6988
 6119TIP3   OH218362   4.678   3.703   1.512 -0.1288  0.0506  0.2289
 6119TIP3    H118363   4.750   3.729   1.569 -0.0409 -0.7575  0.4985
 6119TIP3    H218364   4.670   3.774   1.449 -0.5443  1.2219  1.5426
 6120TIP3   OH218365   3.993   1.209   5.032 -0.0963  0.6979  0.0468
 6120TIP3    H118366   3.914   1.241   4.988 -0.9367  0.4933  1.3492
 6120TIP3    H218367   3.975   1.117   5.050 -0.5580  1.1950  2.3988
 6121TIP3   OH218368   2.504   2.014   3.328  0.5364 -0.2845 -0.3402
 6121TIP3    H118369   2.582   2.040   3.278  1.8896 -1.5682  1.0143
 6121TIP3    H218370   2.439   1.993   3.261  1.3794  0.6410 -1.5104
 6122TIP3   OH218371   4.070   0.131   4.365  0.1139 -0.0771  0.1598
 6122TIP3    H118372   4.089   0.168   4.279  0.1330 -2.4756 -0.9725
 6122TIP3    H218373   4.062   0.206   4.423  0.1033  1.6309 -1.9325
 6123TIP3   OH218374   3.996   3.765   5.050  0.2407 -0.3620  0.6428
 6123TIP3    H118375   4.056   3.785   4.978 -0.3118 -0.0799  0.2482
 6123TIP3    H218376   3.919   3.727   5.007 -0.3377  0.3432  1.0121
 6124TIP3   OH218377   5.282   1.144   3.098 -0.8774  0.1800  0.2628
 6124TIP3    H118378   5.360   1.143   3.042 -0.8980 -1.3797  0.2373
 6124TIP3    H218379   5.227   1.075   3.063 -1.1247 -0.4620  1.8802
 6125TIP3   OH218380   2.258   1.889   1.285  0.2944 -0.0313 -0.1361
 6125TIP3    H118381   2.331   1.951   1.292  0.0708  0.1069  1.3962
 6125TIP3    H218382   2.180   1.944   1.298 -0.0313 -0.3067 -0.9238
 6126TIP3   OH218383   4.494   4.565   0.585 -0.5536 -0.1033  0.1749
 6126TIP3    H118384   4.584   4.594   0.572  0.3501 -1.8856  1.8731
 6126TIP3    H218385   4.456   4.564   0.498  1.1523  0.4832 -0.6114
 6127TIP3   OH218386   2.351   1.113   2.642  0.7283 -0.3780 -0.3736
 6127TIP3    H118387   2.309   1.192   2.676  0.6853 -0.7107  0.3750
 6127TIP3    H218388   2.443   1.123   2.666  0.2556 -1.9522  2.5853
 6128TIP3   OH218389   0.434   5.438   3.983 -0.0862 -0.2693 -0.0495
 6128TIP3    H118390   0.453   5.425   4.076 -1.1377  0.8171  0.3476
 6128TIP3    H218391   0.408   5.352   3.951 -2.0735 -0.2074  1.2693
 6129TIP3   OH218392   0.848   4.914   3.528 -0.0033 -0.1932  0.6607
 6129TIP3    H118393   0.769   4.933   3.476  0.7387 -0.5179 -0.6438
 6129TIP3    H218394   0.898   4.853   3.473  0.9987 -0.2649  1.6245
 6130TIP3   OH218395   3.094   2.949   5.148  0.2039 -0.2139 -0.7232
 6130TIP3    H118396   3.063   2.908   5.068 -0.1222  0.6289 -1.0491
 6130TIP3    H218397   3.020   2.943   5.209  0.2294 -0.2981 -0.7011
 6131TIP3   OH218398   0.442   0.917   2.246 -0.4321 -0.5629 -0.1762
 6131TIP3    H118399   0.486   0.999   2.267  0.1952 -1.1139  0.7085
 6131TIP3    H218400   0.353   0.927   2.279 -0.1367 -0.5201  0.6069
 6132TIP3   OH218401   1.855   5.394   0.535  0.5039 -0.0041  0.1166
 6132TIP3    H118402   1.889   5.313   0.497  0.4932  0.5031 -1.0139
 6132TIP3    H218403   1.910   5.463   0.497 -0.7897  0.6965 -0.5685
 6133TIP3   OH218404   6.167   0.709   1.265 -0.0089 -0.1650 -0.4000
 6133TIP3    H118405   6.102   0.646   1.233  0.2786 -0.6358 -0.0763
 6133TIP3    H218406   6.228   0.656   1.317  1.2683  0.0871 -1.6049
 6134TIP3   OH218407   4.712   0.156   0.194  0.5589 -0.0152  0.3897
 6134TIP3    H118408   4.667   0.078   0.162 -0.6626  0.9808 -0.4376
 6134TIP3    H218409   4.770   0.182   0.123  0.1232  0.4505  0.1927
 6135TIP3   OH218410   4.848   2.463   3.196 -0.4710  0.1716 -0.2173
 6135TIP3    H118411   4.780   2.396   3.192 -0.4339 -0.1694  2.6019
 6135TIP3    H218412   4.816   2.534   3.141 -3.0470 -0.0462  0.8694
 6136TIP3   OH218413   1.932   5.875   0.065  0.3374 -1.4182  0.4993
 6136TIP3    H118414   2.005   5.832   0.019  0.7605 -0.8286  0.6064
 6136TIP3    H218415   1.893   5.932  -0.001 -0.1127 -1.8306  0.4068
 6137TIP3   OH218416   0.521   5.262   1.222  0.3979 -0.1335 -0.2225
 6137TIP3    H118417   0.611   5.231   1.232  1.5122  2.5148 -1.0945
 6137TIP3    H218418   0.480   5.199   1.163  1.8852 -1.0316 -0.3370
 6138TIP3   OH218419   1.613   3.556  -0.011 -0.0135 -0.3566  0.3030
 6138TIP3    H118420   1.635   3.576   0.080 -0.3777  0.8571  0.1464
 6138TIP3    H218421   1.695   3.529  -0.051  0.0472 -1.4063  1.1201
 6139TIP3   OH218422   4.180   5.930   4.471 -0.3521 -0.1912 -0.1608
 6139TIP3    H118423   4.093   5.911   4.437 -0.2471 -0.3528 -0.3439
 6139TIP3    H218424   4.166   5.996   4.539 -0.5234  0.4419 -0.7943
 6140TIP3   OH218425   3.334   3.102   4.554 -0.0460 -0.2352  0.0703
 6140TIP3    H118426   3.305   3.033   4.495 -0.1853 -0.1525  0.0418
 6140TIP3    H218427   3.424   3.119   4.528 -0.6168  0.9850 -1.2542
 6141TIP3   OH218428   4.523   5.587   2.176 -1.1226 -0.0452  0.1600
 6141TIP3    H118429   4.565   5.665   2.213 -1.3098 -1.0141  2.5889
 6141TIP3    H218430   4.431   5.595   2.202 -1.4879 -0.2890 -1.0034
 6142TIP3   OH218431   2.991   1.817   4.514  1.1117  0.8823 -0.5877
 6142TIP3    H118432   2.911   1.802   4.463  0.6297  1.5641 -0.0431
 6142TIP3    H218433   3.028   1.730   4.527 -1.9027 -0.0847  2.9852
 6143TIP3   OH218434   6.346   4.090   3.038  0.0876  0.1910  0.7518
 6143TIP3    H118435   6.276   4.043   3.083  0.0262 -0.0450  0.4183
 6143TIP3    H218436   6.315   4.180   3.032 -0.2777  0.0455  0.4268
 6144TIP3   OH218437   3.867   1.015   1.655  0.7213  0.6583 -0.4122
 6144TIP3    H118438   3.886   1.095   1.606 -1.7781  0.4293 -1.8920
 6144TIP3    H218439   3.778   1.027   1.687  0.6086 -1.2059  0.0649
 6145TIP3   OH218440   0.916   0.047   0.797  0.6182  0.0735  0.4501
 6145TIP3    H118441   0.843   0.109   0.797  1.0193  0.5911 -1.2891
 6145TIP3    H218442   0.979   0.084   0.859  0.0890  0.4376  0.7846
 6146TIP3   OH218443   0.140   2.773   1.775  0.2219 -0.6170 -0.3768
 6146TIP3    H118444   0.234   2.759   1.781  0.6004  1.9685  1.4374
 6146TIP3    H218445   0.125   2.800   1.684  1.5991  0.9776 -0.1734
 6147TIP3   OH218446   4.966   3.169   2.290 -0.0537 -0.3945  0.0873
 6147TIP3    H118447   4.980   3.261   2.311 -0.9429 -0.5051  1.2949
 6147TIP3    H218448   5.054   3.134   2.273  0.4491  0.3326  1.1104
 6148TIP3   OH218449   5.175   3.036   2.706  0.1147  0.1425 -0.8574
 6148TIP3    H118450   5.172   2.942   2.725 -2.0518  0.1801 -0.7939
 6148TIP3    H218451   5.224   3.042   2.624  1.0305 -0.9354 -0.4228
 6149TIP3   OH218452   4.097   2.498   1.464 -0.0796  0.2544 -0.5745
 6149TIP3    H118453   4.164   2.507   1.532 -1.7317 -0.8434  1.3252
 6149TIP3    H218454   4.137   2.444   1.396  1.9093  2.0814 -0.9387
 6150TIP3   OH218455   1.665   3.947   3.952  0.0539  0.1144 -0.1937
 6150TIP3    H118456   1.590   3.967   3.895  0.1538 -0.9084 -0.7113
 6150TIP3    H218457   1.665   3.852   3.958 -0.8691  0.2229  2.8104
 6151TIP3   OH218458   3.255   2.131   4.406  0.0936  0.4629  0.2701
 6151TIP3    H118459   3.246   2.040   4.435 -0.0958  0.5318  0.4275
 6151TIP3    H218460   3.290   2.125   4.317 -2.4100  0.1533 -0.7815
 6152TIP3   OH218461   1.616   5.530   0.981 -0.3898 -0.2162  0.3226
 6152TIP3    H118462   1.581   5.443   1.001  0.4453 -0.2311  1.8768
 6152TIP3    H218463   1.681   5.515   0.912  1.1583 -1.1650  1.9069
 6153TIP3   OH218464   4.797   1.627   1.243 -0.4690  0.4546  0.7327
 6153TIP3    H118465   4.706   1.646   1.223 -0.1030  0.6143 -0.9707
 6153TIP3    H218466   4.843   1.639   1.160  0.9519 -0.5988  1.3173
 6154TIP3   OH218467   6.287   2.080   3.801  0.1445 -0.3977 -0.0127
 6154TIP3    H118468   6.217   2.142   3.824 -0.0082 -0.2638 -0.8135
 6154TIP3    H218469   6.241   2.005   3.763  0.4785  0.0821 -1.4077
 6155TIP3   OH218470   2.712   3.000   2.667 -0.4108 -0.3891  0.1181
 6155TIP3    H118471   2.638   3.059   2.663  0.7455  1.2034  1.1965
 6155TIP3    H218472   2.758   3.024   2.747  1.2795 -1.3135 -0.5213
 6156TIP3   OH218473   2.314   0.868   3.016  0.9961 -0.5158  0.1837
 6156TIP3    H118474   2.262   0.925   2.960  1.6073  1.1254  1.2238
 6156TIP3    H218475   2.353   0.804   2.957  1.0709  0.7377 -1.1652
 6157TIP3   OH218476   1.592   5.133   2.458  0.1440  0.1563 -0.1393
 6157TIP3    H118477   1.573   5.108   2.548 -1.3736 -0.7176 -0.6534
 6157TIP3    H218478   1.682   5.106   2.443 -0.7320 -3.2517 -0.0026
 6158TIP3   OH218479   0.873   1.468   1.468 -0.1668  0.2480  0.5632
 6158TIP3    H118480   0.861   1.543   1.411 -0.0674  0.0323  0.2594
 6158TIP3    H218481   0.869   1.504   1.557  1.1020  0.7986  0.4177
 6159TIP3   OH218482   3.196   3.036   3.215 -0.2398 -0.1180 -0.1112
 6159TIP3    H118483   3.110   3.078   3.205 -0.0430  0.4859  0.6225
 6159TIP3    H218484   3.251   3.104   3.253  0.5893 -0.4860 -0.6390
 6160TIP3   OH218485   5.053   2.245   4.425 -0.3394  0.2096 -0.0279
 6160TIP3    H118486   5.101   2.302   4.485 -0.7001  0.4665  0.0242
 6160TIP3    H218487   5.006   2.184   4.482  1.0042 -0.9324 -0.1246
 6161TIP3   OH218488   2.718   5.827   2.581 -0.3919  0.0499 -0.3104
 6161TIP3    H118489   2.793   5.804   2.525  0.2114  1.4823 -0.1295
 6161TIP3    H218490   2.723   5.922   2.590  0.3082 -0.1837  3.2471
 6162TIP3   OH218491   4.662   4.522   2.846 -0.1045  0.3189  0.4080
 6162TIP3    H118492   4.700   4.572   2.918 -0.3935 -2.0663  2.3284
 6162TIP3    H218493   4.717   4.444   2.839 -0.8166 -0.0875 -1.1730
 6163TIP3   OH218494   5.820   3.293   2.127 -0.3348  0.2934  0.3155
 6163TIP3    H118495   5.874   3.265   2.201 -1.2085  0.0819  0.8870
 6163TIP3    H218496   5.878   3.350   2.076  0.9062 -1.0885  0.1034
 6164TIP3   OH218497   6.312   5.667   3.923 -0.2023 -0.4394 -0.4455
 6164TIP3    H118498   6.364   5.686   4.001 -0.2182 -1.3886 -0.1978
 6164TIP3    H218499   6.228   5.711   3.939  0.6852  1.6480 -1.1314
 6165TIP3   OH218500   1.657   5.570   1.718 -0.1984 -0.0108 -0.4896
 6165TIP3    H118501   1.690   5.522   1.643 -1.4347 -0.2989 -0.8657
 6165TIP3    H218502   1.607   5.505   1.768 -0.2471  0.4225  0.0340
 6166TIP3   OH218503   3.001   4.247   1.910  0.1703  0.5426 -0.3459
 6166TIP3    H118504   2.916   4.218   1.943  0.1352  1.7633  0.6801
 6166TIP3    H218505   2.988   4.254   1.815 -0.6788  0.0933 -0.2751
 6167TIP3   OH218506   2.229   0.466   5.076  0.5872  0.1869 -0.1885
 6167TIP3    H118507   2.280   0.471   4.995  0.4310 -0.7747 -0.3597
 6167TIP3    H218508   2.138   0.459   5.047  0.6189 -1.4300  0.0129
 6168TIP3   OH218509   3.773   5.669   1.542  0.0159  0.6745 -0.1188
 6168TIP3    H118510   3.708   5.616   1.495 -0.7442  0.7638  0.7797
 6168TIP3    H218511   3.759   5.646   1.634  1.7576  0.1732  0.0505
 6169TIP3   OH218512   3.063   0.738   4.578  0.6486  0.0029 -0.0302
 6169TIP3    H118513   3.042   0.767   4.667 -1.8525  0.5124 -0.7247
 6169TIP3    H218514   3.030   0.808   4.521 -1.1370 -1.9486 -1.5305
 6170TIP3   OH218515   3.231   0.594   1.291 -0.0644  0.1522  0.6595
 6170TIP3    H118516   3.286   0.636   1.357 -1.6519  1.0285  1.4736
 6170TIP3    H218517   3.224   0.503   1.321  0.5366  0.1522  0.8147
 6171TIP3   OH218518   4.600   3.457   3.705 -0.2583 -0.0430 -0.2374
 6171TIP3    H118519   4.606   3.552   3.704  2.3362 -0.1328  0.6271
 6171TIP3    H218520   4.676   3.428   3.754 -0.2653 -2.6278 -1.5638
 6172TIP3   OH218521   1.238   3.603   2.650  0.3164 -0.0629 -0.2342
 6172TIP3    H118522   1.192   3.584   2.731  1.7156  0.0819  0.6328
 6172TIP3    H218523   1.274   3.519   2.621  0.7408  0.0646 -0.0944
 6173TIP3   OH218524   0.566   1.488   0.958  0.0798 -0.6147  0.6130
 6173TIP3    H118525   0.570   1.425   1.030  3.1457 -0.4450  0.7517
 6173TIP3    H218526   0.573   1.573   1.001  0.1751 -0.4209  0.2155
 6174TIP3   OH218527   2.946   0.423   5.089  0.2277  0.1705 -0.2823
 6174TIP3    H118528   2.958   0.344   5.037 -0.1982 -1.1003  1.4603
 6174TIP3    H218529   2.989   0.405   5.172  0.3394  1.8830  0.0828
 6175TIP3   OH218530   4.986   2.467   1.042 -0.7125  0.4919 -0.0747
 6175TIP3    H118531   5.022   2.526   0.976 -1.6770  1.4660  0.2436
 6175TIP3    H218532   5.046   2.392   1.042 -0.8792  0.3067 -2.2662
 6176TIP3   OH218533   6.173   0.730   4.236 -0.0036  0.0396 -0.5808
 6176TIP3    H118534   6.242   0.785   4.273  0.7530  0.5959 -2.6611
 6176TIP3    H218535   6.092   0.767   4.270  0.5045  2.3269 -1.6577
 6177TIP3   OH218536   0.027   0.274   1.343  0.0367  0.6310  0.0136
 6177TIP3    H118537  -0.019   0.192   1.359  0.1751  0.5416 -0.0477
 6177TIP3    H218538   0.114   0.261   1.382  0.9694 -0.1776 -2.1650
 6178TIP3   OH218539   4.230   0.167   3.617 -0.2366 -0.1965  0.3971
 6178TIP3    H118540   4.151   0.197   3.571  0.1804  0.5438  0.1457
 6178TIP3    H218541   4.258   0.243   3.668 -0.7956 -1.0543  2.0479
 6179TIP3   OH218542   4.925   5.639   2.778  0.6496 -0.5126 -0.3409
 6179TIP3    H118543   4.874   5.695   2.719  1.1856 -0.7317 -1.0074
 6179TIP3    H218544   4.968   5.701   2.838 -1.8153 -0.3680  1.4501
 6180TIP3   OH218545   2.494   2.378   4.322 -0.1635 -1.0334  0.2738
 6180TIP3    H118546   2.519   2.457   4.371  1.4714 -1.2622 -0.1613
 6180TIP3    H218547   2.487   2.310   4.389 -1.1283 -0.6498  0.5883
 6181TIP3   OH218548   0.940   3.267   4.302  0.5908  0.2955  0.7849
 6181TIP3    H118549   0.924   3.361   4.304  2.1013  0.6825 -1.1731
 6181TIP3    H218550   1.022   3.258   4.253  0.2204 -2.0632  0.4560
 6182TIP3   OH218551   2.123   3.396   4.596 -0.1817  0.2464 -0.3792
 6182TIP3    H118552   2.175   3.380   4.518  0.6680 -1.5070  0.4753
 6182TIP3    H218553   2.045   3.342   4.584  0.2828 -0.5960  0.2605
 6183TIP3   OH218554   4.341   0.971   2.935 -0.6294  0.1265  0.3593
 6183TIP3    H118555   4.383   1.056   2.921  1.5434 -1.0840 -1.1480
 6183TIP3    H218556   4.301   0.950   2.851 -0.8248 -0.5042  0.6027
 6184TIP3   OH218557   3.636   1.056   3.178  0.4693 -0.2490  0.6045
 6184TIP3    H118558   3.543   1.065   3.198  0.5338  0.0744  0.7599
 6184TIP3    H218559   3.670   1.145   3.182  0.2841  0.0283 -1.9335
 6185TIP3   OH218560   1.585   4.930   5.103 -1.1261 -0.0429  0.2812
 6185TIP3    H118561   1.604   4.875   5.027 -3.9462 -0.2662 -0.3755
 6185TIP3    H218562   1.642   4.897   5.172  2.2343  0.7558 -1.8660
 6186TIP3   OH218563   4.753   0.571   1.953 -0.4676  0.1746  0.2875
 6186TIP3    H118564   4.679   0.510   1.952 -1.2684  1.1179  0.7649
 6186TIP3    H218565   4.729   0.638   1.889 -0.7296  1.2758  1.5033
 6187TIP3   OH218566   0.541   0.163   1.701 -0.2487  0.2657 -0.1601
 6187TIP3    H118567   0.489   0.243   1.699  0.1748  0.5252 -1.0809
 6187TIP3    H218568   0.632   0.194   1.705 -0.0256 -0.1433 -1.6094
 6188TIP3   OH218569   4.859   2.031   1.302 -0.4081  0.4521  0.1928
 6188TIP3    H118570   4.903   2.114   1.321  1.5108 -0.5426  0.3374
 6188TIP3    H218571   4.861   2.024   1.206  0.1056  0.2384  0.2163
 6189TIP3   OH218572   2.907   1.902   0.819 -0.2577  0.0276  0.0397
 6189TIP3    H118573   2.977   1.944   0.768 -1.1664  0.7142 -0.6629
 6189TIP3    H218574   2.952   1.867   0.896  0.8511  0.5369 -0.3516
 6190TIP3   OH218575   3.260   0.571   4.533 -0.3132  0.2843 -0.6284
 6190TIP3    H118576   3.211   0.494   4.562 -0.1273  0.3865 -0.0293
 6190TIP3    H218577   3.207   0.646   4.561  0.5994  0.4199  0.8377
 6191TIP3   OH218578   2.114   3.001   5.014  0.0854  0.1045 -0.5354
 6191TIP3    H118579   2.039   2.971   5.065 -0.2690  0.5722 -0.7749
 6191TIP3    H218580   2.190   2.979   5.068 -0.1507 -1.2375 -0.7114
 6192TIP3   OH218581   6.225   4.415   4.680  0.0227 -0.0157 -0.8085
 6192TIP3    H118582   6.276   4.442   4.757 -0.0006 -2.7020  0.2710
 6192TIP3    H218583   6.141   4.460   4.690  0.9992  1.9212 -0.8719
 6193TIP3   OH218584   3.209   2.273   0.344  0.3044 -0.3355 -0.3909
 6193TIP3    H118585   3.255   2.339   0.292  0.1181 -0.3501 -0.5793
 6193TIP3    H218586   3.278   2.226   0.391  0.4302  0.0637 -0.1743
 6194TIP3   OH218587   0.075   4.491   3.871  0.1028 -0.4567 -0.3495
 6194TIP3    H118588   0.079   4.396   3.861 -0.7244 -0.5279 -0.1247
 6194TIP3    H218589   0.166   4.518   3.882  0.3062 -1.2812  0.1117
 6195TIP3   OH218590   2.614   0.923   0.913 -0.1675 -0.1368 -0.5891
 6195TIP3    H118591   2.607   0.874   0.832 -3.6498 -2.1474  0.6959
 6195TIP3    H218592   2.533   0.975   0.917 -0.3511 -0.4800  1.7659
 6196TIP3   OH218593   3.292   5.568   2.235  0.1445 -0.2794 -0.2232
 6196TIP3    H118594   3.277   5.501   2.169 -0.6013 -1.1301  0.7624
 6196TIP3    H218595   3.351   5.631   2.194 -0.3729 -0.7365 -1.7048
 6197TIP3   OH218596   6.024   5.094   4.517 -0.1500  0.5023  0.0530
 6197TIP3    H118597   6.051   5.054   4.600 -1.8222  2.4498  1.6508
 6197TIP3    H218598   5.932   5.071   4.509  0.1086 -0.0835 -1.6027
 6198TIP3   OH218599   2.723   1.836   1.002 -0.3251 -0.0859  0.5645
 6198TIP3    H118600   2.783   1.762   1.009 -0.0472  0.1073  0.3073
 6198TIP3    H218601   2.740   1.871   0.914 -1.4682 -0.5866  0.1226
 6199TIP3   OH218602   5.874   3.794   0.373  0.0778 -0.1638 -0.4870
 6199TIP3    H118603   5.933   3.794   0.298 -0.0146  1.1384 -0.5888
 6199TIP3    H218604   5.873   3.704   0.404 -0.7128 -0.9749 -2.7065
 6200TIP3   OH218605   1.833   2.345   0.610 -0.3021  0.3506 -0.2333
 6200TIP3    H118606   1.839   2.253   0.636 -0.0090  0.3260 -0.3807
 6200TIP3    H218607   1.849   2.344   0.516  0.0902  0.5936 -0.1690
 6201TIP3   OH218608   0.924   3.982   3.022  0.2723  0.5470  0.0000
 6201TIP3    H118609   0.846   4.031   3.047 -0.6525 -0.3781 -0.9836
 6201TIP3    H218610   0.906   3.951   2.934  1.4505 -0.3088  0.0325
 6202TIP3   OH218611   2.082   0.237   2.139  0.3501 -0.3046 -0.3685
 6202TIP3    H118612   1.999   0.246   2.187  0.8782 -0.0526  0.5233
 6202TIP3    H218613   2.104   0.326   2.114  0.0972 -0.4319 -1.0646
 6203TIP3   OH218614   6.291   4.350   2.991  0.1367  0.5262  0.3402
 6203TIP3    H118615   6.356   4.419   3.004  0.6990  0.2871 -1.0018
 6203TIP3    H218616   6.231   4.386   2.926 -1.2634  0.8501  1.7699
 6204TIP3   OH218617   0.559   1.696   2.713 -0.0830  0.6307  0.7745
 6204TIP3    H118618   0.500   1.753   2.762 -0.8512  1.7012 -1.2388
 6204TIP3    H218619   0.646   1.715   2.747 -0.7010  0.2261  2.6827
 6205TIP3   OH218620   2.758   4.329   4.928 -0.0897  0.0009 -0.5795
 6205TIP3    H118621   2.737   4.236   4.918  0.7515 -0.2793  0.1201
 6205TIP3    H218622   2.718   4.371   4.851 -2.8074 -0.5106  0.4539
 6206TIP3   OH218623   3.746   2.413   3.992 -0.0209  0.0609 -0.2179
 6206TIP3    H118624   3.670   2.400   4.049 -0.0859  1.0122 -0.0709
 6206TIP3    H218625   3.801   2.337   4.009 -1.1456 -0.8950 -0.6755
 6207TIP3   OH218626   2.942   2.691   4.261  0.0663 -0.0117  0.1501
 6207TIP3    H118627   2.940   2.662   4.352  2.0110 -5.0171 -1.0832
 6207TIP3    H218628   2.884   2.630   4.215  0.2355  1.4794 -2.2205
 6208TIP3   OH218629   5.295   5.338   0.443 -0.1111  0.0358  0.3574
 6208TIP3    H118630   5.303   5.304   0.532 -1.7414  1.1799  0.9894
 6208TIP3    H218631   5.369   5.398   0.434  0.7897 -1.0374  0.4699
 6209TIP3   OH218632   2.611   2.524   1.758 -0.1313  0.2483  0.2729
 6209TIP3    H118633   2.704   2.514   1.740 -0.1111 -1.4866  1.1629
 6209TIP3    H218634   2.573   2.550   1.674  1.0921  0.5695 -0.2000
 6210TIP3   OH218635   0.347   1.851   0.299  0.5299  0.2329 -0.3815
 6210TIP3    H118636   0.297   1.886   0.372  1.8998  1.5434 -0.0316
 6210TIP3    H218637   0.283   1.802   0.248 -1.0276  1.5308  0.2448
 6211TIP3   OH218638   3.542   1.701   4.109  0.1237 -0.3353  0.4484
 6211TIP3    H118639   3.449   1.717   4.097 -0.0611 -1.0508  0.8421
 6211TIP3    H218640   3.555   1.703   4.204  0.6668  0.5592  0.3689
 6212TIP3   OH218641   5.878   0.728   3.048 -0.6261 -0.4369  0.1786
 6212TIP3    H118642   5.869   0.633   3.053 -2.6238 -0.3496 -0.7151
 6212TIP3    H218643   5.815   0.761   3.113 -1.1465  0.2729 -0.6738
 6213TIP3   OH218644   0.785   4.609   0.702 -0.0514  0.4024 -0.1967
 6213TIP3    H118645   0.742   4.539   0.653 -1.2596  0.0519  1.2769
 6213TIP3    H218646   0.767   4.688   0.651 -1.7437  0.1278 -0.1051
 6214TIP3   OH218647   0.092   2.811   1.471 -0.5392 -0.7919 -0.3699
 6214TIP3    H118648   0.137   2.728   1.488  0.6247  0.0225  0.6513
 6214TIP3    H218649   0.160   2.877   1.479 -2.0048  0.5542  1.7260
 6215TIP3   OH218650   4.503   1.676   3.614 -0.3994 -0.0195  0.1888
 6215TIP3    H118651   4.530   1.591   3.580 -1.9484 -0.0108 -1.1785
 6215TIP3    H218652   4.573   1.736   3.586 -0.8910 -0.2863 -1.7497
 6216TIP3   OH218653   1.353   2.777   3.389 -0.5138 -0.1657  0.0762
 6216TIP3    H118654   1.327   2.763   3.480 -0.2008 -0.1659  0.1649
 6216TIP3    H218655   1.347   2.872   3.377 -0.3735 -0.1466  0.1525
 6217TIP3   OH218656   6.007   5.783   1.719 -0.1119  0.1491  0.2673
 6217TIP3    H118657   6.081   5.820   1.670 -0.2434  1.6141  1.1091
 6217TIP3    H218658   6.027   5.804   1.810 -0.7845 -0.8904  0.6599
 6218TIP3   OH218659   1.302   4.253   4.992 -0.1381  0.0831 -0.1476
 6218TIP3    H118660   1.265   4.253   5.080  0.9860 -1.5639  0.3708
 6218TIP3    H218661   1.229   4.229   4.935 -0.1128 -2.5455  0.7860
 6219TIP3   OH218662   2.835   0.346   3.480  0.6128 -0.1191  0.4051
 6219TIP3    H118663   2.781   0.382   3.550 -0.2085  1.3097 -0.9060
 6219TIP3    H218664   2.922   0.383   3.495  0.4173  0.2531  0.6364
 6220TIP3   OH218665   1.370   2.282   0.549  0.3424 -0.0205  0.3801
 6220TIP3    H118666   1.316   2.218   0.595  0.4452 -0.2196  0.2261
 6220TIP3    H218667   1.448   2.291   0.604 -0.0425  0.6047  0.8350
 6221TIP3   OH218668   4.406   2.543   0.892 -0.8706 -0.2270 -0.7349
 6221TIP3    H118669   4.474   2.598   0.852 -0.6984 -0.9185 -1.4185
 6221TIP3    H218670   4.348   2.521   0.819 -1.0644 -0.7616 -0.4190
 6222TIP3   OH218671   5.329   3.890   0.070 -0.9556  0.2951  0.1479
 6222TIP3    H118672   5.298   3.901  -0.020  1.2896 -0.0941 -0.7402
 6222TIP3    H218673   5.355   3.798   0.076 -0.4028  0.4904  0.9588
 6223TIP3   OH218674   0.992   0.468   1.419 -0.2675  0.3993 -0.2563
 6223TIP3    H118675   0.980   0.561   1.437 -0.1881  0.2708  0.5021
 6223TIP3    H218676   0.968   0.458   1.327 -0.8891  1.0577 -0.1764
 6224TIP3   OH218677   5.270   5.803   4.497  0.3386  0.5292 -0.3196
 6224TIP3    H118678   5.216   5.742   4.546  0.5614  0.5425 -0.0551
 6224TIP3    H218679   5.345   5.751   4.468 -0.2523  0.2860 -1.4617
 6225TIP3   OH218680   6.273   3.458   1.390  0.1344  0.1641  0.5189
 6225TIP3    H118681   6.270   3.431   1.298  0.0055 -0.3049  0.6567
 6225TIP3    H218682   6.217   3.395   1.435  1.7218 -0.7984  1.2138
 6226TIP3   OH218683   4.388   5.315   3.385  0.3445 -0.3949 -0.2959
 6226TIP3    H118684   4.392   5.237   3.441 -2.0554 -0.1500  0.3264
 6226TIP3    H218685   4.366   5.281   3.298  0.7888 -0.5226 -0.3593
 6227TIP3   OH218686   5.150   4.713   2.331  0.0238  0.0954  0.2352
 6227TIP3    H118687   5.191   4.796   2.356 -0.0642  0.4756 -0.8177
 6227TIP3    H218688   5.193   4.688   2.249 -0.4288 -0.5526  0.1845
 6228TIP3   OH218689   4.851   3.867   0.823 -0.2231 -0.0923  0.7027
 6228TIP3    H118690   4.937   3.871   0.783 -1.0801 -2.3860 -1.6519
 6228TIP3    H218691   4.823   3.958   0.830  1.7299  0.6115  0.0658
 6229TIP3   OH218692   3.446   5.228   3.865  0.5193  0.0427 -0.2873
 6229TIP3    H118693   3.528   5.254   3.907  0.4968  0.2417 -0.3647
 6229TIP3    H218694   3.474   5.189   3.782  0.4577  1.7874 -1.1703
 6230TIP3   OH218695   2.247   2.864   2.747  0.2484  0.2505  0.3138
 6230TIP3    H118696   2.305   2.794   2.715 -0.8367 -0.0635 -1.0824
 6230TIP3    H218697   2.301   2.914   2.808  1.2882 -1.3600  0.7854
 6231TIP3   OH218698   4.206   4.465   3.414  0.2452 -0.1761  0.9275
 6231TIP3    H118699   4.280   4.416   3.450  0.1400  0.3482  1.8917
 6231TIP3    H218700   4.175   4.518   3.487 -1.5029 -0.8629  0.7270
 6232TIP3   OH218701   1.850   4.338   1.892 -0.0712 -0.3437 -0.0182
 6232TIP3    H118702   1.892   4.287   1.823  0.2527  0.0781 -0.1388
 6232TIP3    H218703   1.822   4.273   1.957  1.5441 -0.5695  0.4846
 6233TIP3   OH218704   5.854   0.709   1.414  0.1840  0.3153 -0.7286
 6233TIP3    H118705   5.905   0.787   1.437  0.4305  0.4607 -1.7309
 6233TIP3    H218706   5.814   0.730   1.329 -1.2984  0.0850 -0.1277
 6234TIP3   OH218707   2.395   3.959   2.439 -0.7391  0.2421  0.8290
 6234TIP3    H118708   2.415   3.880   2.389  0.0427  0.6070  0.5640
 6234TIP3    H218709   2.343   4.013   2.379 -0.7777  0.1850  0.8110
 6235TIP3   OH218710   2.111   1.278   1.022 -0.0030  0.5412  0.0947
 6235TIP3    H118711   2.138   1.336   0.950  1.5279  1.0056  1.0001
 6235TIP3    H218712   2.188   1.225   1.041 -0.5352  0.0899  1.0932
 6236TIP3   OH218713   3.668   4.418   5.163 -0.1597  0.1178 -0.5043
 6236TIP3    H118714   3.584   4.463   5.169  0.6412  1.4802  2.1619
 6236TIP3    H218715   3.722   4.475   5.108 -0.6490 -0.2310 -1.3597
 6237TIP3   OH218716   2.337   2.887   1.315  0.1081  0.1430  0.0123
 6237TIP3    H118717   2.364   2.944   1.243 -0.5405  0.5411  0.0790
 6237TIP3    H218718   2.305   2.808   1.271 -2.2179  1.1675 -0.2904
 6238TIP3   OH218719   6.051   0.613   2.432 -0.3830 -0.0554 -1.1390
 6238TIP3    H118720   6.136   0.653   2.448  0.0051 -1.4627  0.6311
 6238TIP3    H218721   6.064   0.559   2.354  0.2118  0.1086 -1.1523
 6239TIP3   OH218722   1.097   0.163   0.418 -0.3231  0.0517  0.0714
 6239TIP3    H118723   1.006   0.173   0.392 -0.3696  1.0454  0.5543
 6239TIP3    H218724   1.108   0.070   0.435 -0.8568 -0.3024 -1.3877
 6240TIP3   OH218725   3.720   0.529   2.388  0.6031 -0.1563 -0.1854
 6240TIP3    H118726   3.719   0.579   2.470  0.8946  0.9959 -0.8509
 6240TIP3    H218727   3.802   0.479   2.392  0.0301 -1.0614  0.7456
 6241TIP3   OH218728   1.027   0.533   0.732 -0.1486  0.6261  0.1824
 6241TIP3    H118729   0.959   0.470   0.755  0.9507 -0.3811  0.8454
 6241TIP3    H218730   0.990   0.618   0.753 -0.3469 -0.0397  2.8760
 6242TIP3   OH218731   2.969   0.649   1.334 -0.2558 -1.1214 -0.4457
 6242TIP3    H118732   2.991   0.635   1.426  0.5841  2.0102 -0.0680
 6242TIP3    H218733   3.044   0.615   1.286 -0.0041 -1.3740  0.1203
 6243TIP3   OH218734   2.539   5.485   3.396 -0.6860 -0.5637  0.1629
 6243TIP3    H118735   2.495   5.477   3.312  0.4751 -0.1789 -0.5017
 6243TIP3    H218736   2.469   5.475   3.461 -2.1351  1.9642 -0.8410
 6244TIP3   OH218737   5.454   1.263   2.136  0.9312 -0.1498 -0.2975
 6244TIP3    H118738   5.401   1.339   2.112  1.2332  0.3832  0.6898
 6244TIP3    H218739   5.514   1.295   2.203  0.0279 -1.6010  1.2751
 6245TIP3   OH218740   3.856   3.512   2.259  0.2448 -0.5162  0.2045
 6245TIP3    H118741   3.907   3.486   2.336 -1.3916 -2.9931  0.5544
 6245TIP3    H218742   3.844   3.431   2.210 -2.4832  0.1424 -0.3645
 6246TIP3   OH218743   1.942   5.148   0.421  0.2582 -0.6603 -0.4232
 6246TIP3    H118744   1.966   5.074   0.366 -1.2666 -1.3763 -0.1748
 6246TIP3    H218745   1.912   5.109   0.504  1.2980  0.3331  0.4606
 6247TIP3   OH218746   1.783   0.770   2.693 -0.4513  0.1227  0.1928
 6247TIP3    H118747   1.733   0.695   2.661 -1.9676  1.0980  0.1508
 6247TIP3    H218748   1.800   0.750   2.785 -0.3073 -0.5448  0.0261
 6248TIP3   OH218749   2.444   2.439   3.035 -0.0829 -0.2688  0.5303
 6248TIP3    H118750   2.515   2.375   3.036  0.0092 -0.1983 -0.5572
 6248TIP3    H218751   2.371   2.395   3.078  0.3598 -0.6446  0.9086
 6249TIP3   OH218752   0.059   5.722   3.395  0.2043 -0.1810  0.3290
 6249TIP3    H118753   0.100   5.804   3.424  1.2020 -0.3877 -0.4844
 6249TIP3    H218754   0.032   5.739   3.305 -1.0137 -0.2406  0.6610
 6250TIP3   OH218755   2.608   5.163   1.801  0.4603  0.3179  0.0406
 6250TIP3    H118756   2.614   5.137   1.893  1.0913  0.1843 -0.0310
 6250TIP3    H218757   2.535   5.225   1.798 -0.3430 -0.5855  0.4137
 6251TIP3   OH218758   1.222   2.769   1.145  0.2142  0.1761 -0.4817
 6251TIP3    H118759   1.265   2.693   1.186  1.1020  0.8280 -0.1862
 6251TIP3    H218760   1.191   2.736   1.061 -0.5706 -0.8653  0.1748
 6252TIP3   OH218761   3.775   4.445   3.678 -0.6197 -0.3806  0.0693
 6252TIP3    H118762   3.871   4.446   3.685 -0.7074  0.4411  1.3382
 6252TIP3    H218763   3.750   4.360   3.713 -0.4385 -0.0061  1.1332
 6253TIP3   OH218764   1.345   1.966   0.407  0.3307 -0.3424  0.1725
 6253TIP3    H118765   1.434   1.955   0.372  0.4152  0.7192  0.0345
 6253TIP3    H218766   1.318   2.053   0.377 -0.4886 -0.3737  0.7986
 6254TIP3   OH218767   0.508   4.788   4.566 -0.2077  0.1558  0.3833
 6254TIP3    H118768   0.574   4.752   4.507  0.0255 -2.5852  2.1552
 6254TIP3    H218769   0.428   4.793   4.513  0.4096 -0.5479 -0.6384
 6255TIP3   OH218770   1.813   0.666   0.184 -0.5394 -0.6778  0.1722
 6255TIP3    H118771   1.764   0.745   0.162  2.1800  0.3404 -3.3561
 6255TIP3    H218772   1.757   0.594   0.155 -1.3980  0.2244 -0.4884
 6256TIP3   OH218773   4.199   0.855   3.895 -0.2373 -0.5723  0.4582
 6256TIP3    H118774   4.200   0.853   3.991 -0.3088 -0.7160  0.4570
 6256TIP3    H218775   4.134   0.922   3.874  0.7153  0.4005  0.5079
 6257TIP3   OH218776   0.106   3.712   1.255 -0.3075  0.0047 -0.0756
 6257TIP3    H118777   0.160   3.636   1.277 -1.0893 -0.6386 -0.3522
 6257TIP3    H218778   0.050   3.682   1.184 -0.4941  0.9033 -0.3246
 6258TIP3   OH218779   6.156   3.503   0.488 -0.2201  0.1142 -0.2680
 6258TIP3    H118780   6.247   3.516   0.462 -0.1290  0.3532  0.1492
 6258TIP3    H218781   6.161   3.447   0.566 -0.3609  0.8905  0.3212
 6259TIP3   OH218782   0.989   5.113   1.543  0.1485 -0.2396  0.5148
 6259TIP3    H118783   0.959   5.199   1.572  0.9666  0.0502  0.5292
 6259TIP3    H218784   0.909   5.064   1.523 -0.3663  1.8903 -3.6160
 6260TIP3   OH218785   6.283   1.498   2.569  0.2674 -0.6558  0.2663
 6260TIP3    H118786   6.222   1.507   2.642  1.8815  0.2890  1.5473
 6260TIP3    H218787   6.300   1.403   2.563 -0.4928 -0.8175  0.5643
 6261TIP3   OH218788   6.180   4.017   3.708  0.0421  0.3138 -0.0483
 6261TIP3    H118789   6.106   3.958   3.724 -0.0745  0.6910  0.9074
 6261TIP3    H218790   6.257   3.967   3.733 -0.1681  1.0248  2.2126
 6262TIP3   OH218791   0.547   4.276   4.358  0.1349  0.2563 -0.2054
 6262TIP3    H118792   0.635   4.239   4.359 -0.4285 -1.1841 -0.7520
 6262TIP3    H218793   0.548   4.342   4.427  1.6924  0.4030 -0.3410
 6263TIP3   OH218794   2.146   2.742   4.767  0.2539 -0.2568 -0.5546
 6263TIP3    H118795   2.056   2.743   4.736  0.6671 -0.1585 -1.8102
 6263TIP3    H218796   2.142   2.783   4.853 -1.1217 -1.6569  0.0958
 6264TIP3   OH218797   4.490   1.205   2.930  0.4465 -0.0758  0.1060
 6264TIP3    H118798   4.489   1.287   2.881  0.7566 -0.6736 -0.9482
 6264TIP3    H218799   4.566   1.158   2.896 -0.5135 -1.3726 -0.3355
 6265TIP3   OH218800   2.606   3.190   1.920 -0.2617  0.3001  0.4307
 6265TIP3    H118801   2.591   3.192   1.825 -0.9571  1.7396  0.5308
 6265TIP3    H218802   2.689   3.236   1.932  1.1479 -2.1037  0.3635
 6266TIP3   OH218803   5.247   1.711   1.614  0.2445  0.4624  0.4045
 6266TIP3    H118804   5.332   1.669   1.603 -0.6218 -1.1128 -0.7490
 6266TIP3    H218805   5.184   1.640   1.603 -1.2179  1.3165  2.6281
 6267TIP3   OH218806   3.883   1.571   0.736  0.1855  0.6125  0.4534
 6267TIP3    H118807   3.920   1.485   0.753 -0.7142  0.1183 -0.0475
 6267TIP3    H218808   3.836   1.562   0.653 -2.1148  0.8706  1.6645
 6268TIP3   OH218809   1.165   3.360   4.490  0.2421  0.1357  0.2360
 6268TIP3    H118810   1.192   3.424   4.556 -0.2118 -1.7638  2.4135
 6268TIP3    H218811   1.246   3.329   4.451  0.4183  2.8366 -1.7780
 6269TIP3   OH218812   3.535   3.042   2.014  0.0709  0.2982  0.0506
 6269TIP3    H118813   3.487   2.970   1.972 -0.6611  0.6722  0.2364
 6269TIP3    H218814   3.507   3.120   1.967  0.9374  0.4644 -0.2120
 6270TIP3   OH218815   3.189   1.595   3.314  0.0916 -0.8115  0.1544
 6270TIP3    H118816   3.200   1.554   3.400 -0.7583 -0.1982  0.5767
 6270TIP3    H218817   3.275   1.631   3.293 -0.4517  2.2309  2.4588
 6271TIP3   OH218818   6.310   4.042   0.042  0.0413 -0.1284 -0.1957
 6271TIP3    H118819   6.393   4.081   0.070 -0.4899  1.0351 -0.1955
 6271TIP3    H218820   6.261   4.029   0.123  0.1259 -0.6019 -0.2172
 6272TIP3   OH218821   4.287   0.731   1.071 -0.3243  0.0508 -0.5257
 6272TIP3    H118822   4.365   0.783   1.054  0.1445 -0.9563 -1.6145
 6272TIP3    H218823   4.296   0.655   1.013 -1.6101 -0.5931  0.0798
 6273TIP3   OH218824   5.083   0.410   4.331  0.3538  0.0604  0.0941
 6273TIP3    H118825   5.096   0.400   4.237  1.4588 -0.0808  0.2457
 6273TIP3    H218826   5.074   0.320   4.364 -0.6571  0.1394  0.0470
 6274TIP3   OH218827   3.614   5.011   0.145  0.0042 -0.2155  0.0343
 6274TIP3    H118828   3.648   4.966   0.222  1.8308 -0.8879 -1.0965
 6274TIP3    H218829   3.526   4.976   0.134  0.8977 -2.6046 -0.0353
 6275TIP3   OH218830   5.379   2.115   1.763 -0.1279  0.2074  0.0422
 6275TIP3    H118831   5.285   2.105   1.775 -0.0585 -1.0364 -0.3120
 6275TIP3    H218832   5.417   2.036   1.803  0.6776  0.1537 -0.7965
 6276TIP3   OH218833   3.641   0.582   1.218  0.2777  0.1710 -0.0869
 6276TIP3    H118834   3.591   0.655   1.184 -0.4925 -0.0804  0.4744
 6276TIP3    H218835   3.680   0.541   1.141 -2.5973 -1.2800 -0.9337
 6277TIP3   OH218836   5.302   5.960   3.103  0.3069 -0.3833  0.7952
 6277TIP3    H118837   5.241   5.896   3.140 -1.2262  1.1672  1.0433
 6277TIP3    H218838   5.250   6.011   3.042  1.6227  0.3049  0.2119
 6278TIP3   OH218839   2.144   5.370   5.121 -0.2273  0.7106 -1.0080
 6278TIP3    H118840   2.223   5.424   5.111  0.5420 -0.1791 -0.0370
 6278TIP3    H218841   2.170   5.301   5.183 -2.1951  1.2449  0.5294
 6279TIP3   OH218842   3.470   4.939   1.525 -0.2149 -0.1972 -0.1852
 6279TIP3    H118843   3.501   4.944   1.435 -2.9307  1.7308 -1.1402
 6279TIP3    H218844   3.538   4.982   1.577  1.1531 -0.8967 -1.3186
 6280TIP3   OH218845   5.108   1.924   3.856  0.5638  0.5309  0.2277
 6280TIP3    H118846   5.191   1.967   3.833  1.1500 -0.9896 -0.5953
 6280TIP3    H218847   5.082   1.877   3.777 -0.3392 -0.1916  0.9285
 6281TIP3   OH218848   1.502   1.300   1.569  0.2681  0.1938  0.5343
 6281TIP3    H118849   1.476   1.309   1.477 -0.8397 -1.9582  0.5777
 6281TIP3    H218850   1.422   1.277   1.615  1.1343 -0.5460  1.7315
 6282TIP3   OH218851   3.772   0.291   2.700 -0.0068  0.6627  0.4458
 6282TIP3    H118852   3.694   0.337   2.730 -0.6704  0.5643 -1.0165
 6282TIP3    H218853   3.845   0.350   2.722 -0.2475  0.0442  3.2994
 6283TIP3   OH218854   5.834   2.261   0.710 -0.5016 -0.0339  0.5534
 6283TIP3    H118855   5.810   2.318   0.637 -0.8489 -1.6667 -0.6832
 6283TIP3    H218856   5.877   2.318   0.773  0.2227  1.3642 -1.1405
 6284TIP3   OH218857   1.109   0.332   4.391  0.8953  0.4770  0.1307
 6284TIP3    H118858   1.086   0.407   4.446  1.2617  0.6488  0.0523
 6284TIP3    H218859   1.201   0.314   4.411  1.0137  0.4943 -0.3695
 6285TIP3   OH218860   0.237   5.944   3.421 -0.2819  0.4772 -0.2267
 6285TIP3    H118861   0.245   6.021   3.365  0.6896  1.9409  1.7702
 6285TIP3    H218862   0.327   5.913   3.434 -0.1779  1.5364  2.1833
 6286TIP3   OH218863   0.329   4.486   3.230 -0.1576  0.3204  0.8617
 6286TIP3    H118864   0.389   4.559   3.219  1.7481 -1.2418  0.3654
 6286TIP3    H218865   0.264   4.498   3.161  1.2282  0.5231 -0.4497
 6287TIP3   OH218866   5.425   5.928   2.200 -0.4493 -0.1112 -0.4658
 6287TIP3    H118867   5.469   5.889   2.276 -0.1908 -2.4059 -1.6882
 6287TIP3    H218868   5.484   5.998   2.172  0.0734 -0.0619  0.6780
 6288TIP3   OH218869   2.786   5.158   1.463  0.6873  0.4537  0.0075
 6288TIP3    H118870   2.695   5.178   1.440  0.2945 -1.0688  0.0718
 6288TIP3    H218871   2.821   5.239   1.498 -0.6267  1.0976 -0.1044
 6289TIP3   OH218872   0.222   0.545   4.734  0.0363  0.1066 -0.6562
 6289TIP3    H118873   0.172   0.574   4.811 -1.0091  1.9932 -1.9821
 6289TIP3    H218874   0.169   0.474   4.696 -0.8820  1.0466 -1.1742
 6290TIP3   OH218875   3.843   1.842   3.585 -0.1535 -0.1410  0.2714
 6290TIP3    H118876   3.834   1.771   3.649 -0.2315  1.4999  2.1741
 6290TIP3    H218877   3.754   1.874   3.574  0.0605  0.5653  0.5420
 6291TIP3   OH218878   0.548   1.126   0.419  0.1195 -0.1114  0.3687
 6291TIP3    H118879   0.566   1.208   0.373 -0.7256  0.3621  0.8683
 6291TIP3    H218880   0.472   1.144   0.473  0.5728 -0.9113  1.3185
 6292TIP3   OH218881   1.422   4.058   1.372  0.1314 -0.3145 -0.8591
 6292TIP3    H118882   1.418   4.079   1.279  0.8014  1.3794 -0.5367
 6292TIP3    H218883   1.515   4.059   1.393 -0.0838  0.8345  0.1321
 6293TIP3   OH218884   0.930   5.898   4.302 -0.1300  0.2808 -0.1698
 6293TIP3    H118885   0.962   5.909   4.213  0.9996 -0.1362  0.1690
 6293TIP3    H218886   0.970   5.817   4.332 -2.0328 -0.6130  0.0704
 6294TIP3   OH218887   3.523   2.262   4.534  0.2670 -0.1109  0.4353
 6294TIP3    H118888   3.454   2.229   4.477  0.8724  0.1981 -0.4837
 6294TIP3    H218889   3.557   2.184   4.578 -0.1063 -0.3651  0.2849
 6295TIP3   OH218890   4.135   1.075   2.760 -0.0758  0.7150 -0.3342
 6295TIP3    H118891   4.153   1.030   2.677  0.2202 -1.0511  0.6589
 6295TIP3    H218892   4.127   1.167   2.735 -0.5454  0.1648 -2.4118
 6296TIP3   OH218893   4.351   0.842   0.094  0.7910  0.2227 -0.7269
 6296TIP3    H118894   4.299   0.771   0.057  0.3525  0.9626 -1.6092
 6296TIP3    H218895   4.339   0.835   0.188  0.7630 -0.8660 -0.8026
 6297TIP3   OH218896   3.058   3.571   2.054  0.1537 -0.4067  0.1092
 6297TIP3    H118897   3.083   3.574   1.962  1.4752  2.1055  0.4684
 6297TIP3    H218898   2.998   3.645   2.066  0.7976 -0.0641  1.4593
 6298TIP3   OH218899   3.018   1.971   1.884  0.5380 -0.1895 -0.1098
 6298TIP3    H118900   3.102   1.927   1.871  0.6980  0.3879 -1.1654
 6298TIP3    H218901   3.039   2.049   1.934  0.6378 -0.0501 -0.3656
 6299TIP3   OH218902   4.608   5.098   0.631 -0.4473  0.0508 -0.1983
 6299TIP3    H118903   4.513   5.095   0.627 -0.5175 -0.6469  1.2688
 6299TIP3    H218904   4.637   5.051   0.553 -1.2194  2.4551 -2.0856
 6300TIP3   OH218905   0.247   5.714   2.661 -0.0178 -0.5933  0.2431
 6300TIP3    H118906   0.286   5.801   2.659 -0.5303 -0.2518  2.5498
 6300TIP3    H218907   0.319   5.655   2.683  0.1578 -0.6819 -0.5103
 6301TIP3   OH218908   0.665   3.083   4.452  0.1196  0.7580  0.6779
 6301TIP3    H118909   0.604   3.091   4.525 -1.2466  0.4114 -0.3893
 6301TIP3    H218910   0.749   3.063   4.494  0.2538  4.1400  2.4154
 6302TIP3   OH218911   3.481   1.034   3.977  0.2188 -0.0868  0.6287
 6302TIP3    H118912   3.422   0.998   4.044 -0.0513  1.7938  1.4830
 6302TIP3    H218913   3.467   1.129   3.982  2.1224  0.2891 -0.2930
 6303TIP3   OH218914   0.320   1.423   4.453  0.1578  0.3391  0.0492
 6303TIP3    H118915   0.359   1.503   4.488  0.4760  0.3521 -0.3241
 6303TIP3    H218916   0.359   1.413   4.366 -0.6736  0.3546 -0.3391
 6304TIP3   OH218917   4.328   4.296   4.762  0.4293 -0.2893 -0.2023
 6304TIP3    H118918   4.327   4.345   4.845  1.1865 -3.0952  1.6043
 6304TIP3    H218919   4.378   4.352   4.702  1.0667  1.2443  1.6452
 6305TIP3   OH218920   5.964   3.291   0.805 -0.2871  0.3510 -0.3292
 6305TIP3    H118921   5.936   3.249   0.887 -1.7317 -0.0595 -1.0043
 6305TIP3    H218922   5.884   3.326   0.767  0.0371 -0.9582 -2.4037
 6306TIP3   OH218923   4.894   3.216   3.427 -0.8065 -0.1847 -0.3126
 6306TIP3    H118924   4.853   3.301   3.411 -0.6969  0.0188  0.4736
 6306TIP3    H218925   4.942   3.197   3.346 -1.0915  0.3512 -0.6119
 6307TIP3   OH218926   5.933   4.146   0.169  0.1805  0.0905 -0.1211
 6307TIP3    H118927   5.964   4.130   0.259  0.4460  1.2097  0.0114
 6307TIP3    H218928   5.996   4.209   0.134 -1.1295  1.3458 -0.3304
 6308TIP3   OH218929   4.946   0.319   0.796 -0.5116 -0.1126 -0.5616
 6308TIP3    H118930   5.010   0.280   0.736 -0.2182 -0.2970 -0.1400
 6308TIP3    H218931   4.867   0.331   0.744 -0.0818  0.2633 -1.1373
 6309TIP3   OH218932   1.752   2.084   0.106  0.0792 -0.3565 -0.6070
 6309TIP3    H118933   1.845   2.101   0.113  0.1156 -0.2759 -1.2461
 6309TIP3    H218934   1.724   2.064   0.195  0.8009 -0.8722 -0.4908
 6310TIP3   OH218935   1.219   4.819   2.226  0.2087 -0.2709 -0.6623
 6310TIP3    H118936   1.232   4.846   2.317 -0.8046  0.6654 -0.7772
 6310TIP3    H218937   1.258   4.889   2.174  1.6427 -1.2580 -0.9797
 6311TIP3   OH218938   2.233   2.818   2.292  0.2433 -0.4999 -0.1899
 6311TIP3    H118939   2.299   2.885   2.311 -1.3387  1.0959 -0.0590
 6311TIP3    H218940   2.157   2.844   2.345  0.2580 -3.6615  1.6134
 6312TIP3   OH218941   3.940   2.848   4.255  0.4153  0.0982 -0.5755
 6312TIP3    H118942   3.966   2.832   4.346  0.4741  1.6093 -0.3046
 6312TIP3    H218943   3.884   2.773   4.233 -2.5205  1.3811  1.8482
 6313TIP3   OH218944   2.163   2.351   2.447 -0.7894 -0.1214  0.4104
 6313TIP3    H118945   2.143   2.420   2.383 -1.3773  0.3441  1.0773
 6313TIP3    H218946   2.239   2.306   2.411 -1.2511 -0.0130 -0.7287
 6314TIP3   OH218947   1.354   2.101   2.726 -0.9561 -0.2029  0.2429
 6314TIP3    H118948   1.435   2.146   2.751 -0.9127 -0.1827  0.0706
 6314TIP3    H218949   1.382   2.034   2.663 -1.3058  1.1763 -1.4680
 6315TIP3   OH218950   3.961   5.827   2.717  0.2129  0.7833  0.2060
 6315TIP3    H118951   4.025   5.757   2.705  0.0424  0.7620 -0.6505
 6315TIP3    H218952   4.009   5.907   2.695 -0.2603  0.6911 -1.2741
 6316TIP3   OH218953   0.719   2.187   2.517 -0.1567  0.2913  0.7364
 6316TIP3    H118954   0.777   2.263   2.522  0.2400 -0.0360  1.2371
 6316TIP3    H218955   0.763   2.127   2.457  0.1611 -0.0645  1.3135
 6317TIP3   OH218956   3.940   4.367   2.056  0.1755  0.3643  0.6316
 6317TIP3    H118957   3.977   4.289   2.015 -1.0572  0.0678  0.0314
 6317TIP3    H218958   3.969   4.363   2.147  0.5828 -0.4960  0.4729
 6318TIP3   OH218959   1.565   4.829   2.419  0.4291 -0.1041 -0.2155
 6318TIP3    H118960   1.541   4.792   2.334 -0.6504 -0.3228  0.1601
 6318TIP3    H218961   1.649   4.790   2.440  0.4267 -0.5027 -0.9162
 6319TIP3   OH218962   3.233   4.861   0.389 -0.2675  0.3063  0.0437
 6319TIP3    H118963   3.160   4.907   0.429 -0.1883 -0.4050  1.0472
 6319TIP3    H218964   3.226   4.772   0.422  0.2333 -0.1247 -0.9729
 6320TIP3   OH218965   0.359   2.399   4.913 -0.6457  0.3041 -0.3478
 6320TIP3    H118966   0.329   2.352   4.835 -0.1667  0.1945 -0.4732
 6320TIP3    H218967   0.453   2.383   4.915 -0.6152  0.5311  0.1054
 6321TIP3   OH218968   4.351   1.680   4.074 -0.0404  0.6873  0.4299
 6321TIP3    H118969   4.373   1.706   4.164  0.2568  1.2747  0.1894
 6321TIP3    H218970   4.257   1.661   4.077  0.4250 -1.8985  1.4784
 6322TIP3   OH218971   0.652   2.589   4.533  0.0698 -0.0727  0.0489
 6322TIP3    H118972   0.651   2.494   4.529  0.0575 -0.1391  1.3098
 6322TIP3    H218973   0.562   2.615   4.510  0.4840 -0.2530 -1.9444
 6323TIP3   OH218974   0.118   2.298   0.641  0.1594 -0.4042 -0.0957
 6323TIP3    H118975   0.032   2.271   0.672  0.0518  0.5526  0.4609
 6323TIP3    H218976   0.102   2.375   0.587  0.2472 -2.3696 -3.2311
 6324TIP3   OH218977   1.575   5.869   0.736 -0.5415 -0.4854 -0.5591
 6324TIP3    H118978   1.537   5.885   0.823 -0.0873 -0.7450 -0.3070
 6324TIP3    H218979   1.544   5.781   0.713 -1.0022 -0.2511 -0.8470
 6325TIP3   OH218980   4.437   2.144   3.984  0.1518  0.5870 -0.2983
 6325TIP3    H118981   4.405   2.059   3.955  1.1768  0.8120 -2.2760
 6325TIP3    H218982   4.511   2.124   4.041 -0.4737  0.1537  0.3779
 6326TIP3   OH218983   0.941   2.447   3.893 -0.1489 -0.4559  0.0972
 6326TIP3    H118984   0.891   2.366   3.894 -1.3830  0.2755  0.8177
 6326TIP3    H218985   0.924   2.484   3.806  0.5480 -1.0419 -0.2908
 6327TIP3   OH218986   4.228   3.667   5.161 -0.2177  0.5222  0.0486
 6327TIP3    H118987   4.276   3.638   5.084  0.3935 -1.6109  1.1482
 6327TIP3    H218988   4.136   3.654   5.139 -0.0258 -0.5177 -0.1966
 6328TIP3   OH218989   3.925   4.002   2.397  0.0845  0.4416 -0.2906
 6328TIP3    H118990   3.905   3.910   2.377 -1.9084  0.7753 -0.0222
 6328TIP3    H218991   3.942   4.042   2.311  0.4070 -0.0320 -0.4541
 6329TIP3   OH218992   2.323   4.846   1.267  0.0345 -0.4085  0.2131
 6329TIP3    H118993   2.415   4.864   1.248 -0.3001 -1.5312 -3.2013
 6329TIP3    H218994   2.291   4.798   1.190 -3.8700  1.4336  0.3945
 6330TIP3   OH218995   3.413   5.923   1.145 -0.3330  0.1471 -0.2086
 6330TIP3    H118996   3.361   5.875   1.081 -0.3422 -0.9800  0.6072
 6330TIP3    H218997   3.352   5.984   1.186 -0.3791  0.7086 -1.0850
 6331TIP3   OH218998   3.401   5.761   0.039  0.1533  0.0843 -0.5182
 6331TIP3    H118999   3.468   5.817   0.001  0.0261  0.7916  0.2739
 6331TIP3    H219000   3.443   5.675   0.047  0.3654  0.0609 -1.6881
 6332TIP3   OH219001   0.662   5.540   3.229 -0.3894 -0.3646  0.2676
 6332TIP3    H119002   0.685   5.520   3.320  0.4465  0.8017  0.3339
 6332TIP3    H219003   0.717   5.480   3.177  0.2390 -0.0119  0.5093
 6333TIP3   OH219004   5.256   0.877   1.321  0.1102  0.6163 -0.1355
 6333TIP3    H119005   5.215   0.942   1.378 -0.1202 -0.9264  1.5477
 6333TIP3    H219006   5.330   0.844   1.371  0.1977 -0.4337 -0.9220
 6334TIP3   OH219007   4.391   4.278   0.290 -0.3950 -0.5173  0.2021
 6334TIP3    H119008   4.409   4.187   0.315 -0.4671 -0.4328  0.5764
 6334TIP3    H219009   4.469   4.326   0.315  0.4086 -0.7547 -1.6790
 6335TIP3   OH219010   2.334   2.180   3.443  0.2893  0.1475  0.2021
 6335TIP3    H119011   2.361   2.270   3.460 -0.4687  0.4702 -0.2627
 6335TIP3    H219012   2.405   2.143   3.390  0.4637  0.5615  0.1432
 6336TIP3   OH219013   4.190   5.223   0.115  0.0075  0.3570  0.3868
 6336TIP3    H119014   4.110   5.263   0.148 -0.6762 -0.5532 -0.1069
 6336TIP3    H219015   4.256   5.291   0.123 -1.3281  1.9470 -1.4194
 6337TIP3   OH219016   3.449   5.069   2.279 -0.2350  0.1203 -0.2387
 6337TIP3    H119017   3.418   4.994   2.228  1.7510 -1.3047  0.5171
 6337TIP3    H219018   3.485   5.031   2.359 -0.8878  2.0806  1.0679
 6338TIP3   OH219019   0.306   5.904   2.926 -0.6251 -0.2284 -0.1671
 6338TIP3    H119020   0.248   5.829   2.941 -1.0688  0.0686 -0.3858
 6338TIP3    H219021   0.252   5.980   2.946 -0.1818  0.0357  0.0331
 6339TIP3   OH219022   5.378   1.140   4.785  0.6298  0.3927  0.3676
 6339TIP3    H119023   5.432   1.063   4.771 -0.2044 -0.3229  0.9802
 6339TIP3    H219024   5.337   1.157   4.700  2.0188  1.1297 -0.1846
 6340TIP3   OH219025   6.304   0.602   0.261 -0.1270 -0.1884  0.4556
 6340TIP3    H119026   6.232   0.657   0.229 -0.6512 -0.7175  0.7050
 6340TIP3    H219027   6.264   0.516   0.275  0.9249 -0.9860 -1.0830
 6341TIP3   OH219028   3.063   2.292   4.641 -0.3890  0.0620  0.1748
 6341TIP3    H119029   3.110   2.258   4.564  1.9946  0.8436  1.2086
 6341TIP3    H219030   3.120   2.272   4.715 -0.4462  3.2603  1.2235
 6342TIP3   OH219031   2.033   5.790   0.310 -0.0343  0.4169 -0.5898
 6342TIP3    H119032   1.989   5.807   0.227  1.8806 -0.3072 -1.8081
 6342TIP3    H219033   2.106   5.851   0.312  0.8866 -0.6739 -0.2104
 6343TIP3   OH219034   4.658   1.688   2.678  0.8431 -0.8664 -0.7528
 6343TIP3    H119035   4.564   1.683   2.693  0.8481 -1.1836 -0.8314
 6343TIP3    H219036   4.682   1.775   2.709  0.9275 -1.6023  1.4103
 6344TIP3   OH219037   3.686   2.558   3.597 -0.7983 -0.4975 -0.0369
 6344TIP3    H119038   3.671   2.570   3.503 -1.5548 -0.6998  0.0508
 6344TIP3    H219039   3.621   2.493   3.624  0.5004 -1.7342  0.3060
 6345TIP3   OH219040   2.674   3.148   2.989 -0.9303 -0.0992  0.0902
 6345TIP3    H119041   2.689   3.079   3.053 -0.3008  0.8395  0.9760
 6345TIP3    H219042   2.630   3.218   3.037 -1.5813  0.1271 -0.7948
 6346TIP3   OH219043   0.203   2.543   3.403  0.1018  0.4359  0.5473
 6346TIP3    H119044   0.141   2.587   3.345  0.6772  0.0086 -0.4119
 6346TIP3    H219045   0.155   2.467   3.437 -0.9985  1.8852  2.4353
 6347TIP3   OH219046   0.050   5.324   2.350  0.1848  0.0649  0.9965
 6347TIP3    H119047   0.120   5.278   2.304  0.8846  2.0782 -0.0989
 6347TIP3    H219048   0.094   5.399   2.391 -1.4128  2.0116 -0.6192
 6348TIP3   OH219049   1.588   3.185   3.040 -0.1254 -0.1341  0.1750
 6348TIP3    H119050   1.641   3.108   3.023  0.2422  0.4091 -1.2824
 6348TIP3    H219051   1.591   3.196   3.135  1.8558 -0.4841  0.1912
 6349TIP3   OH219052   1.971   0.682   3.319 -0.8106 -0.3752  0.3956
 6349TIP3    H119053   2.026   0.647   3.248 -2.5531  0.8449 -1.6889
 6349TIP3    H219054   1.887   0.638   3.308 -1.3448  0.4014  1.2544
 6350TIP3   OH219055   4.403   1.414   3.293 -0.2781  0.0118 -0.5883
 6350TIP3    H119056   4.386   1.326   3.328 -1.1977  0.8858  1.3544
 6350TIP3    H219057   4.331   1.430   3.232 -1.1453  0.0546  0.4058
 6351TIP3   OH219058   4.310   0.732   3.667  0.3303 -0.1998  0.3598
 6351TIP3    H119059   4.238   0.735   3.604  0.2750 -0.9615  0.3791
 6351TIP3    H219060   4.273   0.768   3.748 -0.0573 -0.6739  0.3956
 6352TIP3   OH219061   0.513   2.430   1.806 -0.0076  0.1915 -0.1655
 6352TIP3    H119062   0.542   2.474   1.886 -0.4596  0.0408  0.0829
 6352TIP3    H219063   0.531   2.494   1.736  1.5005 -0.1326 -0.1069
 6353TIP3   OH219064   0.335   2.580   2.840 -0.7126  0.6122  0.5857
 6353TIP3    H119065   0.359   2.595   2.932 -2.7440 -0.1235  1.2971
 6353TIP3    H219066   0.368   2.657   2.794  0.0410  1.1761  1.9904
 6354TIP3   OH219067   2.810   4.840   1.961  0.2098  0.0719 -0.6176
 6354TIP3    H119068   2.737   4.866   1.904  0.0154  2.4676  0.5810
 6354TIP3    H219069   2.888   4.875   1.918  0.8831 -3.1247 -2.2832
 6355TIP3   OH219070   1.221   0.363   5.033  0.0095  0.4771 -0.4111
 6355TIP3    H119071   1.280   0.419   4.981  1.2373  0.1949  0.6159
 6355TIP3    H219072   1.221   0.403   5.120  0.7593 -0.9811  0.2919
 6356TIP3   OH219073   5.754   3.030   1.955 -0.0409  0.5318  0.1714
 6356TIP3    H119074   5.734   3.068   2.041 -0.8637 -0.0137  0.2224
 6356TIP3    H219075   5.836   2.983   1.969 -1.0885 -1.0816  1.1350
 6357TIP3   OH219076   4.551   3.190   4.951  0.3618 -0.0394 -0.1058
 6357TIP3    H119077   4.597   3.178   4.868 -0.7868 -0.5768 -0.6825
 6357TIP3    H219078   4.465   3.151   4.937  0.5419 -1.2142  1.7254
 6358TIP3   OH219079   1.862   0.199   4.476 -0.4010 -0.2257 -0.2878
 6358TIP3    H119080   1.952   0.171   4.492 -0.6330 -1.2281 -0.6676
 6358TIP3    H219081   1.860   0.290   4.504  0.2667 -0.7022  1.4831
 6359TIP3   OH219082   5.305   5.650   3.905  0.3110  0.4055  0.5264
 6359TIP3    H119083   5.328   5.602   3.825 -1.9550 -2.0256  1.1754
 6359TIP3    H219084   5.220   5.688   3.886 -0.1161  0.0558  1.6650
 6360TIP3   OH219085   3.257   0.816   2.895  0.0311  0.1498 -0.1089
 6360TIP3    H119086   3.177   0.799   2.846  0.2127  1.0929 -0.7481
 6360TIP3    H219087   3.233   0.883   2.959  0.7823  2.0236 -1.7053
 6361TIP3   OH219088   2.189   2.279   3.761 -0.1229 -0.0914  0.8268
 6361TIP3    H119089   2.237   2.228   3.826  0.0048  0.0160  0.8169
 6361TIP3    H219090   2.152   2.214   3.701  0.9573 -0.1200  0.1754
 6362TIP3   OH219091   0.800   0.949   0.412  0.4970  0.0207 -0.3155
 6362TIP3    H119092   0.745   0.917   0.483 -0.2601 -0.4214 -1.0799
 6362TIP3    H219093   0.853   1.018   0.452  2.0861 -2.0280  1.3465
 6363TIP3   OH219094   3.190   2.453   1.544 -0.5196 -0.7022 -0.1229
 6363TIP3    H119095   3.125   2.510   1.502  0.9133  1.2854  0.2198
 6363TIP3    H219096   3.193   2.376   1.488 -0.1877  0.9626 -2.5699
 6364TIP3   OH219097   3.876   3.791   4.007 -0.3688  0.0794  0.6931
 6364TIP3    H119098   3.797   3.821   3.962 -0.1862  0.3208  0.5274
 6364TIP3    H219099   3.938   3.863   3.995 -0.2694  0.0770  1.2018
 6365TIP3   OH219100   0.414   3.595   3.087 -0.1998 -0.1552 -0.2410
 6365TIP3    H119101   0.444   3.547   3.010  1.4491  0.1627  0.1515
 6365TIP3    H219102   0.495   3.624   3.130 -1.0622 -0.4385  1.6852
 6366TIP3   OH219103   5.673   1.359   4.433  0.3448  0.3256  0.3468
 6366TIP3    H119104   5.759   1.323   4.454  1.2849  2.3727  0.3004
 6366TIP3    H219105   5.628   1.364   4.518 -0.0170 -1.3679  0.2815
 6367TIP3   OH219106   2.359   4.252   1.084 -0.1387 -0.2008  0.0354
 6367TIP3    H119107   2.394   4.283   1.000 -2.4971 -0.5017 -1.1329
 6367TIP3    H219108   2.368   4.157   1.080  1.4593 -0.1381  0.9982
 6368TIP3   OH219109   3.207   3.434   4.200 -0.2611  0.5607  0.5115
 6368TIP3    H119110   3.194   3.339   4.211 -1.2973  0.4059 -1.5601
 6368TIP3    H219111   3.186   3.471   4.285 -1.3108 -0.9495  0.9562
 6369TIP3   OH219112   3.301   4.469   4.232  0.4673  0.0796  0.4314
 6369TIP3    H119113   3.292   4.380   4.264 -0.0705 -0.0471 -0.0574
 6369TIP3    H219114   3.213   4.506   4.237  0.7797  0.7487  1.1019
 6370TIP3   OH219115   0.410   0.643   4.222 -0.9084  0.4131 -0.2665
 6370TIP3    H119116   0.446   0.573   4.169  0.5620  1.2973 -0.5106
 6370TIP3    H219117   0.398   0.716   4.161 -0.3661  1.0482  0.3636
 6371TIP3   OH219118   0.634   3.805   2.286  0.2047  0.5962  0.2172
 6371TIP3    H119119   0.618   3.880   2.344  0.7120  0.1356  0.9722
 6371TIP3    H219120   0.582   3.824   2.208 -0.4256  1.2791  0.7824
 6372TIP3   OH219121   0.650   3.697   3.540  0.0246  0.3347 -0.3358
 6372TIP3    H119122   0.614   3.650   3.615 -1.0447  1.0232 -0.3974
 6372TIP3    H219123   0.670   3.629   3.476 -1.3245 -0.0707 -0.3524
 6373TIP3   OH219124   4.415   2.733   4.502  0.1610 -0.1748 -0.0583
 6373TIP3    H119125   4.492   2.791   4.506  0.3178 -0.4282  1.2419
 6373TIP3    H219126   4.373   2.754   4.419  1.3880  0.2966 -0.5858
 6374TIP3   OH219127   0.921   2.971   0.262  0.3185 -0.2823  0.3682
 6374TIP3    H119128   0.963   3.024   0.330  1.2722  0.0293 -0.4356
 6374TIP3    H219129   0.828   2.997   0.265  0.8451  1.8718 -0.3528
 6375TIP3   OH219130   4.671   2.270   3.149  0.1181  0.4207 -0.4975
 6375TIP3    H119131   4.575   2.274   3.152  0.1060  0.5127 -0.8933
 6375TIP3    H219132   4.691   2.177   3.164 -0.1371  0.0137 -2.4347
 6376TIP3   OH219133   3.713   2.913   2.470  0.2379 -0.7384  0.1980
 6376TIP3    H119134   3.622   2.934   2.489  0.1260 -0.5681 -0.4924
 6376TIP3    H219135   3.757   2.997   2.465  0.2830 -0.7829 -0.1858
 6377TIP3   OH219136   2.053   2.017   0.117 -0.0763 -0.3357  0.4122
 6377TIP3    H119137   2.014   1.939   0.155 -0.6304  0.3383  1.2849
 6377TIP3    H219138   2.145   1.994   0.103  0.0815 -0.7473  1.8842
 6378TIP3   OH219139   2.359   3.885   1.295  0.3471 -0.3368  0.2404
 6378TIP3    H119140   2.380   3.918   1.208 -1.0123 -0.2437 -0.0697
 6378TIP3    H219141   2.270   3.915   1.311 -0.6868 -3.1510  0.2668
 6379TIP3   OH219142   4.353   0.381   3.772  0.4664 -0.8549  0.0014
 6379TIP3    H119143   4.364   0.301   3.824  1.7074  0.6689  2.2136
 6379TIP3    H219144   4.353   0.452   3.836 -0.7675  0.9480 -1.8875
 6380TIP3   OH219145   2.253   2.416   5.167 -0.2307  0.4951 -0.0212
 6380TIP3    H119146   2.348   2.426   5.169 -0.1483  0.2385 -1.5939
 6380TIP3    H219147   2.236   2.360   5.092 -1.5885 -0.0928  0.6832
 6381TIP3   OH219148   5.497   4.935   0.911  0.1449  0.2221 -0.0567
 6381TIP3    H119149   5.489   4.857   0.856  0.8012  0.8736 -1.1093
 6381TIP3    H219150   5.418   4.986   0.893  0.3178  0.3938 -0.3353
 6382TIP3   OH219151   4.109   3.923   4.306 -0.3040  0.1875 -0.0322
 6382TIP3    H119152   4.086   3.942   4.215  0.9120 -0.6802 -0.5456
 6382TIP3    H219153   4.093   4.005   4.353 -0.8794  0.6590 -1.0362
 6383TIP3   OH219154   5.346   0.508   2.752 -0.0841  0.3392  0.1903
 6383TIP3    H119155   5.383   0.441   2.695  0.5250  0.3389  0.5811
 6383TIP3    H219156   5.327   0.463   2.834  0.6682  0.7138  0.5818
 6384TIP3   OH219157   0.532   1.886   4.794  0.5257 -0.0122 -0.1483
 6384TIP3    H119158   0.440   1.860   4.788 -0.6834  3.8840 -1.2649
 6384TIP3    H219159   0.571   1.859   4.711 -0.2480  0.2932 -0.6189
 6385TIP3   OH219160   1.474   2.331   3.222 -0.2816  0.0311 -0.3755
 6385TIP3    H119161   1.442   2.244   3.246  0.0745 -0.1543 -0.5643
 6385TIP3    H219162   1.541   2.351   3.287 -1.1559  0.6664  0.3701
 6386TIP3   OH219163   5.531   2.501   0.021 -0.1902 -0.3125 -0.1021
 6386TIP3    H119164   5.559   2.410   0.030  1.1279 -0.0610 -1.3821
 6386TIP3    H219165   5.591   2.551   0.076  0.0604 -0.0673 -0.5883
 6387TIP3   OH219166   0.412   3.624   4.290  0.0601 -0.0497 -0.9349
 6387TIP3    H119167   0.428   3.692   4.357  3.2663 -1.6139  0.0755
 6387TIP3    H219168   0.401   3.544   4.341  0.4088 -0.9223 -2.2086
 6388TIP3   OH219169   3.892   1.660   1.775 -0.3242  0.4200 -0.6787
 6388TIP3    H119170   3.983   1.685   1.782  0.1481 -1.2283 -0.3764
 6388TIP3    H219171   3.845   1.718   1.835  0.9662 -0.6365  1.4779
 6389TIP3   OH219172   4.107   4.928   3.565 -0.6905 -0.0283  0.0710
 6389TIP3    H119173   4.093   4.833   3.568  0.5119 -0.2075  0.6151
 6389TIP3    H219174   4.188   4.942   3.615 -0.5196  1.2198 -0.5192
 6390TIP3   OH219175   5.630   5.358   1.420 -0.1882  0.3411 -0.2569
 6390TIP3    H119176   5.683   5.411   1.361  0.9552 -1.1646 -0.6308
 6390TIP3    H219177   5.563   5.319   1.364  1.0714 -1.3184 -0.6772
 6391TIP3   OH219178   4.132   4.908   4.597 -0.0080 -0.0266 -0.3800
 6391TIP3    H119179   4.213   4.956   4.612 -0.0554  0.4602 -1.5851
 6391TIP3    H219180   4.158   4.828   4.553 -0.0004 -0.8396  1.0328
 6392TIP3   OH219181   4.340   2.929   3.483  0.0066 -0.8481 -0.4773
 6392TIP3    H119182   4.333   3.006   3.539 -0.2517 -2.1792  1.4137
 6392TIP3    H219183   4.386   2.960   3.405  0.8359  0.9750  0.6677
 6393TIP3   OH219184   5.554   0.582   0.385  0.0943 -0.0369  0.0381
 6393TIP3    H119185   5.636   0.541   0.411  0.8255  0.3055 -1.5941
 6393TIP3    H219186   5.489   0.547   0.445  1.4085 -0.3979  1.2916
 6394TIP3   OH219187   4.501   5.217   1.928  0.2193 -0.6178 -0.4451
 6394TIP3    H119188   4.515   5.309   1.906  2.7804 -0.6634  0.6528
 6394TIP3    H219189   4.536   5.169   1.852 -0.3920 -0.6953 -0.6788
 6395TIP3   OH219190   3.667   3.017   3.187 -0.1496  0.8761  0.2362
 6395TIP3    H119191   3.722   3.002   3.110 -1.8263  1.5384 -1.1551
 6395TIP3    H219192   3.722   2.989   3.261  1.4469  0.0259 -1.1820
 6396TIP3   OH219193   3.432   4.532   3.832  0.2153  1.2259  0.4077
 6396TIP3    H119194   3.438   4.576   3.917  0.8984  0.4592  0.7716
 6396TIP3    H219195   3.470   4.446   3.847 -2.5314 -0.1493  0.1403
 6397TIP3   OH219196   6.293   5.785   1.330  0.1881 -0.1836  0.0626
 6397TIP3    H119197   6.288   5.699   1.287 -0.2761 -1.0257  1.7054
 6397TIP3    H219198   6.359   5.773   1.399  0.3735  0.8925  0.0881
 6398TIP3   OH219199   6.075   5.284   1.309  0.3061 -0.3998  0.1667
 6398TIP3    H119200   6.092   5.193   1.334  1.6569 -0.1173  0.3411
 6398TIP3    H219201   6.114   5.294   1.222  0.3911  0.0840  0.2555
 6399TIP3   OH219202   1.586   2.562   4.618 -0.0136 -0.0591 -0.0711
 6399TIP3    H119203   1.633   2.498   4.672 -1.6150 -1.5808 -0.4184
 6399TIP3    H219204   1.655   2.604   4.566  0.9618 -2.6936 -1.0633
 6400TIP3   OH219205   0.738   3.007   2.383  0.7319  0.7005  0.0832
 6400TIP3    H119206   0.791   2.938   2.425 -0.7775 -0.0232  0.8829
 6400TIP3    H219207   0.783   3.088   2.406  1.7826  0.0865  0.2968
 6401TIP3   OH219208   2.259   1.484   2.593 -0.3577 -0.2569 -0.1071
 6401TIP3    H119209   2.219   1.397   2.600  0.3550 -0.5633  0.2623
 6401TIP3    H219210   2.343   1.468   2.551  0.7597 -0.0653  1.9458
 6402TIP3   OH219211   6.127   5.856   3.608 -0.5801  0.0843 -0.5152
 6402TIP3    H119212   6.095   5.924   3.668 -1.4221  0.5468 -1.4664
 6402TIP3    H219213   6.111   5.892   3.521 -0.7453 -1.2106 -1.0319
 6403TIP3   OH219214   6.061   3.614   4.609 -0.2154  0.0945 -0.1261
 6403TIP3    H119215   6.031   3.688   4.556  0.0921  0.7339  0.5695
 6403TIP3    H219216   6.127   3.651   4.667  0.1014 -0.7788  0.0887
 6404TIP3   OH219217   5.523   4.765   1.130  0.3204 -0.1145 -0.0988
 6404TIP3    H119218   5.608   4.734   1.100  0.1675  0.3714 -1.0910
 6404TIP3    H219219   5.489   4.815   1.056 -1.8994 -2.2810 -0.6691
 6405TIP3   OH219220   0.649   2.873   0.791 -0.4746 -0.2461 -0.0639
 6405TIP3    H119221   0.645   2.940   0.723 -0.0333 -0.5302 -0.3707
 6405TIP3    H219222   0.736   2.834   0.783  0.1312  0.6615  1.5740
 6406TIP3   OH219223   2.544   5.521   1.931 -0.0068  0.1109  0.1640
 6406TIP3    H119224   2.631   5.487   1.910 -0.6413 -1.1038 -0.6227
 6406TIP3    H219225   2.485   5.470   1.876 -1.3706 -0.1690  1.8143
 6407TIP3   OH219226   3.911   5.303   1.173 -0.2281 -0.1559  0.9397
 6407TIP3    H119227   3.848   5.352   1.120  1.4796 -0.1966 -1.2624
 6407TIP3    H219228   3.945   5.367   1.235 -0.1827  0.6730  0.0765
 6408TIP3   OH219229   3.053   5.064   3.963  0.5582 -0.3455 -0.0836
 6408TIP3    H119230   3.093   5.151   3.959  0.8113 -0.4499  0.0936
 6408TIP3    H219231   3.106   5.012   3.902  2.2564 -1.0897  1.9022
 6409TIP3   OH219232   4.667   5.817   4.195  0.3205 -0.5068 -0.2443
 6409TIP3    H119233   4.735   5.874   4.232 -0.3262  0.1819 -0.0834
 6409TIP3    H219234   4.585   5.850   4.233 -0.2706 -0.3353 -1.6316
 6410TIP3   OH219235   3.577   1.599   1.193  0.0173  0.0043  0.0209
 6410TIP3    H119236   3.507   1.537   1.212  0.3151  0.1170  1.6603
 6410TIP3    H219237   3.610   1.574   1.107 -0.4596 -1.5494  0.2665
 6411TIP3   OH219238   2.404   1.983   0.726  0.3089 -0.4203 -0.0478
 6411TIP3    H119239   2.487   2.027   0.704 -0.7404  2.4787  1.2939
 6411TIP3    H219240   2.423   1.936   0.807  0.5957  0.4233  0.3828
 6412TIP3   OH219241   1.078   5.699   1.500  0.2789  0.1168  0.9198
 6412TIP3    H119242   1.113   5.781   1.533  2.0317 -0.6029  0.9600
 6412TIP3    H219243   1.084   5.706   1.404  2.3122 -0.6809  0.9418
 6413TIP3   OH219244   5.699   4.873   2.694 -0.1308  0.6095  0.0958
 6413TIP3    H119245   5.642   4.826   2.754 -0.5946  0.3535 -0.5289
 6413TIP3    H219246   5.672   4.964   2.700 -0.4256  0.5284  0.0041
 6414TIP3   OH219247   4.465   1.970   3.666 -0.1286  0.3063  0.0032
 6414TIP3    H119248   4.444   1.904   3.733  0.5059 -0.0416 -0.1352
 6414TIP3    H219249   4.560   1.978   3.669 -0.2772  2.1169  0.8563
 6415TIP3   OH219250   2.435   0.784   2.384  0.1972  0.7114  0.1475
 6415TIP3    H119251   2.480   0.708   2.419 -0.4316 -0.4042 -1.3419
 6415TIP3    H219252   2.457   0.783   2.290 -1.2309  1.3418 -0.2114
 6416TIP3   OH219253   6.049   1.566   0.079  0.7611 -0.1272  0.1027
 6416TIP3    H119254   6.041   1.528  -0.009 -2.0323 -2.5797  1.2236
 6416TIP3    H219255   5.996   1.645   0.076  3.6215  1.8947 -1.2666
 6417TIP3   OH219256   5.441   5.716   4.986  0.1929 -0.0811  0.0834
 6417TIP3    H119257   5.519   5.742   4.938  1.2654  1.4371  2.4839
 6417TIP3    H219258   5.406   5.797   5.021 -0.4365 -1.1005  1.9488
 6418TIP3   OH219259   4.332   3.560   0.379 -0.0638 -0.4406  0.1905
 6418TIP3    H119260   4.243   3.563   0.342 -0.4738 -0.1927  1.1570
 6418TIP3    H219261   4.389   3.579   0.305 -0.9557  1.8740 -0.0014
 6419TIP3   OH219262   1.861   5.059   2.383  0.1914 -0.4126  0.4695
 6419TIP3    H119263   1.916   5.086   2.309 -0.9829  0.4056 -0.1377
 6419TIP3    H219264   1.871   4.964   2.387 -0.6515 -0.6278 -1.5299
 6420TIP3   OH219265   0.066   0.982   1.640  0.1384  0.4184 -0.6338
 6420TIP3    H119266   0.009   1.028   1.578  1.2414  1.3958 -0.9494
 6420TIP3    H219267   0.047   1.023   1.724  0.5757  0.9552 -0.7899
 6421TIP3   OH219268   1.074   1.053   3.129 -0.1326  0.6327 -0.2818
 6421TIP3    H119269   1.155   1.069   3.079 -0.6538  1.1490 -0.9753
 6421TIP3    H219270   1.078   1.116   3.201 -0.7645  1.9208 -1.3364
 6422TIP3   OH219271   4.153   4.514   4.957  0.3356 -0.2327 -0.3723
 6422TIP3    H119272   4.224   4.478   5.010  0.0601  0.2229  0.3259
 6422TIP3    H219273   4.157   4.608   4.971  0.9360  0.0249 -2.0385
 6423TIP3   OH219274   5.252   3.478   2.023 -0.0757  0.5238 -0.1827
 6423TIP3    H119275   5.323   3.427   1.985 -0.1182 -0.9190  1.5723
 6423TIP3    H219276   5.295   3.549   2.069  0.2501 -0.2837  0.7818
 6424TIP3   OH219277   3.651   1.439   3.618 -0.2111 -0.1591 -0.3829
 6424TIP3    H119278   3.731   1.459   3.570 -0.1051  1.0952  0.2778
 6424TIP3    H219279   3.591   1.510   3.596 -1.0975 -0.9922 -0.7318
 6425TIP3   OH219280   2.430   0.530   3.100 -0.3681 -0.1805  0.6222
 6425TIP3    H119281   2.401   0.458   3.045  0.5335 -0.3551  0.3610
 6425TIP3    H219282   2.518   0.505   3.128 -0.9826 -0.3372  2.5647
 6426TIP3   OH219283   2.664   3.671   3.733 -0.2343 -0.0259 -0.5406
 6426TIP3    H119284   2.661   3.577   3.752 -0.7257 -0.1976 -1.4381
 6426TIP3    H219285   2.588   3.687   3.678  0.9054  0.5227 -2.0331
 6427TIP3   OH219286   3.734   0.377   3.486  0.4005 -0.3663 -0.2144
 6427TIP3    H119287   3.649   0.375   3.444  0.2104  0.2179  0.1422
 6427TIP3    H219288   3.758   0.469   3.490  1.4586 -0.5778 -1.1181
 6428TIP3   OH219289   2.825   3.985   0.595 -0.7404  0.0487 -0.0723
 6428TIP3    H119290   2.770   3.931   0.539 -0.2400  0.5781 -1.1007
 6428TIP3    H219291   2.792   4.074   0.582 -0.3178  0.2360  0.1228
 6429TIP3   OH219292   2.471   1.305   0.250 -0.3655  0.5017 -0.2317
 6429TIP3    H119293   2.561   1.298   0.216 -1.1078 -2.2584 -2.0181
 6429TIP3    H219294   2.475   1.263   0.336  0.3873  2.1394  0.5625
 6430TIP3   OH219295   5.360   2.153   3.787  0.0511 -0.4489  0.0945
 6430TIP3    H119296   5.412   2.072   3.781 -0.7252 -0.9841  0.5039
 6430TIP3    H219297   5.310   2.144   3.868  0.4536  0.7521  0.4936
 6431TIP3   OH219298   3.721   5.087   2.162 -0.2762  0.3657  0.4063
 6431TIP3    H119299   3.722   5.009   2.107 -0.4122 -0.0953  1.0561
 6431TIP3    H219300   3.628   5.109   2.172 -0.2282  0.8002 -0.0295
 6432TIP3   OH219301   5.349   5.308   1.793 -0.1745 -0.2081  0.3409
 6432TIP3    H119302   5.273   5.366   1.783 -0.2671 -0.1880  1.1208
 6432TIP3    H219303   5.424   5.367   1.799  0.0271 -0.2448 -1.2678
 6433TIP3   OH219304   1.041   1.778   1.490 -0.1540 -0.2393 -0.4425
 6433TIP3    H119305   1.131   1.780   1.522  0.7419 -0.8660 -2.7330
 6433TIP3    H219306   1.049   1.772   1.395 -2.6344  0.5854 -0.7836
 6434TIP3   OH219307   3.822   2.876   0.486  0.6132  0.4341 -0.5376
 6434TIP3    H119308   3.775   2.869   0.569  0.9667  0.9983 -0.2812
 6434TIP3    H219309   3.830   2.786   0.455  1.5767  0.0766  0.6685
 6435TIP3   OH219310   5.266   1.436   2.401 -0.0787  0.0443 -0.2500
 6435TIP3    H119311   5.227   1.523   2.409 -3.6188 -1.3654 -0.0944
 6435TIP3    H219312   5.264   1.417   2.307 -0.3788 -0.2819 -0.1793
 6436TIP3   OH219313   5.230   0.727   2.593 -0.7585 -0.3755 -0.4009
 6436TIP3    H119314   5.306   0.738   2.535 -0.5707  1.3232  0.1219
 6436TIP3    H219315   5.265   0.678   2.668 -0.2018  0.2847 -0.2211
 6437TIP3   OH219316   2.167   3.275   2.966 -0.4460 -0.2291 -0.5028
 6437TIP3    H119317   2.123   3.191   2.957  2.7948 -2.1655 -0.0622
 6437TIP3    H219318   2.175   3.289   3.060  1.6726 -1.0778 -0.4975
 6438TIP3   OH219319   1.392   4.335   4.443 -0.2188 -0.6324  0.1045
 6438TIP3    H119320   1.315   4.280   4.455 -2.6114  2.2522 -0.7423
 6438TIP3    H219321   1.375   4.413   4.496  0.4214  1.5418 -2.5861
 6439TIP3   OH219322   4.551   0.020   4.159  0.0487  0.0319  0.6712
 6439TIP3    H119323   4.592   0.107   4.155  0.0736  0.0096  0.4698
 6439TIP3    H219324   4.624  -0.040   4.175 -0.0284  0.1021  1.3085
 6440TIP3   OH219325   6.272   3.107   1.517  0.4687  0.4178  0.5793
 6440TIP3    H119326   6.219   3.027   1.512  1.9452 -0.6470  1.1839
 6440TIP3    H219327   6.210   3.175   1.542 -0.7857 -0.5739  0.3097
 6441TIP3   OH219328   1.045   2.085   2.556 -0.2426  0.0075  0.2142
 6441TIP3    H119329   1.132   2.067   2.592 -0.7187 -0.8538  0.9832
 6441TIP3    H219330   1.060   2.098   2.462  0.6207 -0.9105  0.2083
 6442TIP3   OH219331   6.263   5.336   2.811  0.5141 -0.3195  0.1565
 6442TIP3    H119332   6.261   5.364   2.902  1.3460  0.8725 -0.1730
 6442TIP3    H219333   6.288   5.414   2.762  0.7548 -1.1082 -1.0256
 6443TIP3   OH219334   3.465   4.239   0.557  0.1419 -0.3716  0.2923
 6443TIP3    H119335   3.419   4.238   0.641 -1.4568  2.8513 -0.3824
 6443TIP3    H219336   3.534   4.173   0.566 -0.2229 -0.4323  3.9606
 6444TIP3   OH219337   1.894   2.333   2.628 -0.9422 -0.2371  0.4042
 6444TIP3    H119338   1.955   2.339   2.554 -0.3681  1.3779  0.9658
 6444TIP3    H219339   1.862   2.243   2.625 -1.6025  0.0176 -2.3136
 6445TIP3   OH219340   0.332   2.927   1.550 -0.4030  0.4532 -0.5491
 6445TIP3    H119341   0.317   2.991   1.480  0.2606  0.9011 -0.2960
 6445TIP3    H219342   0.417   2.889   1.530 -0.2113  0.5761  0.0015
 6446TIP3   OH219343   4.577   1.100   3.199 -0.6924 -0.5076  0.3456
 6446TIP3    H119344   4.582   1.182   3.150  1.1504  0.2997  1.7826
 6446TIP3    H219345   4.483   1.089   3.216 -1.1261  0.4941 -1.1269
 6447TIP3   OH219346   2.290   2.869   0.763  0.5166 -0.1177 -0.0008
 6447TIP3    H119347   2.352   2.936   0.733  0.9068 -1.3331 -2.0625
 6447TIP3    H219348   2.304   2.795   0.704  0.6881 -2.3995  2.6731
 6448TIP3   OH219349   2.527   0.131   1.328 -0.0213 -0.5356 -0.1376
 6448TIP3    H119350   2.565   0.047   1.302 -0.4314 -0.6739 -0.3011
 6448TIP3    H219351   2.433   0.116   1.327 -0.1014 -0.0493 -0.2548
 6449TIP3   OH219352   3.776   4.373   0.196 -0.6756 -0.8983 -0.6096
 6449TIP3    H119353   3.809   4.447   0.247  1.3170 -1.4257 -1.0540
 6449TIP3    H219354   3.748   4.411   0.113  0.5813 -0.6498 -0.9353
 6450TIP3   OH219355   6.339   0.368   1.074 -0.1504 -0.4126 -0.0864
 6450TIP3    H119356   6.246   0.361   1.094 -0.5646 -2.5475 -2.2310
 6450TIP3    H219357   6.383   0.338   1.154 -1.2464  0.7881  1.0139
 6451TIP3   OH219358   2.405   2.217   1.104 -0.3635  0.1949 -0.1581
 6451TIP3    H119359   2.485   2.193   1.056 -0.1710 -0.5643  0.5173
 6451TIP3    H219360   2.417   2.178   1.190 -0.8257  1.3198  0.4235
 6452TIP3   OH219361   2.099   3.097   2.124 -0.4911 -0.3142  0.4266
 6452TIP3    H119362   2.192   3.092   2.103 -0.8468 -1.2864 -1.1181
 6452TIP3    H219363   2.094   3.080   2.218  0.9306  0.4904  0.6764
 6453TIP3   OH219364   4.289   3.572   3.330  0.6703 -0.1819 -0.1169
 6453TIP3    H119365   4.201   3.605   3.350  0.3042 -1.1827 -0.0014
 6453TIP3    H219366   4.347   3.646   3.347 -0.2556  0.8484 -1.2782
 6454TIP3   OH219367   5.957   2.557   1.830  0.2473 -0.1481  0.2362
 6454TIP3    H119368   6.051   2.577   1.824  0.1123  0.0758 -2.5784
 6454TIP3    H219369   5.917   2.605   1.757 -1.7650 -1.7061  0.2074
 6455TIP3   OH219370   6.100   1.956   1.611  0.1333  0.5358  0.1049
 6455TIP3    H119371   6.071   2.029   1.556  0.9522  1.0233  0.2999
 6455TIP3    H219372   6.160   1.996   1.674  1.4171 -0.4591 -0.4337
 6456TIP3   OH219373   5.855   1.657   4.925 -0.5333  0.0722 -0.5948
 6456TIP3    H119374   5.836   1.637   4.833 -1.6061 -0.5321 -0.2695
 6456TIP3    H219375   5.806   1.591   4.974 -3.1453  2.6158  0.5313
 6457TIP3   OH219376   5.041   5.630   3.573 -0.2266  0.1527 -0.2110
 6457TIP3    H119377   5.053   5.690   3.647 -1.4505  2.3653 -1.7068
 6457TIP3    H219378   4.982   5.676   3.514 -0.1627 -2.0103 -2.0867
 6458TIP3   OH219379   5.178   4.383   3.476  0.1321 -0.1003  0.6476
 6458TIP3    H119380   5.152   4.381   3.384  0.0761  1.5672  0.5916
 6458TIP3    H219381   5.106   4.428   3.520  0.9731  0.7405  1.1957
 6459TIP3   OH219382   5.402   0.128   3.243 -0.0965  0.2023  0.5440
 6459TIP3    H119383   5.398   0.223   3.248  0.6638  0.3270 -0.8669
 6459TIP3    H219384   5.373   0.098   3.330 -0.9685  1.6838  0.7827
 6460TIP3   OH219385   0.382   0.376   3.913 -0.1514 -0.1444 -0.0252
 6460TIP3    H119386   0.375   0.316   3.838  0.8125 -0.0813 -0.1849
 6460TIP3    H219387   0.353   0.460   3.879  0.4498 -0.0754 -0.3937
 6461TIP3   OH219388   4.583   0.327   1.328 -0.0130 -0.3549 -0.4221
 6461TIP3    H119389   4.534   0.322   1.246 -0.2416 -1.9178 -0.2219
 6461TIP3    H219390   4.543   0.400   1.375 -0.8645 -0.3786 -1.0827
 6462TIP3   OH219391   1.669   4.620   1.471  0.6833  0.0271 -0.9585
 6462TIP3    H119392   1.684   4.532   1.507 -1.0290 -0.0275 -0.2428
 6462TIP3    H219393   1.751   4.667   1.488  0.4426 -0.3832  1.9930
 6463TIP3   OH219394   5.832   1.834   0.703  0.2345  0.2268 -0.0737
 6463TIP3    H119395   5.853   1.792   0.786  2.3017 -1.6128 -1.4076
 6463TIP3    H219396   5.738   1.818   0.692  0.4418 -1.9056  0.6897
 6464TIP3   OH219397   0.213   1.791   3.694  0.5335 -0.1480 -0.5528
 6464TIP3    H119398   0.124   1.756   3.683  0.6777 -0.7996  0.2652
 6464TIP3    H219399   0.235   1.826   3.608 -1.6369  2.7332 -0.0830
 6465TIP3   OH219400   2.951   5.868   1.016 -0.1670 -0.4934 -0.1245
 6465TIP3    H119401   2.915   5.916   0.941 -0.8351 -0.7778  0.0189
 6465TIP3    H219402   2.877   5.824   1.055  0.1052 -0.0096  0.9706
 6466TIP3   OH219403   5.251   2.145   4.034  0.1309  0.2250  0.6333
 6466TIP3    H119404   5.290   2.084   4.098  0.2230  0.3995  0.7427
 6466TIP3    H219405   5.157   2.129   4.042  0.2364 -1.2472 -0.6770
 6467TIP3   OH219406   2.393   3.576   4.457 -0.1315  0.0793  0.0742
 6467TIP3    H119407   2.314   3.630   4.457 -2.8425 -3.4944 -1.4936
 6467TIP3    H219408   2.415   3.566   4.364  0.7704 -0.8894  0.3776
 6468TIP3   OH219409   1.111   0.924   3.506  0.0345  0.3068 -0.0939
 6468TIP3    H119410   1.117   0.869   3.584 -0.0007 -0.4230 -0.5981
 6468TIP3    H219411   1.104   0.862   3.433  3.0409  0.8434 -0.9973
 6469TIP3   OH219412   2.128   0.270   2.717  0.2650 -0.4511 -0.2733
 6469TIP3    H119413   2.065   0.341   2.726 -0.5912 -1.3175  0.9808
 6469TIP3    H219414   2.105   0.227   2.635  0.8198  0.7091 -1.0628
 6470TIP3   OH219415   0.085   0.559   1.386  0.1451  0.3400 -0.4060
 6470TIP3    H119416   0.081   0.481   1.331 -0.3412 -0.2442  0.4563
 6470TIP3    H219417   0.015   0.549   1.449 -0.4404  1.8564 -0.7588
 6471TIP3   OH219418   5.153   3.637   4.020  0.0285  0.2763  0.2448
 6471TIP3    H119419   5.247   3.651   4.007  0.1047  0.9399  1.3797
 6471TIP3    H219420   5.124   3.595   3.939  1.4216 -0.5477  0.1302
 6472TIP3   OH219421   0.776   1.655   0.537  0.0883  0.0543 -0.4990
 6472TIP3    H119422   0.691   1.680   0.502  0.2444 -1.2797 -1.9234
 6472TIP3    H219423   0.839   1.708   0.488  0.0879  1.3985  0.8932
 6473TIP3   OH219424   1.240   0.075   1.915 -0.2564  0.3857 -0.2068
 6473TIP3    H119425   1.251  -0.007   1.867  0.1712  0.6209 -0.5283
 6473TIP3    H219426   1.316   0.127   1.889  0.3808  0.2547  1.2749
 6474TIP3   OH219427   3.069   1.013   0.196 -0.7364 -0.3067 -0.1496
 6474TIP3    H119428   2.998   1.037   0.256  0.1963 -1.4979  1.4911
 6474TIP3    H219429   3.038   0.934   0.152 -1.1362  0.1830 -0.7720
 6475TIP3   OH219430   4.785   1.222   4.154 -0.1991  0.2699 -0.8281
 6475TIP3    H119431   4.757   1.305   4.115 -0.6796  0.4630 -0.0865
 6475TIP3    H219432   4.823   1.247   4.238 -2.6719 -0.4472  0.5911
 6476TIP3   OH219433   1.605   0.072   3.408  0.5539  0.1476  0.1828
 6476TIP3    H119434   1.589   0.133   3.335 -0.7868 -1.9414 -1.3993
 6476TIP3    H219435   1.569  -0.011   3.377  0.8991 -1.0863  2.8669
 6477TIP3   OH219436   5.110   5.869   4.839 -0.1538 -0.1653 -0.1193
 6477TIP3    H119437   5.039   5.838   4.783  0.7596  0.0606 -1.4567
 6477TIP3    H219438   5.168   5.916   4.780  0.7852  0.2078  1.0609
 6478TIP3   OH219439   3.226   3.437   4.761  1.0472  0.8215  0.3336
 6478TIP3    H119440   3.148   3.477   4.800  0.9254  0.5863  0.3308
 6478TIP3    H219441   3.228   3.470   4.671  0.4923  0.1796  0.0782
 6479TIP3   OH219442   3.011   0.985   4.346  0.2502 -0.8476 -0.0949
 6479TIP3    H119443   2.987   0.917   4.284  0.7520 -1.3072  0.2004
 6479TIP3    H219444   3.106   0.995   4.335  0.2311 -0.4206  0.0870
 6480TIP3   OH219445   6.220   0.813   4.836 -0.8834  0.0922 -0.4852
 6480TIP3    H119446   6.234   0.904   4.812 -2.9265  0.9188  1.1888
 6480TIP3    H219447   6.157   0.780   4.771 -1.5851  0.4680 -0.0138
 6481TIP3   OH219448   5.891   3.543   3.947  0.1417 -0.0923  0.7510
 6481TIP3    H119449   5.944   3.500   3.879 -1.2296 -0.1972 -0.3148
 6481TIP3    H219450   5.955   3.586   4.004  1.3705 -0.4206 -0.3200
 6482TIP3   OH219451   6.043   4.236   3.983 -0.0647  0.1565  0.1992
 6482TIP3    H119452   6.002   4.284   4.055 -1.8938  0.4816 -0.9980
 6482TIP3    H219453   6.058   4.301   3.915  0.3264 -0.4078 -0.2668
 6483TIP3   OH219454   6.064   2.048   4.591  0.6444  0.6131  0.1908
 6483TIP3    H119455   6.123   1.973   4.585  1.8438  1.5270  0.1993
 6483TIP3    H219456   6.056   2.065   4.685  1.6185  1.4380  0.1329
 6484TIP3   OH219457   2.189   3.205   0.890  0.7957  0.0097  0.3272
 6484TIP3    H119458   2.154   3.160   0.814  1.1131  1.0282 -0.4364
 6484TIP3    H219459   2.146   3.162   0.965 -0.0923 -0.4961 -0.4522
 6485TIP3   OH219460   5.083   1.779   4.140  0.1440 -0.4082  0.0351
 6485TIP3    H119461   5.083   1.796   4.046  0.4855 -2.1132 -0.3174
 6485TIP3    H219462   5.114   1.860   4.180 -1.7718  0.9943 -1.1621
 6486TIP3   OH219463   0.666   3.181   5.154  0.0386 -0.2259  0.0151
 6486TIP3    H119464   0.715   3.245   5.205 -0.1518 -0.6489  0.7514
 6486TIP3    H219465   0.693   3.196   5.064  0.3635  0.5592  0.2333
 6487TIP3   OH219466   5.092   1.971   4.558  0.1766  0.2953 -0.1058
 6487TIP3    H119467   5.127   1.979   4.647 -1.6679 -1.8998  0.9258
 6487TIP3    H219468   5.167   1.943   4.505  0.6673 -1.3982  1.4055
 6488TIP3   OH219469   0.324   1.547   4.148  0.0198 -0.0863  0.1659
 6488TIP3    H119470   0.344   1.453   4.147 -0.8262 -0.2775  0.1888
 6488TIP3    H219471   0.347   1.577   4.061  0.1037 -0.3594  0.0922
 6489TIP3   OH219472   5.935   5.924   0.729 -0.8016 -0.6178 -0.2907
 6489TIP3    H119473   5.882   5.998   0.700 -2.1247 -0.8157  1.4809
 6489TIP3    H219474   5.915   5.914   0.822  2.7810 -0.3548  0.6781
 6490TIP3   OH219475   1.978   2.838   0.561 -0.0759 -0.0281  0.2665
 6490TIP3    H119476   2.044   2.834   0.492  0.0170 -1.7115  0.4085
 6490TIP3    H219477   1.987   2.754   0.608 -1.4285  0.2616  1.0998
 6491TIP3   OH219478   0.495   0.201   3.060 -0.1844  0.5231 -0.0869
 6491TIP3    H119479   0.525   0.117   3.024 -0.3907 -0.6896  2.4112
 6491TIP3    H219480   0.420   0.225   3.005  0.4007 -0.4656 -1.3645
 6492TIP3   OH219481   1.362   4.515   2.350 -0.0169  0.4689  0.2765
 6492TIP3    H119482   1.326   4.565   2.277  1.2337 -0.1147 -0.7825
 6492TIP3    H219483   1.410   4.444   2.309  1.6018  0.7236  1.6135
 6493TIP3   OH219484   1.321   0.856   2.020 -0.1942 -0.9252 -0.0892
 6493TIP3    H119485   1.413   0.866   2.046 -0.2245 -0.8239 -0.0153
 6493TIP3    H219486   1.312   0.764   1.997 -0.5201 -1.3719  1.6881
 6494TIP3   OH219487   0.833   1.422   0.426  0.3528 -0.0361 -0.4577
 6494TIP3    H119488   0.810   1.506   0.465  1.3635  0.2250 -0.3904
 6494TIP3    H219489   0.759   1.401   0.368 -0.1487  0.6332 -0.0670
 6495TIP3   OH219490   2.582   0.159   3.552  0.5383 -0.4373  0.6887
 6495TIP3    H119491   2.594   0.249   3.522  0.0431 -1.3044 -2.4865
 6495TIP3    H219492   2.488   0.148   3.560  0.1919 -1.7209 -3.1649
 6496TIP3   OH219493   4.900   2.958   2.963  0.3659  0.5003  0.1198
 6496TIP3    H119494   4.972   2.923   2.911 -0.7405 -1.8764  0.0652
 6496TIP3    H219495   4.941   3.026   3.017  2.7706 -1.0899  0.4669
 6497TIP3   OH219496   5.134   3.218   4.321  0.0162 -0.1860 -0.0114
 6497TIP3    H119497   5.067   3.285   4.337  3.1715  2.8970  1.6918
 6497TIP3    H219498   5.161   3.234   4.231 -0.6670 -0.6253 -0.3028
 6498TIP3   OH219499   5.453   3.262   3.966 -0.4276 -0.1374  0.1264
 6498TIP3    H119500   5.433   3.334   4.026 -0.7924  1.7297 -2.0714
 6498TIP3    H219501   5.529   3.294   3.916  0.3313 -1.9325  0.0559
 6499TIP3   OH219502   0.900   3.823   3.636 -0.1851 -0.6353 -0.5565
 6499TIP3    H119503   0.893   3.753   3.701  1.3402 -1.5096 -1.2707
 6499TIP3    H219504   0.827   3.809   3.576 -0.7864 -0.6618  0.1762
 6500TIP3   OH219505   0.837   2.423   2.305 -0.0045 -0.1828 -0.2183
 6500TIP3    H119506   0.887   2.397   2.383 -2.4305 -1.0708  1.1598
 6500TIP3    H219507   0.840   2.518   2.306  0.1837 -0.1820  0.8686
 6501TIP3   OH219508   3.455   1.366   0.328 -0.0044  0.2731  0.3534
 6501TIP3    H119509   3.488   1.276   0.326 -0.5598  0.0744 -0.2991
 6501TIP3    H219510   3.487   1.404   0.246 -0.6703  0.3288  0.1097
 6502TIP3   OH219511   2.319   4.558   4.426  0.3357 -0.0687 -0.2601
 6502TIP3    H119512   2.265   4.636   4.440  2.8778  1.5130  1.8129
 6502TIP3    H219513   2.296   4.528   4.338 -3.1202  0.9965  0.1174
 6503TIP3   OH219514   5.254   1.937   0.399  0.3167 -0.3372 -0.1112
 6503TIP3    H119515   5.215   1.861   0.356  0.3813  0.3048 -1.3641
 6503TIP3    H219516   5.338   1.948   0.354  0.1795  0.6367 -0.1434
 6504TIP3   OH219517   4.147   2.214   0.254 -0.4904 -0.1890  0.1827
 6504TIP3    H119518   4.109   2.302   0.261 -0.0545 -0.0450  0.8901
 6504TIP3    H219519   4.221   2.216   0.315 -0.1656 -0.8856 -0.1838
 6505TIP3   OH219520   5.512   0.400   1.477 -0.2469 -0.0162 -0.2268
 6505TIP3    H119521   5.481   0.489   1.492  0.7497  0.1533  1.0034
 6505TIP3    H219522   5.444   0.360   1.422 -0.7285  1.4723 -0.7703
 6506TIP3   OH219523   1.905   0.107   0.154  0.1010 -0.3306  0.3446
 6506TIP3    H119524   1.918   0.023   0.110 -1.4569 -0.7270  0.6012
 6506TIP3    H219525   1.849   0.157   0.095 -2.1104 -0.9073  1.8316
 6507TIP3   OH219526   4.493   0.187   4.874 -0.0698 -0.2966 -0.1116
 6507TIP3    H119527   4.452   0.196   4.960 -0.2337  1.4036 -0.3383
 6507TIP3    H219528   4.489   0.093   4.855 -4.0033 -0.2391 -0.1841
 6508TIP3   OH219529   1.571   0.764   2.918  0.4319  0.2835 -0.0039
 6508TIP3    H119530   1.504   0.776   2.852  0.4856 -2.8614 -0.7593
 6508TIP3    H219531   1.536   0.698   2.977  2.2435 -0.3143  0.4635
 6509TIP3   OH219532   5.443   0.912   4.421 -0.3735  0.3134  0.0804
 6509TIP3    H119533   5.484   0.828   4.402 -1.4823 -0.2014 -0.1351
 6509TIP3    H219534   5.395   0.898   4.503 -2.2919  0.0620 -1.0209
 6510TIP3   OH219535   2.730   2.443   5.072  0.5077  0.2365  0.5646
 6510TIP3    H119536   2.821   2.458   5.048  0.4885 -0.2831  0.1506
 6510TIP3    H219537   2.699   2.377   5.010  0.3676 -0.9163  1.8061
 6511TIP3   OH219538   0.912   0.130   3.389 -0.0354  0.2666 -0.2826
 6511TIP3    H119539   0.958   0.049   3.409 -0.1359 -0.3765 -2.3668
 6511TIP3    H219540   0.958   0.197   3.439  1.4588 -0.7462 -0.2235
 6512TIP3   OH219541   4.615   3.113   0.698 -0.4689 -0.3742  0.0725
 6512TIP3    H119542   4.549   3.122   0.629  0.4526  2.1292 -0.5993
 6512TIP3    H219543   4.681   3.178   0.675 -0.1232  0.5701  3.3303
 6513TIP3   OH219544   4.133   4.352   3.164 -0.0332 -0.3781  0.1882
 6513TIP3    H119545   4.150   4.404   3.242 -0.6231  0.9290 -0.5385
 6513TIP3    H219546   4.216   4.306   3.148  0.7762  0.9588  0.3854
 6514TIP3   OH219547   4.853   1.708   1.926  0.3837 -0.6199 -0.0544
 6514TIP3    H119548   4.816   1.754   2.001  2.5938  0.3800  0.5316
 6514TIP3    H219549   4.815   1.751   1.850  1.4408  1.4311  0.5044
 6515TIP3   OH219550   2.011   0.059   4.855  0.1247  0.5742  0.3017
 6515TIP3    H119551   1.929   0.085   4.813  0.0530  1.0882  0.7554
 6515TIP3    H219552   2.063   0.139   4.858 -0.2538  0.7735  2.0787
 6516TIP3   OH219553   0.999   1.996   5.199  0.3478 -0.4233 -0.4352
 6516TIP3    H119554   0.993   1.944   5.119  0.5113  0.2994 -0.9230
 6516TIP3    H219555   0.988   2.086   5.170 -0.9419 -0.2402  0.5242
 6517TIP3   OH219556   2.467   3.218   4.789  0.6752  0.1498  0.2218
 6517TIP3    H119557   2.432   3.307   4.793  1.5969  0.5488 -0.3230
 6517TIP3    H219558   2.390   3.162   4.801  0.0634  1.0087  0.4491
 6518TIP3   OH219559   4.025   0.141   2.792 -0.0315 -0.6771  0.1388
 6518TIP3    H119560   4.092   0.072   2.793 -0.1110 -0.9652 -3.1880
 6518TIP3    H219561   3.966   0.116   2.722 -2.9131  0.3472  2.0336
 6519TIP3   OH219562   5.912   2.369   4.674  0.6061  0.3552 -0.0041
 6519TIP3    H119563   5.955   2.402   4.595 -0.4161  0.8248 -0.3846
 6519TIP3    H219564   5.964   2.404   4.746  1.7475 -0.3545 -0.4537
 6520TIP3   OH219565   0.539   1.862   3.735  1.0163  0.2552  0.3025
 6520TIP3    H119566   0.570   1.897   3.651 -1.4921 -0.0401 -0.8405
 6520TIP3    H219567   0.461   1.913   3.755  0.7426 -0.6655  1.7323
 6521TIP3   OH219568   5.310   3.341   1.288 -0.2545 -0.0799  0.1042
 6521TIP3    H119569   5.279   3.380   1.206 -0.3096 -1.2809 -0.4711
 6521TIP3    H219570   5.272   3.253   1.288 -0.8050  0.1297  1.7548
 6522TIP3   OH219571   2.857   4.587   1.594  0.4680 -0.9754  0.8167
 6522TIP3    H119572   2.920   4.638   1.543  1.7873 -2.7535  0.5701
 6522TIP3    H219573   2.911   4.531   1.650 -0.8322 -2.9502  0.2273
 6523TIP3   OH219574   3.539   5.323   1.126  0.3936  0.1492 -0.2505
 6523TIP3    H119575   3.566   5.263   1.196 -0.9202 -1.0481 -0.7222
 6523TIP3    H219576   3.457   5.361   1.157  1.0934  1.5920 -0.0595
 6524TIP3   OH219577   5.679   4.129   0.950  0.4547 -0.2531 -0.2137
 6524TIP3    H119578   5.727   4.209   0.927 -0.9532  0.4006 -1.0965
 6524TIP3    H219579   5.623   4.155   1.023  0.6068 -0.6638  0.0467
 6525TIP3   OH219580   4.293   3.021   1.286 -0.6745  0.0032  0.1134
 6525TIP3    H119581   4.303   2.989   1.376 -0.9426 -1.9239 -0.5004
 6525TIP3    H219582   4.243   3.102   1.295 -0.1385  0.1904  1.7454
 6526TIP3   OH219583   4.073   4.141   4.742  0.0222 -0.2406 -0.5871
 6526TIP3    H119584   4.168   4.147   4.755 -0.0485 -0.6453  0.1863
 6526TIP3    H219585   4.037   4.214   4.793 -0.2048 -1.3466  0.9176
 6527TIP3   OH219586   2.474   5.269   3.793  0.0906 -0.6252 -0.1217
 6527TIP3    H119587   2.428   5.318   3.725 -1.0165 -1.0444  0.3095
 6527TIP3    H219588   2.559   5.249   3.754  0.5419  1.5075 -0.3556
 6528TIP3   OH219589   1.748   4.843   3.833  0.3415  0.5506  0.4406
 6528TIP3    H119590   1.772   4.896   3.757 -0.5281  1.4413  0.7677
 6528TIP3    H219591   1.743   4.905   3.905  0.0998 -0.1126  1.0085
 6529TIP3   OH219592   2.472   3.168   2.599 -0.5905  0.0686 -0.5043
 6529TIP3    H119593   2.451   3.219   2.676  0.2053 -2.5842  1.6441
 6529TIP3    H219594   2.546   3.213   2.559 -1.1650  1.6204  0.1273
 6530TIP3   OH219595   4.275   5.704   4.610 -0.6674  0.1180 -0.4457
 6530TIP3    H119596   4.267   5.789   4.566 -0.0484  0.3922 -0.0510
 6530TIP3    H219597   4.208   5.649   4.570  0.6013  0.0041 -2.5682
 6531TIP3   OH219598   1.443   2.562   1.187  1.0606  0.2768  0.5628
 6531TIP3    H119599   1.413   2.482   1.145  1.6548 -0.0817  0.8076
 6531TIP3    H219600   1.538   2.552   1.194  1.2932  1.4635 -0.3763
 6532TIP3   OH219601   6.259   1.387   2.200  0.1760  0.5950  0.0621
 6532TIP3    H119602   6.352   1.368   2.207 -0.1319 -1.0150  0.0610
 6532TIP3    H219603   6.221   1.311   2.157 -1.4314  0.3365  1.7869
 6533TIP3   OH219604   2.900   1.170   3.512  0.3155 -0.8422 -0.2056
 6533TIP3    H119605   2.817   1.208   3.541  1.1887  1.3047 -0.3257
 6533TIP3    H219606   2.932   1.122   3.588  0.3924  0.9022  0.9471
 6534TIP3   OH219607   4.628   4.793   1.214 -0.4627 -0.3064 -0.8045
 6534TIP3    H119608   4.655   4.774   1.124 -2.3615 -0.6433 -1.3514
 6534TIP3    H219609   4.664   4.879   1.233  2.1339 -1.2810 -0.9245
 6535TIP3   OH219610   3.587   1.935   4.642 -0.6769  0.5586  0.2184
 6535TIP3    H119611   3.674   1.941   4.603 -0.4120  0.2790  0.7516
 6535TIP3    H219612   3.550   1.854   4.607 -0.7512  0.7104 -0.0583
 6536TIP3   OH219613   3.725   4.332   2.349 -0.2072  0.0042  0.2825
 6536TIP3    H119614   3.740   4.246   2.388  0.7553 -0.2943 -0.7091
 6536TIP3    H219615   3.812   4.364   2.325 -0.6352  0.8606 -0.1908
 6537TIP3   OH219616   0.169   0.767   0.016  0.1464 -0.7143 -0.4255
 6537TIP3    H119617   0.188   0.801   0.103 -0.0600 -0.8390 -0.3307
 6537TIP3    H219618   0.213   0.682   0.012 -1.1038 -1.4149  0.1188
 6538TIP3   OH219619   2.904   0.891   0.957 -0.7966 -0.1588 -0.0532
 6538TIP3    H119620   2.927   0.970   0.909 -1.4881 -0.1958 -0.4558
 6538TIP3    H219621   2.811   0.878   0.939 -0.8450 -0.6889  0.5532
 6539TIP3   OH219622   6.339   4.280   4.462  0.2407 -0.0202  0.1007
 6539TIP3    H119623   6.305   4.337   4.531  0.6499  1.3975 -0.8197
 6539TIP3    H219624   6.391   4.214   4.508  1.4575  1.5720  1.1013
 6540TIP3   OH219625   2.150   3.383   2.479  0.2019 -0.0826 -0.5472
 6540TIP3    H119626   2.242   3.367   2.454  0.4717  0.1984  0.2387
 6540TIP3    H219627   2.131   3.315   2.544  0.0642  0.2684 -0.2198
 6541TIP3   OH219628   4.660   3.804   2.209 -0.3460  0.3117 -0.3367
 6541TIP3    H119629   4.728   3.738   2.199 -0.7653 -0.1482 -0.2206
 6541TIP3    H219630   4.691   3.861   2.280  0.9275  1.4195 -1.7032
 6542TIP3   OH219631   0.326   3.067   1.304  0.7200 -1.2482  0.2484
 6542TIP3    H119632   0.394   3.016   1.260  3.0725  1.6807  0.1402
 6542TIP3    H219633   0.320   3.148   1.253 -1.8266 -0.7586  1.1607
 6543TIP3   OH219634   5.172   2.747   4.892  0.3167  0.4483 -0.5572
 6543TIP3    H119635   5.240   2.685   4.920  0.2129  0.0932 -1.0785
 6543TIP3    H219636   5.187   2.758   4.798 -0.7585 -0.1694 -0.8195
 6544TIP3   OH219637   5.971   5.426   2.572  0.2266  0.1608  0.4655
 6544TIP3    H119638   5.878   5.443   2.560  0.4321  0.2424 -1.2911
 6544TIP3    H219639   5.999   5.487   2.640 -0.9900  0.1532  0.9835
 6545TIP3   OH219640   5.550   0.186   3.811  0.1019  1.0618 -0.1221
 6545TIP3    H119641   5.565   0.126   3.738 -1.8302  0.4687 -0.0970
 6545TIP3    H219642   5.627   0.243   3.812  0.4516  0.7109 -2.2380
 6546TIP3   OH219643   0.572   4.561   5.072  0.4485  0.2040 -0.0046
 6546TIP3    H119644   0.551   4.592   4.984 -0.9866 -2.9539 -0.9121
 6546TIP3    H219645   0.516   4.613   5.130  1.0774  1.9943 -0.9243
 6547TIP3   OH219646   5.597   5.564   2.224  0.6461 -0.4342 -0.4922
 6547TIP3    H119647   5.629   5.624   2.291  1.3817 -0.3859 -0.8770
 6547TIP3    H219648   5.629   5.600   2.142  2.3910 -2.1298 -0.6139
 6548TIP3   OH219649   3.530   2.150   0.224 -0.1122  0.2123 -0.1223
 6548TIP3    H119650   3.482   2.171   0.144 -0.1945 -0.4386 -0.2496
 6548TIP3    H219651   3.610   2.108   0.194  0.2886  0.7965  0.1125
 6549TIP3   OH219652   5.947   5.777   2.643 -0.3187 -0.6725  0.6137
 6549TIP3    H119653   5.858   5.772   2.677 -0.8570  0.5092 -0.5318
 6549TIP3    H219654   5.936   5.780   2.548  0.9425 -0.3465  0.4658
 6550TIP3   OH219655   4.439   5.552   4.786  0.0180 -0.5791 -0.1195
 6550TIP3    H119656   4.379   5.489   4.826  0.9575 -0.7675  1.0537
 6550TIP3    H219657   4.387   5.596   4.719 -1.7332  0.0116  1.5627
 6551TIP3   OH219658   2.920   5.268   1.083 -0.3427 -0.0660 -0.0646
 6551TIP3    H119659   2.922   5.357   1.119 -1.9818 -0.2824  0.6592
 6551TIP3    H219660   2.892   5.213   1.156 -2.3041 -0.7321 -1.2150
 6552TIP3   OH219661   0.540   2.271   0.265 -0.1066 -0.1295 -0.2197
 6552TIP3    H119662   0.502   2.268   0.353  0.1652 -2.9692 -0.1077
 6552TIP3    H219663   0.618   2.326   0.275 -0.3225 -0.0492  1.2189
 6553TIP3   OH219664   3.413   1.637   0.083 -0.2297  0.6865 -0.6154
 6553TIP3    H119665   3.436   1.726   0.109 -0.9141  0.9906 -1.0345
 6553TIP3    H219666   3.497   1.591   0.079  0.2727  1.6626 -1.7354
 6554TIP3   OH219667   1.603   0.868   2.047  0.4441 -0.2235 -0.4232
 6554TIP3    H119668   1.672   0.821   1.999  1.1218  2.0118 -1.7821
 6554TIP3    H219669   1.650   0.935   2.096 -0.7294  1.2078 -1.2071
 6555TIP3   OH219670   5.997   4.930   3.900 -0.8478 -0.1453  0.1068
 6555TIP3    H119671   6.000   4.856   3.961  1.0768 -1.6257 -1.6257
 6555TIP3    H219672   5.911   4.924   3.859 -0.5795 -1.7009 -0.2771
 6556TIP3   OH219673   3.346   2.370   0.657 -0.0225  0.4185  0.1819
 6556TIP3    H119674   3.371   2.310   0.587 -0.0259  0.3172  0.2681
 6556TIP3    H219675   3.387   2.453   0.633 -0.3635  0.4922 -0.1555
 6557TIP3   OH219676   0.259   0.160   2.371  0.4195 -0.3568  0.2154
 6557TIP3    H119677   0.350   0.131   2.379  0.6058 -0.2614 -1.2936
 6557TIP3    H219678   0.223   0.150   2.459  2.2190  0.7343  1.1358
 6558TIP3   OH219679   0.926   3.206   3.043  0.1608  0.2292 -0.1542
 6558TIP3    H119680   0.908   3.198   2.949  1.0007 -0.7131 -0.2553
 6558TIP3    H219681   1.016   3.177   3.052 -0.5320 -1.6998  1.2153
 6559TIP3   OH219682   4.842   3.080   3.679 -0.0430 -0.3186 -0.6886
 6559TIP3    H119683   4.750   3.066   3.704  0.4497 -0.0274  1.5015
 6559TIP3    H219684   4.837   3.121   3.593 -1.9462 -0.7602 -0.8443
 6560TIP3   OH219685   4.147   0.257   0.028 -0.1920  0.1172 -0.3498
 6560TIP3    H119686   4.229   0.209   0.033 -0.6312 -0.5582  0.6830
 6560TIP3    H219687   4.083   0.194  -0.005 -0.4915  0.3776 -0.2833
 6561TIP3   OH219688   3.157   4.445   2.691  0.4120  0.2740 -0.1689
 6561TIP3    H119689   3.155   4.461   2.597 -2.6517  0.2363 -0.2054
 6561TIP3    H219690   3.065   4.450   2.719  0.8915 -2.1468  2.3986
 6562TIP3   OH219691   2.842   1.600   1.181 -0.3583 -0.4560  0.1201
 6562TIP3    H119692   2.835   1.690   1.211  0.1558  0.2786 -1.8266
 6562TIP3    H219693   2.825   1.547   1.259 -2.6326  1.2876  0.9070
 6563TIP3   OH219694   1.138   0.935   2.204 -0.2299 -0.4296 -0.3498
 6563TIP3    H119695   1.188   0.880   2.145 -0.4929  0.6059 -1.5779
 6563TIP3    H219696   1.051   0.894   2.207 -0.4580 -0.0450 -1.3440
 6564TIP3   OH219697   1.615   2.423   3.959  0.2851  0.6066 -0.4124
 6564TIP3    H119698   1.643   2.414   4.050 -1.1625 -0.3214 -0.0243
 6564TIP3    H219699   1.656   2.349   3.914 -0.1296  0.2469 -0.2082
 6565TIP3   OH219700   2.134   0.402   0.334  0.1301  0.0656  0.0115
 6565TIP3    H119701   2.169   0.436   0.251 -0.6172 -1.9321 -1.1856
 6565TIP3    H219702   2.081   0.474   0.368  1.2763  1.3004 -0.6985
 6566TIP3   OH219703   2.539   3.718   2.338 -0.1891 -0.3210 -0.7184
 6566TIP3    H119704   2.626   3.679   2.330  0.9432  2.1147 -0.9856
 6566TIP3    H219705   2.510   3.732   2.248  0.6673  1.9854 -0.6838
 6567TIP3   OH219706   5.927   4.292   4.214  0.6229 -0.0413 -0.4326
 6567TIP3    H119707   5.979   4.229   4.265  1.2474  0.4709 -0.4287
 6567TIP3    H219708   5.860   4.239   4.172 -0.2020 -0.4438  1.2703
 6568TIP3   OH219709   0.905   3.128   4.555 -0.0738 -0.2103  0.2709
 6568TIP3    H119710   0.948   3.156   4.475 -2.3724  1.2156 -0.5557
 6568TIP3    H219711   0.926   3.196   4.619 -0.0161 -0.2098  0.2510
 6569TIP3   OH219712   2.042   3.801   5.054  0.5733  0.2369 -0.1114
 6569TIP3    H119713   2.065   3.818   5.145  0.3697 -0.8832  0.1568
 6569TIP3    H219714   2.028   3.706   5.049 -0.6314  0.4326 -1.0301
 6570TIP3   OH219715   3.014   1.367   0.700  0.1969 -0.4355 -0.6796
 6570TIP3    H119716   3.057   1.452   0.705  0.5858 -0.6579  0.0708
 6570TIP3    H219717   3.072   1.313   0.646  0.3973 -0.4686 -0.4339
 6571TIP3   OH219718   1.795   5.020   4.861  0.6275  0.0168  0.1970
 6571TIP3    H119719   1.781   5.112   4.884 -4.5024 -0.4214 -0.1079
 6571TIP3    H219720   1.837   4.983   4.939  0.3097  2.0840  1.4347
 6572TIP3   OH219721   3.976   1.305   3.856 -0.0183  0.4431 -0.6450
 6572TIP3    H119722   3.902   1.282   3.913 -0.2624 -0.2153 -1.2009
 6572TIP3    H219723   4.012   1.220   3.829 -0.2537  0.7160 -1.8916
 6573TIP3   OH219724   0.492   1.496   1.764 -0.3118 -0.2012  0.4158
 6573TIP3    H119725   0.409   1.513   1.808  0.1494 -0.4931  1.4394
 6573TIP3    H219726   0.557   1.502   1.834  0.5750  0.4279 -0.4467
 6574TIP3   OH219727   0.095   4.341   0.171 -0.3175 -0.9885 -0.2677
 6574TIP3    H119728   0.116   4.371   0.082  2.1456  1.0397  0.8755
 6574TIP3    H219729   0.020   4.395   0.197  1.8563  1.9667  0.4573
 6575TIP3   OH219730   0.429   1.276   2.630 -0.2928  0.0344  0.7863
 6575TIP3    H119731   0.509   1.277   2.683  0.3234 -0.3838 -0.1171
 6575TIP3    H219732   0.436   1.354   2.575  0.8333 -1.3932 -1.2003
 6576TIP3   OH219733   1.222   0.289   3.560 -0.6547 -0.5233  0.2632
 6576TIP3    H119734   1.139   0.269   3.603 -1.5502  0.8716 -0.7394
 6576TIP3    H219735   1.204   0.282   3.467  0.5625 -0.8978  0.0331
 6577TIP3   OH219736   6.192   1.761   4.555 -0.3344  0.3234 -0.3848
 6577TIP3    H119737   6.249   1.685   4.565  0.1120  0.7123  0.0496
 6577TIP3    H219738   6.107   1.724   4.534 -0.9127 -0.4832  2.8766
 6578TIP3   OH219739   1.681   0.652   3.280 -0.2233 -0.0209 -0.4712
 6578TIP3    H119740   1.682   0.748   3.273 -2.4545 -0.0163 -1.5184
 6578TIP3    H219741   1.616   0.624   3.216 -0.5688 -2.1680  0.7228
 6579TIP3   OH219742   5.075   5.231   3.173  0.2164 -0.1556  1.2430
 6579TIP3    H119743   5.168   5.217   3.159 -0.0491 -1.2760  0.4948
 6579TIP3    H219744   5.062   5.324   3.153  0.8434 -0.4241 -0.6071
 6580TIP3   OH219745   1.379   0.583   4.898  0.5701  0.5164  0.1118
 6580TIP3    H119746   1.464   0.605   4.935  0.8341  1.2053 -0.8821
 6580TIP3    H219747   1.399   0.548   4.811 -0.1159 -0.0747  0.1799
 6581TIP3   OH219748   4.907   5.576   1.340  0.2811 -0.0506 -0.7334
 6581TIP3    H119749   4.968   5.629   1.392  1.4369 -1.0791 -0.9843
 6581TIP3    H219750   4.913   5.489   1.378  0.6563 -0.6694 -2.1601
 6582TIP3   OH219751   1.023   4.644   0.846  0.4825 -0.0257 -0.3792
 6582TIP3    H119752   0.945   4.632   0.793  0.7318 -0.5417 -0.6363
 6582TIP3    H219753   1.000   4.608   0.932  0.3971 -0.0644 -0.4181
 6583TIP3   OH219754   5.231   5.938   3.765 -0.8297  0.1984  0.6467
 6583TIP3    H119755   5.276   5.942   3.849 -3.3076  2.5163  2.0215
 6583TIP3    H219756   5.145   5.901   3.786 -0.8972 -0.8207 -1.2369
 6584TIP3   OH219757   4.238   3.831   1.325 -0.2713  0.3044  0.5836
 6584TIP3    H119758   4.161   3.817   1.270 -0.1841  0.6760  0.3659
 6584TIP3    H219759   4.312   3.809   1.268 -0.2694 -1.9516  1.3629
 6585TIP3   OH219760   2.048   3.812   2.344 -0.1798 -0.3200  0.2969
 6585TIP3    H119761   2.102   3.797   2.422  0.6183 -0.3018 -0.2430
 6585TIP3    H219762   2.014   3.901   2.356  1.3778  0.3827 -0.1915
 6586TIP3   OH219763   1.277   4.692   1.883  0.0473 -0.1220  0.1417
 6586TIP3    H119764   1.362   4.703   1.839 -0.5812 -0.5804 -1.2335
 6586TIP3    H219765   1.233   4.776   1.872 -0.5601 -0.5772 -1.1590
 6587TIP3   OH219766   3.037   2.252   4.155  0.5923  0.1531  0.3042
 6587TIP3    H119767   2.987   2.189   4.209 -1.0603  2.0329  1.0885
 6587TIP3    H219768   3.115   2.203   4.129 -1.5584 -3.0061 -0.9603
 6588TIP3   OH219769   3.934   1.287   4.345  0.2084 -0.0344 -0.1584
 6588TIP3    H119770   3.870   1.356   4.360  2.1000  1.9671 -0.7090
 6588TIP3    H219771   3.920   1.225   4.416 -1.3249  1.0789  0.5667
 6589TIP3   OH219772   4.927   0.376   1.341  0.0760 -0.0943  0.4506
 6589TIP3    H119773   4.921   0.371   1.246 -2.8286  0.5443  0.5122
 6589TIP3    H219774   4.865   0.310   1.372  1.5899 -0.8891  1.9662
 6590TIP3   OH219775   5.173   3.059   4.926 -0.3893 -0.4963  0.5753
 6590TIP3    H119776   5.126   3.142   4.938  0.6428  0.2291 -0.2271
 6590TIP3    H219777   5.143   3.004   4.999 -1.7934  0.2460  0.5849
 6591TIP3   OH219778   0.882   3.055   0.909 -0.1950  0.0336  0.0507
 6591TIP3    H119779   0.912   3.047   0.999  0.9707  1.1007 -0.2205
 6591TIP3    H219780   0.914   2.977   0.865 -1.3993 -0.8632  0.6967
 6592TIP3   OH219781   5.521   1.118   2.429  0.2855 -0.2013  0.2353
 6592TIP3    H119782   5.537   1.175   2.354  1.3675  0.2877  0.8193
 6592TIP3    H219783   5.459   1.167   2.484 -2.0916 -1.3781 -1.2096
 6593TIP3   OH219784   2.830   0.490   4.796  0.2558  0.2810  0.1684
 6593TIP3    H119785   2.749   0.489   4.846  0.3557  1.4448  0.3940
 6593TIP3    H219786   2.876   0.410   4.822 -0.4789 -0.0036  0.6017
 6594TIP3   OH219787   2.379   2.773   3.605  0.3275  0.0235 -0.1935
 6594TIP3    H119788   2.431   2.830   3.662  2.8255 -1.0443 -1.2406
 6594TIP3    H219789   2.389   2.685   3.642 -1.2741 -0.1412 -0.0884
 6595TIP3   OH219790   0.675   3.525   4.960  0.2968 -0.4914 -0.3272
 6595TIP3    H119791   0.663   3.496   5.051  1.6079  3.7252  1.4291
 6595TIP3    H219792   0.591   3.566   4.937 -0.0206 -1.5216 -1.1039
 6596TIP3   OH219793   4.873   4.302   2.136 -0.1236 -0.5060  0.3662
 6596TIP3    H119794   4.914   4.244   2.071  1.1277  1.7164 -0.9687
 6596TIP3    H219795   4.783   4.313   2.106  0.7917  1.6132 -1.9960
 6597TIP3   OH219796   2.412   1.549   3.803  0.3447  0.6515  0.6050
 6597TIP3    H119797   2.318   1.542   3.787  0.1937 -1.2062  2.0024
 6597TIP3    H219798   2.431   1.482   3.869  3.1041 -0.8288 -1.4812
 6598TIP3   OH219799   4.577   2.312   0.213 -0.0486 -0.1670  0.0955
 6598TIP3    H119800   4.591   2.253   0.288 -0.8427 -0.2098  0.2208
 6598TIP3    H219801   4.660   2.310   0.166  1.0382  1.1026  1.8339
 6599TIP3   OH219802   2.753   0.107   5.103  0.2448  0.0835 -0.0163
 6599TIP3    H119803   2.747   0.069   5.016  2.4547  1.8095 -1.0165
 6599TIP3    H219804   2.845   0.134   5.112  0.7770 -2.1569  3.8148
 6600TIP3   OH219805   1.007   5.152   3.398 -0.1239  0.3607  0.2973
 6600TIP3    H119806   0.919   5.145   3.434  0.9163 -0.7462  2.8410
 6600TIP3    H219807   1.060   5.187   3.470  1.5996  0.7100 -1.0592
 6601TIP3   OH219808   0.787   0.409   0.789 -0.5393 -0.5008  0.2760
 6601TIP3    H119809   0.779   0.351   0.864 -0.2954 -3.9279 -2.1427
 6601TIP3    H219810   0.697   0.429   0.763 -0.6209  0.1470  1.0115
 6602TIP3   OH219811   5.683   3.612   4.121 -0.2892 -0.2145  0.2006
 6602TIP3    H119812   5.693   3.563   4.203 -1.2692 -0.0525  0.4234
 6602TIP3    H219813   5.758   3.585   4.068  0.1761 -0.5735  1.0189
 6603TIP3   OH219814   0.576   0.387   0.199 -0.3916 -0.8250 -0.0285
 6603TIP3    H119815   0.542   0.466   0.156 -0.0715 -1.2017 -0.9871
 6603TIP3    H219816   0.661   0.372   0.158  0.3343 -0.6953  1.3724
 6604TIP3   OH219817   1.398   3.132   0.725 -0.2049  0.4761 -0.1571
 6604TIP3    H119818   1.398   3.097   0.636 -1.7325  2.4348 -0.9882
 6604TIP3    H219819   1.487   3.167   0.736  0.2364 -0.4599 -0.5904
 6605TIP3   OH219820   6.104   1.795   3.240  0.0392 -0.1231  0.1334
 6605TIP3    H119821   6.180   1.848   3.213  0.1672  1.6321  3.4679
 6605TIP3    H219822   6.088   1.738   3.165  0.5798  3.8352 -3.3853
 6606TIP3   OH219823   4.737   5.242   3.985  0.0080 -0.4571 -0.4014
 6606TIP3    H119824   4.808   5.219   4.045 -0.4419  0.2403  0.4269
 6606TIP3    H219825   4.670   5.176   3.999 -0.5998  0.3745  0.7755
 6607TIP3   OH219826   6.138   2.317   4.491  0.3976  0.2573  0.1761
 6607TIP3    H119827   6.165   2.226   4.487 -1.8031 -0.4182 -2.4925
 6607TIP3    H219828   6.095   2.333   4.407  0.9808  3.8777  0.4167
 6608TIP3   OH219829   3.110   0.702   0.883 -0.2824  0.0653 -0.1592
 6608TIP3    H119830   3.033   0.735   0.930 -0.7168  2.3367 -2.2467
 6608TIP3    H219831   3.171   0.776   0.883  1.1021 -1.0473 -0.2236
 6609TIP3   OH219832   2.608   1.683   1.550  0.3611  0.1215 -0.1146
 6609TIP3    H119833   2.623   1.769   1.511  0.0243  0.4062  0.3741
 6609TIP3    H219834   2.646   1.689   1.638  0.5144 -0.2945 -0.1498
 6610TIP3   OH219835   3.582   4.551   3.247  0.8855 -0.1320  0.1009
 6610TIP3    H119836   3.576   4.646   3.239 -0.5064 -0.1649  0.5210
 6610TIP3    H219837   3.576   4.519   3.156 -2.1590  0.0577  0.1566
 6611TIP3   OH219838   2.436   3.298   2.844 -0.6597  0.1483  0.0601
 6611TIP3    H119839   2.465   3.302   2.935 -1.9330 -1.4170  0.5815
 6611TIP3    H219840   2.341   3.290   2.849 -0.7263 -0.3385 -1.3905
 6612TIP3   OH219841   2.756   1.828   1.329 -0.2919 -0.2309  0.1022
 6612TIP3    H119842   2.676   1.796   1.287 -0.2988  0.1021 -0.1455
 6612TIP3    H219843   2.727   1.896   1.389 -0.1502  0.2375 -0.3535
 6613TIP3   OH219844   0.606   5.530   2.094 -0.0459 -0.7762 -0.1130
 6613TIP3    H119845   0.591   5.605   2.037  2.3617  0.1470  0.3413
 6613TIP3    H219846   0.659   5.470   2.041  0.1641 -1.0034  0.3464
 6614TIP3   OH219847   5.500   5.159   5.178  0.0776  0.3170 -0.1365
 6614TIP3    H119848   5.525   5.199   5.095  0.2247  1.4376  0.4211
 6614TIP3    H219849   5.408   5.183   5.190  0.3126  0.9718  0.4514
 6615TIP3   OH219850   2.984   2.577   2.754 -0.2565 -0.4091  0.3204
 6615TIP3    H119851   3.057   2.605   2.698  0.6755 -1.2786  1.0757
 6615TIP3    H219852   2.953   2.496   2.714 -0.5829 -0.2305  0.2072
 6616TIP3   OH219853   3.348   2.393   3.144 -0.0970  0.2341 -0.5306
 6616TIP3    H119854   3.432   2.429   3.115  0.7828 -0.4039  1.0762
 6616TIP3    H219855   3.295   2.470   3.166  0.4174  0.6262 -0.6549
 6617TIP3   OH219856   5.287   3.283   0.879 -0.3853 -0.2147  0.9902
 6617TIP3    H119857   5.231   3.339   0.932 -0.2345  2.9262 -1.8335
 6617TIP3    H219858   5.376   3.312   0.900 -0.1975 -0.6527  0.8030
 6618TIP3   OH219859   1.751   1.618   4.761 -0.0793  0.0424  0.7142
 6618TIP3    H119860   1.807   1.611   4.838  0.4184 -1.3130  0.2586
 6618TIP3    H219861   1.809   1.649   4.692 -0.6174  1.6679  0.9478
 6619TIP3   OH219862   2.852   0.634   1.901 -0.3991 -0.1613 -0.2259
 6619TIP3    H119863   2.916   0.564   1.885 -1.3892 -0.8626 -1.3064
 6619TIP3    H219864   2.878   0.704   1.841 -0.9481 -0.6670 -1.0731
 6620TIP3   OH219865   5.268   4.813   0.373  0.1414  0.3606  0.1815
 6620TIP3    H119866   5.285   4.855   0.289  1.0388  0.1361  0.2379
 6620TIP3    H219867   5.285   4.882   0.438  0.7287  0.1764  0.2315
 6621TIP3   OH219868   3.938   3.847   1.829 -0.0406 -0.0959 -0.7697
 6621TIP3    H119869   3.986   3.876   1.907 -0.1037  0.6140 -0.9847
 6621TIP3    H219870   3.892   3.768   1.857  1.8532 -1.2648 -0.7751
 6622TIP3   OH219871   2.392   3.121   4.271  0.6562  0.5810 -0.1936
 6622TIP3    H119872   2.408   3.085   4.358 -0.7112  0.0845 -0.1254
 6622TIP3    H219873   2.300   3.148   4.273 -0.2076 -1.8494 -2.2804
 6623TIP3   OH219874   3.262   3.263   2.883  0.5065 -0.3879  0.2667
 6623TIP3    H119875   3.328   3.243   2.949  0.3241  0.5087  0.7374
 6623TIP3    H219876   3.199   3.191   2.890 -0.0441  0.1898  1.7863
 6624TIP3   OH219877   2.029   2.003   0.965  0.2279  0.0274 -0.3592
 6624TIP3    H119878   2.094   1.945   1.005 -0.3851 -0.2283  0.3060
 6624TIP3    H219879   1.984   1.948   0.902  2.5920  0.9682 -3.0678
 6625TIP3   OH219880   5.593   1.033   1.242  0.0207 -0.3040  0.0188
 6625TIP3    H119881   5.669   1.092   1.239 -0.1461 -0.0463  0.7159
 6625TIP3    H219882   5.524   1.082   1.197 -0.0972  0.0161  0.5342
 6626TIP3   OH219883   1.238   5.925   1.559 -0.2239  0.2334 -0.6148
 6626TIP3    H119884   1.327   5.946   1.532  0.1657  0.6587  0.8817
 6626TIP3    H219885   1.182   5.968   1.494  0.6457  0.0472 -1.5101
 6627TIP3   OH219886   1.679   0.371   2.976  0.3513 -0.3451  0.8145
 6627TIP3    H119887   1.748   0.433   3.000  0.5803  0.4254 -1.5378
 6627TIP3    H219888   1.710   0.287   3.010  0.5939  0.5733  3.0492
 6628TIP3   OH219889   0.688   5.057   1.562  0.4958  0.1227  0.1281
 6628TIP3    H119890   0.672   5.029   1.652  0.7997  0.0284  0.1533
 6628TIP3    H219891   0.619   5.121   1.544  0.7560  0.5489  0.6143
 6629TIP3   OH219892   4.151   0.026   3.314 -0.5075  0.3387  0.3826
 6629TIP3    H119893   4.057   0.013   3.317 -0.4956  0.1501 -0.0787
 6629TIP3    H219894   4.172   0.068   3.398 -1.0141  0.4892  0.4354
 6630TIP3   OH219895   4.835   2.410   1.904  0.0164 -0.0573  0.0953
 6630TIP3    H119896   4.830   2.454   1.819 -0.8021 -1.6019 -0.7294
 6630TIP3    H219897   4.916   2.440   1.943  0.0420  1.2654 -0.9059
 6631TIP3   OH219898   5.367   3.920   1.015 -0.4501 -0.2110  0.0876
 6631TIP3    H119899   5.429   3.986   1.046 -0.6514  0.7258 -1.3571
 6631TIP3    H219900   5.299   3.972   0.971 -1.8267 -1.2638  0.9216
 6632TIP3   OH219901   0.738   3.888   1.405  0.2090 -0.1065 -0.2863
 6632TIP3    H119902   0.806   3.930   1.352  0.8062 -0.3779  0.2435
 6632TIP3    H219903   0.656   3.906   1.359  0.4030  1.9084  0.1024
 6633TIP3   OH219904   0.037   0.076   0.952  0.1697  0.7385 -0.9299
 6633TIP3    H119905   0.064   0.107   1.038  1.4058  0.2514 -1.1160
 6633TIP3    H219906  -0.043   0.026   0.968  0.9071 -0.1804  0.1049
 6634TIP3   OH219907   2.595   0.306   4.657 -0.2873 -0.4034  0.1221
 6634TIP3    H119908   2.552   0.353   4.585 -0.8155 -1.9163 -0.5894
 6634TIP3    H219909   2.671   0.265   4.616 -0.8184 -1.6180  0.3081
 6635TIP3   OH219910   2.891   0.548   3.998  0.7165 -0.3539 -0.0066
 6635TIP3    H119911   2.895   0.539   4.093  1.7514  0.1175  0.0065
 6635TIP3    H219912   2.812   0.599   3.982  0.0166 -1.2227  0.5250
 6636TIP3   OH219913   4.274   1.581   0.084 -0.2740 -0.1972 -0.0555
 6636TIP3    H119914   4.291   1.530   0.163 -0.9108 -1.1467 -0.5086
 6636TIP3    H219915   4.294   1.671   0.109  0.8978 -0.6580  0.7598
 6637TIP3   OH219916   5.146   3.360   1.692 -0.1294 -0.2226 -0.3932
 6637TIP3    H119917   5.190   3.291   1.743  1.4764 -0.6175 -2.2110
 6637TIP3    H219918   5.053   3.343   1.704  0.2018 -1.0259  1.3975
 6638TIP3   OH219919   0.328   0.921   3.821 -0.0028  0.1566  0.0474
 6638TIP3    H119920   0.304   0.900   3.911  0.3515 -1.3213 -0.1783
 6638TIP3    H219921   0.250   0.900   3.770  0.2693 -0.3618 -0.1561
 6639TIP3   OH219922   0.358   4.094   3.707 -0.2027 -0.5145  0.0145
 6639TIP3    H119923   0.428   4.054   3.655 -1.4071  0.5547 -2.5710
 6639TIP3    H219924   0.384   4.185   3.716 -1.6942  0.1627 -1.9264
 6640TIP3   OH219925   4.365   0.620   0.352  0.1208 -0.7432 -0.1514
 6640TIP3    H119926   4.297   0.554   0.363  0.4134 -0.8593  1.1455
 6640TIP3    H219927   4.430   0.598   0.419  0.4940  0.5209 -0.0846
 6641TIP3   OH219928   4.967   2.692   2.236  0.8557 -0.0944  0.2942
 6641TIP3    H119929   5.041   2.659   2.287  1.8875 -0.2189 -1.2396
 6641TIP3    H219930   4.900   2.625   2.246  1.4124 -0.6113  0.6510
 6642TIP3   OH219931   0.921   4.157   2.671 -0.9930 -0.1045  0.0317
 6642TIP3    H119932   1.005   4.201   2.686 -1.4458  1.0352 -0.6820
 6642TIP3    H219933   0.891   4.190   2.587 -1.5742 -1.4718 -0.3248
 6643TIP3   OH219934   2.369   5.754   3.511  0.2843  0.4375  0.3964
 6643TIP3    H119935   2.390   5.719   3.425 -0.5419 -0.3372  0.4969
 6643TIP3    H219936   2.361   5.849   3.497 -1.3990  0.1748 -0.7266
 6644TIP3   OH219937   0.441   0.940   1.326  0.1594 -0.3486  0.9979
 6644TIP3    H119938   0.382   0.881   1.373 -0.3408  1.5254  2.8850
 6644TIP3    H219939   0.419   1.027   1.360  1.4675  0.8453 -1.0161
 6645TIP3   OH219940   4.579   5.034   1.712  0.1144 -0.4731 -0.0988
 6645TIP3    H119941   4.560   5.049   1.619 -0.8423 -1.8547 -0.1594
 6645TIP3    H219942   4.671   5.008   1.714 -0.8445 -4.6469 -1.2795
   6.34734   5.98432   5.18258   0.00000   0.00000  -2.11578   0.00000  -2.11578  -2.99216
