Title t= 180.00000 step= 90000
19942
    1ASP      N    1   2.075   2.407   2.688
    1ASP    HT1    2   2.074   2.472   2.606
    1ASP    HT2    3   2.153   2.341   2.671
    1ASP    HT3    4   2.098   2.465   2.772
    1ASP     CA    5   1.946   2.345   2.710
    1ASP     HA    6   1.954   2.287   2.801
    1ASP     CB    7   1.843   2.450   2.741
    1ASP    HB1    8   1.819   2.508   2.649
    1ASP    HB2    9   1.874   2.519   2.822
    1ASP     CG   10   1.718   2.396   2.803
    1ASP    OD1   11   1.637   2.480   2.855
    1ASP    OD2   12   1.714   2.272   2.828
    1ASP      C   13   1.926   2.240   2.594
    1ASP      O   14   1.988   2.241   2.492
    2ALA      N   15   1.845   2.132   2.614
    2ALA     HN   16   1.785   2.123   2.693
    2ALA     CA   17   1.826   2.030   2.514
    2ALA     HA   18   1.852   2.063   2.415
    2ALA     CB   19   1.911   1.901   2.547
    2ALA    HB1   20   1.906   1.819   2.472
    2ALA    HB2   21   1.896   1.868   2.652
    2ALA    HB3   22   2.013   1.944   2.556
    2ALA      C   23   1.675   1.991   2.506
    2ALA      O   24   1.596   2.040   2.590
    3ASP      N   25   1.635   1.908   2.409
    3ASP     HN   26   1.701   1.881   2.338
    3ASP     CA   27   1.498   1.863   2.386
    3ASP     HA   28   1.445   1.955   2.368
    3ASP     CB   29   1.497   1.768   2.268
    3ASP    HB1   30   1.399   1.717   2.264
    3ASP    HB2   31   1.582   1.697   2.275
    3ASP     CG   32   1.515   1.854   2.143
    3ASP    OD1   33   1.540   1.799   2.037
    3ASP    OD2   34   1.497   1.976   2.148
    3ASP      C   35   1.442   1.792   2.514
    3ASP      O   36   1.508   1.705   2.575
    4GLY      N   37   1.310   1.806   2.552
    4GLY     HN   38   1.263   1.877   2.501
    4GLY     CA   39   1.240   1.729   2.649
    4GLY    HA1   40   1.136   1.760   2.645
    4GLY    HA2   41   1.303   1.745   2.734
    4GLY      C   42   1.241   1.580   2.628
    4GLY      O   43   1.257   1.539   2.515
    5PRO      N   44   1.222   1.497   2.731
    5PRO     CD   45   1.193   1.544   2.868
    5PRO    HD1   46   1.093   1.592   2.872
    5PRO    HD2   47   1.280   1.604   2.904
    5PRO     CA   48   1.226   1.351   2.717
    5PRO     HA   49   1.308   1.332   2.649
    5PRO     CB   50   1.238   1.299   2.860
    5PRO    HB1   51   1.342   1.292   2.899
    5PRO    HB2   52   1.186   1.204   2.884
    5PRO     CG   53   1.179   1.414   2.943
    5PRO    HG1   54   1.072   1.398   2.970
    5PRO    HG2   55   1.230   1.416   3.042
    5PRO      C   56   1.100   1.292   2.651
    5PRO      O   57   1.009   1.366   2.623
    6GLY      N   58   1.095   1.155   2.633
    6GLY     HN   59   1.180   1.104   2.646
    6GLY     CA   60   0.987   1.090   2.556
    6GLY    HA1   61   1.033   1.030   2.478
    6GLY    HA2   62   0.920   1.165   2.517
    6GLY      C   63   0.898   1.004   2.637
    6GLY      O   64   0.859   1.040   2.750
    7ASP      N   65   0.863   0.881   2.583
    7ASP     HN   66   0.884   0.869   2.486
    7ASP     CA   67   0.789   0.770   2.643
    7ASP     HA   68   0.693   0.809   2.672
    7ASP     CB   69   0.769   0.660   2.531
    7ASP    HB1   70   0.868   0.635   2.487
    7ASP    HB2   71   0.698   0.702   2.456
    7ASP     CG   72   0.702   0.538   2.581
    7ASP    OD1   73   0.720   0.432   2.516
    7ASP    OD2   74   0.616   0.558   2.667
    7ASP      C   75   0.858   0.718   2.775
    7ASP      O   76   0.974   0.678   2.768
    8PRO      N   77   0.794   0.699   2.888
    8PRO     CD   78   0.668   0.761   2.921
    8PRO    HD1   79   0.584   0.688   2.914
    8PRO    HD2   80   0.645   0.850   2.860
    8PRO     CA   81   0.850   0.635   3.015
    8PRO     HA   82   0.948   0.678   3.027
    8PRO     CB   83   0.751   0.663   3.125
    8PRO    HB1   84   0.811   0.685   3.216
    8PRO    HB2   85   0.690   0.574   3.148
    8PRO     CG   86   0.673   0.783   3.077
    8PRO    HG1   87   0.570   0.789   3.116
    8PRO    HG2   88   0.733   0.873   3.104
    8PRO      C   89   0.870   0.489   2.987
    8PRO      O   90   0.964   0.435   3.041
    9ASP      N   91   0.784   0.418   2.910
    9ASP     HN   92   0.705   0.454   2.861
    9ASP     CA   93   0.797   0.270   2.886
    9ASP     HA   94   0.826   0.235   2.983
    9ASP     CB   95   0.663   0.213   2.845
    9ASP    HB1   96   0.681   0.125   2.780
    9ASP    HB2   97   0.613   0.288   2.780
    9ASP     CG   98   0.572   0.185   2.959
    9ASP    OD1   99   0.482   0.095   2.940
    9ASP    OD2  100   0.580   0.252   3.067
    9ASP      C  101   0.906   0.235   2.785
    9ASP      O  102   0.930   0.119   2.745
   10ALA      N  103   0.987   0.331   2.746
   10ALA     HN  104   0.981   0.426   2.777
   10ALA     CA  105   1.115   0.312   2.672
   10ALA     HA  106   1.106   0.235   2.597
   10ALA     CB  107   1.147   0.450   2.615
   10ALA    HB1  108   1.248   0.469   2.574
   10ALA    HB2  109   1.140   0.518   2.702
   10ALA    HB3  110   1.082   0.482   2.531
   10ALA      C  111   1.218   0.259   2.763
   10ALA      O  112   1.206   0.287   2.883
   11GLY      N  113   1.313   0.178   2.711
   11GLY     HN  114   1.315   0.174   2.612
   11GLY     CA  115   1.414   0.107   2.785
   11GLY    HA1  116   1.397   0.092   2.891
   11GLY    HA2  117   1.495   0.177   2.774
   11GLY      C  118   5.671   5.949   2.725
   11GLY    OT1  119   5.779   5.893   2.760
   11GLY    OT2  120   5.586   5.897   2.653
   12LIT    LIT  121   3.906   4.850   3.234
   13LIT    LIT  122   1.629   2.571   2.389
   14LIT    LIT  123   6.100   4.349   1.578
   15LIT    LIT  124   0.396   2.059   2.741
   16LIT    LIT  125   4.009   5.639   3.798
   17LIT    LIT  126   3.190   5.086   4.524
   18LIT    LIT  127   6.224   5.823   4.080
   19LIT    LIT  128   4.654   5.913   2.937
   20LIT    LIT  129   3.792   2.448   3.838
   21LIT    LIT  130   4.036   0.158   1.547
   22LIT    LIT  131   5.852   3.742   0.755
   23LIT    LIT  132   2.494   2.971   2.006
   24LIT    LIT  133   4.604   3.021   2.691
   25LIT    LIT  134   5.046   1.347   5.061
   26LIT    LIT  135   2.173   0.846   3.938
   27LIT    LIT  136   0.718   1.627   3.482
   28LIT    LIT  137   1.229   1.480   4.583
   29LIT    LIT  138   2.366   4.804   0.464
   30LIT    LIT  139   2.684   2.778   3.217
   31LIT    LIT  140   5.340   0.161   0.584
   32LIT    LIT  141   4.920   5.245   1.134
   33LIT    LIT  142   3.643   0.385   0.891
   34CLA    CLA  143   3.692   2.493   2.339
   35CLA    CLA  144   1.778   2.729   5.058
   36CLA    CLA  145   0.003   3.704   2.054
   37CLA    CLA  146   0.101   5.169   2.741
   38CLA    CLA  147   4.988   5.607   1.352
   39CLA    CLA  148   4.184   3.930   2.946
   40CLA    CLA  149   0.597   2.951   2.931
   41CLA    CLA  150   4.412   0.565   4.724
   42CLA    CLA  151   4.845   3.437   0.031
   43CLA    CLA  152   0.892   3.646   0.228
   44CLA    CLA  153   5.566   1.859   4.104
   45CLA    CLA  154   6.351   5.365   0.295
   46CLA    CLA  155   2.218   0.111   4.862
   47CLA    CLA  156   2.023   0.787   4.125
   48CLA    CLA  157   2.076   4.888   3.638
   49CLA    CLA  158   1.788   2.487   4.434
   50CLA    CLA  159   1.881   2.518   0.953
   51CLA    CLA  160   4.294   0.241   1.137
   52TIP3   OH2  161   5.322   1.254   1.646
   52TIP3    H1  162   5.328   1.164   1.613
   52TIP3    H2  163   5.231   1.279   1.631
   53TIP3   OH2  164   5.434   4.282   4.954
   53TIP3    H1  165   5.347   4.318   4.973
   53TIP3    H2  166   5.494   4.336   5.007
   54TIP3   OH2  167   1.542   2.527   4.662
   54TIP3    H1  168   1.474   2.540   4.595
   54TIP3    H2  169   1.614   2.486   4.615
   55TIP3   OH2  170   4.947   1.789   2.624
   55TIP3    H1  171   4.859   1.816   2.601
   55TIP3    H2  172   4.998   1.805   2.544
   56TIP3   OH2  173   4.492   4.216   2.032
   56TIP3    H1  174   4.418   4.163   2.001
   56TIP3    H2  175   4.456   4.270   2.102
   57TIP3   OH2  176   1.201   2.550   0.786
   57TIP3    H1  177   1.158   2.473   0.825
   57TIP3    H2  178   1.217   2.608   0.860
   58TIP3   OH2  179   0.380   3.855   2.384
   58TIP3    H1  180   0.342   3.799   2.316
   58TIP3    H2  181   0.370   3.944   2.351
   59TIP3   OH2  182   1.685   1.698   4.281
   59TIP3    H1  183   1.749   1.653   4.335
   59TIP3    H2  184   1.730   1.778   4.252
   60TIP3   OH2  185   2.748   5.055   2.664
   60TIP3    H1  186   2.754   5.049   2.569
   60TIP3    H2  187   2.837   5.041   2.695
   61TIP3   OH2  188   5.171   1.250   0.862
   61TIP3    H1  189   5.082   1.215   0.869
   61TIP3    H2  190   5.194   1.239   0.769
   62TIP3   OH2  191   6.155   3.064   2.942
   62TIP3    H1  192   6.236   3.107   2.914
   62TIP3    H2  193   6.156   3.071   3.038
   63TIP3   OH2  194   0.555   3.983   5.106
   63TIP3    H1  195   0.577   4.076   5.102
   63TIP3    H2  196   0.547   3.956   5.014
   64TIP3   OH2  197   5.920   1.320   1.562
   64TIP3    H1  198   6.007   1.359   1.572
   64TIP3    H2  199   5.936   1.234   1.524
   65TIP3   OH2  200   4.463   2.039   2.970
   65TIP3    H1  201   4.394   2.007   3.029
   65TIP3    H2  202   4.538   1.982   2.987
   66TIP3   OH2  203   5.354   2.532   0.952
   66TIP3    H1  204   5.343   2.543   1.046
   66TIP3    H2  205   5.429   2.588   0.930
   67TIP3   OH2  206   4.824   3.533   5.002
   67TIP3    H1  207   4.881   3.529   5.079
   67TIP3    H2  208   4.739   3.558   5.038
   68TIP3   OH2  209   0.805   1.738   5.046
   68TIP3    H1  210   0.771   1.650   5.031
   68TIP3    H2  211   0.876   1.748   4.983
   69TIP3   OH2  212   2.087   4.536   1.297
   69TIP3    H1  213   2.027   4.610   1.308
   69TIP3    H2  214   2.111   4.511   1.386
   70TIP3   OH2  215   0.174   1.110   2.881
   70TIP3    H1  216   0.099   1.168   2.896
   70TIP3    H2  217   0.136   1.023   2.875
   71TIP3   OH2  218   4.129   2.048   4.138
   71TIP3    H1  219   4.220   2.076   4.126
   71TIP3    H2  220   4.109   2.072   4.229
   72TIP3   OH2  221   4.639   2.133   0.318
   72TIP3    H1  222   4.596   2.052   0.291
   72TIP3    H2  223   4.583   2.168   0.387
   73TIP3   OH2  224   4.860   5.278   1.940
   73TIP3    H1  225   4.860   5.349   1.875
   73TIP3    H2  226   4.828   5.318   2.020
   74TIP3   OH2  227   2.310   1.189   2.312
   74TIP3    H1  228   2.252   1.251   2.356
   74TIP3    H2  229   2.398   1.225   2.324
   75TIP3   OH2  230   0.723   1.830   2.449
   75TIP3    H1  231   0.749   1.739   2.436
   75TIP3    H2  232   0.762   1.854   2.533
   76TIP3   OH2  233   2.546   1.885   2.822
   76TIP3    H1  234   2.627   1.855   2.865
   76TIP3    H2  235   2.560   1.978   2.806
   77TIP3   OH2  236   2.689   2.916   0.438
   77TIP3    H1  237   2.725   2.918   0.349
   77TIP3    H2  238   2.610   2.863   0.430
   78TIP3   OH2  239   4.077   2.723   5.164
   78TIP3    H1  240   4.163   2.721   5.122
   78TIP3    H2  241   4.026   2.786   5.113
   79TIP3   OH2  242   3.192   4.838   1.003
   79TIP3    H1  243   3.242   4.800   1.076
   79TIP3    H2  244   3.109   4.790   1.003
   80TIP3   OH2  245   3.618   5.220   0.063
   80TIP3    H1  246   3.570   5.246   0.142
   80TIP3    H2  247   3.635   5.303   0.018
   81TIP3   OH2  248   4.272   3.669   4.879
   81TIP3    H1  249   4.313   3.629   4.955
   81TIP3    H2  250   4.238   3.753   4.911
   82TIP3   OH2  251   5.720   0.573   0.892
   82TIP3    H1  252   5.787   0.535   0.947
   82TIP3    H2  253   5.721   0.667   0.914
   83TIP3   OH2  254   5.390   1.556   4.942
   83TIP3    H1  255   5.351   1.633   4.901
   83TIP3    H2  256   5.472   1.542   4.895
   84TIP3   OH2  257   3.481   2.219   3.644
   84TIP3    H1  258   3.434   2.158   3.587
   84TIP3    H2  259   3.413   2.262   3.695
   85TIP3   OH2  260   1.355   4.523   1.512
   85TIP3    H1  261   1.383   4.439   1.548
   85TIP3    H2  262   1.259   4.518   1.510
   86TIP3   OH2  263   5.992   1.482   1.819
   86TIP3    H1  264   5.915   1.532   1.790
   86TIP3    H2  265   6.064   1.515   1.765
   87TIP3   OH2  266   1.403   3.746   3.404
   87TIP3    H1  267   1.365   3.660   3.385
   87TIP3    H2  268   1.492   3.741   3.370
   88TIP3   OH2  269   2.230   1.892   3.549
   88TIP3    H1  270   2.177   1.823   3.509
   88TIP3    H2  271   2.279   1.846   3.618
   89TIP3   OH2  272   5.397   5.189   0.439
   89TIP3    H1  273   5.473   5.235   0.405
   89TIP3    H2  274   5.326   5.212   0.380
   90TIP3   OH2  275   1.101   0.596   4.056
   90TIP3    H1  276   1.109   0.649   4.135
   90TIP3    H2  277   1.008   0.571   4.053
   91TIP3   OH2  278   6.139   3.834   1.031
   91TIP3    H1  279   6.107   3.808   1.118
   91TIP3    H2  280   6.117   3.760   0.975
   92TIP3   OH2  281   4.089   4.358   2.355
   92TIP3    H1  282   4.113   4.362   2.447
   92TIP3    H2  283   4.094   4.449   2.325
   93TIP3   OH2  284   6.083   2.248   1.345
   93TIP3    H1  285   6.130   2.210   1.420
   93TIP3    H2  286   5.991   2.244   1.370
   94TIP3   OH2  287   3.253   4.561   3.870
   94TIP3    H1  288   3.164   4.528   3.870
   94TIP3    H2  289   3.246   4.647   3.829
   95TIP3   OH2  290   4.615   0.846   3.717
   95TIP3    H1  291   4.650   0.838   3.628
   95TIP3    H2  292   4.571   0.931   3.718
   96TIP3   OH2  293   5.527   5.238   1.082
   96TIP3    H1  294   5.613   5.250   1.123
   96TIP3    H2  295   5.479   5.318   1.105
   97TIP3   OH2  296   4.985   4.776   4.004
   97TIP3    H1  297   4.950   4.852   3.957
   97TIP3    H2  298   4.910   4.743   4.054
   98TIP3   OH2  299   0.461   4.788   3.997
   98TIP3    H1  300   0.476   4.833   3.914
   98TIP3    H2  301   0.409   4.850   4.049
   99TIP3   OH2  302   5.388   2.702   1.666
   99TIP3    H1  303   5.474   2.686   1.703
   99TIP3    H2  304   5.399   2.781   1.613
  100TIP3   OH2  305   3.585   2.946   4.141
  100TIP3    H1  306   3.655   3.007   4.117
  100TIP3    H2  307   3.616   2.905   4.222
  101TIP3   OH2  308   3.578   1.496   1.351
  101TIP3    H1  309   3.610   1.531   1.434
  101TIP3    H2  310   3.564   1.573   1.296
  102TIP3   OH2  311   5.469   4.778   0.451
  102TIP3    H1  312   5.543   4.838   0.445
  102TIP3    H2  313   5.392   4.835   0.449
  103TIP3   OH2  314   2.973   5.236   2.488
  103TIP3    H1  315   2.885   5.213   2.459
  103TIP3    H2  316   3.030   5.217   2.413
  104TIP3   OH2  317   6.249   5.484   2.554
  104TIP3    H1  318   6.312   5.431   2.506
  104TIP3    H2  319   6.220   5.428   2.626
  105TIP3   OH2  320   0.104   5.073   2.219
  105TIP3    H1  321   0.113   5.055   2.312
  105TIP3    H2  322   0.046   5.149   2.215
  106TIP3   OH2  323   0.411   4.968   1.659
  106TIP3    H1  324   0.495   5.010   1.639
  106TIP3    H2  325   0.425   4.923   1.742
  107TIP3   OH2  326   3.563   3.907   3.845
  107TIP3    H1  327   3.518   3.942   3.768
  107TIP3    H2  328   3.540   3.968   3.915
  108TIP3   OH2  329   5.429   0.291   4.113
  108TIP3    H1  330   5.378   0.225   4.066
  108TIP3    H2  331   5.487   0.328   4.046
  109TIP3   OH2  332   2.059   2.731   3.158
  109TIP3    H1  333   1.982   2.732   3.102
  109TIP3    H2  334   2.033   2.682   3.236
  110TIP3   OH2  335   5.012   0.337   1.841
  110TIP3    H1  336   5.080   0.404   1.848
  110TIP3    H2  337   4.942   0.367   1.899
  111TIP3   OH2  338   4.427   5.043   3.871
  111TIP3    H1  339   4.470   5.049   3.957
  111TIP3    H2  340   4.382   4.959   3.873
  112TIP3   OH2  341   5.281   4.770   3.160
  112TIP3    H1  342   5.186   4.770   3.166
  112TIP3    H2  343   5.309   4.847   3.209
  113TIP3   OH2  344   3.880   1.266   3.860
  113TIP3    H1  345   3.876   1.186   3.807
  113TIP3    H2  346   3.917   1.238   3.943
  114TIP3   OH2  347   4.035   5.959   0.920
  114TIP3    H1  348   4.079   5.880   0.951
  114TIP3    H2  349   3.951   5.958   0.965
  115TIP3   OH2  350   6.285   3.722   0.442
  115TIP3    H1  351   6.362   3.778   0.434
  115TIP3    H2  352   6.217   3.779   0.475
  116TIP3   OH2  353   5.013   3.454   2.280
  116TIP3    H1  354   4.983   3.376   2.327
  116TIP3    H2  355   5.101   3.470   2.313
  117TIP3   OH2  356   2.876   5.101   0.726
  117TIP3    H1  357   2.797   5.046   0.728
  117TIP3    H2  358   2.850   5.181   0.771
  118TIP3   OH2  359   4.301   5.527   2.402
  118TIP3    H1  360   4.322   5.522   2.496
  118TIP3    H2  361   4.357   5.461   2.362
  119TIP3   OH2  362   6.082   2.939   2.271
  119TIP3    H1  363   6.106   3.032   2.274
  119TIP3    H2  364   6.035   2.930   2.188
  120TIP3   OH2  365   4.590   5.820   3.409
  120TIP3    H1  366   4.635   5.853   3.487
  120TIP3    H2  367   4.506   5.866   3.410
  121TIP3   OH2  368   5.530   0.611   0.688
  121TIP3    H1  369   5.574   0.595   0.772
  121TIP3    H2  370   5.591   0.666   0.639
  122TIP3   OH2  371   0.866   3.394   0.391
  122TIP3    H1  372   0.925   3.412   0.464
  122TIP3    H2  373   0.841   3.480   0.359
  123TIP3   OH2  374   5.725   1.434   4.517
  123TIP3    H1  375   5.819   1.429   4.500
  123TIP3    H2  376   5.688   1.358   4.472
  124TIP3   OH2  377   4.491   4.655   1.852
  124TIP3    H1  378   4.552   4.596   1.895
  124TIP3    H2  379   4.405   4.615   1.866
  125TIP3   OH2  380   1.892   0.887   0.232
  125TIP3    H1  381   1.932   0.872   0.146
  125TIP3    H2  382   1.964   0.876   0.294
  126TIP3   OH2  383   4.090   3.371   2.630
  126TIP3    H1  384   4.164   3.382   2.690
  126TIP3    H2  385   4.082   3.456   2.587
  127TIP3   OH2  386   2.134   2.935   2.692
  127TIP3    H1  387   2.085   3.015   2.673
  127TIP3    H2  388   2.066   2.869   2.709
  128TIP3   OH2  389   5.468   1.967   1.174
  128TIP3    H1  390   5.406   2.005   1.112
  128TIP3    H2  391   5.542   1.939   1.120
  129TIP3   OH2  392   5.103   3.610   2.944
  129TIP3    H1  393   5.151   3.660   2.878
  129TIP3    H2  394   5.151   3.527   2.950
  130TIP3   OH2  395   4.306   1.710   1.345
  130TIP3    H1  396   4.367   1.783   1.338
  130TIP3    H2  397   4.234   1.734   1.287
  131TIP3   OH2  398   3.318   2.471   0.427
  131TIP3    H1  399   3.275   2.465   0.342
  131TIP3    H2  400   3.246   2.485   0.489
  132TIP3   OH2  401   3.517   1.148   0.849
  132TIP3    H1  402   3.491   1.188   0.932
  132TIP3    H2  403   3.609   1.173   0.838
  133TIP3   OH2  404   2.771   2.930   0.180
  133TIP3    H1  405   2.717   2.955   0.105
  133TIP3    H2  406   2.858   2.916   0.142
  134TIP3   OH2  407   4.814   0.456   3.484
  134TIP3    H1  408   4.770   0.417   3.409
  134TIP3    H2  409   4.835   0.545   3.456
  135TIP3   OH2  410   3.148   2.280   3.407
  135TIP3    H1  411   3.211   2.249   3.341
  135TIP3    H2  412   3.068   2.230   3.389
  136TIP3   OH2  413   4.599   1.729   4.761
  136TIP3    H1  414   4.596   1.764   4.850
  136TIP3    H2  415   4.591   1.805   4.704
  137TIP3   OH2  416   2.716   3.243   4.126
  137TIP3    H1  417   2.752   3.323   4.088
  137TIP3    H2  418   2.741   3.174   4.064
  138TIP3   OH2  419   5.092   0.273   3.523
  138TIP3    H1  420   5.008   0.316   3.503
  138TIP3    H2  421   5.146   0.290   3.445
  139TIP3   OH2  422   3.354   4.215   0.093
  139TIP3    H1  423   3.356   4.308   0.117
  139TIP3    H2  424   3.274   4.206   0.041
  140TIP3   OH2  425   0.573   2.327   2.576
  140TIP3    H1  426   0.549   2.238   2.553
  140TIP3    H2  427   0.636   2.353   2.508
  141TIP3   OH2  428   3.880   4.651   1.096
  141TIP3    H1  429   3.793   4.638   1.132
  141TIP3    H2  430   3.866   4.696   1.013
  142TIP3   OH2  431   3.552   2.473   2.610
  142TIP3    H1  432   3.558   2.461   2.516
  142TIP3    H2  433   3.638   2.507   2.636
  143TIP3   OH2  434   0.710   0.498   1.882
  143TIP3    H1  435   0.639   0.497   1.818
  143TIP3    H2  436   0.774   0.559   1.847
  144TIP3   OH2  437   4.804   5.469   2.124
  144TIP3    H1  438   4.727   5.526   2.133
  144TIP3    H2  439   4.862   5.516   2.065
  145TIP3   OH2  440   5.696   4.442   3.275
  145TIP3    H1  441   5.617   4.491   3.296
  145TIP3    H2  442   5.671   4.386   3.201
  146TIP3   OH2  443   4.964   4.031   1.667
  146TIP3    H1  444   4.902   3.972   1.624
  146TIP3    H2  445   4.935   4.119   1.642
  147TIP3   OH2  446   5.936   2.688   2.326
  147TIP3    H1  447   5.853   2.720   2.361
  147TIP3    H2  448   5.970   2.761   2.275
  148TIP3   OH2  449   1.874   0.975   2.482
  148TIP3    H1  450   1.813   0.913   2.441
  148TIP3    H2  451   1.902   0.931   2.563
  149TIP3   OH2  452   5.499   4.845   2.421
  149TIP3    H1  453   5.553   4.885   2.353
  149TIP3    H2  454   5.475   4.918   2.478
  150TIP3   OH2  455   0.320   2.379   0.237
  150TIP3    H1  456   0.290   2.381   0.327
  150TIP3    H2  457   0.302   2.289   0.208
  151TIP3   OH2  458   4.576   2.846   2.762
  151TIP3    H1  459   4.633   2.770   2.748
  151TIP3    H2  460   4.487   2.811   2.751
  152TIP3   OH2  461   2.333   4.828   2.871
  152TIP3    H1  462   2.278   4.778   2.932
  152TIP3    H2  463   2.325   4.919   2.902
  153TIP3   OH2  464   1.833   5.587   4.106
  153TIP3    H1  465   1.855   5.495   4.092
  153TIP3    H2  466   1.784   5.612   4.027
  154TIP3   OH2  467   0.587   3.423   4.467
  154TIP3    H1  468   0.542   3.488   4.414
  154TIP3    H2  469   0.655   3.388   4.410
  155TIP3   OH2  470   1.620   4.378   4.965
  155TIP3    H1  471   1.649   4.460   5.004
  155TIP3    H2  472   1.525   4.377   4.978
  156TIP3   OH2  473   4.881   1.184   3.503
  156TIP3    H1  474   4.819   1.253   3.526
  156TIP3    H2  475   4.964   1.231   3.487
  157TIP3   OH2  476   2.021   2.237   0.233
  157TIP3    H1  477   2.056   2.253   0.320
  157TIP3    H2  478   2.018   2.324   0.192
  158TIP3   OH2  479   5.812   5.488   2.294
  158TIP3    H1  480   5.771   5.511   2.211
  158TIP3    H2  481   5.896   5.533   2.292
  159TIP3   OH2  482   3.786   4.535   4.918
  159TIP3    H1  483   3.790   4.591   4.996
  159TIP3    H2  484   3.692   4.523   4.902
  160TIP3   OH2  485   4.712   0.895   3.418
  160TIP3    H1  486   4.688   0.962   3.482
  160TIP3    H2  487   4.629   0.870   3.377
  161TIP3   OH2  488   5.629   3.412   1.061
  161TIP3    H1  489   5.675   3.475   1.116
  161TIP3    H2  490   5.698   3.355   1.026
  162TIP3   OH2  491   2.905   0.483   1.331
  162TIP3    H1  492   2.821   0.499   1.374
  162TIP3    H2  493   2.963   0.455   1.402
  163TIP3   OH2  494   0.617   0.291   5.106
  163TIP3    H1  495   0.539   0.239   5.084
  163TIP3    H2  496   0.665   0.236   5.169
  164TIP3   OH2  497   6.059   0.623   3.424
  164TIP3    H1  498   6.137   0.678   3.415
  164TIP3    H2  499   6.062   0.591   3.514
  165TIP3   OH2  500   5.386   1.598   4.101
  165TIP3    H1  501   5.386   1.667   4.168
  165TIP3    H2  502   5.454   1.625   4.039
  166TIP3   OH2  503   3.430   0.896   4.991
  166TIP3    H1  504   3.520   0.864   4.988
  166TIP3    H2  505   3.392   0.869   4.907
  167TIP3   OH2  506   5.877   0.360   0.267
  167TIP3    H1  507   5.959   0.343   0.313
  167TIP3    H2  508   5.814   0.377   0.337
  168TIP3   OH2  509   2.050   0.527   0.227
  168TIP3    H1  510   2.021   0.495   0.142
  168TIP3    H2  511   2.041   0.622   0.222
  169TIP3   OH2  512   4.752   3.698   0.827
  169TIP3    H1  513   4.843   3.700   0.797
  169TIP3    H2  514   4.748   3.764   0.895
  170TIP3   OH2  515   3.246   5.299   3.840
  170TIP3    H1  516   3.284   5.349   3.913
  170TIP3    H2  517   3.319   5.287   3.779
  171TIP3   OH2  518   0.750   2.486   4.066
  171TIP3    H1  519   0.776   2.547   4.135
  171TIP3    H2  520   0.759   2.400   4.105
  172TIP3   OH2  521   2.529   0.054   1.156
  172TIP3    H1  522   2.486   0.112   1.093
  172TIP3    H2  523   2.510  -0.034   1.123
  173TIP3   OH2  524   5.909   4.900   4.924
  173TIP3    H1  525   5.856   4.971   4.961
  173TIP3    H2  526   5.881   4.892   4.833
  174TIP3   OH2  527   5.935   0.273   3.818
  174TIP3    H1  528   5.956   0.187   3.856
  174TIP3    H2  529   5.843   0.287   3.839
  175TIP3   OH2  530   3.717   0.433   3.263
  175TIP3    H1  531   3.754   0.385   3.190
  175TIP3    H2  532   3.624   0.410   3.264
  176TIP3   OH2  533   6.099   5.950   0.305
  176TIP3    H1  534   6.028   5.913   0.252
  176TIP3    H2  535   6.176   5.900   0.279
  177TIP3   OH2  536   3.016   4.500   4.189
  177TIP3    H1  537   2.960   4.426   4.164
  177TIP3    H2  538   2.957   4.558   4.238
  178TIP3   OH2  539   2.041   4.553   1.847
  178TIP3    H1  540   1.984   4.480   1.869
  178TIP3    H2  541   2.085   4.576   1.929
  179TIP3   OH2  542   4.403   0.920   1.581
  179TIP3    H1  543   4.421   0.826   1.590
  179TIP3    H2  544   4.460   0.962   1.645
  180TIP3   OH2  545   1.720   1.036   3.977
  180TIP3    H1  546   1.784   1.073   3.916
  180TIP3    H2  547   1.769   1.024   4.058
  181TIP3   OH2  548   0.105   5.296   3.171
  181TIP3    H1  549   0.161   5.335   3.104
  181TIP3    H2  550   0.017   5.324   3.148
  182TIP3   OH2  551   3.928   4.187   0.281
  182TIP3    H1  552   3.973   4.103   0.289
  182TIP3    H2  553   3.874   4.193   0.361
  183TIP3   OH2  554   5.064   1.461   2.459
  183TIP3    H1  555   5.084   1.554   2.465
  183TIP3    H2  556   5.063   1.442   2.365
  184TIP3   OH2  557   2.977   1.223   2.516
  184TIP3    H1  558   3.039   1.196   2.583
  184TIP3    H2  559   2.914   1.151   2.511
  185TIP3   OH2  560   2.329   1.623   3.010
  185TIP3    H1  561   2.341   1.530   3.031
  185TIP3    H2  562   2.271   1.656   3.078
  186TIP3   OH2  563   0.991   1.949   0.024
  186TIP3    H1  564   0.941   1.955  -0.058
  186TIP3    H2  565   0.925   1.929   0.091
  187TIP3   OH2  566   4.008   0.540   1.291
  187TIP3    H1  567   3.973   0.451   1.288
  187TIP3    H2  568   4.067   0.545   1.217
  188TIP3   OH2  569   3.072   3.553   0.034
  188TIP3    H1  570   3.104   3.492  -0.032
  188TIP3    H2  571   3.010   3.503   0.087
  189TIP3   OH2  572   4.573   2.741   5.058
  189TIP3    H1  573   4.613   2.655   5.044
  189TIP3    H2  574   4.643   2.803   5.038
  190TIP3   OH2  575   3.520   2.305   2.152
  190TIP3    H1  576   3.552   2.351   2.229
  190TIP3    H2  577   3.587   2.319   2.085
  191TIP3   OH2  578   0.956   3.130   4.457
  191TIP3    H1  579   0.900   3.143   4.533
  191TIP3    H2  580   1.044   3.155   4.487
  192TIP3   OH2  581   5.788   3.241   0.913
  192TIP3    H1  582   5.798   3.152   0.946
  192TIP3    H2  583   5.714   3.236   0.852
  193TIP3   OH2  584   4.361   4.842   3.457
  193TIP3    H1  585   4.321   4.815   3.374
  193TIP3    H2  586   4.426   4.775   3.475
  194TIP3   OH2  587   2.722   2.605   2.851
  194TIP3    H1  588   2.636   2.570   2.829
  194TIP3    H2  589   2.703   2.691   2.889
  195TIP3   OH2  590   3.656   0.848   2.127
  195TIP3    H1  591   3.733   0.904   2.129
  195TIP3    H2  592   3.591   0.897   2.077
  196TIP3   OH2  593   0.520   3.529   2.280
  196TIP3    H1  594   0.596   3.517   2.223
  196TIP3    H2  595   0.474   3.605   2.244
  197TIP3   OH2  596   1.077   1.627   0.698
  197TIP3    H1  597   1.036   1.681   0.630
  197TIP3    H2  598   1.044   1.538   0.681
  198TIP3   OH2  599   2.772   2.919   3.619
  198TIP3    H1  600   2.865   2.935   3.631
  198TIP3    H2  601   2.729   2.993   3.663
  199TIP3   OH2  602   5.201   3.464   3.871
  199TIP3    H1  603   5.173   3.547   3.831
  199TIP3    H2  604   5.151   3.459   3.953
  200TIP3   OH2  605   0.282   0.280   2.867
  200TIP3    H1  606   0.356   0.239   2.912
  200TIP3    H2  607   0.300   0.268   2.774
  201TIP3   OH2  608   5.403   5.266   4.416
  201TIP3    H1  609   5.463   5.193   4.431
  201TIP3    H2  610   5.450   5.323   4.355
  202TIP3   OH2  611   1.813   3.467   2.096
  202TIP3    H1  612   1.892   3.428   2.056
  202TIP3    H2  613   1.808   3.554   2.057
  203TIP3   OH2  614   0.269   4.040   4.912
  203TIP3    H1  615   0.359   4.012   4.899
  203TIP3    H2  616   0.245   4.005   4.998
  204TIP3   OH2  617   2.786   2.679   0.825
  204TIP3    H1  618   2.800   2.671   0.919
  204TIP3    H2  619   2.845   2.750   0.798
  205TIP3   OH2  620   2.013   0.084   1.113
  205TIP3    H1  621   2.048   0.073   1.024
  205TIP3    H2  622   2.065   0.024   1.166
  206TIP3   OH2  623   3.046   2.578   4.292
  206TIP3    H1  624   3.036   2.611   4.202
  206TIP3    H2  625   3.106   2.640   4.333
  207TIP3   OH2  626   0.405   4.539   4.128
  207TIP3    H1  627   0.402   4.629   4.093
  207TIP3    H2  628   0.327   4.532   4.182
  208TIP3   OH2  629   6.052   1.276   1.222
  208TIP3    H1  630   6.086   1.244   1.139
  208TIP3    H2  631   5.987   1.342   1.198
  209TIP3   OH2  632   1.081   4.437   1.532
  209TIP3    H1  633   1.098   4.418   1.625
  209TIP3    H2  634   1.026   4.364   1.503
  210TIP3   OH2  635   2.450   1.400   2.648
  210TIP3    H1  636   2.440   1.491   2.677
  210TIP3    H2  637   2.388   1.351   2.702
  211TIP3   OH2  638   2.669   1.111   5.043
  211TIP3    H1  639   2.696   1.157   5.122
  211TIP3    H2  640   2.719   1.029   5.044
  212TIP3   OH2  641   1.771   0.698   2.136
  212TIP3    H1  642   1.693   0.705   2.081
  212TIP3    H2  643   1.838   0.747   2.088
  213TIP3   OH2  644   4.108   2.582   4.058
  213TIP3    H1  645   4.178   2.628   4.013
  213TIP3    H2  646   4.029   2.631   4.037
  214TIP3   OH2  647   4.934   4.094   3.705
  214TIP3    H1  648   4.983   4.012   3.694
  214TIP3    H2  649   4.877   4.078   3.780
  215TIP3   OH2  650   0.605   3.638   0.139
  215TIP3    H1  651   0.637   3.586   0.066
  215TIP3    H2  652   0.683   3.684   0.172
  216TIP3   OH2  653   0.817   4.616   2.418
  216TIP3    H1  654   0.853   4.660   2.495
  216TIP3    H2  655   0.893   4.589   2.367
  217TIP3   OH2  656   4.127   2.023   1.215
  217TIP3    H1  657   4.044   2.024   1.262
  217TIP3    H2  658   4.162   2.112   1.226
  218TIP3   OH2  659   5.887   3.317   3.336
  218TIP3    H1  660   5.939   3.307   3.416
  218TIP3    H2  661   5.805   3.356   3.366
  219TIP3   OH2  662   0.119   1.106   4.161
  219TIP3    H1  663   0.120   1.019   4.119
  219TIP3    H2  664   0.045   1.150   4.120
  220TIP3   OH2  665   0.633   0.939   1.733
  220TIP3    H1  666   0.722   0.925   1.764
  220TIP3    H2  667   0.628   1.033   1.715
  221TIP3   OH2  668   3.135   0.019   3.872
  221TIP3    H1  669   3.097   0.060   3.795
  221TIP3    H2  670   3.134  -0.075   3.853
  222TIP3   OH2  671   3.229   1.872   4.706
  222TIP3    H1  672   3.184   1.807   4.652
  222TIP3    H2  673   3.239   1.948   4.648
  223TIP3   OH2  674   3.814   1.767   2.144
  223TIP3    H1  675   3.849   1.840   2.092
  223TIP3    H2  676   3.767   1.714   2.080
  224TIP3   OH2  677   4.320   3.570   2.817
  224TIP3    H1  678   4.227   3.589   2.828
  224TIP3    H2  679   4.360   3.655   2.797
  225TIP3   OH2  680   2.022   4.678   3.442
  225TIP3    H1  681   1.954   4.723   3.392
  225TIP3    H2  682   2.059   4.745   3.499
  226TIP3   OH2  683   4.663   2.810   3.282
  226TIP3    H1  684   4.678   2.813   3.187
  226TIP3    H2  685   4.732   2.866   3.318
  227TIP3   OH2  686   4.978   2.573   3.502
  227TIP3    H1  687   4.948   2.543   3.416
  227TIP3    H2  688   5.059   2.524   3.518
  228TIP3   OH2  689   5.284   3.058   3.126
  228TIP3    H1  690   5.355   3.103   3.080
  228TIP3    H2  691   5.251   2.995   3.062
  229TIP3   OH2  692   1.034   1.089   1.100
  229TIP3    H1  693   1.011   1.146   1.027
  229TIP3    H2  694   0.972   1.016   1.094
  230TIP3   OH2  695   5.775   5.184   0.274
  230TIP3    H1  696   5.748   5.203   0.364
  230TIP3    H2  697   5.871   5.180   0.278
  231TIP3   OH2  698   4.373   2.902   2.026
  231TIP3    H1  699   4.349   2.809   2.021
  231TIP3    H2  700   4.463   2.905   1.994
  232TIP3   OH2  701   4.151   4.018   4.287
  232TIP3    H1  702   4.175   4.072   4.212
  232TIP3    H2  703   4.073   3.970   4.258
  233TIP3   OH2  704   4.653   2.578   2.755
  233TIP3    H1  705   4.613   2.495   2.781
  233TIP3    H2  706   4.726   2.553   2.698
  234TIP3   OH2  707   4.281   1.364   2.529
  234TIP3    H1  708   4.357   1.418   2.550
  234TIP3    H2  709   4.316   1.275   2.524
  235TIP3   OH2  710   1.098   5.343   2.534
  235TIP3    H1  711   1.149   5.416   2.498
  235TIP3    H2  712   1.020   5.340   2.479
  236TIP3   OH2  713   2.383   5.280   3.806
  236TIP3    H1  714   2.363   5.329   3.886
  236TIP3    H2  715   2.479   5.271   3.808
  237TIP3   OH2  716   4.033   3.179   4.625
  237TIP3    H1  717   3.953   3.138   4.594
  237TIP3    H2  718   4.049   3.250   4.562
  238TIP3   OH2  719   3.942   5.410   1.319
  238TIP3    H1  720   4.019   5.427   1.373
  238TIP3    H2  721   3.880   5.367   1.378
  239TIP3   OH2  722   4.023   4.514   4.822
  239TIP3    H1  723   4.058   4.443   4.875
  239TIP3    H2  724   3.940   4.536   4.864
  240TIP3   OH2  725   2.396   1.950   1.572
  240TIP3    H1  726   2.400   2.028   1.627
  240TIP3    H2  727   2.345   1.978   1.495
  241TIP3   OH2  728   5.605   5.900   3.657
  241TIP3    H1  729   5.660   5.966   3.615
  241TIP3    H2  730   5.632   5.900   3.748
  242TIP3   OH2  731   0.688   2.114   0.636
  242TIP3    H1  732   0.745   2.136   0.562
  242TIP3    H2  733   0.728   2.160   0.710
  243TIP3   OH2  734   3.918   5.288   3.106
  243TIP3    H1  735   3.998   5.294   3.157
  243TIP3    H2  736   3.858   5.238   3.161
  244TIP3   OH2  737   2.918   0.129   3.739
  244TIP3    H1  738   2.868   0.058   3.700
  244TIP3    H2  739   2.887   0.134   3.830
  245TIP3   OH2  740   5.085   5.928   5.176
  245TIP3    H1  741   5.161   5.872   5.159
  245TIP3    H2  742   5.017   5.896   5.118
  246TIP3   OH2  743   2.007   0.398   5.176
  246TIP3    H1  744   2.002   0.493   5.167
  246TIP3    H2  745   2.098   0.381   5.201
  247TIP3   OH2  746   0.811   0.910   0.576
  247TIP3    H1  747   0.852   0.862   0.504
  247TIP3    H2  748   0.733   0.949   0.537
  248TIP3   OH2  749   2.493   5.258   2.257
  248TIP3    H1  750   2.506   5.350   2.283
  248TIP3    H2  751   2.403   5.239   2.282
  249TIP3   OH2  752   3.727   5.639   4.702
  249TIP3    H1  753   3.671   5.705   4.742
  249TIP3    H2  754   3.803   5.688   4.669
  250TIP3   OH2  755   2.355   3.870   3.449
  250TIP3    H1  756   2.370   3.824   3.366
  250TIP3    H2  757   2.266   3.845   3.474
  251TIP3   OH2  758   3.471   4.030   0.672
  251TIP3    H1  759   3.555   4.073   0.688
  251TIP3    H2  760   3.438   4.069   0.591
  252TIP3   OH2  761   6.253   1.521   4.464
  252TIP3    H1  762   6.303   1.495   4.542
  252TIP3    H2  763   6.320   1.538   4.398
  253TIP3   OH2  764   5.609   2.900   1.895
  253TIP3    H1  765   5.638   2.971   1.837
  253TIP3    H2  766   5.625   2.820   1.844
  254TIP3   OH2  767   6.300   5.059   3.040
  254TIP3    H1  768   6.370   5.102   3.090
  254TIP3    H2  769   6.314   5.088   2.950
  255TIP3   OH2  770   2.711   2.581   2.537
  255TIP3    H1  771   2.687   2.557   2.448
  255TIP3    H2  772   2.677   2.509   2.591
  256TIP3   OH2  773   5.690   4.427   4.211
  256TIP3    H1  774   5.629   4.472   4.269
  256TIP3    H2  775   5.652   4.435   4.124
  257TIP3   OH2  776   1.453   2.952   2.952
  257TIP3    H1  777   1.532   2.991   2.988
  257TIP3    H2  778   1.382   2.995   2.999
  258TIP3   OH2  779   3.480   4.837   4.381
  258TIP3    H1  780   3.530   4.789   4.314
  258TIP3    H2  781   3.546   4.871   4.440
  259TIP3   OH2  782   0.960   4.040   2.631
  259TIP3    H1  783   1.010   4.120   2.613
  259TIP3    H2  784   0.948   4.000   2.545
  260TIP3   OH2  785   0.678   0.577   0.988
  260TIP3    H1  786   0.636   0.663   0.994
  260TIP3    H2  787   0.637   0.526   1.059
  261TIP3   OH2  788   4.037   3.368   4.420
  261TIP3    H1  789   4.121   3.386   4.378
  261TIP3    H2  790   3.987   3.318   4.355
  262TIP3   OH2  791   0.020   0.165   2.237
  262TIP3    H1  792   0.045   0.120   2.156
  262TIP3    H2  793   0.068   0.118   2.305
  263TIP3   OH2  794   4.379   3.102   0.149
  263TIP3    H1  795   4.378   3.144   0.236
  263TIP3    H2  796   4.427   3.164   0.094
  264TIP3   OH2  797   1.002   0.878   4.790
  264TIP3    H1  798   1.079   0.907   4.742
  264TIP3    H2  799   1.029   0.797   4.832
  265TIP3   OH2  800   2.107   1.934   1.385
  265TIP3    H1  801   2.159   1.997   1.335
  265TIP3    H2  802   2.071   1.986   1.458
  266TIP3   OH2  803   4.649   4.436   2.295
  266TIP3    H1  804   4.560   4.411   2.320
  266TIP3    H2  805   4.685   4.359   2.251
  267TIP3   OH2  806   0.810   0.188   2.496
  267TIP3    H1  807   0.776   0.273   2.524
  267TIP3    H2  808   0.855   0.154   2.573
  268TIP3   OH2  809   2.778   5.311   3.382
  268TIP3    H1  810   2.839   5.383   3.370
  268TIP3    H2  811   2.783   5.261   3.301
  269TIP3   OH2  812   2.382   3.212   0.872
  269TIP3    H1  813   2.335   3.181   0.796
  269TIP3    H2  814   2.395   3.306   0.856
  270TIP3   OH2  815   2.975   4.060   2.099
  270TIP3    H1  816   2.988   4.155   2.107
  270TIP3    H2  817   2.880   4.050   2.090
  271TIP3   OH2  818   5.135   1.815   4.199
  271TIP3    H1  819   5.121   1.734   4.249
  271TIP3    H2  820   5.187   1.870   4.257
  272TIP3   OH2  821   2.402   4.769   0.286
  272TIP3    H1  822   2.359   4.697   0.239
  272TIP3    H2  823   2.393   4.845   0.228
  273TIP3   OH2  824   1.163   1.132   4.393
  273TIP3    H1  825   1.259   1.130   4.399
  273TIP3    H2  826   1.145   1.201   4.330
  274TIP3   OH2  827   0.717   1.156   0.452
  274TIP3    H1  828   0.651   1.098   0.414
  274TIP3    H2  829   0.674   1.193   0.529
  275TIP3   OH2  830   3.293   2.894   3.057
  275TIP3    H1  831   3.366   2.872   3.000
  275TIP3    H2  832   3.217   2.855   3.016
  276TIP3   OH2  833   1.515   0.801   3.491
  276TIP3    H1  834   1.578   0.791   3.421
  276TIP3    H2  835   1.567   0.823   3.568
  277TIP3   OH2  836   1.633   1.430   4.470
  277TIP3    H1  837   1.687   1.355   4.496
  277TIP3    H2  838   1.693   1.504   4.472
  278TIP3   OH2  839   3.805   0.328   3.657
  278TIP3    H1  840   3.835   0.416   3.631
  278TIP3    H2  841   3.804   0.331   3.752
  279TIP3   OH2  842   3.806   2.022   3.649
  279TIP3    H1  843   3.813   1.994   3.740
  279TIP3    H2  844   3.870   1.968   3.602
  280TIP3   OH2  845   0.182   2.128   0.494
  280TIP3    H1  846   0.249   2.146   0.560
  280TIP3    H2  847   0.232   2.109   0.414
  281TIP3   OH2  848   4.504   0.095   1.435
  281TIP3    H1  849   4.594   0.073   1.458
  281TIP3    H2  850   4.513   0.160   1.365
  282TIP3   OH2  851   0.372   3.486   0.789
  282TIP3    H1  852   0.414   3.571   0.779
  282TIP3    H2  853   0.429   3.438   0.850
  283TIP3   OH2  854   5.962   4.397   0.968
  283TIP3    H1  855   5.924   4.408   0.881
  283TIP3    H2  856   5.922   4.466   1.021
  284TIP3   OH2  857   1.831   5.003   1.224
  284TIP3    H1  858   1.850   5.096   1.213
  284TIP3    H2  859   1.758   5.000   1.285
  285TIP3   OH2  860   5.915   1.516   2.859
  285TIP3    H1  861   5.987   1.575   2.838
  285TIP3    H2  862   5.939   1.432   2.821
  286TIP3   OH2  863   0.744   4.538   0.319
  286TIP3    H1  864   0.782   4.613   0.366
  286TIP3    H2  865   0.809   4.469   0.329
  287TIP3   OH2  866   2.752   0.426   0.855
  287TIP3    H1  867   2.794   0.512   0.847
  287TIP3    H2  868   2.784   0.392   0.939
  288TIP3   OH2  869   1.760   4.248   0.618
  288TIP3    H1  870   1.683   4.195   0.597
  288TIP3    H2  871   1.731   4.306   0.688
  289TIP3   OH2  872   0.607   1.105   2.843
  289TIP3    H1  873   0.689   1.094   2.795
  289TIP3    H2  874   0.634   1.138   2.929
  290TIP3   OH2  875   1.160   2.001   2.418
  290TIP3    H1  876   1.148   2.072   2.481
  290TIP3    H2  877   1.183   2.046   2.336
  291TIP3   OH2  878   1.446   3.989   0.818
  291TIP3    H1  879   1.436   4.000   0.913
  291TIP3    H2  880   1.397   3.910   0.798
  292TIP3   OH2  881   1.332   1.044   1.471
  292TIP3    H1  882   1.415   1.092   1.464
  292TIP3    H2  883   1.265   1.109   1.450
  293TIP3   OH2  884   4.722   5.474   4.516
  293TIP3    H1  885   4.724   5.397   4.460
  293TIP3    H2  886   4.793   5.530   4.483
  294TIP3   OH2  887   0.573   1.151   2.410
  294TIP3    H1  888   0.548   1.059   2.399
  294TIP3    H2  889   0.566   1.167   2.504
  295TIP3   OH2  890   2.390   0.862   1.923
  295TIP3    H1  891   2.401   0.921   1.849
  295TIP3    H2  892   2.395   0.919   2.000
  296TIP3   OH2  893   0.567   2.450   3.753
  296TIP3    H1  894   0.547   2.373   3.806
  296TIP3    H2  895   0.573   2.522   3.816
  297TIP3   OH2  896   2.161   4.681   3.055
  297TIP3    H1  897   2.076   4.646   3.030
  297TIP3    H2  898   2.221   4.608   3.046
  298TIP3   OH2  899   2.851   3.710   0.641
  298TIP3    H1  900   2.766   3.750   0.624
  298TIP3    H2  901   2.830   3.631   0.691
  299TIP3   OH2  902   1.605   2.374   2.395
  299TIP3    H1  903   1.526   2.325   2.417
  299TIP3    H2  904   1.654   2.315   2.337
  300TIP3   OH2  905   1.540   4.704   4.003
  300TIP3    H1  906   1.462   4.741   4.045
  300TIP3    H2  907   1.581   4.778   3.960
  301TIP3   OH2  908   5.912   4.561   3.174
  301TIP3    H1  909   5.873   4.483   3.212
  301TIP3    H2  910   5.865   4.573   3.091
  302TIP3   OH2  911   4.715   4.023   0.466
  302TIP3    H1  912   4.809   4.027   0.486
  302TIP3    H2  913   4.711   3.989   0.377
  303TIP3   OH2  914   2.959   0.959   4.503
  303TIP3    H1  915   2.879   0.924   4.542
  303TIP3    H2  916   2.959   0.925   4.414
  304TIP3   OH2  917   6.154   2.322   3.858
  304TIP3    H1  918   6.241   2.282   3.853
  304TIP3    H2  919   6.107   2.270   3.922
  305TIP3   OH2  920   0.603   5.122   3.288
  305TIP3    H1  921   0.560   5.037   3.282
  305TIP3    H2  922   0.682   5.113   3.235
  306TIP3   OH2  923   1.869   1.536   2.816
  306TIP3    H1  924   1.891   1.565   2.905
  306TIP3    H2  925   1.774   1.526   2.817
  307TIP3   OH2  926   2.420   2.481   3.826
  307TIP3    H1  927   2.516   2.478   3.823
  307TIP3    H2  928   2.395   2.403   3.876
  308TIP3   OH2  929   2.706   4.732   4.749
  308TIP3    H1  930   2.726   4.820   4.782
  308TIP3    H2  931   2.737   4.732   4.659
  309TIP3   OH2  932   5.561   0.010   4.102
  309TIP3    H1  933   5.574   0.078   4.168
  309TIP3    H2  934   5.547  -0.070   4.153
  310TIP3   OH2  935   0.155   4.236   3.946
  310TIP3    H1  936   0.214   4.310   3.963
  310TIP3    H2  937   0.174   4.211   3.855
  311TIP3   OH2  938   3.506   3.398   4.324
  311TIP3    H1  939   3.421   3.428   4.355
  311TIP3    H2  940   3.568   3.431   4.389
  312TIP3   OH2  941   5.755   1.021   0.461
  312TIP3    H1  942   5.683   1.048   0.404
  312TIP3    H2  943   5.740   1.068   0.543
  313TIP3   OH2  944   0.090   3.895   1.825
  313TIP3    H1  945   0.058   3.873   1.738
  313TIP3    H2  946   0.072   3.818   1.878
  314TIP3   OH2  947   2.596   4.523   3.576
  314TIP3    H1  948   2.625   4.499   3.488
  314TIP3    H2  949   2.633   4.455   3.633
  315TIP3   OH2  950   3.835   4.263   2.799
  315TIP3    H1  951   3.859   4.297   2.713
  315TIP3    H2  952   3.740   4.248   2.794
  316TIP3   OH2  953   6.013   0.632   2.984
  316TIP3    H1  954   6.065   0.712   2.975
  316TIP3    H2  955   6.013   0.593   2.897
  317TIP3   OH2  956   1.064   3.499   1.222
  317TIP3    H1  957   1.149   3.478   1.184
  317TIP3    H2  958   1.048   3.430   1.286
  318TIP3   OH2  959   5.587   5.879   3.937
  318TIP3    H1  960   5.587   5.944   4.007
  318TIP3    H2  961   5.609   5.796   3.981
  319TIP3   OH2  962   4.398   0.148   3.367
  319TIP3    H1  963   4.481   0.109   3.339
  319TIP3    H2  964   4.345   0.074   3.395
  320TIP3   OH2  965   1.983   4.484   4.273
  320TIP3    H1  966   2.050   4.477   4.205
  320TIP3    H2  967   1.934   4.564   4.251
  321TIP3   OH2  968   1.953   1.285   0.615
  321TIP3    H1  969   1.958   1.217   0.682
  321TIP3    H2  970   1.903   1.356   0.656
  322TIP3   OH2  971   5.290   2.397   0.133
  322TIP3    H1  972   5.358   2.422   0.070
  322TIP3    H2  973   5.247   2.480   0.156
  323TIP3   OH2  974   2.097   3.699   1.059
  323TIP3    H1  975   2.135   3.702   0.972
  323TIP3    H2  976   2.088   3.790   1.085
  324TIP3   OH2  977   4.158   1.183   4.465
  324TIP3    H1  978   4.191   1.238   4.394
  324TIP3    H2  979   4.188   1.094   4.443
  325TIP3   OH2  980   1.389   5.321   0.267
  325TIP3    H1  981   1.316   5.358   0.317
  325TIP3    H2  982   1.380   5.359   0.180
  326TIP3   OH2  983   0.950   1.969   1.741
  326TIP3    H1  984   0.943   1.976   1.837
  326TIP3    H2  985   0.999   1.888   1.727
  327TIP3   OH2  986   6.167   5.637   5.134
  327TIP3    H1  987   6.139   5.709   5.191
  327TIP3    H2  988   6.230   5.588   5.187
  328TIP3   OH2  989   5.745   4.584   2.014
  328TIP3    H1  990   5.652   4.599   1.998
  328TIP3    H2  991   5.749   4.498   2.056
  329TIP3   OH2  992   5.147   5.331   4.452
  329TIP3    H1  993   5.233   5.290   4.444
  329TIP3    H2  994   5.118   5.310   4.540
  330TIP3   OH2  995   5.904   0.676   4.958
  330TIP3    H1  996   5.842   0.745   4.933
  330TIP3    H2  997   5.893   0.609   4.891
  331TIP3   OH2  998   5.966   4.480   1.534
  331TIP3    H1  999   5.929   4.542   1.470
  331TIP3    H2 1000   5.962   4.527   1.617
  332TIP3   OH2 1001   3.938   0.279   5.109
  332TIP3    H1 1002   4.032   0.267   5.122
  332TIP3    H2 1003   3.902   0.282   5.197
  333TIP3   OH2 1004   4.891   4.006   0.188
  333TIP3    H1 1005   4.932   3.928   0.150
  333TIP3    H2 1006   4.962   4.069   0.198
  334TIP3   OH2 1007   4.713   0.392   0.855
  334TIP3    H1 1008   4.640   0.333   0.872
  334TIP3    H2 1009   4.742   0.421   0.942
  335TIP3   OH2 1010   3.148   5.187   0.928
  335TIP3    H1 1011   3.136   5.110   0.872
  335TIP3    H2 1012   3.155   5.260   0.868
  336TIP3   OH2 1013   0.782   3.740   2.870
  336TIP3    H1 1014   0.861   3.754   2.818
  336TIP3    H2 1015   0.808   3.678   2.938
  337TIP3   OH2 1016   0.772   1.213   1.527
  337TIP3    H1 1017   0.837   1.278   1.552
  337TIP3    H2 1018   0.705   1.218   1.595
  338TIP3   OH2 1019   5.929   3.946   4.869
  338TIP3    H1 1020   5.921   4.039   4.851
  338TIP3    H2 1021   6.012   3.937   4.916
  339TIP3   OH2 1022   2.538   3.823   3.792
  339TIP3    H1 1023   2.564   3.781   3.874
  339TIP3    H2 1024   2.613   3.810   3.734
  340TIP3   OH2 1025   5.291   4.302   0.017
  340TIP3    H1 1026   5.326   4.375   0.068
  340TIP3    H2 1027   5.252   4.343  -0.060
  341TIP3   OH2 1028   3.314   1.787   0.956
  341TIP3    H1 1029   3.231   1.741   0.965
  341TIP3    H2 1030   3.370   1.726   0.907
  342TIP3   OH2 1031   0.158   4.434   1.377
  342TIP3    H1 1032   0.067   4.410   1.390
  342TIP3    H2 1033   0.164   4.458   1.285
  343TIP3   OH2 1034   2.233   0.141   1.514
  343TIP3    H1 1035   2.220   0.091   1.434
  343TIP3    H2 1036   2.277   0.079   1.573
  344TIP3   OH2 1037   0.789   4.893   2.406
  344TIP3    H1 1038   0.763   4.801   2.398
  344TIP3    H2 1039   0.721   4.932   2.460
  345TIP3   OH2 1040   4.366   0.637   1.601
  345TIP3    H1 1041   4.285   0.619   1.648
  345TIP3    H2 1042   4.353   0.599   1.515
  346TIP3   OH2 1043   2.356   3.085   0.446
  346TIP3    H1 1044   2.395   3.119   0.365
  346TIP3    H2 1045   2.431   3.074   0.505
  347TIP3   OH2 1046   5.804   2.072   4.574
  347TIP3    H1 1047   5.807   1.981   4.603
  347TIP3    H2 1048   5.739   2.113   4.632
  348TIP3   OH2 1049   0.437   3.210   3.642
  348TIP3    H1 1050   0.378   3.161   3.584
  348TIP3    H2 1051   0.504   3.245   3.585
  349TIP3   OH2 1052   1.763   2.829   1.194
  349TIP3    H1 1053   1.834   2.825   1.131
  349TIP3    H2 1054   1.720   2.913   1.177
  350TIP3   OH2 1055   4.830   0.628   0.202
  350TIP3    H1 1056   4.769   0.616   0.274
  350TIP3    H2 1057   4.914   0.598   0.236
  351TIP3   OH2 1058   2.301   1.515   1.235
  351TIP3    H1 1059   2.393   1.486   1.238
  351TIP3    H2 1060   2.306   1.610   1.232
  352TIP3   OH2 1061   3.735   2.620   5.081
  352TIP3    H1 1062   3.746   2.712   5.060
  352TIP3    H2 1063   3.778   2.574   5.009
  353TIP3   OH2 1064   3.765   4.096   4.501
  353TIP3    H1 1065   3.736   4.187   4.500
  353TIP3    H2 1066   3.861   4.102   4.504
  354TIP3   OH2 1067   3.249   3.291   0.631
  354TIP3    H1 1068   3.283   3.204   0.610
  354TIP3    H2 1069   3.286   3.348   0.564
  355TIP3   OH2 1070   5.983   0.739   4.458
  355TIP3    H1 1071   5.907   0.730   4.400
  355TIP3    H2 1072   5.947   0.778   4.538
  356TIP3   OH2 1073   2.283   5.724   4.213
  356TIP3    H1 1074   2.355   5.692   4.268
  356TIP3    H2 1075   2.305   5.694   4.125
  357TIP3   OH2 1076   3.929   4.222   4.859
  357TIP3    H1 1077   3.923   4.291   4.793
  357TIP3    H2 1078   3.925   4.140   4.809
  358TIP3   OH2 1079   4.484   1.138   0.698
  358TIP3    H1 1080   4.552   1.185   0.747
  358TIP3    H2 1081   4.403   1.155   0.748
  359TIP3   OH2 1082   5.440   5.737   1.920
  359TIP3    H1 1083   5.431   5.802   1.990
  359TIP3    H2 1084   5.533   5.739   1.897
  360TIP3   OH2 1085   6.304   1.887   2.895
  360TIP3    H1 1086   6.335   1.965   2.848
  360TIP3    H2 1087   6.289   1.919   2.985
  361TIP3   OH2 1088   5.016   4.039   2.972
  361TIP3    H1 1089   5.092   4.003   2.927
  361TIP3    H2 1090   5.000   4.123   2.928
  362TIP3   OH2 1091   2.704   0.697   0.558
  362TIP3    H1 1092   2.674   0.628   0.499
  362TIP3    H2 1093   2.668   0.778   0.522
  363TIP3   OH2 1094   4.333   1.112   2.363
  363TIP3    H1 1095   4.301   1.034   2.409
  363TIP3    H2 1096   4.419   1.086   2.329
  364TIP3   OH2 1097   1.148   1.326   1.384
  364TIP3    H1 1098   1.102   1.395   1.433
  364TIP3    H2 1099   1.140   1.354   1.293
  365TIP3   OH2 1100   4.048   3.359   1.154
  365TIP3    H1 1101   4.104   3.427   1.190
  365TIP3    H2 1102   3.983   3.342   1.223
  366TIP3   OH2 1103   3.806   5.562   5.146
  366TIP3    H1 1104   3.839   5.525   5.064
  366TIP3    H2 1105   3.815   5.656   5.135
  367TIP3   OH2 1106   3.975   5.378   3.510
  367TIP3    H1 1107   3.982   5.297   3.459
  367TIP3    H2 1108   3.999   5.447   3.448
  368TIP3   OH2 1109   2.505   1.067   3.540
  368TIP3    H1 1110   2.479   1.003   3.606
  368TIP3    H2 1111   2.455   1.146   3.562
  369TIP3   OH2 1112   3.104   1.265   3.446
  369TIP3    H1 1113   3.195   1.277   3.474
  369TIP3    H2 1114   3.077   1.351   3.414
  370TIP3   OH2 1115   5.138   2.611   3.989
  370TIP3    H1 1116   5.119   2.703   3.972
  370TIP3    H2 1117   5.156   2.574   3.902
  371TIP3   OH2 1118   0.708   2.585   2.022
  371TIP3    H1 1119   0.687   2.651   2.089
  371TIP3    H2 1120   0.803   2.587   2.015
  372TIP3   OH2 1121   2.697   2.114   1.682
  372TIP3    H1 1122   2.714   2.179   1.613
  372TIP3    H2 1123   2.754   2.140   1.754
  373TIP3   OH2 1124   1.354   0.031   2.014
  373TIP3    H1 1125   1.448   0.050   2.008
  373TIP3    H2 1126   1.312   0.113   1.987
  374TIP3   OH2 1127   6.056   3.908   0.188
  374TIP3    H1 1128   6.077   3.908   0.281
  374TIP3    H2 1129   5.967   3.941   0.183
  375TIP3   OH2 1130   1.017   5.790   3.085
  375TIP3    H1 1131   1.041   5.869   3.036
  375TIP3    H2 1132   1.053   5.718   3.034
  376TIP3   OH2 1133   5.090   2.672   1.692
  376TIP3    H1 1134   5.014   2.614   1.697
  376TIP3    H2 1135   5.068   2.746   1.748
  377TIP3   OH2 1136   1.566   3.479   4.965
  377TIP3    H1 1137   1.573   3.562   4.917
  377TIP3    H2 1138   1.629   3.421   4.922
  378TIP3   OH2 1139   2.537   5.290   0.560
  378TIP3    H1 1140   2.475   5.348   0.515
  378TIP3    H2 1141   2.614   5.346   0.576
  379TIP3   OH2 1142   4.521   3.710   0.294
  379TIP3    H1 1143   4.570   3.766   0.234
  379TIP3    H2 1144   4.583   3.643   0.321
  380TIP3   OH2 1145   4.268   5.737   4.721
  380TIP3    H1 1146   4.218   5.797   4.775
  380TIP3    H2 1147   4.335   5.701   4.780
  381TIP3   OH2 1148   2.917   4.410   2.786
  381TIP3    H1 1149   2.917   4.475   2.857
  381TIP3    H2 1150   2.859   4.447   2.720
  382TIP3   OH2 1151   3.893   3.574   3.041
  382TIP3    H1 1152   3.874   3.499   2.984
  382TIP3    H2 1153   3.811   3.588   3.089
  383TIP3   OH2 1154   6.070   3.430   2.505
  383TIP3    H1 1155   6.113   3.405   2.587
  383TIP3    H2 1156   6.110   3.513   2.481
  384TIP3   OH2 1157   4.999   1.241   4.263
  384TIP3    H1 1158   4.907   1.222   4.284
  384TIP3    H2 1159   4.995   1.314   4.201
  385TIP3   OH2 1160   3.664   4.205   0.766
  385TIP3    H1 1161   3.626   4.292   0.766
  385TIP3    H2 1162   3.732   4.208   0.833
  386TIP3   OH2 1163   3.822   3.647   1.047
  386TIP3    H1 1164   3.870   3.598   0.981
  386TIP3    H2 1165   3.866   3.732   1.051
  387TIP3   OH2 1166   4.578   1.022   4.181
  387TIP3    H1 1167   4.523   0.999   4.256
  387TIP3    H2 1168   4.536   1.100   4.144
  388TIP3   OH2 1169   6.142   2.413   4.525
  388TIP3    H1 1170   6.061   2.395   4.573
  388TIP3    H2 1171   6.114   2.456   4.444
  389TIP3   OH2 1172   1.553   1.308   3.454
  389TIP3    H1 1173   1.636   1.354   3.440
  389TIP3    H2 1174   1.551   1.291   3.548
  390TIP3   OH2 1175   1.523   3.023   2.284
  390TIP3    H1 1176   1.436   3.036   2.247
  390TIP3    H2 1177   1.583   3.062   2.220
  391TIP3   OH2 1178   2.396   4.825   4.136
  391TIP3    H1 1179   2.302   4.833   4.154
  391TIP3    H2 1180   2.418   4.735   4.161
  392TIP3   OH2 1181   4.694   4.448   5.156
  392TIP3    H1 1182   4.625   4.412   5.101
  392TIP3    H2 1183   4.723   4.374   5.209
  393TIP3   OH2 1184   4.543   3.737   1.078
  393TIP3    H1 1185   4.450   3.715   1.085
  393TIP3    H2 1186   4.544   3.818   1.027
  394TIP3   OH2 1187   4.650   5.211   0.132
  394TIP3    H1 1188   4.650   5.151   0.058
  394TIP3    H2 1189   4.643   5.298   0.093
  395TIP3   OH2 1190   1.973   3.255   1.097
  395TIP3    H1 1191   1.995   3.261   1.004
  395TIP3    H2 1192   2.049   3.212   1.137
  396TIP3   OH2 1193   3.003   0.146   4.422
  396TIP3    H1 1194   3.012   0.181   4.333
  396TIP3    H2 1195   2.958   0.062   4.410
  397TIP3   OH2 1196   1.881   5.081   5.131
  397TIP3    H1 1197   1.864   5.056   5.221
  397TIP3    H2 1198   1.807   5.046   5.082
  398TIP3   OH2 1199   5.760   2.457   3.019
  398TIP3    H1 1200   5.722   2.446   3.106
  398TIP3    H2 1201   5.737   2.547   2.994
  399TIP3   OH2 1202   2.479   2.224   4.771
  399TIP3    H1 1203   2.540   2.192   4.705
  399TIP3    H2 1204   2.438   2.301   4.731
  400TIP3   OH2 1205   0.078   1.602   0.931
  400TIP3    H1 1206   0.078   1.525   0.988
  400TIP3    H2 1207   0.149   1.656   0.964
  401TIP3   OH2 1208   3.591   4.304   2.639
  401TIP3    H1 1209   3.508   4.264   2.668
  401TIP3    H2 1210   3.564   4.375   2.581
  402TIP3   OH2 1211   1.801   6.004   1.436
  402TIP3    H1 1212   1.821   5.961   1.352
  402TIP3    H2 1213   1.776   5.932   1.494
  403TIP3   OH2 1214   3.305   1.170   4.253
  403TIP3    H1 1215   3.336   1.110   4.320
  403TIP3    H2 1216   3.384   1.215   4.223
  404TIP3   OH2 1217   1.919   0.394   2.641
  404TIP3    H1 1218   1.893   0.311   2.601
  404TIP3    H2 1219   1.916   0.377   2.735
  405TIP3   OH2 1220   1.213   4.094   1.363
  405TIP3    H1 1221   1.223   4.133   1.276
  405TIP3    H2 1222   1.243   4.004   1.352
  406TIP3   OH2 1223   2.491   2.722   2.269
  406TIP3    H1 1224   2.482   2.698   2.361
  406TIP3    H2 1225   2.557   2.662   2.235
  407TIP3   OH2 1226   0.190   2.859   2.104
  407TIP3    H1 1227   0.148   2.882   2.022
  407TIP3    H2 1228   0.119   2.825   2.159
  408TIP3   OH2 1229   1.905   5.806   5.041
  408TIP3    H1 1230   1.874   5.859   5.114
  408TIP3    H2 1231   1.846   5.731   5.040
  409TIP3   OH2 1232   3.183   1.998   3.307
  409TIP3    H1 1233   3.104   2.052   3.307
  409TIP3    H2 1234   3.236   2.034   3.236
  410TIP3   OH2 1235   0.917   2.691   4.194
  410TIP3    H1 1236   0.999   2.649   4.170
  410TIP3    H2 1237   0.943   2.779   4.223
  411TIP3   OH2 1238   5.948   5.390   5.154
  411TIP3    H1 1239   5.976   5.481   5.155
  411TIP3    H2 1240   5.905   5.377   5.239
  412TIP3   OH2 1241   1.081   0.115   4.927
  412TIP3    H1 1242   1.123   0.034   4.899
  412TIP3    H2 1243   1.008   0.127   4.867
  413TIP3   OH2 1244   2.779   4.454   2.476
  413TIP3    H1 1245   2.703   4.482   2.528
  413TIP3    H2 1246   2.742   4.431   2.391
  414TIP3   OH2 1247   3.805   4.750   5.099
  414TIP3    H1 1248   3.899   4.770   5.100
  414TIP3    H2 1249   3.787   4.715   5.186
  415TIP3   OH2 1250   2.597   3.136   1.918
  415TIP3    H1 1251   2.690   3.144   1.935
  415TIP3    H2 1252   2.573   3.218   1.874
  416TIP3   OH2 1253   3.449   5.014   5.177
  416TIP3    H1 1254   3.440   4.918   5.175
  416TIP3    H2 1255   3.387   5.046   5.112
  417TIP3   OH2 1256   2.865   0.055   0.375
  417TIP3    H1 1257   2.836   0.128   0.321
  417TIP3    H2 1258   2.797  -0.012   0.366
  418TIP3   OH2 1259   3.584   0.595   2.023
  418TIP3    H1 1260   3.621   0.673   2.063
  418TIP3    H2 1261   3.586   0.529   2.092
  419TIP3   OH2 1262   4.317   2.065   0.654
  419TIP3    H1 1263   4.234   2.023   0.676
  419TIP3    H2 1264   4.358   2.005   0.591
  420TIP3   OH2 1265   4.376   1.855   2.294
  420TIP3    H1 1266   4.376   1.780   2.354
  420TIP3    H2 1267   4.404   1.929   2.348
  421TIP3   OH2 1268   0.141   2.304   2.942
  421TIP3    H1 1269   0.156   2.374   3.005
  421TIP3    H2 1270   0.107   2.348   2.864
  422TIP3   OH2 1271   0.939   0.492   0.365
  422TIP3    H1 1272   0.883   0.432   0.413
  422TIP3    H2 1273   0.928   0.468   0.273
  423TIP3   OH2 1274   4.898   3.199   0.229
  423TIP3    H1 1275   4.804   3.191   0.249
  423TIP3    H2 1276   4.902   3.267   0.162
  424TIP3   OH2 1277   0.066   2.949   0.011
  424TIP3    H1 1278   0.071   3.032  -0.037
  424TIP3    H2 1279   0.090   2.973   0.101
  425TIP3   OH2 1280   2.596   1.551   4.811
  425TIP3    H1 1281   2.610   1.519   4.900
  425TIP3    H2 1282   2.677   1.530   4.764
  426TIP3   OH2 1283   3.254   1.158   2.322
  426TIP3    H1 1284   3.183   1.206   2.281
  426TIP3    H2 1285   3.274   1.087   2.261
  427TIP3   OH2 1286   3.870   5.001   2.450
  427TIP3    H1 1287   3.942   5.046   2.494
  427TIP3    H2 1288   3.822   4.959   2.521
  428TIP3   OH2 1289   1.440   5.309   1.114
  428TIP3    H1 1290   1.439   5.404   1.101
  428TIP3    H2 1291   1.532   5.287   1.120
  429TIP3   OH2 1292   5.881   5.318   2.819
  429TIP3    H1 1293   5.884   5.396   2.764
  429TIP3    H2 1294   5.836   5.346   2.899
  430TIP3   OH2 1295   1.293   1.276   0.042
  430TIP3    H1 1296   1.350   1.289  -0.034
  430TIP3    H2 1297   1.253   1.190   0.027
  431TIP3   OH2 1298   6.129   3.308   4.275
  431TIP3    H1 1299   6.115   3.279   4.365
  431TIP3    H2 1300   6.048   3.284   4.229
  432TIP3   OH2 1301   2.053   3.456   3.189
  432TIP3    H1 1302   2.120   3.427   3.250
  432TIP3    H2 1303   2.024   3.541   3.225
  433TIP3   OH2 1304   1.595   2.611   2.192
  433TIP3    H1 1305   1.529   2.566   2.139
  433TIP3    H2 1306   1.666   2.631   2.131
  434TIP3   OH2 1307   1.842   2.705   3.580
  434TIP3    H1 1308   1.852   2.637   3.646
  434TIP3    H2 1309   1.870   2.786   3.624
  435TIP3   OH2 1310   4.867   0.021   4.630
  435TIP3    H1 1311   4.776  -0.004   4.647
  435TIP3    H2 1312   4.901   0.049   4.715
  436TIP3   OH2 1313   3.939   3.360   2.907
  436TIP3    H1 1314   4.032   3.337   2.904
  436TIP3    H2 1315   3.918   3.386   2.817
  437TIP3   OH2 1316   4.357   1.718   2.755
  437TIP3    H1 1317   4.448   1.733   2.729
  437TIP3    H2 1318   4.313   1.689   2.674
  438TIP3   OH2 1319   4.885   1.978   3.734
  438TIP3    H1 1320   4.941   1.968   3.811
  438TIP3    H2 1321   4.832   2.055   3.753
  439TIP3   OH2 1322   1.647   0.532   3.281
  439TIP3    H1 1323   1.699   0.467   3.235
  439TIP3    H2 1324   1.708   0.574   3.342
  440TIP3   OH2 1325   2.188   0.565   2.888
  440TIP3    H1 1326   2.171   0.472   2.906
  440TIP3    H2 1327   2.263   0.564   2.828
  441TIP3   OH2 1328   2.615   1.137   4.758
  441TIP3    H1 1329   2.639   1.124   4.850
  441TIP3    H2 1330   2.554   1.211   4.760
  442TIP3   OH2 1331   0.564   3.683   4.740
  442TIP3    H1 1332   0.514   3.656   4.818
  442TIP3    H2 1333   0.655   3.669   4.765
  443TIP3   OH2 1334   2.994   0.808   1.299
  443TIP3    H1 1335   2.906   0.844   1.288
  443TIP3    H2 1336   2.990   0.761   1.382
  444TIP3   OH2 1337   4.078   1.892   0.030
  444TIP3    H1 1338   4.009   1.912   0.092
  444TIP3    H2 1339   4.106   1.803   0.052
  445TIP3   OH2 1340   1.522   5.065   5.086
  445TIP3    H1 1341   1.575   5.104   5.016
  445TIP3    H2 1342   1.507   4.975   5.056
  446TIP3   OH2 1343   3.367   3.531   1.735
  446TIP3    H1 1344   3.459   3.545   1.713
  446TIP3    H2 1345   3.319   3.580   1.667
  447TIP3   OH2 1346   5.650   4.744   1.539
  447TIP3    H1 1347   5.712   4.676   1.511
  447TIP3    H2 1348   5.564   4.700   1.536
  448TIP3   OH2 1349   4.269   4.704   3.230
  448TIP3    H1 1350   4.209   4.632   3.248
  448TIP3    H2 1351   4.342   4.663   3.182
  449TIP3   OH2 1352   1.413   0.458   2.247
  449TIP3    H1 1353   1.346   0.394   2.273
  449TIP3    H2 1354   1.377   0.498   2.168
  450TIP3   OH2 1355   6.332   5.159   0.854
  450TIP3    H1 1356   6.279   5.206   0.790
  450TIP3    H2 1357   6.423   5.174   0.827
  451TIP3   OH2 1358   2.970   4.005   3.089
  451TIP3    H1 1359   3.038   3.975   3.029
  451TIP3    H2 1360   2.986   4.099   3.099
  452TIP3   OH2 1361   1.676   4.208   0.045
  452TIP3    H1 1362   1.595   4.164   0.021
  452TIP3    H2 1363   1.648   4.282   0.099
  453TIP3   OH2 1364   4.915   2.362   2.347
  453TIP3    H1 1365   4.909   2.424   2.274
  453TIP3    H2 1366   4.833   2.313   2.344
  454TIP3   OH2 1367   5.731   1.616   1.900
  454TIP3    H1 1368   5.775   1.612   1.986
  454TIP3    H2 1369   5.671   1.543   1.900
  455TIP3   OH2 1370   0.121   3.569   2.869
  455TIP3    H1 1371   0.193   3.624   2.838
  455TIP3    H2 1372   0.135   3.561   2.963
  456TIP3   OH2 1373   4.358   4.419   3.412
  456TIP3    H1 1374   4.435   4.476   3.416
  456TIP3    H2 1375   4.392   4.336   3.379
  457TIP3   OH2 1376   1.761   1.703   4.832
  457TIP3    H1 1377   1.837   1.713   4.775
  457TIP3    H2 1378   1.764   1.781   4.888
  458TIP3   OH2 1379   1.817   3.684   1.930
  458TIP3    H1 1380   1.830   3.712   1.839
  458TIP3    H2 1381   1.782   3.761   1.974
  459TIP3   OH2 1382   3.859   3.515   4.137
  459TIP3    H1 1383   3.799   3.552   4.072
  459TIP3    H2 1384   3.858   3.577   4.209
  460TIP3   OH2 1385   6.272   2.336   2.701
  460TIP3    H1 1386   6.245   2.391   2.627
  460TIP3    H2 1387   6.233   2.377   2.778
  461TIP3   OH2 1388   0.700   2.836   4.947
  461TIP3    H1 1389   0.778   2.891   4.957
  461TIP3    H2 1390   0.631   2.884   4.994
  462TIP3   OH2 1391   2.054   5.590   4.291
  462TIP3    H1 1392   1.974   5.621   4.249
  462TIP3    H2 1393   2.123   5.645   4.254
  463TIP3   OH2 1394   0.682   2.414   0.318
  463TIP3    H1 1395   0.628   2.349   0.273
  463TIP3    H2 1396   0.627   2.447   0.388
  464TIP3   OH2 1397   3.288   4.625   0.490
  464TIP3    H1 1398   3.254   4.696   0.544
  464TIP3    H2 1399   3.361   4.665   0.442
  465TIP3   OH2 1400   0.266   1.955   0.811
  465TIP3    H1 1401   0.231   1.900   0.881
  465TIP3    H2 1402   0.241   2.044   0.834
  466TIP3   OH2 1403   4.918   2.304   1.683
  466TIP3    H1 1404   4.966   2.274   1.761
  466TIP3    H2 1405   4.906   2.398   1.698
  467TIP3   OH2 1406   2.854   3.908   1.646
  467TIP3    H1 1407   2.846   3.975   1.578
  467TIP3    H2 1408   2.904   3.838   1.605
  468TIP3   OH2 1409   1.772   2.082   1.460
  468TIP3    H1 1410   1.783   2.095   1.366
  468TIP3    H2 1411   1.722   2.001   1.468
  469TIP3   OH2 1412   3.839   1.060   2.197
  469TIP3    H1 1413   3.767   1.102   2.244
  469TIP3    H2 1414   3.918   1.104   2.231
  470TIP3   OH2 1415   6.269   0.272   0.658
  470TIP3    H1 1416   6.233   0.195   0.613
  470TIP3    H2 1417   6.218   0.279   0.738
  471TIP3   OH2 1418   2.360   0.330  -0.009
  471TIP3    H1 1419   2.418   0.266  -0.049
  471TIP3    H2 1420   2.362   0.308   0.085
  472TIP3   OH2 1421   5.810   1.318   4.803
  472TIP3    H1 1422   5.861   1.271   4.737
  472TIP3    H2 1423   5.862   1.313   4.883
  473TIP3   OH2 1424   2.196   4.587   2.086
  473TIP3    H1 1425   2.241   4.671   2.080
  473TIP3    H2 1426   2.195   4.567   2.180
  474TIP3   OH2 1427   5.965   4.178   3.737
  474TIP3    H1 1428   6.055   4.181   3.769
  474TIP3    H2 1429   5.920   4.247   3.786
  475TIP3   OH2 1430   1.088   1.959   0.323
  475TIP3    H1 1431   1.063   1.998   0.407
  475TIP3    H2 1432   1.178   1.930   0.336
  476TIP3   OH2 1433   4.222   5.473   0.603
  476TIP3    H1 1434   4.206   5.406   0.536
  476TIP3    H2 1435   4.270   5.427   0.672
  477TIP3   OH2 1436   1.918   1.625   5.174
  477TIP3    H1 1437   1.943   1.580   5.094
  477TIP3    H2 1438   1.908   1.555   5.239
  478TIP3   OH2 1439   2.848   2.848   3.295
  478TIP3    H1 1440   2.906   2.773   3.307
  478TIP3    H2 1441   2.856   2.898   3.376
  479TIP3   OH2 1442   4.098   3.258   3.994
  479TIP3    H1 1443   4.058   3.306   3.922
  479TIP3    H2 1444   4.042   3.181   4.006
  480TIP3   OH2 1445   2.625   4.342   1.294
  480TIP3    H1 1446   2.536   4.321   1.265
  480TIP3    H2 1447   2.649   4.419   1.243
  481TIP3   OH2 1448   1.658   5.536   2.475
  481TIP3    H1 1449   1.714   5.460   2.459
  481TIP3    H2 1450   1.648   5.539   2.570
  482TIP3   OH2 1451   2.455   2.108   3.769
  482TIP3    H1 1452   2.516   2.170   3.727
  482TIP3    H2 1453   2.500   2.024   3.763
  483TIP3   OH2 1454   3.101   5.641   0.677
  483TIP3    H1 1455   3.039   5.665   0.607
  483TIP3    H2 1456   3.166   5.586   0.633
  484TIP3   OH2 1457   0.099   3.726   4.245
  484TIP3    H1 1458   0.051   3.644   4.257
  484TIP3    H2 1459   0.130   3.749   4.333
  485TIP3   OH2 1460   6.249   0.158   4.839
  485TIP3    H1 1461   6.208   0.206   4.767
  485TIP3    H2 1462   6.320   0.216   4.869
  486TIP3   OH2 1463   2.415   4.930   0.839
  486TIP3    H1 1464   2.407   4.837   0.862
  486TIP3    H2 1465   2.433   4.973   0.923
  487TIP3   OH2 1466   4.370   2.127   4.150
  487TIP3    H1 1467   4.455   2.091   4.124
  487TIP3    H2 1468   4.368   2.214   4.110
  488TIP3   OH2 1469   1.947   4.121   2.743
  488TIP3    H1 1470   1.967   4.028   2.729
  488TIP3    H2 1471   1.881   4.121   2.812
  489TIP3   OH2 1472   5.679   2.388   1.899
  489TIP3    H1 1473   5.644   2.307   1.936
  489TIP3    H2 1474   5.695   2.445   1.975
  490TIP3   OH2 1475   2.145   5.143   0.472
  490TIP3    H1 1476   2.051   5.138   0.486
  490TIP3    H2 1477   2.182   5.085   0.539
  491TIP3   OH2 1478   1.952   0.973   1.251
  491TIP3    H1 1479   1.922   1.003   1.165
  491TIP3    H2 1480   1.873   0.939   1.294
  492TIP3   OH2 1481   0.421   4.966   2.359
  492TIP3    H1 1482   0.481   4.932   2.293
  492TIP3    H2 1483   0.335   4.967   2.316
  493TIP3   OH2 1484   1.802   5.076   2.573
  493TIP3    H1 1485   1.731   5.034   2.524
  493TIP3    H2 1486   1.777   5.065   2.665
  494TIP3   OH2 1487   5.212   1.898   2.214
  494TIP3    H1 1488   5.213   1.886   2.119
  494TIP3    H2 1489   5.193   1.991   2.227
  495TIP3   OH2 1490   4.274   2.678   0.850
  495TIP3    H1 1491   4.223   2.748   0.808
  495TIP3    H2 1492   4.364   2.712   0.853
  496TIP3   OH2 1493   3.521   5.701   0.452
  496TIP3    H1 1494   3.592   5.641   0.476
  496TIP3    H2 1495   3.534   5.718   0.359
  497TIP3   OH2 1496   0.062   5.814   1.749
  497TIP3    H1 1497   0.071   5.738   1.806
  497TIP3    H2 1498   0.139   5.812   1.693
  498TIP3   OH2 1499   3.696   2.530   3.059
  498TIP3    H1 1500   3.751   2.454   3.075
  498TIP3    H2 1501   3.625   2.497   3.005
  499TIP3   OH2 1502   3.856   0.423   1.802
  499TIP3    H1 1503   3.828   0.332   1.795
  499TIP3    H2 1504   3.780   0.473   1.772
  500TIP3   OH2 1505   1.578   1.448   2.461
  500TIP3    H1 1506   1.541   1.509   2.525
  500TIP3    H2 1507   1.659   1.491   2.432
  501TIP3   OH2 1508   4.027   3.634   2.560
  501TIP3    H1 1509   4.005   3.645   2.652
  501TIP3    H2 1510   3.961   3.683   2.512
  502TIP3   OH2 1511   2.899   5.370   2.771
  502TIP3    H1 1512   2.842   5.403   2.701
  502TIP3    H2 1513   2.839   5.346   2.842
  503TIP3   OH2 1514   2.758   1.609   1.345
  503TIP3    H1 1515   2.706   1.669   1.397
  503TIP3    H2 1516   2.779   1.657   1.265
  504TIP3   OH2 1517   4.616   3.018   2.503
  504TIP3    H1 1518   4.552   2.966   2.454
  504TIP3    H2 1519   4.698   3.005   2.456
  505TIP3   OH2 1520   2.700   2.970   4.725
  505TIP3    H1 1521   2.795   2.968   4.732
  505TIP3    H2 1522   2.668   2.973   4.815
  506TIP3   OH2 1523   5.242   0.096   0.739
  506TIP3    H1 1524   5.171   0.034   0.727
  506TIP3    H2 1525   5.229   0.132   0.826
  507TIP3   OH2 1526   5.150   0.288   3.252
  507TIP3    H1 1527   5.240   0.258   3.244
  507TIP3    H2 1528   5.155   0.382   3.233
  508TIP3   OH2 1529   2.137   4.555   0.021
  508TIP3    H1 1530   2.094   4.508  -0.051
  508TIP3    H2 1531   2.087   4.532   0.099
  509TIP3   OH2 1532   4.030   3.343   0.301
  509TIP3    H1 1533   4.105   3.333   0.360
  509TIP3    H2 1534   4.024   3.437   0.286
  510TIP3   OH2 1535   4.009   0.162   0.592
  510TIP3    H1 1536   4.044   0.079   0.625
  510TIP3    H2 1537   4.053   0.175   0.508
  511TIP3   OH2 1538   5.219   3.094   4.311
  511TIP3    H1 1539   5.206   3.178   4.356
  511TIP3    H2 1540   5.135   3.048   4.320
  512TIP3   OH2 1541   2.937   4.898   1.939
  512TIP3    H1 1542   3.029   4.908   1.966
  512TIP3    H2 1543   2.901   4.835   2.002
  513TIP3   OH2 1544   2.289   1.258   3.748
  513TIP3    H1 1545   2.214   1.306   3.783
  513TIP3    H2 1546   2.299   1.291   3.659
  514TIP3   OH2 1547   1.378   3.617   2.030
  514TIP3    H1 1548   1.380   3.564   1.951
  514TIP3    H2 1549   1.460   3.596   2.075
  515TIP3   OH2 1550   4.438   3.174   1.844
  515TIP3    H1 1551   4.403   3.260   1.863
  515TIP3    H2 1552   4.420   3.121   1.922
  516TIP3   OH2 1553   5.124   1.430   4.775
  516TIP3    H1 1554   5.183   1.415   4.701
  516TIP3    H2 1555   5.040   1.451   4.734
  517TIP3   OH2 1556   5.858   5.529   2.609
  517TIP3    H1 1557   5.851   5.447   2.561
  517TIP3    H2 1558   5.916   5.583   2.555
  518TIP3   OH2 1559   3.845   5.681   3.720
  518TIP3    H1 1560   3.756   5.699   3.749
  518TIP3    H2 1561   3.843   5.697   3.625
  519TIP3   OH2 1562   4.988   4.498   4.448
  519TIP3    H1 1563   5.004   4.418   4.399
  519TIP3    H2 1564   5.050   4.562   4.412
  520TIP3   OH2 1565   0.846   2.192   1.618
  520TIP3    H1 1566   0.879   2.277   1.644
  520TIP3    H2 1567   0.890   2.129   1.675
  521TIP3   OH2 1568   0.480   1.918   2.067
  521TIP3    H1 1569   0.443   1.833   2.044
  521TIP3    H2 1570   0.495   1.913   2.162
  522TIP3   OH2 1571   2.223   2.942   4.904
  522TIP3    H1 1572   2.298   2.955   4.846
  522TIP3    H2 1573   2.224   3.018   4.962
  523TIP3   OH2 1574   1.614   1.346   4.200
  523TIP3    H1 1575   1.533   1.295   4.193
  523TIP3    H2 1576   1.609   1.387   4.287
  524TIP3   OH2 1577   4.083   1.479   4.273
  524TIP3    H1 1578   4.158   1.427   4.302
  524TIP3    H2 1579   4.091   1.483   4.178
  525TIP3   OH2 1580   3.932   1.215   0.526
  525TIP3    H1 1581   3.894   1.153   0.464
  525TIP3    H2 1582   4.017   1.177   0.548
  526TIP3   OH2 1583   2.924   3.166   3.925
  526TIP3    H1 1584   2.898   3.167   3.832
  526TIP3    H2 1585   2.940   3.258   3.946
  527TIP3   OH2 1586   5.628   1.538   3.702
  527TIP3    H1 1587   5.546   1.581   3.726
  527TIP3    H2 1588   5.629   1.459   3.756
  528TIP3   OH2 1589   6.233   1.858   1.369
  528TIP3    H1 1590   6.152   1.889   1.407
  528TIP3    H2 1591   6.205   1.789   1.308
  529TIP3   OH2 1592   4.918   1.086   1.116
  529TIP3    H1 1593   4.853   1.032   1.163
  529TIP3    H2 1594   4.885   1.175   1.125
  530TIP3   OH2 1595   4.603   5.384   1.284
  530TIP3    H1 1596   4.636   5.344   1.364
  530TIP3    H2 1597   4.509   5.366   1.284
  531TIP3   OH2 1598   3.889   4.714   2.736
  531TIP3    H1 1599   3.838   4.795   2.738
  531TIP3    H2 1600   3.967   4.736   2.684
  532TIP3   OH2 1601   6.010   0.030   1.595
  532TIP3    H1 1602   5.975   0.118   1.614
  532TIP3    H2 1603   6.076   0.045   1.528
  533TIP3   OH2 1604   3.182   2.501   0.142
  533TIP3    H1 1605   3.170   2.523   0.049
  533TIP3    H2 1606   3.107   2.446   0.163
  534TIP3   OH2 1607   3.917   0.772   2.026
  534TIP3    H1 1608   3.986   0.760   1.960
  534TIP3    H2 1609   3.845   0.813   1.977
  535TIP3   OH2 1610   0.094   0.427   1.184
  535TIP3    H1 1611   0.103   0.350   1.129
  535TIP3    H2 1612   0.119   0.500   1.128
  536TIP3   OH2 1613   1.593   2.346   3.076
  536TIP3    H1 1614   1.621   2.341   2.984
  536TIP3    H2 1615   1.513   2.398   3.073
  537TIP3   OH2 1616   1.423   3.572   3.629
  537TIP3    H1 1617   1.404   3.662   3.656
  537TIP3    H2 1618   1.468   3.581   3.545
  538TIP3   OH2 1619   1.238   0.780   2.795
  538TIP3    H1 1620   1.169   0.714   2.798
  538TIP3    H2 1621   1.268   0.779   2.704
  539TIP3   OH2 1622   1.098   3.414   4.922
  539TIP3    H1 1623   1.144   3.470   4.860
  539TIP3    H2 1624   1.073   3.472   4.993
  540TIP3   OH2 1625   1.016   0.516   0.895
  540TIP3    H1 1626   0.969   0.434   0.892
  540TIP3    H2 1627   0.971   0.573   0.832
  541TIP3   OH2 1628   3.279   5.342   2.976
  541TIP3    H1 1629   3.188   5.314   2.966
  541TIP3    H2 1630   3.279   5.396   3.054
  542TIP3   OH2 1631   5.959   5.833   4.951
  542TIP3    H1 1632   6.038   5.837   5.004
  542TIP3    H2 1633   5.887   5.840   5.015
  543TIP3   OH2 1634   3.642   2.587   3.816
  543TIP3    H1 1635   3.551   2.565   3.839
  543TIP3    H2 1636   3.646   2.682   3.824
  544TIP3   OH2 1637   3.569   3.552   4.115
  544TIP3    H1 1638   3.558   3.475   4.170
  544TIP3    H2 1639   3.595   3.622   4.175
  545TIP3   OH2 1640   4.263   3.678   1.046
  545TIP3    H1 1641   4.256   3.636   1.132
  545TIP3    H2 1642   4.253   3.607   0.983
  546TIP3   OH2 1643   4.953   4.192   1.361
  546TIP3    H1 1644   4.903   4.201   1.442
  546TIP3    H2 1645   4.888   4.164   1.296
  547TIP3   OH2 1646   0.596   4.316   1.479
  547TIP3    H1 1647   0.504   4.294   1.497
  547TIP3    H2 1648   0.642   4.233   1.485
  548TIP3   OH2 1649   4.865   1.557   1.480
  548TIP3    H1 1650   4.904   1.643   1.490
  548TIP3    H2 1651   4.808   1.547   1.556
  549TIP3   OH2 1652   5.120   5.280   0.698
  549TIP3    H1 1653   5.128   5.362   0.747
  549TIP3    H2 1654   5.052   5.297   0.633
  550TIP3   OH2 1655   1.429   2.082   3.157
  550TIP3    H1 1656   1.504   2.112   3.207
  550TIP3    H2 1657   1.375   2.160   3.144
  551TIP3   OH2 1658   1.669   0.377   1.126
  551TIP3    H1 1659   1.747   0.432   1.120
  551TIP3    H2 1660   1.596   0.434   1.101
  552TIP3   OH2 1661   2.368   4.029   3.669
  552TIP3    H1 1662   2.417   3.958   3.711
  552TIP3    H2 1663   2.336   3.991   3.587
  553TIP3   OH2 1664   1.230   2.949   0.808
  553TIP3    H1 1665   1.184   3.029   0.784
  553TIP3    H2 1666   1.193   2.925   0.893
  554TIP3   OH2 1667   0.705   2.721   1.768
  554TIP3    H1 1668   0.660   2.694   1.848
  554TIP3    H2 1669   0.645   2.696   1.698
  555TIP3   OH2 1670   0.827   5.017   3.487
  555TIP3    H1 1671   0.759   5.080   3.463
  555TIP3    H2 1672   0.782   4.933   3.492
  556TIP3   OH2 1673   6.014   2.883   2.838
  556TIP3    H1 1674   5.967   2.936   2.774
  556TIP3    H2 1675   6.074   2.944   2.881
  557TIP3   OH2 1676   5.801   2.292   0.448
  557TIP3    H1 1677   5.710   2.272   0.426
  557TIP3    H2 1678   5.804   2.387   0.457
  558TIP3   OH2 1679   0.906   4.171   2.986
  558TIP3    H1 1680   0.828   4.168   2.930
  558TIP3    H2 1681   0.928   4.079   3.000
  559TIP3   OH2 1682   4.579   4.844   4.658
  559TIP3    H1 1683   4.617   4.927   4.686
  559TIP3    H2 1684   4.654   4.789   4.636
  560TIP3   OH2 1685   2.859   4.858   3.549
  560TIP3    H1 1686   2.829   4.767   3.545
  560TIP3    H2 1687   2.897   4.867   3.637
  561TIP3   OH2 1688   0.517   2.058   3.677
  561TIP3    H1 1689   0.508   2.051   3.582
  561TIP3    H2 1690   0.477   1.977   3.711
  562TIP3   OH2 1691   5.992   4.983   4.082
  562TIP3    H1 1692   5.912   4.971   4.032
  562TIP3    H2 1693   5.971   4.951   4.170
  563TIP3   OH2 1694   2.011   2.461   1.348
  563TIP3    H1 1695   2.033   2.553   1.362
  563TIP3    H2 1696   2.041   2.442   1.260
  564TIP3   OH2 1697   0.675   0.361   3.992
  564TIP3    H1 1698   0.589   0.398   4.013
  564TIP3    H2 1699   0.694   0.391   3.903
  565TIP3   OH2 1700   3.013   5.949   3.884
  565TIP3    H1 1701   3.002   5.967   3.791
  565TIP3    H2 1702   3.100   5.983   3.905
  566TIP3   OH2 1703   5.120   4.657   3.773
  566TIP3    H1 1704   5.105   4.715   3.847
  566TIP3    H2 1705   5.111   4.569   3.809
  567TIP3   OH2 1706   1.994   0.248   3.271
  567TIP3    H1 1707   2.042   0.178   3.226
  567TIP3    H2 1708   1.918   0.203   3.309
  568TIP3   OH2 1709   2.248   3.009   1.280
  568TIP3    H1 1710   2.168   3.020   1.331
  568TIP3    H2 1711   2.242   3.076   1.212
  569TIP3   OH2 1712   3.166   6.006   1.032
  569TIP3    H1 1713   3.181   5.955   0.953
  569TIP3    H2 1714   3.200   5.952   1.103
  570TIP3   OH2 1715   4.550   2.888   0.646
  570TIP3    H1 1716   4.497   2.950   0.696
  570TIP3    H2 1717   4.559   2.812   0.703
  571TIP3   OH2 1718   5.984   1.531   4.759
  571TIP3    H1 1719   5.908   1.472   4.764
  571TIP3    H2 1720   6.016   1.522   4.669
  572TIP3   OH2 1721   2.607   0.927   0.407
  572TIP3    H1 1722   2.639   1.016   0.391
  572TIP3    H2 1723   2.661   0.871   0.352
  573TIP3   OH2 1724   1.465   4.428   0.141
  573TIP3    H1 1725   1.480   4.510   0.189
  573TIP3    H2 1726   1.437   4.455   0.054
  574TIP3   OH2 1727   4.719   5.914   2.348
  574TIP3    H1 1728   4.762   5.937   2.430
  574TIP3    H2 1729   4.721   5.994   2.295
  575TIP3   OH2 1730   3.867   3.859   3.235
  575TIP3    H1 1731   3.959   3.831   3.236
  575TIP3    H2 1732   3.820   3.785   3.197
  576TIP3   OH2 1733   5.316   2.818   0.263
  576TIP3    H1 1734   5.373   2.832   0.339
  576TIP3    H2 1735   5.257   2.893   0.263
  577TIP3   OH2 1736   5.076   4.887   4.613
  577TIP3    H1 1737   4.999   4.851   4.657
  577TIP3    H2 1738   5.058   4.877   4.520
  578TIP3   OH2 1739   3.065   1.008   4.801
  578TIP3    H1 1740   3.107   1.093   4.812
  578TIP3    H2 1741   3.031   1.010   4.711
  579TIP3   OH2 1742   5.115   3.947   3.219
  579TIP3    H1 1743   5.091   3.984   3.304
  579TIP3    H2 1744   5.071   4.003   3.155
  580TIP3   OH2 1745   2.337   2.736   3.169
  580TIP3    H1 1746   2.250   2.699   3.180
  580TIP3    H2 1747   2.327   2.802   3.101
  581TIP3   OH2 1748   2.119   0.576   2.187
  581TIP3    H1 1749   2.215   0.570   2.185
  581TIP3    H2 1750   2.093   0.569   2.095
  582TIP3   OH2 1751   4.809   0.306   3.035
  582TIP3    H1 1752   4.823   0.386   3.085
  582TIP3    H2 1753   4.819   0.332   2.943
  583TIP3   OH2 1754   6.229   2.431   1.171
  583TIP3    H1 1755   6.230   2.392   1.083
  583TIP3    H2 1756   6.180   2.369   1.225
  584TIP3   OH2 1757   3.999   4.602   3.917
  584TIP3    H1 1758   3.971   4.602   3.826
  584TIP3    H2 1759   4.002   4.695   3.941
  585TIP3   OH2 1760   2.714   2.273   3.699
  585TIP3    H1 1761   2.721   2.350   3.644
  585TIP3    H2 1762   2.792   2.222   3.678
  586TIP3   OH2 1763   0.340   4.707   1.497
  586TIP3    H1 1764   0.310   4.745   1.415
  586TIP3    H2 1765   0.345   4.781   1.558
  587TIP3   OH2 1766   0.715   4.411   0.986
  587TIP3    H1 1767   0.622   4.428   0.997
  587TIP3    H2 1768   0.757   4.465   1.053
  588TIP3   OH2 1769   3.762   3.342   1.674
  588TIP3    H1 1770   3.709   3.269   1.644
  588TIP3    H2 1771   3.777   3.325   1.767
  589TIP3   OH2 1772   0.381   0.361   3.715
  589TIP3    H1 1773   0.291   0.331   3.708
  589TIP3    H2 1774   0.433   0.280   3.722
  590TIP3   OH2 1775   1.342   4.199   0.254
  590TIP3    H1 1776   1.270   4.191   0.191
  590TIP3    H2 1777   1.393   4.274   0.224
  591TIP3   OH2 1778   0.766   0.110   3.993
  591TIP3    H1 1779   0.861   0.124   3.986
  591TIP3    H2 1780   0.731   0.197   4.011
  592TIP3   OH2 1781   5.725   2.918   2.602
  592TIP3    H1 1782   5.797   2.973   2.634
  592TIP3    H2 1783   5.735   2.918   2.507
  593TIP3   OH2 1784   0.792   1.181   3.955
  593TIP3    H1 1785   0.755   1.164   4.042
  593TIP3    H2 1786   0.716   1.190   3.898
  594TIP3   OH2 1787   6.112   0.359   0.084
  594TIP3    H1 1788   6.020   0.331   0.088
  594TIP3    H2 1789   6.135   0.351  -0.009
  595TIP3   OH2 1790   2.414   1.868   0.235
  595TIP3    H1 1791   2.408   1.775   0.256
  595TIP3    H2 1792   2.424   1.871   0.140
  596TIP3   OH2 1793   4.206   0.173   1.421
  596TIP3    H1 1794   4.200   0.218   1.337
  596TIP3    H2 1795   4.274   0.107   1.409
  597TIP3   OH2 1796   0.112   0.352   1.705
  597TIP3    H1 1797   0.131   0.287   1.638
  597TIP3    H2 1798   0.113   0.303   1.787
  598TIP3   OH2 1799   4.293   4.843   3.741
  598TIP3    H1 1800   4.306   4.878   3.652
  598TIP3    H2 1801   4.277   4.750   3.727
  599TIP3   OH2 1802   2.388   0.252   5.089
  599TIP3    H1 1803   2.323   0.205   5.037
  599TIP3    H2 1804   2.471   0.233   5.046
  600TIP3   OH2 1805   1.754   4.379   2.509
  600TIP3    H1 1806   1.769   4.287   2.531
  600TIP3    H2 1807   1.799   4.427   2.578
  601TIP3   OH2 1808   3.987   4.176   5.121
  601TIP3    H1 1809   3.948   4.090   5.128
  601TIP3    H2 1810   3.961   4.208   5.034
  602TIP3   OH2 1811   0.158   4.932   1.978
  602TIP3    H1 1812   0.164   4.992   2.051
  602TIP3    H2 1813   0.247   4.900   1.965
  603TIP3   OH2 1814   5.023   1.381   0.624
  603TIP3    H1 1815   4.994   1.472   0.629
  603TIP3    H2 1816   5.116   1.384   0.647
  604TIP3   OH2 1817   0.393   0.418   1.026
  604TIP3    H1 1818   0.329   0.375   0.969
  604TIP3    H2 1819   0.350   0.499   1.053
  605TIP3   OH2 1820   5.700   5.710   1.859
  605TIP3    H1 1821   5.777   5.764   1.874
  605TIP3    H2 1822   5.712   5.676   1.770
  606TIP3   OH2 1823   2.605   3.879   1.773
  606TIP3    H1 1824   2.540   3.912   1.711
  606TIP3    H2 1825   2.688   3.914   1.741
  607TIP3   OH2 1826   3.521   0.997   4.379
  607TIP3    H1 1827   3.450   0.934   4.365
  607TIP3    H2 1828   3.544   0.987   4.471
  608TIP3   OH2 1829   2.092   3.863   1.828
  608TIP3    H1 1830   2.068   3.914   1.751
  608TIP3    H2 1831   2.171   3.905   1.862
  609TIP3   OH2 1832   4.463   0.059   0.352
  609TIP3    H1 1833   4.477  -0.022   0.303
  609TIP3    H2 1834   4.508   0.126   0.301
  610TIP3   OH2 1835   6.175   5.163   1.909
  610TIP3    H1 1836   6.144   5.165   2.000
  610TIP3    H2 1837   6.116   5.221   1.862
  611TIP3   OH2 1838   5.326   4.111   3.470
  611TIP3    H1 1839   5.361   4.177   3.410
  611TIP3    H2 1840   5.231   4.126   3.468
  612TIP3   OH2 1841   0.964   3.185   3.554
  612TIP3    H1 1842   1.025   3.256   3.573
  612TIP3    H2 1843   1.018   3.106   3.557
  613TIP3   OH2 1844   4.634   2.948   1.936
  613TIP3    H1 1845   4.729   2.940   1.947
  613TIP3    H2 1846   4.623   3.020   1.875
  614TIP3   OH2 1847   1.180   3.297   4.249
  614TIP3    H1 1848   1.170   3.368   4.312
  614TIP3    H2 1849   1.212   3.223   4.301
  615TIP3   OH2 1850   1.131   1.421   1.091
  615TIP3    H1 1851   1.176   1.456   1.014
  615TIP3    H2 1852   1.069   1.357   1.056
  616TIP3   OH2 1853   1.323   3.451   1.118
  616TIP3    H1 1854   1.337   3.364   1.082
  616TIP3    H2 1855   1.393   3.504   1.080
  617TIP3   OH2 1856   2.132   0.094   4.316
  617TIP3    H1 1857   2.088   0.171   4.352
  617TIP3    H2 1858   2.163   0.046   4.394
  618TIP3   OH2 1859   2.396   1.706   3.740
  618TIP3    H1 1860   2.330   1.654   3.785
  618TIP3    H2 1861   2.444   1.643   3.687
  619TIP3   OH2 1862   3.800   4.721   2.043
  619TIP3    H1 1863   3.806   4.651   2.108
  619TIP3    H2 1864   3.836   4.798   2.088
  620TIP3   OH2 1865   1.720   0.229   3.851
  620TIP3    H1 1866   1.742   0.137   3.836
  620TIP3    H2 1867   1.655   0.228   3.920
  621TIP3   OH2 1868   4.609   1.823   0.941
  621TIP3    H1 1869   4.514   1.833   0.938
  621TIP3    H2 1870   4.622   1.728   0.951
  622TIP3   OH2 1871   4.710   5.012   2.765
  622TIP3    H1 1872   4.729   4.935   2.819
  622TIP3    H2 1873   4.623   4.994   2.728
  623TIP3   OH2 1874   2.027   1.530   2.188
  623TIP3    H1 1875   1.974   1.598   2.229
  623TIP3    H2 1876   2.045   1.467   2.259
  624TIP3   OH2 1877   5.661   1.130   5.131
  624TIP3    H1 1878   5.626   1.174   5.054
  624TIP3    H2 1879   5.609   1.050   5.138
  625TIP3   OH2 1880   1.270   4.174   1.110
  625TIP3    H1 1881   1.357   4.139   1.091
  625TIP3    H2 1882   1.238   4.205   1.026
  626TIP3   OH2 1883   2.737   4.476   4.308
  626TIP3    H1 1884   2.685   4.521   4.241
  626TIP3    H2 1885   2.676   4.414   4.348
  627TIP3   OH2 1886   3.273   5.971   3.469
  627TIP3    H1 1887   3.314   5.914   3.405
  627TIP3    H2 1888   3.200   5.920   3.503
  628TIP3   OH2 1889   3.624   3.231   3.075
  628TIP3    H1 1890   3.560   3.256   3.141
  628TIP3    H2 1891   3.682   3.307   3.067
  629TIP3   OH2 1892   2.152   1.816   4.406
  629TIP3    H1 1893   2.111   1.878   4.466
  629TIP3    H2 1894   2.190   1.749   4.464
  630TIP3   OH2 1895   5.067   3.026   2.556
  630TIP3    H1 1896   5.048   2.934   2.536
  630TIP3    H2 1897   5.135   3.023   2.623
  631TIP3   OH2 1898   6.236   2.400   0.870
  631TIP3    H1 1899   6.294   2.475   0.857
  631TIP3    H2 1900   6.269   2.334   0.809
  632TIP3   OH2 1901   3.142   3.768   4.032
  632TIP3    H1 1902   3.158   3.805   4.119
  632TIP3    H2 1903   3.213   3.705   4.019
  633TIP3   OH2 1904   6.056   0.549   4.251
  633TIP3    H1 1905   6.018   0.618   4.306
  633TIP3    H2 1906   5.984   0.520   4.196
  634TIP3   OH2 1907   5.110   4.129   0.251
  634TIP3    H1 1908   5.189   4.089   0.289
  634TIP3    H2 1909   5.138   4.162   0.166
  635TIP3   OH2 1910   0.305   3.301   4.494
  635TIP3    H1 1911   0.281   3.347   4.574
  635TIP3    H2 1912   0.392   3.333   4.472
  636TIP3   OH2 1913   5.291   2.488   5.167
  636TIP3    H1 1914   5.286   2.580   5.192
  636TIP3    H2 1915   5.261   2.486   5.076
  637TIP3   OH2 1916   6.158   1.550   3.795
  637TIP3    H1 1917   6.129   1.641   3.798
  637TIP3    H2 1918   6.177   1.528   3.886
  638TIP3   OH2 1919   4.832   5.924   3.168
  638TIP3    H1 1920   4.909   5.941   3.222
  638TIP3    H2 1921   4.791   5.847   3.209
  639TIP3   OH2 1922   3.730   0.244   1.524
  639TIP3    H1 1923   3.690   0.177   1.579
  639TIP3    H2 1924   3.668   0.258   1.453
  640TIP3   OH2 1925   6.195   1.602   1.252
  640TIP3    H1 1926   6.238   1.584   1.168
  640TIP3    H2 1927   6.200   1.519   1.300
  641TIP3   OH2 1928   6.142   0.219   4.091
  641TIP3    H1 1929   6.185   0.251   4.011
  641TIP3    H2 1930   6.049   0.227   4.073
  642TIP3   OH2 1931   1.563   5.983   1.693
  642TIP3    H1 1932   1.581   5.937   1.611
  642TIP3    H2 1933   1.595   5.923   1.761
  643TIP3   OH2 1934   0.581   1.470   0.323
  643TIP3    H1 1935   0.562   1.429   0.239
  643TIP3    H2 1936   0.676   1.482   0.323
  644TIP3   OH2 1937   2.013   3.600   3.845
  644TIP3    H1 1938   2.102   3.632   3.826
  644TIP3    H2 1939   1.957   3.674   3.824
  645TIP3   OH2 1940   2.284   0.445   1.331
  645TIP3    H1 1941   2.257   0.513   1.270
  645TIP3    H2 1942   2.224   0.372   1.314
  646TIP3   OH2 1943   1.214   3.254   2.786
  646TIP3    H1 1944   1.282   3.307   2.743
  646TIP3    H2 1945   1.198   3.182   2.726
  647TIP3   OH2 1946   0.947   4.304   0.308
  647TIP3    H1 1947   0.972   4.316   0.400
  647TIP3    H2 1948   0.976   4.216   0.287
  648TIP3   OH2 1949   0.441   0.847   4.163
  648TIP3    H1 1950   0.355   0.878   4.132
  648TIP3    H2 1951   0.488   0.824   4.082
  649TIP3   OH2 1952   2.165   0.716   4.392
  649TIP3    H1 1953   2.123   0.763   4.321
  649TIP3    H2 1954   2.241   0.674   4.351
  650TIP3   OH2 1955   2.420   0.981   4.621
  650TIP3    H1 1956   2.449   0.906   4.673
  650TIP3    H2 1957   2.472   1.055   4.653
  651TIP3   OH2 1958   5.543   2.184   4.009
  651TIP3    H1 1959   5.508   2.242   4.077
  651TIP3    H2 1960   5.559   2.101   4.053
  652TIP3   OH2 1961   4.966   3.622   0.481
  652TIP3    H1 1962   5.011   3.647   0.400
  652TIP3    H2 1963   4.873   3.621   0.458
  653TIP3   OH2 1964   3.194   2.787   4.382
  653TIP3    H1 1965   3.243   2.789   4.464
  653TIP3    H2 1966   3.112   2.833   4.402
  654TIP3   OH2 1967   3.331   3.576   3.984
  654TIP3    H1 1968   3.384   3.544   4.057
  654TIP3    H2 1969   3.393   3.624   3.929
  655TIP3   OH2 1970   1.360   3.459   2.632
  655TIP3    H1 1971   1.413   3.424   2.561
  655TIP3    H2 1972   1.372   3.554   2.626
  656TIP3   OH2 1973   3.760   3.889   1.625
  656TIP3    H1 1974   3.788   3.863   1.537
  656TIP3    H2 1975   3.680   3.838   1.640
  657TIP3   OH2 1976   0.717   4.640   4.862
  657TIP3    H1 1977   0.781   4.634   4.933
  657TIP3    H2 1978   0.634   4.658   4.906
  658TIP3   OH2 1979   5.477   3.557   3.910
  658TIP3    H1 1980   5.455   3.650   3.923
  658TIP3    H2 1981   5.392   3.515   3.896
  659TIP3   OH2 1982   1.252   2.932   3.157
  659TIP3    H1 1983   1.301   2.888   3.226
  659TIP3    H2 1984   1.216   2.861   3.103
  660TIP3   OH2 1985   0.564   4.247   4.507
  660TIP3    H1 1986   0.480   4.226   4.548
  660TIP3    H2 1987   0.548   4.330   4.461
  661TIP3   OH2 1988   2.360   3.454   3.969
  661TIP3    H1 1989   2.274   3.448   4.010
  661TIP3    H2 1990   2.351   3.525   3.906
  662TIP3   OH2 1991   3.845   3.103   4.038
  662TIP3    H1 1992   3.843   3.168   4.107
  662TIP3    H2 1993   3.764   3.117   3.988
  663TIP3   OH2 1994   0.795   1.407   2.760
  663TIP3    H1 1995   0.859   1.384   2.693
  663TIP3    H2 1996   0.810   1.343   2.830
  664TIP3   OH2 1997   1.730   4.968   2.096
  664TIP3    H1 1998   1.779   4.886   2.090
  664TIP3    H2 1999   1.763   5.010   2.175
  665TIP3   OH2 2000   3.838   5.551   2.993
  665TIP3    H1 2001   3.856   5.625   3.050
  665TIP3    H2 2002   3.902   5.485   3.017
  666TIP3   OH2 2003   0.751   5.578   1.694
  666TIP3    H1 2004   0.678   5.551   1.638
  666TIP3    H2 2005   0.816   5.613   1.633
  667TIP3   OH2 2006   1.702   2.782   0.738
  667TIP3    H1 2007   1.668   2.719   0.675
  667TIP3    H2 2008   1.757   2.730   0.797
  668TIP3   OH2 2009   2.164   1.152   1.348
  668TIP3    H1 2010   2.225   1.111   1.287
  668TIP3    H2 2011   2.081   1.106   1.334
  669TIP3   OH2 2012   4.739   0.587   4.693
  669TIP3    H1 2013   4.651   0.557   4.717
  669TIP3    H2 2014   4.724   0.659   4.632
  670TIP3   OH2 2015   5.248   2.002   5.033
  670TIP3    H1 2016   5.179   2.040   4.978
  670TIP3    H2 2017   5.309   2.074   5.049
  671TIP3   OH2 2018   1.410   1.294   2.291
  671TIP3    H1 2019   1.467   1.352   2.341
  671TIP3    H2 2020   1.322   1.333   2.301
  672TIP3   OH2 2021   1.091   0.398   3.772
  672TIP3    H1 2022   1.070   0.308   3.749
  672TIP3    H2 2023   1.177   0.393   3.814
  673TIP3   OH2 2024   2.447   4.347   1.802
  673TIP3    H1 2025   2.443   4.442   1.808
  673TIP3    H2 2026   2.356   4.319   1.796
  674TIP3   OH2 2027   1.349   1.904   0.366
  674TIP3    H1 2028   1.339   1.996   0.341
  674TIP3    H2 2029   1.434   1.901   0.410
  675TIP3   OH2 2030   4.989   1.283   3.034
  675TIP3    H1 2031   5.080   1.254   3.029
  675TIP3    H2 2032   4.995   1.375   3.060
  676TIP3   OH2 2033   1.969   4.054   0.614
  676TIP3    H1 2034   1.924   3.980   0.572
  676TIP3    H2 2035   1.898   4.114   0.639
  677TIP3   OH2 2036   1.128   2.999   2.636
  677TIP3    H1 2037   1.091   3.039   2.558
  677TIP3    H2 2038   1.054   2.952   2.676
  678TIP3   OH2 2039   2.213   2.613   0.223
  678TIP3    H1 2040   2.192   2.704   0.242
  678TIP3    H2 2041   2.232   2.574   0.309
  679TIP3   OH2 2042   5.328   0.560   0.456
  679TIP3    H1 2043   5.405   0.577   0.510
  679TIP3    H2 2044   5.363   0.550   0.367
  680TIP3   OH2 2045   3.396   2.245   2.597
  680TIP3    H1 2046   3.483   2.285   2.591
  680TIP3    H2 2047   3.341   2.313   2.636
  681TIP3   OH2 2048   1.411   1.683   4.229
  681TIP3    H1 2049   1.502   1.709   4.248
  681TIP3    H2 2050   1.417   1.635   4.147
  682TIP3   OH2 2051   0.732   4.570   2.777
  682TIP3    H1 2052   0.779   4.635   2.724
  682TIP3    H2 2053   0.736   4.605   2.866
  683TIP3   OH2 2054   6.352   3.075   4.148
  683TIP3    H1 2055   6.294   3.111   4.082
  683TIP3    H2 2056   6.315   3.105   4.231
  684TIP3   OH2 2057   1.813   0.839   4.970
  684TIP3    H1 2058   1.721   0.825   4.950
  684TIP3    H2 2059   1.813   0.885   5.054
  685TIP3   OH2 2060   0.286   5.886   1.589
  685TIP3    H1 2061   0.350   5.934   1.537
  685TIP3    H2 2062   0.321   5.888   1.678
  686TIP3   OH2 2063   2.380   5.571   2.940
  686TIP3    H1 2064   2.341   5.635   3.000
  686TIP3    H2 2065   2.467   5.553   2.977
  687TIP3   OH2 2066   1.189   1.734   3.399
  687TIP3    H1 2067   1.232   1.710   3.482
  687TIP3    H2 2068   1.243   1.693   3.332
  688TIP3   OH2 2069   1.050   0.054   3.991
  688TIP3    H1 2070   1.136   0.077   4.025
  688TIP3    H2 2071   1.032  -0.032   4.027
  689TIP3   OH2 2072   2.542   0.659   2.393
  689TIP3    H1 2073   2.483   0.730   2.367
  689TIP3    H2 2074   2.612   0.704   2.442
  690TIP3   OH2 2075   4.423   2.638   0.311
  690TIP3    H1 2076   4.348   2.694   0.295
  690TIP3    H2 2077   4.408   2.603   0.399
  691TIP3   OH2 2078   3.952   1.467   3.653
  691TIP3    H1 2079   4.042   1.455   3.682
  691TIP3    H2 2080   3.900   1.412   3.712
  692TIP3   OH2 2081   0.914   5.469   1.446
  692TIP3    H1 2082   0.994   5.515   1.472
  692TIP3    H2 2083   0.919   5.464   1.351
  693TIP3   OH2 2084   4.371   3.399   0.723
  693TIP3    H1 2085   4.300   3.426   0.780
  693TIP3    H2 2086   4.328   3.378   0.640
  694TIP3   OH2 2087   4.513   3.457   3.530
  694TIP3    H1 2088   4.471   3.503   3.603
  694TIP3    H2 2089   4.516   3.365   3.558
  695TIP3   OH2 2090   2.388   0.847   0.576
  695TIP3    H1 2091   2.452   0.860   0.506
  695TIP3    H2 2092   2.334   0.926   0.574
  696TIP3   OH2 2093   2.830   5.788   0.240
  696TIP3    H1 2094   2.909   5.769   0.189
  696TIP3    H2 2095   2.802   5.875   0.210
  697TIP3   OH2 2096   3.845   4.975   4.556
  697TIP3    H1 2097   3.873   4.968   4.464
  697TIP3    H2 2098   3.873   4.892   4.595
  698TIP3   OH2 2099   4.512   3.502   1.676
  698TIP3    H1 2100   4.526   3.523   1.769
  698TIP3    H2 2101   4.421   3.528   1.660
  699TIP3   OH2 2102   1.491   4.436   1.861
  699TIP3    H1 2103   1.444   4.374   1.917
  699TIP3    H2 2104   1.474   4.522   1.902
  700TIP3   OH2 2105   4.405   5.689   0.204
  700TIP3    H1 2106   4.331   5.674   0.145
  700TIP3    H2 2107   4.402   5.615   0.264
  701TIP3   OH2 2108   2.999   3.607   2.431
  701TIP3    H1 2109   2.926   3.558   2.393
  701TIP3    H2 2110   3.001   3.689   2.381
  702TIP3   OH2 2111   3.895   4.262   3.739
  702TIP3    H1 2112   3.831   4.334   3.733
  702TIP3    H2 2113   3.850   4.187   3.702
  703TIP3   OH2 2114   3.342   5.240   3.364
  703TIP3    H1 2115   3.283   5.176   3.324
  703TIP3    H2 2116   3.366   5.298   3.292
  704TIP3   OH2 2117   1.547   2.250   3.942
  704TIP3    H1 2118   1.581   2.224   4.028
  704TIP3    H2 2119   1.453   2.234   3.948
  705TIP3   OH2 2120   0.701   0.291   0.388
  705TIP3    H1 2121   0.758   0.225   0.350
  705TIP3    H2 2122   0.652   0.245   0.456
  706TIP3   OH2 2123   1.105   3.764   2.167
  706TIP3    H1 2124   1.122   3.778   2.260
  706TIP3    H2 2125   1.182   3.715   2.136
  707TIP3   OH2 2126   5.989   3.883   1.632
  707TIP3    H1 2127   5.902   3.866   1.669
  707TIP3    H2 2128   5.973   3.896   1.539
  708TIP3   OH2 2129   0.579   2.684   0.743
  708TIP3    H1 2130   0.530   2.758   0.706
  708TIP3    H2 2131   0.654   2.725   0.787
  709TIP3   OH2 2132   5.647   2.973   1.211
  709TIP3    H1 2133   5.732   2.991   1.251
  709TIP3    H2 2134   5.667   2.921   1.133
  710TIP3   OH2 2135   5.112   2.938   5.049
  710TIP3    H1 2136   5.169   2.958   4.974
  710TIP3    H2 2137   5.123   3.012   5.108
  711TIP3   OH2 2138   4.294   5.547   3.118
  711TIP3    H1 2139   4.376   5.574   3.077
  711TIP3    H2 2140   4.250   5.494   3.051
  712TIP3   OH2 2141   2.564   0.593   4.069
  712TIP3    H1 2142   2.659   0.606   4.064
  712TIP3    H2 2143   2.543   0.609   4.161
  713TIP3   OH2 2144   1.250   1.305   1.945
  713TIP3    H1 2145   1.301   1.326   1.867
  713TIP3    H2 2146   1.248   1.387   1.995
  714TIP3   OH2 2147   3.694   3.703   4.292
  714TIP3    H1 2148   3.644   3.772   4.336
  714TIP3    H2 2149   3.754   3.751   4.234
  715TIP3   OH2 2150   5.585   0.921   4.365
  715TIP3    H1 2151   5.595   0.837   4.410
  715TIP3    H2 2152   5.608   0.903   4.274
  716TIP3   OH2 2153   3.905   1.208   4.119
  716TIP3    H1 2154   3.876   1.282   4.173
  716TIP3    H2 2155   3.841   1.139   4.137
  717TIP3   OH2 2156   4.469   3.571   1.959
  717TIP3    H1 2157   4.482   3.598   2.050
  717TIP3    H2 2158   4.374   3.573   1.946
  718TIP3   OH2 2159   1.497   2.278   1.251
  718TIP3    H1 2160   1.547   2.314   1.178
  718TIP3    H2 2161   1.563   2.266   1.320
  719TIP3   OH2 2162   2.024   5.080   0.142
  719TIP3    H1 2163   2.013   4.994   0.183
  719TIP3    H2 2164   2.117   5.085   0.122
  720TIP3   OH2 2165   3.695   4.317   1.918
  720TIP3    H1 2166   3.743   4.389   1.877
  720TIP3    H2 2167   3.755   4.242   1.913
  721TIP3   OH2 2168   0.975   3.932   1.137
  721TIP3    H1 2169   1.066   3.905   1.150
  721TIP3    H2 2170   0.923   3.860   1.172
  722TIP3   OH2 2171   4.803   0.709   4.921
  722TIP3    H1 2172   4.722   0.694   4.970
  722TIP3    H2 2173   4.789   0.666   4.836
  723TIP3   OH2 2174   0.284   5.358   1.489
  723TIP3    H1 2175   0.200   5.382   1.528
  723TIP3    H2 2176   0.274   5.265   1.468
  724TIP3   OH2 2177   2.914   5.692   1.744
  724TIP3    H1 2178   2.986   5.743   1.707
  724TIP3    H2 2179   2.852   5.758   1.777
  725TIP3   OH2 2180   0.694   4.767   4.584
  725TIP3    H1 2181   0.637   4.824   4.532
  725TIP3    H2 2182   0.647   4.754   4.666
  726TIP3   OH2 2183   3.638   4.627   1.434
  726TIP3    H1 2184   3.562   4.620   1.491
  726TIP3    H2 2185   3.702   4.677   1.485
  727TIP3   OH2 2186   3.759   5.051   1.378
  727TIP3    H1 2187   3.702   5.128   1.366
  727TIP3    H2 2188   3.698   4.977   1.385
  728TIP3   OH2 2189   4.086  -0.016   2.162
  728TIP3    H1 2190   4.034   0.050   2.208
  728TIP3    H2 2191   4.113   0.028   2.081
  729TIP3   OH2 2192   5.428   0.879   2.287
  729TIP3    H1 2193   5.457   0.792   2.311
  729TIP3    H2 2194   5.481   0.938   2.340
  730TIP3   OH2 2195   5.745   2.739   1.456
  730TIP3    H1 2196   5.698   2.681   1.516
  730TIP3    H2 2197   5.722   2.707   1.369
  731TIP3   OH2 2198   3.277   4.089   1.955
  731TIP3    H1 2199   3.190   4.082   1.915
  731TIP3    H2 2200   3.293   4.002   1.992
  732TIP3   OH2 2201   1.095   1.364   4.250
  732TIP3    H1 2202   1.053   1.347   4.166
  732TIP3    H2 2203   1.051   1.442   4.283
  733TIP3   OH2 2204   3.546   3.964   2.706
  733TIP3    H1 2205   3.505   3.886   2.744
  733TIP3    H2 2206   3.481   4.033   2.717
  734TIP3   OH2 2207   0.892   3.035   4.999
  734TIP3    H1 2208   0.945   3.057   5.075
  734TIP3    H2 2209   0.902   3.110   4.940
  735TIP3   OH2 2210   6.046   4.252   5.081
  735TIP3    H1 2211   5.977   4.310   5.112
  735TIP3    H2 2212   6.026   4.238   4.988
  736TIP3   OH2 2213   0.493   4.139   2.530
  736TIP3    H1 2214   0.427   4.204   2.554
  736TIP3    H2 2215   0.484   4.130   2.435
  737TIP3   OH2 2216   2.519   5.166   5.053
  737TIP3    H1 2217   2.489   5.256   5.039
  737TIP3    H2 2218   2.461   5.132   5.121
  738TIP3   OH2 2219   4.603   0.636   1.725
  738TIP3    H1 2220   4.509   0.624   1.709
  738TIP3    H2 2221   4.620   0.580   1.801
  739TIP3   OH2 2222   0.810   5.855   4.332
  739TIP3    H1 2223   0.821   5.891   4.243
  739TIP3    H2 2224   0.841   5.765   4.325
  740TIP3   OH2 2225   5.504   4.910   2.771
  740TIP3    H1 2226   5.508   4.958   2.688
  740TIP3    H2 2227   5.496   4.818   2.745
  741TIP3   OH2 2228   2.496   0.012   2.416
  741TIP3    H1 2229   2.442   0.072   2.365
  741TIP3    H2 2230   2.568  -0.012   2.358
  742TIP3   OH2 2231   4.425   1.271   4.081
  742TIP3    H1 2232   4.338   1.237   4.101
  742TIP3    H2 2233   4.416   1.366   4.091
  743TIP3   OH2 2234   1.248   3.250   3.385
  743TIP3    H1 2235   1.264   3.263   3.292
  743TIP3    H2 2236   1.157   3.220   3.390
  744TIP3   OH2 2237   4.532   3.852   1.357
  744TIP3    H1 2238   4.444   3.878   1.385
  744TIP3    H2 2239   4.531   3.756   1.364
  745TIP3   OH2 2240   1.338   5.042   0.131
  745TIP3    H1 2241   1.393   5.059   0.054
  745TIP3    H2 2242   1.353   5.117   0.188
  746TIP3   OH2 2243   4.092   0.849   2.923
  746TIP3    H1 2244   4.106   0.943   2.923
  746TIP3    H2 2245   4.003   0.837   2.890
  747TIP3   OH2 2246   2.248   0.610   1.916
  747TIP3    H1 2247   2.162   0.625   1.878
  747TIP3    H2 2248   2.289   0.696   1.918
  748TIP3   OH2 2249   0.083   0.321   0.281
  748TIP3    H1 2250   0.090   0.244   0.338
  748TIP3    H2 2251  -0.005   0.354   0.296
  749TIP3   OH2 2252   3.711   2.044   2.357
  749TIP3    H1 2253   3.781   1.999   2.404
  749TIP3    H2 2254   3.631   2.017   2.402
  750TIP3   OH2 2255   4.606   0.505   0.354
  750TIP3    H1 2256   4.625   0.437   0.419
  750TIP3    H2 2257   4.568   0.458   0.280
  751TIP3   OH2 2258   1.140   3.838   2.915
  751TIP3    H1 2259   1.072   3.878   2.969
  751TIP3    H2 2260   1.222   3.878   2.946
  752TIP3   OH2 2261   4.166   4.878   0.985
  752TIP3    H1 2262   4.168   4.793   1.029
  752TIP3    H2 2263   4.220   4.865   0.907
  753TIP3   OH2 2264   2.476   2.870   1.336
  753TIP3    H1 2265   2.391   2.913   1.323
  753TIP3    H2 2266   2.539   2.929   1.294
  754TIP3   OH2 2267   1.233   1.222   3.796
  754TIP3    H1 2268   1.308   1.186   3.844
  754TIP3    H2 2269   1.172   1.249   3.865
  755TIP3   OH2 2270   3.099   2.387   3.889
  755TIP3    H1 2271   3.123   2.352   3.803
  755TIP3    H2 2272   3.048   2.466   3.869
  756TIP3   OH2 2273   2.861   1.813   2.191
  756TIP3    H1 2274   2.870   1.864   2.272
  756TIP3    H2 2275   2.768   1.816   2.171
  757TIP3   OH2 2276   2.099   1.585   0.521
  757TIP3    H1 2277   2.055   1.589   0.606
  757TIP3    H2 2278   2.164   1.655   0.524
  758TIP3   OH2 2279   5.930   0.104   3.105
  758TIP3    H1 2280   5.940   0.119   3.199
  758TIP3    H2 2281   5.964   0.184   3.064
  759TIP3   OH2 2282   1.696   4.398   3.422
  759TIP3    H1 2283   1.704   4.302   3.419
  759TIP3    H2 2284   1.778   4.430   3.382
  760TIP3   OH2 2285   1.962   0.895   2.082
  760TIP3    H1 2286   2.014   0.890   2.001
  760TIP3    H2 2287   2.024   0.923   2.149
  761TIP3   OH2 2288   6.163   1.816   0.356
  761TIP3    H1 2289   6.143   1.830   0.264
  761TIP3    H2 2290   6.173   1.905   0.392
  762TIP3   OH2 2291   1.976   2.443   2.229
  762TIP3    H1 2292   1.991   2.366   2.283
  762TIP3    H2 2293   2.049   2.502   2.250
  763TIP3   OH2 2294   1.071   4.795   1.754
  763TIP3    H1 2295   1.138   4.733   1.781
  763TIP3    H2 2296   1.110   4.881   1.769
  764TIP3   OH2 2297   2.952   2.110   3.077
  764TIP3    H1 2298   3.010   2.182   3.052
  764TIP3    H2 2299   2.962   2.047   3.006
  765TIP3   OH2 2300   4.096   4.702   0.432
  765TIP3    H1 2301   4.126   4.613   0.453
  765TIP3    H2 2302   4.058   4.734   0.514
  766TIP3   OH2 2303   1.071   2.131   2.662
  766TIP3    H1 2304   1.098   2.086   2.742
  766TIP3    H2 2305   1.077   2.224   2.683
  767TIP3   OH2 2306   5.392   1.492   3.315
  767TIP3    H1 2307   5.475   1.538   3.311
  767TIP3    H2 2308   5.326   1.561   3.303
  768TIP3   OH2 2309   0.896   2.073   5.066
  768TIP3    H1 2310   0.894   2.018   5.145
  768TIP3    H2 2311   0.837   2.030   5.005
  769TIP3   OH2 2312   3.421   4.471   2.520
  769TIP3    H1 2313   3.414   4.544   2.458
  769TIP3    H2 2314   3.336   4.427   2.515
  770TIP3   OH2 2315   4.984   4.796   1.171
  770TIP3    H1 2316   4.930   4.805   1.092
  770TIP3    H2 2317   5.031   4.714   1.159
  771TIP3   OH2 2318   0.736   4.752   4.271
  771TIP3    H1 2319   0.673   4.822   4.287
  771TIP3    H2 2320   0.786   4.745   4.352
  772TIP3   OH2 2321   4.274   4.377   4.738
  772TIP3    H1 2322   4.269   4.464   4.698
  772TIP3    H2 2323   4.240   4.390   4.827
  773TIP3   OH2 2324   5.555   2.998   3.611
  773TIP3    H1 2325   5.519   2.916   3.644
  773TIP3    H2 2326   5.486   3.062   3.626
  774TIP3   OH2 2327   1.190   4.149   2.973
  774TIP3    H1 2328   1.188   4.136   3.068
  774TIP3    H2 2329   1.116   4.207   2.956
  775TIP3   OH2 2330   0.457   5.224   3.713
  775TIP3    H1 2331   0.544   5.264   3.708
  775TIP3    H2 2332   0.424   5.227   3.623
  776TIP3   OH2 2333   2.479   5.019   2.555
  776TIP3    H1 2334   2.480   5.097   2.499
  776TIP3    H2 2335   2.529   5.044   2.632
  777TIP3   OH2 2336   0.782   3.993   3.470
  777TIP3    H1 2337   0.824   3.928   3.414
  777TIP3    H2 2338   0.854   4.035   3.517
  778TIP3   OH2 2339   2.433   3.533   5.022
  778TIP3    H1 2340   2.398   3.469   5.085
  778TIP3    H2 2341   2.524   3.506   5.009
  779TIP3   OH2 2342   2.715   5.142   0.122
  779TIP3    H1 2343   2.749   5.120   0.035
  779TIP3    H2 2344   2.629   5.101   0.125
  780TIP3   OH2 2345   1.093   1.316   4.944
  780TIP3    H1 2346   1.076   1.222   4.948
  780TIP3    H2 2347   1.031   1.354   5.007
  781TIP3   OH2 2348   2.691   5.561   0.312
  781TIP3    H1 2349   2.678   5.517   0.227
  781TIP3    H2 2350   2.726   5.647   0.289
  782TIP3   OH2 2351   2.186   1.473   5.098
  782TIP3    H1 2352   2.196   1.380   5.078
  782TIP3    H2 2353   2.138   1.509   5.023
  783TIP3   OH2 2354   2.663   0.273   2.156
  783TIP3    H1 2355   2.736   0.335   2.168
  783TIP3    H2 2356   2.631   0.291   2.068
  784TIP3   OH2 2357   5.721   2.495   0.237
  784TIP3    H1 2358   5.745   2.436   0.166
  784TIP3    H2 2359   5.646   2.453   0.280
  785TIP3   OH2 2360   3.914   1.256   4.884
  785TIP3    H1 2361   3.899   1.227   4.794
  785TIP3    H2 2362   3.960   1.339   4.875
  786TIP3   OH2 2363   2.964   0.167   1.210
  786TIP3    H1 2364   3.036   0.179   1.148
  786TIP3    H2 2365   2.896   0.227   1.179
  787TIP3   OH2 2366   1.345   4.332   2.493
  787TIP3    H1 2367   1.337   4.237   2.495
  787TIP3    H2 2368   1.274   4.363   2.549
  788TIP3   OH2 2369   1.334   2.429   3.973
  788TIP3    H1 2370   1.285   2.504   3.941
  788TIP3    H2 2371   1.304   2.356   3.918
  789TIP3   OH2 2372   1.725   3.190   2.422
  789TIP3    H1 2373   1.748   3.140   2.344
  789TIP3    H2 2374   1.656   3.139   2.464
  790TIP3   OH2 2375   2.528   5.091   1.817
  790TIP3    H1 2376   2.566   5.087   1.729
  790TIP3    H2 2377   2.603   5.099   1.875
  791TIP3   OH2 2378   0.370   0.531   2.767
  791TIP3    H1 2379   0.328   0.472   2.705
  791TIP3    H2 2380   0.455   0.551   2.727
  792TIP3   OH2 2381   4.991   3.665   1.698
  792TIP3    H1 2382   4.982   3.691   1.790
  792TIP3    H2 2383   4.940   3.730   1.650
  793TIP3   OH2 2384   5.275   0.529   4.412
  793TIP3    H1 2385   5.187   0.499   4.433
  793TIP3    H2 2386   5.269   0.566   4.324
  794TIP3   OH2 2387   5.735   5.244   3.346
  794TIP3    H1 2388   5.701   5.277   3.430
  794TIP3    H2 2389   5.659   5.205   3.303
  795TIP3   OH2 2390   2.222   2.052   0.429
  795TIP3    H1 2391   2.267   2.062   0.513
  795TIP3    H2 2392   2.129   2.057   0.450
  796TIP3   OH2 2393   6.311   3.777   3.442
  796TIP3    H1 2394   6.359   3.710   3.492
  796TIP3    H2 2395   6.358   3.782   3.359
  797TIP3   OH2 2396   3.111   0.184   4.802
  797TIP3    H1 2397   3.021   0.203   4.829
  797TIP3    H2 2398   3.165   0.240   4.857
  798TIP3   OH2 2399   4.479   5.283   5.167
  798TIP3    H1 2400   4.484   5.195   5.130
  798TIP3    H2 2401   4.456   5.269   5.259
  799TIP3   OH2 2402   3.798   2.658   3.287
  799TIP3    H1 2403   3.764   2.613   3.209
  799TIP3    H2 2404   3.861   2.721   3.253
  800TIP3   OH2 2405   0.222   5.576   5.085
  800TIP3    H1 2406   0.234   5.484   5.062
  800TIP3    H2 2407   0.208   5.620   5.001
  801TIP3   OH2 2408   1.617   3.447   2.442
  801TIP3    H1 2409   1.666   3.490   2.511
  801TIP3    H2 2410   1.669   3.369   2.421
  802TIP3   OH2 2411   1.451   2.029   1.882
  802TIP3    H1 2412   1.461   2.026   1.977
  802TIP3    H2 2413   1.535   1.998   1.848
  803TIP3   OH2 2414   3.743   4.931   3.290
  803TIP3    H1 2415   3.702   5.017   3.279
  803TIP3    H2 2416   3.709   4.899   3.374
  804TIP3   OH2 2417   3.406   4.564   1.571
  804TIP3    H1 2418   3.403   4.474   1.537
  804TIP3    H2 2419   3.341   4.611   1.519
  805TIP3   OH2 2420   0.319   5.848   2.752
  805TIP3    H1 2421   0.396   5.793   2.768
  805TIP3    H2 2422   0.284   5.866   2.839
  806TIP3   OH2 2423   4.528   3.454   1.345
  806TIP3    H1 2424   4.592   3.409   1.290
  806TIP3    H2 2425   4.457   3.477   1.284
  807TIP3   OH2 2426   0.571   3.040   3.818
  807TIP3    H1 2427   0.530   2.954   3.829
  807TIP3    H2 2428   0.502   3.095   3.781
  808TIP3   OH2 2429   4.440   1.409   1.906
  808TIP3    H1 2430   4.414   1.499   1.929
  808TIP3    H2 2431   4.419   1.358   1.984
  809TIP3   OH2 2432   3.493   0.025   1.341
  809TIP3    H1 2433   3.471  -0.067   1.334
  809TIP3    H2 2434   3.537   0.046   1.258
  810TIP3   OH2 2435   6.036   3.790   4.661
  810TIP3    H1 2436   5.995   3.839   4.732
  810TIP3    H2 2437   5.962   3.761   4.607
  811TIP3   OH2 2438   1.230   0.263   2.330
  811TIP3    H1 2439   1.169   0.245   2.259
  811TIP3    H2 2440   1.271   0.179   2.348
  812TIP3   OH2 2441   2.821   5.352   0.796
  812TIP3    H1 2442   2.887   5.415   0.824
  812TIP3    H2 2443   2.770   5.399   0.730
  813TIP3   OH2 2444   3.760   2.754   2.897
  813TIP3    H1 2445   3.710   2.831   2.924
  813TIP3    H2 2446   3.733   2.685   2.958
  814TIP3   OH2 2447   1.528   3.670   3.051
  814TIP3    H1 2448   1.462   3.638   2.989
  814TIP3    H2 2449   1.601   3.609   3.041
  815TIP3   OH2 2450   2.744   5.235   2.352
  815TIP3    H1 2451   2.798   5.274   2.284
  815TIP3    H2 2452   2.657   5.226   2.313
  816TIP3   OH2 2453   4.262   1.674   2.480
  816TIP3    H1 2454   4.167   1.689   2.483
  816TIP3    H2 2455   4.271   1.586   2.445
  817TIP3   OH2 2456   4.267   1.684   3.003
  817TIP3    H1 2457   4.181   1.642   3.001
  817TIP3    H2 2458   4.299   1.676   2.913
  818TIP3   OH2 2459   0.734   5.378   2.689
  818TIP3    H1 2460   0.753   5.387   2.782
  818TIP3    H2 2461   0.730   5.467   2.656
  819TIP3   OH2 2462   2.170   4.225   2.066
  819TIP3    H1 2463   2.221   4.147   2.086
  819TIP3    H2 2464   2.179   4.280   2.144
  820TIP3   OH2 2465   0.200   2.713   5.178
  820TIP3    H1 2466   0.203   2.758   5.094
  820TIP3    H2 2467   0.212   2.782   5.243
  821TIP3   OH2 2468   2.912   3.454   0.276
  821TIP3    H1 2469   2.850   3.388   0.248
  821TIP3    H2 2470   2.928   3.435   0.368
  822TIP3   OH2 2471   3.711   2.889   5.105
  822TIP3    H1 2472   3.747   2.861   5.190
  822TIP3    H2 2473   3.618   2.868   5.110
  823TIP3   OH2 2474   2.565   1.266   2.421
  823TIP3    H1 2475   2.594   1.312   2.342
  823TIP3    H2 2476   2.522   1.334   2.474
  824TIP3   OH2 2477   6.246   2.062   1.135
  824TIP3    H1 2478   6.230   2.056   1.229
  824TIP3    H2 2479   6.217   1.977   1.100
  825TIP3   OH2 2480   3.454   5.324   3.616
  825TIP3    H1 2481   3.537   5.346   3.574
  825TIP3    H2 2482   3.391   5.321   3.544
  826TIP3   OH2 2483   1.391   3.856   3.687
  826TIP3    H1 2484   1.419   3.946   3.668
  826TIP3    H2 2485   1.328   3.836   3.618
  827TIP3   OH2 2486   2.662   2.778   1.070
  827TIP3    H1 2487   2.610   2.791   0.990
  827TIP3    H2 2488   2.673   2.866   1.106
  828TIP3   OH2 2489   2.187   2.633   2.261
  828TIP3    H1 2490   2.172   2.717   2.219
  828TIP3    H2 2491   2.267   2.600   2.219
  829TIP3   OH2 2492   3.558   5.712   4.909
  829TIP3    H1 2493   3.502   5.753   4.974
  829TIP3    H2 2494   3.646   5.741   4.931
  830TIP3   OH2 2495   2.444   5.798   0.223
  830TIP3    H1 2496   2.409   5.710   0.241
  830TIP3    H2 2497   2.538   5.789   0.237
  831TIP3   OH2 2498   0.090   3.588   3.610
  831TIP3    H1 2499   0.138   3.538   3.545
  831TIP3    H2 2500   0.153   3.604   3.680
  832TIP3   OH2 2501   3.322   0.069   2.100
  832TIP3    H1 2502   3.235   0.039   2.129
  832TIP3    H2 2503   3.364  -0.009   2.065
  833TIP3   OH2 2504   2.499   3.611   4.553
  833TIP3    H1 2505   2.547   3.532   4.527
  833TIP3    H2 2506   2.429   3.579   4.610
  834TIP3   OH2 2507   0.770   5.114   0.695
  834TIP3    H1 2508   0.735   5.200   0.672
  834TIP3    H2 2509   0.842   5.100   0.634
  835TIP3   OH2 2510   5.549   5.616   3.535
  835TIP3    H1 2511   5.604   5.695   3.537
  835TIP3    H2 2512   5.461   5.647   3.554
  836TIP3   OH2 2513   3.103   1.022   1.704
  836TIP3    H1 2514   3.087   1.087   1.636
  836TIP3    H2 2515   3.188   0.984   1.682
  837TIP3   OH2 2516   4.185   1.160   4.133
  837TIP3    H1 2517   4.201   1.092   4.198
  837TIP3    H2 2518   4.090   1.168   4.129
  838TIP3   OH2 2519   0.384   1.816   4.252
  838TIP3    H1 2520   0.448   1.757   4.292
  838TIP3    H2 2521   0.422   1.838   4.167
  839TIP3   OH2 2522   5.114   4.645   0.204
  839TIP3    H1 2523   5.031   4.602   0.189
  839TIP3    H2 2524   5.142   4.675   0.117
  840TIP3   OH2 2525   4.686   4.755   3.169
  840TIP3    H1 2526   4.705   4.694   3.240
  840TIP3    H2 2527   4.714   4.840   3.201
  841TIP3   OH2 2528   0.818   1.803   0.882
  841TIP3    H1 2529   0.827   1.891   0.920
  841TIP3    H2 2530   0.773   1.817   0.799
  842TIP3   OH2 2531   0.137   1.958   1.320
  842TIP3    H1 2532   0.130   1.964   1.225
  842TIP3    H2 2533   0.058   1.911   1.347
  843TIP3   OH2 2534   5.387   1.499   2.396
  843TIP3    H1 2535   5.349   1.515   2.310
  843TIP3    H2 2536   5.313   1.507   2.457
  844TIP3   OH2 2537   5.275   5.897   1.741
  844TIP3    H1 2538   5.309   5.882   1.652
  844TIP3    H2 2539   5.320   5.832   1.795
  845TIP3   OH2 2540   3.540   5.311   1.773
  845TIP3    H1 2541   3.608   5.345   1.714
  845TIP3    H2 2542   3.468   5.373   1.765
  846TIP3   OH2 2543   5.049   1.354   2.216
  846TIP3    H1 2544   5.094   1.381   2.136
  846TIP3    H2 2545   4.979   1.296   2.186
  847TIP3   OH2 2546   0.271   0.045   3.889
  847TIP3    H1 2547   0.271  -0.049   3.907
  847TIP3    H2 2548   0.340   0.058   3.825
  848TIP3   OH2 2549   1.975   3.714   3.443
  848TIP3    H1 2550   1.979   3.632   3.493
  848TIP3    H2 2551   2.025   3.777   3.495
  849TIP3   OH2 2552   1.825   0.685   2.632
  849TIP3    H1 2553   1.851   0.599   2.664
  849TIP3    H2 2554   1.874   0.696   2.551
  850TIP3   OH2 2555   1.502   4.175   0.619
  850TIP3    H1 2556   1.494   4.097   0.673
  850TIP3    H2 2557   1.424   4.174   0.563
  851TIP3   OH2 2558   5.009   0.932   1.483
  851TIP3    H1 2559   4.988   0.910   1.392
  851TIP3    H2 2560   4.945   0.999   1.507
  852TIP3   OH2 2561   3.927   5.733   1.988
  852TIP3    H1 2562   3.873   5.663   2.026
  852TIP3    H2 2563   3.875   5.812   2.000
  853TIP3   OH2 2564   1.531   1.750   0.811
  853TIP3    H1 2565   1.523   1.832   0.860
  853TIP3    H2 2566   1.441   1.718   0.804
  854TIP3   OH2 2567   4.842   0.325   4.858
  854TIP3    H1 2568   4.817   0.415   4.839
  854TIP3    H2 2569   4.781   0.297   4.927
  855TIP3   OH2 2570   5.102   0.619   1.039
  855TIP3    H1 2571   5.036   0.669   0.991
  855TIP3    H2 2572   5.053   0.572   1.106
  856TIP3   OH2 2573   2.648   5.892   2.155
  856TIP3    H1 2574   2.555   5.905   2.138
  856TIP3    H2 2575   2.651   5.861   2.246
  857TIP3   OH2 2576   0.265   4.330   2.639
  857TIP3    H1 2577   0.258   4.315   2.733
  857TIP3    H2 2578   0.216   4.259   2.598
  858TIP3   OH2 2579   1.637   5.195   3.337
  858TIP3    H1 2580   1.704   5.244   3.386
  858TIP3    H2 2581   1.584   5.263   3.295
  859TIP3   OH2 2582   2.446   1.076   2.087
  859TIP3    H1 2583   2.469   1.159   2.045
  859TIP3    H2 2584   2.384   1.102   2.156
  860TIP3   OH2 2585   0.306   2.267   4.007
  860TIP3    H1 2586   0.293   2.309   3.922
  860TIP3    H2 2587   0.398   2.241   4.006
  861TIP3   OH2 2588   6.075   3.556   1.900
  861TIP3    H1 2589   6.013   3.620   1.935
  861TIP3    H2 2590   6.161   3.594   1.917
  862TIP3   OH2 2591   0.334   2.634   1.256
  862TIP3    H1 2592   0.259   2.618   1.313
  862TIP3    H2 2593   0.297   2.635   1.167
  863TIP3   OH2 2594   2.318   4.881   1.742
  863TIP3    H1 2595   2.376   4.956   1.750
  863TIP3    H2 2596   2.255   4.905   1.674
  864TIP3   OH2 2597   4.368   1.949   2.048
  864TIP3    H1 2598   4.367   1.938   2.143
  864TIP3    H2 2599   4.438   2.012   2.032
  865TIP3   OH2 2600   3.544   5.632   2.727
  865TIP3    H1 2601   3.556   5.544   2.762
  865TIP3    H2 2602   3.479   5.673   2.784
  866TIP3   OH2 2603   0.053   5.708   4.667
  866TIP3    H1 2604   0.046   5.620   4.702
  866TIP3    H2 2605   0.092   5.759   4.737
  867TIP3   OH2 2606   5.271   1.881   2.654
  867TIP3    H1 2607   5.245   1.790   2.665
  867TIP3    H2 2608   5.350   1.877   2.601
  868TIP3   OH2 2609   2.442   1.856   3.080
  868TIP3    H1 2610   2.418   1.763   3.074
  868TIP3    H2 2611   2.470   1.879   2.991
  869TIP3   OH2 2612   0.160   0.973   2.491
  869TIP3    H1 2613   0.106   0.936   2.421
  869TIP3    H2 2614   0.216   0.900   2.518
  870TIP3   OH2 2615   1.622   3.646   4.239
  870TIP3    H1 2616   1.574   3.597   4.172
  870TIP3    H2 2617   1.713   3.644   4.210
  871TIP3   OH2 2618   1.445   2.422   0.284
  871TIP3    H1 2619   1.376   2.457   0.341
  871TIP3    H2 2620   1.526   2.455   0.323
  872TIP3   OH2 2621   0.754   5.296   1.605
  872TIP3    H1 2622   0.792   5.363   1.549
  872TIP3    H2 2623   0.689   5.342   1.658
  873TIP3   OH2 2624   0.407   3.852   3.221
  873TIP3    H1 2625   0.412   3.805   3.138
  873TIP3    H2 2626   0.357   3.794   3.278
  874TIP3   OH2 2627   3.793   5.342   3.809
  874TIP3    H1 2628   3.869   5.401   3.805
  874TIP3    H2 2629   3.726   5.393   3.855
  875TIP3   OH2 2630   3.326   0.519   2.353
  875TIP3    H1 2631   3.420   0.536   2.360
  875TIP3    H2 2632   3.285   0.603   2.375
  876TIP3   OH2 2633   5.497   2.862   3.856
  876TIP3    H1 2634   5.472   2.950   3.828
  876TIP3    H2 2635   5.504   2.868   3.951
  877TIP3   OH2 2636   3.754   3.158   0.680
  877TIP3    H1 2637   3.718   3.238   0.717
  877TIP3    H2 2638   3.833   3.141   0.731
  878TIP3   OH2 2639   1.296   4.642   1.198
  878TIP3    H1 2640   1.263   4.642   1.108
  878TIP3    H2 2641   1.219   4.657   1.253
  879TIP3   OH2 2642   5.188   2.347   3.516
  879TIP3    H1 2643   5.136   2.271   3.491
  879TIP3    H2 2644   5.268   2.340   3.464
  880TIP3   OH2 2645   0.637   0.784   4.975
  880TIP3    H1 2646   0.651   0.768   5.068
  880TIP3    H2 2647   0.672   0.707   4.931
  881TIP3   OH2 2648   0.189   3.431   3.430
  881TIP3    H1 2649   0.249   3.374   3.382
  881TIP3    H2 2650   0.102   3.400   3.407
  882TIP3   OH2 2651   1.869   1.926   4.233
  882TIP3    H1 2652   1.913   2.001   4.273
  882TIP3    H2 2653   1.939   1.862   4.218
  883TIP3   OH2 2654   4.381   5.566   1.687
  883TIP3    H1 2655   4.363   5.654   1.720
  883TIP3    H2 2656   4.319   5.509   1.733
  884TIP3   OH2 2657   3.025   1.221   4.570
  884TIP3    H1 2658   3.030   1.126   4.558
  884TIP3    H2 2659   2.937   1.245   4.542
  885TIP3   OH2 2660   6.304   4.362   1.648
  885TIP3    H1 2661   6.369   4.374   1.718
  885TIP3    H2 2662   6.306   4.444   1.599
  886TIP3   OH2 2663   0.965   4.783   1.095
  886TIP3    H1 2664   0.996   4.694   1.079
  886TIP3    H2 2665   0.871   4.772   1.113
  887TIP3   OH2 2666   4.482   3.996   3.703
  887TIP3    H1 2667   4.449   4.012   3.791
  887TIP3    H2 2668   4.413   3.948   3.659
  888TIP3   OH2 2669   5.183   1.254   4.007
  888TIP3    H1 2670   5.140   1.184   4.055
  888TIP3    H2 2671   5.143   1.334   4.041
  889TIP3   OH2 2672   5.484   4.629   3.032
  889TIP3    H1 2673   5.405   4.672   3.063
  889TIP3    H2 2674   5.457   4.538   3.016
  890TIP3   OH2 2675   1.662   0.496   3.718
  890TIP3    H1 2676   1.576   0.460   3.695
  890TIP3    H2 2677   1.695   0.438   3.786
  891TIP3   OH2 2678   4.444   5.958   0.154
  891TIP3    H1 2679   4.448   5.863   0.161
  891TIP3    H2 2680   4.380   5.985   0.219
  892TIP3   OH2 2681   6.043   2.133   4.160
  892TIP3    H1 2682   6.041   2.119   4.255
  892TIP3    H2 2683   5.951   2.132   4.134
  893TIP3   OH2 2684   4.965   2.807   1.934
  893TIP3    H1 2685   5.019   2.796   2.013
  893TIP3    H2 2686   5.016   2.866   1.879
  894TIP3   OH2 2687   3.526   0.499   0.993
  894TIP3    H1 2688   3.491   0.583   0.966
  894TIP3    H2 2689   3.458   0.462   1.050
  895TIP3   OH2 2690   3.026   3.482   1.573
  895TIP3    H1 2691   3.052   3.573   1.560
  895TIP3    H2 2692   2.959   3.486   1.642
  896TIP3   OH2 2693   0.330   3.629   0.124
  896TIP3    H1 2694   0.305   3.589   0.208
  896TIP3    H2 2695   0.425   3.631   0.126
  897TIP3   OH2 2696   5.819   5.089   2.577
  897TIP3    H1 2697   5.839   5.108   2.485
  897TIP3    H2 2698   5.902   5.065   2.616
  898TIP3   OH2 2699   0.275   2.384   3.757
  898TIP3    H1 2700   0.343   2.449   3.739
  898TIP3    H2 2701   0.243   2.360   3.670
  899TIP3   OH2 2702   6.287   5.751   4.247
  899TIP3    H1 2703   6.255   5.772   4.334
  899TIP3    H2 2704   6.374   5.714   4.262
  900TIP3   OH2 2705   2.807   4.847   0.499
  900TIP3    H1 2706   2.772   4.835   0.587
  900TIP3    H2 2707   2.747   4.910   0.458
  901TIP3   OH2 2708   2.915   0.369   4.591
  901TIP3    H1 2709   2.908   0.293   4.533
  901TIP3    H2 2710   2.900   0.333   4.678
  902TIP3   OH2 2711   1.421   5.657   2.678
  902TIP3    H1 2712   1.357   5.700   2.621
  902TIP3    H2 2713   1.474   5.729   2.712
  903TIP3   OH2 2714   2.334   4.601   4.470
  903TIP3    H1 2715   2.309   4.512   4.494
  903TIP3    H2 2716   2.395   4.628   4.539
  904TIP3   OH2 2717   5.348   1.075   4.519
  904TIP3    H1 2718   5.324   1.151   4.465
  904TIP3    H2 2719   5.419   1.033   4.470
  905TIP3   OH2 2720   4.261   3.517   5.130
  905TIP3    H1 2721   4.181   3.466   5.117
  905TIP3    H2 2722   4.329   3.452   5.148
  906TIP3   OH2 2723   1.595   0.940   3.153
  906TIP3    H1 2724   1.628   0.954   3.064
  906TIP3    H2 2725   1.618   1.021   3.199
  907TIP3   OH2 2726   2.433   5.875   4.535
  907TIP3    H1 2727   2.366   5.901   4.471
  907TIP3    H2 2728   2.385   5.858   4.615
  908TIP3   OH2 2729   6.290   0.060   4.237
  908TIP3    H1 2730   6.235  -0.016   4.256
  908TIP3    H2 2731   6.238   0.113   4.177
  909TIP3   OH2 2732   0.314   3.771   2.958
  909TIP3    H1 2733   0.400   3.791   2.921
  909TIP3    H2 2734   0.274   3.856   2.974
  910TIP3   OH2 2735   2.650   2.457   1.936
  910TIP3    H1 2736   2.649   2.523   1.867
  910TIP3    H2 2737   2.559   2.428   1.943
  911TIP3   OH2 2738   4.332   5.758   4.314
  911TIP3    H1 2739   4.414   5.741   4.360
  911TIP3    H2 2740   4.288   5.825   4.366
  912TIP3   OH2 2741   6.334   4.654   0.607
  912TIP3    H1 2742   6.283   4.618   0.679
  912TIP3    H2 2743   6.321   4.592   0.535
  913TIP3   OH2 2744   6.360   2.487   2.469
  913TIP3    H1 2745   6.340   2.446   2.385
  913TIP3    H2 2746   6.298   2.559   2.477
  914TIP3   OH2 2747   3.695   4.517   0.794
  914TIP3    H1 2748   3.625   4.577   0.770
  914TIP3    H2 2749   3.674   4.490   0.883
  915TIP3   OH2 2750   3.776   0.299   1.013
  915TIP3    H1 2751   3.869   0.284   0.997
  915TIP3    H2 2752   3.747   0.222   1.062
  916TIP3   OH2 2753   2.379   4.273   2.376
  916TIP3    H1 2754   2.402   4.365   2.369
  916TIP3    H2 2755   2.449   4.226   2.331
  917TIP3   OH2 2756   4.424   2.477   1.641
  917TIP3    H1 2757   4.389   2.436   1.562
  917TIP3    H2 2758   4.355   2.538   1.669
  918TIP3   OH2 2759   3.894   3.531   0.793
  918TIP3    H1 2760   3.850   3.601   0.746
  918TIP3    H2 2761   3.843   3.453   0.772
  919TIP3   OH2 2762   5.314   0.530   3.355
  919TIP3    H1 2763   5.297   0.572   3.439
  919TIP3    H2 2764   5.320   0.602   3.292
  920TIP3   OH2 2765   2.215   4.079   0.514
  920TIP3    H1 2766   2.132   4.048   0.549
  920TIP3    H2 2767   2.190   4.143   0.447
  921TIP3   OH2 2768   1.917   5.119   2.261
  921TIP3    H1 2769   1.925   5.210   2.287
  921TIP3    H2 2770   1.979   5.073   2.317
  922TIP3   OH2 2771   2.528   5.809   4.961
  922TIP3    H1 2772   2.503   5.761   5.039
  922TIP3    H2 2773   2.445   5.843   4.926
  923TIP3   OH2 2774   5.065   2.507   1.949
  923TIP3    H1 2775   5.147   2.521   1.901
  923TIP3    H2 2776   5.002   2.564   1.905
  924TIP3   OH2 2777   2.541   3.877   4.381
  924TIP3    H1 2778   2.563   3.869   4.474
  924TIP3    H2 2779   2.478   3.806   4.365
  925TIP3   OH2 2780   2.467   4.398   0.551
  925TIP3    H1 2781   2.544   4.357   0.512
  925TIP3    H2 2782   2.447   4.344   0.628
  926TIP3   OH2 2783   1.341   3.206   1.432
  926TIP3    H1 2784   1.419   3.260   1.445
  926TIP3    H2 2785   1.328   3.162   1.516
  927TIP3   OH2 2786   3.496   0.098   4.187
  927TIP3    H1 2787   3.573   0.044   4.203
  927TIP3    H2 2788   3.529   0.187   4.180
  928TIP3   OH2 2789   0.685   3.268   3.953
  928TIP3    H1 2790   0.668   3.181   3.918
  928TIP3    H2 2791   0.775   3.263   3.987
  929TIP3   OH2 2792   5.551   5.954   0.586
  929TIP3    H1 2793   5.507   6.015   0.645
  929TIP3    H2 2794   5.587   5.887   0.644
  930TIP3   OH2 2795   1.152   2.679   4.068
  930TIP3    H1 2796   1.163   2.771   4.047
  930TIP3    H2 2797   1.099   2.644   3.996
  931TIP3   OH2 2798   1.491   5.032   1.990
  931TIP3    H1 2799   1.579   5.011   2.021
  931TIP3    H2 2800   1.456   5.094   2.054
  932TIP3   OH2 2801   3.065   3.877   5.122
  932TIP3    H1 2802   3.142   3.856   5.069
  932TIP3    H2 2803   3.017   3.794   5.128
  933TIP3   OH2 2804   2.451   1.919   5.148
  933TIP3    H1 2805   2.493   1.999   5.117
  933TIP3    H2 2806   2.376   1.950   5.199
  934TIP3   OH2 2807   6.269   3.380   3.367
  934TIP3    H1 2808   6.203   3.365   3.299
  934TIP3    H2 2809   6.240   3.328   3.441
  935TIP3   OH2 2810   4.061   0.509   3.673
  935TIP3    H1 2811   3.979   0.528   3.627
  935TIP3    H2 2812   4.125   0.497   3.602
  936TIP3   OH2 2813   0.363   0.757   4.900
  936TIP3    H1 2814   0.441   0.758   4.955
  936TIP3    H2 2815   0.358   0.667   4.868
  937TIP3   OH2 2816   1.814   1.578   2.414
  937TIP3    H1 2817   1.888   1.585   2.475
  937TIP3    H2 2818   1.822   1.655   2.358
  938TIP3   OH2 2819   5.191   5.302   0.286
  938TIP3    H1 2820   5.116   5.261   0.243
  938TIP3    H2 2821   5.218   5.372   0.226
  939TIP3   OH2 2822   6.003   5.214   2.165
  939TIP3    H1 2823   6.073   5.195   2.228
  939TIP3    H2 2824   5.971   5.301   2.190
  940TIP3   OH2 2825   0.805   1.916   3.196
  940TIP3    H1 2826   0.856   1.991   3.229
  940TIP3    H2 2827   0.729   1.956   3.153
  941TIP3   OH2 2828   4.226   3.312   0.502
  941TIP3    H1 2829   4.204   3.242   0.564
  941TIP3    H2 2830   4.317   3.293   0.476
  942TIP3   OH2 2831   6.302   3.222   0.512
  942TIP3    H1 2832   6.348   3.171   0.578
  942TIP3    H2 2833   6.259   3.293   0.560
  943TIP3   OH2 2834   4.146   2.279   2.216
  943TIP3    H1 2835   4.128   2.275   2.122
  943TIP3    H2 2836   4.060   2.291   2.257
  944TIP3   OH2 2837   0.371   2.203   0.674
  944TIP3    H1 2838   0.396   2.163   0.758
  944TIP3    H2 2839   0.452   2.203   0.623
  945TIP3   OH2 2840   4.131   1.653   0.515
  945TIP3    H1 2841   4.168   1.668   0.428
  945TIP3    H2 2842   4.207   1.649   0.573
  946TIP3   OH2 2843   0.259   3.477   4.684
  946TIP3    H1 2844   0.235   3.469   4.776
  946TIP3    H2 2845   0.176   3.498   4.640
  947TIP3   OH2 2846   3.229   3.152   3.591
  947TIP3    H1 2847   3.234   3.070   3.542
  947TIP3    H2 2848   3.137   3.159   3.618
  948TIP3   OH2 2849   5.526   2.732   3.104
  948TIP3    H1 2850   5.573   2.683   3.171
  948TIP3    H2 2851   5.577   2.812   3.092
  949TIP3   OH2 2852   0.452   3.932   1.750
  949TIP3    H1 2853   0.517   3.869   1.781
  949TIP3    H2 2854   0.418   3.894   1.670
  950TIP3   OH2 2855   4.704   1.561   4.381
  950TIP3    H1 2856   4.616   1.537   4.412
  950TIP3    H2 2857   4.715   1.509   4.301
  951TIP3   OH2 2858   2.675   5.409   1.609
  951TIP3    H1 2859   2.586   5.390   1.579
  951TIP3    H2 2860   2.730   5.389   1.533
  952TIP3   OH2 2861   2.282   5.154   0.066
  952TIP3    H1 2862   2.258   5.105  -0.013
  952TIP3    H2 2863   2.293   5.244   0.036
  953TIP3   OH2 2864   5.711   3.642   1.172
  953TIP3    H1 2865   5.654   3.716   1.152
  953TIP3    H2 2866   5.767   3.674   1.243
  954TIP3   OH2 2867   1.441   5.354   1.610
  954TIP3    H1 2868   1.510   5.302   1.568
  954TIP3    H2 2869   1.403   5.295   1.676
  955TIP3   OH2 2870   5.506   0.134   4.335
  955TIP3    H1 2871   5.530   0.225   4.353
  955TIP3    H2 2872   5.411   0.135   4.328
  956TIP3   OH2 2873   3.038   5.636   3.422
  956TIP3    H1 2874   3.040   5.542   3.403
  956TIP3    H2 2875   3.026   5.677   3.336
  957TIP3   OH2 2876   5.434   4.438   2.807
  957TIP3    H1 2877   5.436   4.364   2.746
  957TIP3    H2 2878   5.369   4.414   2.872
  958TIP3   OH2 2879   0.607   1.114   0.134
  958TIP3    H1 2880   0.702   1.107   0.125
  958TIP3    H2 2881   0.589   1.208   0.124
  959TIP3   OH2 2882   2.067   2.421   3.160
  959TIP3    H1 2883   2.007   2.469   3.217
  959TIP3    H2 2884   2.148   2.415   3.212
  960TIP3   OH2 2885   0.788   1.665   3.298
  960TIP3    H1 2886   0.808   1.755   3.271
  960TIP3    H2 2887   0.850   1.611   3.249
  961TIP3   OH2 2888   1.731   5.581   5.185
  961TIP3    H1 2889   1.680   5.660   5.205
  961TIP3    H2 2890   1.674   5.529   5.128
  962TIP3   OH2 2891   5.316   2.729   4.422
  962TIP3    H1 2892   5.375   2.654   4.424
  962TIP3    H2 2893   5.230   2.693   4.446
  963TIP3   OH2 2894   0.103   5.966   4.548
  963TIP3    H1 2895   0.105   5.871   4.561
  963TIP3    H2 2896   0.087   6.002   4.636
  964TIP3   OH2 2897   1.806   0.324   2.864
  964TIP3    H1 2898   1.815   0.230   2.855
  964TIP3    H2 2899   1.722   0.336   2.908
  965TIP3   OH2 2900   2.817   1.516   2.483
  965TIP3    H1 2901   2.847   1.427   2.505
  965TIP3    H2 2902   2.802   1.557   2.568
  966TIP3   OH2 2903   3.858   2.188   4.662
  966TIP3    H1 2904   3.765   2.168   4.665
  966TIP3    H2 2905   3.893   2.155   4.745
  967TIP3   OH2 2906   4.518   1.859   1.295
  967TIP3    H1 2907   4.587   1.920   1.323
  967TIP3    H2 2908   4.566   1.783   1.261
  968TIP3   OH2 2909   3.839   0.893   3.412
  968TIP3    H1 2910   3.931   0.894   3.386
  968TIP3    H2 2911   3.791   0.901   3.330
  969TIP3   OH2 2912   6.142   4.563   0.792
  969TIP3    H1 2913   6.117   4.478   0.756
  969TIP3    H2 2914   6.068   4.620   0.772
  970TIP3   OH2 2915   1.068   3.702   3.633
  970TIP3    H1 2916   1.098   3.787   3.599
  970TIP3    H2 2917   0.991   3.722   3.685
  971TIP3   OH2 2918   4.430   4.981   2.666
  971TIP3    H1 2919   4.347   4.970   2.712
  971TIP3    H2 2920   4.412   4.952   2.577
  972TIP3   OH2 2921   2.836   5.542   1.079
  972TIP3    H1 2922   2.840   5.636   1.067
  972TIP3    H2 2923   2.766   5.512   1.021
  973TIP3   OH2 2924   0.287   3.841   4.073
  973TIP3    H1 2925   0.208   3.800   4.109
  973TIP3    H2 2926   0.257   3.883   3.992
  974TIP3   OH2 2927   0.448   5.700   5.222
  974TIP3    H1 2928   0.381   5.654   5.173
  974TIP3    H2 2929   0.518   5.714   5.159
  975TIP3   OH2 2930   4.789   4.180   0.700
  975TIP3    H1 2931   4.876   4.149   0.676
  975TIP3    H2 2932   4.733   4.155   0.626
  976TIP3   OH2 2933   3.550   1.569   4.124
  976TIP3    H1 2934   3.628   1.623   4.109
  976TIP3    H2 2935   3.583   1.490   4.167
  977TIP3   OH2 2936   2.261   0.281   3.740
  977TIP3    H1 2937   2.269   0.363   3.692
  977TIP3    H2 2938   2.247   0.215   3.672
  978TIP3   OH2 2939   0.946   4.345   3.385
  978TIP3    H1 2940   0.936   4.439   3.368
  978TIP3    H2 2941   0.865   4.306   3.353
  979TIP3   OH2 2942   2.069   1.826   4.943
  979TIP3    H1 2943   2.073   1.868   5.028
  979TIP3    H2 2944   2.102   1.891   4.881
  980TIP3   OH2 2945   2.659   2.485   2.266
  980TIP3    H1 2946   2.641   2.462   2.174
  980TIP3    H2 2947   2.580   2.457   2.313
  981TIP3   OH2 2948   0.386   3.299   2.295
  981TIP3    H1 2949   0.423   3.371   2.244
  981TIP3    H2 2950   0.299   3.329   2.320
  982TIP3   OH2 2951   5.244   2.430   4.898
  982TIP3    H1 2952   5.216   2.418   4.807
  982TIP3    H2 2953   5.325   2.379   4.905
  983TIP3   OH2 2954   0.801   0.129   3.190
  983TIP3    H1 2955   0.720   0.162   3.151
  983TIP3    H2 2956   0.843   0.206   3.227
  984TIP3   OH2 2957   5.766   3.329   0.050
  984TIP3    H1 2958   5.767   3.248  -0.002
  984TIP3    H2 2959   5.850   3.329   0.096
  985TIP3   OH2 2960   2.908   5.938   2.222
  985TIP3    H1 2961   2.943   6.025   2.202
  985TIP3    H2 2962   2.816   5.942   2.197
  986TIP3   OH2 2963   0.408   4.104   3.277
  986TIP3    H1 2964   0.355   4.082   3.354
  986TIP3    H2 2965   0.423   4.019   3.235
  987TIP3   OH2 2966   4.028   1.461   1.399
  987TIP3    H1 2967   3.966   1.491   1.466
  987TIP3    H2 2968   3.987   1.484   1.316
  988TIP3   OH2 2969   4.252   4.582   1.559
  988TIP3    H1 2970   4.167   4.543   1.537
  988TIP3    H2 2971   4.298   4.589   1.476
  989TIP3   OH2 2972   4.191   4.368   4.995
  989TIP3    H1 2973   4.192   4.418   5.077
  989TIP3    H2 2974   4.181   4.277   5.023
  990TIP3   OH2 2975   4.577   2.341   2.856
  990TIP3    H1 2976   4.509   2.287   2.816
  990TIP3    H2 2977   4.547   2.355   2.946
  991TIP3   OH2 2978   2.650   3.627   1.663
  991TIP3    H1 2979   2.703   3.596   1.737
  991TIP3    H2 2980   2.638   3.721   1.681
  992TIP3   OH2 2981   0.554   5.692   2.806
  992TIP3    H1 2982   0.622   5.742   2.852
  992TIP3    H2 2983   0.573   5.705   2.713
  993TIP3   OH2 2984   4.531   4.810   0.803
  993TIP3    H1 2985   4.560   4.888   0.756
  993TIP3    H2 2986   4.541   4.832   0.895
  994TIP3   OH2 2987   6.220   1.241   4.787
  994TIP3    H1 2988   6.138   1.203   4.754
  994TIP3    H2 2989   6.276   1.248   4.709
  995TIP3   OH2 2990   2.370   0.849   2.325
  995TIP3    H1 2991   2.319   0.798   2.387
  995TIP3    H2 2992   2.309   0.916   2.294
  996TIP3   OH2 2993   5.003   2.460   3.250
  996TIP3    H1 2994   4.961   2.402   3.187
  996TIP3    H2 2995   5.028   2.537   3.199
  997TIP3   OH2 2996   3.981   2.786   1.886
  997TIP3    H1 2997   3.913   2.756   1.946
  997TIP3    H2 2998   3.949   2.760   1.800
  998TIP3   OH2 2999   1.938   3.051   4.991
  998TIP3    H1 3000   1.916   2.966   5.029
  998TIP3    H2 3001   1.965   3.031   4.901
  999TIP3   OH2 3002   0.657   4.144   2.879
  999TIP3    H1 3003   0.614   4.058   2.879
  999TIP3    H2 3004   0.586   4.206   2.867
 1000TIP3   OH2 3005   6.353   3.423   4.577
 1000TIP3    H1 3006   6.348   3.433   4.482
 1000TIP3    H2 3007   6.286   3.483   4.611
 1001TIP3   OH2 3008   1.890   3.820   4.288
 1001TIP3    H1 3009   1.815   3.848   4.340
 1001TIP3    H2 3010   1.905   3.891   4.227
 1002TIP3   OH2 3011   5.195   5.262   5.163
 1002TIP3    H1 3012   5.196   5.168   5.144
 1002TIP3    H2 3013   5.122   5.296   5.111
 1003TIP3   OH2 3014   0.136   3.087   2.625
 1003TIP3    H1 3015   0.220   3.061   2.586
 1003TIP3    H2 3016   0.151   3.176   2.657
 1004TIP3   OH2 3017   4.168   5.459   1.503
 1004TIP3    H1 3018   4.256   5.472   1.467
 1004TIP3    H2 3019   4.167   5.367   1.529
 1005TIP3   OH2 3020   1.185   3.540   2.431
 1005TIP3    H1 3021   1.232   3.503   2.506
 1005TIP3    H2 3022   1.197   3.476   2.361
 1006TIP3   OH2 3023   4.777   5.674   3.263
 1006TIP3    H1 3024   4.706   5.718   3.309
 1006TIP3    H2 3025   4.764   5.581   3.282
 1007TIP3   OH2 3026   4.135   1.982   2.290
 1007TIP3    H1 3027   4.209   1.926   2.313
 1007TIP3    H2 3028   4.169   2.071   2.300
 1008TIP3   OH2 3029   2.314   4.360   1.502
 1008TIP3    H1 3030   2.234   4.400   1.534
 1008TIP3    H2 3031   2.284   4.295   1.438
 1009TIP3   OH2 3032   3.816   0.519   1.503
 1009TIP3    H1 3033   3.839   0.548   1.414
 1009TIP3    H2 3034   3.804   0.424   1.494
 1010TIP3   OH2 3035   3.363   2.557   1.946
 1010TIP3    H1 3036   3.290   2.503   1.916
 1010TIP3    H2 3037   3.440   2.521   1.901
 1011TIP3   OH2 3038   5.622   1.850   3.052
 1011TIP3    H1 3039   5.612   1.924   2.991
 1011TIP3    H2 3040   5.652   1.890   3.133
 1012TIP3   OH2 3041   5.550   5.024   3.041
 1012TIP3    H1 3042   5.517   5.018   2.952
 1012TIP3    H2 3043   5.632   4.974   3.039
 1013TIP3   OH2 3044   1.962   1.129   3.359
 1013TIP3    H1 3045   1.954   1.036   3.378
 1013TIP3    H2 3046   1.894   1.146   3.293
 1014TIP3   OH2 3047   4.870   1.727   3.638
 1014TIP3    H1 3048   4.958   1.718   3.601
 1014TIP3    H2 3049   4.870   1.814   3.678
 1015TIP3   OH2 3050   5.308   0.983   3.348
 1015TIP3    H1 3051   5.246   0.939   3.289
 1015TIP3    H2 3052   5.353   1.047   3.293
 1016TIP3   OH2 3053   1.774   3.087   1.487
 1016TIP3    H1 3054   1.744   3.166   1.442
 1016TIP3    H2 3055   1.740   3.096   1.576
 1017TIP3   OH2 3056   4.268   0.820   4.870
 1017TIP3    H1 3057   4.323   0.744   4.852
 1017TIP3    H2 3058   4.199   0.816   4.804
 1018TIP3   OH2 3059   5.291   5.656   4.483
 1018TIP3    H1 3060   5.303   5.607   4.402
 1018TIP3    H2 3061   5.270   5.745   4.454
 1019TIP3   OH2 3062   1.160   2.836   3.829
 1019TIP3    H1 3063   1.246   2.856   3.866
 1019TIP3    H2 3064   1.106   2.912   3.852
 1020TIP3   OH2 3065   1.514   3.152   3.346
 1020TIP3    H1 3066   1.423   3.178   3.359
 1020TIP3    H2 3067   1.543   3.122   3.432
 1021TIP3   OH2 3068   4.957   1.796   1.456
 1021TIP3    H1 3069   5.028   1.825   1.398
 1021TIP3    H2 3070   4.934   1.874   1.507
 1022TIP3   OH2 3071   4.505   3.888   4.872
 1022TIP3    H1 3072   4.478   3.845   4.953
 1022TIP3    H2 3073   4.535   3.975   4.899
 1023TIP3   OH2 3074   1.814   1.168   3.756
 1023TIP3    H1 3075   1.901   1.203   3.736
 1023TIP3    H2 3076   1.754   1.241   3.736
 1024TIP3   OH2 3077   2.044   0.058   0.051
 1024TIP3    H1 3078   2.064   0.033  -0.040
 1024TIP3    H2 3079   1.949   0.057   0.055
 1025TIP3   OH2 3080   5.581   4.449   3.930
 1025TIP3    H1 3081   5.515   4.383   3.911
 1025TIP3    H2 3082   5.599   4.490   3.846
 1026TIP3   OH2 3083   2.488   0.404   1.678
 1026TIP3    H1 3084   2.458   0.382   1.766
 1026TIP3    H2 3085   2.554   0.338   1.657
 1027TIP3   OH2 3086   4.522   2.393   4.136
 1027TIP3    H1 3087   4.543   2.303   4.110
 1027TIP3    H2 3088   4.559   2.447   4.066
 1028TIP3   OH2 3089   2.058   2.044   3.383
 1028TIP3    H1 3090   2.135   2.012   3.335
 1028TIP3    H2 3091   2.005   2.087   3.317
 1029TIP3   OH2 3092   5.265   4.949   0.499
 1029TIP3    H1 3093   5.268   4.956   0.595
 1029TIP3    H2 3094   5.280   5.039   0.469
 1030TIP3   OH2 3095   3.945   1.795   5.126
 1030TIP3    H1 3096   4.025   1.762   5.084
 1030TIP3    H2 3097   3.972   1.878   5.165
 1031TIP3   OH2 3098   1.607   4.336   4.689
 1031TIP3    H1 3099   1.515   4.325   4.667
 1031TIP3    H2 3100   1.609   4.336   4.785
 1032TIP3   OH2 3101   5.549   1.377   0.520
 1032TIP3    H1 3102   5.607   1.436   0.472
 1032TIP3    H2 3103   5.606   1.333   0.583
 1033TIP3   OH2 3104   1.603   2.351   3.678
 1033TIP3    H1 3105   1.516   2.364   3.639
 1033TIP3    H2 3106   1.589   2.287   3.747
 1034TIP3   OH2 3107   3.309   3.809   0.489
 1034TIP3    H1 3108   3.343   3.767   0.410
 1034TIP3    H2 3109   3.377   3.795   0.555
 1035TIP3   OH2 3110   2.873   0.662   0.766
 1035TIP3    H1 3111   2.814   0.664   0.690
 1035TIP3    H2 3112   2.961   0.672   0.728
 1036TIP3   OH2 3113   2.290   0.112   3.535
 1036TIP3    H1 3114   2.259   0.025   3.510
 1036TIP3    H2 3115   2.297   0.160   3.452
 1037TIP3   OH2 3116   2.534   6.005   3.304
 1037TIP3    H1 3117   2.505   5.920   3.337
 1037TIP3    H2 3118   2.593   5.985   3.232
 1038TIP3   OH2 3119   4.154   1.065   0.443
 1038TIP3    H1 3120   4.203   1.145   0.460
 1038TIP3    H2 3121   4.214   1.010   0.394
 1039TIP3   OH2 3122   2.777   1.385   3.696
 1039TIP3    H1 3123   2.740   1.338   3.771
 1039TIP3    H2 3124   2.834   1.451   3.735
 1040TIP3   OH2 3125   5.758   5.881   1.084
 1040TIP3    H1 3126   5.780   5.974   1.089
 1040TIP3    H2 3127   5.842   5.837   1.076
 1041TIP3   OH2 3128   6.107   1.377   2.517
 1041TIP3    H1 3129   6.046   1.393   2.590
 1041TIP3    H2 3130   6.188   1.351   2.560
 1042TIP3   OH2 3131   5.732   1.904   3.312
 1042TIP3    H1 3132   5.804   1.896   3.375
 1042TIP3    H2 3133   5.653   1.902   3.366
 1043TIP3   OH2 3134   1.316   5.828   1.973
 1043TIP3    H1 3135   1.280   5.864   1.891
 1043TIP3    H2 3136   1.388   5.772   1.944
 1044TIP3   OH2 3137   4.980   5.511   3.175
 1044TIP3    H1 3138   4.947   5.591   3.214
 1044TIP3    H2 3139   5.066   5.498   3.215
 1045TIP3   OH2 3140   3.562   2.153   0.312
 1045TIP3    H1 3141   3.515   2.133   0.393
 1045TIP3    H2 3142   3.516   2.228   0.275
 1046TIP3   OH2 3143   1.063   2.108   4.251
 1046TIP3    H1 3144   1.158   2.125   4.250
 1046TIP3    H2 3145   1.038   2.117   4.342
 1047TIP3   OH2 3146   2.974   5.158   3.575
 1047TIP3    H1 3147   2.997   5.155   3.668
 1047TIP3    H2 3148   2.883   5.187   3.574
 1048TIP3   OH2 3149   0.770   0.326   4.715
 1048TIP3    H1 3150   0.705   0.260   4.688
 1048TIP3    H2 3151   0.729   0.410   4.695
 1049TIP3   OH2 3152   4.852   3.991   4.531
 1049TIP3    H1 3153   4.786   4.004   4.462
 1049TIP3    H2 3154   4.933   4.024   4.492
 1050TIP3   OH2 3155   2.137   5.329   2.936
 1050TIP3    H1 3156   2.160   5.283   2.855
 1050TIP3    H2 3157   2.063   5.279   2.971
 1051TIP3   OH2 3158   4.857   2.361   2.986
 1051TIP3    H1 3159   4.944   2.336   2.954
 1051TIP3    H2 3160   4.805   2.372   2.906
 1052TIP3   OH2 3161   4.989   3.481   3.415
 1052TIP3    H1 3162   4.990   3.574   3.388
 1052TIP3    H2 3163   4.898   3.464   3.437
 1053TIP3   OH2 3164   3.055   4.563   1.764
 1053TIP3    H1 3165   3.075   4.486   1.711
 1053TIP3    H2 3166   3.130   4.621   1.751
 1054TIP3   OH2 3167   0.757   0.862   4.630
 1054TIP3    H1 3168   0.688   0.835   4.690
 1054TIP3    H2 3169   0.810   0.923   4.682
 1055TIP3   OH2 3170   1.078   4.191   4.297
 1055TIP3    H1 3171   1.041   4.222   4.214
 1055TIP3    H2 3172   1.013   4.214   4.363
 1056TIP3   OH2 3173   4.365   3.269   4.184
 1056TIP3    H1 3174   4.271   3.285   4.187
 1056TIP3    H2 3175   4.398   3.302   4.267
 1057TIP3   OH2 3176   4.653   5.088   3.707
 1057TIP3    H1 3177   4.571   5.051   3.741
 1057TIP3    H2 3178   4.636   5.103   3.615
 1058TIP3   OH2 3179   1.442   5.056   1.243
 1058TIP3    H1 3180   1.357   5.025   1.210
 1058TIP3    H2 3181   1.445   5.148   1.217
 1059TIP3   OH2 3182   3.295   0.856   0.388
 1059TIP3    H1 3183   3.284   0.947   0.415
 1059TIP3    H2 3184   3.376   0.829   0.429
 1060TIP3   OH2 3185   6.206   0.673   0.779
 1060TIP3    H1 3186   6.164   0.611   0.839
 1060TIP3    H2 3187   6.134   0.711   0.730
 1061TIP3   OH2 3188   3.236   1.977   1.639
 1061TIP3    H1 3189   3.325   1.944   1.644
 1061TIP3    H2 3190   3.210   1.965   1.548
 1062TIP3   OH2 3191   0.999   3.921   3.111
 1062TIP3    H1 3192   0.947   3.867   3.171
 1062TIP3    H2 3193   1.055   3.973   3.168
 1063TIP3   OH2 3194   1.437   3.700   2.547
 1063TIP3    H1 3195   1.434   3.732   2.457
 1063TIP3    H2 3196   1.387   3.765   2.597
 1064TIP3   OH2 3197   4.569   5.670   2.308
 1064TIP3    H1 3198   4.563   5.654   2.402
 1064TIP3    H2 3199   4.615   5.753   2.301
 1065TIP3   OH2 3200   1.404   2.951   1.247
 1065TIP3    H1 3201   1.473   2.988   1.193
 1065TIP3    H2 3202   1.350   3.026   1.273
 1066TIP3   OH2 3203   5.353   4.474   2.127
 1066TIP3    H1 3204   5.290   4.414   2.167
 1066TIP3    H2 3205   5.364   4.544   2.191
 1067TIP3   OH2 3206   5.304   1.453   1.829
 1067TIP3    H1 3207   5.314   1.382   1.766
 1067TIP3    H2 3208   5.210   1.468   1.834
 1068TIP3   OH2 3209   1.065   0.971   0.818
 1068TIP3    H1 3210   1.024   0.913   0.883
 1068TIP3    H2 3211   1.157   0.974   0.844
 1069TIP3   OH2 3212   3.011   5.630   2.791
 1069TIP3    H1 3213   2.959   5.699   2.749
 1069TIP3    H2 3214   3.008   5.556   2.730
 1070TIP3   OH2 3215   3.798   0.777   3.971
 1070TIP3    H1 3216   3.774   0.750   4.060
 1070TIP3    H2 3217   3.716   0.806   3.932
 1071TIP3   OH2 3218   3.652   4.705   2.449
 1071TIP3    H1 3219   3.637   4.737   2.360
 1071TIP3    H2 3220   3.716   4.634   2.438
 1072TIP3   OH2 3221   1.782   5.795   4.281
 1072TIP3    H1 3222   1.867   5.837   4.265
 1072TIP3    H2 3223   1.778   5.723   4.218
 1073TIP3   OH2 3224   5.523   3.901   4.216
 1073TIP3    H1 3225   5.611   3.928   4.242
 1073TIP3    H2 3226   5.518   3.809   4.240
 1074TIP3   OH2 3227   2.505   4.571   1.597
 1074TIP3    H1 3228   2.469   4.607   1.679
 1074TIP3    H2 3229   2.472   4.482   1.593
 1075TIP3   OH2 3230   4.333   4.610   4.140
 1075TIP3    H1 3231   4.323   4.581   4.050
 1075TIP3    H2 3232   4.389   4.544   4.181
 1076TIP3   OH2 3233   0.526   1.789   4.021
 1076TIP3    H1 3234   0.469   1.807   3.947
 1076TIP3    H2 3235   0.607   1.758   3.982
 1077TIP3   OH2 3236   2.129   0.302   2.922
 1077TIP3    H1 3237   2.219   0.273   2.938
 1077TIP3    H2 3238   2.109   0.269   2.834
 1078TIP3   OH2 3239   5.707   5.720   4.166
 1078TIP3    H1 3240   5.662   5.662   4.105
 1078TIP3    H2 3241   5.771   5.664   4.210
 1079TIP3   OH2 3242   4.681   2.954   0.166
 1079TIP3    H1 3243   4.639   2.884   0.117
 1079TIP3    H2 3244   4.628   2.962   0.246
 1080TIP3   OH2 3245   4.487   2.105   2.717
 1080TIP3    H1 3246   4.500   2.019   2.678
 1080TIP3    H2 3247   4.478   2.088   2.811
 1081TIP3   OH2 3248   0.608   2.413   2.254
 1081TIP3    H1 3249   0.680   2.458   2.210
 1081TIP3    H2 3250   0.607   2.325   2.216
 1082TIP3   OH2 3251   0.916   5.240   4.831
 1082TIP3    H1 3252   0.979   5.215   4.898
 1082TIP3    H2 3253   0.879   5.322   4.862
 1083TIP3   OH2 3254   0.040   5.813   3.485
 1083TIP3    H1 3255   0.133   5.817   3.463
 1083TIP3    H2 3256   0.000   5.767   3.411
 1084TIP3   OH2 3257   5.609   2.280   3.752
 1084TIP3    H1 3258   5.685   2.307   3.802
 1084TIP3    H2 3259   5.546   2.251   3.818
 1085TIP3   OH2 3260   2.714   5.019   3.737
 1085TIP3    H1 3261   2.649   4.950   3.752
 1085TIP3    H2 3262   2.780   4.978   3.682
 1086TIP3   OH2 3263   3.842   2.324   4.350
 1086TIP3    H1 3264   3.900   2.400   4.339
 1086TIP3    H2 3265   3.754   2.361   4.353
 1087TIP3   OH2 3266   2.659   0.739   5.057
 1087TIP3    H1 3267   2.727   0.771   4.997
 1087TIP3    H2 3268   2.703   0.670   5.107
 1088TIP3   OH2 3269   0.913   0.550   0.090
 1088TIP3    H1 3270   0.919   0.478   0.027
 1088TIP3    H2 3271   0.989   0.604   0.073
 1089TIP3   OH2 3272   2.341   5.569   2.641
 1089TIP3    H1 3273   2.345   5.598   2.732
 1089TIP3    H2 3274   2.310   5.479   2.646
 1090TIP3   OH2 3275   1.490   4.319   3.891
 1090TIP3    H1 3276   1.570   4.364   3.864
 1090TIP3    H2 3277   1.501   4.229   3.860
 1091TIP3   OH2 3278   1.987   4.204   4.773
 1091TIP3    H1 3279   2.035   4.285   4.757
 1091TIP3    H2 3280   1.950   4.180   4.688
 1092TIP3   OH2 3281   5.719   1.813   3.834
 1092TIP3    H1 3282   5.639   1.820   3.885
 1092TIP3    H2 3283   5.732   1.719   3.823
 1093TIP3   OH2 3284   4.408   1.367   2.216
 1093TIP3    H1 3285   4.502   1.364   2.232
 1093TIP3    H2 3286   4.373   1.295   2.268
 1094TIP3   OH2 3287   3.028   1.413   3.023
 1094TIP3    H1 3288   3.107   1.463   3.042
 1094TIP3    H2 3289   3.043   1.328   3.062
 1095TIP3   OH2 3290   0.813   4.324   2.133
 1095TIP3    H1 3291   0.836   4.259   2.200
 1095TIP3    H2 3292   0.788   4.272   2.057
 1096TIP3   OH2 3293   4.262   1.788   4.675
 1096TIP3    H1 3294   4.207   1.711   4.690
 1096TIP3    H2 3295   4.202   1.854   4.642
 1097TIP3   OH2 3296   2.502   4.525   2.096
 1097TIP3    H1 3297   2.476   4.597   2.038
 1097TIP3    H2 3298   2.425   4.511   2.151
 1098TIP3   OH2 3299   2.690   0.167   4.634
 1098TIP3    H1 3300   2.630   0.129   4.698
 1098TIP3    H2 3301   2.691   0.103   4.562
 1099TIP3   OH2 3302   3.450   4.218   0.473
 1099TIP3    H1 3303   3.507   4.197   0.398
 1099TIP3    H2 3304   3.465   4.310   0.490
 1100TIP3   OH2 3305   4.391   1.938   4.874
 1100TIP3    H1 3306   4.351   1.877   4.812
 1100TIP3    H2 3307   4.401   1.887   4.954
 1101TIP3   OH2 3308   2.837   4.821   0.990
 1101TIP3    H1 3309   2.827   4.759   1.062
 1101TIP3    H2 3310   2.805   4.904   1.025
 1102TIP3   OH2 3311   3.145   0.724   0.597
 1102TIP3    H1 3312   3.117   0.815   0.591
 1102TIP3    H2 3313   3.216   0.716   0.533
 1103TIP3   OH2 3314   1.950   3.442   0.607
 1103TIP3    H1 3315   1.856   3.458   0.611
 1103TIP3    H2 3316   1.989   3.520   0.647
 1104TIP3   OH2 3317   5.784   0.690   4.272
 1104TIP3    H1 3318   5.736   0.623   4.223
 1104TIP3    H2 3319   5.809   0.755   4.207
 1105TIP3   OH2 3320   5.115   1.618   4.390
 1105TIP3    H1 3321   5.155   1.554   4.449
 1105TIP3    H2 3322   5.029   1.635   4.429
 1106TIP3   OH2 3323   3.798   3.206   1.027
 1106TIP3    H1 3324   3.865   3.173   1.086
 1106TIP3    H2 3325   3.847   3.248   0.956
 1107TIP3   OH2 3326   6.277   1.247   4.044
 1107TIP3    H1 3327   6.194   1.294   4.045
 1107TIP3    H2 3328   6.334   1.302   3.990
 1108TIP3   OH2 3329   0.119   3.603   3.130
 1108TIP3    H1 3330   0.033   3.559   3.131
 1108TIP3    H2 3331   0.101   3.692   3.159
 1109TIP3   OH2 3332   3.190   1.119   3.024
 1109TIP3    H1 3333   3.205   1.087   3.112
 1109TIP3    H2 3334   3.097   1.105   3.008
 1110TIP3   OH2 3335   2.722   4.070   1.979
 1110TIP3    H1 3336   2.743   4.131   1.909
 1110TIP3    H2 3337   2.671   4.001   1.936
 1111TIP3   OH2 3338   4.728   0.823   4.521
 1111TIP3    H1 3339   4.633   0.823   4.507
 1111TIP3    H2 3340   4.751   0.916   4.530
 1112TIP3   OH2 3341   1.121   2.700   3.044
 1112TIP3    H1 3342   1.108   2.610   3.014
 1112TIP3    H2 3343   1.039   2.744   3.023
 1113TIP3   OH2 3344   5.507   1.594   4.554
 1113TIP3    H1 3345   5.532   1.675   4.510
 1113TIP3    H2 3346   5.570   1.529   4.523
 1114TIP3   OH2 3347   1.421   4.427   4.133
 1114TIP3    H1 3348   1.446   4.519   4.131
 1114TIP3    H2 3349   1.413   4.402   4.041
 1115TIP3   OH2 3350   5.557   5.412   1.703
 1115TIP3    H1 3351   5.481   5.393   1.757
 1115TIP3    H2 3352   5.529   5.484   1.646
 1116TIP3   OH2 3353   4.469   0.545   2.197
 1116TIP3    H1 3354   4.389   0.505   2.161
 1116TIP3    H2 3355   4.442   0.575   2.284
 1117TIP3   OH2 3356   0.225   4.019   2.718
 1117TIP3    H1 3357   0.177   3.962   2.659
 1117TIP3    H2 3358   0.310   4.032   2.675
 1118TIP3   OH2 3359   0.929   3.895   4.298
 1118TIP3    H1 3360   0.915   3.907   4.204
 1118TIP3    H2 3361   1.024   3.896   4.308
 1119TIP3   OH2 3362   1.592   2.954   2.536
 1119TIP3    H1 3363   1.515   2.901   2.556
 1119TIP3    H2 3364   1.577   2.987   2.448
 1120TIP3   OH2 3365   3.454   1.194   0.091
 1120TIP3    H1 3366   3.374   1.144   0.108
 1120TIP3    H2 3367   3.510   1.177   0.167
 1121TIP3   OH2 3368   0.593   1.383   0.043
 1121TIP3    H1 3369   0.502   1.393   0.014
 1121TIP3    H2 3370   0.645   1.414  -0.031
 1122TIP3   OH2 3371   1.526   2.669   3.197
 1122TIP3    H1 3372   1.497   2.614   3.269
 1122TIP3    H2 3373   1.471   2.747   3.202
 1123TIP3   OH2 3374   5.341   3.294   5.075
 1123TIP3    H1 3375   5.342   3.383   5.038
 1123TIP3    H2 3376   5.356   3.307   5.169
 1124TIP3   OH2 3377   0.915   0.689   0.734
 1124TIP3    H1 3378   0.856   0.764   0.736
 1124TIP3    H2 3379   0.959   0.694   0.649
 1125TIP3   OH2 3380   5.060   0.994   3.988
 1125TIP3    H1 3381   4.972   1.000   4.027
 1125TIP3    H2 3382   5.049   1.027   3.899
 1126TIP3   OH2 3383   0.390   2.784   3.291
 1126TIP3    H1 3384   0.422   2.753   3.376
 1126TIP3    H2 3385   0.442   2.863   3.274
 1127TIP3   OH2 3386   4.716   3.375   1.955
 1127TIP3    H1 3387   4.679   3.287   1.942
 1127TIP3    H2 3388   4.640   3.429   1.977
 1128TIP3   OH2 3389   3.169   4.748   4.109
 1128TIP3    H1 3390   3.144   4.682   4.045
 1128TIP3    H2 3391   3.099   4.814   4.104
 1129TIP3   OH2 3392   6.326   3.505   4.309
 1129TIP3    H1 3393   6.248   3.454   4.289
 1129TIP3    H2 3394   6.399   3.451   4.277
 1130TIP3   OH2 3395   1.887   0.469   3.931
 1130TIP3    H1 3396   1.911   0.386   3.973
 1130TIP3    H2 3397   1.957   0.484   3.866
 1131TIP3   OH2 3398   2.619   2.238   0.058
 1131TIP3    H1 3399   2.539   2.289   0.068
 1131TIP3    H2 3400   2.601   2.155   0.102
 1132TIP3   OH2 3401   3.832   0.731   0.998
 1132TIP3    H1 3402   3.783   0.813   1.007
 1132TIP3    H2 3403   3.860   0.728   0.907
 1133TIP3   OH2 3404   0.000   5.665   2.341
 1133TIP3    H1 3405   0.078   5.713   2.369
 1133TIP3    H2 3406  -0.032   5.622   2.421
 1134TIP3   OH2 3407   3.727   1.738   2.403
 1134TIP3    H1 3408   3.644   1.693   2.388
 1134TIP3    H2 3409   3.766   1.746   2.316
 1135TIP3   OH2 3410   2.995   0.773   3.134
 1135TIP3    H1 3411   2.926   0.712   3.161
 1135TIP3    H2 3412   3.009   0.829   3.210
 1136TIP3   OH2 3413   1.872   5.310   1.533
 1136TIP3    H1 3414   1.780   5.288   1.539
 1136TIP3    H2 3415   1.879   5.395   1.576
 1137TIP3   OH2 3416   3.579   2.583   0.074
 1137TIP3    H1 3417   3.614   2.497   0.101
 1137TIP3    H2 3418   3.549   2.623   0.155
 1138TIP3   OH2 3419   1.831   2.812   4.750
 1138TIP3    H1 3420   1.922   2.781   4.748
 1138TIP3    H2 3421   1.801   2.792   4.839
 1139TIP3   OH2 3422   0.489   0.456   1.739
 1139TIP3    H1 3423   0.454   0.367   1.735
 1139TIP3    H2 3424   0.426   0.509   1.691
 1140TIP3   OH2 3425   1.807   1.314   4.876
 1140TIP3    H1 3426   1.772   1.225   4.879
 1140TIP3    H2 3427   1.742   1.366   4.923
 1141TIP3   OH2 3428   0.506   1.033   3.871
 1141TIP3    H1 3429   0.446   0.998   3.805
 1141TIP3    H2 3430   0.452   1.091   3.925
 1142TIP3   OH2 3431   5.619   5.663   2.516
 1142TIP3    H1 3432   5.711   5.636   2.517
 1142TIP3    H2 3433   5.614   5.733   2.580
 1143TIP3   OH2 3434   6.321   4.764   3.019
 1143TIP3    H1 3435   6.317   4.851   2.979
 1143TIP3    H2 3436   6.230   4.732   3.017
 1144TIP3   OH2 3437   4.794   4.771   2.907
 1144TIP3    H1 3438   4.875   4.719   2.897
 1144TIP3    H2 3439   4.758   4.742   2.990
 1145TIP3   OH2 3440   3.229   2.520   4.903
 1145TIP3    H1 3441   3.317   2.557   4.893
 1145TIP3    H2 3442   3.184   2.579   4.962
 1146TIP3   OH2 3443   5.268   1.127   0.364
 1146TIP3    H1 3444   5.268   1.033   0.381
 1146TIP3    H2 3445   5.230   1.136   0.277
 1147TIP3   OH2 3446   4.414   1.804   3.498
 1147TIP3    H1 3447   4.431   1.896   3.478
 1147TIP3    H2 3448   4.379   1.804   3.587
 1148TIP3   OH2 3449   0.979   1.427   3.633
 1148TIP3    H1 3450   1.051   1.378   3.594
 1148TIP3    H2 3451   1.002   1.433   3.726
 1149TIP3   OH2 3452   4.019   2.596   4.837
 1149TIP3    H1 3453   4.111   2.612   4.813
 1149TIP3    H2 3454   3.981   2.684   4.843
 1150TIP3   OH2 3455   2.752   4.380   3.986
 1150TIP3    H1 3456   2.785   4.293   3.962
 1150TIP3    H2 3457   2.668   4.363   4.028
 1151TIP3   OH2 3458   2.029   1.589   2.597
 1151TIP3    H1 3459   2.105   1.647   2.606
 1151TIP3    H2 3460   1.994   1.581   2.686
 1152TIP3   OH2 3461   1.696   5.150   3.928
 1152TIP3    H1 3462   1.730   5.225   3.976
 1152TIP3    H2 3463   1.602   5.166   3.923
 1153TIP3   OH2 3464   4.484   2.592   3.890
 1153TIP3    H1 3465   4.571   2.576   3.856
 1153TIP3    H2 3466   4.446   2.657   3.830
 1154TIP3   OH2 3467   2.612   3.880   3.198
 1154TIP3    H1 3468   2.539   3.845   3.147
 1154TIP3    H2 3469   2.610   3.974   3.180
 1155TIP3   OH2 3470   5.108   3.823   0.071
 1155TIP3    H1 3471   5.093   3.737   0.032
 1155TIP3    H2 3472   5.163   3.868   0.008
 1156TIP3   OH2 3473   1.938   4.146   3.198
 1156TIP3    H1 3474   1.922   4.119   3.108
 1156TIP3    H2 3475   1.952   4.241   3.193
 1157TIP3   OH2 3476   2.753   0.768   2.523
 1157TIP3    H1 3477   2.768   0.862   2.508
 1157TIP3    H2 3478   2.806   0.748   2.599
 1158TIP3   OH2 3479   2.356   0.464   2.299
 1158TIP3    H1 3480   2.308   0.494   2.376
 1158TIP3    H2 3481   2.438   0.515   2.300
 1159TIP3   OH2 3482   5.807   0.940   1.975
 1159TIP3    H1 3483   5.758   0.861   1.997
 1159TIP3    H2 3484   5.750   1.012   2.003
 1160TIP3   OH2 3485   3.036   2.623   3.308
 1160TIP3    H1 3486   3.121   2.619   3.265
 1160TIP3    H2 3487   2.989   2.547   3.275
 1161TIP3   OH2 3488   5.783   3.662   4.969
 1161TIP3    H1 3489   5.737   3.735   4.928
 1161TIP3    H2 3490   5.797   3.599   4.898
 1162TIP3   OH2 3491   2.832   3.852   2.497
 1162TIP3    H1 3492   2.836   3.805   2.580
 1162TIP3    H2 3493   2.793   3.790   2.435
 1163TIP3   OH2 3494   2.118   0.995   2.304
 1163TIP3    H1 3495   2.053   1.031   2.364
 1163TIP3    H2 3496   2.189   1.058   2.303
 1164TIP3   OH2 3497   3.442   1.427   4.499
 1164TIP3    H1 3498   3.369   1.449   4.556
 1164TIP3    H2 3499   3.418   1.464   4.414
 1165TIP3   OH2 3500   5.308   2.499   1.838
 1165TIP3    H1 3501   5.355   2.425   1.800
 1165TIP3    H2 3502   5.326   2.572   1.779
 1166TIP3   OH2 3503   5.219   3.490   3.259
 1166TIP3    H1 3504   5.141   3.466   3.309
 1166TIP3    H2 3505   5.195   3.572   3.214
 1167TIP3   OH2 3506   2.804   5.841   2.745
 1167TIP3    H1 3507   2.796   5.934   2.724
 1167TIP3    H2 3508   2.714   5.811   2.757
 1168TIP3   OH2 3509   1.622   3.531   4.516
 1168TIP3    H1 3510   1.717   3.523   4.519
 1168TIP3    H2 3511   1.606   3.587   4.439
 1169TIP3   OH2 3512   5.258   5.101   3.958
 1169TIP3    H1 3513   5.309   5.031   4.000
 1169TIP3    H2 3514   5.262   5.174   4.021
 1170TIP3   OH2 3515   5.111   0.465   2.362
 1170TIP3    H1 3516   5.160   0.386   2.336
 1170TIP3    H2 3517   5.114   0.521   2.285
 1171TIP3   OH2 3518   2.004   4.840   4.131
 1171TIP3    H1 3519   1.981   4.916   4.184
 1171TIP3    H2 3520   2.073   4.796   4.181
 1172TIP3   OH2 3521   1.862   4.710   2.417
 1172TIP3    H1 3522   1.846   4.738   2.507
 1172TIP3    H2 3523   1.787   4.654   2.397
 1173TIP3   OH2 3524   1.491   3.698   1.615
 1173TIP3    H1 3525   1.535   3.783   1.612
 1173TIP3    H2 3526   1.537   3.649   1.683
 1174TIP3   OH2 3527   5.374   4.974   1.340
 1174TIP3    H1 3528   5.399   4.963   1.432
 1174TIP3    H2 3529   5.280   4.955   1.338
 1175TIP3   OH2 3530   4.694   1.653   1.648
 1175TIP3    H1 3531   4.601   1.651   1.625
 1175TIP3    H2 3532   4.705   1.735   1.697
 1176TIP3   OH2 3533   0.351   1.172   4.030
 1176TIP3    H1 3534   0.360   1.266   4.046
 1176TIP3    H2 3535   0.263   1.151   4.061
 1177TIP3   OH2 3536   5.989   4.720   2.016
 1177TIP3    H1 3537   6.067   4.686   2.060
 1177TIP3    H2 3538   5.921   4.655   2.034
 1178TIP3   OH2 3539   3.773   4.542   2.920
 1178TIP3    H1 3540   3.808   4.589   2.845
 1178TIP3    H2 3541   3.789   4.449   2.900
 1179TIP3   OH2 3542   1.006   4.870   4.404
 1179TIP3    H1 3543   1.075   4.927   4.371
 1179TIP3    H2 3544   0.954   4.927   4.461
 1180TIP3   OH2 3545   4.508   3.212   3.675
 1180TIP3    H1 3546   4.467   3.227   3.761
 1180TIP3    H2 3547   4.482   3.123   3.652
 1181TIP3   OH2 3548   4.010   0.713   4.773
 1181TIP3    H1 3549   4.063   0.670   4.840
 1181TIP3    H2 3550   3.954   0.774   4.822
 1182TIP3   OH2 3551   4.809   0.251   4.455
 1182TIP3    H1 3552   4.751   0.318   4.490
 1182TIP3    H2 3553   4.768   0.223   4.374
 1183TIP3   OH2 3554   2.386   0.265   0.278
 1183TIP3    H1 3555   2.291   0.261   0.284
 1183TIP3    H2 3556   2.413   0.174   0.265
 1184TIP3   OH2 3557   4.779   1.607   2.119
 1184TIP3    H1 3558   4.869   1.637   2.131
 1184TIP3    H2 3559   4.769   1.536   2.182
 1185TIP3   OH2 3560   1.709   4.333   1.278
 1185TIP3    H1 3561   1.725   4.425   1.258
 1185TIP3    H2 3562   1.626   4.313   1.234
 1186TIP3   OH2 3563   1.396   4.052   3.259
 1186TIP3    H1 3564   1.402   4.020   3.349
 1186TIP3    H2 3565   1.412   4.146   3.267
 1187TIP3   OH2 3566   5.461  -0.022   4.721
 1187TIP3    H1 3567   5.429   0.068   4.712
 1187TIP3    H2 3568   5.553  -0.018   4.696
 1188TIP3   OH2 3569   4.725   1.682   1.292
 1188TIP3    H1 3570   4.810   1.692   1.249
 1188TIP3    H2 3571   4.745   1.636   1.374
 1189TIP3   OH2 3572   2.958   5.676   4.978
 1189TIP3    H1 3573   3.022   5.743   4.953
 1189TIP3    H2 3574   3.009   5.612   5.028
 1190TIP3   OH2 3575   5.581   5.716   1.227
 1190TIP3    H1 3576   5.623   5.789   1.182
 1190TIP3    H2 3577   5.487   5.730   1.212
 1191TIP3   OH2 3578   3.461   4.904   3.438
 1191TIP3    H1 3579   3.472   4.973   3.504
 1191TIP3    H2 3580   3.459   4.951   3.354
 1192TIP3   OH2 3581   3.363   2.286   0.159
 1192TIP3    H1 3582   3.357   2.233   0.080
 1192TIP3    H2 3583   3.310   2.364   0.141
 1193TIP3   OH2 3584   2.224   5.052   4.146
 1193TIP3    H1 3585   2.210   4.998   4.068
 1193TIP3    H2 3586   2.255   5.136   4.111
 1194TIP3   OH2 3587   1.820   1.201   1.499
 1194TIP3    H1 3588   1.827   1.294   1.476
 1194TIP3    H2 3589   1.853   1.196   1.588
 1195TIP3   OH2 3590   0.341   1.668   4.830
 1195TIP3    H1 3591   0.397   1.736   4.793
 1195TIP3    H2 3592   0.398   1.590   4.834
 1196TIP3   OH2 3593   4.696   4.546   4.052
 1196TIP3    H1 3594   4.785   4.513   4.066
 1196TIP3    H2 3595   4.644   4.505   4.122
 1197TIP3   OH2 3596   4.465   4.595   1.345
 1197TIP3    H1 3597   4.560   4.609   1.342
 1197TIP3    H2 3598   4.454   4.500   1.344
 1198TIP3   OH2 3599   5.736   4.077   4.015
 1198TIP3    H1 3600   5.814   4.132   4.006
 1198TIP3    H2 3601   5.765   3.991   3.984
 1199TIP3   OH2 3602   5.461   1.192   1.214
 1199TIP3    H1 3603   5.435   1.256   1.280
 1199TIP3    H2 3604   5.379   1.163   1.175
 1200TIP3   OH2 3605   3.973   3.620   0.226
 1200TIP3    H1 3606   4.005   3.654   0.143
 1200TIP3    H2 3607   3.881   3.601   0.211
 1201TIP3   OH2 3608   6.143   3.020   1.513
 1201TIP3    H1 3609   6.085   2.971   1.455
 1201TIP3    H2 3610   6.137   3.110   1.483
 1202TIP3   OH2 3611   0.042   2.105   0.914
 1202TIP3    H1 3612  -0.001   2.102   1.000
 1202TIP3    H2 3613   0.024   2.019   0.876
 1203TIP3   OH2 3614   5.501   1.360   4.097
 1203TIP3    H1 3615   5.462   1.448   4.096
 1203TIP3    H2 3616   5.445   1.308   4.039
 1204TIP3   OH2 3617   6.008   2.946   1.991
 1204TIP3    H1 3618   6.018   2.962   1.897
 1204TIP3    H2 3619   6.042   2.857   2.003
 1205TIP3   OH2 3620   4.549   4.468   1.091
 1205TIP3    H1 3621   4.617   4.504   1.034
 1205TIP3    H2 3622   4.595   4.409   1.150
 1206TIP3   OH2 3623   4.965   0.214   2.151
 1206TIP3    H1 3624   4.910   0.182   2.079
 1206TIP3    H2 3625   4.968   0.309   2.139
 1207TIP3   OH2 3626   3.375   0.475   2.666
 1207TIP3    H1 3627   3.362   0.398   2.609
 1207TIP3    H2 3628   3.373   0.549   2.606
 1208TIP3   OH2 3629   4.053   3.096   0.155
 1208TIP3    H1 3630   4.038   3.190   0.155
 1208TIP3    H2 3631   4.147   3.087   0.171
 1209TIP3   OH2 3632   5.647   5.003   1.308
 1209TIP3    H1 3633   5.661   5.089   1.269
 1209TIP3    H2 3634   5.552   4.994   1.314
 1210TIP3   OH2 3635   1.124   0.818   2.324
 1210TIP3    H1 3636   1.128   0.726   2.299
 1210TIP3    H2 3637   1.035   0.846   2.302
 1211TIP3   OH2 3638   4.275   5.923   4.005
 1211TIP3    H1 3639   4.231   5.959   4.082
 1211TIP3    H2 3640   4.352   5.980   3.993
 1212TIP3   OH2 3641   1.377   0.285   1.336
 1212TIP3    H1 3642   1.450   0.310   1.392
 1212TIP3    H2 3643   1.372   0.354   1.270
 1213TIP3   OH2 3644   5.068   3.969   4.345
 1213TIP3    H1 3645   5.150   3.973   4.297
 1213TIP3    H2 3646   5.040   3.878   4.337
 1214TIP3   OH2 3647   3.561   4.439   4.228
 1214TIP3    H1 3648   3.506   4.419   4.153
 1214TIP3    H2 3649   3.622   4.506   4.196
 1215TIP3   OH2 3650   2.202   5.799   4.702
 1215TIP3    H1 3651   2.182   5.724   4.647
 1215TIP3    H2 3652   2.207   5.764   4.791
 1216TIP3   OH2 3653   0.908   1.954   2.001
 1216TIP3    H1 3654   0.972   2.025   2.012
 1216TIP3    H2 3655   0.839   1.973   2.064
 1217TIP3   OH2 3656   1.400   4.828   4.207
 1217TIP3    H1 3657   1.472   4.889   4.195
 1217TIP3    H2 3658   1.334   4.878   4.255
 1218TIP3   OH2 3659   1.302   0.323   1.952
 1218TIP3    H1 3660   1.368   0.315   1.883
 1218TIP3    H2 3661   1.306   0.414   1.980
 1219TIP3   OH2 3662   0.688   2.782   2.226
 1219TIP3    H1 3663   0.699   2.840   2.301
 1219TIP3    H2 3664   0.650   2.838   2.158
 1220TIP3   OH2 3665   1.774   4.594   1.211
 1220TIP3    H1 3666   1.845   4.655   1.233
 1220TIP3    H2 3667   1.694   4.638   1.240
 1221TIP3   OH2 3668   2.422   1.311   4.771
 1221TIP3    H1 3669   2.446   1.402   4.756
 1221TIP3    H2 3670   2.347   1.315   4.829
 1222TIP3   OH2 3671   3.867   3.648   1.486
 1222TIP3    H1 3672   3.890   3.714   1.420
 1222TIP3    H2 3673   3.875   3.564   1.440
 1223TIP3   OH2 3674   2.844   1.176   4.133
 1223TIP3    H1 3675   2.787   1.132   4.197
 1223TIP3    H2 3676   2.787   1.193   4.058
 1224TIP3   OH2 3677   0.099   0.545   3.572
 1224TIP3    H1 3678   0.176   0.508   3.529
 1224TIP3    H2 3679   0.037   0.472   3.577
 1225TIP3   OH2 3680   3.533   5.612   1.551
 1225TIP3    H1 3681   3.579   5.696   1.554
 1225TIP3    H2 3682   3.460   5.623   1.612
 1226TIP3   OH2 3683   3.505   1.455   3.728
 1226TIP3    H1 3684   3.590   1.471   3.768
 1226TIP3    H2 3685   3.525   1.417   3.642
 1227TIP3   OH2 3686   5.997   5.347   1.053
 1227TIP3    H1 3687   5.954   5.268   1.021
 1227TIP3    H2 3688   6.022   5.394   0.973
 1228TIP3   OH2 3689   1.697   4.125   1.847
 1228TIP3    H1 3690   1.667   4.216   1.843
 1228TIP3    H2 3691   1.783   4.127   1.803
 1229TIP3   OH2 3692   2.181   2.866   0.325
 1229TIP3    H1 3693   2.188   2.940   0.385
 1229TIP3    H2 3694   2.158   2.906   0.240
 1230TIP3   OH2 3695   5.686   1.530   3.350
 1230TIP3    H1 3696   5.709   1.578   3.271
 1230TIP3    H2 3697   5.752   1.555   3.414
 1231TIP3   OH2 3698   5.758   2.769   3.490
 1231TIP3    H1 3699   5.663   2.777   3.495
 1231TIP3    H2 3700   5.783   2.821   3.414
 1232TIP3   OH2 3701   3.746   2.251   0.630
 1232TIP3    H1 3702   3.681   2.248   0.701
 1232TIP3    H2 3703   3.712   2.316   0.569
 1233TIP3   OH2 3704   2.854   3.430   1.801
 1233TIP3    H1 3705   2.833   3.348   1.756
 1233TIP3    H2 3706   2.803   3.427   1.881
 1234TIP3   OH2 3707   6.255   4.104   2.119
 1234TIP3    H1 3708   6.288   4.185   2.160
 1234TIP3    H2 3709   6.279   4.112   2.027
 1235TIP3   OH2 3710   0.147   3.544   4.917
 1235TIP3    H1 3711   0.139   3.624   4.969
 1235TIP3    H2 3712   0.059   3.529   4.882
 1236TIP3   OH2 3713   3.089   3.263   2.207
 1236TIP3    H1 3714   3.119   3.319   2.135
 1236TIP3    H2 3715   3.081   3.176   2.168
 1237TIP3   OH2 3716   3.089   5.275   1.865
 1237TIP3    H1 3717   2.998   5.257   1.842
 1237TIP3    H2 3718   3.122   5.192   1.900
 1238TIP3   OH2 3719   1.287   1.493   4.973
 1238TIP3    H1 3720   1.235   1.416   4.949
 1238TIP3    H2 3721   1.238   1.534   5.044
 1239TIP3   OH2 3722   0.888   0.878   1.906
 1239TIP3    H1 3723   0.912   0.811   1.970
 1239TIP3    H2 3724   0.962   0.939   1.905
 1240TIP3   OH2 3725   0.575   1.994   2.754
 1240TIP3    H1 3726   0.619   1.910   2.752
 1240TIP3    H2 3727   0.644   2.057   2.776
 1241TIP3   OH2 3728   1.161   4.877   2.958
 1241TIP3    H1 3729   1.111   4.904   2.881
 1241TIP3    H2 3730   1.197   4.959   2.992
 1242TIP3   OH2 3731   5.695   3.238   4.075
 1242TIP3    H1 3732   5.688   3.328   4.044
 1242TIP3    H2 3733   5.610   3.221   4.117
 1243TIP3   OH2 3734   6.341   0.828   0.982
 1243TIP3    H1 3735   6.307   0.747   0.943
 1243TIP3    H2 3736   6.264   0.883   0.993
 1244TIP3   OH2 3737   5.088   0.945   4.612
 1244TIP3    H1 3738   5.074   0.851   4.618
 1244TIP3    H2 3739   5.183   0.955   4.618
 1245TIP3   OH2 3740   2.794   2.278   3.992
 1245TIP3    H1 3741   2.873   2.248   3.948
 1245TIP3    H2 3742   2.724   2.265   3.929
 1246TIP3   OH2 3743   4.886   5.960   4.422
 1246TIP3    H1 3744   4.970   6.004   4.414
 1246TIP3    H2 3745   4.837   5.987   4.344
 1247TIP3   OH2 3746   0.730   0.988   4.347
 1247TIP3    H1 3747   0.792   0.976   4.419
 1247TIP3    H2 3748   0.729   0.903   4.302
 1248TIP3   OH2 3749   5.324   2.474   3.061
 1248TIP3    H1 3750   5.335   2.400   3.121
 1248TIP3    H2 3751   5.385   2.540   3.093
 1249TIP3   OH2 3752   2.084   0.368   1.731
 1249TIP3    H1 3753   2.047   0.451   1.761
 1249TIP3    H2 3754   2.150   0.393   1.667
 1250TIP3   OH2 3755   5.106   4.231   0.789
 1250TIP3    H1 3756   5.075   4.140   0.786
 1250TIP3    H2 3757   5.200   4.225   0.770
 1251TIP3   OH2 3758   3.008   4.328   0.680
 1251TIP3    H1 3759   3.089   4.317   0.630
 1251TIP3    H2 3760   3.033   4.386   0.753
 1252TIP3   OH2 3761   1.465   2.022   5.089
 1252TIP3    H1 3762   1.515   2.088   5.136
 1252TIP3    H2 3763   1.507   2.016   5.004
 1253TIP3   OH2 3764   5.263   0.883   3.746
 1253TIP3    H1 3765   5.250   0.977   3.758
 1253TIP3    H2 3766   5.178   0.844   3.764
 1254TIP3   OH2 3767   3.007   1.420   5.002
 1254TIP3    H1 3768   3.008   1.484   4.931
 1254TIP3    H2 3769   2.916   1.418   5.032
 1255TIP3   OH2 3770   3.096   4.183   4.977
 1255TIP3    H1 3771   3.095   4.279   4.973
 1255TIP3    H2 3772   3.061   4.162   5.064
 1256TIP3   OH2 3773   3.412   1.778   3.284
 1256TIP3    H1 3774   3.437   1.840   3.215
 1256TIP3    H2 3775   3.336   1.818   3.326
 1257TIP3   OH2 3776   5.609   5.347   3.895
 1257TIP3    H1 3777   5.572   5.266   3.860
 1257TIP3    H2 3778   5.700   5.346   3.866
 1258TIP3   OH2 3779   3.839   5.755   0.187
 1258TIP3    H1 3780   3.825   5.848   0.203
 1258TIP3    H2 3781   3.871   5.751   0.097
 1259TIP3   OH2 3782   0.605   5.179   4.236
 1259TIP3    H1 3783   0.571   5.234   4.166
 1259TIP3    H2 3784   0.684   5.223   4.266
 1260TIP3   OH2 3785   1.307   2.055   4.694
 1260TIP3    H1 3786   1.401   2.070   4.682
 1260TIP3    H2 3787   1.302   1.996   4.770
 1261TIP3   OH2 3788   4.591   1.833   2.616
 1261TIP3    H1 3789   4.583   1.771   2.543
 1261TIP3    H2 3790   4.632   1.782   2.686
 1262TIP3   OH2 3791   3.350   1.730   2.106
 1262TIP3    H1 3792   3.280   1.795   2.103
 1262TIP3    H2 3793   3.418   1.766   2.050
 1263TIP3   OH2 3794   2.331   0.973   0.268
 1263TIP3    H1 3795   2.243   0.936   0.276
 1263TIP3    H2 3796   2.320   1.067   0.284
 1264TIP3   OH2 3797   4.484   2.956   3.887
 1264TIP3    H1 3798   4.502   2.945   3.793
 1264TIP3    H2 3799   4.463   3.049   3.897
 1265TIP3   OH2 3800   3.816   5.448   2.032
 1265TIP3    H1 3801   3.737   5.501   2.018
 1265TIP3    H2 3802   3.784   5.361   2.052
 1266TIP3   OH2 3803   4.321   4.646   1.046
 1266TIP3    H1 3804   4.395   4.630   0.988
 1266TIP3    H2 3805   4.351   4.616   1.132
 1267TIP3   OH2 3806   5.555   3.228   4.840
 1267TIP3    H1 3807   5.586   3.183   4.918
 1267TIP3    H2 3808   5.491   3.292   4.873
 1268TIP3   OH2 3809   0.019   3.213   2.915
 1268TIP3    H1 3810   0.007   3.286   2.975
 1268TIP3    H2 3811   0.076   3.247   2.846
 1269TIP3   OH2 3812   4.171   5.462   2.871
 1269TIP3    H1 3813   4.131   5.375   2.866
 1269TIP3    H2 3814   4.116   5.518   2.817
 1270TIP3   OH2 3815   3.270   0.663   3.806
 1270TIP3    H1 3816   3.295   0.666   3.713
 1270TIP3    H2 3817   3.212   0.587   3.812
 1271TIP3   OH2 3818   3.473   5.160   0.456
 1271TIP3    H1 3819   3.519   5.241   0.435
 1271TIP3    H2 3820   3.393   5.163   0.404
 1272TIP3   OH2 3821   0.179   5.814   2.494
 1272TIP3    H1 3822   0.195   5.840   2.585
 1272TIP3    H2 3823   0.262   5.832   2.449
 1273TIP3   OH2 3824   0.190   5.558   1.776
 1273TIP3    H1 3825   0.109   5.513   1.803
 1273TIP3    H2 3826   0.234   5.495   1.719
 1274TIP3   OH2 3827   2.039   2.774   0.980
 1274TIP3    H1 3828   1.985   2.698   0.958
 1274TIP3    H2 3829   2.077   2.751   1.066
 1275TIP3   OH2 3830   0.984   2.988   1.414
 1275TIP3    H1 3831   1.025   2.901   1.408
 1275TIP3    H2 3832   0.893   2.971   1.438
 1276TIP3   OH2 3833   3.117   1.474   0.125
 1276TIP3    H1 3834   3.079   1.392   0.155
 1276TIP3    H2 3835   3.133   1.524   0.205
 1277TIP3   OH2 3836   5.303   1.055   1.932
 1277TIP3    H1 3837   5.222   1.106   1.937
 1277TIP3    H2 3838   5.274   0.964   1.939
 1278TIP3   OH2 3839   2.351   2.626   1.266
 1278TIP3    H1 3840   2.402   2.705   1.286
 1278TIP3    H2 3841   2.266   2.641   1.307
 1279TIP3   OH2 3842   4.099   5.963   1.858
 1279TIP3    H1 3843   4.016   5.919   1.874
 1279TIP3    H2 3844   4.075   6.055   1.845
 1280TIP3   OH2 3845   2.428   2.360   4.519
 1280TIP3    H1 3846   2.483   2.414   4.576
 1280TIP3    H2 3847   2.353   2.415   4.498
 1281TIP3   OH2 3848   4.360   1.160   2.732
 1281TIP3    H1 3849   4.401   1.076   2.712
 1281TIP3    H2 3850   4.269   1.139   2.752
 1282TIP3   OH2 3851   4.693   3.835   0.120
 1282TIP3    H1 3852   4.707   3.807   0.029
 1282TIP3    H2 3853   4.761   3.902   0.134
 1283TIP3   OH2 3854   2.513   2.764   3.350
 1283TIP3    H1 3855   2.453   2.755   3.423
 1283TIP3    H2 3856   2.458   2.758   3.272
 1284TIP3   OH2 3857   2.972   4.333   2.114
 1284TIP3    H1 3858   3.035   4.401   2.139
 1284TIP3    H2 3859   2.890   4.360   2.154
 1285TIP3   OH2 3860   5.710   3.510   0.500
 1285TIP3    H1 3861   5.692   3.448   0.429
 1285TIP3    H2 3862   5.625   3.548   0.522
 1286TIP3   OH2 3863   4.296   0.088   3.062
 1286TIP3    H1 3864   4.202   0.080   3.046
 1286TIP3    H2 3865   4.308   0.178   3.091
 1287TIP3   OH2 3866   2.939   0.536   4.367
 1287TIP3    H1 3867   3.030   0.546   4.340
 1287TIP3    H2 3868   2.944   0.496   4.454
 1288TIP3   OH2 3869   4.005   3.167   0.816
 1288TIP3    H1 3870   4.087   3.217   0.814
 1288TIP3    H2 3871   4.029   3.084   0.857
 1289TIP3   OH2 3872   0.731   5.404   3.409
 1289TIP3    H1 3873   0.650   5.393   3.359
 1289TIP3    H2 3874   0.800   5.409   3.342
 1290TIP3   OH2 3875   2.663   2.144   1.333
 1290TIP3    H1 3876   2.691   2.125   1.244
 1290TIP3    H2 3877   2.591   2.207   1.324
 1291TIP3   OH2 3878   0.132   3.879   3.200
 1291TIP3    H1 3879   0.199   3.930   3.245
 1291TIP3    H2 3880   0.128   3.916   3.112
 1292TIP3   OH2 3881   3.674   5.649   2.158
 1292TIP3    H1 3882   3.596   5.598   2.181
 1292TIP3    H2 3883   3.722   5.657   2.241
 1293TIP3   OH2 3884   0.708   3.217   1.442
 1293TIP3    H1 3885   0.696   3.127   1.471
 1293TIP3    H2 3886   0.776   3.211   1.374
 1294TIP3   OH2 3887   2.492   5.885   3.955
 1294TIP3    H1 3888   2.563   5.949   3.956
 1294TIP3    H2 3889   2.422   5.925   4.006
 1295TIP3   OH2 3890   5.871   3.643   0.927
 1295TIP3    H1 3891   5.927   3.581   0.973
 1295TIP3    H2 3892   5.795   3.655   0.984
 1296TIP3   OH2 3893   4.001   0.241   4.835
 1296TIP3    H1 3894   3.982   0.148   4.818
 1296TIP3    H2 3895   3.978   0.253   4.927
 1297TIP3   OH2 3896   5.444   1.234   3.171
 1297TIP3    H1 3897   5.408   1.304   3.227
 1297TIP3    H2 3898   5.529   1.269   3.142
 1298TIP3   OH2 3899   5.655   1.458   1.545
 1298TIP3    H1 3900   5.725   1.393   1.552
 1298TIP3    H2 3901   5.701   1.542   1.541
 1299TIP3   OH2 3902   6.316   2.059   2.367
 1299TIP3    H1 3903   6.348   2.149   2.362
 1299TIP3    H2 3904   6.383   2.007   2.322
 1300TIP3   OH2 3905   4.011   0.417   2.391
 1300TIP3    H1 3906   3.942   0.462   2.342
 1300TIP3    H2 3907   3.984   0.425   2.482
 1301TIP3   OH2 3908   5.317   2.219   1.422
 1301TIP3    H1 3909   5.283   2.143   1.469
 1301TIP3    H2 3910   5.257   2.290   1.443
 1302TIP3   OH2 3911   3.580   3.908   4.419
 1302TIP3    H1 3912   3.523   3.963   4.366
 1302TIP3    H2 3913   3.635   3.969   4.466
 1303TIP3   OH2 3914   3.818   4.222   1.008
 1303TIP3    H1 3915   3.776   4.272   1.079
 1303TIP3    H2 3916   3.905   4.260   1.000
 1304TIP3   OH2 3917   4.495   0.752   0.875
 1304TIP3    H1 3918   4.582   0.781   0.904
 1304TIP3    H2 3919   4.480   0.671   0.924
 1305TIP3   OH2 3920   0.348   3.084   3.083
 1305TIP3    H1 3921   0.427   3.044   3.048
 1305TIP3    H2 3922   0.278   3.059   3.022
 1306TIP3   OH2 3923   0.539   0.052   0.454
 1306TIP3    H1 3924   0.466  -0.007   0.469
 1306TIP3    H2 3925   0.613  -0.005   0.432
 1307TIP3   OH2 3926   1.296   3.575   4.780
 1307TIP3    H1 3927   1.319   3.655   4.732
 1307TIP3    H2 3928   1.333   3.504   4.727
 1308TIP3   OH2 3929   3.736   1.460   2.566
 1308TIP3    H1 3930   3.720   1.524   2.496
 1308TIP3    H2 3931   3.827   1.434   2.555
 1309TIP3   OH2 3932   1.443   4.351   3.282
 1309TIP3    H1 3933   1.426   4.408   3.207
 1309TIP3    H2 3934   1.535   4.367   3.304
 1310TIP3   OH2 3935   5.061   2.089   4.872
 1310TIP3    H1 3936   5.069   2.126   4.784
 1310TIP3    H2 3937   4.967   2.074   4.883
 1311TIP3   OH2 3938   0.883   0.136   3.652
 1311TIP3    H1 3939   0.971   0.121   3.688
 1311TIP3    H2 3940   0.888   0.102   3.562
 1312TIP3   OH2 3941   5.900   5.827   0.171
 1312TIP3    H1 3942   5.926   5.737   0.194
 1312TIP3    H2 3943   5.853   5.858   0.248
 1313TIP3   OH2 3944   2.135   5.177   5.077
 1313TIP3    H1 3945   2.048   5.136   5.076
 1313TIP3    H2 3946   2.160   5.182   4.985
 1314TIP3   OH2 3947   4.493   1.145   1.448
 1314TIP3    H1 3948   4.463   1.216   1.504
 1314TIP3    H2 3949   4.431   1.074   1.463
 1315TIP3   OH2 3950   1.856   2.033   0.061
 1315TIP3    H1 3951   1.763   2.036   0.042
 1315TIP3    H2 3952   1.872   2.111   0.114
 1316TIP3   OH2 3953   3.263   5.668   1.488
 1316TIP3    H1 3954   3.352   5.675   1.452
 1316TIP3    H2 3955   3.236   5.579   1.468
 1317TIP3   OH2 3956   6.237   2.698   2.860
 1317TIP3    H1 3957   6.257   2.762   2.792
 1317TIP3    H2 3958   6.154   2.728   2.897
 1318TIP3   OH2 3959   1.185   0.162   1.568
 1318TIP3    H1 3960   1.144   0.140   1.651
 1318TIP3    H2 3961   1.148   0.247   1.545
 1319TIP3   OH2 3962   3.005   2.637   3.803
 1319TIP3    H1 3963   3.066   2.688   3.855
 1319TIP3    H2 3964   2.995   2.686   3.721
 1320TIP3   OH2 3965   6.203   3.595   1.537
 1320TIP3    H1 3966   6.147   3.555   1.470
 1320TIP3    H2 3967   6.218   3.526   1.601
 1321TIP3   OH2 3968   6.379   4.610   0.940
 1321TIP3    H1 3969   6.362   4.698   0.975
 1321TIP3    H2 3970   6.293   4.577   0.917
 1322TIP3   OH2 3971   5.866   4.742   2.435
 1322TIP3    H1 3972   5.878   4.805   2.363
 1322TIP3    H2 3973   5.955   4.714   2.457
 1323TIP3   OH2 3974   5.775   2.294   0.043
 1323TIP3    H1 3975   5.787   2.217  -0.013
 1323TIP3    H2 3976   5.752   2.364  -0.017
 1324TIP3   OH2 3977   6.175   3.179   3.967
 1324TIP3    H1 3978   6.113   3.245   3.999
 1324TIP3    H2 3979   6.137   3.147   3.885
 1325TIP3   OH2 3980   3.732   5.137   0.742
 1325TIP3    H1 3981   3.661   5.167   0.799
 1325TIP3    H2 3982   3.805   5.197   0.762
 1326TIP3   OH2 3983   1.935   4.163   3.482
 1326TIP3    H1 3984   1.994   4.238   3.481
 1326TIP3    H2 3985   1.906   4.153   3.391
 1327TIP3   OH2 3986   5.847   3.869   3.866
 1327TIP3    H1 3987   5.863   3.777   3.888
 1327TIP3    H2 3988   5.916   3.891   3.804
 1328TIP3   OH2 3989   5.652   0.529   3.334
 1328TIP3    H1 3990   5.603   0.465   3.386
 1328TIP3    H2 3991   5.638   0.613   3.379
 1329TIP3   OH2 3992   5.732   0.907   4.902
 1329TIP3    H1 3993   5.791   0.966   4.948
 1329TIP3    H2 3994   5.646   0.924   4.939
 1330TIP3   OH2 3995   4.076   2.622   4.566
 1330TIP3    H1 3996   4.100   2.542   4.613
 1330TIP3    H2 3997   4.129   2.691   4.606
 1331TIP3   OH2 3998   1.209   3.570   1.634
 1331TIP3    H1 3999   1.266   3.612   1.569
 1331TIP3    H2 4000   1.120   3.589   1.604
 1332TIP3   OH2 4001   6.330   1.777   4.668
 1332TIP3    H1 4002   6.391   1.703   4.666
 1332TIP3    H2 4003   6.326   1.807   4.577
 1333TIP3   OH2 4004   3.950   2.510   3.724
 1333TIP3    H1 4005   3.971   2.596   3.688
 1333TIP3    H2 4006   4.029   2.458   3.711
 1334TIP3   OH2 4007   1.171   4.346   1.768
 1334TIP3    H1 4008   1.193   4.397   1.847
 1334TIP3    H2 4009   1.194   4.256   1.790
 1335TIP3   OH2 4010   3.898   3.035   1.229
 1335TIP3    H1 4011   3.969   3.029   1.293
 1335TIP3    H2 4012   3.818   3.031   1.282
 1336TIP3   OH2 4013   3.150   4.248   3.830
 1336TIP3    H1 4014   3.165   4.230   3.737
 1336TIP3    H2 4015   3.094   4.326   3.831
 1337TIP3   OH2 4016   5.045   2.911   4.442
 1337TIP3    H1 4017   4.983   2.941   4.508
 1337TIP3    H2 4018   5.079   2.828   4.477
 1338TIP3   OH2 4019   3.085   1.685   3.378
 1338TIP3    H1 4020   3.003   1.638   3.391
 1338TIP3    H2 4021   3.122   1.694   3.465
 1339TIP3   OH2 4022   5.940   4.331   4.301
 1339TIP3    H1 4023   5.954   4.352   4.393
 1339TIP3    H2 4024   5.876   4.397   4.271
 1340TIP3   OH2 4025   5.806   4.594   3.476
 1340TIP3    H1 4026   5.799   4.667   3.416
 1340TIP3    H2 4027   5.792   4.516   3.422
 1341TIP3   OH2 4028   4.800   2.786   2.518
 1341TIP3    H1 4029   4.887   2.750   2.535
 1341TIP3    H2 4030   4.776   2.750   2.433
 1342TIP3   OH2 4031   0.089   3.172   0.751
 1342TIP3    H1 4032   0.064   3.092   0.799
 1342TIP3    H2 4033   0.097   3.239   0.819
 1343TIP3   OH2 4034   6.205   0.898   1.620
 1343TIP3    H1 4035   6.143   0.871   1.687
 1343TIP3    H2 4036   6.255   0.818   1.601
 1344TIP3   OH2 4037   3.370   2.051   2.094
 1344TIP3    H1 4038   3.379   2.094   2.009
 1344TIP3    H2 4039   3.278   2.023   2.096
 1345TIP3   OH2 4040   3.556   1.841   1.937
 1345TIP3    H1 4041   3.601   1.866   1.856
 1345TIP3    H2 4042   3.567   1.917   1.995
 1346TIP3   OH2 4043   0.538   0.496   0.245
 1346TIP3    H1 4044   0.559   0.565   0.307
 1346TIP3    H2 4045   0.547   0.415   0.295
 1347TIP3   OH2 4046   0.535   3.702   5.120
 1347TIP3    H1 4047   0.524   3.796   5.137
 1347TIP3    H2 4048   0.563   3.667   5.205
 1348TIP3   OH2 4049   1.883   4.675   3.062
 1348TIP3    H1 4050   1.791   4.674   3.035
 1348TIP3    H2 4051   1.886   4.741   3.131
 1349TIP3   OH2 4052   5.793   1.780   0.772
 1349TIP3    H1 4053   5.762   1.850   0.829
 1349TIP3    H2 4054   5.749   1.795   0.689
 1350TIP3   OH2 4055   0.876   0.073   1.948
 1350TIP3    H1 4056   0.849   0.007   2.012
 1350TIP3    H2 4057   0.924   0.024   1.881
 1351TIP3   OH2 4058   3.319   3.745   4.801
 1351TIP3    H1 4059   3.391   3.734   4.739
 1351TIP3    H2 4060   3.337   3.830   4.843
 1352TIP3   OH2 4061   4.425   3.935   2.137
 1352TIP3    H1 4062   4.472   3.856   2.109
 1352TIP3    H2 4063   4.333   3.914   2.123
 1353TIP3   OH2 4064   0.897   2.572   2.240
 1353TIP3    H1 4065   0.985   2.609   2.241
 1353TIP3    H2 4066   0.839   2.648   2.244
 1354TIP3   OH2 4067   4.277   3.182   0.982
 1354TIP3    H1 4068   4.329   3.255   1.014
 1354TIP3    H2 4069   4.193   3.189   1.028
 1355TIP3   OH2 4070   4.526   2.972   3.036
 1355TIP3    H1 4071   4.612   2.932   3.025
 1355TIP3    H2 4072   4.464   2.900   3.024
 1356TIP3   OH2 4073   5.942   3.657   2.849
 1356TIP3    H1 4074   6.029   3.660   2.811
 1356TIP3    H2 4075   5.903   3.576   2.815
 1357TIP3   OH2 4076   0.074   2.536   1.315
 1357TIP3    H1 4077   0.086   2.486   1.396
 1357TIP3    H2 4078  -0.002   2.495   1.274
 1358TIP3   OH2 4079   0.283   3.621   3.802
 1358TIP3    H1 4080   0.344   3.548   3.809
 1358TIP3    H2 4081   0.223   3.608   3.876
 1359TIP3   OH2 4082   0.596   2.100   1.890
 1359TIP3    H1 4083   0.556   2.032   1.944
 1359TIP3    H2 4084   0.615   2.057   1.807
 1360TIP3   OH2 4085   4.635   1.113   0.195
 1360TIP3    H1 4086   4.625   1.207   0.212
 1360TIP3    H2 4087   4.665   1.076   0.278
 1361TIP3   OH2 4088   0.470   3.338   1.854
 1361TIP3    H1 4089   0.464   3.348   1.759
 1361TIP3    H2 4090   0.410   3.405   1.889
 1362TIP3   OH2 4091   1.553   5.869   2.176
 1362TIP3    H1 4092   1.530   5.857   2.268
 1362TIP3    H2 4093   1.648   5.856   2.174
 1363TIP3   OH2 4094   4.152   2.319   3.065
 1363TIP3    H1 4095   4.213   2.386   3.033
 1363TIP3    H2 4096   4.189   2.292   3.150
 1364TIP3   OH2 4097   0.749   5.375   4.595
 1364TIP3    H1 4098   0.728   5.390   4.687
 1364TIP3    H2 4099   0.838   5.410   4.585
 1365TIP3   OH2 4100   5.261   5.273   4.164
 1365TIP3    H1 4101   5.319   5.229   4.226
 1365TIP3    H2 4102   5.299   5.360   4.153
 1366TIP3   OH2 4103   0.023   4.638   2.640
 1366TIP3    H1 4104   0.081   4.635   2.716
 1366TIP3    H2 4105  -0.059   4.674   2.674
 1367TIP3   OH2 4106   5.070   2.443   0.393
 1367TIP3    H1 4107   5.001   2.381   0.368
 1367TIP3    H2 4108   5.093   2.487   0.311
 1368TIP3   OH2 4109   3.105   0.125   1.775
 1368TIP3    H1 4110   3.163   0.192   1.810
 1368TIP3    H2 4111   3.130   0.117   1.683
 1369TIP3   OH2 4112   1.719   1.885   1.865
 1369TIP3    H1 4113   1.642   1.852   1.912
 1369TIP3    H2 4114   1.761   1.945   1.927
 1370TIP3   OH2 4115   3.864   0.902   2.804
 1370TIP3    H1 4116   3.868   0.916   2.710
 1370TIP3    H2 4117   3.824   0.981   2.839
 1371TIP3   OH2 4118   0.507   2.784   4.491
 1371TIP3    H1 4119   0.463   2.868   4.504
 1371TIP3    H2 4120   0.575   2.782   4.558
 1372TIP3   OH2 4121   2.488   5.916   3.668
 1372TIP3    H1 4122   2.506   5.828   3.701
 1372TIP3    H2 4123   2.495   5.972   3.745
 1373TIP3   OH2 4124   5.244   3.157   2.348
 1373TIP3    H1 4125   5.245   3.248   2.319
 1373TIP3    H2 4126   5.161   3.122   2.315
 1374TIP3   OH2 4127   3.929   1.025   2.529
 1374TIP3    H1 4128   3.924   0.943   2.481
 1374TIP3    H2 4129   3.865   1.082   2.486
 1375TIP3   OH2 4130   4.117   2.299   1.212
 1375TIP3    H1 4131   4.028   2.334   1.203
 1375TIP3    H2 4132   4.170   2.353   1.153
 1376TIP3   OH2 4133   5.454   3.657   2.916
 1376TIP3    H1 4134   5.401   3.582   2.944
 1376TIP3    H2 4135   5.538   3.619   2.890
 1377TIP3   OH2 4136   5.276   1.623   2.738
 1377TIP3    H1 4137   5.321   1.540   2.725
 1377TIP3    H2 4138   5.248   1.621   2.830
 1378TIP3   OH2 4139   5.743   0.992   1.679
 1378TIP3    H1 4140   5.763   0.932   1.750
 1378TIP3    H2 4141   5.788   1.073   1.703
 1379TIP3   OH2 4142   0.726   2.428   4.746
 1379TIP3    H1 4143   0.731   2.501   4.683
 1379TIP3    H2 4144   0.633   2.416   4.762
 1380TIP3   OH2 4145   2.408   3.818   2.286
 1380TIP3    H1 4146   2.390   3.727   2.308
 1380TIP3    H2 4147   2.472   3.846   2.351
 1381TIP3   OH2 4148   0.124   4.252   0.350
 1381TIP3    H1 4149   0.098   4.250   0.258
 1381TIP3    H2 4150   0.179   4.174   0.360
 1382TIP3   OH2 4151   2.199   2.175   4.265
 1382TIP3    H1 4152   2.190   2.264   4.300
 1382TIP3    H2 4153   2.260   2.132   4.325
 1383TIP3   OH2 4154   4.077   0.202   3.942
 1383TIP3    H1 4155   4.114   0.156   3.867
 1383TIP3    H2 4156   3.998   0.152   3.964
 1384TIP3   OH2 4157   3.691   4.304   2.380
 1384TIP3    H1 4158   3.614   4.254   2.353
 1384TIP3    H2 4159   3.682   4.312   2.475
 1385TIP3   OH2 4160   0.401   4.170   1.603
 1385TIP3    H1 4161   0.401   4.225   1.680
 1385TIP3    H2 4162   0.447   4.090   1.630
 1386TIP3   OH2 4163   0.399   4.696   0.385
 1386TIP3    H1 4164   0.340   4.626   0.411
 1386TIP3    H2 4165   0.414   4.745   0.466
 1387TIP3   OH2 4166   5.748   2.019   1.021
 1387TIP3    H1 4167   5.834   2.059   1.028
 1387TIP3    H2 4168   5.691   2.091   0.993
 1388TIP3   OH2 4169   6.273   3.842   4.515
 1388TIP3    H1 4170   6.202   3.848   4.578
 1388TIP3    H2 4171   6.352   3.864   4.565
 1389TIP3   OH2 4172   2.593   0.392   4.920
 1389TIP3    H1 4173   2.616   0.469   4.867
 1389TIP3    H2 4174   2.617   0.417   5.009
 1390TIP3   OH2 4175   4.367   5.323   0.354
 1390TIP3    H1 4176   4.350   5.240   0.310
 1390TIP3    H2 4177   4.328   5.389   0.297
 1391TIP3   OH2 4178   3.121   0.141   2.323
 1391TIP3    H1 4179   3.112   0.048   2.343
 1391TIP3    H2 4180   3.066   0.155   2.246
 1392TIP3   OH2 4181   3.802   5.039   1.895
 1392TIP3    H1 4182   3.760   5.122   1.918
 1392TIP3    H2 4183   3.876   5.033   1.955
 1393TIP3   OH2 4184   4.672   1.819   4.271
 1393TIP3    H1 4185   4.577   1.809   4.258
 1393TIP3    H2 4186   4.691   1.766   4.348
 1394TIP3   OH2 4187   2.339   4.845   2.068
 1394TIP3    H1 4188   2.289   4.905   2.013
 1394TIP3    H2 4189   2.407   4.900   2.108
 1395TIP3   OH2 4190   5.118   2.261   2.946
 1395TIP3    H1 4191   5.190   2.324   2.957
 1395TIP3    H2 4192   5.124   2.235   2.854
 1396TIP3   OH2 4193   5.246   1.308   5.007
 1396TIP3    H1 4194   5.301   1.384   4.985
 1396TIP3    H2 4195   5.281   1.238   4.953
 1397TIP3   OH2 4196   1.094   4.975   3.459
 1397TIP3    H1 4197   1.105   4.880   3.463
 1397TIP3    H2 4198   1.000   4.988   3.446
 1398TIP3   OH2 4199   2.447   1.958   0.902
 1398TIP3    H1 4200   2.508   1.884   0.907
 1398TIP3    H2 4201   2.361   1.918   0.895
 1399TIP3   OH2 4202   5.517   2.361   0.352
 1399TIP3    H1 4203   5.442   2.372   0.293
 1399TIP3    H2 4204   5.480   2.325   0.432
 1400TIP3   OH2 4205   4.182   0.304   3.238
 1400TIP3    H1 4206   4.265   0.270   3.272
 1400TIP3    H2 4207   4.119   0.286   3.307
 1401TIP3   OH2 4208   6.225   4.689   1.803
 1401TIP3    H1 4209   6.296   4.627   1.811
 1401TIP3    H2 4210   6.212   4.722   1.892
 1402TIP3   OH2 4211   0.175   1.819   3.073
 1402TIP3    H1 4212   0.127   1.898   3.096
 1402TIP3    H2 4213   0.113   1.766   3.024
 1403TIP3   OH2 4214   3.561   0.118   3.287
 1403TIP3    H1 4215   3.527   0.206   3.271
 1403TIP3    H2 4216   3.601   0.123   3.374
 1404TIP3   OH2 4217   6.186   3.090   2.542
 1404TIP3    H1 4218   6.126   3.042   2.485
 1404TIP3    H2 4219   6.266   3.099   2.490
 1405TIP3   OH2 4220   4.245   5.383   4.978
 1405TIP3    H1 4221   4.340   5.387   4.987
 1405TIP3    H2 4222   4.212   5.437   5.049
 1406TIP3   OH2 4223   6.369   2.923   1.871
 1406TIP3    H1 4224   6.280   2.909   1.836
 1406TIP3    H2 4225   6.368   3.014   1.902
 1407TIP3   OH2 4226   5.278   1.477   0.147
 1407TIP3    H1 4227   5.265   1.476   0.242
 1407TIP3    H2 4228   5.250   1.565   0.120
 1408TIP3   OH2 4229   0.905   1.994   1.416
 1408TIP3    H1 4230   0.908   2.030   1.504
 1408TIP3    H2 4231   0.843   2.050   1.369
 1409TIP3   OH2 4232   1.808   5.037   2.852
 1409TIP3    H1 4233   1.803   5.113   2.910
 1409TIP3    H2 4234   1.748   4.973   2.892
 1410TIP3   OH2 4235   5.671   4.027   3.625
 1410TIP3    H1 4236   5.701   3.941   3.595
 1410TIP3    H2 4237   5.748   4.066   3.665
 1411TIP3   OH2 4238   5.524   4.379   4.711
 1411TIP3    H1 4239   5.596   4.335   4.665
 1411TIP3    H2 4240   5.535   4.352   4.802
 1412TIP3   OH2 4241   2.103   0.953   3.163
 1412TIP3    H1 4242   2.064   0.884   3.110
 1412TIP3    H2 4243   2.049   1.031   3.145
 1413TIP3   OH2 4244   5.812   5.145   0.824
 1413TIP3    H1 4245   5.755   5.070   0.808
 1413TIP3    H2 4246   5.895   5.107   0.854
 1414TIP3   OH2 4247   2.967   3.217   1.122
 1414TIP3    H1 4248   2.938   3.299   1.080
 1414TIP3    H2 4249   3.001   3.245   1.207
 1415TIP3   OH2 4250   4.531   5.618   2.563
 1415TIP3    H1 4251   4.496   5.563   2.634
 1415TIP3    H2 4252   4.626   5.613   2.574
 1416TIP3   OH2 4253   2.248   1.437   4.427
 1416TIP3    H1 4254   2.265   1.484   4.346
 1416TIP3    H2 4255   2.254   1.504   4.496
 1417TIP3   OH2 4256   2.313   3.507   4.759
 1417TIP3    H1 4257   2.356   3.536   4.839
 1417TIP3    H2 4258   2.222   3.536   4.769
 1418TIP3   OH2 4259   3.889   1.836   0.671
 1418TIP3    H1 4260   3.819   1.771   0.671
 1418TIP3    H2 4261   3.967   1.788   0.644
 1419TIP3   OH2 4262   3.871   0.523   2.631
 1419TIP3    H1 4263   3.806   0.575   2.678
 1419TIP3    H2 4264   3.860   0.434   2.665
 1420TIP3   OH2 4265   0.305   3.174   4.037
 1420TIP3    H1 4266   0.377   3.235   4.025
 1420TIP3    H2 4267   0.245   3.192   3.965
 1421TIP3   OH2 4268   6.218   4.090   2.910
 1421TIP3    H1 4269   6.168   4.026   2.960
 1421TIP3    H2 4270   6.210   4.171   2.959
 1422TIP3   OH2 4271   5.902   5.552   4.806
 1422TIP3    H1 4272   5.994   5.527   4.817
 1422TIP3    H2 4273   5.893   5.565   4.711
 1423TIP3   OH2 4274   4.541   4.500   4.590
 1423TIP3    H1 4275   4.594   4.492   4.670
 1423TIP3    H2 4276   4.477   4.569   4.610
 1424TIP3   OH2 4277   4.909   3.840   4.892
 1424TIP3    H1 4278   4.886   3.753   4.924
 1424TIP3    H2 4279   4.863   3.848   4.809
 1425TIP3   OH2 4280   4.651   3.197   0.373
 1425TIP3    H1 4281   4.628   3.244   0.453
 1425TIP3    H2 4282   4.622   3.107   0.388
 1426TIP3   OH2 4283   2.408   1.652   2.754
 1426TIP3    H1 4284   2.473   1.721   2.765
 1426TIP3    H2 4285   2.377   1.633   2.843
 1427TIP3   OH2 4286   3.470   5.061   2.692
 1427TIP3    H1 4287   3.416   5.011   2.753
 1427TIP3    H2 4288   3.443   5.152   2.705
 1428TIP3   OH2 4289   5.131   0.818   3.213
 1428TIP3    H1 4290   5.094   0.846   3.130
 1428TIP3    H2 4291   5.151   0.725   3.201
 1429TIP3   OH2 4292   1.817   3.269   3.422
 1429TIP3    H1 4293   1.776   3.318   3.493
 1429TIP3    H2 4294   1.750   3.265   3.354
 1430TIP3   OH2 4295   5.396   0.405   1.980
 1430TIP3    H1 4296   5.341   0.416   1.902
 1430TIP3    H2 4297   5.393   0.490   2.023
 1431TIP3   OH2 4298   1.706   2.457   0.391
 1431TIP3    H1 4299   1.711   2.478   0.484
 1431TIP3    H2 4300   1.792   2.420   0.370
 1432TIP3   OH2 4301   3.435   0.289   1.696
 1432TIP3    H1 4302   3.459   0.373   1.658
 1432TIP3    H2 4303   3.407   0.309   1.785
 1433TIP3   OH2 4304   5.563   1.284   4.921
 1433TIP3    H1 4305   5.636   1.268   4.861
 1433TIP3    H2 4306   5.492   1.230   4.886
 1434TIP3   OH2 4307   4.515   4.090   2.323
 1434TIP3    H1 4308   4.486   4.024   2.260
 1434TIP3    H2 4309   4.434   4.122   2.363
 1435TIP3   OH2 4310   1.548   1.870   0.559
 1435TIP3    H1 4311   1.458   1.839   0.565
 1435TIP3    H2 4312   1.593   1.826   0.632
 1436TIP3   OH2 4313   6.306   1.106   1.472
 1436TIP3    H1 4314   6.278   1.041   1.536
 1436TIP3    H2 4315   6.274   1.072   1.388
 1437TIP3   OH2 4316   2.899   5.895   1.491
 1437TIP3    H1 4317   2.936   5.829   1.433
 1437TIP3    H2 4318   2.964   5.904   1.561
 1438TIP3   OH2 4319   6.040   5.255   0.296
 1438TIP3    H1 4320   6.121   5.303   0.312
 1438TIP3    H2 4321   6.029   5.259   0.201
 1439TIP3   OH2 4322   4.282   4.897   2.368
 1439TIP3    H1 4323   4.368   4.936   2.354
 1439TIP3    H2 4324   4.253   4.870   2.281
 1440TIP3   OH2 4325   3.188   1.452   2.424
 1440TIP3    H1 4326   3.254   1.487   2.484
 1440TIP3    H2 4327   3.188   1.358   2.440
 1441TIP3   OH2 4328   2.860   3.113   1.998
 1441TIP3    H1 4329   2.860   3.017   2.004
 1441TIP3    H2 4330   2.941   3.134   1.951
 1442TIP3   OH2 4331   2.626   0.678   1.082
 1442TIP3    H1 4332   2.592   0.598   1.044
 1442TIP3    H2 4333   2.627   0.740   1.009
 1443TIP3   OH2 4334   4.420   0.190   0.640
 1443TIP3    H1 4335   4.393   0.279   0.618
 1443TIP3    H2 4336   4.500   0.175   0.589
 1444TIP3   OH2 4337   3.486   5.022   1.676
 1444TIP3    H1 4338   3.505   5.104   1.721
 1444TIP3    H2 4339   3.468   5.048   1.585
 1445TIP3   OH2 4340   6.225   2.511   1.920
 1445TIP3    H1 4341   6.303   2.469   1.884
 1445TIP3    H2 4342   6.158   2.443   1.918
 1446TIP3   OH2 4343   3.790   1.878   1.687
 1446TIP3    H1 4344   3.807   1.791   1.650
 1446TIP3    H2 4345   3.874   1.923   1.681
 1447TIP3   OH2 4346   1.965   2.021   1.006
 1447TIP3    H1 4347   2.049   2.062   0.987
 1447TIP3    H2 4348   1.908   2.046   0.932
 1448TIP3   OH2 4349   4.574   5.152   2.064
 1448TIP3    H1 4350   4.507   5.088   2.040
 1448TIP3    H2 4351   4.656   5.102   2.063
 1449TIP3   OH2 4352   2.471   5.499   3.260
 1449TIP3    H1 4353   2.479   5.412   3.301
 1449TIP3    H2 4354   2.529   5.495   3.184
 1450TIP3   OH2 4355   6.246   0.942   0.629
 1450TIP3    H1 4356   6.217   0.989   0.550
 1450TIP3    H2 4357   6.166   0.903   0.664
 1451TIP3   OH2 4358   4.629   5.272   2.447
 1451TIP3    H1 4359   4.571   5.303   2.377
 1451TIP3    H2 4360   4.716   5.268   2.407
 1452TIP3   OH2 4361   2.227   0.668   3.861
 1452TIP3    H1 4362   2.158   0.635   3.803
 1452TIP3    H2 4363   2.257   0.590   3.909
 1453TIP3   OH2 4364   1.314   4.675   1.917
 1453TIP3    H1 4365   1.368   4.699   1.841
 1453TIP3    H2 4366   1.341   4.736   1.986
 1454TIP3   OH2 4367   2.304   2.934   2.005
 1454TIP3    H1 4368   2.248   2.873   1.957
 1454TIP3    H2 4369   2.289   2.914   2.097
 1455TIP3   OH2 4370   2.156   2.707   1.964
 1455TIP3    H1 4371   2.115   2.732   1.881
 1455TIP3    H2 4372   2.087   2.716   2.029
 1456TIP3   OH2 4373   2.207   0.364   0.612
 1456TIP3    H1 4374   2.208   0.294   0.548
 1456TIP3    H2 4375   2.116   0.366   0.644
 1457TIP3   OH2 4376   3.061   1.702   1.060
 1457TIP3    H1 4377   2.970   1.703   1.030
 1457TIP3    H2 4378   3.066   1.774   1.123
 1458TIP3   OH2 4379   2.149   4.746   4.336
 1458TIP3    H1 4380   2.220   4.698   4.378
 1458TIP3    H2 4381   2.073   4.688   4.345
 1459TIP3   OH2 4382   2.576   1.429   1.273
 1459TIP3    H1 4383   2.532   1.401   1.353
 1459TIP3    H2 4384   2.654   1.476   1.305
 1460TIP3   OH2 4385   2.193   1.579   3.928
 1460TIP3    H1 4386   2.170   1.488   3.945
 1460TIP3    H2 4387   2.282   1.588   3.963
 1461TIP3   OH2 4388   5.560   2.144   3.506
 1461TIP3    H1 4389   5.565   2.050   3.526
 1461TIP3    H2 4390   5.554   2.186   3.592
 1462TIP3   OH2 4391   1.990   5.964   0.816
 1462TIP3    H1 4392   2.062   5.940   0.757
 1462TIP3    H2 4393   2.025   5.951   0.904
 1463TIP3   OH2 4394   4.248   2.519   0.083
 1463TIP3    H1 4395   4.303   2.497   0.158
 1463TIP3    H2 4396   4.310   2.550   0.017
 1464TIP3   OH2 4397   0.006   1.364   2.609
 1464TIP3    H1 4398   0.023   1.449   2.650
 1464TIP3    H2 4399   0.079   1.352   2.548
 1465TIP3   OH2 4400   6.147   4.250   4.093
 1465TIP3    H1 4401   6.138   4.324   4.033
 1465TIP3    H2 4402   6.078   4.262   4.158
 1466TIP3   OH2 4403   4.730   1.098   4.625
 1466TIP3    H1 4404   4.807   1.154   4.621
 1466TIP3    H2 4405   4.744   1.044   4.703
 1467TIP3   OH2 4406   6.086   1.794   3.888
 1467TIP3    H1 4407   6.003   1.797   3.934
 1467TIP3    H2 4408   6.136   1.867   3.924
 1468TIP3   OH2 4409   3.598   2.805   3.398
 1468TIP3    H1 4410   3.664   2.745   3.364
 1468TIP3    H2 4411   3.627   2.891   3.369
 1469TIP3   OH2 4412   3.325   1.587   4.308
 1469TIP3    H1 4413   3.269   1.585   4.230
 1469TIP3    H2 4414   3.414   1.591   4.273
 1470TIP3   OH2 4415   4.113   2.489   3.386
 1470TIP3    H1 4416   4.182   2.444   3.435
 1470TIP3    H2 4417   4.090   2.565   3.440
 1471TIP3   OH2 4418   4.835   4.611   3.576
 1471TIP3    H1 4419   4.888   4.674   3.625
 1471TIP3    H2 4420   4.807   4.547   3.641
 1472TIP3   OH2 4421   4.357   3.173   3.090
 1472TIP3    H1 4422   4.403   3.096   3.059
 1472TIP3    H2 4423   4.361   3.166   3.186
 1473TIP3   OH2 4424   4.645   2.456   0.602
 1473TIP3    H1 4425   4.720   2.511   0.582
 1473TIP3    H2 4426   4.666   2.416   0.686
 1474TIP3   OH2 4427   0.678   0.717   2.154
 1474TIP3    H1 4428   0.616   0.707   2.081
 1474TIP3    H2 4429   0.754   0.665   2.127
 1475TIP3   OH2 4430   4.352   5.311   3.587
 1475TIP3    H1 4431   4.382   5.369   3.516
 1475TIP3    H2 4432   4.354   5.367   3.665
 1476TIP3   OH2 4433   3.046   1.209   0.690
 1476TIP3    H1 4434   3.093   1.146   0.745
 1476TIP3    H2 4435   3.115   1.255   0.642
 1477TIP3   OH2 4436   2.030   3.020   1.461
 1477TIP3    H1 4437   1.939   3.051   1.458
 1477TIP3    H2 4438   2.075   3.085   1.515
 1478TIP3   OH2 4439   2.552   3.128   4.566
 1478TIP3    H1 4440   2.515   3.066   4.504
 1478TIP3    H2 4441   2.617   3.078   4.615
 1479TIP3   OH2 4442   2.794   4.973   4.856
 1479TIP3    H1 4443   2.766   5.046   4.912
 1479TIP3    H2 4444   2.877   4.943   4.895
 1480TIP3   OH2 4445   1.376   5.655   0.532
 1480TIP3    H1 4446   1.408   5.571   0.566
 1480TIP3    H2 4447   1.456   5.704   0.513
 1481TIP3   OH2 4448   2.063   5.584   2.873
 1481TIP3    H1 4449   2.099   5.656   2.925
 1481TIP3    H2 4450   2.102   5.505   2.912
 1482TIP3   OH2 4451   1.191   3.634   0.382
 1482TIP3    H1 4452   1.161   3.591   0.302
 1482TIP3    H2 4453   1.195   3.727   0.360
 1483TIP3   OH2 4454   2.606   3.848   4.653
 1483TIP3    H1 4455   2.606   3.752   4.645
 1483TIP3    H2 4456   2.624   3.864   4.746
 1484TIP3   OH2 4457   3.117   3.933   0.343
 1484TIP3    H1 4458   3.134   4.023   0.369
 1484TIP3    H2 4459   3.172   3.880   0.401
 1485TIP3   OH2 4460   5.604   3.358   0.294
 1485TIP3    H1 4461   5.535   3.293   0.300
 1485TIP3    H2 4462   5.653   3.334   0.215
 1486TIP3   OH2 4463   0.435   0.174   0.166
 1486TIP3    H1 4464   0.438   0.141   0.256
 1486TIP3    H2 4465   0.455   0.097   0.112
 1487TIP3   OH2 4466   1.038   3.603   3.995
 1487TIP3    H1 4467   0.958   3.575   4.040
 1487TIP3    H2 4468   1.020   3.693   3.968
 1488TIP3   OH2 4469   1.216   5.857   3.692
 1488TIP3    H1 4470   1.268   5.832   3.769
 1488TIP3    H2 4471   1.135   5.806   3.700
 1489TIP3   OH2 4472   3.242   3.040   3.286
 1489TIP3    H1 4473   3.241   3.001   3.198
 1489TIP3    H2 4474   3.331   3.022   3.318
 1490TIP3   OH2 4475   2.230   0.678   5.146
 1490TIP3    H1 4476   2.309   0.630   5.172
 1490TIP3    H2 4477   2.248   0.707   5.057
 1491TIP3   OH2 4478   4.415   4.994   5.114
 1491TIP3    H1 4479   4.368   5.000   5.197
 1491TIP3    H2 4480   4.356   4.945   5.056
 1492TIP3   OH2 4481   0.456   2.337   4.795
 1492TIP3    H1 4482   0.371   2.347   4.838
 1492TIP3    H2 4483   0.436   2.328   4.702
 1493TIP3   OH2 4484   1.552   0.782   1.992
 1493TIP3    H1 4485   1.507   0.818   2.069
 1493TIP3    H2 4486   1.506   0.821   1.918
 1494TIP3   OH2 4487   0.914   0.240   0.914
 1494TIP3    H1 4488   0.830   0.205   0.943
 1494TIP3    H2 4489   0.977   0.208   0.979
 1495TIP3   OH2 4490   4.981   1.154   2.412
 1495TIP3    H1 4491   5.054   1.204   2.376
 1495TIP3    H2 4492   4.987   1.168   2.507
 1496TIP3   OH2 4493   2.175   5.029   3.029
 1496TIP3    H1 4494   2.123   5.026   3.109
 1496TIP3    H2 4495   2.254   5.078   3.053
 1497TIP3   OH2 4496   3.435   0.061   0.291
 1497TIP3    H1 4497   3.340   0.067   0.285
 1497TIP3    H2 4498   3.465   0.059   0.200
 1498TIP3   OH2 4499   5.870   0.025   0.184
 1498TIP3    H1 4500   5.866   0.083   0.107
 1498TIP3    H2 4501   5.784   0.033   0.225
 1499TIP3   OH2 4502   0.747   3.990   0.449
 1499TIP3    H1 4503   0.787   3.999   0.535
 1499TIP3    H2 4504   0.683   3.920   0.458
 1500TIP3   OH2 4505   5.925   3.616   0.640
 1500TIP3    H1 4506   5.859   3.595   0.573
 1500TIP3    H2 4507   5.939   3.533   0.686
 1501TIP3   OH2 4508   0.252   2.322   2.462
 1501TIP3    H1 4509   0.160   2.349   2.462
 1501TIP3    H2 4510   0.299   2.398   2.426
 1502TIP3   OH2 4511   4.143   4.393   2.614
 1502TIP3    H1 4512   4.083   4.449   2.662
 1502TIP3    H2 4513   4.165   4.323   2.675
 1503TIP3   OH2 4514   0.543   3.850   2.838
 1503TIP3    H1 4515   0.559   3.887   2.750
 1503TIP3    H2 4516   0.631   3.828   2.870
 1504TIP3   OH2 4517   2.720   0.311   4.310
 1504TIP3    H1 4518   2.701   0.368   4.385
 1504TIP3    H2 4519   2.812   0.327   4.292
 1505TIP3   OH2 4520   5.859   2.410   1.021
 1505TIP3    H1 4521   5.890   2.320   1.031
 1505TIP3    H2 4522   5.796   2.406   0.949
 1506TIP3   OH2 4523   5.447   3.806   5.078
 1506TIP3    H1 4524   5.506   3.862   5.028
 1506TIP3    H2 4525   5.383   3.775   5.014
 1507TIP3   OH2 4526   0.560   5.557   1.115
 1507TIP3    H1 4527   0.632   5.497   1.133
 1507TIP3    H2 4528   0.482   5.512   1.148
 1508TIP3   OH2 4529   1.517   3.996   1.098
 1508TIP3    H1 4530   1.610   4.015   1.084
 1508TIP3    H2 4531   1.516   3.915   1.149
 1509TIP3   OH2 4532   6.063   4.969   2.499
 1509TIP3    H1 4533   6.107   4.886   2.519
 1509TIP3    H2 4534   6.011   4.950   2.421
 1510TIP3   OH2 4535   5.244   5.314   1.500
 1510TIP3    H1 4536   5.196   5.297   1.581
 1510TIP3    H2 4537   5.328   5.269   1.512
 1511TIP3   OH2 4538   0.773   2.011   0.244
 1511TIP3    H1 4539   0.792   1.918   0.254
 1511TIP3    H2 4540   0.819   2.053   0.318
 1512TIP3   OH2 4541   1.532   1.583   0.097
 1512TIP3    H1 4542   1.561   1.492   0.093
 1512TIP3    H2 4543   1.437   1.579   0.087
 1513TIP3   OH2 4544   0.619   1.460   3.905
 1513TIP3    H1 4545   0.671   1.469   3.984
 1513TIP3    H2 4546   0.630   1.368   3.878
 1514TIP3   OH2 4547   5.044   1.652   1.774
 1514TIP3    H1 4548   5.132   1.689   1.776
 1514TIP3    H2 4549   4.987   1.723   1.801
 1515TIP3   OH2 4550  -0.001   4.216   0.681
 1515TIP3    H1 4551   0.073   4.271   0.706
 1515TIP3    H2 4552  -0.040   4.261   0.606
 1516TIP3   OH2 4553   5.731   4.917   3.995
 1516TIP3    H1 4554   5.687   4.882   4.072
 1516TIP3    H2 4555   5.676   4.891   3.922
 1517TIP3   OH2 4556   3.130   3.819   0.736
 1517TIP3    H1 4557   3.154   3.763   0.662
 1517TIP3    H2 4558   3.070   3.883   0.699
 1518TIP3   OH2 4559   2.346   3.663   4.205
 1518TIP3    H1 4560   2.321   3.585   4.254
 1518TIP3    H2 4561   2.263   3.703   4.179
 1519TIP3   OH2 4562   2.905   0.453   3.421
 1519TIP3    H1 4563   2.861   0.372   3.396
 1519TIP3    H2 4564   2.968   0.427   3.488
 1520TIP3   OH2 4565   2.590   1.845   2.144
 1520TIP3    H1 4566   2.517   1.787   2.160
 1520TIP3    H2 4567   2.575   1.878   2.055
 1521TIP3   OH2 4568   2.315   0.475   3.557
 1521TIP3    H1 4569   2.337   0.567   3.545
 1521TIP3    H2 4570   2.241   0.460   3.498
 1522TIP3   OH2 4571   0.337   5.140   0.945
 1522TIP3    H1 4572   0.278   5.163   0.873
 1522TIP3    H2 4573   0.323   5.207   1.011
 1523TIP3   OH2 4574   6.286   2.884   4.593
 1523TIP3    H1 4575   6.343   2.958   4.575
 1523TIP3    H2 4576   6.309   2.856   4.682
 1524TIP3   OH2 4577   4.897   1.455   1.872
 1524TIP3    H1 4578   4.950   1.513   1.817
 1524TIP3    H2 4579   4.845   1.515   1.926
 1525TIP3   OH2 4580   3.968   2.838   3.160
 1525TIP3    H1 4581   3.966   2.883   3.076
 1525TIP3    H2 4582   4.008   2.901   3.221
 1526TIP3   OH2 4583   0.212   3.915   3.815
 1526TIP3    H1 4584   0.272   3.989   3.824
 1526TIP3    H2 4585   0.267   3.842   3.787
 1527TIP3   OH2 4586   3.296   1.504   0.948
 1527TIP3    H1 4587   3.207   1.468   0.939
 1527TIP3    H2 4588   3.315   1.496   1.041
 1528TIP3   OH2 4589   1.071   2.734   1.489
 1528TIP3    H1 4590   1.166   2.720   1.488
 1528TIP3    H2 4591   1.034   2.648   1.468
 1529TIP3   OH2 4592   1.515   1.359   2.028
 1529TIP3    H1 4593   1.573   1.433   2.043
 1529TIP3    H2 4594   1.486   1.332   2.115
 1530TIP3   OH2 4595   0.951   5.889   2.116
 1530TIP3    H1 4596   0.883   5.825   2.095
 1530TIP3    H2 4597   0.903   5.972   2.124
 1531TIP3   OH2 4598   3.885   3.913   4.206
 1531TIP3    H1 4599   3.861   3.929   4.115
 1531TIP3    H2 4600   3.864   3.995   4.251
 1532TIP3   OH2 4601   1.971   2.191   1.837
 1532TIP3    H1 4602   2.064   2.202   1.855
 1532TIP3    H2 4603   1.968   2.143   1.754
 1533TIP3   OH2 4604   2.051   4.314   2.568
 1533TIP3    H1 4605   2.009   4.316   2.482
 1533TIP3    H2 4606   1.989   4.268   2.624
 1534TIP3   OH2 4607   4.653   4.180   4.107
 1534TIP3    H1 4608   4.582   4.243   4.095
 1534TIP3    H2 4609   4.718   4.226   4.160
 1535TIP3   OH2 4610   0.623   5.070   1.929
 1535TIP3    H1 4611   0.688   5.140   1.920
 1535TIP3    H2 4612   0.581   5.087   2.013
 1536TIP3   OH2 4613   5.250   0.176   4.601
 1536TIP3    H1 4614   5.182   0.239   4.625
 1536TIP3    H2 4615   5.275   0.201   4.512
 1537TIP3   OH2 4616   4.664   0.122   4.995
 1537TIP3    H1 4617   4.619   0.116   5.079
 1537TIP3    H2 4618   4.610   0.070   4.935
 1538TIP3   OH2 4619   2.842   0.249   4.847
 1538TIP3    H1 4620   2.812   0.337   4.868
 1538TIP3    H2 4621   2.778   0.216   4.783
 1539TIP3   OH2 4622   5.493   3.607   0.253
 1539TIP3    H1 4623   5.400   3.591   0.269
 1539TIP3    H2 4624   5.532   3.519   0.251
 1540TIP3   OH2 4625   2.975   5.492   0.438
 1540TIP3    H1 4626   2.939   5.415   0.395
 1540TIP3    H2 4627   3.006   5.548   0.367
 1541TIP3   OH2 4628   4.743   3.497   0.335
 1541TIP3    H1 4629   4.808   3.496   0.264
 1541TIP3    H2 4630   4.730   3.405   0.357
 1542TIP3   OH2 4631   3.603   3.977   4.974
 1542TIP3    H1 4632   3.520   3.999   4.931
 1542TIP3    H2 4633   3.669   3.987   4.906
 1543TIP3   OH2 4634   1.533   3.750   1.221
 1543TIP3    H1 4635   1.558   3.713   1.136
 1543TIP3    H2 4636   1.596   3.714   1.282
 1544TIP3   OH2 4637   4.914   2.152   4.606
 1544TIP3    H1 4638   4.911   2.236   4.652
 1544TIP3    H2 4639   4.857   2.165   4.529
 1545TIP3   OH2 4640   0.293   5.807   3.346
 1545TIP3    H1 4641   0.266   5.716   3.363
 1545TIP3    H2 4642   0.345   5.801   3.266
 1546TIP3   OH2 4643   4.065   0.635   5.080
 1546TIP3    H1 4644   4.133   0.578   5.117
 1546TIP3    H2 4645   3.987   0.616   5.132
 1547TIP3   OH2 4646   0.874   1.580   2.490
 1547TIP3    H1 4647   0.822   1.517   2.441
 1547TIP3    H2 4648   0.899   1.533   2.570
 1548TIP3   OH2 4649   1.879   4.867   3.287
 1548TIP3    H1 4650   1.932   4.937   3.324
 1548TIP3    H2 4651   1.790   4.884   3.318
 1549TIP3   OH2 4652   0.280   1.708   1.044
 1549TIP3    H1 4653   0.284   1.718   1.139
 1549TIP3    H2 4654   0.372   1.709   1.016
 1550TIP3   OH2 4655   5.046   1.445  -0.016
 1550TIP3    H1 4656   4.995   1.525  -0.026
 1550TIP3    H2 4657   5.106   1.464   0.057
 1551TIP3   OH2 4658   4.110   4.756   4.221
 1551TIP3    H1 4659   4.171   4.693   4.183
 1551TIP3    H2 4660   4.091   4.721   4.308
 1552TIP3   OH2 4661   4.391   2.982   3.595
 1552TIP3    H1 4662   4.387   2.901   3.545
 1552TIP3    H2 4663   4.319   2.976   3.658
 1553TIP3   OH2 4664   2.298   2.275   0.682
 1553TIP3    H1 4665   2.374   2.283   0.740
 1553TIP3    H2 4666   2.251   2.357   0.693
 1554TIP3   OH2 4667   1.764   4.640   0.626
 1554TIP3    H1 4668   1.718   4.602   0.551
 1554TIP3    H2 4669   1.855   4.616   0.612
 1555TIP3   OH2 4670   5.118   4.445   0.567
 1555TIP3    H1 4671   5.192   4.495   0.532
 1555TIP3    H2 4672   5.060   4.511   0.605
 1556TIP3   OH2 4673   3.958   5.567   0.696
 1556TIP3    H1 4674   4.039   5.545   0.649
 1556TIP3    H2 4675   3.912   5.627   0.637
 1557TIP3   OH2 4676   4.656   2.221   2.296
 1557TIP3    H1 4677   4.585   2.285   2.301
 1557TIP3    H2 4678   4.679   2.205   2.388
 1558TIP3   OH2 4679   2.844   2.028   0.933
 1558TIP3    H1 4680   2.937   2.046   0.918
 1558TIP3    H2 4681   2.830   1.941   0.894
 1559TIP3   OH2 4682   0.074   3.936   2.258
 1559TIP3    H1 4683   0.009   3.998   2.223
 1559TIP3    H2 4684   0.050   3.852   2.218
 1560TIP3   OH2 4685   3.911   1.983   2.020
 1560TIP3    H1 4686   3.958   2.016   2.096
 1560TIP3    H2 4687   3.827   2.029   2.022
 1561TIP3   OH2 4688   0.203   5.241   0.695
 1561TIP3    H1 4689   0.225   5.168   0.638
 1561TIP3    H2 4690   0.181   5.313   0.636
 1562TIP3   OH2 4691   2.726   3.976   1.128
 1562TIP3    H1 4692   2.743   4.025   1.209
 1562TIP3    H2 4693   2.799   3.915   1.121
 1563TIP3   OH2 4694   4.332   1.389   3.057
 1563TIP3    H1 4695   4.382   1.405   2.977
 1563TIP3    H2 4696   4.339   1.471   3.106
 1564TIP3   OH2 4697   6.213   1.756   0.080
 1564TIP3    H1 4698   6.124   1.761   0.046
 1564TIP3    H2 4699   6.220   1.668   0.116
 1565TIP3   OH2 4700   1.963   1.512   0.023
 1565TIP3    H1 4701   1.925   1.596  -0.003
 1565TIP3    H2 4702   1.898   1.474   0.083
 1566TIP3   OH2 4703   3.478   2.618   4.953
 1566TIP3    H1 4704   3.497   2.687   4.890
 1566TIP3    H2 4705   3.562   2.600   4.996
 1567TIP3   OH2 4706   6.179   4.756   3.542
 1567TIP3    H1 4707   6.193   4.664   3.518
 1567TIP3    H2 4708   6.123   4.791   3.473
 1568TIP3   OH2 4709   3.047   0.680   3.469
 1568TIP3    H1 4710   3.130   0.681   3.420
 1568TIP3    H2 4711   2.992   0.618   3.422
 1569TIP3   OH2 4712   2.736   1.546   0.241
 1569TIP3    H1 4713   2.641   1.540   0.229
 1569TIP3    H2 4714   2.771   1.469   0.197
 1570TIP3   OH2 4715   4.948   4.341   0.363
 1570TIP3    H1 4716   4.999   4.263   0.341
 1570TIP3    H2 4717   4.970   4.359   0.454
 1571TIP3   OH2 4718   3.667   4.928   4.920
 1571TIP3    H1 4719   3.651   5.008   4.969
 1571TIP3    H2 4720   3.703   4.867   4.985
 1572TIP3   OH2 4721   4.809   0.136   2.362
 1572TIP3    H1 4722   4.871   0.156   2.292
 1572TIP3    H2 4723   4.750   0.071   2.324
 1573TIP3   OH2 4724   1.154   0.388   3.462
 1573TIP3    H1 4725   1.185   0.413   3.549
 1573TIP3    H2 4726   1.211   0.436   3.402
 1574TIP3   OH2 4727   1.197   1.912   3.175
 1574TIP3    H1 4728   1.277   1.964   3.171
 1574TIP3    H2 4729   1.185   1.895   3.268
 1575TIP3   OH2 4730   4.732   1.697   2.801
 1575TIP3    H1 4731   4.807   1.655   2.759
 1575TIP3    H2 4732   4.721   1.652   2.884
 1576TIP3   OH2 4733   5.496   2.549   4.694
 1576TIP3    H1 4734   5.477   2.573   4.603
 1576TIP3    H2 4735   5.485   2.631   4.743
 1577TIP3   OH2 4736   2.062   5.456   2.633
 1577TIP3    H1 4737   2.064   5.516   2.708
 1577TIP3    H2 4738   2.129   5.391   2.653
 1578TIP3   OH2 4739   5.670   2.393   2.768
 1578TIP3    H1 4740   5.718   2.394   2.850
 1578TIP3    H2 4741   5.659   2.485   2.744
 1579TIP3   OH2 4742   0.862   2.208   2.501
 1579TIP3    H1 4743   0.929   2.196   2.568
 1579TIP3    H2 4744   0.833   2.298   2.512
 1580TIP3   OH2 4745   2.076   0.676   1.168
 1580TIP3    H1 4746   2.160   0.693   1.125
 1580TIP3    H2 4747   2.039   0.763   1.182
 1581TIP3   OH2 4748   0.027   2.945   3.171
 1581TIP3    H1 4749   0.080   2.945   3.091
 1581TIP3    H2 4750   0.055   2.867   3.218
 1582TIP3   OH2 4751   3.281   4.798   3.740
 1582TIP3    H1 4752   3.325   4.857   3.801
 1582TIP3    H2 4753   3.237   4.857   3.679
 1583TIP3   OH2 4754   1.426   0.797   4.177
 1583TIP3    H1 4755   1.403   0.838   4.094
 1583TIP3    H2 4756   1.520   0.812   4.186
 1584TIP3   OH2 4757   0.070   0.807   4.511
 1584TIP3    H1 4758   0.076   0.835   4.602
 1584TIP3    H2 4759   0.118   0.724   4.508
 1585TIP3   OH2 4760   3.602   0.831   2.402
 1585TIP3    H1 4761   3.640   0.917   2.423
 1585TIP3    H2 4762   3.638   0.810   2.315
 1586TIP3   OH2 4763   5.679   2.548   3.281
 1586TIP3    H1 4764   5.692   2.455   3.299
 1586TIP3    H2 4765   5.671   2.589   3.367
 1587TIP3   OH2 4766   5.245   3.469   0.148
 1587TIP3    H1 4767   5.166   3.485   0.096
 1587TIP3    H2 4768   5.294   3.405   0.096
 1588TIP3   OH2 4769   0.847   2.315   0.737
 1588TIP3    H1 4770   0.864   2.365   0.817
 1588TIP3    H2 4771   0.921   2.338   0.679
 1589TIP3   OH2 4772   5.516   2.797   5.107
 1589TIP3    H1 4773   5.575   2.761   5.173
 1589TIP3    H2 4774   5.474   2.871   5.151
 1590TIP3   OH2 4775   5.560   1.814   0.519
 1590TIP3    H1 4776   5.507   1.821   0.439
 1590TIP3    H2 4777   5.527   1.884   0.575
 1591TIP3   OH2 4778   3.774   1.229   0.739
 1591TIP3    H1 4779   3.846   1.249   0.798
 1591TIP3    H2 4780   3.817   1.205   0.657
 1592TIP3   OH2 4781   2.755   3.062   2.338
 1592TIP3    H1 4782   2.781   3.126   2.272
 1592TIP3    H2 4783   2.834   3.012   2.357
 1593TIP3   OH2 4784   6.085   1.831   0.706
 1593TIP3    H1 4785   5.994   1.825   0.734
 1593TIP3    H2 4786   6.098   1.754   0.652
 1594TIP3   OH2 4787   2.539   2.986   2.528
 1594TIP3    H1 4788   2.631   2.977   2.501
 1594TIP3    H2 4789   2.503   3.052   2.470
 1595TIP3   OH2 4790   1.653   2.751   2.809
 1595TIP3    H1 4791   1.604   2.801   2.875
 1595TIP3    H2 4792   1.637   2.660   2.830
 1596TIP3   OH2 4793   5.402   0.129   2.181
 1596TIP3    H1 4794   5.474   0.113   2.120
 1596TIP3    H2 4795   5.323   0.120   2.127
 1597TIP3   OH2 4796   2.646   2.027   0.248
 1597TIP3    H1 4797   2.573   1.967   0.240
 1597TIP3    H2 4798   2.708   2.001   0.180
 1598TIP3   OH2 4799   2.320   3.828   0.550
 1598TIP3    H1 4800   2.266   3.902   0.521
 1598TIP3    H2 4801   2.368   3.802   0.471
 1599TIP3   OH2 4802   1.534   5.963   4.649
 1599TIP3    H1 4803   1.484   5.961   4.730
 1599TIP3    H2 4804   1.616   6.006   4.672
 1600TIP3   OH2 4805   4.454   4.705   2.854
 1600TIP3    H1 4806   4.513   4.659   2.794
 1600TIP3    H2 4807   4.448   4.793   2.818
 1601TIP3   OH2 4808   2.226   5.940   3.556
 1601TIP3    H1 4809   2.216   5.846   3.543
 1601TIP3    H2 4810   2.321   5.953   3.563
 1602TIP3   OH2 4811   2.854   1.300   0.156
 1602TIP3    H1 4812   2.771   1.292   0.109
 1602TIP3    H2 4813   2.917   1.253   0.102
 1603TIP3   OH2 4814   2.543   4.298   4.119
 1603TIP3    H1 4815   2.556   4.270   4.209
 1603TIP3    H2 4816   2.481   4.236   4.082
 1604TIP3   OH2 4817   4.084   0.069   1.714
 1604TIP3    H1 4818   4.168   0.071   1.758
 1604TIP3    H2 4819   4.036  -0.002   1.757
 1605TIP3   OH2 4820   5.172   5.528   0.818
 1605TIP3    H1 4821   5.152   5.570   0.902
 1605TIP3    H2 4822   5.265   5.546   0.805
 1606TIP3   OH2 4823   4.430   5.174   3.145
 1606TIP3    H1 4824   4.469   5.163   3.231
 1606TIP3    H2 4825   4.426   5.086   3.108
 1607TIP3   OH2 4826   3.094   1.942   3.590
 1607TIP3    H1 4827   3.111   1.949   3.496
 1607TIP3    H2 4828   3.180   1.951   3.631
 1608TIP3   OH2 4829   4.050   3.641   3.433
 1608TIP3    H1 4830   4.032   3.567   3.374
 1608TIP3    H2 4831   4.079   3.711   3.375
 1609TIP3   OH2 4832   3.654   0.345   4.230
 1609TIP3    H1 4833   3.632   0.434   4.258
 1609TIP3    H2 4834   3.713   0.358   4.156
 1610TIP3   OH2 4835   5.960   3.664   0.121
 1610TIP3    H1 4836   5.994   3.746   0.156
 1610TIP3    H2 4837   6.019   3.597   0.157
 1611TIP3   OH2 4838   3.029   2.994   5.098
 1611TIP3    H1 4839   2.978   2.921   5.134
 1611TIP3    H2 4840   3.019   3.064   5.162
 1612TIP3   OH2 4841   3.447   3.618   3.034
 1612TIP3    H1 4842   3.410   3.592   2.949
 1612TIP3    H2 4843   3.536   3.648   3.013
 1613TIP3   OH2 4844   1.977   4.677   3.929
 1613TIP3    H1 4845   1.920   4.727   3.871
 1613TIP3    H2 4846   1.983   4.730   4.009
 1614TIP3   OH2 4847   2.523   0.385   3.713
 1614TIP3    H1 4848   2.488   0.300   3.742
 1614TIP3    H2 4849   2.472   0.406   3.635
 1615TIP3   OH2 4850   2.063   4.715   4.664
 1615TIP3    H1 4851   2.064   4.623   4.691
 1615TIP3    H2 4852   2.030   4.713   4.575
 1616TIP3   OH2 4853   2.214   5.905   0.668
 1616TIP3    H1 4854   2.244   5.837   0.609
 1616TIP3    H2 4855   2.256   5.985   0.636
 1617TIP3   OH2 4856   0.872   1.574   4.756
 1617TIP3    H1 4857   0.937   1.628   4.800
 1617TIP3    H2 4858   0.841   1.513   4.823
 1618TIP3   OH2 4859   4.069   1.707   3.795
 1618TIP3    H1 4860   3.978   1.684   3.816
 1618TIP3    H2 4861   4.083   1.669   3.708
 1619TIP3   OH2 4862   5.034   3.530   2.561
 1619TIP3    H1 4863   5.033   3.625   2.572
 1619TIP3    H2 4864   5.006   3.516   2.471
 1620TIP3   OH2 4865   1.825   4.883   3.852
 1620TIP3    H1 4866   1.801   4.955   3.910
 1620TIP3    H2 4867   1.917   4.898   3.831
 1621TIP3   OH2 4868   5.885   4.923   1.815
 1621TIP3    H1 4869   5.971   4.912   1.774
 1621TIP3    H2 4870   5.877   4.846   1.872
 1622TIP3   OH2 4871   6.071   1.771   4.539
 1622TIP3    H1 4872   6.132   1.817   4.481
 1622TIP3    H2 4873   6.112   1.686   4.555
 1623TIP3   OH2 4874   2.305   3.240   2.840
 1623TIP3    H1 4875   2.246   3.225   2.913
 1623TIP3    H2 4876   2.377   3.178   2.853
 1624TIP3   OH2 4877   1.964   2.017   1.629
 1624TIP3    H1 4878   1.923   1.933   1.648
 1624TIP3    H2 4879   1.903   2.060   1.568
 1625TIP3   OH2 4880   0.209   1.528   1.559
 1625TIP3    H1 4881   0.218   1.590   1.631
 1625TIP3    H2 4882   0.116   1.529   1.538
 1626TIP3   OH2 4883   4.015   4.646   2.389
 1626TIP3    H1 4884   4.016   4.698   2.310
 1626TIP3    H2 4885   4.058   4.701   2.455
 1627TIP3   OH2 4886   1.111   4.033   3.815
 1627TIP3    H1 4887   1.204   4.048   3.798
 1627TIP3    H2 4888   1.067   4.069   3.737
 1628TIP3   OH2 4889   5.876   2.471   3.523
 1628TIP3    H1 4890   5.911   2.406   3.583
 1628TIP3    H2 4891   5.790   2.492   3.558
 1629TIP3   OH2 4892   1.054   2.367   0.569
 1629TIP3    H1 4893   1.057   2.460   0.591
 1629TIP3    H2 4894   1.143   2.336   0.583
 1630TIP3   OH2 4895   5.522   5.383   4.695
 1630TIP3    H1 4896   5.617   5.381   4.695
 1630TIP3    H2 4897   5.498   5.415   4.607
 1631TIP3   OH2 4898   0.361   0.466   3.461
 1631TIP3    H1 4899   0.421   0.420   3.401
 1631TIP3    H2 4900   0.392   0.440   3.548
 1632TIP3   OH2 4901   6.239   3.459   0.622
 1632TIP3    H1 4902   6.334   3.459   0.608
 1632TIP3    H2 4903   6.214   3.550   0.608
 1633TIP3   OH2 4904   2.973   0.099   0.631
 1633TIP3    H1 4905   2.905   0.063   0.688
 1633TIP3    H2 4906   2.927   0.127   0.552
 1634TIP3   OH2 4907   3.594   4.788   2.181
 1634TIP3    H1 4908   3.528   4.813   2.116
 1634TIP3    H2 4909   3.660   4.740   2.131
 1635TIP3   OH2 4910   1.377   0.495   1.158
 1635TIP3    H1 4911   1.388   0.584   1.189
 1635TIP3    H2 4912   1.359   0.504   1.064
 1636TIP3   OH2 4913   3.038   3.620   2.998
 1636TIP3    H1 4914   3.044   3.623   2.903
 1636TIP3    H2 4915   3.050   3.710   3.026
 1637TIP3   OH2 4916   0.999   1.986   4.780
 1637TIP3    H1 4917   0.914   2.029   4.772
 1637TIP3    H2 4918   1.062   2.056   4.770
 1638TIP3   OH2 4919   3.328   3.257   4.639
 1638TIP3    H1 4920   3.415   3.274   4.674
 1638TIP3    H2 4921   3.333   3.169   4.604
 1639TIP3   OH2 4922   3.524   5.223   2.987
 1639TIP3    H1 4923   3.586   5.291   2.963
 1639TIP3    H2 4924   3.440   5.269   2.993
 1640TIP3   OH2 4925   0.877   0.445   2.286
 1640TIP3    H1 4926   0.825   0.442   2.367
 1640TIP3    H2 4927   0.832   0.385   2.227
 1641TIP3   OH2 4928   2.986   2.831   1.212
 1641TIP3    H1 4929   2.904   2.875   1.232
 1641TIP3    H2 4930   3.031   2.889   1.150
 1642TIP3   OH2 4931   1.180   0.167   0.749
 1642TIP3    H1 4932   1.094   0.204   0.766
 1642TIP3    H2 4933   1.200   0.113   0.825
 1643TIP3   OH2 4934   2.970   0.115   1.488
 1643TIP3    H1 4935   2.970   0.092   1.395
 1643TIP3    H2 4936   2.997   0.207   1.491
 1644TIP3   OH2 4937   3.299   1.994   4.008
 1644TIP3    H1 4938   3.208   2.016   3.990
 1644TIP3    H2 4939   3.313   1.910   3.964
 1645TIP3   OH2 4940   0.113   4.617   3.626
 1645TIP3    H1 4941   0.078   4.593   3.541
 1645TIP3    H2 4942   0.044   4.592   3.688
 1646TIP3   OH2 4943   1.087   4.096   4.618
 1646TIP3    H1 4944   1.144   4.069   4.546
 1646TIP3    H2 4945   0.999   4.077   4.588
 1647TIP3   OH2 4946   2.462   2.067   2.245
 1647TIP3    H1 4947   2.537   2.010   2.226
 1647TIP3    H2 4948   2.412   2.068   2.164
 1648TIP3   OH2 4949   6.092   5.275   4.956
 1648TIP3    H1 4950   6.028   5.295   5.024
 1648TIP3    H2 4951   6.134   5.360   4.937
 1649TIP3   OH2 4952   3.698   0.849   0.449
 1649TIP3    H1 4953   3.731   0.805   0.371
 1649TIP3    H2 4954   3.662   0.778   0.503
 1650TIP3   OH2 4955   2.859   1.867   0.138
 1650TIP3    H1 4956   2.951   1.887   0.120
 1650TIP3    H2 4957   2.861   1.812   0.216
 1651TIP3   OH2 4958   1.261   2.428   2.636
 1651TIP3    H1 4959   1.291   2.469   2.555
 1651TIP3    H2 4960   1.181   2.477   2.659
 1652TIP3   OH2 4961   5.837   1.212   1.825
 1652TIP3    H1 4962   5.918   1.172   1.856
 1652TIP3    H2 4963   5.864   1.298   1.793
 1653TIP3   OH2 4964   5.809   1.907   2.497
 1653TIP3    H1 4965   5.839   1.989   2.458
 1653TIP3    H2 4966   5.841   1.910   2.587
 1654TIP3   OH2 4967   5.576   3.864   3.075
 1654TIP3    H1 4968   5.498   3.875   3.130
 1654TIP3    H2 4969   5.557   3.789   3.019
 1655TIP3   OH2 4970   4.353   2.411   3.501
 1655TIP3    H1 4971   4.372   2.502   3.478
 1655TIP3    H2 4972   4.425   2.385   3.558
 1656TIP3   OH2 4973   5.192   3.132   3.386
 1656TIP3    H1 4974   5.232   3.104   3.304
 1656TIP3    H2 4975   5.262   3.178   3.433
 1657TIP3   OH2 4976   4.304   1.283   0.498
 1657TIP3    H1 4977   4.278   1.302   0.587
 1657TIP3    H2 4978   4.358   1.358   0.472
 1658TIP3   OH2 4979   5.355   4.398   3.707
 1658TIP3    H1 4980   5.420   4.358   3.650
 1658TIP3    H2 4981   5.271   4.377   3.667
 1659TIP3   OH2 4982   5.609   4.038   1.356
 1659TIP3    H1 4983   5.614   3.942   1.354
 1659TIP3    H2 4984   5.596   4.060   1.448
 1660TIP3   OH2 4985   3.837   0.702   0.236
 1660TIP3    H1 4986   3.902   0.689   0.305
 1660TIP3    H2 4987   3.887   0.693   0.155
 1661TIP3   OH2 4988   5.187   5.625   2.269
 1661TIP3    H1 4989   5.180   5.555   2.334
 1661TIP3    H2 4990   5.220   5.581   2.190
 1662TIP3   OH2 4991   1.973   2.225   4.788
 1662TIP3    H1 4992   1.943   2.191   4.872
 1662TIP3    H2 4993   1.973   2.320   4.800
 1663TIP3   OH2 4994   0.454   5.715   1.837
 1663TIP3    H1 4995   0.401   5.655   1.889
 1663TIP3    H2 4996   0.472   5.667   1.756
 1664TIP3   OH2 4997   2.049   4.922   1.705
 1664TIP3    H1 4998   2.065   4.885   1.792
 1664TIP3    H2 4999   1.965   4.883   1.678
 1665TIP3   OH2 5000   1.932   4.217   1.692
 1665TIP3    H1 5001   1.888   4.290   1.648
 1665TIP3    H2 5002   1.958   4.158   1.621
 1666TIP3   OH2 5003   5.676   2.958   3.155
 1666TIP3    H1 5004   5.709   2.988   3.240
 1666TIP3    H2 5005   5.677   3.036   3.100
 1667TIP3   OH2 5006   4.884   4.370   4.167
 1667TIP3    H1 5007   4.953   4.416   4.118
 1667TIP3    H2 5008   4.932   4.320   4.234
 1668TIP3   OH2 5009   1.138   3.902   1.729
 1668TIP3    H1 5010   1.095   3.905   1.643
 1668TIP3    H2 5011   1.154   3.994   1.751
 1669TIP3   OH2 5012   6.081   2.117   0.761
 1669TIP3    H1 5013   6.164   2.163   0.761
 1669TIP3    H2 5014   6.103   2.028   0.731
 1670TIP3   OH2 5015   1.957   0.815   4.747
 1670TIP3    H1 5016   1.909   0.817   4.830
 1670TIP3    H2 5017   1.990   0.904   4.736
 1671TIP3   OH2 5018   5.747   5.220   0.548
 1671TIP3    H1 5019   5.728   5.299   0.599
 1671TIP3    H2 5020   5.828   5.187   0.585
 1672TIP3   OH2 5021   6.142   2.913   4.923
 1672TIP3    H1 5022   6.098   2.837   4.885
 1672TIP3    H2 5023   6.235   2.898   4.905
 1673TIP3   OH2 5024   6.159   1.555   0.829
 1673TIP3    H1 5025   6.172   1.545   0.735
 1673TIP3    H2 5026   6.241   1.593   0.861
 1674TIP3   OH2 5027   3.675   0.089   3.548
 1674TIP3    H1 5028   3.692   0.153   3.617
 1674TIP3    H2 5029   3.758   0.084   3.499
 1675TIP3   OH2 5030   4.919   5.783   4.648
 1675TIP3    H1 5031   4.928   5.802   4.554
 1675TIP3    H2 5032   4.833   5.743   4.656
 1676TIP3   OH2 5033   3.980   5.759   4.624
 1676TIP3    H1 5034   4.035   5.813   4.680
 1676TIP3    H2 5035   4.035   5.684   4.602
 1677TIP3   OH2 5036   6.121   0.289   1.566
 1677TIP3    H1 5037   6.104   0.379   1.590
 1677TIP3    H2 5038   6.169   0.295   1.483
 1678TIP3   OH2 5039   2.187   3.333   1.790
 1678TIP3    H1 5040   2.122   3.403   1.796
 1678TIP3    H2 5041   2.218   3.320   1.879
 1679TIP3   OH2 5042   5.486   2.735   3.525
 1679TIP3    H1 5043   5.464   2.805   3.463
 1679TIP3    H2 5044   5.411   2.675   3.521
 1680TIP3   OH2 5045   2.473   2.752   0.783
 1680TIP3    H1 5046   2.517   2.830   0.750
 1680TIP3    H2 5047   2.521   2.679   0.744
 1681TIP3   OH2 5048   3.206   2.417   2.735
 1681TIP3    H1 5049   3.120   2.389   2.766
 1681TIP3    H2 5050   3.188   2.487   2.673
 1682TIP3   OH2 5051   4.591   3.347   0.579
 1682TIP3    H1 5052   4.613   3.436   0.554
 1682TIP3    H2 5053   4.539   3.357   0.659
 1683TIP3   OH2 5054   2.472   1.426   0.972
 1683TIP3    H1 5055   2.507   1.347   1.013
 1683TIP3    H2 5056   2.382   1.431   1.003
 1684TIP3   OH2 5057   2.486   1.861   4.574
 1684TIP3    H1 5058   2.457   1.853   4.665
 1684TIP3    H2 5059   2.441   1.791   4.528
 1685TIP3   OH2 5060   5.500   0.625   2.348
 1685TIP3    H1 5061   5.523   0.557   2.285
 1685TIP3    H2 5062   5.562   0.613   2.420
 1686TIP3   OH2 5063   4.697   5.575   1.519
 1686TIP3    H1 5064   4.666   5.484   1.522
 1686TIP3    H2 5065   4.785   5.568   1.481
 1687TIP3   OH2 5066   4.155   2.470   0.974
 1687TIP3    H1 5067   4.192   2.548   0.933
 1687TIP3    H2 5068   4.182   2.398   0.918
 1688TIP3   OH2 5069   3.128   0.172   3.185
 1688TIP3    H1 5070   3.206   0.168   3.130
 1688TIP3    H2 5071   3.161   0.176   3.275
 1689TIP3   OH2 5072   0.399   0.457   3.071
 1689TIP3    H1 5073   0.477   0.403   3.085
 1689TIP3    H2 5074   0.391   0.463   2.976
 1690TIP3   OH2 5075   3.988   1.507   0.171
 1690TIP3    H1 5076   4.009   1.565   0.098
 1690TIP3    H2 5077   3.987   1.564   0.248
 1691TIP3   OH2 5078   2.143   2.491   4.986
 1691TIP3    H1 5079   2.066   2.465   5.036
 1691TIP3    H2 5080   2.118   2.573   4.943
 1692TIP3   OH2 5081   0.843   5.744   1.220
 1692TIP3    H1 5082   0.904   5.786   1.158
 1692TIP3    H2 5083   0.778   5.811   1.240
 1693TIP3   OH2 5084   2.770   4.968   2.406
 1693TIP3    H1 5085   2.856   4.952   2.368
 1693TIP3    H2 5086   2.743   5.052   2.371
 1694TIP3   OH2 5087   5.929   4.049   3.458
 1694TIP3    H1 5088   5.974   4.114   3.405
 1694TIP3    H2 5089   5.914   4.093   3.542
 1695TIP3   OH2 5090   6.138   1.047   2.618
 1695TIP3    H1 5091   6.154   0.953   2.627
 1695TIP3    H2 5092   6.165   1.084   2.702
 1696TIP3   OH2 5093   3.065   2.106   2.707
 1696TIP3    H1 5094   3.152   2.128   2.740
 1696TIP3    H2 5095   3.043   2.023   2.751
 1697TIP3   OH2 5096   1.050   5.363   2.070
 1697TIP3    H1 5097   1.112   5.316   2.125
 1697TIP3    H2 5098   1.091   5.448   2.054
 1698TIP3   OH2 5099   3.508   0.368   3.576
 1698TIP3    H1 5100   3.597   0.333   3.571
 1698TIP3    H2 5101   3.456   0.295   3.610
 1699TIP3   OH2 5102   2.972  -0.004   4.092
 1699TIP3    H1 5103   3.039   0.002   4.024
 1699TIP3    H2 5104   2.977   0.080   4.138
 1700TIP3   OH2 5105   4.010   3.025   1.555
 1700TIP3    H1 5106   3.941   2.969   1.590
 1700TIP3    H2 5107   3.979   3.114   1.571
 1701TIP3   OH2 5108   0.996   3.621   1.473
 1701TIP3    H1 5109   0.956   3.535   1.464
 1701TIP3    H2 5110   0.986   3.661   1.386
 1702TIP3   OH2 5111   4.207   4.946   2.845
 1702TIP3    H1 5112   4.148   5.015   2.875
 1702TIP3    H2 5113   4.271   4.938   2.916
 1703TIP3   OH2 5114   4.787   2.025   4.947
 1703TIP3    H1 5115   4.740   2.107   4.934
 1703TIP3    H2 5116   4.807   2.023   5.040
 1704TIP3   OH2 5117   3.749   0.025   4.254
 1704TIP3    H1 5118   3.741   0.061   4.342
 1704TIP3    H2 5119   3.808  -0.050   4.264
 1705TIP3   OH2 5120   5.397   0.808   4.843
 1705TIP3    H1 5121   5.453   0.744   4.886
 1705TIP3    H2 5122   5.322   0.758   4.812
 1706TIP3   OH2 5123   4.472   4.535   3.136
 1706TIP3    H1 5124   4.519   4.564   3.058
 1706TIP3    H2 5125   4.437   4.450   3.113
 1707TIP3   OH2 5126   0.315   3.801   1.560
 1707TIP3    H1 5127   0.239   3.758   1.598
 1707TIP3    H2 5128   0.306   3.785   1.466
 1708TIP3   OH2 5129   0.508   1.634   3.060
 1708TIP3    H1 5130   0.535   1.613   2.971
 1708TIP3    H2 5131   0.451   1.711   3.051
 1709TIP3   OH2 5132   3.415  -0.026   1.741
 1709TIP3    H1 5133   3.374   0.020   1.667
 1709TIP3    H2 5134   3.495   0.023   1.758
 1710TIP3   OH2 5135   0.967   0.671   2.075
 1710TIP3    H1 5136   1.006   0.603   2.130
 1710TIP3    H2 5137   1.041   0.727   2.051
 1711TIP3   OH2 5138   4.663   4.746   2.261
 1711TIP3    H1 5139   4.677   4.795   2.342
 1711TIP3    H2 5140   4.666   4.654   2.288
 1712TIP3   OH2 5141   1.306   2.812   5.218
 1712TIP3    H1 5142   1.371   2.848   5.158
 1712TIP3    H2 5143   1.264   2.742   5.168
 1713TIP3   OH2 5144   2.100   5.492   3.981
 1713TIP3    H1 5145   2.027   5.554   3.969
 1713TIP3    H2 5146   2.172   5.530   3.931
 1714TIP3   OH2 5147   5.783   0.673   1.263
 1714TIP3    H1 5148   5.805   0.722   1.342
 1714TIP3    H2 5149   5.696   0.637   1.280
 1715TIP3   OH2 5150   0.304   3.028   4.262
 1715TIP3    H1 5151   0.294   3.083   4.185
 1715TIP3    H2 5152   0.398   3.011   4.268
 1716TIP3   OH2 5153   4.415   3.951   4.248
 1716TIP3    H1 5154   4.323   3.955   4.274
 1716TIP3    H2 5155   4.458   3.904   4.319
 1717TIP3   OH2 5156   2.241   0.111   0.488
 1717TIP3    H1 5157   2.185   0.137   0.415
 1717TIP3    H2 5158   2.212   0.023   0.511
 1718TIP3   OH2 5159   3.301   0.897   2.204
 1718TIP3    H1 5160   3.230   0.842   2.238
 1718TIP3    H2 5161   3.380   0.863   2.246
 1719TIP3   OH2 5162   4.358   2.085   2.462
 1719TIP3    H1 5163   4.300   2.050   2.529
 1719TIP3    H2 5164   4.400   2.160   2.505
 1720TIP3   OH2 5165   0.278   0.600   1.585
 1720TIP3    H1 5166   0.291   0.535   1.515
 1720TIP3    H2 5167   0.302   0.683   1.544
 1721TIP3   OH2 5168   1.995   1.040   0.800
 1721TIP3    H1 5169   1.946   1.053   0.882
 1721TIP3    H2 5170   2.036   0.954   0.810
 1722TIP3   OH2 5171   0.705   2.809   4.662
 1722TIP3    H1 5172   0.755   2.885   4.635
 1722TIP3    H2 5173   0.714   2.807   4.758
 1723TIP3   OH2 5174   0.604   4.354   3.605
 1723TIP3    H1 5175   0.531   4.416   3.611
 1723TIP3    H2 5176   0.594   4.313   3.519
 1724TIP3   OH2 5177   4.653   4.067   4.347
 1724TIP3    H1 5178   4.583   4.099   4.404
 1724TIP3    H2 5179   4.613   4.061   4.261
 1725TIP3   OH2 5180   2.602   1.463   4.348
 1725TIP3    H1 5181   2.573   1.537   4.402
 1725TIP3    H2 5182   2.544   1.391   4.372
 1726TIP3   OH2 5183   3.626   0.556   2.419
 1726TIP3    H1 5184   3.623   0.627   2.482
 1726TIP3    H2 5185   3.694   0.582   2.357
 1727TIP3   OH2 5186   4.153   1.107   2.042
 1727TIP3    H1 5187   4.112   1.023   2.019
 1727TIP3    H2 5188   4.103   1.139   2.117
 1728TIP3   OH2 5189   4.156   3.771   4.047
 1728TIP3    H1 5190   4.171   3.678   4.066
 1728TIP3    H2 5191   4.241   3.812   4.061
 1729TIP3   OH2 5192   5.364   2.754   2.848
 1729TIP3    H1 5193   5.393   2.749   2.939
 1729TIP3    H2 5194   5.443   2.736   2.796
 1730TIP3   OH2 5195   2.800   4.411   1.498
 1730TIP3    H1 5196   2.867   4.361   1.451
 1730TIP3    H2 5197   2.720   4.398   1.446
 1731TIP3   OH2 5198   0.548   0.150   3.488
 1731TIP3    H1 5199   0.560   0.243   3.468
 1731TIP3    H2 5200   0.501   0.115   3.412
 1732TIP3   OH2 5201   4.361   0.011   4.375
 1732TIP3    H1 5202   4.381  -0.043   4.299
 1732TIP3    H2 5203   4.295   0.072   4.344
 1733TIP3   OH2 5204   0.218   4.842   1.304
 1733TIP3    H1 5205   0.268   4.850   1.223
 1733TIP3    H2 5206   0.129   4.820   1.276
 1734TIP3   OH2 5207   3.550   4.180   4.787
 1734TIP3    H1 5208   3.460   4.206   4.770
 1734TIP3    H2 5209   3.602   4.225   4.721
 1735TIP3   OH2 5210   1.120   3.555   4.376
 1735TIP3    H1 5211   1.068   3.563   4.296
 1735TIP3    H2 5212   1.198   3.608   4.360
 1736TIP3   OH2 5213   5.376   2.375   2.779
 1736TIP3    H1 5214   5.466   2.346   2.771
 1736TIP3    H2 5215   5.361   2.380   2.873
 1737TIP3   OH2 5216   3.518   0.139   2.703
 1737TIP3    H1 5217   3.492   0.161   2.613
 1737TIP3    H2 5218   3.558   0.220   2.736
 1738TIP3   OH2 5219   1.461   5.810   3.413
 1738TIP3    H1 5220   1.437   5.889   3.461
 1738TIP3    H2 5221   1.466   5.838   3.322
 1739TIP3   OH2 5222   2.995   4.752   0.717
 1739TIP3    H1 5223   3.074   4.800   0.693
 1739TIP3    H2 5224   2.933   4.819   0.745
 1740TIP3   OH2 5225   3.583   3.405   1.970
 1740TIP3    H1 5226   3.655   3.468   1.962
 1740TIP3    H2 5227   3.626   3.319   1.971
 1741TIP3   OH2 5228   0.277   1.880   0.044
 1741TIP3    H1 5229   0.194   1.851   0.008
 1741TIP3    H2 5230   0.280   1.843   0.132
 1742TIP3   OH2 5231   2.605   4.096   2.832
 1742TIP3    H1 5232   2.531   4.157   2.821
 1742TIP3    H2 5233   2.566   4.009   2.823
 1743TIP3   OH2 5234   0.998   4.823   4.740
 1743TIP3    H1 5235   0.964   4.739   4.709
 1743TIP3    H2 5236   0.925   4.862   4.788
 1744TIP3   OH2 5237   3.951   4.703   3.367
 1744TIP3    H1 5238   3.942   4.727   3.459
 1744TIP3    H2 5239   4.004   4.623   3.368
 1745TIP3   OH2 5240   1.278   0.626   4.511
 1745TIP3    H1 5241   1.188   0.619   4.477
 1745TIP3    H2 5242   1.329   0.570   4.454
 1746TIP3   OH2 5243   2.755   1.485   3.065
 1746TIP3    H1 5244   2.682   1.428   3.087
 1746TIP3    H2 5245   2.821   1.427   3.028
 1747TIP3   OH2 5246   5.731   5.815   4.782
 1747TIP3    H1 5247   5.700   5.738   4.829
 1747TIP3    H2 5248   5.825   5.819   4.799
 1748TIP3   OH2 5249   1.685   0.718   4.208
 1748TIP3    H1 5250   1.661   0.660   4.135
 1748TIP3    H2 5251   1.772   0.750   4.185
 1749TIP3   OH2 5252   1.385   4.188   2.798
 1749TIP3    H1 5253   1.351   4.269   2.761
 1749TIP3    H2 5254   1.321   4.162   2.864
 1750TIP3   OH2 5255   1.286   1.794   0.625
 1750TIP3    H1 5256   1.225   1.748   0.683
 1750TIP3    H2 5257   1.256   1.773   0.536
 1751TIP3   OH2 5258   4.711   2.515   1.541
 1751TIP3    H1 5259   4.734   2.425   1.517
 1751TIP3    H2 5260   4.625   2.507   1.581
 1752TIP3   OH2 5261   1.141   0.099   3.738
 1752TIP3    H1 5262   1.139   0.069   3.829
 1752TIP3    H2 5263   1.230   0.081   3.708
 1753TIP3   OH2 5264   4.055   5.148   2.912
 1753TIP3    H1 5265   4.000   5.155   2.834
 1753TIP3    H2 5266   4.008   5.198   2.979
 1754TIP3   OH2 5267   1.277   1.019   3.451
 1754TIP3    H1 5268   1.245   0.997   3.539
 1754TIP3    H2 5269   1.348   0.958   3.436
 1755TIP3   OH2 5270   5.696   1.230   0.113
 1755TIP3    H1 5271   5.649   1.209   0.193
 1755TIP3    H2 5272   5.637   1.205   0.043
 1756TIP3   OH2 5273   5.637   1.188   4.388
 1756TIP3    H1 5274   5.631   1.092   4.391
 1756TIP3    H2 5275   5.684   1.207   4.307
 1757TIP3   OH2 5276   4.173   0.736   2.254
 1757TIP3    H1 5277   4.207   0.651   2.227
 1757TIP3    H2 5278   4.106   0.756   2.189
 1758TIP3   OH2 5279   0.100   4.508   2.976
 1758TIP3    H1 5280   0.009   4.525   3.000
 1758TIP3    H2 5281   0.151   4.565   3.034
 1759TIP3   OH2 5282   4.538   4.647   3.509
 1759TIP3    H1 5283   4.597   4.645   3.434
 1759TIP3    H2 5284   4.591   4.618   3.583
 1760TIP3   OH2 5285   2.020   5.269   3.757
 1760TIP3    H1 5286   1.950   5.206   3.742
 1760TIP3    H2 5287   1.999   5.307   3.842
 1761TIP3   OH2 5288   4.420   0.902   2.628
 1761TIP3    H1 5289   4.329   0.915   2.601
 1761TIP3    H2 5290   4.455   0.840   2.564
 1762TIP3   OH2 5291   1.403   5.391   2.646
 1762TIP3    H1 5292   1.425   5.371   2.555
 1762TIP3    H2 5293   1.424   5.484   2.656
 1763TIP3   OH2 5294   0.515   1.775   1.379
 1763TIP3    H1 5295   0.446   1.736   1.325
 1763TIP3    H2 5296   0.514   1.725   1.460
 1764TIP3   OH2 5297   5.899   3.749   2.445
 1764TIP3    H1 5298   5.982   3.703   2.456
 1764TIP3    H2 5299   5.874   3.777   2.533
 1765TIP3   OH2 5300   5.359   3.973   1.122
 1765TIP3    H1 5301   5.265   3.968   1.135
 1765TIP3    H2 5302   5.376   4.065   1.103
 1766TIP3   OH2 5303   4.537   4.808   4.089
 1766TIP3    H1 5304   4.452   4.770   4.113
 1766TIP3    H2 5305   4.574   4.747   4.026
 1767TIP3   OH2 5306   1.295   3.189   5.106
 1767TIP3    H1 5307   1.262   3.257   5.047
 1767TIP3    H2 5308   1.330   3.237   5.181
 1768TIP3   OH2 5309   3.593   4.674   4.640
 1768TIP3    H1 5310   3.543   4.620   4.702
 1768TIP3    H2 5311   3.579   4.764   4.670
 1769TIP3   OH2 5312   1.771   2.638   3.055
 1769TIP3    H1 5313   1.727   2.553   3.055
 1769TIP3    H2 5314   1.717   2.693   3.112
 1770TIP3   OH2 5315   1.314   3.015   4.277
 1770TIP3    H1 5316   1.364   3.012   4.196
 1770TIP3    H2 5317   1.377   2.989   4.345
 1771TIP3   OH2 5318   0.461   3.135   1.223
 1771TIP3    H1 5319   0.429   3.071   1.287
 1771TIP3    H2 5320   0.533   3.090   1.178
 1772TIP3   OH2 5321   5.531   0.445   4.451
 1772TIP3    H1 5322   5.436   0.455   4.458
 1772TIP3    H2 5323   5.566   0.532   4.472
 1773TIP3   OH2 5324   2.318   3.815   3.173
 1773TIP3    H1 5325   2.320   3.749   3.104
 1773TIP3    H2 5326   2.227   3.846   3.175
 1774TIP3   OH2 5327   3.850   2.664   2.094
 1774TIP3    H1 5328   3.773   2.608   2.104
 1774TIP3    H2 5329   3.880   2.680   2.183
 1775TIP3   OH2 5330   3.403   0.762   3.115
 1775TIP3    H1 5331   3.427   0.725   3.030
 1775TIP3    H2 5332   3.422   0.855   3.107
 1776TIP3   OH2 5333   2.276   0.570   4.623
 1776TIP3    H1 5334   2.229   0.549   4.542
 1776TIP3    H2 5335   2.214   0.550   4.693
 1777TIP3   OH2 5336   4.319   3.179   4.967
 1777TIP3    H1 5337   4.395   3.201   4.913
 1777TIP3    H2 5338   4.329   3.229   5.047
 1778TIP3   OH2 5339   4.080   4.836   2.589
 1778TIP3    H1 5340   4.130   4.862   2.511
 1778TIP3    H2 5341   4.125   4.879   2.661
 1779TIP3   OH2 5342   1.613   1.492   1.373
 1779TIP3    H1 5343   1.613   1.572   1.321
 1779TIP3    H2 5344   1.705   1.479   1.397
 1780TIP3   OH2 5345   4.170   1.490   2.138
 1780TIP3    H1 5346   4.252   1.446   2.159
 1780TIP3    H2 5347   4.196   1.570   2.092
 1781TIP3   OH2 5348   3.349   2.558   1.277
 1781TIP3    H1 5349   3.312   2.471   1.264
 1781TIP3    H2 5350   3.280   2.606   1.323
 1782TIP3   OH2 5351   3.059   2.835   2.839
 1782TIP3    H1 5352   3.134   2.888   2.812
 1782TIP3    H2 5353   3.051   2.769   2.770
 1783TIP3   OH2 5354   3.150   0.059   0.369
 1783TIP3    H1 5355   3.146   0.141   0.418
 1783TIP3    H2 5356   3.059   0.032   0.358
 1784TIP3   OH2 5357   0.522   4.540   1.314
 1784TIP3    H1 5358   0.451   4.586   1.358
 1784TIP3    H2 5359   0.539   4.464   1.369
 1785TIP3   OH2 5360   0.083   3.083   4.464
 1785TIP3    H1 5361   0.142   3.157   4.478
 1785TIP3    H2 5362   0.130   3.026   4.405
 1786TIP3   OH2 5363   3.636   2.492   1.834
 1786TIP3    H1 5364   3.690   2.480   1.912
 1786TIP3    H2 5365   3.655   2.415   1.780
 1787TIP3   OH2 5366   3.647   4.832   1.799
 1787TIP3    H1 5367   3.596   4.903   1.760
 1787TIP3    H2 5368   3.703   4.875   1.863
 1788TIP3   OH2 5369   5.543   3.788   1.471
 1788TIP3    H1 5370   5.471   3.737   1.434
 1788TIP3    H2 5371   5.521   3.795   1.564
 1789TIP3   OH2 5372   0.186   0.766   3.212
 1789TIP3    H1 5373   0.200   0.739   3.121
 1789TIP3    H2 5374   0.222   0.855   3.217
 1790TIP3   OH2 5375   1.721   4.529   0.863
 1790TIP3    H1 5376   1.721   4.570   0.776
 1790TIP3    H2 5377   1.672   4.448   0.851
 1791TIP3   OH2 5378   3.669   1.521   2.023
 1791TIP3    H1 5379   3.762   1.518   1.998
 1791TIP3    H2 5380   3.623   1.526   1.939
 1792TIP3   OH2 5381   2.756   0.189   3.981
 1792TIP3    H1 5382   2.666   0.205   3.953
 1792TIP3    H2 5383   2.749   0.116   4.043
 1793TIP3   OH2 5384   5.164   0.541   2.936
 1793TIP3    H1 5385   5.211   0.611   2.981
 1793TIP3    H2 5386   5.072   0.557   2.956
 1794TIP3   OH2 5387   3.287   3.190   1.461
 1794TIP3    H1 5388   3.361   3.238   1.423
 1794TIP3    H2 5389   3.320   3.157   1.544
 1795TIP3   OH2 5390   0.619   1.218   1.756
 1795TIP3    H1 5391   0.623   1.305   1.796
 1795TIP3    H2 5392   0.543   1.176   1.797
 1796TIP3   OH2 5393   2.942   4.037   3.391
 1796TIP3    H1 5394   2.900   4.117   3.359
 1796TIP3    H2 5395   2.903   3.967   3.340
 1797TIP3   OH2 5396   1.006   1.157   1.869
 1797TIP3    H1 5397   1.045   1.147   1.781
 1797TIP3    H2 5398   1.074   1.201   1.920
 1798TIP3   OH2 5399   3.154   4.749   1.533
 1798TIP3    H1 5400   3.066   4.755   1.569
 1798TIP3    H2 5401   3.211   4.783   1.602
 1799TIP3   OH2 5402   0.951   5.180   5.122
 1799TIP3    H1 5403   0.863   5.180   5.086
 1799TIP3    H2 5404   0.968   5.271   5.145
 1800TIP3   OH2 5405   3.840   2.623   0.299
 1800TIP3    H1 5406   3.875   2.642   0.386
 1800TIP3    H2 5407   3.868   2.697   0.245
 1801TIP3   OH2 5408   1.141   5.328   3.893
 1801TIP3    H1 5409   1.178   5.278   3.821
 1801TIP3    H2 5410   1.080   5.267   3.936
 1802TIP3   OH2 5411   3.075   0.717   2.220
 1802TIP3    H1 5412   3.003   0.675   2.174
 1802TIP3    H2 5413   3.057   0.811   2.214
 1803TIP3   OH2 5414   1.865   3.182   4.130
 1803TIP3    H1 5415   1.778   3.161   4.163
 1803TIP3    H2 5416   1.918   3.105   4.151
 1804TIP3   OH2 5417   2.594   1.883   3.682
 1804TIP3    H1 5418   2.677   1.836   3.674
 1804TIP3    H2 5419   2.527   1.815   3.676
 1805TIP3   OH2 5420   6.325   2.190   4.447
 1805TIP3    H1 5421   6.380   2.232   4.381
 1805TIP3    H2 5422   6.262   2.257   4.473
 1806TIP3   OH2 5423   4.695   2.622   4.772
 1806TIP3    H1 5424   4.603   2.598   4.759
 1806TIP3    H2 5425   4.710   2.610   4.866
 1807TIP3   OH2 5426   0.800   5.129   0.979
 1807TIP3    H1 5427   0.890   5.152   1.002
 1807TIP3    H2 5428   0.805   5.098   0.889
 1808TIP3   OH2 5429   0.612   5.970   0.732
 1808TIP3    H1 5430   0.586   5.891   0.780
 1808TIP3    H2 5431   0.548   5.978   0.662
 1809TIP3   OH2 5432   2.242   2.022   4.773
 1809TIP3    H1 5433   2.310   2.060   4.718
 1809TIP3    H2 5434   2.247   2.071   4.855
 1810TIP3   OH2 5435   3.401   4.005   3.621
 1810TIP3    H1 5436   3.428   4.007   3.529
 1810TIP3    H2 5437   3.306   4.000   3.619
 1811TIP3   OH2 5438   4.702   1.312   1.763
 1811TIP3    H1 5439   4.773   1.342   1.820
 1811TIP3    H2 5440   4.635   1.379   1.770
 1812TIP3   OH2 5441   5.631   4.044   2.239
 1812TIP3    H1 5442   5.553   3.988   2.242
 1812TIP3    H2 5443   5.702   3.986   2.214
 1813TIP3   OH2 5444   0.951   3.022   1.966
 1813TIP3    H1 5445   0.887   3.079   1.923
 1813TIP3    H2 5446   0.961   2.948   1.906
 1814TIP3   OH2 5447   2.115   2.887   0.743
 1814TIP3    H1 5448   2.079   2.850   0.823
 1814TIP3    H2 5449   2.202   2.849   0.736
 1815TIP3   OH2 5450   6.058   1.852   1.050
 1815TIP3    H1 5451   5.998   1.849   1.124
 1815TIP3    H2 5452   6.065   1.761   1.022
 1816TIP3   OH2 5453   0.018   2.092   3.097
 1816TIP3    H1 5454  -0.042   2.145   3.150
 1816TIP3    H2 5455   0.056   2.155   3.036
 1817TIP3   OH2 5456   4.193   4.959  -0.013
 1817TIP3    H1 5457   4.150   4.927   0.066
 1817TIP3    H2 5458   4.190   5.055  -0.005
 1818TIP3   OH2 5459   5.868   1.551   3.568
 1818TIP3    H1 5460   5.788   1.566   3.619
 1818TIP3    H2 5461   5.903   1.469   3.602
 1819TIP3   OH2 5462   0.848   1.698   1.729
 1819TIP3    H1 5463   0.928   1.729   1.689
 1819TIP3    H2 5464   0.877   1.641   1.800
 1820TIP3   OH2 5465   4.763   2.792   2.196
 1820TIP3    H1 5466   4.841   2.737   2.188
 1820TIP3    H2 5467   4.690   2.733   2.175
 1821TIP3   OH2 5468   0.455   5.325   4.933
 1821TIP3    H1 5469   0.411   5.399   4.890
 1821TIP3    H2 5470   0.406   5.312   5.014
 1822TIP3   OH2 5471   0.574   4.845   3.265
 1822TIP3    H1 5472   0.479   4.836   3.261
 1822TIP3    H2 5473   0.606   4.758   3.290
 1823TIP3   OH2 5474   4.221   3.032   3.790
 1823TIP3    H1 5475   4.168   3.110   3.772
 1823TIP3    H2 5476   4.158   2.968   3.824
 1824TIP3   OH2 5477   1.457   1.399   0.632
 1824TIP3    H1 5478   1.410   1.321   0.602
 1824TIP3    H2 5479   1.389   1.465   0.642
 1825TIP3   OH2 5480   5.071   1.443   1.298
 1825TIP3    H1 5481   5.048   1.514   1.238
 1825TIP3    H2 5482   5.113   1.377   1.242
 1826TIP3   OH2 5483   1.624   1.999   4.862
 1826TIP3    H1 5484   1.641   2.093   4.855
 1826TIP3    H2 5485   1.700   1.965   4.910
 1827TIP3   OH2 5486   4.596   2.285   0.026
 1827TIP3    H1 5487   4.625   2.339   0.100
 1827TIP3    H2 5488   4.515   2.244   0.057
 1828TIP3   OH2 5489   5.389   2.294   3.341
 1828TIP3    H1 5490   5.452   2.323   3.408
 1828TIP3    H2 5491   5.443   2.268   3.267
 1829TIP3   OH2 5492   5.790   0.959   3.834
 1829TIP3    H1 5493   5.796   1.044   3.877
 1829TIP3    H2 5494   5.704   0.958   3.793
 1830TIP3   OH2 5495   0.232   2.143   0.122
 1830TIP3    H1 5496   0.230   2.047   0.130
 1830TIP3    H2 5497   0.160   2.164   0.062
 1831TIP3   OH2 5498   0.118   2.948   0.286
 1831TIP3    H1 5499   0.103   2.865   0.332
 1831TIP3    H2 5500   0.194   2.986   0.329
 1832TIP3   OH2 5501   4.165   5.904   0.252
 1832TIP3    H1 5502   4.190   5.866   0.337
 1832TIP3    H2 5503   4.140   5.994   0.272
 1833TIP3   OH2 5504   6.092   5.557   1.459
 1833TIP3    H1 5505   6.052   5.557   1.373
 1833TIP3    H2 5506   6.076   5.470   1.494
 1834TIP3   OH2 5507   1.565   5.297   4.552
 1834TIP3    H1 5508   1.659   5.280   4.554
 1834TIP3    H2 5509   1.532   5.256   4.632
 1835TIP3   OH2 5510   2.934   5.783   0.505
 1835TIP3    H1 5511   2.911   5.782   0.412
 1835TIP3    H2 5512   2.850   5.778   0.550
 1836TIP3   OH2 5513   6.017   3.406   4.596
 1836TIP3    H1 5514   6.082   3.345   4.631
 1836TIP3    H2 5515   5.939   3.352   4.582
 1837TIP3   OH2 5516   3.551   3.642   2.508
 1837TIP3    H1 5517   3.528   3.550   2.493
 1837TIP3    H2 5518   3.467   3.688   2.507
 1838TIP3   OH2 5519   2.628   3.203   1.344
 1838TIP3    H1 5520   2.547   3.253   1.352
 1838TIP3    H2 5521   2.678   3.248   1.275
 1839TIP3   OH2 5522   3.680   0.037   1.130
 1839TIP3    H1 5523   3.763  -0.008   1.147
 1839TIP3    H2 5524   3.636  -0.019   1.066
 1840TIP3   OH2 5525   4.040   0.224   0.949
 1840TIP3    H1 5526   4.108   0.212   1.014
 1840TIP3    H2 5527   4.046   0.146   0.893
 1841TIP3   OH2 5528  -0.018   2.861   2.671
 1841TIP3    H1 5529  -0.007   2.956   2.676
 1841TIP3    H2 5530   0.057   2.831   2.620
 1842TIP3   OH2 5531   1.771   5.058   0.747
 1842TIP3    H1 5532   1.782   4.986   0.809
 1842TIP3    H2 5533   1.704   5.113   0.787
 1843TIP3   OH2 5534   5.303   4.209   1.710
 1843TIP3    H1 5535   5.290   4.175   1.799
 1843TIP3    H2 5536   5.353   4.289   1.722
 1844TIP3   OH2 5537   1.309   2.493   1.348
 1844TIP3    H1 5538   1.367   2.446   1.288
 1844TIP3    H2 5539   1.365   2.555   1.393
 1845TIP3   OH2 5540   0.300   4.620   3.183
 1845TIP3    H1 5541   0.387   4.583   3.191
 1845TIP3    H2 5542   0.306   4.707   3.220
 1846TIP3   OH2 5543   3.599   4.945   4.650
 1846TIP3    H1 5544   3.681   4.976   4.613
 1846TIP3    H2 5545   3.607   4.963   4.744
 1847TIP3   OH2 5546   0.394   3.992   0.215
 1847TIP3    H1 5547   0.345   4.049   0.274
 1847TIP3    H2 5548   0.338   3.983   0.137
 1848TIP3   OH2 5549   5.789   4.876   3.092
 1848TIP3    H1 5550   5.798   4.786   3.061
 1848TIP3    H2 5551   5.878   4.906   3.107
 1849TIP3   OH2 5552   0.848   5.066   4.542
 1849TIP3    H1 5553   0.759   5.034   4.530
 1849TIP3    H2 5554   0.841   5.134   4.609
 1850TIP3   OH2 5555   1.047   4.401   0.570
 1850TIP3    H1 5556   1.002   4.374   0.651
 1850TIP3    H2 5557   1.066   4.494   0.584
 1851TIP3   OH2 5558   3.566   5.195   0.964
 1851TIP3    H1 5559   3.536   5.281   0.935
 1851TIP3    H2 5560   3.629   5.213   1.033
 1852TIP3   OH2 5561   2.549   5.617   4.135
 1852TIP3    H1 5562   2.604   5.539   4.125
 1852TIP3    H2 5563   2.546   5.656   4.048
 1853TIP3   OH2 5564   0.329   0.761   2.564
 1853TIP3    H1 5565   0.420   0.730   2.556
 1853TIP3    H2 5566   0.321   0.789   2.655
 1854TIP3   OH2 5567   3.398   0.450   0.536
 1854TIP3    H1 5568   3.462   0.380   0.525
 1854TIP3    H2 5569   3.332   0.414   0.596
 1855TIP3   OH2 5570   2.149   1.103   4.184
 1855TIP3    H1 5571   2.206   1.087   4.260
 1855TIP3    H2 5572   2.126   1.015   4.152
 1856TIP3   OH2 5573   3.202   4.866   0.582
 1856TIP3    H1 5574   3.259   4.923   0.633
 1856TIP3    H2 5575   3.147   4.926   0.531
 1857TIP3   OH2 5576   2.075   4.224   0.319
 1857TIP3    H1 5577   1.995   4.249   0.273
 1857TIP3    H2 5578   2.074   4.129   0.320
 1858TIP3   OH2 5579   5.190   4.310   1.426
 1858TIP3    H1 5580   5.119   4.251   1.400
 1858TIP3    H2 5581   5.218   4.278   1.512
 1859TIP3   OH2 5582   6.248   4.487   3.777
 1859TIP3    H1 5583   6.203   4.468   3.695
 1859TIP3    H2 5584   6.273   4.401   3.811
 1860TIP3   OH2 5585   0.551   1.591   4.349
 1860TIP3    H1 5586   0.631   1.550   4.315
 1860TIP3    H2 5587   0.501   1.519   4.386
 1861TIP3   OH2 5588   3.131   2.345   1.792
 1861TIP3    H1 5589   3.114   2.258   1.827
 1861TIP3    H2 5590   3.214   2.335   1.744
 1862TIP3   OH2 5591   3.551   1.384   3.472
 1862TIP3    H1 5592   3.634   1.432   3.466
 1862TIP3    H2 5593   3.490   1.437   3.419
 1863TIP3   OH2 5594   2.886   4.043   4.849
 1863TIP3    H1 5595   2.851   4.108   4.788
 1863TIP3    H2 5596   2.941   4.094   4.909
 1864TIP3   OH2 5597   1.117   3.228   2.070
 1864TIP3    H1 5598   1.096   3.147   2.023
 1864TIP3    H2 5599   1.072   3.296   2.020
 1865TIP3   OH2 5600   4.465   1.556   3.900
 1865TIP3    H1 5601   4.548   1.587   3.937
 1865TIP3    H2 5602   4.449   1.614   3.825
 1866TIP3   OH2 5603   1.899   5.268   1.266
 1866TIP3    H1 5604   1.887   5.294   1.357
 1866TIP3    H2 5605   1.988   5.294   1.245
 1867TIP3   OH2 5606   1.012   3.031   3.247
 1867TIP3    H1 5607   1.073   3.042   3.173
 1867TIP3    H2 5608   1.059   2.975   3.308
 1868TIP3   OH2 5609   6.014   2.905   0.068
 1868TIP3    H1 5610   5.973   2.846   0.132
 1868TIP3    H2 5611   5.940   2.945   0.021
 1869TIP3   OH2 5612   1.313   0.522   0.893
 1869TIP3    H1 5613   1.332   0.521   0.799
 1869TIP3    H2 5614   1.217   0.515   0.898
 1870TIP3   OH2 5615   0.069   2.202   3.802
 1870TIP3    H1 5616   0.135   2.271   3.802
 1870TIP3    H2 5617   0.098   2.141   3.870
 1871TIP3   OH2 5618   1.672   0.951   0.459
 1871TIP3    H1 5619   1.594   1.002   0.437
 1871TIP3    H2 5620   1.650   0.861   0.433
 1872TIP3   OH2 5621   4.602   4.487   0.507
 1872TIP3    H1 5622   4.628   4.579   0.502
 1872TIP3    H2 5623   4.535   4.485   0.576
 1873TIP3   OH2 5624   2.329   5.613   0.763
 1873TIP3    H1 5625   2.363   5.674   0.697
 1873TIP3    H2 5626   2.297   5.539   0.712
 1874TIP3   OH2 5627   2.546   2.617   0.543
 1874TIP3    H1 5628   2.458   2.579   0.541
 1874TIP3    H2 5629   2.575   2.616   0.452
 1875TIP3   OH2 5630   2.315   0.959   3.976
 1875TIP3    H1 5631   2.335   1.047   4.007
 1875TIP3    H2 5632   2.375   0.946   3.902
 1876TIP3   OH2 5633   5.529   0.168   2.928
 1876TIP3    H1 5634   5.443   0.199   2.902
 1876TIP3    H2 5635   5.570   0.242   2.973
 1877TIP3   OH2 5636   0.574   2.053   4.287
 1877TIP3    H1 5637   0.588   1.968   4.247
 1877TIP3    H2 5638   0.625   2.114   4.235
 1878TIP3   OH2 5639   4.915   0.056   4.939
 1878TIP3    H1 5640   4.823   0.038   4.924
 1878TIP3    H2 5641   4.921   0.151   4.950
 1879TIP3   OH2 5642   4.168   0.336   4.638
 1879TIP3    H1 5643   4.104   0.321   4.708
 1879TIP3    H2 5644   4.218   0.412   4.667
 1880TIP3   OH2 5645   6.155   3.305   2.742
 1880TIP3    H1 5646   6.171   3.213   2.722
 1880TIP3    H2 5647   6.207   3.321   2.821
 1881TIP3   OH2 5648   0.454   5.523   2.977
 1881TIP3    H1 5649   0.413   5.482   2.901
 1881TIP3    H2 5650   0.483   5.609   2.946
 1882TIP3   OH2 5651   0.043   0.866   2.878
 1882TIP3    H1 5652   0.113   0.810   2.909
 1882TIP3    H2 5653   0.007   0.820   2.802
 1883TIP3   OH2 5654   1.446   5.762   4.456
 1883TIP3    H1 5655   1.355   5.750   4.484
 1883TIP3    H2 5656   1.485   5.819   4.523
 1884TIP3   OH2 5657   1.366   2.485   1.668
 1884TIP3    H1 5658   1.328   2.572   1.654
 1884TIP3    H2 5659   1.454   2.491   1.630
 1885TIP3   OH2 5660   4.207   2.826   1.627
 1885TIP3    H1 5661   4.175   2.745   1.588
 1885TIP3    H2 5662   4.137   2.889   1.613
 1886TIP3   OH2 5663   5.173   5.287   4.831
 1886TIP3    H1 5664   5.257   5.267   4.873
 1886TIP3    H2 5665   5.191   5.365   4.779
 1887TIP3   OH2 5666   0.189   1.879   2.159
 1887TIP3    H1 5667   0.240   1.849   2.084
 1887TIP3    H2 5668   0.152   1.800   2.197
 1888TIP3   OH2 5669   4.287   2.876   0.014
 1888TIP3    H1 5670   4.255   2.836   0.094
 1888TIP3    H2 5671   4.332   2.956   0.043
 1889TIP3   OH2 5672   5.962   5.694   0.858
 1889TIP3    H1 5673   6.012   5.740   0.926
 1889TIP3    H2 5674   6.026   5.636   0.816
 1890TIP3   OH2 5675   3.515   1.039   4.685
 1890TIP3    H1 5676   3.470   1.102   4.742
 1890TIP3    H2 5677   3.607   1.045   4.709
 1891TIP3   OH2 5678   5.371   4.574   0.830
 1891TIP3    H1 5679   5.303   4.525   0.876
 1891TIP3    H2 5680   5.327   4.654   0.800
 1892TIP3   OH2 5681   4.345   4.272   1.091
 1892TIP3    H1 5682   4.415   4.334   1.071
 1892TIP3    H2 5683   4.368   4.193   1.043
 1893TIP3   OH2 5684   0.098   3.960   0.377
 1893TIP3    H1 5685   0.011   3.999   0.382
 1893TIP3    H2 5686   0.141   3.986   0.458
 1894TIP3   OH2 5687   5.673   0.095   3.266
 1894TIP3    H1 5688   5.686   0.163   3.199
 1894TIP3    H2 5689   5.712   0.133   3.345
 1895TIP3   OH2 5690  -0.032   0.765   3.442
 1895TIP3    H1 5691  -0.005   0.684   3.485
 1895TIP3    H2 5692   0.041   0.787   3.385
 1896TIP3   OH2 5693   5.077   4.469   3.153
 1896TIP3    H1 5694   4.990   4.476   3.114
 1896TIP3    H2 5695   5.080   4.539   3.218
 1897TIP3   OH2 5696   2.263   1.028   4.410
 1897TIP3    H1 5697   2.180   1.041   4.456
 1897TIP3    H2 5698   2.325   1.001   4.478
 1898TIP3   OH2 5699   4.193   4.882   1.932
 1898TIP3    H1 5700   4.189   4.978   1.930
 1898TIP3    H2 5701   4.278   4.862   1.973
 1899TIP3   OH2 5702   0.295   1.046   0.514
 1899TIP3    H1 5703   0.228   0.983   0.488
 1899TIP3    H2 5704   0.307   1.031   0.608
 1900TIP3   OH2 5705   3.536   0.809   3.483
 1900TIP3    H1 5706   3.544   0.772   3.395
 1900TIP3    H2 5707   3.452   0.776   3.515
 1901TIP3   OH2 5708   4.602   2.373   3.606
 1901TIP3    H1 5709   4.653   2.349   3.528
 1901TIP3    H2 5710   4.630   2.462   3.626
 1902TIP3   OH2 5711   5.725   5.402   0.820
 1902TIP3    H1 5712   5.803   5.450   0.848
 1902TIP3    H2 5713   5.748   5.310   0.831
 1903TIP3   OH2 5714   4.370   0.150   4.617
 1903TIP3    H1 5715   4.304   0.216   4.599
 1903TIP3    H2 5716   4.383   0.105   4.534
 1904TIP3   OH2 5717   6.224   4.484   4.387
 1904TIP3    H1 5718   6.152   4.528   4.431
 1904TIP3    H2 5719   6.201   4.391   4.391
 1905TIP3   OH2 5720   3.090   3.122   1.856
 1905TIP3    H1 5721   3.140   3.179   1.798
 1905TIP3    H2 5722   3.156   3.067   1.899
 1906TIP3   OH2 5723   2.808   3.370   4.694
 1906TIP3    H1 5724   2.749   3.358   4.619
 1906TIP3    H2 5725   2.778   3.305   4.758
 1907TIP3   OH2 5726   2.542   1.593   3.527
 1907TIP3    H1 5727   2.540   1.641   3.444
 1907TIP3    H2 5728   2.608   1.525   3.512
 1908TIP3   OH2 5729   3.231   4.846   3.092
 1908TIP3    H1 5730   3.317   4.882   3.112
 1908TIP3    H2 5731   3.236   4.754   3.118
 1909TIP3   OH2 5732   5.807   3.109   3.590
 1909TIP3    H1 5733   5.784   3.202   3.583
 1909TIP3    H2 5734   5.724   3.064   3.603
 1910TIP3   OH2 5735   0.445   3.547   4.284
 1910TIP3    H1 5736   0.460   3.625   4.230
 1910TIP3    H2 5737   0.366   3.507   4.246
 1911TIP3   OH2 5738   2.750   4.326   0.544
 1911TIP3    H1 5739   2.793   4.248   0.509
 1911TIP3    H2 5740   2.815   4.395   0.533
 1912TIP3   OH2 5741   0.685   1.184   0.956
 1912TIP3    H1 5742   0.617   1.126   0.990
 1912TIP3    H2 5743   0.767   1.148   0.990
 1913TIP3   OH2 5744   4.041   4.229   2.993
 1913TIP3    H1 5745   4.072   4.139   2.981
 1913TIP3    H2 5746   3.963   4.235   2.938
 1914TIP3   OH2 5747   2.097   5.265   3.274
 1914TIP3    H1 5748   2.045   5.192   3.309
 1914TIP3    H2 5749   2.183   5.256   3.315
 1915TIP3   OH2 5750   4.774   0.968   3.996
 1915TIP3    H1 5751   4.727   0.989   4.077
 1915TIP3    H2 5752   4.711   0.918   3.944
 1916TIP3   OH2 5753   1.420   0.920   1.808
 1916TIP3    H1 5754   1.350   0.901   1.746
 1916TIP3    H2 5755   1.465   0.996   1.772
 1917TIP3   OH2 5756   4.789   1.053   4.363
 1917TIP3    H1 5757   4.786   1.096   4.449
 1917TIP3    H2 5758   4.704   1.072   4.324
 1918TIP3   OH2 5759   1.579   2.080   0.076
 1918TIP3    H1 5760   1.497   2.030   0.071
 1918TIP3    H2 5761   1.553   2.170   0.054
 1919TIP3   OH2 5762   4.408   1.589   1.560
 1919TIP3    H1 5763   4.384   1.627   1.476
 1919TIP3    H2 5764   4.380   1.654   1.625
 1920TIP3   OH2 5765   5.883   2.983   3.354
 1920TIP3    H1 5766   5.880   3.013   3.445
 1920TIP3    H2 5767   5.890   3.063   3.303
 1921TIP3   OH2 5768   5.590   2.040   0.104
 1921TIP3    H1 5769   5.666   2.025   0.048
 1921TIP3    H2 5770   5.590   2.134   0.120
 1922TIP3   OH2 5771   5.948   0.914   4.706
 1922TIP3    H1 5772   5.875   0.951   4.756
 1922TIP3    H2 5773   5.971   0.982   4.643
 1923TIP3   OH2 5774   0.679   3.077   0.760
 1923TIP3    H1 5775   0.637   3.158   0.731
 1923TIP3    H2 5776   0.726   3.046   0.682
 1924TIP3   OH2 5777   4.413   2.396   2.299
 1924TIP3    H1 5778   4.378   2.457   2.364
 1924TIP3    H2 5779   4.340   2.336   2.281
 1925TIP3   OH2 5780   3.905   1.517   0.513
 1925TIP3    H1 5781   3.994   1.552   0.510
 1925TIP3    H2 5782   3.917   1.424   0.535
 1926TIP3   OH2 5783   4.099   2.293   1.956
 1926TIP3    H1 5784   4.122   2.215   1.906
 1926TIP3    H2 5785   4.112   2.366   1.896
 1927TIP3   OH2 5786   3.663   4.705   0.416
 1927TIP3    H1 5787   3.590   4.749   0.374
 1927TIP3    H2 5788   3.709   4.775   0.464
 1928TIP3   OH2 5789   6.036   5.379   3.475
 1928TIP3    H1 5790   5.999   5.306   3.524
 1928TIP3    H2 5791   6.123   5.348   3.450
 1929TIP3   OH2 5792   4.081   2.622   1.481
 1929TIP3    H1 5793   3.999   2.577   1.461
 1929TIP3    H2 5794   4.144   2.551   1.495
 1930TIP3   OH2 5795   6.255   5.102   0.430
 1930TIP3    H1 5796   6.326   5.046   0.462
 1930TIP3    H2 5797   6.298   5.183   0.403
 1931TIP3   OH2 5798   0.706   5.496   4.328
 1931TIP3    H1 5799   0.763   5.428   4.292
 1931TIP3    H2 5800   0.718   5.490   4.423
 1932TIP3   OH2 5801   0.286   3.758   4.626
 1932TIP3    H1 5802   0.288   3.668   4.659
 1932TIP3    H2 5803   0.325   3.752   4.538
 1933TIP3   OH2 5804   5.361   5.002   3.270
 1933TIP3    H1 5805   5.438   4.993   3.214
 1933TIP3    H2 5806   5.316   5.080   3.236
 1934TIP3   OH2 5807   3.577   0.204   3.878
 1934TIP3    H1 5808   3.610   0.292   3.859
 1934TIP3    H2 5809   3.501   0.194   3.821
 1935TIP3   OH2 5810   2.487   4.972   0.096
 1935TIP3    H1 5811   2.510   4.945   0.007
 1935TIP3    H2 5812   2.420   5.039   0.085
 1936TIP3   OH2 5813   4.961   2.598   2.185
 1936TIP3    H1 5814   5.044   2.633   2.216
 1936TIP3    H2 5815   4.985   2.523   2.130
 1937TIP3   OH2 5816   0.913   1.033   1.355
 1937TIP3    H1 5817   0.956   1.090   1.292
 1937TIP3    H2 5818   0.864   1.093   1.412
 1938TIP3   OH2 5819   2.240   4.282   3.678
 1938TIP3    H1 5820   2.271   4.335   3.751
 1938TIP3    H2 5821   2.285   4.199   3.686
 1939TIP3   OH2 5822   3.851   1.985   2.655
 1939TIP3    H1 5823   3.756   1.990   2.667
 1939TIP3    H2 5824   3.880   1.920   2.719
 1940TIP3   OH2 5825   0.040   2.498   3.408
 1940TIP3    H1 5826   0.052   2.415   3.454
 1940TIP3    H2 5827  -0.048   2.527   3.433
 1941TIP3   OH2 5828   4.163   3.466   0.915
 1941TIP3    H1 5829   4.075   3.490   0.888
 1941TIP3    H2 5830   4.150   3.417   0.997
 1942TIP3   OH2 5831   1.527   5.898   0.135
 1942TIP3    H1 5832   1.620   5.892   0.112
 1942TIP3    H2 5833   1.501   5.985   0.107
 1943TIP3   OH2 5834   0.478   1.922   2.349
 1943TIP3    H1 5835   0.437   1.839   2.327
 1943TIP3    H2 5836   0.558   1.898   2.396
 1944TIP3   OH2 5837   4.576   1.119   3.543
 1944TIP3    H1 5838   4.619   1.200   3.514
 1944TIP3    H2 5839   4.567   1.129   3.638
 1945TIP3   OH2 5840   5.883   2.121   5.189
 1945TIP3    H1 5841   5.937   2.056   5.144
 1945TIP3    H2 5842   5.821   2.150   5.123
 1946TIP3   OH2 5843   5.398   3.177   0.270
 1946TIP3    H1 5844   5.334   3.177   0.198
 1946TIP3    H2 5845   5.366   3.110   0.330
 1947TIP3   OH2 5846   5.638   1.678   1.257
 1947TIP3    H1 5847   5.579   1.609   1.226
 1947TIP3    H2 5848   5.580   1.739   1.304
 1948TIP3   OH2 5849   6.189   1.699   2.073
 1948TIP3    H1 5850   6.230   1.698   2.159
 1948TIP3    H2 5851   6.136   1.619   2.072
 1949TIP3   OH2 5852   4.096   4.228   1.875
 1949TIP3    H1 5853   4.024   4.171   1.901
 1949TIP3    H2 5854   4.120   4.274   1.955
 1950TIP3   OH2 5855   5.242   3.380   3.609
 1950TIP3    H1 5856   5.199   3.385   3.695
 1950TIP3    H2 5857   5.171   3.392   3.546
 1951TIP3   OH2 5858   5.692   5.581   4.967
 1951TIP3    H1 5859   5.692   5.561   5.060
 1951TIP3    H2 5860   5.784   5.574   4.941
 1952TIP3   OH2 5861   4.637   2.309   1.093
 1952TIP3    H1 5862   4.720   2.329   1.136
 1952TIP3    H2 5863   4.605   2.229   1.136
 1953TIP3   OH2 5864   3.073   2.473   0.584
 1953TIP3    H1 5865   3.011   2.547   0.588
 1953TIP3    H2 5866   3.021   2.401   0.548
 1954TIP3   OH2 5867   5.148   4.281   2.236
 1954TIP3    H1 5868   5.214   4.265   2.302
 1954TIP3    H2 5869   5.067   4.247   2.273
 1955TIP3   OH2 5870   0.237   1.826   0.545
 1955TIP3    H1 5871   0.233   1.872   0.629
 1955TIP3    H2 5872   0.183   1.878   0.486
 1956TIP3   OH2 5873   2.622   2.149   0.501
 1956TIP3    H1 5874   2.627   2.245   0.503
 1956TIP3    H2 5875   2.647   2.126   0.411
 1957TIP3   OH2 5876   5.600   2.405   1.608
 1957TIP3    H1 5877   5.522   2.402   1.664
 1957TIP3    H2 5878   5.569   2.373   1.523
 1958TIP3   OH2 5879   3.977   5.346   1.721
 1958TIP3    H1 5880   3.944   5.266   1.680
 1958TIP3    H2 5881   3.921   5.415   1.686
 1959TIP3   OH2 5882   2.124   2.082   3.748
 1959TIP3    H1 5883   2.142   2.076   3.842
 1959TIP3    H2 5884   2.192   2.030   3.707
 1960TIP3   OH2 5885   1.344   3.478   5.122
 1960TIP3    H1 5886   1.402   3.471   5.046
 1960TIP3    H2 5887   1.309   3.567   5.117
 1961TIP3   OH2 5888   2.615   5.478   3.034
 1961TIP3    H1 5889   2.697   5.526   3.025
 1961TIP3    H2 5890   2.628   5.397   2.983
 1962TIP3   OH2 5891   4.819   0.620   0.734
 1962TIP3    H1 5892   4.752   0.556   0.757
 1962TIP3    H2 5893   4.901   0.570   0.733
 1963TIP3   OH2 5894   0.802   1.260   4.737
 1963TIP3    H1 5895   0.848   1.213   4.668
 1963TIP3    H2 5896   0.763   1.192   4.792
 1964TIP3   OH2 5897   5.048   0.943   0.723
 1964TIP3    H1 5898   5.012   1.000   0.655
 1964TIP3    H2 5899   5.092   0.873   0.674
 1965TIP3   OH2 5900   5.868   4.734   0.538
 1965TIP3    H1 5901   5.899   4.692   0.458
 1965TIP3    H2 5902   5.844   4.822   0.511
 1966TIP3   OH2 5903   0.905   3.570   3.059
 1966TIP3    H1 5904   0.968   3.604   3.123
 1966TIP3    H2 5905   0.861   3.499   3.104
 1967TIP3   OH2 5906   6.072   0.495   3.672
 1967TIP3    H1 5907   6.031   0.412   3.694
 1967TIP3    H2 5908   6.143   0.504   3.736
 1968TIP3   OH2 5909   5.372   5.864   4.804
 1968TIP3    H1 5910   5.376   5.776   4.841
 1968TIP3    H2 5911   5.447   5.869   4.745
 1969TIP3   OH2 5912   5.511   3.081   2.626
 1969TIP3    H1 5913   5.591   3.032   2.641
 1969TIP3    H2 5914   5.539   3.172   2.616
 1970TIP3   OH2 5915   5.862   0.144   0.777
 1970TIP3    H1 5916   5.850   0.225   0.726
 1970TIP3    H2 5917   5.773   0.110   0.788
 1971TIP3   OH2 5918   0.457   4.336   1.949
 1971TIP3    H1 5919   0.515   4.262   1.929
 1971TIP3    H2 5920   0.460   4.344   2.044
 1972TIP3   OH2 5921   2.790   2.778   2.191
 1972TIP3    H1 5922   2.881   2.764   2.164
 1972TIP3    H2 5923   2.796   2.833   2.269
 1973TIP3   OH2 5924   3.531   4.058   2.282
 1973TIP3    H1 5925   3.592   4.026   2.348
 1973TIP3    H2 5926   3.459   3.995   2.283
 1974TIP3   OH2 5927   4.961   2.239   4.099
 1974TIP3    H1 5928   4.953   2.282   4.184
 1974TIP3    H2 5929   4.903   2.163   4.105
 1975TIP3   OH2 5930   0.171   4.465   1.110
 1975TIP3    H1 5931   0.139   4.536   1.054
 1975TIP3    H2 5932   0.149   4.385   1.063
 1976TIP3   OH2 5933   2.063   1.687   4.157
 1976TIP3    H1 5934   2.122   1.617   4.131
 1976TIP3    H2 5935   2.119   1.750   4.202
 1977TIP3   OH2 5936   5.243   1.924   3.544
 1977TIP3    H1 5937   5.229   1.955   3.633
 1977TIP3    H2 5938   5.236   2.003   3.490
 1978TIP3   OH2 5939   0.979   2.778   0.115
 1978TIP3    H1 5940   0.941   2.702   0.159
 1978TIP3    H2 5941   0.907   2.813   0.063
 1979TIP3   OH2 5942   1.500   5.893   0.479
 1979TIP3    H1 5943   1.451   5.944   0.415
 1979TIP3    H2 5944   1.517   5.955   0.551
 1980TIP3   OH2 5945   1.274   4.119   5.109
 1980TIP3    H1 5946   1.228   4.106   5.026
 1980TIP3    H2 5947   1.248   4.043   5.162
 1981TIP3   OH2 5948   5.924   4.307   2.670
 1981TIP3    H1 5949   5.870   4.234   2.642
 1981TIP3    H2 5950   5.892   4.329   2.758
 1982TIP3   OH2 5951   3.336   4.652   2.319
 1982TIP3    H1 5952   3.351   4.611   2.234
 1982TIP3    H2 5953   3.405   4.719   2.325
 1983TIP3   OH2 5954   0.780   0.400   3.730
 1983TIP3    H1 5955   0.873   0.420   3.721
 1983TIP3    H2 5956   0.767   0.323   3.674
 1984TIP3   OH2 5957   2.956   0.443   1.825
 1984TIP3    H1 5958   3.034   0.486   1.861
 1984TIP3    H2 5959   2.911   0.407   1.901
 1985TIP3   OH2 5960   1.544   0.201   4.608
 1985TIP3    H1 5961   1.488   0.164   4.676
 1985TIP3    H2 5962   1.586   0.277   4.649
 1986TIP3   OH2 5963   1.702   3.933   0.507
 1986TIP3    H1 5964   1.709   3.864   0.573
 1986TIP3    H2 5965   1.614   3.922   0.470
 1987TIP3   OH2 5966   0.123   0.588   2.564
 1987TIP3    H1 5967   0.192   0.640   2.523
 1987TIP3    H2 5968   0.146   0.497   2.546
 1988TIP3   OH2 5969   3.899   5.863   2.937
 1988TIP3    H1 5970   3.851   5.933   2.982
 1988TIP3    H2 5971   3.969   5.908   2.890
 1989TIP3   OH2 5972   5.897   3.282   4.981
 1989TIP3    H1 5973   5.950   3.328   4.915
 1989TIP3    H2 5974   5.823   3.246   4.931
 1990TIP3   OH2 5975   3.531   2.035   0.050
 1990TIP3    H1 5976   3.520   2.084   0.131
 1990TIP3    H2 5977   3.476   1.957   0.061
 1991TIP3   OH2 5978   3.053   2.131   3.962
 1991TIP3    H1 5979   3.050   2.160   4.053
 1991TIP3    H2 5980   3.101   2.200   3.916
 1992TIP3   OH2 5981   0.161   5.365   2.500
 1992TIP3    H1 5982   0.159   5.290   2.559
 1992TIP3    H2 5983   0.204   5.434   2.551
 1993TIP3   OH2 5984   4.214   5.802   2.841
 1993TIP3    H1 5985   4.162   5.722   2.824
 1993TIP3    H2 5986   4.170   5.870   2.790
 1994TIP3   OH2 5987   0.100   2.671   0.378
 1994TIP3    H1 5988   0.038   2.667   0.451
 1994TIP3    H2 5989   0.045   2.658   0.300
 1995TIP3   OH2 5990   2.221   3.101   1.680
 1995TIP3    H1 5991   2.197   3.037   1.747
 1995TIP3    H2 5992   2.191   3.185   1.716
 1996TIP3   OH2 5993   3.303   4.804   4.777
 1996TIP3    H1 5994   3.320   4.777   4.686
 1996TIP3    H2 5995   3.244   4.879   4.769
 1997TIP3   OH2 5996   1.835   4.207   5.024
 1997TIP3    H1 5997   1.858   4.160   4.944
 1997TIP3    H2 5998   1.759   4.260   5.000
 1998TIP3   OH2 5999   1.290   1.686   3.652
 1998TIP3    H1 6000   1.257   1.758   3.704
 1998TIP3    H2 6001   1.263   1.607   3.700
 1999TIP3   OH2 6002   0.572   2.664   1.540
 1999TIP3    H1 6003   0.483   2.628   1.540
 1999TIP3    H2 6004   0.622   2.605   1.485
 2000TIP3   OH2 6005   5.480   3.356   2.727
 2000TIP3    H1 6006   5.423   3.386   2.797
 2000TIP3    H2 6007   5.452   3.407   2.650
 2001TIP3   OH2 6008   2.917   2.906   0.702
 2001TIP3    H1 6009   2.997   2.959   0.699
 2001TIP3    H2 6010   2.915   2.862   0.617
 2002TIP3   OH2 6011   5.692   0.535   2.859
 2002TIP3    H1 6012   5.663   0.527   2.949
 2002TIP3    H2 6013   5.615   0.514   2.806
 2003TIP3   OH2 6014   5.196   2.126   3.356
 2003TIP3    H1 6015   5.278   2.174   3.342
 2003TIP3    H2 6016   5.158   2.118   3.269
 2004TIP3   OH2 6017   5.198   5.602   3.347
 2004TIP3    H1 6018   5.286   5.592   3.311
 2004TIP3    H2 6019   5.197   5.691   3.382
 2005TIP3   OH2 6020   3.588   0.653   3.777
 2005TIP3    H1 6021   3.669   0.682   3.733
 2005TIP3    H2 6022   3.535   0.616   3.707
 2006TIP3   OH2 6023   1.346   5.465   0.020
 2006TIP3    H1 6024   1.354   5.537   0.082
 2006TIP3    H2 6025   1.253   5.447   0.015
 2007TIP3   OH2 6026   4.897   0.486   2.058
 2007TIP3    H1 6027   4.850   0.563   2.026
 2007TIP3    H2 6028   4.982   0.520   2.087
 2008TIP3   OH2 6029   3.118   3.614   4.932
 2008TIP3    H1 6030   3.036   3.655   4.959
 2008TIP3    H2 6031   3.169   3.684   4.893
 2009TIP3   OH2 6032   3.079   3.333   1.329
 2009TIP3    H1 6033   3.039   3.393   1.392
 2009TIP3    H2 6034   3.158   3.302   1.372
 2010TIP3   OH2 6035   0.353   1.464   4.064
 2010TIP3    H1 6036   0.391   1.505   3.987
 2010TIP3    H2 6037   0.395   1.508   4.138
 2011TIP3   OH2 6038   3.163   4.446   4.654
 2011TIP3    H1 6039   3.091   4.402   4.608
 2011TIP3    H2 6040   3.172   4.530   4.610
 2012TIP3   OH2 6041   2.936   1.541   2.233
 2012TIP3    H1 6042   2.894   1.545   2.319
 2012TIP3    H2 6043   2.925   1.628   2.196
 2013TIP3   OH2 6044   0.585   5.335   2.410
 2013TIP3    H1 6045   0.626   5.381   2.483
 2013TIP3    H2 6046   0.523   5.276   2.452
 2014TIP3   OH2 6047   6.071   1.156   2.377
 2014TIP3    H1 6048   6.072   1.249   2.400
 2014TIP3    H2 6049   6.093   1.110   2.458
 2015TIP3   OH2 6050   3.204   4.181   1.411
 2015TIP3    H1 6051   3.128   4.169   1.469
 2015TIP3    H2 6052   3.212   4.098   1.364
 2016TIP3   OH2 6053   5.276   3.770   2.766
 2016TIP3    H1 6054   5.337   3.753   2.838
 2016TIP3    H2 6055   5.294   3.701   2.702
 2017TIP3   OH2 6056   4.353   4.288   3.067
 2017TIP3    H1 6057   4.264   4.305   3.036
 2017TIP3    H2 6058   4.345   4.278   3.161
 2018TIP3   OH2 6059   3.620   3.266   4.672
 2018TIP3    H1 6060   3.647   3.283   4.762
 2018TIP3    H2 6061   3.659   3.338   4.622
 2019TIP3   OH2 6062   5.871   2.846   4.483
 2019TIP3    H1 6063   5.938   2.797   4.436
 2019TIP3    H2 6064   5.916   2.925   4.515
 2020TIP3   OH2 6065   4.992   4.020   0.520
 2020TIP3    H1 6066   5.016   3.935   0.482
 2020TIP3    H2 6067   5.066   4.077   0.498
 2021TIP3   OH2 6068   1.622   3.818   2.813
 2021TIP3    H1 6069   1.532   3.818   2.780
 2021TIP3    H2 6070   1.613   3.807   2.908
 2022TIP3   OH2 6071   3.266   1.949   4.288
 2022TIP3    H1 6072   3.272   1.946   4.192
 2022TIP3    H2 6073   3.255   1.858   4.314
 2023TIP3   OH2 6074   0.590   2.426   0.611
 2023TIP3    H1 6075   0.540   2.475   0.676
 2023TIP3    H2 6076   0.664   2.389   0.660
 2024TIP3   OH2 6077   1.211   4.581   4.843
 2024TIP3    H1 6078   1.174   4.494   4.827
 2024TIP3    H2 6079   1.268   4.597   4.768
 2025TIP3   OH2 6080   0.260   0.722   2.934
 2025TIP3    H1 6081   0.336   0.779   2.928
 2025TIP3    H2 6082   0.278   0.651   2.872
 2026TIP3   OH2 6083   3.426   5.115   1.400
 2026TIP3    H1 6084   3.447   5.024   1.379
 2026TIP3    H2 6085   3.397   5.152   1.317
 2027TIP3   OH2 6086   2.364   3.792   5.023
 2027TIP3    H1 6087   2.398   3.703   5.033
 2027TIP3    H2 6088   2.438   3.849   5.044
 2028TIP3   OH2 6089   1.697   0.869   1.313
 2028TIP3    H1 6090   1.690   0.868   1.409
 2028TIP3    H2 6091   1.631   0.933   1.286
 2029TIP3   OH2 6092   5.830   4.567   0.766
 2029TIP3    H1 6093   5.841   4.629   0.694
 2029TIP3    H2 6094   5.745   4.525   0.749
 2030TIP3   OH2 6095   1.446   4.950   4.806
 2030TIP3    H1 6096   1.475   4.859   4.797
 2030TIP3    H2 6097   1.361   4.943   4.849
 2031TIP3   OH2 6098   4.871   2.371   4.351
 2031TIP3    H1 6099   4.810   2.443   4.336
 2031TIP3    H2 6100   4.814   2.295   4.369
 2032TIP3   OH2 6101   4.162   2.046   1.863
 2032TIP3    H1 6102   4.232   2.022   1.923
 2032TIP3    H2 6103   4.090   1.987   1.885
 2033TIP3   OH2 6104   2.860   1.805   3.625
 2033TIP3    H1 6105   2.917   1.737   3.662
 2033TIP3    H2 6106   2.921   1.870   3.590
 2034TIP3   OH2 6107   0.509   2.961   3.491
 2034TIP3    H1 6108   0.533   2.986   3.401
 2034TIP3    H2 6109   0.593   2.946   3.535
 2035TIP3   OH2 6110   3.114   4.574   5.179
 2035TIP3    H1 6111   3.158   4.538   5.102
 2035TIP3    H2 6112   3.181   4.626   5.223
 2036TIP3   OH2 6113   1.371   3.736   0.566
 2036TIP3    H1 6114   1.294   3.692   0.528
 2036TIP3    H2 6115   1.341   3.824   0.587
 2037TIP3   OH2 6116   1.502   3.381   0.450
 2037TIP3    H1 6117   1.434   3.434   0.408
 2037TIP3    H2 6118   1.472   3.291   0.438
 2038TIP3   OH2 6119   5.978   2.175   2.731
 2038TIP3    H1 6120   6.040   2.113   2.771
 2038TIP3    H2 6121   6.020   2.261   2.742
 2039TIP3   OH2 6122   5.569   4.591   0.632
 2039TIP3    H1 6123   5.532   4.671   0.595
 2039TIP3    H2 6124   5.515   4.573   0.709
 2040TIP3   OH2 6125   1.076   3.327   0.923
 2040TIP3    H1 6126   1.087   3.288   0.836
 2040TIP3    H2 6127   0.982   3.325   0.939
 2041TIP3   OH2 6128   0.180   4.929   4.318
 2041TIP3    H1 6129   0.154   4.864   4.254
 2041TIP3    H2 6130   0.255   4.974   4.278
 2042TIP3   OH2 6131   4.122   3.138   4.293
 2042TIP3    H1 6132   4.127   3.063   4.234
 2042TIP3    H2 6133   4.136   3.100   4.380
 2043TIP3   OH2 6134   2.886   1.735   5.154
 2043TIP3    H1 6135   2.820   1.787   5.200
 2043TIP3    H2 6136   2.868   1.749   5.061
 2044TIP3   OH2 6137   2.628   1.425   2.192
 2044TIP3    H1 6138   2.590   1.374   2.120
 2044TIP3    H2 6139   2.720   1.436   2.169
 2045TIP3   OH2 6140   4.529   4.787   1.620
 2045TIP3    H1 6141   4.497   4.727   1.687
 2045TIP3    H2 6142   4.497   4.750   1.538
 2046TIP3   OH2 6143   4.080   5.876   4.860
 2046TIP3    H1 6144   3.989   5.879   4.890
 2046TIP3    H2 6145   4.111   5.966   4.870
 2047TIP3   OH2 6146   3.061   3.650   2.689
 2047TIP3    H1 6147   2.982   3.679   2.733
 2047TIP3    H2 6148   3.035   3.637   2.598
 2048TIP3   OH2 6149   1.734   3.357   1.356
 2048TIP3    H1 6150   1.668   3.389   1.416
 2048TIP3    H2 6151   1.714   3.400   1.273
 2049TIP3   OH2 6152   4.089   0.095   2.580
 2049TIP3    H1 6153   4.150   0.022   2.580
 2049TIP3    H2 6154   4.144   0.173   2.589
 2050TIP3   OH2 6155   4.664   1.915   1.715
 2050TIP3    H1 6156   4.621   1.931   1.799
 2050TIP3    H2 6157   4.608   1.958   1.651
 2051TIP3   OH2 6158   5.913   3.617   3.332
 2051TIP3    H1 6159   5.927   3.530   3.369
 2051TIP3    H2 6160   5.999   3.658   3.336
 2052TIP3   OH2 6161   0.591   5.952   4.162
 2052TIP3    H1 6162   0.681   5.931   4.136
 2052TIP3    H2 6163   0.559   5.873   4.205
 2053TIP3   OH2 6164   0.721   4.054   1.611
 2053TIP3    H1 6165   0.727   3.959   1.601
 2053TIP3    H2 6166   0.811   4.085   1.600
 2054TIP3   OH2 6167   0.743   3.218   2.952
 2054TIP3    H1 6168   0.707   3.133   2.924
 2054TIP3    H2 6169   0.835   3.215   2.926
 2055TIP3   OH2 6170   0.545   4.993   0.860
 2055TIP3    H1 6171   0.481   5.055   0.897
 2055TIP3    H2 6172   0.613   5.049   0.822
 2056TIP3   OH2 6173   3.557   2.298   0.826
 2056TIP3    H1 6174   3.572   2.264   0.914
 2056TIP3    H2 6175   3.553   2.393   0.837
 2057TIP3   OH2 6176   2.851   2.224   1.865
 2057TIP3    H1 6177   2.935   2.179   1.869
 2057TIP3    H2 6178   2.861   2.299   1.923
 2058TIP3   OH2 6179   0.993   0.784   4.483
 2058TIP3    H1 6180   1.077   0.814   4.519
 2058TIP3    H2 6181   0.933   0.786   4.557
 2059TIP3   OH2 6182   4.481   0.005   4.836
 2059TIP3    H1 6183   4.476   0.061   4.758
 2059TIP3    H2 6184   4.400  -0.047   4.834
 2060TIP3   OH2 6185   2.880   0.571   1.090
 2060TIP3    H1 6186   2.879   0.545   1.182
 2060TIP3    H2 6187   2.815   0.641   1.084
 2061TIP3   OH2 6188   2.676   5.053   1.603
 2061TIP3    H1 6189   2.699   4.963   1.581
 2061TIP3    H2 6190   2.640   5.089   1.522
 2062TIP3   OH2 6191   3.674   5.986   2.313
 2062TIP3    H1 6192   3.580   5.965   2.314
 2062TIP3    H2 6193   3.718   5.902   2.324
 2063TIP3   OH2 6194   3.484   3.386   2.498
 2063TIP3    H1 6195   3.390   3.403   2.502
 2063TIP3    H2 6196   3.502   3.332   2.576
 2064TIP3   OH2 6197   3.376   0.523   0.234
 2064TIP3    H1 6198   3.362   0.541   0.327
 2064TIP3    H2 6199   3.452   0.577   0.211
 2065TIP3   OH2 6200   0.114   1.915   0.311
 2065TIP3    H1 6201   0.037   1.971   0.315
 2065TIP3    H2 6202   0.078   1.826   0.307
 2066TIP3   OH2 6203   3.101   0.317   0.434
 2066TIP3    H1 6204   3.046   0.383   0.392
 2066TIP3    H2 6205   3.120   0.353   0.521
 2067TIP3   OH2 6206   1.447   1.082   4.487
 2067TIP3    H1 6207   1.486   1.103   4.402
 2067TIP3    H2 6208   1.518   1.042   4.537
 2068TIP3   OH2 6209   6.049   4.294   1.758
 2068TIP3    H1 6210   6.115   4.294   1.827
 2068TIP3    H2 6211   5.968   4.266   1.802
 2069TIP3   OH2 6212   4.794   1.709   5.090
 2069TIP3    H1 6213   4.767   1.690   5.180
 2069TIP3    H2 6214   4.785   1.804   5.082
 2070TIP3   OH2 6215   4.904   4.963   0.115
 2070TIP3    H1 6216   4.988   5.008   0.114
 2070TIP3    H2 6217   4.888   4.942   0.207
 2071TIP3   OH2 6218   1.610   3.786   3.875
 2071TIP3    H1 6219   1.634   3.696   3.894
 2071TIP3    H2 6220   1.533   3.780   3.819
 2072TIP3   OH2 6221   1.888   5.088   4.275
 2072TIP3    H1 6222   1.956   5.149   4.302
 2072TIP3    H2 6223   1.865   5.040   4.355
 2073TIP3   OH2 6224   2.397   0.362   1.931
 2073TIP3    H1 6225   2.358   0.279   1.955
 2073TIP3    H2 6226   2.326   0.426   1.940
 2074TIP3   OH2 6227   1.947   5.080   3.436
 2074TIP3    H1 6228   1.974   5.031   3.514
 2074TIP3    H2 6229   1.904   5.159   3.471
 2075TIP3   OH2 6230   1.804   0.748   3.285
 2075TIP3    H1 6231   1.880   0.755   3.226
 2075TIP3    H2 6232   1.739   0.807   3.248
 2076TIP3   OH2 6233   0.359   1.024   0.793
 2076TIP3    H1 6234   0.360   1.044   0.886
 2076TIP3    H2 6235   0.274   0.983   0.778
 2077TIP3   OH2 6236   2.554   1.697   0.892
 2077TIP3    H1 6237   2.608   1.686   0.814
 2077TIP3    H2 6238   2.525   1.608   0.914
 2078TIP3   OH2 6239   5.371   2.521   2.108
 2078TIP3    H1 6240   5.337   2.441   2.149
 2078TIP3    H2 6241   5.340   2.516   2.018
 2079TIP3   OH2 6242   0.887   4.638   1.624
 2079TIP3    H1 6243   0.925   4.686   1.698
 2079TIP3    H2 6244   0.962   4.612   1.571
 2080TIP3   OH2 6245   2.735   2.919   4.270
 2080TIP3    H1 6246   2.641   2.930   4.286
 2080TIP3    H2 6247   2.774   2.917   4.357
 2081TIP3   OH2 6248   2.928   2.214   4.601
 2081TIP3    H1 6249   2.972   2.253   4.676
 2081TIP3    H2 6250   2.961   2.264   4.526
 2082TIP3   OH2 6251   1.850   1.874   1.237
 2082TIP3    H1 6252   1.885   1.947   1.186
 2082TIP3    H2 6253   1.910   1.866   1.312
 2083TIP3   OH2 6254   2.971   0.804   2.707
 2083TIP3    H1 6255   3.028   0.771   2.776
 2083TIP3    H2 6256   3.000   0.759   2.627
 2084TIP3   OH2 6257   0.415   0.195   1.770
 2084TIP3    H1 6258   0.351   0.211   1.840
 2084TIP3    H2 6259   0.480   0.136   1.808
 2085TIP3   OH2 6260   0.300   1.387   1.164
 2085TIP3    H1 6261   0.369   1.439   1.123
 2085TIP3    H2 6262   0.243   1.363   1.091
 2086TIP3   OH2 6263   5.570   5.108   4.638
 2086TIP3    H1 6264   5.504   5.175   4.658
 2086TIP3    H2 6265   5.652   5.146   4.668
 2087TIP3   OH2 6266   4.129   3.878   2.192
 2087TIP3    H1 6267   4.163   3.837   2.271
 2087TIP3    H2 6268   4.037   3.854   2.190
 2088TIP3   OH2 6269   2.627   0.354   0.595
 2088TIP3    H1 6270   2.686   0.366   0.669
 2088TIP3    H2 6271   2.550   0.406   0.616
 2089TIP3   OH2 6272   4.349   2.149   0.107
 2089TIP3    H1 6273   4.277   2.151   0.045
 2089TIP3    H2 6274   4.334   2.224   0.164
 2090TIP3   OH2 6275   1.970   2.315   0.495
 2090TIP3    H1 6276   2.045   2.292   0.549
 2090TIP3    H2 6277   1.912   2.365   0.554
 2091TIP3   OH2 6278   5.433   3.653   4.274
 2091TIP3    H1 6279   5.520   3.616   4.293
 2091TIP3    H2 6280   5.384   3.642   4.356
 2092TIP3   OH2 6281   2.111   0.203   2.426
 2092TIP3    H1 6282   2.067   0.288   2.420
 2092TIP3    H2 6283   2.100   0.164   2.339
 2093TIP3   OH2 6284   5.513   5.641   2.271
 2093TIP3    H1 6285   5.480   5.720   2.228
 2093TIP3    H2 6286   5.554   5.673   2.351
 2094TIP3   OH2 6287   2.221   4.835   2.567
 2094TIP3    H1 6288   2.187   4.867   2.650
 2094TIP3    H2 6289   2.302   4.885   2.553
 2095TIP3   OH2 6290   3.082   4.043   0.942
 2095TIP3    H1 6291   3.159   4.095   0.920
 2095TIP3    H2 6292   3.041   4.025   0.857
 2096TIP3   OH2 6293   4.738   2.542   5.034
 2096TIP3    H1 6294   4.828   2.515   5.055
 2096TIP3    H2 6295   4.683   2.473   5.072
 2097TIP3   OH2 6296   6.156   0.557   3.915
 2097TIP3    H1 6297   6.066   0.528   3.923
 2097TIP3    H2 6298   6.152   0.652   3.929
 2098TIP3   OH2 6299   3.977   4.343   4.035
 2098TIP3    H1 6300   3.976   4.366   4.128
 2098TIP3    H2 6301   4.000   4.424   3.991
 2099TIP3   OH2 6302   2.587   4.296   3.721
 2099TIP3    H1 6303   2.676   4.275   3.696
 2099TIP3    H2 6304   2.565   4.232   3.789
 2100TIP3   OH2 6305   0.358   0.076   2.675
 2100TIP3    H1 6306   0.428   0.029   2.721
 2100TIP3    H2 6307   0.403   0.143   2.625
 2101TIP3   OH2 6308   1.613   5.343   4.097
 2101TIP3    H1 6309   1.689   5.402   4.099
 2101TIP3    H2 6310   1.557   5.374   4.168
 2102TIP3   OH2 6311   1.936   0.455   1.108
 2102TIP3    H1 6312   1.960   0.434   1.198
 2102TIP3    H2 6313   1.952   0.549   1.100
 2103TIP3   OH2 6314   2.651   1.087   2.778
 2103TIP3    H1 6315   2.685   1.171   2.749
 2103TIP3    H2 6316   2.622   1.102   2.868
 2104TIP3   OH2 6317   2.102   5.626   0.904
 2104TIP3    H1 6318   2.151   5.644   0.825
 2104TIP3    H2 6319   2.168   5.595   0.967
 2105TIP3   OH2 6320   5.780   5.119   1.990
 2105TIP3    H1 6321   5.814   5.208   1.999
 2105TIP3    H2 6322   5.836   5.078   1.924
 2106TIP3   OH2 6323   4.787   3.040   2.297
 2106TIP3    H1 6324   4.770   2.952   2.262
 2106TIP3    H2 6325   4.864   3.070   2.248
 2107TIP3   OH2 6326   5.971   4.197   0.304
 2107TIP3    H1 6327   5.923   4.137   0.246
 2107TIP3    H2 6328   5.910   4.215   0.376
 2108TIP3   OH2 6329   5.768   2.165   1.748
 2108TIP3    H1 6330   5.720   2.248   1.754
 2108TIP3    H2 6331   5.857   2.187   1.773
 2109TIP3   OH2 6332   1.696   1.174   3.257
 2109TIP3    H1 6333   1.688   1.248   3.198
 2109TIP3    H2 6334   1.638   1.194   3.330
 2110TIP3   OH2 6335   5.987   1.931   1.458
 2110TIP3    H1 6336   5.928   1.933   1.383
 2110TIP3    H2 6337   5.980   2.018   1.497
 2111TIP3   OH2 6338   4.653   5.568   1.803
 2111TIP3    H1 6339   4.617   5.486   1.836
 2111TIP3    H2 6340   4.596   5.592   1.730
 2112TIP3   OH2 6341   0.370   3.253   3.311
 2112TIP3    H1 6342   0.352   3.185   3.245
 2112TIP3    H2 6343   0.460   3.236   3.339
 2113TIP3   OH2 6344   2.026   3.656   4.742
 2113TIP3    H1 6345   2.085   3.732   4.751
 2113TIP3    H2 6346   1.979   3.652   4.825
 2114TIP3   OH2 6347   0.580   5.971   4.443
 2114TIP3    H1 6348   0.582   6.031   4.368
 2114TIP3    H2 6349   0.657   5.915   4.431
 2115TIP3   OH2 6350   3.587   2.739   1.239
 2115TIP3    H1 6351   3.549   2.785   1.314
 2115TIP3    H2 6352   3.534   2.659   1.232
 2116TIP3   OH2 6353   4.784   0.314   3.720
 2116TIP3    H1 6354   4.790   0.390   3.662
 2116TIP3    H2 6355   4.770   0.240   3.661
 2117TIP3   OH2 6356   5.997   5.154   0.588
 2117TIP3    H1 6357   5.998   5.060   0.607
 2117TIP3    H2 6358   6.060   5.164   0.516
 2118TIP3   OH2 6359   0.298   5.128   0.439
 2118TIP3    H1 6360   0.337   5.211   0.467
 2118TIP3    H2 6361   0.363   5.090   0.380
 2119TIP3   OH2 6362   2.093   3.840   4.491
 2119TIP3    H1 6363   2.086   3.767   4.552
 2119TIP3    H2 6364   2.022   3.826   4.428
 2120TIP3   OH2 6365   4.769   4.775   4.261
 2120TIP3    H1 6366   4.722   4.830   4.198
 2120TIP3    H2 6367   4.712   4.699   4.273
 2121TIP3   OH2 6368   2.328   2.732   5.080
 2121TIP3    H1 6369   2.300   2.813   5.039
 2121TIP3    H2 6370   2.251   2.702   5.130
 2122TIP3   OH2 6371   1.479   1.169   3.908
 2122TIP3    H1 6372   1.570   1.145   3.922
 2122TIP3    H2 6373   1.447   1.195   3.994
 2123TIP3   OH2 6374   2.990   4.460   3.816
 2123TIP3    H1 6375   2.961   4.448   3.725
 2123TIP3    H2 6376   2.910   4.457   3.868
 2124TIP3   OH2 6377   5.710   3.627   3.724
 2124TIP3    H1 6378   5.760   3.679   3.660
 2124TIP3    H2 6379   5.669   3.693   3.781
 2125TIP3   OH2 6380   2.335   1.249   0.329
 2125TIP3    H1 6381   2.244   1.272   0.347
 2125TIP3    H2 6382   2.382   1.273   0.409
 2126TIP3   OH2 6383   4.274   0.955   4.335
 2126TIP3    H1 6384   4.241   0.892   4.272
 2126TIP3    H2 6385   4.330   0.904   4.394
 2127TIP3   OH2 6386   2.029   3.323   5.042
 2127TIP3    H1 6387   2.044   3.327   4.947
 2127TIP3    H2 6388   2.052   3.234   5.066
 2128TIP3   OH2 6389   2.901   4.878   4.070
 2128TIP3    H1 6390   2.901   4.971   4.090
 2128TIP3    H2 6391   2.825   4.843   4.116
 2129TIP3   OH2 6392  -0.002   1.407   1.097
 2129TIP3    H1 6393  -0.007   1.358   1.179
 2129TIP3    H2 6394   0.045   1.349   1.037
 2130TIP3   OH2 6395   6.133   1.478   4.072
 2130TIP3    H1 6396   6.078   1.526   4.134
 2130TIP3    H2 6397   6.223   1.504   4.094
 2131TIP3   OH2 6398   4.257   3.577   4.624
 2131TIP3    H1 6399   4.254   3.630   4.704
 2131TIP3    H2 6400   4.209   3.629   4.559
 2132TIP3   OH2 6401   2.295   3.662   3.806
 2132TIP3    H1 6402   2.264   3.713   3.880
 2132TIP3    H2 6403   2.379   3.702   3.782
 2133TIP3   OH2 6404   5.632   0.478   4.169
 2133TIP3    H1 6405   5.552   0.441   4.208
 2133TIP3    H2 6406   5.645   0.427   4.089
 2134TIP3   OH2 6407   1.603   0.236   4.115
 2134TIP3    H1 6408   1.696   0.226   4.135
 2134TIP3    H2 6409   1.560   0.226   4.200
 2135TIP3   OH2 6410   2.765   1.274   0.632
 2135TIP3    H1 6411   2.731   1.224   0.706
 2135TIP3    H2 6412   2.854   1.299   0.659
 2136TIP3   OH2 6413   4.838   5.312   3.681
 2136TIP3    H1 6414   4.788   5.281   3.756
 2136TIP3    H2 6415   4.805   5.400   3.664
 2137TIP3   OH2 6416   3.025   0.377   1.558
 2137TIP3    H1 6417   3.099   0.437   1.552
 2137TIP3    H2 6418   2.997   0.383   1.650
 2138TIP3   OH2 6419   5.464   5.117   3.777
 2138TIP3    H1 6420   5.392   5.132   3.838
 2138TIP3    H2 6421   5.428   5.136   3.691
 2139TIP3   OH2 6422   1.193   5.501   5.088
 2139TIP3    H1 6423   1.223   5.585   5.123
 2139TIP3    H2 6424   1.227   5.499   4.998
 2140TIP3   OH2 6425   1.204   5.520   4.374
 2140TIP3    H1 6426   1.137   5.563   4.321
 2140TIP3    H2 6427   1.199   5.563   4.459
 2141TIP3   OH2 6428   1.900   5.293   4.067
 2141TIP3    H1 6429   1.983   5.336   4.089
 2141TIP3    H2 6430   1.903   5.210   4.114
 2142TIP3   OH2 6431   5.161   0.834   1.887
 2142TIP3    H1 6432   5.095   0.880   1.939
 2142TIP3    H2 6433   5.112   0.794   1.815
 2143TIP3   OH2 6434   0.189   3.062   4.983
 2143TIP3    H1 6435   0.156   3.048   5.072
 2143TIP3    H2 6436   0.113   3.050   4.927
 2144TIP3   OH2 6437   4.589   0.154   2.756
 2144TIP3    H1 6438   4.579   0.061   2.774
 2144TIP3    H2 6439   4.589   0.195   2.843
 2145TIP3   OH2 6440   0.973   5.410   3.019
 2145TIP3    H1 6441   0.983   5.443   2.930
 2145TIP3    H2 6442   0.878   5.401   3.031
 2146TIP3   OH2 6443   1.427   2.700   4.159
 2146TIP3    H1 6444   1.349   2.739   4.119
 2146TIP3    H2 6445   1.397   2.616   4.192
 2147TIP3   OH2 6446   2.215   1.336   1.053
 2147TIP3    H1 6447   2.249   1.381   1.130
 2147TIP3    H2 6448   2.125   1.367   1.045
 2148TIP3   OH2 6449   0.801   0.747   4.257
 2148TIP3    H1 6450   0.789   0.688   4.183
 2148TIP3    H2 6451   0.864   0.704   4.314
 2149TIP3   OH2 6452   1.975   2.751   4.504
 2149TIP3    H1 6453   2.040   2.688   4.473
 2149TIP3    H2 6454   1.891   2.715   4.476
 2150TIP3   OH2 6455   1.369   2.847   2.692
 2150TIP3    H1 6456   1.286   2.895   2.691
 2150TIP3    H2 6457   1.402   2.859   2.782
 2151TIP3   OH2 6458   2.768   0.629   3.228
 2151TIP3    H1 6459   2.709   0.691   3.270
 2151TIP3    H2 6460   2.754   0.546   3.275
 2152TIP3   OH2 6461   5.882   0.109   4.022
 2152TIP3    H1 6462   5.928   0.026   4.035
 2152TIP3    H2 6463   5.800   0.099   4.070
 2153TIP3   OH2 6464   6.122   0.384   2.875
 2153TIP3    H1 6465   6.214   0.385   2.849
 2153TIP3    H2 6466   6.076   0.353   2.796
 2154TIP3   OH2 6467   3.879   1.314   1.749
 2154TIP3    H1 6468   3.911   1.268   1.671
 2154TIP3    H2 6469   3.828   1.248   1.796
 2155TIP3   OH2 6470   3.703   3.858   3.454
 2155TIP3    H1 6471   3.767   3.874   3.385
 2155TIP3    H2 6472   3.739   3.786   3.506
 2156TIP3   OH2 6473   5.092   0.575   0.656
 2156TIP3    H1 6474   5.125   0.663   0.672
 2156TIP3    H2 6475   5.154   0.536   0.596
 2157TIP3   OH2 6476   5.548   5.850  -0.011
 2157TIP3    H1 6477   5.551   5.911   0.064
 2157TIP3    H2 6478   5.508   5.771   0.024
 2158TIP3   OH2 6479   5.705   4.122   2.526
 2158TIP3    H1 6480   5.710   4.158   2.437
 2158TIP3    H2 6481   5.760   4.044   2.523
 2159TIP3   OH2 6482   1.340   4.569   0.936
 2159TIP3    H1 6483   1.356   4.562   0.842
 2159TIP3    H2 6484   1.285   4.494   0.957
 2160TIP3   OH2 6485   5.275   2.999   2.726
 2160TIP3    H1 6486   5.302   2.924   2.781
 2160TIP3    H2 6487   5.357   3.029   2.686
 2161TIP3   OH2 6488   0.165   4.212   3.627
 2161TIP3    H1 6489   0.201   4.134   3.585
 2161TIP3    H2 6490   0.070   4.206   3.612
 2162TIP3   OH2 6491   3.480   5.743   1.296
 2162TIP3    H1 6492   3.563   5.791   1.295
 2162TIP3    H2 6493   3.502   5.655   1.265
 2163TIP3   OH2 6494   1.620   4.096   3.062
 2163TIP3    H1 6495   1.545   4.057   3.016
 2163TIP3    H2 6496   1.672   4.136   2.992
 2164TIP3   OH2 6497   5.262   2.531   1.499
 2164TIP3    H1 6498   5.166   2.535   1.500
 2164TIP3    H2 6499   5.288   2.595   1.565
 2165TIP3   OH2 6500   1.946   2.793   2.832
 2165TIP3    H1 6501   1.935   2.860   2.899
 2165TIP3    H2 6502   1.881   2.726   2.855
 2166TIP3   OH2 6503   0.479   5.887   3.888
 2166TIP3    H1 6504   0.512   5.916   3.973
 2166TIP3    H2 6505   0.527   5.939   3.824
 2167TIP3   OH2 6506   0.123   4.553   4.075
 2167TIP3    H1 6507   0.120   4.648   4.072
 2167TIP3    H2 6508   0.041   4.524   4.035
 2168TIP3   OH2 6509   4.109   1.098   0.049
 2168TIP3    H1 6510   4.042   1.141  -0.004
 2168TIP3    H2 6511   4.145   1.168   0.104
 2169TIP3   OH2 6512   5.460   5.462   0.826
 2169TIP3    H1 6513   5.553   5.446   0.811
 2169TIP3    H2 6514   5.451   5.464   0.922
 2170TIP3   OH2 6515   3.564   3.780   1.111
 2170TIP3    H1 6516   3.618   3.709   1.077
 2170TIP3    H2 6517   3.491   3.786   1.048
 2171TIP3   OH2 6518   1.955   0.144   1.532
 2171TIP3    H1 6519   1.933   0.066   1.583
 2171TIP3    H2 6520   2.050   0.149   1.534
 2172TIP3   OH2 6521   0.808   3.685   4.851
 2172TIP3    H1 6522   0.804   3.724   4.939
 2172TIP3    H2 6523   0.897   3.702   4.821
 2173TIP3   OH2 6524   4.180   5.475   0.221
 2173TIP3    H1 6525   4.120   5.525   0.275
 2173TIP3    H2 6526   4.135   5.467   0.136
 2174TIP3   OH2 6527   2.122   3.921   2.594
 2174TIP3    H1 6528   2.106   3.913   2.500
 2174TIP3    H2 6529   2.181   3.995   2.602
 2175TIP3   OH2 6530   3.300   5.625   1.075
 2175TIP3    H1 6531   3.282   5.712   1.111
 2175TIP3    H2 6532   3.389   5.605   1.103
 2176TIP3   OH2 6533   1.980   1.582   0.800
 2176TIP3    H1 6534   2.051   1.625   0.848
 2176TIP3    H2 6535   1.901   1.630   0.826
 2177TIP3   OH2 6536   5.289   2.426   4.123
 2177TIP3    H1 6537   5.379   2.449   4.100
 2177TIP3    H2 6538   5.237   2.503   4.100
 2178TIP3   OH2 6539   0.196   3.352   4.225
 2178TIP3    H1 6540   0.222   3.299   4.300
 2178TIP3    H2 6541   0.216   3.297   4.149
 2179TIP3   OH2 6542   5.299   4.067   4.222
 2179TIP3    H1 6543   5.385   4.026   4.217
 2179TIP3    H2 6544   5.312   4.155   4.186
 2180TIP3   OH2 6545   5.569   1.924   1.439
 2180TIP3    H1 6546   5.559   1.963   1.525
 2180TIP3    H2 6547   5.532   1.988   1.378
 2181TIP3   OH2 6548   2.635   3.519   0.051
 2181TIP3    H1 6549   2.699   3.587   0.029
 2181TIP3    H2 6550   2.652   3.450  -0.013
 2182TIP3   OH2 6551   4.744   0.831   1.610
 2182TIP3    H1 6552   4.721   0.911   1.658
 2182TIP3    H2 6553   4.704   0.760   1.661
 2183TIP3   OH2 6554   6.025   0.842   1.841
 2183TIP3    H1 6555   5.965   0.773   1.814
 2183TIP3    H2 6556   5.971   0.901   1.893
 2184TIP3   OH2 6557   2.036   1.431   3.330
 2184TIP3    H1 6558   2.042   1.345   3.289
 2184TIP3    H2 6559   2.126   1.465   3.327
 2185TIP3   OH2 6560   5.299   1.799   4.849
 2185TIP3    H1 6561   5.289   1.865   4.919
 2185TIP3    H2 6562   5.212   1.761   4.840
 2186TIP3   OH2 6563   4.946   4.259   1.038
 2186TIP3    H1 6564   5.012   4.326   1.057
 2186TIP3    H2 6565   4.964   4.232   0.948
 2187TIP3   OH2 6566   1.202   1.079   2.210
 2187TIP3    H1 6567   1.281   1.132   2.222
 2187TIP3    H2 6568   1.211   1.009   2.274
 2188TIP3   OH2 6569   0.414   0.111   5.076
 2188TIP3    H1 6570   0.369   0.075   5.000
 2188TIP3    H2 6571   0.365   0.190   5.097
 2189TIP3   OH2 6572   2.784   3.721   4.200
 2189TIP3    H1 6573   2.813   3.645   4.250
 2189TIP3    H2 6574   2.812   3.796   4.252
 2190TIP3   OH2 6575   4.376   1.115   3.095
 2190TIP3    H1 6576   4.375   1.106   3.190
 2190TIP3    H2 6577   4.346   1.204   3.079
 2191TIP3   OH2 6578   6.114   3.647   3.997
 2191TIP3    H1 6579   6.140   3.732   4.031
 2191TIP3    H2 6580   6.122   3.656   3.902
 2192TIP3   OH2 6581   1.272   4.456   3.782
 2192TIP3    H1 6582   1.340   4.415   3.835
 2192TIP3    H2 6583   1.310   4.463   3.695
 2193TIP3   OH2 6584   1.068   4.773   2.454
 2193TIP3    H1 6585   1.073   4.743   2.363
 2193TIP3    H2 6586   1.147   4.825   2.467
 2194TIP3   OH2 6587   6.250   0.324   3.863
 2194TIP3    H1 6588   6.219   0.408   3.899
 2194TIP3    H2 6589   6.342   0.339   3.843
 2195TIP3   OH2 6590   1.273   3.052   4.798
 2195TIP3    H1 6591   1.315   2.977   4.755
 2195TIP3    H2 6592   1.336   3.080   4.864
 2196TIP3   OH2 6593   0.291   2.849   0.765
 2196TIP3    H1 6594   0.323   2.831   0.677
 2196TIP3    H2 6595   0.349   2.918   0.798
 2197TIP3   OH2 6596   1.464   4.581   4.370
 2197TIP3    H1 6597   1.431   4.667   4.344
 2197TIP3    H2 6598   1.422   4.520   4.309
 2198TIP3   OH2 6599   5.692   1.688   2.771
 2198TIP3    H1 6600   5.715   1.597   2.784
 2198TIP3    H2 6601   5.630   1.708   2.842
 2199TIP3   OH2 6602   0.981   4.793   0.033
 2199TIP3    H1 6603   0.898   4.744   0.031
 2199TIP3    H2 6604   0.969   4.863  -0.031
 2200TIP3   OH2 6605   5.747   5.281   1.257
 2200TIP3    H1 6606   5.820   5.302   1.199
 2200TIP3    H2 6607   5.743   5.355   1.318
 2201TIP3   OH2 6608   3.762   0.063   5.057
 2201TIP3    H1 6609   3.724   0.063   4.969
 2201TIP3    H2 6610   3.830   0.129   5.055
 2202TIP3   OH2 6611   2.146   2.001   0.167
 2202TIP3    H1 6612   2.192   1.988   0.250
 2202TIP3    H2 6613   2.099   2.084   0.179
 2203TIP3   OH2 6614   1.187   4.883   4.962
 2203TIP3    H1 6615   1.153   4.835   4.887
 2203TIP3    H2 6616   1.110   4.914   5.009
 2204TIP3   OH2 6617   3.478   4.686   2.778
 2204TIP3    H1 6618   3.489   4.639   2.696
 2204TIP3    H2 6619   3.529   4.635   2.842
 2205TIP3   OH2 6620   5.798   0.246   1.936
 2205TIP3    H1 6621   5.847   0.327   1.923
 2205TIP3    H2 6622   5.805   0.228   2.030
 2206TIP3   OH2 6623   3.789   1.926   0.227
 2206TIP3    H1 6624   3.836   1.955   0.306
 2206TIP3    H2 6625   3.717   1.989   0.218
 2207TIP3   OH2 6626   4.787   2.302   0.792
 2207TIP3    H1 6627   4.761   2.210   0.793
 2207TIP3    H2 6628   4.759   2.336   0.878
 2208TIP3   OH2 6629   3.576   0.690   0.112
 2208TIP3    H1 6630   3.657   0.740   0.130
 2208TIP3    H2 6631   3.553   0.713   0.022
 2209TIP3   OH2 6632   3.496   1.091   3.216
 2209TIP3    H1 6633   3.504   1.185   3.232
 2209TIP3    H2 6634   3.586   1.059   3.215
 2210TIP3   OH2 6635   5.125   4.907   1.382
 2210TIP3    H1 6636   5.056   4.872   1.326
 2210TIP3    H2 6637   5.094   4.892   1.472
 2211TIP3   OH2 6638   1.990   0.606   1.839
 2211TIP3    H1 6639   1.985   0.700   1.821
 2211TIP3    H2 6640   1.900   0.575   1.829
 2212TIP3   OH2 6641   4.802   3.945   1.246
 2212TIP3    H1 6642   4.720   3.898   1.253
 2212TIP3    H2 6643   4.832   3.953   1.337
 2213TIP3   OH2 6644   1.478   3.944   2.342
 2213TIP3    H1 6645   1.534   3.962   2.267
 2213TIP3    H2 6646   1.391   3.975   2.315
 2214TIP3   OH2 6647   3.105   3.300   2.895
 2214TIP3    H1 6648   3.164   3.360   2.941
 2214TIP3    H2 6649   3.018   3.321   2.928
 2215TIP3   OH2 6650   5.336   4.093   4.573
 2215TIP3    H1 6651   5.344   4.161   4.506
 2215TIP3    H2 6652   5.341   4.141   4.656
 2216TIP3   OH2 6653   2.381   2.538   1.601
 2216TIP3    H1 6654   2.459   2.487   1.577
 2216TIP3    H2 6655   2.408   2.588   1.678
 2217TIP3   OH2 6656   0.375   1.492   3.739
 2217TIP3    H1 6657   0.395   1.463   3.649
 2217TIP3    H2 6658   0.447   1.457   3.791
 2218TIP3   OH2 6659   5.553   5.599   3.989
 2218TIP3    H1 6660   5.493   5.643   3.928
 2218TIP3    H2 6661   5.551   5.507   3.963
 2219TIP3   OH2 6662   4.504   0.872   5.156
 2219TIP3    H1 6663   4.543   0.789   5.185
 2219TIP3    H2 6664   4.417   0.872   5.196
 2220TIP3   OH2 6665   3.048   5.224   1.440
 2220TIP3    H1 6666   3.119   5.284   1.463
 2220TIP3    H2 6667   3.065   5.202   1.348
 2221TIP3   OH2 6668   0.975   5.752   3.761
 2221TIP3    H1 6669   0.985   5.708   3.845
 2221TIP3    H2 6670   0.963   5.681   3.698
 2222TIP3   OH2 6671   6.021   2.413   2.314
 2222TIP3    H1 6672   6.110   2.431   2.282
 2222TIP3    H2 6673   5.985   2.499   2.334
 2223TIP3   OH2 6674   2.374   4.304   1.143
 2223TIP3    H1 6675   2.284   4.274   1.147
 2223TIP3    H2 6676   2.388   4.330   1.052
 2224TIP3   OH2 6677   4.180   2.019   3.657
 2224TIP3    H1 6678   4.135   1.957   3.600
 2224TIP3    H2 6679   4.168   2.104   3.615
 2225TIP3   OH2 6680   5.529   0.885   1.467
 2225TIP3    H1 6681   5.593   0.900   1.537
 2225TIP3    H2 6682   5.447   0.920   1.502
 2226TIP3   OH2 6683   0.286   1.728   1.693
 2226TIP3    H1 6684   0.378   1.754   1.691
 2226TIP3    H2 6685   0.238   1.811   1.699
 2227TIP3   OH2 6686   2.239   3.208   1.114
 2227TIP3    H1 6687   2.278   3.204   1.026
 2227TIP3    H2 6688   2.242   3.301   1.136
 2228TIP3   OH2 6689   3.564   0.940   1.329
 2228TIP3    H1 6690   3.622   0.920   1.403
 2228TIP3    H2 6691   3.540   1.032   1.341
 2229TIP3   OH2 6692   1.422   4.753   1.676
 2229TIP3    H1 6693   1.393   4.825   1.621
 2229TIP3    H2 6694   1.380   4.675   1.639
 2230TIP3   OH2 6695   3.380   3.867   0.235
 2230TIP3    H1 6696   3.406   3.935   0.298
 2230TIP3    H2 6697   3.322   3.912   0.174
 2231TIP3   OH2 6698   1.527   4.343   0.844
 2231TIP3    H1 6699   1.501   4.282   0.775
 2231TIP3    H2 6700   1.479   4.423   0.824
 2232TIP3   OH2 6701   1.706   1.564   2.049
 2232TIP3    H1 6702   1.759   1.562   1.970
 2232TIP3    H2 6703   1.658   1.647   2.043
 2233TIP3   OH2 6704   0.876   3.536   4.194
 2233TIP3    H1 6705   0.849   3.450   4.225
 2233TIP3    H2 6706   0.851   3.596   4.264
 2234TIP3   OH2 6707   0.767   1.337   1.232
 2234TIP3    H1 6708   0.755   1.274   1.160
 2234TIP3    H2 6709   0.712   1.305   1.302
 2235TIP3   OH2 6710   3.660   0.223   1.861
 2235TIP3    H1 6711   3.584   0.241   1.804
 2235TIP3    H2 6712   3.692   0.139   1.830
 2236TIP3   OH2 6713   3.317   1.848   1.397
 2236TIP3    H1 6714   3.406   1.884   1.396
 2236TIP3    H2 6715   3.320   1.779   1.464
 2237TIP3   OH2 6716   2.944   4.202   4.170
 2237TIP3    H1 6717   2.856   4.198   4.208
 2237TIP3    H2 6718   2.931   4.176   4.078
 2238TIP3   OH2 6719   4.451   0.876   0.608
 2238TIP3    H1 6720   4.444   0.826   0.689
 2238TIP3    H2 6721   4.489   0.960   0.634
 2239TIP3   OH2 6722   0.534   0.954   0.388
 2239TIP3    H1 6723   0.461   0.998   0.432
 2239TIP3    H2 6724   0.517   0.861   0.402
 2240TIP3   OH2 6725   3.338   1.369   3.021
 2240TIP3    H1 6726   3.314   1.290   2.972
 2240TIP3    H2 6727   3.406   1.339   3.081
 2241TIP3   OH2 6728   3.587   2.408   0.463
 2241TIP3    H1 6729   3.498   2.436   0.440
 2241TIP3    H2 6730   3.639   2.488   0.457
 2242TIP3   OH2 6731   4.386   2.561   0.591
 2242TIP3    H1 6732   4.480   2.540   0.590
 2242TIP3    H2 6733   4.363   2.560   0.683
 2243TIP3   OH2 6734   5.539   1.763   2.497
 2243TIP3    H1 6735   5.600   1.771   2.571
 2243TIP3    H2 6736   5.500   1.677   2.507
 2244TIP3   OH2 6737   3.469   0.702   2.855
 2244TIP3    H1 6738   3.448   0.665   2.769
 2244TIP3    H2 6739   3.564   0.709   2.855
 2245TIP3   OH2 6740   3.601   1.079   0.290
 2245TIP3    H1 6741   3.692   1.075   0.261
 2245TIP3    H2 6742   3.606   1.077   0.386
 2246TIP3   OH2 6743   1.242   2.175   1.417
 2246TIP3    H1 6744   1.241   2.118   1.494
 2246TIP3    H2 6745   1.333   2.206   1.412
 2247TIP3   OH2 6746   1.576   0.359   2.981
 2247TIP3    H1 6747   1.552   0.452   2.990
 2247TIP3    H2 6748   1.504   0.312   3.022
 2248TIP3   OH2 6749   4.211   4.212   1.349
 2248TIP3    H1 6750   4.153   4.136   1.356
 2248TIP3    H2 6751   4.224   4.224   1.255
 2249TIP3   OH2 6752   0.747   5.383   0.836
 2249TIP3    H1 6753   0.843   5.380   0.830
 2249TIP3    H2 6754   0.728   5.357   0.926
 2250TIP3   OH2 6755   1.679   5.917   2.652
 2250TIP3    H1 6756   1.751   5.878   2.702
 2250TIP3    H2 6757   1.606   5.918   2.714
 2251TIP3   OH2 6758   5.155   3.470   4.761
 2251TIP3    H1 6759   5.067   3.436   4.778
 2251TIP3    H2 6760   5.177   3.437   4.674
 2252TIP3   OH2 6761   2.382   1.101   1.121
 2252TIP3    H1 6762   2.298   1.136   1.092
 2252TIP3    H2 6763   2.420   1.063   1.041
 2253TIP3   OH2 6764   4.050   4.803   1.418
 2253TIP3    H1 6765   3.974   4.796   1.476
 2253TIP3    H2 6766   4.049   4.722   1.368
 2254TIP3   OH2 6767   5.735   1.786   4.959
 2254TIP3    H1 6768   5.705   1.726   5.028
 2254TIP3    H2 6769   5.708   1.744   4.877
 2255TIP3   OH2 6770   1.520   5.948   2.451
 2255TIP3    H1 6771   1.596   5.941   2.509
 2255TIP3    H2 6772   1.517   6.041   2.427
 2256TIP3   OH2 6773   0.344   1.992   4.785
 2256TIP3    H1 6774   0.364   2.056   4.854
 2256TIP3    H2 6775   0.252   2.007   4.765
 2257TIP3   OH2 6776   0.230   1.342   0.913
 2257TIP3    H1 6777   0.243   1.412   0.849
 2257TIP3    H2 6778   0.213   1.264   0.861
 2258TIP3   OH2 6779   3.822   3.747   2.409
 2258TIP3    H1 6780   3.812   3.836   2.444
 2258TIP3    H2 6781   3.737   3.706   2.424
 2259TIP3   OH2 6782   5.072   1.332   1.554
 2259TIP3    H1 6783   4.981   1.355   1.574
 2259TIP3    H2 6784   5.088   1.370   1.468
 2260TIP3   OH2 6785   0.334   3.102   2.089
 2260TIP3    H1 6786   0.380   3.129   2.168
 2260TIP3    H2 6787   0.301   3.015   2.109
 2261TIP3   OH2 6788   3.448   1.923   2.336
 2261TIP3    H1 6789   3.452   1.836   2.297
 2261TIP3    H2 6790   3.416   1.980   2.266
 2262TIP3   OH2 6791   4.297   2.874   3.209
 2262TIP3    H1 6792   4.244   2.922   3.273
 2262TIP3    H2 6793   4.267   2.908   3.124
 2263TIP3   OH2 6794   1.578   3.030   1.040
 2263TIP3    H1 6795   1.511   3.098   1.041
 2263TIP3    H2 6796   1.598   3.017   0.948
 2264TIP3   OH2 6797   2.879   4.029   3.674
 2264TIP3    H1 6798   2.922   4.106   3.637
 2264TIP3    H2 6799   2.818   4.001   3.606
 2265TIP3   OH2 6800   2.771   1.423   1.552
 2265TIP3    H1 6801   2.722   1.504   1.538
 2265TIP3    H2 6802   2.749   1.369   1.476
 2266TIP3   OH2 6803   3.010   1.313   1.919
 2266TIP3    H1 6804   3.055   1.233   1.890
 2266TIP3    H2 6805   2.983   1.294   2.009
 2267TIP3   OH2 6806   4.446   2.389   0.848
 2267TIP3    H1 6807   4.459   2.460   0.911
 2267TIP3    H2 6808   4.479   2.311   0.892
 2268TIP3   OH2 6809   3.398   1.516   3.284
 2268TIP3    H1 6810   3.423   1.608   3.297
 2268TIP3    H2 6811   3.364   1.514   3.194
 2269TIP3   OH2 6812   5.089   2.065   1.276
 2269TIP3    H1 6813   5.174   2.064   1.231
 2269TIP3    H2 6814   5.083   2.152   1.314
 2270TIP3   OH2 6815   0.624   1.234   3.751
 2270TIP3    H1 6816   0.581   1.149   3.762
 2270TIP3    H2 6817   0.679   1.223   3.673
 2271TIP3   OH2 6818   4.847   0.702   2.668
 2271TIP3    H1 6819   4.894   0.785   2.658
 2271TIP3    H2 6820   4.765   0.726   2.712
 2272TIP3   OH2 6821   5.467   2.751   0.050
 2272TIP3    H1 6822   5.455   2.844   0.032
 2272TIP3    H2 6823   5.425   2.737   0.135
 2273TIP3   OH2 6824   5.087   4.027   1.128
 2273TIP3    H1 6825   5.074   4.085   1.053
 2273TIP3    H2 6826   5.019   4.054   1.190
 2274TIP3   OH2 6827   3.427   3.058   4.486
 2274TIP3    H1 6828   3.495   3.105   4.534
 2274TIP3    H2 6829   3.473   2.986   4.443
 2275TIP3   OH2 6830   0.146   2.769   1.457
 2275TIP3    H1 6831   0.144   2.796   1.549
 2275TIP3    H2 6832   0.130   2.675   1.458
 2276TIP3   OH2 6833   0.626   5.748   1.426
 2276TIP3    H1 6834   0.679   5.713   1.354
 2276TIP3    H2 6835   0.637   5.843   1.420
 2277TIP3   OH2 6836   3.624   0.358   1.291
 2277TIP3    H1 6837   3.535   0.356   1.257
 2277TIP3    H2 6838   3.662   0.438   1.254
 2278TIP3   OH2 6839   4.537   0.060   2.116
 2278TIP3    H1 6840   4.498   0.101   2.193
 2278TIP3    H2 6841   4.462   0.044   2.058
 2279TIP3   OH2 6842   6.157   2.049   1.845
 2279TIP3    H1 6843   6.214   1.973   1.853
 2279TIP3    H2 6844   6.150   2.084   1.934
 2280TIP3   OH2 6845   0.426   2.876   1.424
 2280TIP3    H1 6846   0.380   2.808   1.374
 2280TIP3    H2 6847   0.495   2.829   1.470
 2281TIP3   OH2 6848   3.948   0.676   0.729
 2281TIP3    H1 6849   3.992   0.738   0.671
 2281TIP3    H2 6850   3.994   0.593   0.714
 2282TIP3   OH2 6851   2.257   1.254   0.759
 2282TIP3    H1 6852   2.167   1.264   0.729
 2282TIP3    H2 6853   2.256   1.286   0.849
 2283TIP3   OH2 6854   0.991   2.165   3.996
 2283TIP3    H1 6855   1.055   2.156   3.925
 2283TIP3    H2 6856   1.042   2.149   4.076
 2284TIP3   OH2 6857   1.692   1.341   3.036
 2284TIP3    H1 6858   1.736   1.418   3.070
 2284TIP3    H2 6859   1.623   1.375   2.980
 2285TIP3   OH2 6860   2.818   1.502   4.647
 2285TIP3    H1 6861   2.779   1.564   4.586
 2285TIP3    H2 6862   2.801   1.416   4.610
 2286TIP3   OH2 6863   1.237   5.016   4.359
 2286TIP3    H1 6864   1.305   5.033   4.425
 2286TIP3    H2 6865   1.212   5.103   4.327
 2287TIP3   OH2 6866   1.848   3.952   1.384
 2287TIP3    H1 6867   1.884   3.977   1.299
 2287TIP3    H2 6868   1.777   4.015   1.400
 2288TIP3   OH2 6869   2.096   2.967   0.092
 2288TIP3    H1 6870   2.049   3.042   0.055
 2288TIP3    H2 6871   2.155   2.939   0.022
 2289TIP3   OH2 6872   1.886   3.604   4.491
 2289TIP3    H1 6873   1.942   3.529   4.474
 2289TIP3    H2 6874   1.909   3.632   4.579
 2290TIP3   OH2 6875   3.174   1.865   0.241
 2290TIP3    H1 6876   3.147   1.955   0.255
 2290TIP3    H2 6877   3.250   1.871   0.183
 2291TIP3   OH2 6878   1.367   2.952   3.993
 2291TIP3    H1 6879   1.366   3.042   3.961
 2291TIP3    H2 6880   1.453   2.942   4.035
 2292TIP3   OH2 6881   2.774   3.764   2.145
 2292TIP3    H1 6882   2.786   3.859   2.146
 2292TIP3    H2 6883   2.680   3.751   2.156
 2293TIP3   OH2 6884   0.943   3.460   4.560
 2293TIP3    H1 6885   0.896   3.543   4.550
 2293TIP3    H2 6886   1.032   3.479   4.531
 2294TIP3   OH2 6887   0.860   2.932   2.761
 2294TIP3    H1 6888   0.776   2.899   2.790
 2294TIP3    H2 6889   0.839   3.010   2.709
 2295TIP3   OH2 6890   0.537   3.285   0.670
 2295TIP3    H1 6891   0.564   3.354   0.609
 2295TIP3    H2 6892   0.442   3.284   0.664
 2296TIP3   OH2 6893   4.160   3.048   1.332
 2296TIP3    H1 6894   4.115   3.038   1.415
 2296TIP3    H2 6895   4.179   2.958   1.305
 2297TIP3   OH2 6896   4.137   4.008   1.639
 2297TIP3    H1 6897   4.117   3.983   1.729
 2297TIP3    H2 6898   4.068   4.068   1.614
 2298TIP3   OH2 6899   0.503   4.442   2.978
 2298TIP3    H1 6900   0.596   4.441   3.001
 2298TIP3    H2 6901   0.493   4.520   2.923
 2299TIP3   OH2 6902   2.520   4.774   2.359
 2299TIP3    H1 6903   2.462   4.835   2.315
 2299TIP3    H2 6904   2.592   4.828   2.392
 2300TIP3   OH2 6905   3.071   5.478   5.102
 2300TIP3    H1 6906   3.140   5.519   5.155
 2300TIP3    H2 6907   3.018   5.431   5.166
 2301TIP3   OH2 6908   2.071   0.540   3.709
 2301TIP3    H1 6909   2.066   0.583   3.625
 2301TIP3    H2 6910   2.055   0.447   3.690
 2302TIP3   OH2 6911   4.027   2.915   3.972
 2302TIP3    H1 6912   4.091   2.879   4.033
 2302TIP3    H2 6913   3.975   2.976   4.024
 2303TIP3   OH2 6914   2.479   3.851   2.839
 2303TIP3    H1 6915   2.405   3.812   2.793
 2303TIP3    H2 6916   2.532   3.776   2.867
 2304TIP3   OH2 6917   2.327   0.780   3.148
 2304TIP3    H1 6918   2.290   0.820   3.069
 2304TIP3    H2 6919   2.259   0.721   3.179
 2305TIP3   OH2 6920   2.868   2.039   0.588
 2305TIP3    H1 6921   2.886   2.129   0.560
 2305TIP3    H2 6922   2.774   2.028   0.576
 2306TIP3   OH2 6923   1.565   2.128   0.581
 2306TIP3    H1 6924   1.566   2.032   0.583
 2306TIP3    H2 6925   1.606   2.150   0.497
 2307TIP3   OH2 6926   3.262   3.014   2.680
 2307TIP3    H1 6927   3.347   2.969   2.672
 2307TIP3    H2 6928   3.284   3.102   2.710
 2308TIP3   OH2 6929   5.796   5.410   1.861
 2308TIP3    H1 6930   5.764   5.432   1.949
 2308TIP3    H2 6931   5.717   5.407   1.807
 2309TIP3   OH2 6932   3.034   4.521   0.864
 2309TIP3    H1 6933   3.048   4.514   0.959
 2309TIP3    H2 6934   3.019   4.614   0.849
 2310TIP3   OH2 6935   4.145   1.760   4.309
 2310TIP3    H1 6936   4.141   1.794   4.219
 2310TIP3    H2 6937   4.127   1.667   4.301
 2311TIP3   OH2 6938   0.210   0.844   1.413
 2311TIP3    H1 6939   0.246   0.924   1.451
 2311TIP3    H2 6940   0.226   0.854   1.319
 2312TIP3   OH2 6941   5.134   2.322   4.651
 2312TIP3    H1 6942   5.180   2.243   4.677
 2312TIP3    H2 6943   5.161   2.338   4.561
 2313TIP3   OH2 6944   5.078   2.503   1.113
 2313TIP3    H1 6945   5.063   2.590   1.148
 2313TIP3    H2 6946   5.134   2.517   1.037
 2314TIP3   OH2 6947   0.133   4.252   0.080
 2314TIP3    H1 6948   0.128   4.183   0.014
 2314TIP3    H2 6949   0.066   4.315   0.054
 2315TIP3   OH2 6950   5.703   3.042   4.985
 2315TIP3    H1 6951   5.754   3.059   4.906
 2315TIP3    H2 6952   5.712   2.948   4.999
 2316TIP3   OH2 6953   3.966   4.774   4.725
 2316TIP3    H1 6954   3.982   4.688   4.763
 2316TIP3    H2 6955   3.954   4.832   4.800
 2317TIP3   OH2 6956   1.472   0.549   4.324
 2317TIP3    H1 6957   1.456   0.597   4.243
 2317TIP3    H2 6958   1.564   0.565   4.344
 2318TIP3   OH2 6959   0.209   1.087   2.198
 2318TIP3    H1 6960   0.272   1.025   2.163
 2318TIP3    H2 6961   0.133   1.034   2.222
 2319TIP3   OH2 6962   4.069   0.584   3.259
 2319TIP3    H1 6963   4.128   0.625   3.323
 2319TIP3    H2 6964   4.112   0.502   3.237
 2320TIP3   OH2 6965   3.644   1.804   0.919
 2320TIP3    H1 6966   3.721   1.749   0.909
 2320TIP3    H2 6967   3.667   1.887   0.878
 2321TIP3   OH2 6968   4.148   5.708   2.160
 2321TIP3    H1 6969   4.145   5.761   2.240
 2321TIP3    H2 6970   4.075   5.741   2.107
 2322TIP3   OH2 6971   5.466   3.834   1.727
 2322TIP3    H1 6972   5.478   3.804   1.817
 2322TIP3    H2 6973   5.377   3.871   1.726
 2323TIP3   OH2 6974   4.651   1.033   1.246
 2323TIP3    H1 6975   4.608   1.057   1.328
 2323TIP3    H2 6976   4.608   0.952   1.220
 2324TIP3   OH2 6977   4.143   1.989   5.085
 2324TIP3    H1 6978   4.224   1.938   5.081
 2324TIP3    H2 6979   4.157   2.050   5.158
 2325TIP3   OH2 6980   4.650   1.919   2.266
 2325TIP3    H1 6981   4.632   2.012   2.255
 2325TIP3    H2 6982   4.739   1.915   2.300
 2326TIP3   OH2 6983   5.788   3.630   3.085
 2326TIP3    H1 6984   5.825   3.619   3.172
 2326TIP3    H2 6985   5.862   3.657   3.030
 2327TIP3   OH2 6986   0.134   1.342   3.850
 2327TIP3    H1 6987   0.226   1.366   3.848
 2327TIP3    H2 6988   0.098   1.377   3.769
 2328TIP3   OH2 6989   0.102   3.760   5.054
 2328TIP3    H1 6990   0.038   3.741   5.123
 2328TIP3    H2 6991   0.176   3.799   5.100
 2329TIP3   OH2 6992   2.724   5.685   3.503
 2329TIP3    H1 6993   2.633   5.713   3.506
 2329TIP3    H2 6994   2.761   5.732   3.428
 2330TIP3   OH2 6995   6.000   1.354   3.720
 2330TIP3    H1 6996   6.062   1.420   3.750
 2330TIP3    H2 6997   6.054   1.284   3.685
 2331TIP3   OH2 6998   1.637   0.690   1.106
 2331TIP3    H1 6999   1.671   0.753   1.170
 2331TIP3    H2 7000   1.542   0.697   1.116
 2332TIP3   OH2 7001   6.312   2.783   2.269
 2332TIP3    H1 7002   6.244   2.850   2.279
 2332TIP3    H2 7003   6.360   2.786   2.352
 2333TIP3   OH2 7004   0.294   1.825   4.495
 2333TIP3    H1 7005   0.323   1.906   4.536
 2333TIP3    H2 7006   0.329   1.830   4.405
 2334TIP3   OH2 7007   3.881   3.131   5.204
 2334TIP3    H1 7008   3.871   3.107   5.112
 2334TIP3    H2 7009   3.803   3.183   5.223
 2335TIP3   OH2 7010   0.670   0.541   4.586
 2335TIP3    H1 7011   0.660   0.636   4.592
 2335TIP3    H2 7012   0.610   0.515   4.517
 2336TIP3   OH2 7013   2.687   5.548   1.842
 2336TIP3    H1 7014   2.669   5.504   1.759
 2336TIP3    H2 7015   2.768   5.597   1.826
 2337TIP3   OH2 7016   1.694   0.114   1.108
 2337TIP3    H1 7017   1.752   0.089   1.179
 2337TIP3    H2 7018   1.701   0.209   1.104
 2338TIP3   OH2 7019   0.222   1.084   3.725
 2338TIP3    H1 7020   0.148   1.089   3.665
 2338TIP3    H2 7021   0.200   1.146   3.795
 2339TIP3   OH2 7022   3.141   3.423   0.871
 2339TIP3    H1 7023   3.189   3.388   0.797
 2339TIP3    H2 7024   3.052   3.388   0.862
 2340TIP3   OH2 7025   2.474   0.201   4.220
 2340TIP3    H1 7026   2.444   0.163   4.302
 2340TIP3    H2 7027   2.558   0.242   4.241
 2341TIP3   OH2 7028   1.673   5.191   4.883
 2341TIP3    H1 7029   1.756   5.236   4.893
 2341TIP3    H2 7030   1.684   5.135   4.806
 2342TIP3   OH2 7031   0.083   0.323   4.932
 2342TIP3    H1 7032   0.025   0.349   5.003
 2342TIP3    H2 7033   0.048   0.368   4.854
 2343TIP3   OH2 7034   4.544   3.707   3.027
 2343TIP3    H1 7035   4.530   3.787   3.078
 2343TIP3    H2 7036   4.542   3.736   2.936
 2344TIP3   OH2 7037   2.734   5.493   0.582
 2344TIP3    H1 7038   2.686   5.545   0.518
 2344TIP3    H2 7039   2.820   5.477   0.541
 2345TIP3   OH2 7040   1.854   3.241   2.856
 2345TIP3    H1 7041   1.924   3.213   2.915
 2345TIP3    H2 7042   1.848   3.171   2.791
 2346TIP3   OH2 7043   2.486   0.746   4.725
 2346TIP3    H1 7044   2.452   0.676   4.669
 2346TIP3    H2 7045   2.430   0.742   4.803
 2347TIP3   OH2 7046   5.496   1.510   2.970
 2347TIP3    H1 7047   5.461   1.435   2.922
 2347TIP3    H2 7048   5.574   1.476   3.013
 2348TIP3   OH2 7049   2.557   0.474   3.392
 2348TIP3    H1 7050   2.544   0.465   3.298
 2348TIP3    H2 7051   2.473   0.502   3.426
 2349TIP3   OH2 7052   1.480   5.891   3.106
 2349TIP3    H1 7053   1.432   5.967   3.140
 2349TIP3    H2 7054   1.571   5.921   3.102
 2350TIP3   OH2 7055   2.235   1.440   0.125
 2350TIP3    H1 7056   2.145   1.464   0.146
 2350TIP3    H2 7057   2.243   1.350   0.156
 2351TIP3   OH2 7058   0.548   0.779   1.247
 2351TIP3    H1 7059   0.578   0.861   1.206
 2351TIP3    H2 7060   0.552   0.797   1.341
 2352TIP3   OH2 7061   0.173   2.312   4.837
 2352TIP3    H1 7062   0.106   2.372   4.807
 2352TIP3    H2 7063   0.140   2.225   4.814
 2353TIP3   OH2 7064   2.659   4.281   0.243
 2353TIP3    H1 7065   2.587   4.287   0.180
 2353TIP3    H2 7066   2.680   4.372   0.265
 2354TIP3   OH2 7067   1.170   0.973   2.971
 2354TIP3    H1 7068   1.074   0.967   2.974
 2354TIP3    H2 7069   1.195   0.910   2.902
 2355TIP3   OH2 7070   3.221   3.635   4.572
 2355TIP3    H1 7071   3.281   3.654   4.644
 2355TIP3    H2 7072   3.133   3.644   4.610
 2356TIP3   OH2 7073   2.836   3.716   0.045
 2356TIP3    H1 7074   2.835   3.772   0.122
 2356TIP3    H2 7075   2.927   3.688   0.037
 2357TIP3   OH2 7076   4.262   2.351   4.359
 2357TIP3    H1 7077   4.238   2.265   4.326
 2357TIP3    H2 7078   4.221   2.356   4.445
 2358TIP3   OH2 7079   0.798   3.065   4.722
 2358TIP3    H1 7080   0.722   3.106   4.681
 2358TIP3    H2 7081   0.854   3.139   4.746
 2359TIP3   OH2 7082   4.927   5.442   4.897
 2359TIP3    H1 7083   5.008   5.445   4.847
 2359TIP3    H2 7084   4.923   5.353   4.932
 2360TIP3   OH2 7085   3.284   1.002   3.944
 2360TIP3    H1 7086   3.189   1.003   3.952
 2360TIP3    H2 7087   3.310   1.093   3.960
 2361TIP3   OH2 7088   2.105   3.919   0.257
 2361TIP3    H1 7089   2.025   3.971   0.243
 2361TIP3    H2 7090   2.119   3.874   0.174
 2362TIP3   OH2 7091   0.969   3.264   4.729
 2362TIP3    H1 7092   1.043   3.278   4.788
 2362TIP3    H2 7093   0.963   3.345   4.678
 2363TIP3   OH2 7094   0.569   2.232   3.960
 2363TIP3    H1 7095   0.624   2.233   4.038
 2363TIP3    H2 7096   0.630   2.209   3.889
 2364TIP3   OH2 7097   2.284   0.132   2.010
 2364TIP3    H1 7098   2.283   0.155   2.103
 2364TIP3    H2 7099   2.207   0.076   1.998
 2365TIP3   OH2 7100   6.313   5.078   0.154
 2365TIP3    H1 7101   6.327   4.991   0.192
 2365TIP3    H2 7102   6.321   5.138   0.227
 2366TIP3   OH2 7103   2.726   2.036   2.514
 2366TIP3    H1 7104   2.803   2.005   2.466
 2366TIP3    H2 7105   2.760   2.102   2.574
 2367TIP3   OH2 7106   4.661   3.214   2.973
 2367TIP3    H1 7107   4.594   3.147   2.989
 2367TIP3    H2 7108   4.611   3.292   2.951
 2368TIP3   OH2 7109   2.117   4.258   0.868
 2368TIP3    H1 7110   2.101   4.342   0.824
 2368TIP3    H2 7111   2.210   4.240   0.852
 2369TIP3   OH2 7112   6.196   3.634   2.782
 2369TIP3    H1 7113   6.175   3.564   2.844
 2369TIP3    H2 7114   6.291   3.630   2.774
 2370TIP3   OH2 7115   5.897   1.404   0.687
 2370TIP3    H1 7116   5.935   1.393   0.600
 2370TIP3    H2 7117   5.884   1.499   0.695
 2371TIP3   OH2 7118   5.672   1.368   3.121
 2371TIP3    H1 7119   5.703   1.369   3.212
 2371TIP3    H2 7120   5.705   1.450   3.084
 2372TIP3   OH2 7121   5.723   3.520   4.027
 2372TIP3    H1 7122   5.642   3.525   3.976
 2372TIP3    H2 7123   5.702   3.561   4.111
 2373TIP3   OH2 7124   1.724   0.377   1.955
 2373TIP3    H1 7125   1.719   0.458   1.905
 2373TIP3    H2 7126   1.773   0.401   2.034
 2374TIP3   OH2 7127   4.530   5.019   2.356
 2374TIP3    H1 7128   4.562   5.082   2.421
 2374TIP3    H2 7129   4.575   5.044   2.275
 2375TIP3   OH2 7130   4.206   0.459   2.188
 2375TIP3    H1 7131   4.158   0.436   2.267
 2375TIP3    H2 7132   4.164   0.408   2.119
 2376TIP3   OH2 7133   1.816   2.021   0.716
 2376TIP3    H1 7134   1.863   1.993   0.637
 2376TIP3    H2 7135   1.727   2.041   0.685
 2377TIP3   OH2 7136   0.773   5.608   2.348
 2377TIP3    H1 7137   0.709   5.573   2.285
 2377TIP3    H2 7138   0.833   5.535   2.363
 2378TIP3   OH2 7139   4.685   2.304   2.571
 2378TIP3    H1 7140   4.740   2.374   2.605
 2378TIP3    H2 7141   4.599   2.319   2.611
 2379TIP3   OH2 7142   2.294   5.286   0.308
 2379TIP3    H1 7143   2.293   5.227   0.233
 2379TIP3    H2 7144   2.246   5.240   0.377
 2380TIP3   OH2 7145   2.589   0.101   3.135
 2380TIP3    H1 7146   2.682   0.106   3.110
 2380TIP3    H2 7147   2.552   0.183   3.103
 2381TIP3   OH2 7148   5.877   0.828   1.481
 2381TIP3    H1 7149   5.933   0.901   1.455
 2381TIP3    H2 7150   5.819   0.865   1.548
 2382TIP3   OH2 7151   5.555   4.424   2.385
 2382TIP3    H1 7152   5.643   4.458   2.401
 2382TIP3    H2 7153   5.563   4.375   2.303
 2383TIP3   OH2 7154   5.604   1.553   5.093
 2383TIP3    H1 7155   5.606   1.470   5.046
 2383TIP3    H2 7156   5.512   1.578   5.094
 2384TIP3   OH2 7157   0.664   5.854   2.015
 2384TIP3    H1 7158   0.666   5.759   2.006
 2384TIP3    H2 7159   0.669   5.887   1.925
 2385TIP3   OH2 7160   1.285   5.814   2.519
 2385TIP3    H1 7161   1.363   5.858   2.485
 2385TIP3    H2 7162   1.226   5.885   2.542
 2386TIP3   OH2 7163   5.359   5.883   2.797
 2386TIP3    H1 7164   5.427   5.895   2.731
 2386TIP3    H2 7165   5.283   5.930   2.760
 2387TIP3   OH2 7166   2.151   4.671   1.047
 2387TIP3    H1 7167   2.109   4.619   1.115
 2387TIP3    H2 7168   2.079   4.701   0.991
 2388TIP3   OH2 7169   2.941   3.804   1.177
 2388TIP3    H1 7170   3.013   3.768   1.228
 2388TIP3    H2 7171   2.941   3.751   1.097
 2389TIP3   OH2 7172   5.854   4.164   1.337
 2389TIP3    H1 7173   5.888   4.144   1.250
 2389TIP3    H2 7174   5.763   4.133   1.335
 2390TIP3   OH2 7175   1.040   5.580   3.962
 2390TIP3    H1 7176   1.098   5.511   3.930
 2390TIP3    H2 7177   0.953   5.539   3.965
 2391TIP3   OH2 7178   1.101   3.369   0.205
 2391TIP3    H1 7179   1.062   3.297   0.255
 2391TIP3    H2 7180   1.033   3.437   0.204
 2392TIP3   OH2 7181   4.813   1.217   2.809
 2392TIP3    H1 7182   4.749   1.148   2.828
 2392TIP3    H2 7183   4.844   1.244   2.895
 2393TIP3   OH2 7184   0.054   3.521   0.029
 2393TIP3    H1 7185  -0.009   3.512   0.101
 2393TIP3    H2 7186   0.112   3.592   0.058
 2394TIP3   OH2 7187   4.397   0.322   1.593
 2394TIP3    H1 7188   4.467   0.360   1.540
 2394TIP3    H2 7189   4.337   0.285   1.528
 2395TIP3   OH2 7190   4.331   4.651   4.706
 2395TIP3    H1 7191   4.301   4.664   4.796
 2395TIP3    H2 7192   4.384   4.729   4.687
 2396TIP3   OH2 7193   1.398   2.229   2.487
 2396TIP3    H1 7194   1.464   2.170   2.525
 2396TIP3    H2 7195   1.376   2.289   2.558
 2397TIP3   OH2 7196   0.844   0.140   4.369
 2397TIP3    H1 7197   0.836   0.230   4.401
 2397TIP3    H2 7198   0.824   0.146   4.276
 2398TIP3   OH2 7199   0.571   2.663   3.937
 2398TIP3    H1 7200   0.581   2.632   4.027
 2398TIP3    H2 7201   0.645   2.722   3.924
 2399TIP3   OH2 7202   2.588   2.362   2.685
 2399TIP3    H1 7203   2.592   2.303   2.760
 2399TIP3    H2 7204   2.508   2.336   2.639
 2400TIP3   OH2 7205   3.982   1.617   3.033
 2400TIP3    H1 7206   3.937   1.662   3.104
 2400TIP3    H2 7207   3.971   1.524   3.054
 2401TIP3   OH2 7208   2.453   5.622   1.139
 2401TIP3    H1 7209   2.384   5.563   1.107
 2401TIP3    H2 7210   2.509   5.636   1.062
 2402TIP3   OH2 7211   1.138   4.652   0.550
 2402TIP3    H1 7212   1.197   4.723   0.578
 2402TIP3    H2 7213   1.171   4.626   0.465
 2403TIP3   OH2 7214   6.031   2.498   0.278
 2403TIP3    H1 7215   5.952   2.452   0.307
 2403TIP3    H2 7216   6.018   2.509   0.184
 2404TIP3   OH2 7217   1.563   5.029   4.158
 2404TIP3    H1 7218   1.636   5.082   4.191
 2404TIP3    H2 7219   1.522   5.085   4.092
 2405TIP3   OH2 7220   5.187   0.685   4.677
 2405TIP3    H1 7221   5.151   0.673   4.589
 2405TIP3    H2 7222   5.153   0.610   4.727
 2406TIP3   OH2 7223   2.182   5.619   1.732
 2406TIP3    H1 7224   2.177   5.609   1.827
 2406TIP3    H2 7225   2.273   5.643   1.715
 2407TIP3   OH2 7226   2.831   0.492   3.695
 2407TIP3    H1 7227   2.824   0.478   3.600
 2407TIP3    H2 7228   2.743   0.475   3.728
 2408TIP3   OH2 7229   6.322   4.154   1.864
 2408TIP3    H1 7230   6.300   4.194   1.780
 2408TIP3    H2 7231   6.325   4.060   1.846
 2409TIP3   OH2 7232   5.796   0.205   1.564
 2409TIP3    H1 7233   5.836   0.195   1.477
 2409TIP3    H2 7234   5.704   0.181   1.551
 2410TIP3   OH2 7235   4.857   0.907   0.167
 2410TIP3    H1 7236   4.813   0.943   0.090
 2410TIP3    H2 7237   4.821   0.818   0.176
 2411TIP3   OH2 7238   0.160   1.672   3.692
 2411TIP3    H1 7239   0.196   1.584   3.698
 2411TIP3    H2 7240   0.089   1.664   3.628
 2412TIP3   OH2 7241   1.164   0.163   3.313
 2412TIP3    H1 7242   1.111   0.100   3.362
 2412TIP3    H2 7243   1.167   0.241   3.370
 2413TIP3   OH2 7244   0.351   4.451   3.633
 2413TIP3    H1 7245   0.297   4.527   3.655
 2413TIP3    H2 7246   0.287   4.381   3.615
 2414TIP3   OH2 7247   2.429   4.669   0.595
 2414TIP3    H1 7248   2.454   4.580   0.574
 2414TIP3    H2 7249   2.423   4.671   0.690
 2415TIP3   OH2 7250   1.173   2.308   0.094
 2415TIP3    H1 7251   1.180   2.402   0.082
 2415TIP3    H2 7252   1.195   2.271   0.008
 2416TIP3   OH2 7253   0.305   1.621   1.302
 2416TIP3    H1 7254   0.275   1.600   1.390
 2416TIP3    H2 7255   0.294   1.540   1.253
 2417TIP3   OH2 7256   0.087   3.939   4.707
 2417TIP3    H1 7257   0.135   3.997   4.766
 2417TIP3    H2 7258   0.146   3.866   4.691
 2418TIP3   OH2 7259   4.666   4.932   5.186
 2418TIP3    H1 7260   4.582   4.946   5.141
 2418TIP3    H2 7261   4.708   4.861   5.137
 2419TIP3   OH2 7262   2.255   4.491   2.642
 2419TIP3    H1 7263   2.184   4.428   2.628
 2419TIP3    H2 7264   2.212   4.569   2.676
 2420TIP3   OH2 7265   4.391   4.319   4.039
 2420TIP3    H1 7266   4.354   4.387   3.982
 2420TIP3    H2 7267   4.314   4.274   4.075
 2421TIP3   OH2 7268   1.124   5.965   3.453
 2421TIP3    H1 7269   1.040   5.925   3.429
 2421TIP3    H2 7270   1.147   5.926   3.537
 2422TIP3   OH2 7271   0.790   4.301   0.064
 2422TIP3    H1 7272   0.722   4.244   0.099
 2422TIP3    H2 7273   0.829   4.343   0.141
 2423TIP3   OH2 7274   5.585   2.230   1.287
 2423TIP3    H1 7275   5.581   2.186   1.202
 2423TIP3    H2 7276   5.500   2.213   1.327
 2424TIP3   OH2 7277   0.113   3.668   0.926
 2424TIP3    H1 7278   0.018   3.677   0.922
 2424TIP3    H2 7279   0.146   3.727   0.859
 2425TIP3   OH2 7280   4.907   2.635   0.579
 2425TIP3    H1 7281   4.953   2.597   0.504
 2425TIP3    H2 7282   4.906   2.729   0.562
 2426TIP3   OH2 7283   1.643   1.447   0.822
 2426TIP3    H1 7284   1.697   1.523   0.802
 2426TIP3    H2 7285   1.593   1.430   0.742
 2427TIP3   OH2 7286   5.220   5.469   0.053
 2427TIP3    H1 7287   5.139   5.476   0.004
 2427TIP3    H2 7288   5.285   5.441  -0.011
 2428TIP3   OH2 7289   3.425   3.091   0.573
 2428TIP3    H1 7290   3.487   3.030   0.612
 2428TIP3    H2 7291   3.411   3.059   0.484
 2429TIP3   OH2 7292   0.457   5.978   3.479
 2429TIP3    H1 7293   0.420   5.917   3.416
 2429TIP3    H2 7294   0.383   6.009   3.530
 2430TIP3   OH2 7295   0.090   3.250   3.897
 2430TIP3    H1 7296   0.001   3.223   3.921
 2430TIP3    H2 7297   0.080   3.289   3.810
 2431TIP3   OH2 7298   6.153   1.264   4.321
 2431TIP3    H1 7299   6.085   1.196   4.329
 2431TIP3    H2 7300   6.187   1.253   4.232
 2432TIP3   OH2 7301   0.455   0.514   4.029
 2432TIP3    H1 7302   0.472   0.579   3.960
 2432TIP3    H2 7303   0.360   0.516   4.039
 2433TIP3   OH2 7304   6.284   3.252   1.316
 2433TIP3    H1 7305   6.272   3.204   1.234
 2433TIP3    H2 7306   6.196   3.277   1.343
 2434TIP3   OH2 7307   0.509   1.873   0.713
 2434TIP3    H1 7308   0.577   1.940   0.712
 2434TIP3    H2 7309   0.432   1.916   0.750
 2435TIP3   OH2 7310   1.347   5.308   3.625
 2435TIP3    H1 7311   1.343   5.213   3.639
 2435TIP3    H2 7312   1.341   5.317   3.530
 2436TIP3   OH2 7313   3.567   2.522   4.617
 2436TIP3    H1 7314   3.551   2.614   4.637
 2436TIP3    H2 7315   3.662   2.511   4.626
 2437TIP3   OH2 7316   3.046   5.539   4.373
 2437TIP3    H1 7317   2.995   5.606   4.418
 2437TIP3    H2 7318   3.126   5.532   4.424
 2438TIP3   OH2 7319   3.397   6.015   2.639
 2438TIP3    H1 7320   3.438   5.968   2.566
 2438TIP3    H2 7321   3.320   5.962   2.661
 2439TIP3   OH2 7322   1.908   1.167   1.771
 2439TIP3    H1 7323   1.998   1.134   1.778
 2439TIP3    H2 7324   1.860   1.120   1.839
 2440TIP3   OH2 7325   0.824   4.755   1.913
 2440TIP3    H1 7326   0.843   4.809   1.989
 2440TIP3    H2 7327   0.896   4.773   1.852
 2441TIP3   OH2 7328   0.623   2.973   3.247
 2441TIP3    H1 7329   0.632   2.978   3.151
 2441TIP3    H2 7330   0.695   3.027   3.280
 2442TIP3   OH2 7331   2.370   2.192   0.234
 2442TIP3    H1 7332   2.298   2.155   0.286
 2442TIP3    H2 7333   2.449   2.155   0.274
 2443TIP3   OH2 7334   3.363   3.539   2.089
 2443TIP3    H1 7335   3.350   3.623   2.044
 2443TIP3    H2 7336   3.444   3.504   2.050
 2444TIP3   OH2 7337   0.235   1.942   2.781
 2444TIP3    H1 7338   0.153   1.962   2.735
 2444TIP3    H2 7339   0.248   1.849   2.766
 2445TIP3   OH2 7340   1.217   2.951   1.834
 2445TIP3    H1 7341   1.144   2.890   1.842
 2445TIP3    H2 7342   1.179   3.030   1.796
 2446TIP3   OH2 7343   6.245   0.772   2.586
 2446TIP3    H1 7344   6.255   0.808   2.498
 2446TIP3    H2 7345   6.306   0.699   2.588
 2447TIP3   OH2 7346   3.185   2.209   2.424
 2447TIP3    H1 7347   3.265   2.208   2.476
 2447TIP3    H2 7348   3.214   2.234   2.336
 2448TIP3   OH2 7349   5.540   4.092   0.319
 2448TIP3    H1 7350   5.520   4.181   0.348
 2448TIP3    H2 7351   5.552   4.100   0.225
 2449TIP3   OH2 7352   5.981   5.614   4.259
 2449TIP3    H1 7353   6.055   5.670   4.236
 2449TIP3    H2 7354   5.945   5.586   4.175
 2450TIP3   OH2 7355   4.621   0.223   1.212
 2450TIP3    H1 7356   4.676   0.150   1.185
 2450TIP3    H2 7357   4.541   0.213   1.161
 2451TIP3   OH2 7358   3.838   4.273   0.029
 2451TIP3    H1 7359   3.928   4.249   0.006
 2451TIP3    H2 7360   3.830   4.250   0.122
 2452TIP3   OH2 7361   2.028   3.610   4.149
 2452TIP3    H1 7362   2.034   3.659   4.067
 2452TIP3    H2 7363   1.970   3.664   4.205
 2453TIP3   OH2 7364   0.732   4.717   1.204
 2453TIP3    H1 7365   0.740   4.779   1.276
 2453TIP3    H2 7366   0.700   4.636   1.244
 2454TIP3   OH2 7367   6.259   3.186   4.982
 2454TIP3    H1 7368   6.177   3.156   5.022
 2454TIP3    H2 7369   6.264   3.279   5.003
 2455TIP3   OH2 7370   6.054   5.194   0.014
 2455TIP3    H1 7371   6.116   5.134   0.056
 2455TIP3    H2 7372   6.096   5.280   0.018
 2456TIP3   OH2 7373   3.753   1.576   0.744
 2456TIP3    H1 7374   3.790   1.532   0.668
 2456TIP3    H2 7375   3.692   1.513   0.782
 2457TIP3   OH2 7376   4.869   3.813   1.495
 2457TIP3    H1 7377   4.958   3.782   1.475
 2457TIP3    H2 7378   4.814   3.735   1.486
 2458TIP3   OH2 7379   0.556   5.384   1.748
 2458TIP3    H1 7380   0.485   5.324   1.768
 2458TIP3    H2 7381   0.514   5.460   1.710
 2459TIP3   OH2 7382   5.586   3.182   1.811
 2459TIP3    H1 7383   5.604   3.186   1.904
 2459TIP3    H2 7384   5.587   3.273   1.782
 2460TIP3   OH2 7385   3.773   3.936   0.650
 2460TIP3    H1 7386   3.725   3.853   0.657
 2460TIP3    H2 7387   3.771   3.957   0.556
 2461TIP3   OH2 7388   6.195   2.782   4.173
 2461TIP3    H1 7389   6.108   2.802   4.138
 2461TIP3    H2 7390   6.236   2.727   4.106
 2462TIP3   OH2 7391   5.826   1.820   4.671
 2462TIP3    H1 7392   5.914   1.809   4.635
 2462TIP3    H2 7393   5.792   1.731   4.678
 2463TIP3   OH2 7394   4.067   3.971   0.030
 2463TIP3    H1 7395   4.135   3.919   0.072
 2463TIP3    H2 7396   3.985   3.939   0.068
 2464TIP3   OH2 7397   4.390   4.381   1.668
 2464TIP3    H1 7398   4.344   4.462   1.646
 2464TIP3    H2 7399   4.474   4.409   1.702
 2465TIP3   OH2 7400   1.349   0.115   4.779
 2465TIP3    H1 7401   1.332   0.039   4.723
 2465TIP3    H2 7402   1.405   0.082   4.849
 2466TIP3   OH2 7403   0.679   5.167   5.029
 2466TIP3    H1 7404   0.646   5.100   5.088
 2466TIP3    H2 7405   0.601   5.209   4.994
 2467TIP3   OH2 7406   3.128   3.850   2.136
 2467TIP3    H1 7407   3.067   3.786   2.100
 2467TIP3    H2 7408   3.077   3.931   2.141
 2468TIP3   OH2 7409   0.402   2.365   3.132
 2468TIP3    H1 7410   0.311   2.394   3.134
 2468TIP3    H2 7411   0.428   2.362   3.224
 2469TIP3   OH2 7412   3.532   2.777   2.369
 2469TIP3    H1 7413   3.585   2.835   2.315
 2469TIP3    H2 7414   3.564   2.689   2.347
 2470TIP3   OH2 7415   1.804   1.204   2.354
 2470TIP3    H1 7416   1.766   1.261   2.421
 2470TIP3    H2 7417   1.849   1.136   2.404
 2471TIP3   OH2 7418   4.470   5.914   2.874
 2471TIP3    H1 7419   4.393   5.857   2.878
 2471TIP3    H2 7420   4.447   5.981   2.811
 2472TIP3   OH2 7421   1.532   1.034   0.922
 2472TIP3    H1 7422   1.451   1.084   0.931
 2472TIP3    H2 7423   1.510   0.964   0.860
 2473TIP3   OH2 7424   3.795   1.718   4.050
 2473TIP3    H1 7425   3.851   1.708   4.127
 2473TIP3    H2 7426   3.780   1.812   4.043
 2474TIP3   OH2 7427   3.714   5.316   3.551
 2474TIP3    H1 7428   3.704   5.311   3.646
 2474TIP3    H2 7429   3.808   5.322   3.537
 2475TIP3   OH2 7430   5.687   3.864   4.804
 2475TIP3    H1 7431   5.633   3.927   4.852
 2475TIP3    H2 7432   5.775   3.903   4.803
 2476TIP3   OH2 7433   0.425   4.329   2.223
 2476TIP3    H1 7434   0.333   4.354   2.219
 2476TIP3    H2 7435   0.464   4.392   2.283
 2477TIP3   OH2 7436  -0.023   5.155   4.404
 2477TIP3    H1 7437   0.052   5.101   4.379
 2477TIP3    H2 7438   0.016   5.239   4.429
 2478TIP3   OH2 7439   1.933   2.450   5.161
 2478TIP3    H1 7440   1.860   2.395   5.190
 2478TIP3    H2 7441   1.890   2.529   5.126
 2479TIP3   OH2 7442   0.902   4.185   5.014
 2479TIP3    H1 7443   0.868   4.272   5.037
 2479TIP3    H2 7444   0.837   4.150   4.953
 2480TIP3   OH2 7445   1.669   1.185   0.676
 2480TIP3    H1 7446   1.711   1.110   0.635
 2480TIP3    H2 7447   1.664   1.164   0.769
 2481TIP3   OH2 7448   0.532   5.738   4.772
 2481TIP3    H1 7449   0.624   5.722   4.755
 2481TIP3    H2 7450   0.525   5.834   4.777
 2482TIP3   OH2 7451   3.383   2.724   2.832
 2482TIP3    H1 7452   3.348   2.711   2.744
 2482TIP3    H2 7453   3.477   2.729   2.820
 2483TIP3   OH2 7454   3.231   2.876   0.469
 2483TIP3    H1 7455   3.217   2.963   0.432
 2483TIP3    H2 7456   3.212   2.816   0.397
 2484TIP3   OH2 7457   2.830   4.264   3.296
 2484TIP3    H1 7458   2.743   4.236   3.268
 2484TIP3    H2 7459   2.882   4.264   3.216
 2485TIP3   OH2 7460   1.039   1.506   3.880
 2485TIP3    H1 7461   1.081   1.478   3.961
 2485TIP3    H2 7462   1.008   1.595   3.897
 2486TIP3   OH2 7463   3.548   4.472   0.443
 2486TIP3    H1 7464   3.628   4.420   0.454
 2486TIP3    H2 7465   3.579   4.562   0.440
 2487TIP3   OH2 7466   0.643   3.241   2.380
 2487TIP3    H1 7467   0.658   3.256   2.473
 2487TIP3    H2 7468   0.548   3.247   2.370
 2488TIP3   OH2 7469   4.399   5.473   3.888
 2488TIP3    H1 7470   4.481   5.465   3.937
 2488TIP3    H2 7471   4.334   5.499   3.954
 2489TIP3   OH2 7472   0.231   0.576   4.562
 2489TIP3    H1 7473   0.314   0.588   4.515
 2489TIP3    H2 7474   0.254   0.522   4.638
 2490TIP3   OH2 7475   2.728   2.527   3.580
 2490TIP3    H1 7476   2.681   2.499   3.501
 2490TIP3    H2 7477   2.668   2.588   3.623
 2491TIP3   OH2 7478   5.998   0.340   2.430
 2491TIP3    H1 7479   5.977   0.329   2.523
 2491TIP3    H2 7480   5.981   0.432   2.412
 2492TIP3   OH2 7481   5.929   0.413   3.137
 2492TIP3    H1 7482   5.969   0.454   3.213
 2492TIP3    H2 7483   5.971   0.454   3.062
 2493TIP3   OH2 7484   0.814   3.160   2.637
 2493TIP3    H1 7485   0.816   3.255   2.627
 2493TIP3    H2 7486   0.853   3.126   2.557
 2494TIP3   OH2 7487   1.112   0.485   1.420
 2494TIP3    H1 7488   1.074   0.468   1.506
 2494TIP3    H2 7489   1.143   0.399   1.390
 2495TIP3   OH2 7490   4.920   1.923   2.296
 2495TIP3    H1 7491   4.947   2.011   2.325
 2495TIP3    H2 7492   4.994   1.891   2.245
 2496TIP3   OH2 7493   1.653   4.582   4.570
 2496TIP3    H1 7494   1.650   4.489   4.593
 2496TIP3    H2 7495   1.576   4.595   4.515
 2497TIP3   OH2 7496   5.283   3.907   0.819
 2497TIP3    H1 7497   5.327   3.965   0.882
 2497TIP3    H2 7498   5.189   3.920   0.837
 2498TIP3   OH2 7499   2.534   4.141   1.632
 2498TIP3    H1 7500   2.451   4.157   1.588
 2498TIP3    H2 7501   2.529   4.193   1.712
 2499TIP3   OH2 7502   5.438   2.570   3.817
 2499TIP3    H1 7503   5.480   2.535   3.895
 2499TIP3    H2 7504   5.460   2.663   3.818
 2500TIP3   OH2 7505   1.728   3.864   0.799
 2500TIP3    H1 7506   1.714   3.776   0.833
 2500TIP3    H2 7507   1.643   3.891   0.764
 2501TIP3   OH2 7508   6.199   3.543   0.209
 2501TIP3    H1 7509   6.222   3.574   0.296
 2501TIP3    H2 7510   6.219   3.450   0.210
 2502TIP3   OH2 7511   4.954   3.207   3.322
 2502TIP3    H1 7512   4.955   3.295   3.360
 2502TIP3    H2 7513   5.041   3.173   3.341
 2503TIP3   OH2 7514   0.515   0.251   2.473
 2503TIP3    H1 7515   0.574   0.313   2.516
 2503TIP3    H2 7516   0.548   0.244   2.383
 2504TIP3   OH2 7517   0.362   1.681   0.315
 2504TIP3    H1 7518   0.437   1.621   0.315
 2504TIP3    H2 7519   0.348   1.702   0.407
 2505TIP3   OH2 7520   1.612   4.937   1.420
 2505TIP3    H1 7521   1.559   4.982   1.354
 2505TIP3    H2 7522   1.578   4.848   1.420
 2506TIP3   OH2 7523   1.295   3.827   4.046
 2506TIP3    H1 7524   1.201   3.826   4.061
 2506TIP3    H2 7525   1.305   3.799   3.955
 2507TIP3   OH2 7526   1.439   4.066   4.561
 2507TIP3    H1 7527   1.424   4.151   4.603
 2507TIP3    H2 7528   1.456   4.088   4.470
 2508TIP3   OH2 7529   0.882   2.260   0.118
 2508TIP3    H1 7530   0.842   2.180   0.152
 2508TIP3    H2 7531   0.975   2.240   0.110
 2509TIP3   OH2 7532   1.998   0.123   2.192
 2509TIP3    H1 7533   1.997   0.051   2.129
 2509TIP3    H2 7534   1.958   0.197   2.146
 2510TIP3   OH2 7535   6.168   5.439   0.056
 2510TIP3    H1 7536   6.166   5.529   0.023
 2510TIP3    H2 7537   6.243   5.437   0.115
 2511TIP3   OH2 7538   3.677   1.722   0.376
 2511TIP3    H1 7539   3.748   1.679   0.422
 2511TIP3    H2 7540   3.719   1.792   0.326
 2512TIP3   OH2 7541   1.860   5.469   0.963
 2512TIP3    H1 7542   1.937   5.525   0.975
 2512TIP3    H2 7543   1.885   5.410   0.891
 2513TIP3   OH2 7544   5.684   1.556   4.776
 2513TIP3    H1 7545   5.631   1.558   4.697
 2513TIP3    H2 7546   5.732   1.473   4.771
 2514TIP3   OH2 7547   0.320   3.877   1.973
 2514TIP3    H1 7548   0.371   3.892   1.893
 2514TIP3    H2 7549   0.230   3.900   1.948
 2515TIP3   OH2 7550   6.311   1.819   1.856
 2515TIP3    H1 7551   6.280   1.763   1.786
 2515TIP3    H2 7552   6.274   1.781   1.936
 2516TIP3   OH2 7553   2.074   3.262   4.758
 2516TIP3    H1 7554   2.156   3.215   4.776
 2516TIP3    H2 7555   2.022   3.201   4.706
 2517TIP3   OH2 7556   3.017   5.164   4.577
 2517TIP3    H1 7557   2.986   5.240   4.626
 2517TIP3    H2 7558   2.938   5.126   4.538
 2518TIP3   OH2 7559   5.338   3.710   1.273
 2518TIP3    H1 7560   5.394   3.785   1.255
 2518TIP3    H2 7561   5.256   3.729   1.226
 2519TIP3   OH2 7562   4.079   4.822   0.191
 2519TIP3    H1 7563   4.109   4.755   0.130
 2519TIP3    H2 7564   4.066   4.774   0.273
 2520TIP3   OH2 7565   0.477   4.894   4.761
 2520TIP3    H1 7566   0.425   4.899   4.681
 2520TIP3    H2 7567   0.416   4.913   4.832
 2521TIP3   OH2 7568   0.722   3.030   0.464
 2521TIP3    H1 7569   0.817   3.021   0.467
 2521TIP3    H2 7570   0.691   2.947   0.427
 2522TIP3   OH2 7571   1.478   0.632   2.977
 2522TIP3    H1 7572   1.514   0.662   3.061
 2522TIP3    H2 7573   1.468   0.712   2.926
 2523TIP3   OH2 7574   4.893   0.949   4.838
 2523TIP3    H1 7575   4.975   0.948   4.788
 2523TIP3    H2 7576   4.891   0.865   4.883
 2524TIP3   OH2 7577   3.770   4.822   0.866
 2524TIP3    H1 7578   3.711   4.896   0.851
 2524TIP3    H2 7579   3.828   4.821   0.789
 2525TIP3   OH2 7580   5.037   5.713   1.719
 2525TIP3    H1 7581   5.034   5.735   1.626
 2525TIP3    H2 7582   5.115   5.757   1.752
 2526TIP3   OH2 7583   3.964   5.081   3.473
 2526TIP3    H1 7584   4.048   5.081   3.520
 2526TIP3    H2 7585   3.898   5.073   3.541
 2527TIP3   OH2 7586   4.728   4.672   1.320
 2527TIP3    H1 7587   4.772   4.755   1.341
 2527TIP3    H2 7588   4.797   4.618   1.281
 2528TIP3   OH2 7589   0.847   3.525   5.119
 2528TIP3    H1 7590   0.779   3.583   5.087
 2528TIP3    H2 7591   0.904   3.581   5.172
 2529TIP3   OH2 7592   6.187   2.445   3.573
 2529TIP3    H1 7593   6.170   2.434   3.667
 2529TIP3    H2 7594   6.146   2.369   3.532
 2530TIP3   OH2 7595   5.735   0.408   0.565
 2530TIP3    H1 7596   5.825   0.442   0.566
 2530TIP3    H2 7597   5.687   0.465   0.626
 2531TIP3   OH2 7598   0.351   5.402   0.053
 2531TIP3    H1 7599   0.274   5.363   0.012
 2531TIP3    H2 7600   0.417   5.333   0.051
 2532TIP3   OH2 7601   4.014   3.057   1.830
 2532TIP3    H1 7602   3.994   2.966   1.851
 2532TIP3    H2 7603   4.053   3.053   1.742
 2533TIP3   OH2 7604   5.763   3.820   2.676
 2533TIP3    H1 7605   5.707   3.897   2.686
 2533TIP3    H2 7606   5.810   3.814   2.758
 2534TIP3   OH2 7607   0.043   4.150   4.163
 2534TIP3    H1 7608   0.083   4.184   4.083
 2534TIP3    H2 7609  -0.040   4.197   4.170
 2535TIP3   OH2 7610   4.976   0.298   0.349
 2535TIP3    H1 7611   4.902   0.291   0.410
 2535TIP3    H2 7612   4.936   0.292   0.262
 2536TIP3   OH2 7613   4.460   5.058   1.647
 2536TIP3    H1 7614   4.535   5.089   1.698
 2536TIP3    H2 7615   4.484   4.969   1.622
 2537TIP3   OH2 7616   4.865   0.018   0.124
 2537TIP3    H1 7617   4.821   0.007   0.040
 2537TIP3    H2 7618   4.900   0.107   0.121
 2538TIP3   OH2 7619   3.142   2.014   0.985
 2538TIP3    H1 7620   3.144   1.969   1.069
 2538TIP3    H2 7621   3.204   1.964   0.930
 2539TIP3   OH2 7622   4.795   2.055   2.584
 2539TIP3    H1 7623   4.756   2.142   2.588
 2539TIP3    H2 7624   4.721   1.995   2.574
 2540TIP3   OH2 7625   0.256   5.569   3.787
 2540TIP3    H1 7626   0.327   5.590   3.726
 2540TIP3    H2 7627   0.178   5.563   3.732
 2541TIP3   OH2 7628   3.340   2.654   1.599
 2541TIP3    H1 7629   3.309   2.741   1.625
 2541TIP3    H2 7630   3.312   2.645   1.508
 2542TIP3   OH2 7631   0.317   0.423   1.372
 2542TIP3    H1 7632   0.314   0.343   1.424
 2542TIP3    H2 7633   0.242   0.416   1.312
 2543TIP3   OH2 7634   5.589   1.336   1.932
 2543TIP3    H1 7635   5.661   1.274   1.917
 2543TIP3    H2 7636   5.544   1.341   1.848
 2544TIP3   OH2 7637   4.077   0.357   1.967
 2544TIP3    H1 7638   4.012   0.396   1.909
 2544TIP3    H2 7639   4.161   0.388   1.932
 2545TIP3   OH2 7640   0.074   1.928   3.419
 2545TIP3    H1 7641   0.029   1.994   3.472
 2545TIP3    H2 7642   0.052   1.844   3.460
 2546TIP3   OH2 7643   3.477   5.160   4.202
 2546TIP3    H1 7644   3.424   5.234   4.232
 2546TIP3    H2 7645   3.413   5.089   4.189
 2547TIP3   OH2 7646   3.272   5.629   4.505
 2547TIP3    H1 7647   3.226   5.696   4.453
 2547TIP3    H2 7648   3.253   5.653   4.595
 2548TIP3   OH2 7649   2.360   3.684   1.840
 2548TIP3    H1 7650   2.442   3.661   1.884
 2548TIP3    H2 7651   2.359   3.780   1.839
 2549TIP3   OH2 7652   2.859   1.580   2.764
 2549TIP3    H1 7653   2.889   1.670   2.771
 2549TIP3    H2 7654   2.901   1.534   2.836
 2550TIP3   OH2 7655   4.634   4.627   2.638
 2550TIP3    H1 7656   4.682   4.544   2.644
 2550TIP3    H2 7657   4.681   4.678   2.572
 2551TIP3   OH2 7658   5.846   3.742   1.407
 2551TIP3    H1 7659   5.766   3.781   1.442
 2551TIP3    H2 7660   5.869   3.673   1.468
 2552TIP3   OH2 7661   0.630   3.953   3.788
 2552TIP3    H1 7662   0.584   3.929   3.708
 2552TIP3    H2 7663   0.562   3.988   3.845
 2553TIP3   OH2 7664   2.896   0.795   3.676
 2553TIP3    H1 7665   2.867   0.708   3.704
 2553TIP3    H2 7666   2.960   0.778   3.607
 2554TIP3   OH2 7667   2.565   0.417   1.258
 2554TIP3    H1 7668   2.606   0.486   1.310
 2554TIP3    H2 7669   2.471   0.429   1.272
 2555TIP3   OH2 7670   2.958   5.503   3.987
 2555TIP3    H1 7671   2.873   5.484   4.028
 2555TIP3    H2 7672   2.941   5.497   3.893
 2556TIP3   OH2 7673   5.339   5.738   1.036
 2556TIP3    H1 7674   5.278   5.771   1.103
 2556TIP3    H2 7675   5.370   5.817   0.991
 2557TIP3   OH2 7676   2.278   2.249   4.949
 2557TIP3    H1 7677   2.350   2.262   4.888
 2557TIP3    H2 7678   2.213   2.315   4.925
 2558TIP3   OH2 7679   3.263   2.341   2.183
 2558TIP3    H1 7680   3.353   2.313   2.165
 2558TIP3    H2 7681   3.262   2.434   2.161
 2559TIP3   OH2 7682   6.010   0.797   3.863
 2559TIP3    H1 7683   5.962   0.716   3.878
 2559TIP3    H2 7684   5.942   0.862   3.843
 2560TIP3   OH2 7685   4.816   1.698   0.773
 2560TIP3    H1 7686   4.814   1.786   0.809
 2560TIP3    H2 7687   4.910   1.677   0.768
 2561TIP3   OH2 7688   5.265   5.545   2.572
 2561TIP3    H1 7689   5.259   5.509   2.661
 2561TIP3    H2 7690   5.357   5.570   2.562
 2562TIP3   OH2 7691   1.284   2.226   4.369
 2562TIP3    H1 7692   1.278   2.270   4.453
 2562TIP3    H2 7693   1.367   2.177   4.374
 2563TIP3   OH2 7694   4.862   3.030   0.825
 2563TIP3    H1 7695   4.928   3.086   0.867
 2563TIP3    H2 7696   4.844   2.962   0.889
 2564TIP3   OH2 7697   1.066   1.825   0.999
 2564TIP3    H1 7698   1.068   1.869   1.084
 2564TIP3    H2 7699   0.973   1.819   0.977
 2565TIP3   OH2 7700   1.673   2.564   1.262
 2565TIP3    H1 7701   1.706   2.645   1.223
 2565TIP3    H2 7702   1.639   2.514   1.188
 2566TIP3   OH2 7703   5.545   1.128   0.931
 2566TIP3    H1 7704   5.603   1.173   0.992
 2566TIP3    H2 7705   5.490   1.198   0.894
 2567TIP3   OH2 7706   5.494   2.229   3.094
 2567TIP3    H1 7707   5.475   2.152   3.041
 2567TIP3    H2 7708   5.587   2.222   3.113
 2568TIP3   OH2 7709   3.668   1.065   2.930
 2568TIP3    H1 7710   3.629   1.062   2.842
 2568TIP3    H2 7711   3.685   1.158   2.946
 2569TIP3   OH2 7712   6.231   5.037   3.441
 2569TIP3    H1 7713   6.259   5.015   3.530
 2569TIP3    H2 7714   6.138   5.057   3.449
 2570TIP3   OH2 7715   4.740   5.130   4.060
 2570TIP3    H1 7716   4.655   5.164   4.089
 2570TIP3    H2 7717   4.804   5.188   4.101
 2571TIP3   OH2 7718   4.872   3.701   2.221
 2571TIP3    H1 7719   4.813   3.681   2.293
 2571TIP3    H2 7720   4.951   3.650   2.241
 2572TIP3   OH2 7721   1.288   4.569   3.151
 2572TIP3    H1 7722   1.231   4.625   3.098
 2572TIP3    H2 7723   1.252   4.576   3.239
 2573TIP3   OH2 7724   5.994   2.658   4.857
 2573TIP3    H1 7725   5.965   2.646   4.948
 2573TIP3    H2 7726   5.922   2.623   4.804
 2574TIP3   OH2 7727   2.269   3.287   2.052
 2574TIP3    H1 7728   2.309   3.371   2.075
 2574TIP3    H2 7729   2.287   3.231   2.128
 2575TIP3   OH2 7730   0.197   0.067   2.457
 2575TIP3    H1 7731   0.181  -0.021   2.422
 2575TIP3    H2 7732   0.275   0.057   2.511
 2576TIP3   OH2 7733   2.946   0.383   3.939
 2576TIP3    H1 7734   2.921   0.416   3.852
 2576TIP3    H2 7735   2.883   0.312   3.956
 2577TIP3   OH2 7736   1.858   3.696   3.077
 2577TIP3    H1 7737   1.870   3.607   3.110
 2577TIP3    H2 7738   1.936   3.743   3.104
 2578TIP3   OH2 7739   5.614   3.873   1.092
 2578TIP3    H1 7740   5.535   3.914   1.126
 2578TIP3    H2 7741   5.668   3.947   1.063
 2579TIP3   OH2 7742   3.594   0.391   2.790
 2579TIP3    H1 7743   3.581   0.470   2.843
 2579TIP3    H2 7744   3.538   0.405   2.713
 2580TIP3   OH2 7745   5.409   3.436   4.874
 2580TIP3    H1 7746   5.316   3.430   4.854
 2580TIP3    H2 7747   5.436   3.522   4.841
 2581TIP3   OH2 7748   2.809   0.689   2.150
 2581TIP3    H1 7749   2.721   0.652   2.163
 2581TIP3    H2 7750   2.806   0.772   2.197
 2582TIP3   OH2 7751   1.209   0.158  -0.029
 2582TIP3    H1 7752   1.237   0.163   0.063
 2582TIP3    H2 7753   1.135   0.097  -0.028
 2583TIP3   OH2 7754   0.370   4.373   5.050
 2583TIP3    H1 7755   0.291   4.323   5.072
 2583TIP3    H2 7756   0.352   4.408   4.963
 2584TIP3   OH2 7757   0.357   5.540   4.811
 2584TIP3    H1 7758   0.313   5.547   4.726
 2584TIP3    H2 7759   0.432   5.599   4.804
 2585TIP3   OH2 7760   0.736   1.935   4.498
 2585TIP3    H1 7761   0.695   1.949   4.584
 2585TIP3    H2 7762   0.682   1.985   4.437
 2586TIP3   OH2 7763   5.381   4.179   0.876
 2586TIP3    H1 7764   5.459   4.233   0.889
 2586TIP3    H2 7765   5.310   4.230   0.915
 2587TIP3   OH2 7766   4.025   5.590   3.354
 2587TIP3    H1 7767   4.027   5.658   3.286
 2587TIP3    H2 7768   4.074   5.628   3.426
 2588TIP3   OH2 7769   3.234   3.422   4.402
 2588TIP3    H1 7770   3.217   3.336   4.441
 2588TIP3    H2 7771   3.206   3.484   4.469
 2589TIP3   OH2 7772   5.514   1.956   2.007
 2589TIP3    H1 7773   5.556   1.892   2.063
 2589TIP3    H2 7774   5.425   1.923   1.995
 2590TIP3   OH2 7775   5.562   2.475   2.484
 2590TIP3    H1 7776   5.606   2.465   2.568
 2590TIP3    H2 7777   5.561   2.387   2.447
 2591TIP3   OH2 7778   2.481   1.082   1.759
 2591TIP3    H1 7779   2.571   1.051   1.747
 2591TIP3    H2 7780   2.475   1.103   1.852
 2592TIP3   OH2 7781   5.560   4.843   3.558
 2592TIP3    H1 7782   5.467   4.818   3.557
 2592TIP3    H2 7783   5.587   4.836   3.466
 2593TIP3   OH2 7784   4.808   1.458   3.814
 2593TIP3    H1 7785   4.862   1.483   3.889
 2593TIP3    H2 7786   4.775   1.541   3.780
 2594TIP3   OH2 7787   5.783   1.311   0.928
 2594TIP3    H1 7788   5.787   1.376   0.998
 2594TIP3    H2 7789   5.798   1.361   0.848
 2595TIP3   OH2 7790   4.869   5.915   1.789
 2595TIP3    H1 7791   4.882   5.936   1.882
 2595TIP3    H2 7792   4.919   5.835   1.775
 2596TIP3   OH2 7793   5.135   1.072   0.080
 2596TIP3    H1 7794   5.136   1.095  -0.013
 2596TIP3    H2 7795   5.085   0.991   0.084
 2597TIP3   OH2 7796   3.207   5.734   4.738
 2597TIP3    H1 7797   3.270   5.805   4.744
 2597TIP3    H2 7798   3.122   5.778   4.732
 2598TIP3   OH2 7799   0.651   4.768   0.941
 2598TIP3    H1 7800   0.593   4.844   0.935
 2598TIP3    H2 7801   0.680   4.767   1.033
 2599TIP3   OH2 7802   2.359   4.636   0.858
 2599TIP3    H1 7803   2.288   4.651   0.921
 2599TIP3    H2 7804   2.407   4.561   0.893
 2600TIP3   OH2 7805   3.889   5.001   0.253
 2600TIP3    H1 7806   3.819   4.942   0.226
 2600TIP3    H2 7807   3.969   4.958   0.224
 2601TIP3   OH2 7808   6.071   5.699   2.525
 2601TIP3    H1 7809   6.123   5.760   2.473
 2601TIP3    H2 7810   6.127   5.622   2.536
 2602TIP3   OH2 7811   1.186   2.595   5.109
 2602TIP3    H1 7812   1.186   2.499   5.107
 2602TIP3    H2 7813   1.154   2.620   5.022
 2603TIP3   OH2 7814   1.426   1.055   0.365
 2603TIP3    H1 7815   1.377   1.111   0.426
 2603TIP3    H2 7816   1.363   0.989   0.337
 2604TIP3   OH2 7817   3.777   1.550   3.451
 2604TIP3    H1 7818   3.712   1.588   3.511
 2604TIP3    H2 7819   3.848   1.521   3.509
 2605TIP3   OH2 7820   0.117   4.977   2.501
 2605TIP3    H1 7821   0.039   4.959   2.553
 2605TIP3    H2 7822   0.173   5.029   2.558
 2606TIP3   OH2 7823   0.909   4.349   2.676
 2606TIP3    H1 7824   0.841   4.404   2.716
 2606TIP3    H2 7825   0.911   4.271   2.731
 2607TIP3   OH2 7826   2.763   2.924   2.864
 2607TIP3    H1 7827   2.845   2.895   2.903
 2607TIP3    H2 7828   2.775   2.910   2.770
 2608TIP3   OH2 7829   4.833   3.792   2.837
 2608TIP3    H1 7830   4.811   3.708   2.877
 2608TIP3    H2 7831   4.868   3.844   2.908
 2609TIP3   OH2 7832   4.221   3.138   2.054
 2609TIP3    H1 7833   4.303   3.181   2.078
 2609TIP3    H2 7834   4.247   3.050   2.027
 2610TIP3   OH2 7835   5.536   5.100   2.555
 2610TIP3    H1 7836   5.627   5.072   2.565
 2610TIP3    H2 7837   5.540   5.171   2.492
 2611TIP3   OH2 7838   1.376   1.353   4.558
 2611TIP3    H1 7839   1.393   1.260   4.541
 2611TIP3    H2 7840   1.462   1.393   4.565
 2612TIP3   OH2 7841   2.999   1.276   2.254
 2612TIP3    H1 7842   3.001   1.370   2.234
 2612TIP3    H2 7843   2.972   1.271   2.345
 2613TIP3   OH2 7844   2.896   3.520   4.375
 2613TIP3    H1 7845   2.946   3.514   4.293
 2613TIP3    H2 7846   2.894   3.430   4.408
 2614TIP3   OH2 7847   5.114   2.181   2.324
 2614TIP3    H1 7848   5.172   2.186   2.400
 2614TIP3    H2 7849   5.063   2.262   2.327
 2615TIP3   OH2 7850   4.832   1.082   3.221
 2615TIP3    H1 7851   4.832   1.077   3.317
 2615TIP3    H2 7852   4.912   1.034   3.195
 2616TIP3   OH2 7853   1.897   1.740   1.633
 2616TIP3    H1 7854   1.880   1.706   1.721
 2616TIP3    H2 7855   1.975   1.692   1.604
 2617TIP3   OH2 7856   0.050   4.581   5.132
 2617TIP3    H1 7857  -0.019   4.575   5.199
 2617TIP3    H2 7858   0.050   4.495   5.090
 2618TIP3   OH2 7859   4.978   4.411   3.858
 2618TIP3    H1 7860   5.025   4.377   3.782
 2618TIP3    H2 7861   4.887   4.417   3.831
 2619TIP3   OH2 7862   0.472   5.205   2.177
 2619TIP3    H1 7863   0.379   5.215   2.195
 2619TIP3    H2 7864   0.516   5.249   2.249
 2620TIP3   OH2 7865   3.476   3.020   4.765
 2620TIP3    H1 7866   3.451   2.990   4.853
 2620TIP3    H2 7867   3.477   3.115   4.771
 2621TIP3   OH2 7868   1.965   1.280   4.366
 2621TIP3    H1 7869   2.048   1.314   4.399
 2621TIP3    H2 7870   1.910   1.270   4.444
 2622TIP3   OH2 7871   1.015   2.664   2.690
 2622TIP3    H1 7872   0.978   2.700   2.609
 2622TIP3    H2 7873   0.982   2.721   2.759
 2623TIP3   OH2 7874   4.184   2.132   2.871
 2623TIP3    H1 7875   4.190   2.198   2.940
 2623TIP3    H2 7876   4.270   2.089   2.872
 2624TIP3   OH2 7877   4.629   3.462   4.625
 2624TIP3    H1 7878   4.713   3.416   4.632
 2624TIP3    H2 7879   4.648   3.551   4.655
 2625TIP3   OH2 7880   0.345   3.910   4.348
 2625TIP3    H1 7881   0.328   3.890   4.256
 2625TIP3    H2 7882   0.314   4.000   4.359
 2626TIP3   OH2 7883   1.598  -0.011   2.244
 2626TIP3    H1 7884   1.618   0.082   2.254
 2626TIP3    H2 7885   1.627  -0.051   2.326
 2627TIP3   OH2 7886   6.202   5.359   2.783
 2627TIP3    H1 7887   6.143   5.339   2.855
 2627TIP3    H2 7888   6.265   5.287   2.781
 2628TIP3   OH2 7889   2.299   2.228   2.962
 2628TIP3    H1 7890   2.272   2.174   3.036
 2628TIP3    H2 7891   2.262   2.184   2.886
 2629TIP3   OH2 7892   2.323   4.100   2.599
 2629TIP3    H1 7893   2.355   4.151   2.673
 2629TIP3    H2 7894   2.332   4.159   2.524
 2630TIP3   OH2 7895   5.335   0.941   2.618
 2630TIP3    H1 7896   5.335   1.025   2.571
 2630TIP3    H2 7897   5.359   0.877   2.551
 2631TIP3   OH2 7898   4.859   3.152   4.285
 2631TIP3    H1 7899   4.816   3.173   4.202
 2631TIP3    H2 7900   4.874   3.057   4.280
 2632TIP3   OH2 7901   3.388   3.560   0.252
 2632TIP3    H1 7902   3.326   3.607   0.197
 2632TIP3    H2 7903   3.380   3.469   0.225
 2633TIP3   OH2 7904   1.862   5.150   1.792
 2633TIP3    H1 7905   1.799   5.088   1.755
 2633TIP3    H2 7906   1.909   5.185   1.717
 2634TIP3   OH2 7907   5.310   3.449   2.309
 2634TIP3    H1 7908   5.309   3.473   2.216
 2634TIP3    H2 7909   5.382   3.387   2.317
 2635TIP3   OH2 7910   4.608   5.824   4.708
 2635TIP3    H1 7911   4.599   5.904   4.759
 2635TIP3    H2 7912   4.566   5.757   4.762
 2636TIP3   OH2 7913   0.515   3.919   1.182
 2636TIP3    H1 7914   0.435   3.970   1.174
 2636TIP3    H2 7915   0.497   3.855   1.250
 2637TIP3   OH2 7916   4.324   5.911   3.376
 2637TIP3    H1 7917   4.364   5.973   3.315
 2637TIP3    H2 7918   4.257   5.866   3.325
 2638TIP3   OH2 7919   4.919   0.319   1.541
 2638TIP3    H1 7920   4.946   0.386   1.604
 2638TIP3    H2 7921   4.869   0.366   1.474
 2639TIP3   OH2 7922   3.879   4.589   4.489
 2639TIP3    H1 7923   3.966   4.564   4.520
 2639TIP3    H2 7924   3.831   4.612   4.569
 2640TIP3   OH2 7925   5.028   5.780   0.068
 2640TIP3    H1 7926   4.955   5.720   0.078
 2640TIP3    H2 7927   5.072   5.778   0.153
 2641TIP3   OH2 7928   6.214   1.526   0.252
 2641TIP3    H1 7929   6.181   1.457   0.196
 2641TIP3    H2 7930   6.292   1.488   0.294
 2642TIP3   OH2 7931   3.768   3.887   0.343
 2642TIP3    H1 7932   3.855   3.885   0.302
 2642TIP3    H2 7933   3.711   3.922   0.276
 2643TIP3   OH2 7934   5.545   0.196   1.860
 2643TIP3    H1 7935   5.635   0.205   1.890
 2643TIP3    H2 7936   5.493   0.239   1.928
 2644TIP3   OH2 7937   3.532   1.689   3.558
 2644TIP3    H1 7938   3.516   1.691   3.652
 2644TIP3    H2 7939   3.513   1.777   3.528
 2645TIP3   OH2 7940   0.966   1.982   3.559
 2645TIP3    H1 7941   1.055   2.012   3.580
 2645TIP3    H2 7942   0.960   1.895   3.599
 2646TIP3   OH2 7943   1.613   3.330   4.030
 2646TIP3    H1 7944   1.554   3.271   3.982
 2646TIP3    H2 7945   1.603   3.304   4.121
 2647TIP3   OH2 7946   4.867   5.062   0.716
 2647TIP3    H1 7947   4.887   5.037   0.626
 2647TIP3    H2 7948   4.838   5.153   0.710
 2648TIP3   OH2 7949   5.510   3.035   2.204
 2648TIP3    H1 7950   5.460   2.971   2.254
 2648TIP3    H2 7951   5.499   3.007   2.113
 2649TIP3   OH2 7952   5.018   4.853   4.318
 2649TIP3    H1 7953   5.014   4.949   4.323
 2649TIP3    H2 7954   4.943   4.830   4.263
 2650TIP3   OH2 7955   1.236   0.066   1.256
 2650TIP3    H1 7956   1.293   0.135   1.290
 2650TIP3    H2 7957   1.147   0.097   1.275
 2651TIP3   OH2 7958   1.577   1.726   3.374
 2651TIP3    H1 7959   1.587   1.699   3.466
 2651TIP3    H2 7960   1.604   1.818   3.374
 2652TIP3   OH2 7961   5.480   4.651   4.720
 2652TIP3    H1 7962   5.528   4.571   4.697
 2652TIP3    H2 7963   5.504   4.669   4.811
 2653TIP3   OH2 7964   5.701   2.662   1.746
 2653TIP3    H1 7965   5.697   2.567   1.732
 2653TIP3    H2 7966   5.793   2.679   1.766
 2654TIP3   OH2 7967   0.343   4.604   2.087
 2654TIP3    H1 7968   0.383   4.691   2.077
 2654TIP3    H2 7969   0.365   4.558   2.006
 2655TIP3   OH2 7970   0.292   4.891   0.148
 2655TIP3    H1 7971   0.326   4.847   0.225
 2655TIP3    H2 7972   0.200   4.910   0.170
 2656TIP3   OH2 7973   4.803   5.379   2.996
 2656TIP3    H1 7974   4.824   5.286   2.987
 2656TIP3    H2 7975   4.862   5.410   3.065
 2657TIP3   OH2 7976   6.076   0.577   5.165
 2657TIP3    H1 7977   6.037   0.609   5.083
 2657TIP3    H2 7978   6.005   0.582   5.229
 2658TIP3   OH2 7979   5.070   3.977   3.491
 2658TIP3    H1 7980   4.985   3.935   3.494
 2658TIP3    H2 7981   5.132   3.909   3.516
 2659TIP3   OH2 7982   0.803   4.602   3.951
 2659TIP3    H1 7983   0.720   4.615   3.906
 2659TIP3    H2 7984   0.784   4.624   4.042
 2660TIP3   OH2 7985   2.761   4.642   3.990
 2660TIP3    H1 7986   2.698   4.661   3.921
 2660TIP3    H2 7987   2.749   4.548   4.008
 2661TIP3   OH2 7988   5.525   0.893   5.089
 2661TIP3    H1 7989   5.504   0.868   5.180
 2661TIP3    H2 7990   5.460   0.847   5.037
 2662TIP3   OH2 7991   2.761   2.557   3.920
 2662TIP3    H1 7992   2.782   2.464   3.931
 2662TIP3    H2 7993   2.818   2.586   3.849
 2663TIP3   OH2 7994   0.654   5.941   0.060
 2663TIP3    H1 7995   0.673   5.863   0.113
 2663TIP3    H2 7996   0.733   5.994   0.066
 2664TIP3   OH2 7997   2.716   4.114   4.320
 2664TIP3    H1 7998   2.647   4.050   4.303
 2664TIP3    H2 7999   2.688   4.160   4.399
 2665TIP3   OH2 8000   3.442   3.455   0.519
 2665TIP3    H1 8001   3.419   3.465   0.427
 2665TIP3    H2 8002   3.431   3.542   0.556
 2666TIP3   OH2 8003   2.354   3.224   4.732
 2666TIP3    H1 8004   2.364   3.319   4.721
 2666TIP3    H2 8005   2.418   3.186   4.672
 2667TIP3   OH2 8006   0.523   0.134   3.762
 2667TIP3    H1 8007   0.544   0.116   3.670
 2667TIP3    H2 8008   0.568   0.065   3.811
 2668TIP3   OH2 8009   3.935   3.597   4.527
 2668TIP3    H1 8010   3.984   3.532   4.478
 2668TIP3    H2 8011   3.973   3.595   4.615
 2669TIP3   OH2 8012   1.951   0.660   5.131
 2669TIP3    H1 8013   2.044   0.677   5.112
 2669TIP3    H2 8014   1.904   0.715   5.068
 2670TIP3   OH2 8015   2.329   3.123   3.493
 2670TIP3    H1 8016   2.327   3.085   3.581
 2670TIP3    H2 8017   2.247   3.094   3.453
 2671TIP3   OH2 8018   2.277   1.751   2.526
 2671TIP3    H1 8019   2.322   1.711   2.450
 2671TIP3    H2 8020   2.309   1.701   2.601
 2672TIP3   OH2 8021   0.945   1.104   4.557
 2672TIP3    H1 8022   0.898   1.128   4.477
 2672TIP3    H2 8023   1.025   1.062   4.526
 2673TIP3   OH2 8024   3.484   1.279   4.976
 2673TIP3    H1 8025   3.451   1.359   4.933
 2673TIP3    H2 8026   3.564   1.308   5.020
 2674TIP3   OH2 8027   2.417   2.482   4.923
 2674TIP3    H1 8028   2.455   2.431   4.995
 2674TIP3    H2 8029   2.337   2.519   4.959
 2675TIP3   OH2 8030   0.142   0.877   0.758
 2675TIP3    H1 8031   0.115   0.853   0.847
 2675TIP3    H2 8032   0.060   0.896   0.713
 2676TIP3   OH2 8033   2.132   2.938   3.938
 2676TIP3    H1 8034   2.066   2.921   4.005
 2676TIP3    H2 8035   2.186   2.859   3.937
 2677TIP3   OH2 8036   1.024   2.932   2.214
 2677TIP3    H1 8037   1.048   2.847   2.178
 2677TIP3    H2 8038   0.972   2.973   2.145
 2678TIP3   OH2 8039   0.996   5.485   3.635
 2678TIP3    H1 8040   0.951   5.479   3.550
 2678TIP3    H2 8041   1.038   5.400   3.646
 2679TIP3   OH2 8042   2.445   4.007   4.124
 2679TIP3    H1 8043   2.499   3.929   4.134
 2679TIP3    H2 8044   2.375   3.996   4.189
 2680TIP3   OH2 8045   0.816   3.945   1.973
 2680TIP3    H1 8046   0.816   3.868   2.029
 2680TIP3    H2 8047   0.845   3.913   1.887
 2681TIP3   OH2 8048   1.269   5.509   4.820
 2681TIP3    H1 8049   1.295   5.419   4.804
 2681TIP3    H2 8050   1.342   5.562   4.786
 2682TIP3   OH2 8051   2.050   4.460   3.613
 2682TIP3    H1 8052   2.088   4.530   3.560
 2682TIP3    H2 8053   2.118   4.393   3.617
 2683TIP3   OH2 8054   5.803   4.650   4.797
 2683TIP3    H1 8055   5.767   4.667   4.884
 2683TIP3    H2 8056   5.810   4.736   4.756
 2684TIP3   OH2 8057   3.081   1.303   4.132
 2684TIP3    H1 8058   2.996   1.264   4.151
 2684TIP3    H2 8059   3.141   1.262   4.194
 2685TIP3   OH2 8060   2.116   3.944   0.887
 2685TIP3    H1 8061   2.077   3.988   0.811
 2685TIP3    H2 8062   2.101   4.005   0.960
 2686TIP3   OH2 8063   4.926   2.272   1.096
 2686TIP3    H1 8064   4.983   2.215   1.149
 2686TIP3    H2 8065   4.968   2.357   1.098
 2687TIP3   OH2 8066   2.254   0.165   0.797
 2687TIP3    H1 8067   2.260   0.205   0.710
 2687TIP3    H2 8068   2.195   0.223   0.846
 2688TIP3   OH2 8069   1.565   2.466   1.024
 2688TIP3    H1 8070   1.517   2.455   0.941
 2688TIP3    H2 8071   1.654   2.440   1.004
 2689TIP3   OH2 8072   4.526   0.440   3.754
 2689TIP3    H1 8073   4.579   0.407   3.826
 2689TIP3    H2 8074   4.565   0.525   3.732
 2690TIP3   OH2 8075   1.894   0.441   3.126
 2690TIP3    H1 8076   1.889   0.407   3.036
 2690TIP3    H2 8077   1.930   0.368   3.177
 2691TIP3   OH2 8078   0.815   4.024   4.544
 2691TIP3    H1 8079   0.859   3.989   4.468
 2691TIP3    H2 8080   0.727   3.988   4.540
 2692TIP3   OH2 8081   6.158   0.656   4.692
 2692TIP3    H1 8082   6.085   0.595   4.699
 2692TIP3    H2 8083   6.132   0.717   4.623
 2693TIP3   OH2 8084   1.817   0.087   0.857
 2693TIP3    H1 8085   1.899   0.039   0.854
 2693TIP3    H2 8086   1.781   0.068   0.944
 2694TIP3   OH2 8087   3.551   0.656   0.600
 2694TIP3    H1 8088   3.525   0.672   0.691
 2694TIP3    H2 8089   3.486   0.594   0.568
 2695TIP3   OH2 8090   4.708   3.591   3.417
 2695TIP3    H1 8091   4.640   3.549   3.468
 2695TIP3    H2 8092   4.706   3.547   3.332
 2696TIP3   OH2 8093   1.526   5.565   3.471
 2696TIP3    H1 8094   1.470   5.544   3.545
 2696TIP3    H2 8095   1.510   5.658   3.455
 2697TIP3   OH2 8096  -0.020   4.279   3.359
 2697TIP3    H1 8097   0.062   4.255   3.316
 2697TIP3    H2 8098  -0.021   4.374   3.357
 2698TIP3   OH2 8099   3.938   1.510   1.963
 2698TIP3    H1 8100   3.957   1.449   1.892
 2698TIP3    H2 8101   4.006   1.492   2.028
 2699TIP3   OH2 8102   0.944   5.160   4.028
 2699TIP3    H1 8103   0.869   5.212   4.000
 2699TIP3    H2 8104   0.916   5.069   4.018
 2700TIP3   OH2 8105   2.784   3.705   3.656
 2700TIP3    H1 8106   2.818   3.705   3.746
 2700TIP3    H2 8107   2.774   3.613   3.634
 2701TIP3   OH2 8108   5.558   2.515   4.083
 2701TIP3    H1 8109   5.644   2.481   4.109
 2701TIP3    H2 8110   5.564   2.610   4.095
 2702TIP3   OH2 8111   4.495   3.260   2.402
 2702TIP3    H1 8112   4.541   3.177   2.412
 2702TIP3    H2 8113   4.532   3.316   2.470
 2703TIP3   OH2 8114   1.117   1.373   3.373
 2703TIP3    H1 8115   1.131   1.296   3.318
 2703TIP3    H2 8116   1.196   1.380   3.425
 2704TIP3   OH2 8117   1.680   3.822   4.588
 2704TIP3    H1 8118   1.655   3.885   4.520
 2704TIP3    H2 8119   1.704   3.743   4.540
 2705TIP3   OH2 8120   1.812   2.652   2.383
 2705TIP3    H1 8121   1.829   2.743   2.408
 2705TIP3    H2 8122   1.898   2.611   2.383
 2706TIP3   OH2 8123   4.283   4.514   3.910
 2706TIP3    H1 8124   4.309   4.501   3.819
 2706TIP3    H2 8125   4.190   4.538   3.905
 2707TIP3   OH2 8126   1.541   2.358   0.024
 2707TIP3    H1 8127   1.522   2.360   0.118
 2707TIP3    H2 8128   1.574   2.446   0.006
 2708TIP3   OH2 8129   5.850   3.103   4.743
 2708TIP3    H1 8130   5.929   3.075   4.696
 2708TIP3    H2 8131   5.779   3.091   4.681
 2709TIP3   OH2 8132   4.152   5.814   0.522
 2709TIP3    H1 8133   4.108   5.898   0.533
 2709TIP3    H2 8134   4.213   5.809   0.596
 2710TIP3   OH2 8135   5.181   4.034   2.743
 2710TIP3    H1 8136   5.250   3.968   2.738
 2710TIP3    H2 8137   5.227   4.114   2.768
 2711TIP3   OH2 8138   3.665   5.409   2.833
 2711TIP3    H1 8139   3.739   5.450   2.879
 2711TIP3    H2 8140   3.698   5.396   2.743
 2712TIP3   OH2 8141   3.569   2.588   4.202
 2712TIP3    H1 8142   3.481   2.624   4.204
 2712TIP3    H2 8143   3.560   2.499   4.238
 2713TIP3   OH2 8144   0.318   5.215   4.353
 2713TIP3    H1 8145   0.267   5.269   4.292
 2713TIP3    H2 8146   0.379   5.276   4.395
 2714TIP3   OH2 8147   3.525   3.315   3.344
 2714TIP3    H1 8148   3.544   3.286   3.434
 2714TIP3    H2 8149   3.441   3.360   3.350
 2715TIP3   OH2 8150   1.056   4.626   2.215
 2715TIP3    H1 8151   1.019   4.703   2.172
 2715TIP3    H2 8152   1.067   4.562   2.144
 2716TIP3   OH2 8153   4.614   0.550   3.240
 2716TIP3    H1 8154   4.569   0.634   3.226
 2716TIP3    H2 8155   4.556   0.500   3.297
 2717TIP3   OH2 8156   4.665   5.463   0.391
 2717TIP3    H1 8157   4.650   5.369   0.397
 2717TIP3    H2 8158   4.605   5.501   0.455
 2718TIP3   OH2 8159   0.094   2.349   1.866
 2718TIP3    H1 8160   0.137   2.369   1.949
 2718TIP3    H2 8161   0.156   2.292   1.820
 2719TIP3   OH2 8162   1.363   5.092   3.112
 2719TIP3    H1 8163   1.325   5.179   3.126
 2719TIP3    H2 8164   1.372   5.085   3.017
 2720TIP3   OH2 8165   5.386   4.671   1.221
 2720TIP3    H1 8166   5.376   4.724   1.300
 2720TIP3    H2 8167   5.370   4.581   1.252
 2721TIP3   OH2 8168   3.365   4.077   4.271
 2721TIP3    H1 8169   3.326   4.044   4.189
 2721TIP3    H2 8170   3.316   4.158   4.289
 2722TIP3   OH2 8171   0.258   5.944   3.004
 2722TIP3    H1 8172   0.342   5.906   3.028
 2722TIP3    H2 8173   0.211   5.951   3.087
 2723TIP3   OH2 8174   0.074   5.471   4.768
 2723TIP3    H1 8175   0.091   5.442   4.857
 2723TIP3    H2 8176   0.122   5.408   4.713
 2724TIP3   OH2 8177   2.347   3.606   1.582
 2724TIP3    H1 8178   2.418   3.612   1.646
 2724TIP3    H2 8179   2.268   3.619   1.634
 2725TIP3   OH2 8180   0.297   4.869   3.316
 2725TIP3    H1 8181   0.293   4.888   3.410
 2725TIP3    H2 8182   0.206   4.878   3.287
 2726TIP3   OH2 8183   4.650   5.763   1.009
 2726TIP3    H1 8184   4.729   5.757   1.063
 2726TIP3    H2 8185   4.644   5.678   0.965
 2727TIP3   OH2 8186   2.615   3.371   4.467
 2727TIP3    H1 8187   2.693   3.351   4.415
 2727TIP3    H2 8188   2.583   3.285   4.497
 2728TIP3   OH2 8189   1.029   3.893   0.391
 2728TIP3    H1 8190   1.023   3.797   0.386
 2728TIP3    H2 8191   0.942   3.921   0.418
 2729TIP3   OH2 8192   4.844   2.321   0.322
 2729TIP3    H1 8193   4.776   2.385   0.303
 2729TIP3    H2 8194   4.798   2.236   0.321
 2730TIP3   OH2 8195   0.438   5.139   4.651
 2730TIP3    H1 8196   0.479   5.088   4.721
 2730TIP3    H2 8197   0.483   5.223   4.653
 2731TIP3   OH2 8198   1.433   3.361   4.672
 2731TIP3    H1 8199   1.491   3.436   4.671
 2731TIP3    H2 8200   1.491   3.285   4.658
 2732TIP3   OH2 8201   2.507   4.770   3.128
 2732TIP3    H1 8202   2.574   4.788   3.063
 2732TIP3    H2 8203   2.425   4.765   3.079
 2733TIP3   OH2 8204   0.187   3.513   0.583
 2733TIP3    H1 8205   0.223   3.595   0.549
 2733TIP3    H2 8206   0.227   3.503   0.669
 2734TIP3   OH2 8207   1.986   3.454   3.512
 2734TIP3    H1 8208   1.957   3.382   3.455
 2734TIP3    H2 8209   1.979   3.418   3.601
 2735TIP3   OH2 8210   3.553   4.443   1.009
 2735TIP3    H1 8211   3.616   4.427   1.079
 2735TIP3    H2 8212   3.472   4.404   1.041
 2736TIP3   OH2 8213   2.345   2.590   0.963
 2736TIP3    H1 8214   2.370   2.638   1.042
 2736TIP3    H2 8215   2.388   2.637   0.892
 2737TIP3   OH2 8216   4.719   0.081   0.551
 2737TIP3    H1 8217   4.653   0.052   0.489
 2737TIP3    H2 8218   4.753   0.001   0.590
 2738TIP3   OH2 8219   0.751   4.116   4.789
 2738TIP3    H1 8220   0.717   4.200   4.758
 2738TIP3    H2 8221   0.790   4.076   4.711
 2739TIP3   OH2 8222   5.261   3.425   0.428
 2739TIP3    H1 8223   5.265   3.453   0.336
 2739TIP3    H2 8224   5.297   3.336   0.427
 2740TIP3   OH2 8225   0.512   3.857   0.418
 2740TIP3    H1 8226   0.423   3.830   0.441
 2740TIP3    H2 8227   0.506   3.887   0.327
 2741TIP3   OH2 8228   5.030   4.868   0.357
 2741TIP3    H1 8229   5.102   4.872   0.420
 2741TIP3    H2 8230   5.040   4.783   0.314
 2742TIP3   OH2 8231   4.662   4.018   3.499
 2742TIP3    H1 8232   4.738   4.006   3.557
 2742TIP3    H2 8233   4.586   4.004   3.555
 2743TIP3   OH2 8234   3.693   1.998   4.342
 2743TIP3    H1 8235   3.737   2.080   4.362
 2743TIP3    H2 8236   3.602   2.013   4.367
 2744TIP3   OH2 8237   1.891   4.392   0.103
 2744TIP3    H1 8238   1.833   4.455   0.061
 2744TIP3    H2 8239   1.920   4.334   0.033
 2745TIP3   OH2 8240   2.254   1.904   1.840
 2745TIP3    H1 8241   2.257   1.873   1.749
 2745TIP3    H2 8242   2.226   1.827   1.890
 2746TIP3   OH2 8243   5.343   5.658   3.834
 2746TIP3    H1 8244   5.358   5.705   3.752
 2746TIP3    H2 8245   5.272   5.597   3.815
 2747TIP3   OH2 8246   0.411   1.350   3.511
 2747TIP3    H1 8247   0.329   1.320   3.473
 2747TIP3    H2 8248   0.457   1.270   3.536
 2748TIP3   OH2 8249   0.755   2.183   2.840
 2748TIP3    H1 8250   0.804   2.160   2.918
 2748TIP3    H2 8251   0.809   2.249   2.796
 2749TIP3   OH2 8252   3.366   1.885   2.611
 2749TIP3    H1 8253   3.337   1.891   2.520
 2749TIP3    H2 8254   3.454   1.922   2.610
 2750TIP3   OH2 8255   3.506   1.715   1.194
 2750TIP3    H1 8256   3.412   1.719   1.178
 2750TIP3    H2 8257   3.545   1.760   1.119
 2751TIP3   OH2 8258   1.210   1.876   5.119
 2751TIP3    H1 8259   1.186   1.925   5.198
 2751TIP3    H2 8260   1.295   1.912   5.094
 2752TIP3   OH2 8261   6.296   5.637   3.020
 2752TIP3    H1 8262   6.352   5.710   2.995
 2752TIP3    H2 8263   6.272   5.654   3.111
 2753TIP3   OH2 8264   0.362   1.015   0.085
 2753TIP3    H1 8265   0.333   1.077   0.018
 2753TIP3    H2 8266   0.449   1.046   0.110
 2754TIP3   OH2 8267   2.586   5.598   0.880
 2754TIP3    H1 8268   2.521   5.667   0.865
 2754TIP3    H2 8269   2.535   5.517   0.883
 2755TIP3   OH2 8270   5.351   5.779   3.591
 2755TIP3    H1 8271   5.309   5.816   3.513
 2755TIP3    H2 8272   5.430   5.833   3.602
 2756TIP3   OH2 8273   0.768   2.586   5.151
 2756TIP3    H1 8274   0.811   2.534   5.083
 2756TIP3    H2 8275   0.710   2.645   5.102
 2757TIP3   OH2 8276   5.171   4.613   1.023
 2757TIP3    H1 8277   5.228   4.664   1.081
 2757TIP3    H2 8278   5.172   4.660   0.940
 2758TIP3   OH2 8279   4.753   3.502   1.118
 2758TIP3    H1 8280   4.805   3.494   1.198
 2758TIP3    H2 8281   4.727   3.594   1.116
 2759TIP3   OH2 8282   0.752   4.833   1.452
 2759TIP3    H1 8283   0.705   4.903   1.498
 2759TIP3    H2 8284   0.802   4.788   1.520
 2760TIP3   OH2 8285   5.546   0.639   1.630
 2760TIP3    H1 8286   5.528   0.651   1.537
 2760TIP3    H2 8287   5.580   0.550   1.637
 2761TIP3   OH2 8288   4.577   3.151   3.395
 2761TIP3    H1 8289   4.610   3.141   3.484
 2761TIP3    H2 8290   4.579   3.063   3.358
 2762TIP3   OH2 8291   5.777   3.914   0.421
 2762TIP3    H1 8292   5.730   3.874   0.348
 2762TIP3    H2 8293   5.720   3.985   0.450
 2763TIP3   OH2 8294   1.966   1.804   0.013
 2763TIP3    H1 8295   1.930   1.890   0.034
 2763TIP3    H2 8296   2.029   1.786   0.082
 2764TIP3   OH2 8297   0.521   5.445   3.234
 2764TIP3    H1 8298   0.432   5.443   3.271
 2764TIP3    H2 8299   0.510   5.480   3.146
 2765TIP3   OH2 8300   3.277   5.466   1.749
 2765TIP3    H1 8301   3.244   5.554   1.766
 2765TIP3    H2 8302   3.206   5.408   1.776
 2766TIP3   OH2 8303   5.353   4.676   1.500
 2766TIP3    H1 8304   5.279   4.736   1.500
 2766TIP3    H2 8305   5.313   4.589   1.506
 2767TIP3   OH2 8306   6.221   4.594   1.531
 2767TIP3    H1 8307   6.216   4.640   1.615
 2767TIP3    H2 8308   6.193   4.659   1.466
 2768TIP3   OH2 8309   2.687   5.818   0.651
 2768TIP3    H1 8310   2.687   5.726   0.625
 2768TIP3    H2 8311   2.627   5.821   0.726
 2769TIP3   OH2 8312   6.195   2.959   0.544
 2769TIP3    H1 8313   6.234   3.036   0.503
 2769TIP3    H2 8314   6.147   2.916   0.474
 2770TIP3   OH2 8315   0.870   5.861   0.891
 2770TIP3    H1 8316   0.822   5.791   0.847
 2770TIP3    H2 8317   0.821   5.941   0.871
 2771TIP3   OH2 8318   1.032   5.481   2.760
 2771TIP3    H1 8319   1.054   5.400   2.714
 2771TIP3    H2 8320   0.978   5.530   2.697
 2772TIP3   OH2 8321   0.751   1.345   2.340
 2772TIP3    H1 8322   0.685   1.281   2.368
 2772TIP3    H2 8323   0.830   1.293   2.325
 2773TIP3   OH2 8324   0.875   3.903   0.678
 2773TIP3    H1 8325   0.968   3.911   0.656
 2773TIP3    H2 8326   0.867   3.815   0.715
 2774TIP3   OH2 8327   3.059   0.480   3.155
 2774TIP3    H1 8328   3.016   0.460   3.072
 2774TIP3    H2 8329   3.063   0.395   3.201
 2775TIP3   OH2 8330   0.384   2.625   2.125
 2775TIP3    H1 8331   0.321   2.696   2.127
 2775TIP3    H2 8332   0.409   2.612   2.216
 2776TIP3   OH2 8333   4.525   0.292   3.007
 2776TIP3    H1 8334   4.503   0.385   3.005
 2776TIP3    H2 8335   4.609   0.289   3.053
 2777TIP3   OH2 8336   3.170   4.973   3.566
 2777TIP3    H1 8337   3.074   4.976   3.568
 2777TIP3    H2 8338   3.195   5.049   3.513
 2778TIP3   OH2 8339   6.244   0.754   0.205
 2778TIP3    H1 8340   6.284   0.675   0.169
 2778TIP3    H2 8341   6.293   0.826   0.164
 2779TIP3   OH2 8342   0.919   5.767   3.334
 2779TIP3    H1 8343   0.968   5.686   3.348
 2779TIP3    H2 8344   0.954   5.802   3.252
 2780TIP3   OH2 8345   1.689   4.507   3.838
 2780TIP3    H1 8346   1.735   4.568   3.781
 2780TIP3    H2 8347   1.646   4.562   3.903
 2781TIP3   OH2 8348   4.089   4.384   1.040
 2781TIP3    H1 8349   4.087   4.442   0.964
 2781TIP3    H2 8350   4.177   4.346   1.039
 2782TIP3   OH2 8351   4.408   3.926   1.701
 2782TIP3    H1 8352   4.332   3.983   1.696
 2782TIP3    H2 8353   4.387   3.863   1.770
 2783TIP3   OH2 8354   3.676   3.500   4.517
 2783TIP3    H1 8355   3.671   3.563   4.444
 2783TIP3    H2 8356   3.751   3.530   4.568
 2784TIP3   OH2 8357   5.596   0.673   3.894
 2784TIP3    H1 8358   5.577   0.744   3.833
 2784TIP3    H2 8359   5.527   0.680   3.960
 2785TIP3   OH2 8360   0.399   1.374   4.398
 2785TIP3    H1 8361   0.368   1.329   4.320
 2785TIP3    H2 8362   0.391   1.310   4.468
 2786TIP3   OH2 8363   6.135   1.001   0.945
 2786TIP3    H1 8364   6.125   1.080   0.893
 2786TIP3    H2 8365   6.059   1.000   1.003
 2787TIP3   OH2 8366   3.038   1.356   1.631
 2787TIP3    H1 8367   3.035   1.363   1.726
 2787TIP3    H2 8368   2.958   1.400   1.601
 2788TIP3   OH2 8369   0.543   2.171   2.181
 2788TIP3    H1 8370   0.581   2.107   2.240
 2788TIP3    H2 8371   0.569   2.142   2.093
 2789TIP3   OH2 8372   4.718   3.423   3.197
 2789TIP3    H1 8373   4.659   3.422   3.121
 2789TIP3    H2 8374   4.714   3.333   3.231
 2790TIP3   OH2 8375   3.773   5.715   2.411
 2790TIP3    H1 8376   3.754   5.732   2.503
 2790TIP3    H2 8377   3.866   5.731   2.402
 2791TIP3   OH2 8378   4.924   4.943   1.792
 2791TIP3    H1 8379   4.851   4.995   1.760
 2791TIP3    H2 8380   4.887   4.890   1.862
 2792TIP3   OH2 8381   0.699   5.376   3.025
 2792TIP3    H1 8382   0.656   5.384   3.110
 2792TIP3    H2 8383   0.660   5.298   2.986
 2793TIP3   OH2 8384   0.144   0.861   0.125
 2793TIP3    H1 8385   0.224   0.912   0.111
 2793TIP3    H2 8386   0.169   0.771   0.107
 2794TIP3   OH2 8387   0.173   5.687   1.404
 2794TIP3    H1 8388   0.138   5.608   1.445
 2794TIP3    H2 8389   0.217   5.734   1.475
 2795TIP3   OH2 8390   4.319   2.342   0.309
 2795TIP3    H1 8391   4.243   2.390   0.342
 2795TIP3    H2 8392   4.358   2.304   0.387
 2796TIP3   OH2 8393   0.740   5.548   0.462
 2796TIP3    H1 8394   0.650   5.557   0.495
 2796TIP3    H2 8395   0.734   5.480   0.395
 2797TIP3   OH2 8396   3.582   0.159   0.061
 2797TIP3    H1 8397   3.563   0.138  -0.031
 2797TIP3    H2 8398   3.629   0.243   0.056
 2798TIP3   OH2 8399   5.925   1.006   3.180
 2798TIP3    H1 8400   6.001   0.984   3.235
 2798TIP3    H2 8401   5.872   0.927   3.181
 2799TIP3   OH2 8402   6.171   3.233   4.711
 2799TIP3    H1 8403   6.241   3.278   4.665
 2799TIP3    H2 8404   6.211   3.205   4.794
 2800TIP3   OH2 8405   4.007   5.156   2.047
 2800TIP3    H1 8406   3.992   5.237   1.999
 2800TIP3    H2 8407   4.045   5.185   2.131
 2801TIP3   OH2 8408   6.079   4.293   3.057
 2801TIP3    H1 8409   6.015   4.299   2.985
 2801TIP3    H2 8410   6.110   4.383   3.069
 2802TIP3   OH2 8411   2.931   2.116   3.728
 2802TIP3    H1 8412   2.988   2.054   3.684
 2802TIP3    H2 8413   2.951   2.106   3.821
 2803TIP3   OH2 8414   0.814   0.144   0.122
 2803TIP3    H1 8415   0.746   0.210   0.137
 2803TIP3    H2 8416   0.863   0.140   0.204
 2804TIP3   OH2 8417   0.575   0.810   0.117
 2804TIP3    H1 8418   0.555   0.895   0.077
 2804TIP3    H2 8419   0.490   0.767   0.124
 2805TIP3   OH2 8420   5.765   2.968   1.619
 2805TIP3    H1 8421   5.834   2.927   1.671
 2805TIP3    H2 8422   5.731   2.897   1.565
 2806TIP3   OH2 8423   4.298   3.837   0.189
 2806TIP3    H1 8424   4.322   3.773   0.123
 2806TIP3    H2 8425   4.363   3.825   0.258
 2807TIP3   OH2 8426   0.861   4.114   2.284
 2807TIP3    H1 8427   0.780   4.063   2.277
 2807TIP3    H2 8428   0.931   4.050   2.276
 2808TIP3   OH2 8429   1.416   3.025   2.025
 2808TIP3    H1 8430   1.429   3.118   2.009
 2808TIP3    H2 8431   1.353   2.997   1.958
 2809TIP3   OH2 8432   1.859   5.275   2.035
 2809TIP3    H1 8433   1.865   5.244   1.945
 2809TIP3    H2 8434   1.881   5.199   2.088
 2810TIP3   OH2 8435   5.057   2.713   2.520
 2810TIP3    H1 8436   5.126   2.674   2.574
 2810TIP3    H2 8437   5.079   2.686   2.431
 2811TIP3   OH2 8438   5.502   2.542   4.393
 2811TIP3    H1 8439   5.554   2.461   4.393
 2811TIP3    H2 8440   5.560   2.607   4.353
 2812TIP3   OH2 8441   4.486   3.933   0.705
 2812TIP3    H1 8442   4.412   3.886   0.665
 2812TIP3    H2 8443   4.555   3.930   0.639
 2813TIP3   OH2 8444   0.491   0.756   4.663
 2813TIP3    H1 8445   0.462   0.788   4.578
 2813TIP3    H2 8446   0.433   0.800   4.726
 2814TIP3   OH2 8447   3.364   0.878   1.682
 2814TIP3    H1 8448   3.336   0.843   1.598
 2814TIP3    H2 8449   3.365   0.802   1.741
 2815TIP3   OH2 8450   4.613   1.617   3.570
 2815TIP3    H1 8451   4.686   1.677   3.586
 2815TIP3    H2 8452   4.536   1.674   3.566
 2816TIP3   OH2 8453   4.155   2.006   2.622
 2816TIP3    H1 8454   4.079   1.956   2.591
 2816TIP3    H2 8455   4.127   2.042   2.706
 2817TIP3   OH2 8456   1.831   4.773   1.633
 2817TIP3    H1 8457   1.767   4.840   1.607
 2817TIP3    H2 8458   1.788   4.727   1.705
 2818TIP3   OH2 8459   3.400   2.933   1.363
 2818TIP3    H1 8460   3.337   2.937   1.435
 2818TIP3    H2 8461   3.391   3.017   1.318
 2819TIP3   OH2 8462   0.542   2.171   0.207
 2819TIP3    H1 8463   0.480   2.108   0.245
 2819TIP3    H2 8464   0.626   2.126   0.212
 2820TIP3   OH2 8465   2.052   2.526   3.838
 2820TIP3    H1 8466   2.084   2.463   3.773
 2820TIP3    H2 8467   1.958   2.532   3.822
 2821TIP3   OH2 8468   5.368   4.844   4.054
 2821TIP3    H1 8469   5.280   4.806   4.053
 2821TIP3    H2 8470   5.413   4.806   3.979
 2822TIP3   OH2 8471   2.475   5.332   0.860
 2822TIP3    H1 8472   2.488   5.267   0.791
 2822TIP3    H2 8473   2.388   5.313   0.895
 2823TIP3   OH2 8474   4.459   3.805   2.771
 2823TIP3    H1 8475   4.377   3.850   2.795
 2823TIP3    H2 8476   4.467   3.819   2.677
 2824TIP3   OH2 8477   4.476   4.217   4.529
 2824TIP3    H1 8478   4.450   4.301   4.567
 2824TIP3    H2 8479   4.461   4.154   4.600
 2825TIP3   OH2 8480   4.684   1.528   3.026
 2825TIP3    H1 8481   4.725   1.523   3.112
 2825TIP3    H2 8482   4.655   1.438   3.008
 2826TIP3   OH2 8483   5.257   4.119   0.486
 2826TIP3    H1 8484   5.246   4.214   0.493
 2826TIP3    H2 8485   5.345   4.108   0.450
 2827TIP3   OH2 8486   5.469   5.628   1.551
 2827TIP3    H1 8487   5.412   5.594   1.482
 2827TIP3    H2 8488   5.453   5.723   1.551
 2828TIP3   OH2 8489   0.117   3.567   4.004
 2828TIP3    H1 8490   0.059   3.609   4.067
 2828TIP3    H2 8491   0.101   3.473   4.015
 2829TIP3   OH2 8492   0.345   4.110   0.460
 2829TIP3    H1 8493   0.356   4.197   0.498
 2829TIP3    H2 8494   0.415   4.058   0.499
 2830TIP3   OH2 8495   3.696   1.773   4.915
 2830TIP3    H1 8496   3.659   1.750   5.000
 2830TIP3    H2 8497   3.791   1.766   4.929
 2831TIP3   OH2 8498   1.163   1.001   0.169
 2831TIP3    H1 8499   1.119   1.068   0.222
 2831TIP3    H2 8500   1.123   0.919   0.196
 2832TIP3   OH2 8501   5.067   1.238   2.692
 2832TIP3    H1 8502   5.019   1.234   2.775
 2832TIP3    H2 8503   5.085   1.331   2.679
 2833TIP3   OH2 8504   1.681   2.770   4.531
 2833TIP3    H1 8505   1.700   2.681   4.500
 2833TIP3    H2 8506   1.729   2.777   4.614
 2834TIP3   OH2 8507   3.539   5.521   4.541
 2834TIP3    H1 8508   3.456   5.539   4.586
 2834TIP3    H2 8509   3.606   5.534   4.608
 2835TIP3   OH2 8510   3.274   5.694   2.001
 2835TIP3    H1 8511   3.344   5.751   1.971
 2835TIP3    H2 8512   3.300   5.667   2.089
 2836TIP3   OH2 8513   6.382   0.526   0.931
 2836TIP3    H1 8514   6.299   0.491   0.965
 2836TIP3    H2 8515   6.362   0.549   0.840
 2837TIP3   OH2 8516   2.187   3.808   4.014
 2837TIP3    H1 8517   2.240   3.841   4.088
 2837TIP3    H2 8518   2.115   3.870   4.007
 2838TIP3   OH2 8519   3.872   2.430   1.261
 2838TIP3    H1 8520   3.823   2.479   1.195
 2838TIP3    H2 8521   3.814   2.428   1.337
 2839TIP3   OH2 8522   5.886   5.236   4.444
 2839TIP3    H1 8523   5.979   5.214   4.456
 2839TIP3    H2 8524   5.848   5.156   4.406
 2840TIP3   OH2 8525   3.712   4.531   0.051
 2840TIP3    H1 8526   3.703   4.537  -0.044
 2840TIP3    H2 8527   3.758   4.449   0.066
 2841TIP3   OH2 8528   5.248   3.619   4.483
 2841TIP3    H1 8529   5.281   3.672   4.555
 2841TIP3    H2 8530   5.159   3.652   4.468
 2842TIP3   OH2 8531   6.180   4.902   0.626
 2842TIP3    H1 8532   6.238   4.828   0.642
 2842TIP3    H2 8533   6.232   4.963   0.573
 2843TIP3   OH2 8534   0.535   3.262   5.025
 2843TIP3    H1 8535   0.604   3.304   4.974
 2843TIP3    H2 8536   0.469   3.329   5.036
 2844TIP3   OH2 8537   0.900   2.721   3.487
 2844TIP3    H1 8538   0.839   2.700   3.417
 2844TIP3    H2 8539   0.986   2.717   3.445
 2845TIP3   OH2 8540   0.410   1.088   5.098
 2845TIP3    H1 8541   0.369   1.096   5.012
 2845TIP3    H2 8542   0.348   1.036   5.149
 2846TIP3   OH2 8543   5.684   3.418   2.469
 2846TIP3    H1 8544   5.633   3.496   2.489
 2846TIP3    H2 8545   5.626   3.365   2.414
 2847TIP3   OH2 8546   4.770   3.098   3.664
 2847TIP3    H1 8547   4.691   3.151   3.675
 2847TIP3    H2 8548   4.812   3.100   3.750
 2848TIP3   OH2 8549   1.668   1.709   0.332
 2848TIP3    H1 8550   1.622   1.786   0.366
 2848TIP3    H2 8551   1.604   1.664   0.278
 2849TIP3   OH2 8552   4.776   0.095   3.537
 2849TIP3    H1 8553   4.766   0.124   3.446
 2849TIP3    H2 8554   4.711   0.025   3.547
 2850TIP3   OH2 8555   5.398   5.482   1.115
 2850TIP3    H1 8556   5.390   5.570   1.079
 2850TIP3    H2 8557   5.368   5.489   1.205
 2851TIP3   OH2 8558   3.557   4.283   3.195
 2851TIP3    H1 8559   3.606   4.338   3.257
 2851TIP3    H2 8560   3.621   4.220   3.163
 2852TIP3   OH2 8561   6.337   1.841   0.833
 2852TIP3    H1 8562   6.244   1.824   0.816
 2852TIP3    H2 8563   6.372   1.755   0.857
 2853TIP3   OH2 8564   1.318   1.994   1.631
 2853TIP3    H1 8565   1.345   2.007   1.722
 2853TIP3    H2 8566   1.399   1.977   1.584
 2854TIP3   OH2 8567   2.735   3.058   0.843
 2854TIP3    H1 8568   2.805   3.008   0.800
 2854TIP3    H2 8569   2.751   3.149   0.817
 2855TIP3   OH2 8570   3.325   2.837   1.863
 2855TIP3    H1 8571   3.330   2.744   1.886
 2855TIP3    H2 8572   3.283   2.879   1.938
 2856TIP3   OH2 8573   4.195   3.553   2.001
 2856TIP3    H1 8574   4.186   3.471   1.952
 2856TIP3    H2 8575   4.166   3.532   2.090
 2857TIP3   OH2 8576   3.421   3.304   0.181
 2857TIP3    H1 8577   3.407   3.277   0.091
 2857TIP3    H2 8578   3.472   3.232   0.219
 2858TIP3   OH2 8579   0.143   1.271   2.002
 2858TIP3    H1 8580   0.072   1.238   1.948
 2858TIP3    H2 8581   0.139   1.220   2.082
 2859TIP3   OH2 8582   4.727   1.382   2.324
 2859TIP3    H1 8583   4.755   1.384   2.416
 2859TIP3    H2 8584   4.784   1.317   2.283
 2860TIP3   OH2 8585   5.927   1.067   4.331
 2860TIP3    H1 8586   5.927   0.984   4.283
 2860TIP3    H2 8587   5.880   1.128   4.274
 2861TIP3   OH2 8588   1.685   0.903   3.716
 2861TIP3    H1 8589   1.715   0.835   3.776
 2861TIP3    H2 8590   1.729   0.983   3.746
 2862TIP3   OH2 8591   3.353   2.767   0.718
 2862TIP3    H1 8592   3.326   2.801   0.633
 2862TIP3    H2 8593   3.422   2.827   0.748
 2863TIP3   OH2 8594   2.535   0.116   1.459
 2863TIP3    H1 8595   2.536   0.083   1.369
 2863TIP3    H2 8596   2.484   0.197   1.454
 2864TIP3   OH2 8597   1.576   3.224   2.677
 2864TIP3    H1 8598   1.649   3.270   2.717
 2864TIP3    H2 8599   1.585   3.133   2.706
 2865TIP3   OH2 8600   0.271   4.170   4.322
 2865TIP3    H1 8601   0.247   4.249   4.370
 2865TIP3    H2 8602   0.194   4.150   4.269
 2866TIP3   OH2 8603   5.993   2.644   1.662
 2866TIP3    H1 8604   5.939   2.568   1.637
 2866TIP3    H2 8605   6.082   2.619   1.637
 2867TIP3   OH2 8606   2.804   2.475   5.202
 2867TIP3    H1 8607   2.715   2.499   5.230
 2867TIP3    H2 8608   2.802   2.479   5.107
 2868TIP3   OH2 8609   3.837   0.087   4.011
 2868TIP3    H1 8610   3.828   0.077   4.106
 2868TIP3    H2 8611   3.748   0.079   3.977
 2869TIP3   OH2 8612   3.577   0.284   0.426
 2869TIP3    H1 8613   3.615   0.254   0.509
 2869TIP3    H2 8614   3.534   0.207   0.390
 2870TIP3   OH2 8615   2.019   3.652   0.167
 2870TIP3    H1 8616   1.981   3.624   0.084
 2870TIP3    H2 8617   1.944   3.665   0.225
 2871TIP3   OH2 8618   2.721   5.389   4.107
 2871TIP3    H1 8619   2.696   5.313   4.054
 2871TIP3    H2 8620   2.759   5.351   4.186
 2872TIP3   OH2 8621   4.169   2.543   1.821
 2872TIP3    H1 8622   4.205   2.581   1.901
 2872TIP3    H2 8623   4.105   2.608   1.791
 2873TIP3   OH2 8624   5.287   0.285   0.187
 2873TIP3    H1 8625   5.311   0.221   0.120
 2873TIP3    H2 8626   5.197   0.263   0.211
 2874TIP3   OH2 8627   1.518   4.108   3.684
 2874TIP3    H1 8628   1.577   4.038   3.712
 2874TIP3    H2 8629   1.576   4.180   3.659
 2875TIP3   OH2 8630   6.027   2.006   3.458
 2875TIP3    H1 8631   5.945   2.053   3.478
 2875TIP3    H2 8632   6.080   2.071   3.411
 2876TIP3   OH2 8633   3.545   5.946   4.538
 2876TIP3    H1 8634   3.494   6.004   4.481
 2876TIP3    H2 8635   3.526   5.858   4.505
 2877TIP3   OH2 8636   4.274   5.432   4.662
 2877TIP3    H1 8637   4.292   5.497   4.729
 2877TIP3    H2 8638   4.197   5.465   4.615
 2878TIP3   OH2 8639   3.152   2.610   4.645
 2878TIP3    H1 8640   3.113   2.594   4.731
 2878TIP3    H2 8641   3.199   2.693   4.655
 2879TIP3   OH2 8642   2.656   0.928   2.211
 2879TIP3    H1 8643   2.606   0.973   2.142
 2879TIP3    H2 8644   2.590   0.898   2.273
 2880TIP3   OH2 8645   2.988   1.985   2.435
 2880TIP3    H1 8646   3.046   1.910   2.445
 2880TIP3    H2 8647   3.046   2.061   2.444
 2881TIP3   OH2 8648   2.987   1.633   4.818
 2881TIP3    H1 8649   2.918   1.578   4.780
 2881TIP3    H2 8650   2.952   1.722   4.814
 2882TIP3   OH2 8651   4.281   0.765   3.709
 2882TIP3    H1 8652   4.315   0.696   3.765
 2882TIP3    H2 8653   4.315   0.846   3.748
 2883TIP3   OH2 8654   1.617   3.129   3.090
 2883TIP3    H1 8655   1.602   3.120   3.184
 2883TIP3    H2 8656   1.639   3.221   3.078
 2884TIP3   OH2 8657   4.419   4.632   5.087
 2884TIP3    H1 8658   4.479   4.568   5.048
 2884TIP3    H2 8659   4.370   4.582   5.153
 2885TIP3   OH2 8660   2.906   1.822   4.327
 2885TIP3    H1 8661   2.876   1.903   4.286
 2885TIP3    H2 8662   2.989   1.844   4.368
 2886TIP3   OH2 8663   2.520   3.351   1.753
 2886TIP3    H1 8664   2.573   3.417   1.708
 2886TIP3    H2 8665   2.432   3.362   1.717
 2887TIP3   OH2 8666   1.143   5.713   1.699
 2887TIP3    H1 8667   1.060   5.752   1.673
 2887TIP3    H2 8668   1.200   5.788   1.719
 2888TIP3   OH2 8669   2.424   5.561   4.416
 2888TIP3    H1 8670   2.479   5.608   4.479
 2888TIP3    H2 8671   2.482   5.547   4.341
 2889TIP3   OH2 8672   3.702   0.435   3.902
 2889TIP3    H1 8673   3.674   0.525   3.885
 2889TIP3    H2 8674   3.796   0.442   3.917
 2890TIP3   OH2 8675   5.244   5.602   5.096
 2890TIP3    H1 8676   5.292   5.625   5.017
 2890TIP3    H2 8677   5.152   5.611   5.071
 2891TIP3   OH2 8678   0.590   5.621   3.837
 2891TIP3    H1 8679   0.568   5.714   3.833
 2891TIP3    H2 8680   0.565   5.586   3.751
 2892TIP3   OH2 8681   4.370   0.406   4.987
 2892TIP3    H1 8682   4.378   0.463   4.911
 2892TIP3    H2 8683   4.360   0.466   5.061
 2893TIP3   OH2 8684   1.472   1.555   1.602
 2893TIP3    H1 8685   1.514   1.641   1.611
 2893TIP3    H2 8686   1.501   1.523   1.517
 2894TIP3   OH2 8687   0.516   0.523   2.332
 2894TIP3    H1 8688   0.579   0.569   2.276
 2894TIP3    H2 8689   0.567   0.496   2.408
 2895TIP3   OH2 8690   5.156   2.124   3.727
 2895TIP3    H1 8691   5.171   2.137   3.821
 2895TIP3    H2 8692   5.118   2.207   3.698
 2896TIP3   OH2 8693   5.605   0.768   0.002
 2896TIP3    H1 8694   5.671   0.768   0.071
 2896TIP3    H2 8695   5.639   0.828  -0.064
 2897TIP3   OH2 8696   5.661   4.087   0.638
 2897TIP3    H1 8697   5.578   4.041   0.626
 2897TIP3    H2 8698   5.673   4.091   0.733
 2898TIP3   OH2 8699   6.135   0.491   0.983
 2898TIP3    H1 8700   6.042   0.514   0.989
 2898TIP3    H2 8701   6.136   0.396   0.990
 2899TIP3   OH2 8702   2.920   4.808   1.671
 2899TIP3    H1 8703   2.868   4.732   1.696
 2899TIP3    H2 8704   2.907   4.871   1.742
 2900TIP3   OH2 8705   5.535   2.988   0.705
 2900TIP3    H1 8706   5.508   3.013   0.793
 2900TIP3    H2 8707   5.591   3.060   0.676
 2901TIP3   OH2 8708   1.302   3.415   3.166
 2901TIP3    H1 8709   1.325   3.438   3.076
 2901TIP3    H2 8710   1.206   3.417   3.167
 2902TIP3   OH2 8711   0.735   1.576   3.676
 2902TIP3    H1 8712   0.828   1.554   3.678
 2902TIP3    H2 8713   0.696   1.523   3.746
 2903TIP3   OH2 8714   3.770   3.446   2.205
 2903TIP3    H1 8715   3.797   3.468   2.116
 2903TIP3    H2 8716   3.709   3.515   2.230
 2904TIP3   OH2 8717   3.748   0.230   4.453
 2904TIP3    H1 8718   3.708   0.261   4.372
 2904TIP3    H2 8719   3.718   0.292   4.520
 2905TIP3   OH2 8720   0.442   4.721   2.507
 2905TIP3    H1 8721   0.459   4.650   2.445
 2905TIP3    H2 8722   0.451   4.801   2.455
 2906TIP3   OH2 8723   2.347   3.126   5.108
 2906TIP3    H1 8724   2.376   3.210   5.143
 2906TIP3    H2 8725   2.323   3.074   5.185
 2907TIP3   OH2 8726   6.230   5.713   3.932
 2907TIP3    H1 8727   6.284   5.756   3.865
 2907TIP3    H2 8728   6.211   5.627   3.895
 2908TIP3   OH2 8729   0.584   1.298   5.019
 2908TIP3    H1 8730   0.632   1.237   4.963
 2908TIP3    H2 8731   0.523   1.243   5.069
 2909TIP3   OH2 8732   0.396   1.120   1.055
 2909TIP3    H1 8733   0.450   1.107   1.133
 2909TIP3    H2 8734   0.393   1.215   1.043
 2910TIP3   OH2 8735   2.345   3.420   1.336
 2910TIP3    H1 8736   2.414   3.436   1.400
 2910TIP3    H2 8737   2.264   3.443   1.381
 2911TIP3   OH2 8738   3.720   2.056   1.045
 2911TIP3    H1 8739   3.749   2.007   1.121
 2911TIP3    H2 8740   3.632   2.087   1.068
 2912TIP3   OH2 8741   5.813   2.757   1.116
 2912TIP3    H1 8742   5.749   2.694   1.148
 2912TIP3    H2 8743   5.897   2.713   1.127
 2913TIP3   OH2 8744   3.134   5.017   4.802
 2913TIP3    H1 8745   3.115   5.110   4.819
 2913TIP3    H2 8746   3.055   4.971   4.832
 2914TIP3   OH2 8747   4.812   4.461   3.053
 2914TIP3    H1 8748   4.773   4.399   2.991
 2914TIP3    H2 8749   4.743   4.476   3.118
 2915TIP3   OH2 8750   2.581   2.665   1.729
 2915TIP3    H1 8751   2.551   2.754   1.711
 2915TIP3    H2 8752   2.632   2.641   1.653
 2916TIP3   OH2 8753   0.968   2.222   4.511
 2916TIP3    H1 8754   0.920   2.263   4.438
 2916TIP3    H2 8755   0.900   2.190   4.570
 2917TIP3   OH2 8756   2.651   3.427   0.692
 2917TIP3    H1 8757   2.573   3.470   0.729
 2917TIP3    H2 8758   2.636   3.428   0.598
 2918TIP3   OH2 8759   3.375   0.818   4.697
 2918TIP3    H1 8760   3.394   0.911   4.695
 2918TIP3    H2 8761   3.376   0.791   4.606
 2919TIP3   OH2 8762   4.538   3.530   5.006
 2919TIP3    H1 8763   4.504   3.498   4.923
 2919TIP3    H2 8764   4.499   3.473   5.072
 2920TIP3   OH2 8765   0.913   3.542   2.401
 2920TIP3    H1 8766   1.009   3.538   2.403
 2920TIP3    H2 8767   0.886   3.506   2.485
 2921TIP3   OH2 8768   0.264   5.350   2.258
 2921TIP3    H1 8769   0.287   5.442   2.242
 2921TIP3    H2 8770   0.226   5.350   2.346
 2922TIP3   OH2 8771   0.626   3.632   2.610
 2922TIP3    H1 8772   0.570   3.617   2.534
 2922TIP3    H2 8773   0.659   3.721   2.597
 2923TIP3   OH2 8774   6.301   4.651   0.121
 2923TIP3    H1 8775   6.375   4.592   0.141
 2923TIP3    H2 8776   6.224   4.594   0.122
 2924TIP3   OH2 8777   0.225   1.135   1.531
 2924TIP3    H1 8778   0.241   1.223   1.499
 2924TIP3    H2 8779   0.134   1.117   1.507
 2925TIP3   OH2 8780   0.504   3.372   1.597
 2925TIP3    H1 8781   0.590   3.342   1.567
 2925TIP3    H2 8782   0.450   3.373   1.517
 2926TIP3   OH2 8783   5.735   5.883   4.396
 2926TIP3    H1 8784   5.737   5.975   4.368
 2926TIP3    H2 8785   5.708   5.835   4.318
 2927TIP3   OH2 8786   3.550   1.262   4.159
 2927TIP3    H1 8787   3.578   1.269   4.250
 2927TIP3    H2 8788   3.632   1.257   4.109
 2928TIP3   OH2 8789   4.649   3.120   4.862
 2928TIP3    H1 8790   4.700   3.086   4.935
 2928TIP3    H2 8791   4.657   3.054   4.793
 2929TIP3   OH2 8792   1.523   1.893   4.482
 2929TIP3    H1 8793   1.521   1.853   4.395
 2929TIP3    H2 8794   1.543   1.985   4.466
 2930TIP3   OH2 8795   6.075   5.719   2.823
 2930TIP3    H1 8796   6.169   5.704   2.837
 2930TIP3    H2 8797   6.063   5.707   2.729
 2931TIP3   OH2 8798   5.343   1.347   2.723
 2931TIP3    H1 8799   5.284   1.285   2.766
 2931TIP3    H2 8800   5.365   1.305   2.640
 2932TIP3   OH2 8801   1.674   5.755   0.322
 2932TIP3    H1 8802   1.614   5.816   0.364
 2932TIP3    H2 8803   1.710   5.803   0.247
 2933TIP3   OH2 8804   0.859   1.926   2.644
 2933TIP3    H1 8805   0.881   2.013   2.676
 2933TIP3    H2 8806   0.840   1.875   2.723
 2934TIP3   OH2 8807   2.121   4.558   1.587
 2934TIP3    H1 8808   2.170   4.638   1.568
 2934TIP3    H2 8809   2.084   4.573   1.674
 2935TIP3   OH2 8810   3.451   0.992   1.956
 2935TIP3    H1 8811   3.370   0.964   1.999
 2935TIP3    H2 8812   3.440   1.086   1.942
 2936TIP3   OH2 8813   1.994   0.494   4.260
 2936TIP3    H1 8814   2.015   0.582   4.230
 2936TIP3    H2 8815   1.932   0.461   4.195
 2937TIP3   OH2 8816   5.948   1.683   4.258
 2937TIP3    H1 8817   5.976   1.741   4.329
 2937TIP3    H2 8818   5.921   1.743   4.188
 2938TIP3   OH2 8819   5.301   0.675   3.588
 2938TIP3    H1 8820   5.289   0.607   3.655
 2938TIP3    H2 8821   5.306   0.757   3.637
 2939TIP3   OH2 8822   2.228   3.141   0.671
 2939TIP3    H1 8823   2.193   3.052   0.671
 2939TIP3    H2 8824   2.272   3.149   0.586
 2940TIP3   OH2 8825   3.122   4.781   2.193
 2940TIP3    H1 8826   3.061   4.714   2.161
 2940TIP3    H2 8827   3.170   4.737   2.264
 2941TIP3   OH2 8828   6.036   3.409   0.450
 2941TIP3    H1 8829   6.107   3.416   0.514
 2941TIP3    H2 8830   5.974   3.478   0.475
 2942TIP3   OH2 8831   3.746   4.805   0.133
 2942TIP3    H1 8832   3.749   4.709   0.131
 2942TIP3    H2 8833   3.653   4.826   0.142
 2943TIP3   OH2 8834   2.468   1.646   2.302
 2943TIP3    H1 8835   2.518   1.567   2.279
 2943TIP3    H2 8836   2.530   1.699   2.352
 2944TIP3   OH2 8837   5.034   0.454   3.831
 2944TIP3    H1 8838   4.963   0.443   3.768
 2944TIP3    H2 8839   5.004   0.523   3.890
 2945TIP3   OH2 8840   5.213   2.703   2.262
 2945TIP3    H1 8841   5.280   2.636   2.249
 2945TIP3    H2 8842   5.262   2.780   2.293
 2946TIP3   OH2 8843   0.235   5.591   3.136
 2946TIP3    H1 8844   0.329   5.597   3.120
 2946TIP3    H2 8845   0.198   5.566   3.051
 2947TIP3   OH2 8846   6.144   2.731   0.350
 2947TIP3    H1 8847   6.093   2.651   0.335
 2947TIP3    H2 8848   6.200   2.738   0.273
 2948TIP3   OH2 8849   5.257   4.431   4.622
 2948TIP3    H1 8850   5.183   4.455   4.678
 2948TIP3    H2 8851   5.334   4.443   4.677
 2949TIP3   OH2 8852   2.904   5.944   0.788
 2949TIP3    H1 8853   2.860   5.865   0.755
 2949TIP3    H2 8854   2.832   6.002   0.813
 2950TIP3   OH2 8855   2.743   3.253   4.944
 2950TIP3    H1 8856   2.699   3.169   4.954
 2950TIP3    H2 8857   2.748   3.288   5.033
 2951TIP3   OH2 8858   1.376   1.048   2.674
 2951TIP3    H1 8859   1.364   0.955   2.692
 2951TIP3    H2 8860   1.404   1.051   2.583
 2952TIP3   OH2 8861   5.464   1.997   2.330
 2952TIP3    H1 8862   5.405   1.937   2.286
 2952TIP3    H2 8863   5.508   1.943   2.396
 2953TIP3   OH2 8864   3.141   5.712   3.992
 2953TIP3    H1 8865   3.081   5.785   4.007
 2953TIP3    H2 8866   3.085   5.635   3.986
 2954TIP3   OH2 8867   6.074   3.857   3.329
 2954TIP3    H1 8868   6.137   3.858   3.401
 2954TIP3    H2 8869   6.004   3.916   3.358
 2955TIP3   OH2 8870   4.439   0.065   4.058
 2955TIP3    H1 8871   4.427   0.105   3.972
 2955TIP3    H2 8872   4.363   0.093   4.108
 2956TIP3   OH2 8873   0.420   2.822   0.534
 2956TIP3    H1 8874   0.396   2.741   0.489
 2956TIP3    H2 8875   0.406   2.891   0.469
 2957TIP3   OH2 8876   0.214   0.193   1.955
 2957TIP3    H1 8877   0.216   0.269   2.013
 2957TIP3    H2 8878   0.189   0.120   2.011
 2958TIP3   OH2 8879   3.831   0.618   2.219
 2958TIP3    H1 8880   3.808   0.531   2.185
 2958TIP3    H2 8881   3.860   0.667   2.143
 2959TIP3   OH2 8882   3.598   5.627   0.169
 2959TIP3    H1 8883   3.541   5.691   0.125
 2959TIP3    H2 8884   3.680   5.674   0.182
 2960TIP3   OH2 8885   2.232   2.170   2.699
 2960TIP3    H1 8886   2.315   2.153   2.656
 2960TIP3    H2 8887   2.196   2.083   2.718
 2961TIP3   OH2 8888   0.395   0.771   3.432
 2961TIP3    H1 8889   0.320   0.732   3.387
 2961TIP3    H2 8890   0.461   0.702   3.432
 2962TIP3   OH2 8891   0.757   3.403   2.186
 2962TIP3    H1 8892   0.737   3.345   2.259
 2962TIP3    H2 8893   0.844   3.437   2.206
 2963TIP3   OH2 8894   0.591   0.377   3.309
 2963TIP3    H1 8895   0.686   0.387   3.311
 2963TIP3    H2 8896   0.573   0.319   3.236
 2964TIP3   OH2 8897   5.650   5.832   0.793
 2964TIP3    H1 8898   5.738   5.794   0.791
 2964TIP3    H2 8899   5.628   5.838   0.886
 2965TIP3   OH2 8900   2.010   2.514   0.026
 2965TIP3    H1 8901   2.076   2.577   0.055
 2965TIP3    H2 8902   1.928   2.563   0.028
 2966TIP3   OH2 8903   3.627   3.672   2.175
 2966TIP3    H1 8904   3.536   3.655   2.202
 2966TIP3    H2 8905   3.622   3.687   2.081
 2967TIP3   OH2 8906   4.924   1.896   1.844
 2967TIP3    H1 8907   4.910   1.976   1.794
 2967TIP3    H2 8908   4.836   1.869   1.871
 2968TIP3   OH2 8909   2.763   3.217   1.635
 2968TIP3    H1 8910   2.679   3.237   1.676
 2968TIP3    H2 8911   2.743   3.204   1.542
 2969TIP3   OH2 8912   5.465   0.334   3.425
 2969TIP3    H1 8913   5.438   0.277   3.353
 2969TIP3    H2 8914   5.421   0.417   3.408
 2970TIP3   OH2 8915   5.262   4.153   2.471
 2970TIP3    H1 8916   5.349   4.192   2.461
 2970TIP3    H2 8917   5.279   4.064   2.502
 2971TIP3   OH2 8918   1.184   3.964   0.651
 2971TIP3    H1 8919   1.196   4.052   0.616
 2971TIP3    H2 8920   1.167   3.978   0.744
 2972TIP3   OH2 8921   1.997   3.117   2.542
 2972TIP3    H1 8922   1.921   3.171   2.520
 2972TIP3    H2 8923   2.070   3.179   2.543
 2973TIP3   OH2 8924   0.272   1.662   2.682
 2973TIP3    H1 8925   0.327   1.603   2.734
 2973TIP3    H2 8926   0.290   1.637   2.591
 2974TIP3   OH2 8927   5.621   5.650   3.147
 2974TIP3    H1 8928   5.689   5.609   3.201
 2974TIP3    H2 8929   5.657   5.651   3.059
 2975TIP3   OH2 8930   0.852   5.245   4.288
 2975TIP3    H1 8931   0.899   5.191   4.224
 2975TIP3    H2 8932   0.877   5.209   4.373
 2976TIP3   OH2 8933   2.494   0.175   0.901
 2976TIP3    H1 8934   2.401   0.174   0.878
 2976TIP3    H2 8935   2.535   0.118   0.837
 2977TIP3   OH2 8936   1.790   0.503   4.731
 2977TIP3    H1 8937   1.826   0.562   4.665
 2977TIP3    H2 8938   1.866   0.455   4.765
 2978TIP3   OH2 8939   0.011   0.674   1.502
 2978TIP3    H1 8940   0.073   0.737   1.466
 2978TIP3    H2 8941   0.065   0.600   1.529
 2979TIP3   OH2 8942   1.621   0.428   0.018
 2979TIP3    H1 8943   1.633   0.510   0.065
 2979TIP3    H2 8944   1.548   0.385   0.062
 2980TIP3   OH2 8945   3.687   2.871   0.994
 2980TIP3    H1 8946   3.771   2.861   0.949
 2980TIP3    H2 8947   3.693   2.814   1.070
 2981TIP3   OH2 8948   2.231   3.927   4.258
 2981TIP3    H1 8949   2.215   3.889   4.345
 2981TIP3    H2 8950   2.166   3.996   4.250
 2982TIP3   OH2 8951   3.047   0.637   2.528
 2982TIP3    H1 8952   3.024   0.544   2.526
 2982TIP3    H2 8953   3.087   0.654   2.442
 2983TIP3   OH2 8954   2.205   5.741   3.090
 2983TIP3    H1 8955   2.194   5.683   3.165
 2983TIP3    H2 8956   2.119   5.782   3.078
 2984TIP3   OH2 8957   3.444   3.239   2.726
 2984TIP3    H1 8958   3.434   3.300   2.799
 2984TIP3    H2 8959   3.532   3.204   2.735
 2985TIP3   OH2 8960   5.293   2.215   2.557
 2985TIP3    H1 8961   5.300   2.283   2.624
 2985TIP3    H2 8962   5.355   2.148   2.585
 2986TIP3   OH2 8963   2.314   2.114   2.020
 2986TIP3    H1 8964   2.286   2.179   1.955
 2986TIP3    H2 8965   2.281   2.031   1.986
 2987TIP3   OH2 8966   1.291   2.579   2.401
 2987TIP3    H1 8967   1.260   2.667   2.380
 2987TIP3    H2 8968   1.307   2.538   2.316
 2988TIP3   OH2 8969   5.872   5.289   4.132
 2988TIP3    H1 8970   5.877   5.196   4.112
 2988TIP3    H2 8971   5.956   5.309   4.173
 2989TIP3   OH2 8972   5.650   4.438   1.460
 2989TIP3    H1 8973   5.731   4.468   1.421
 2989TIP3    H2 8974   5.672   4.354   1.500
 2990TIP3   OH2 8975   1.138   5.249   4.321
 2990TIP3    H1 8976   1.196   5.323   4.341
 2990TIP3    H2 8977   1.068   5.288   4.267
 2991TIP3   OH2 8978   6.098   1.904   4.785
 2991TIP3    H1 8979   6.082   1.873   4.696
 2991TIP3    H2 8980   6.191   1.884   4.800
 2992TIP3   OH2 8981   1.570   1.162   1.572
 2992TIP3    H1 8982   1.601   1.200   1.489
 2992TIP3    H2 8983   1.594   1.228   1.638
 2993TIP3   OH2 8984   3.466   1.167   1.687
 2993TIP3    H1 8985   3.488   1.181   1.595
 2993TIP3    H2 8986   3.446   1.073   1.693
 2994TIP3   OH2 8987   3.946   4.136   2.524
 2994TIP3    H1 8988   3.922   4.170   2.438
 2994TIP3    H2 8989   4.041   4.138   2.526
 2995TIP3   OH2 8990   0.115   0.443   3.113
 2995TIP3    H1 8991   0.073   0.523   3.082
 2995TIP3    H2 8992   0.203   0.446   3.074
 2996TIP3   OH2 8993   1.591   4.852   3.718
 2996TIP3    H1 8994   1.615   4.841   3.626
 2996TIP3    H2 8995   1.673   4.844   3.766
 2997TIP3   OH2 8996   1.863   1.032   4.214
 2997TIP3    H1 8997   1.896   0.943   4.221
 2997TIP3    H2 8998   1.942   1.086   4.202
 2998TIP3   OH2 8999   5.829   3.877   2.174
 2998TIP3    H1 9000   5.920   3.882   2.144
 2998TIP3    H2 9001   5.831   3.812   2.245
 2999TIP3   OH2 9002   2.602   0.518   0.377
 2999TIP3    H1 9003   2.508   0.515   0.358
 2999TIP3    H2 9004   2.619   0.438   0.427
 3000TIP3   OH2 9005   2.866   5.904   5.171
 3000TIP3    H1 9006   2.820   5.820   5.163
 3000TIP3    H2 9007   2.840   5.952   5.092
 3001TIP3   OH2 9008   1.300   5.477   1.311
 3001TIP3    H1 9009   1.301   5.394   1.264
 3001TIP3    H2 9010   1.231   5.467   1.377
 3002TIP3   OH2 9011   0.396   2.229   2.850
 3002TIP3    H1 9012   0.333   2.276   2.905
 3002TIP3    H2 9013   0.475   2.224   2.903
 3003TIP3   OH2 9014   0.492   2.188   0.941
 3003TIP3    H1 9015   0.526   2.112   0.989
 3003TIP3    H2 9016   0.532   2.263   0.986
 3004TIP3   OH2 9017   4.547   1.486   2.582
 3004TIP3    H1 9018   4.638   1.458   2.589
 3004TIP3    H2 9019   4.544   1.535   2.499
 3005TIP3   OH2 9020   3.550   2.762   4.745
 3005TIP3    H1 9021   3.520   2.851   4.731
 3005TIP3    H2 9022   3.640   2.761   4.710
 3006TIP3   OH2 9023   1.902   3.168   0.079
 3006TIP3    H1 9024   1.838   3.207   0.019
 3006TIP3    H2 9025   1.859   3.167   0.164
 3007TIP3   OH2 9026   4.467   3.768   5.118
 3007TIP3    H1 9027   4.492   3.775   5.210
 3007TIP3    H2 9028   4.518   3.693   5.086
 3008TIP3   OH2 9029   1.643   0.273   2.286
 3008TIP3    H1 9030   1.560   0.306   2.251
 3008TIP3    H2 9031   1.702   0.349   2.284
 3009TIP3   OH2 9032   5.388   5.457   0.561
 3009TIP3    H1 9033   5.408   5.460   0.655
 3009TIP3    H2 9034   5.328   5.383   0.552
 3010TIP3   OH2 9035   5.052   4.251   4.346
 3010TIP3    H1 9036   5.053   4.166   4.302
 3010TIP3    H2 9037   5.144   4.268   4.369
 3011TIP3   OH2 9038   5.704   1.743   0.214
 3011TIP3    H1 9039   5.640   1.684   0.175
 3011TIP3    H2 9040   5.672   1.830   0.195
 3012TIP3   OH2 9041   0.751   1.833   3.805
 3012TIP3    H1 9042   0.751   1.896   3.733
 3012TIP3    H2 9043   0.713   1.753   3.767
 3013TIP3   OH2 9044   5.289   1.332   0.599
 3013TIP3    H1 9045   5.375   1.342   0.560
 3013TIP3    H2 9046   5.240   1.277   0.538
 3014TIP3   OH2 9047   1.238   0.817   1.555
 3014TIP3    H1 9048   1.198   0.787   1.474
 3014TIP3    H2 9049   1.272   0.904   1.534
 3015TIP3   OH2 9050   2.918   0.817   1.926
 3015TIP3    H1 9051   2.846   0.866   1.965
 3015TIP3    H2 9052   2.878   0.771   1.852
 3016TIP3   OH2 9053   4.288   2.224   3.272
 3016TIP3    H1 9054   4.324   2.265   3.350
 3016TIP3    H2 9055   4.324   2.135   3.272
 3017TIP3   OH2 9056   4.463   2.700   4.531
 3017TIP3    H1 9057   4.390   2.703   4.469
 3017TIP3    H2 9058   4.439   2.631   4.593
 3018TIP3   OH2 9059   3.138   5.852   4.379
 3018TIP3    H1 9060   3.060   5.821   4.425
 3018TIP3    H2 9061   3.128   5.947   4.376
 3019TIP3   OH2 9062   0.158   4.453   4.338
 3019TIP3    H1 9063   0.069   4.467   4.368
 3019TIP3    H2 9064   0.158   4.482   4.247
 3020TIP3   OH2 9065   3.928   2.760   0.534
 3020TIP3    H1 9066   3.960   2.850   0.536
 3020TIP3    H2 9067   4.006   2.708   0.514
 3021TIP3   OH2 9068   3.587   2.344   3.337
 3021TIP3    H1 9069   3.560   2.309   3.422
 3021TIP3    H2 9070   3.669   2.391   3.354
 3022TIP3   OH2 9071   3.925   2.893   3.684
 3022TIP3    H1 9072   3.965   2.892   3.771
 3022TIP3    H2 9073   3.839   2.933   3.698
 3023TIP3   OH2 9074   2.075   3.223   3.032
 3023TIP3    H1 9075   2.074   3.298   3.092
 3023TIP3    H2 9076   2.082   3.147   3.088
 3024TIP3   OH2 9077   1.335   4.772   3.717
 3024TIP3    H1 9078   1.420   4.815   3.721
 3024TIP3    H2 9079   1.356   4.679   3.712
 3025TIP3   OH2 9080   3.334   5.500   3.210
 3025TIP3    H1 9081   3.312   5.531   3.298
 3025TIP3    H2 9082   3.384   5.572   3.171
 3026TIP3   OH2 9083   3.813   2.460   4.657
 3026TIP3    H1 9084   3.834   2.368   4.644
 3026TIP3    H2 9085   3.894   2.499   4.690
 3027TIP3   OH2 9086   3.786   1.700   4.566
 3027TIP3    H1 9087   3.781   1.604   4.567
 3027TIP3    H2 9088   3.700   1.728   4.597
 3028TIP3   OH2 9089   5.861   0.472   1.097
 3028TIP3    H1 9090   5.892   0.388   1.132
 3028TIP3    H2 9091   5.823   0.516   1.173
 3029TIP3   OH2 9092   6.214   2.163   3.325
 3029TIP3    H1 9093   6.197   2.257   3.331
 3029TIP3    H2 9094   6.263   2.142   3.405
 3030TIP3   OH2 9095   0.948   1.536   1.234
 3030TIP3    H1 9096   0.884   1.465   1.225
 3030TIP3    H2 9097   1.021   1.510   1.178
 3031TIP3   OH2 9098   4.532   5.794   4.069
 3031TIP3    H1 9099   4.440   5.820   4.058
 3031TIP3    H2 9100   4.545   5.789   4.164
 3032TIP3   OH2 9101   5.503   5.184   1.553
 3032TIP3    H1 9102   5.541   5.262   1.593
 3032TIP3    H2 9103   5.570   5.116   1.565
 3033TIP3   OH2 9104   2.692   2.052   3.478
 3033TIP3    H1 9105   2.694   1.994   3.554
 3033TIP3    H2 9106   2.599   2.061   3.457
 3034TIP3   OH2 9107   1.616   0.510   4.042
 3034TIP3    H1 9108   1.577   0.427   4.070
 3034TIP3    H2 9109   1.689   0.484   3.986
 3035TIP3   OH2 9110   0.554   3.769   4.137
 3035TIP3    H1 9111   0.467   3.787   4.102
 3035TIP3    H2 9112   0.600   3.853   4.132
 3036TIP3   OH2 9113   5.052   2.605   4.504
 3036TIP3    H1 9114   5.100   2.602   4.587
 3036TIP3    H2 9115   5.063   2.517   4.467
 3037TIP3   OH2 9116   2.445   4.728   5.005
 3037TIP3    H1 9117   2.480   4.808   4.965
 3037TIP3    H2 9118   2.422   4.754   5.094
 3038TIP3   OH2 9119   2.886   4.052   2.830
 3038TIP3    H1 9120   2.798   4.089   2.825
 3038TIP3    H2 9121   2.899   4.034   2.924
 3039TIP3   OH2 9122   5.631   0.349   3.922
 3039TIP3    H1 9123   5.573   0.321   3.851
 3039TIP3    H2 9124   5.681   0.421   3.884
 3040TIP3   OH2 9125   4.356   1.805   3.796
 3040TIP3    H1 9126   4.325   1.802   3.887
 3040TIP3    H2 9127   4.304   1.874   3.755
 3041TIP3   OH2 9128   3.208   5.769   3.113
 3041TIP3    H1 9129   3.247   5.799   3.195
 3041TIP3    H2 9130   3.192   5.850   3.064
 3042TIP3   OH2 9131   0.582   4.517   2.340
 3042TIP3    H1 9132   0.615   4.546   2.254
 3042TIP3    H2 9133   0.654   4.533   2.400
 3043TIP3   OH2 9134   0.590   0.134   4.664
 3043TIP3    H1 9135   0.498   0.108   4.668
 3043TIP3    H2 9136   0.633   0.063   4.618
 3044TIP3   OH2 9137   2.551   1.846   1.877
 3044TIP3    H1 9138   2.612   1.903   1.831
 3044TIP3    H2 9139   2.466   1.867   1.838
 3045TIP3   OH2 9140   3.756   3.411   2.669
 3045TIP3    H1 9141   3.749   3.325   2.627
 3045TIP3    H2 9142   3.807   3.464   2.607
 3046TIP3   OH2 9143   0.474   0.893   4.431
 3046TIP3    H1 9144   0.560   0.930   4.411
 3046TIP3    H2 9145   0.441   0.864   4.346
 3047TIP3   OH2 9146   2.961   1.190   3.651
 3047TIP3    H1 9147   3.024   1.196   3.579
 3047TIP3    H2 9148   2.907   1.268   3.643
 3048TIP3   OH2 9149   5.438   4.142   3.164
 3048TIP3    H1 9150   5.516   4.138   3.219
 3048TIP3    H2 9151   5.404   4.052   3.165
 3049TIP3   OH2 9152   0.309   1.661   3.249
 3049TIP3    H1 9153   0.337   1.597   3.183
 3049TIP3    H2 9154   0.237   1.709   3.206
 3050TIP3   OH2 9155   0.462   1.197   3.264
 3050TIP3    H1 9156   0.479   1.149   3.346
 3050TIP3    H2 9157   0.540   1.251   3.252
 3051TIP3   OH2 9158   4.026   0.191   4.407
 3051TIP3    H1 9159   3.931   0.198   4.412
 3051TIP3    H2 9160   4.058   0.250   4.476
 3052TIP3   OH2 9161   1.722   5.915   0.777
 3052TIP3    H1 9162   1.802   5.966   0.785
 3052TIP3    H2 9163   1.741   5.832   0.820
 3053TIP3   OH2 9164   0.825   5.881   2.782
 3053TIP3    H1 9165   0.888   5.949   2.806
 3053TIP3    H2 9166   0.745   5.930   2.761
 3054TIP3   OH2 9167   1.277   1.785   3.912
 3054TIP3    H1 9168   1.329   1.707   3.931
 3054TIP3    H2 9169   1.191   1.767   3.951
 3055TIP3   OH2 9170   5.246   4.328   1.076
 3055TIP3    H1 9171   5.268   4.330   1.169
 3055TIP3    H2 9172   5.203   4.412   1.060
 3056TIP3   OH2 9173   2.558   0.628   3.809
 3056TIP3    H1 9174   2.553   0.625   3.904
 3056TIP3    H2 9175   2.556   0.536   3.782
 3057TIP3   OH2 9176   0.991   4.873   4.092
 3057TIP3    H1 9177   1.080   4.849   4.066
 3057TIP3    H2 9178   0.984   4.845   4.184
 3058TIP3   OH2 9179   5.715   5.039   3.677
 3058TIP3    H1 9180   5.633   5.081   3.704
 3058TIP3    H2 9181   5.687   4.966   3.622
 3059TIP3   OH2 9182   4.713   0.717   0.480
 3059TIP3    H1 9183   4.727   0.663   0.558
 3059TIP3    H2 9184   4.653   0.666   0.426
 3060TIP3   OH2 9185   5.613   4.934   0.768
 3060TIP3    H1 9186   5.606   4.886   0.851
 3060TIP3    H2 9187   5.547   5.002   0.774
 3061TIP3   OH2 9188   3.053   2.493   2.390
 3061TIP3    H1 9189   3.005   2.413   2.369
 3061TIP3    H2 9190   3.145   2.471   2.377
 3062TIP3   OH2 9191   3.121   2.643   1.379
 3062TIP3    H1 9192   3.072   2.699   1.318
 3062TIP3    H2 9193   3.069   2.645   1.459
 3063TIP3   OH2 9194   5.895   4.614   1.770
 3063TIP3    H1 9195   5.983   4.632   1.803
 3063TIP3    H2 9196   5.839   4.613   1.848
 3064TIP3   OH2 9197   4.880   4.066   3.981
 3064TIP3    H1 9198   4.786   4.069   4.001
 3064TIP3    H2 9199   4.918   4.133   4.038
 3065TIP3   OH2 9200   0.191   4.016   2.986
 3065TIP3    H1 9201   0.185   4.110   3.002
 3065TIP3    H2 9202   0.166   4.007   2.894
 3066TIP3   OH2 9203   3.722   0.596   1.223
 3066TIP3    H1 9204   3.689   0.685   1.239
 3066TIP3    H2 9205   3.780   0.606   1.148
 3067TIP3   OH2 9206   4.548   3.488   0.033
 3067TIP3    H1 9207   4.534   3.410  -0.020
 3067TIP3    H2 9208   4.643   3.494   0.042
 3068TIP3   OH2 9209   3.410   1.517   4.840
 3068TIP3    H1 9210   3.318   1.511   4.815
 3068TIP3    H2 9211   3.452   1.558   4.764
 3069TIP3   OH2 9212   2.140   1.314   1.588
 3069TIP3    H1 9213   2.164   1.274   1.504
 3069TIP3    H2 9214   2.062   1.366   1.568
 3070TIP3   OH2 9215   2.117   3.423   4.464
 3070TIP3    H1 9216   2.200   3.416   4.418
 3070TIP3    H2 9217   2.134   3.386   4.551
 3071TIP3   OH2 9218   0.773   5.592   4.058
 3071TIP3    H1 9219   0.731   5.632   4.134
 3071TIP3    H2 9220   0.716   5.614   3.984
 3072TIP3   OH2 9221   1.371   4.986   2.310
 3072TIP3    H1 9222   1.457   4.945   2.300
 3072TIP3    H2 9223   1.332   4.940   2.385
 3073TIP3   OH2 9224   3.209   1.094   0.469
 3073TIP3    H1 9225   3.122   1.060   0.450
 3073TIP3    H2 9226   3.207   1.185   0.440
 3074TIP3   OH2 9227   5.394   5.399   2.255
 3074TIP3    H1 9228   5.371   5.405   2.163
 3074TIP3    H2 9229   5.412   5.489   2.282
 3075TIP3   OH2 9230   1.375   2.771   0.181
 3075TIP3    H1 9231   1.468   2.762   0.204
 3075TIP3    H2 9232   1.330   2.707   0.236
 3076TIP3   OH2 9233   0.710   5.684   3.482
 3076TIP3    H1 9234   0.728   5.591   3.471
 3076TIP3    H2 9235   0.773   5.728   3.425
 3077TIP3   OH2 9236   3.276   3.000   2.318
 3077TIP3    H1 9237   3.321   2.961   2.394
 3077TIP3    H2 9238   3.310   3.089   2.313
 3078TIP3   OH2 9239   1.812   5.269   0.177
 3078TIP3    H1 9240   1.753   5.207   0.134
 3078TIP3    H2 9241   1.893   5.220   0.190
 3079TIP3   OH2 9242   1.483   4.430   2.996
 3079TIP3    H1 9243   1.457   4.340   2.980
 3079TIP3    H2 9244   1.401   4.476   3.015
 3080TIP3   OH2 9245   3.230   0.830   4.223
 3080TIP3    H1 9246   3.277   0.877   4.155
 3080TIP3    H2 9247   3.158   0.787   4.177
 3081TIP3   OH2 9248   4.610   0.485   1.936
 3081TIP3    H1 9249   4.660   0.405   1.954
 3081TIP3    H2 9250   4.578   0.513   2.022
 3082TIP3   OH2 9251   1.269   0.511   5.101
 3082TIP3    H1 9252   1.314   0.499   5.017
 3082TIP3    H2 9253   1.312   0.586   5.141
 3083TIP3   OH2 9254   1.361   2.414   3.570
 3083TIP3    H1 9255   1.281   2.453   3.605
 3083TIP3    H2 9256   1.331   2.359   3.497
 3084TIP3   OH2 9257   2.475   4.555   4.195
 3084TIP3    H1 9258   2.485   4.477   4.141
 3084TIP3    H2 9259   2.394   4.540   4.245
 3085TIP3   OH2 9260   3.810   1.544   5.059
 3085TIP3    H1 9261   3.880   1.531   4.995
 3085TIP3    H2 9262   3.833   1.626   5.103
 3086TIP3   OH2 9263   0.859   4.870   0.731
 3086TIP3    H1 9264   0.810   4.946   0.700
 3086TIP3    H2 9265   0.808   4.838   0.806
 3087TIP3   OH2 9266   3.278   0.984   0.098
 3087TIP3    H1 9267   3.297   0.923   0.169
 3087TIP3    H2 9268   3.310   0.939   0.019
 3088TIP3   OH2 9269   0.611   1.412   3.182
 3088TIP3    H1 9270   0.638   1.447   3.268
 3088TIP3    H2 9271   0.567   1.486   3.140
 3089TIP3   OH2 9272   3.895   0.618   3.060
 3089TIP3    H1 9273   3.850   0.567   3.128
 3089TIP3    H2 9274   3.984   0.630   3.095
 3090TIP3   OH2 9275   6.122   1.609   3.228
 3090TIP3    H1 9276   6.162   1.687   3.188
 3090TIP3    H2 9277   6.058   1.644   3.290
 3091TIP3   OH2 9278   3.195   0.658   1.172
 3091TIP3    H1 9279   3.211   0.739   1.122
 3091TIP3    H2 9280   3.109   0.672   1.212
 3092TIP3   OH2 9281   2.274   1.544   3.438
 3092TIP3    H1 9282   2.359   1.585   3.455
 3092TIP3    H2 9283   2.211   1.615   3.451
 3093TIP3   OH2 9284   3.350   4.295   1.116
 3093TIP3    H1 9285   3.286   4.262   1.054
 3093TIP3    H2 9286   3.390   4.217   1.154
 3094TIP3   OH2 9287   2.519   4.136   4.675
 3094TIP3    H1 9288   2.544   4.048   4.649
 3094TIP3    H2 9289   2.454   4.123   4.744
 3095TIP3   OH2 9290   0.107   3.185   1.966
 3095TIP3    H1 9291   0.196   3.160   1.992
 3095TIP3    H2 9292   0.091   3.268   2.012
 3096TIP3   OH2 9293   1.021   4.491   1.109
 3096TIP3    H1 9294   1.024   4.437   1.030
 3096TIP3    H2 9295   1.017   4.429   1.181
 3097TIP3   OH2 9296   2.247   2.754   4.622
 3097TIP3    H1 9297   2.221   2.793   4.539
 3097TIP3    H2 9298   2.284   2.669   4.598
 3098TIP3   OH2 9299   5.434   5.449   3.294
 3098TIP3    H1 9300   5.520   5.485   3.273
 3098TIP3    H2 9301   5.422   5.469   3.387
 3099TIP3   OH2 9302   1.952   2.177   3.159
 3099TIP3    H1 9303   1.988   2.261   3.133
 3099TIP3    H2 9304   1.974   2.118   3.086
 3100TIP3   OH2 9305   5.453   2.986   1.594
 3100TIP3    H1 9306   5.395   3.061   1.577
 3100TIP3    H2 9307   5.537   3.026   1.616
 3101TIP3   OH2 9308   1.371   0.507   3.354
 3101TIP3    H1 9309   1.456   0.516   3.311
 3101TIP3    H2 9310   1.340   0.597   3.366
 3102TIP3   OH2 9311   2.510   5.293   2.676
 3102TIP3    H1 9312   2.571   5.351   2.630
 3102TIP3    H2 9313   2.551   5.278   2.762
 3103TIP3   OH2 9314   2.202   3.182   2.359
 3103TIP3    H1 9315   2.232   3.246   2.424
 3103TIP3    H2 9316   2.115   3.212   2.334
 3104TIP3   OH2 9317   6.097   4.090   2.646
 3104TIP3    H1 9318   6.147   4.107   2.726
 3104TIP3    H2 9319   6.039   4.165   2.637
 3105TIP3   OH2 9320   3.287   0.655   5.044
 3105TIP3    H1 9321   3.198   0.687   5.058
 3105TIP3    H2 9322   3.341   0.734   5.042
 3106TIP3   OH2 9323   1.455   0.627   0.209
 3106TIP3    H1 9324   1.471   0.700   0.150
 3106TIP3    H2 9325   1.532   0.626   0.266
 3107TIP3   OH2 9326   5.274   4.704   5.150
 3107TIP3    H1 9327   5.247   4.627   5.199
 3107TIP3    H2 9328   5.222   4.702   5.070
 3108TIP3   OH2 9329   1.247   4.640   2.826
 3108TIP3    H1 9330   1.198   4.707   2.873
 3108TIP3    H2 9331   1.335   4.675   2.817
 3109TIP3   OH2 9332   3.814   0.726   3.615
 3109TIP3    H1 9333   3.800   0.806   3.564
 3109TIP3    H2 9334   3.834   0.659   3.550
 3110TIP3   OH2 9335   5.290   5.078   1.107
 3110TIP3    H1 9336   5.320   5.063   1.196
 3110TIP3    H2 9337   5.361   5.126   1.065
 3111TIP3   OH2 9338   4.253   3.814   2.437
 3111TIP3    H1 9339   4.202   3.770   2.504
 3111TIP3    H2 9340   4.224   3.905   2.441
 3112TIP3   OH2 9341   5.865   0.343   5.149
 3112TIP3    H1 9342   5.933   0.342   5.081
 3112TIP3    H2 9343   5.784   0.321   5.103
 3113TIP3   OH2 9344   0.592   0.783   1.521
 3113TIP3    H1 9345   0.685   0.769   1.535
 3113TIP3    H2 9346   0.570   0.856   1.579
 3114TIP3   OH2 9347   5.870   0.065   4.714
 3114TIP3    H1 9348   5.930   0.119   4.663
 3114TIP3    H2 9349   5.813   0.023   4.648
 3115TIP3   OH2 9350   1.844   2.103   5.022
 3115TIP3    H1 9351   1.850   2.156   5.102
 3115TIP3    H2 9352   1.829   2.014   5.054
 3116TIP3   OH2 9353   1.001   5.666   4.263
 3116TIP3    H1 9354   0.972   5.647   4.174
 3116TIP3    H2 9355   1.050   5.748   4.255
 3117TIP3   OH2 9356   3.535   0.174   4.891
 3117TIP3    H1 9357   3.529   0.268   4.904
 3117TIP3    H2 9358   3.496   0.159   4.805
 3118TIP3   OH2 9359   3.583   3.101   1.759
 3118TIP3    H1 9360   3.619   3.019   1.726
 3118TIP3    H2 9361   3.556   3.080   1.849
 3119TIP3   OH2 9362   1.068   3.089   1.155
 3119TIP3    H1 9363   1.065   3.055   1.244
 3119TIP3    H2 9364   1.038   3.179   1.162
 3120TIP3   OH2 9365   3.733   2.082   3.254
 3120TIP3    H1 9366   3.689   2.166   3.269
 3120TIP3    H2 9367   3.822   2.106   3.229
 3121TIP3   OH2 9368   4.751   5.838   2.776
 3121TIP3    H1 9369   4.788   5.865   2.692
 3121TIP3    H2 9370   4.801   5.761   2.802
 3122TIP3   OH2 9371   0.704   3.610   3.967
 3122TIP3    H1 9372   0.616   3.636   3.994
 3122TIP3    H2 9373   0.748   3.583   4.048
 3123TIP3   OH2 9374   2.738   1.852   1.620
 3123TIP3    H1 9375   2.796   1.835   1.695
 3123TIP3    H2 9376   2.730   1.947   1.617
 3124TIP3   OH2 9377   2.985   5.646   2.022
 3124TIP3    H1 9378   3.079   5.661   2.010
 3124TIP3    H2 9379   2.948   5.654   1.934
 3125TIP3   OH2 9380   6.287   4.056   1.390
 3125TIP3    H1 9381   6.374   4.095   1.393
 3125TIP3    H2 9382   6.290   3.985   1.454
 3126TIP3   OH2 9383   1.361   3.728   4.300
 3126TIP3    H1 9384   1.453   3.710   4.318
 3126TIP3    H2 9385   1.354   3.722   4.205
 3127TIP3   OH2 9386   4.636   2.765   1.744
 3127TIP3    H1 9387   4.626   2.832   1.811
 3127TIP3    H2 9388   4.563   2.781   1.684
 3128TIP3   OH2 9389   0.724   2.492   1.205
 3128TIP3    H1 9390   0.744   2.490   1.298
 3128TIP3    H2 9391   0.636   2.455   1.198
 3129TIP3   OH2 9392   2.538   1.079   1.335
 3129TIP3    H1 9393   2.610   1.141   1.330
 3129TIP3    H2 9394   2.480   1.103   1.262
 3130TIP3   OH2 9395   5.142   1.490   4.127
 3130TIP3    H1 9396   5.127   1.511   4.219
 3130TIP3    H2 9397   5.227   1.531   4.107
 3131TIP3   OH2 9398   6.197   4.917   4.906
 3131TIP3    H1 9399   6.110   4.894   4.875
 3131TIP3    H2 9400   6.196   4.896   4.999
 3132TIP3   OH2 9401   3.416   5.882   2.385
 3132TIP3    H1 9402   3.327   5.889   2.351
 3132TIP3    H2 9403   3.426   5.790   2.407
 3133TIP3   OH2 9404   1.309   3.249   3.644
 3133TIP3    H1 9405   1.253   3.321   3.673
 3133TIP3    H2 9406   1.290   3.240   3.550
 3134TIP3   OH2 9407   4.862   0.567   3.139
 3134TIP3    H1 9408   4.877   0.629   3.067
 3134TIP3    H2 9409   4.769   0.573   3.158
 3135TIP3   OH2 9410   4.160   1.763   2.052
 3135TIP3    H1 9411   4.229   1.827   2.071
 3135TIP3    H2 9412   4.100   1.769   2.126
 3136TIP3   OH2 9413   1.870   3.034   0.680
 3136TIP3    H1 9414   1.903   3.119   0.710
 3136TIP3    H2 9415   1.934   2.971   0.712
 3137TIP3   OH2 9416   3.345   5.005   2.444
 3137TIP3    H1 9417   3.269   4.958   2.480
 3137TIP3    H2 9418   3.403   5.019   2.519
 3138TIP3   OH2 9419   0.332   3.705   2.635
 3138TIP3    H1 9420   0.357   3.768   2.567
 3138TIP3    H2 9421   0.416   3.669   2.665
 3139TIP3   OH2 9422   4.484   0.304   0.198
 3139TIP3    H1 9423   4.397   0.321   0.235
 3139TIP3    H2 9424   4.469   0.299   0.103
 3140TIP3   OH2 9425   4.743   5.295   0.714
 3140TIP3    H1 9426   4.789   5.367   0.672
 3140TIP3    H2 9427   4.714   5.239   0.642
 3141TIP3   OH2 9428   5.664   3.336   3.497
 3141TIP3    H1 9429   5.635   3.358   3.585
 3141TIP3    H2 9430   5.583   3.314   3.450
 3142TIP3   OH2 9431   0.162   0.593   1.869
 3142TIP3    H1 9432   0.194   0.658   1.807
 3142TIP3    H2 9433   0.137   0.518   1.815
 3143TIP3   OH2 9434   4.931   0.402   2.747
 3143TIP3    H1 9435   5.026   0.398   2.749
 3143TIP3    H2 9436   4.911   0.484   2.701
 3144TIP3   OH2 9437   1.828   2.977   3.327
 3144TIP3    H1 9438   1.833   2.896   3.378
 3144TIP3    H2 9439   1.848   3.046   3.391
 3145TIP3   OH2 9440   2.436   0.127   2.688
 3145TIP3    H1 9441   2.425   0.035   2.712
 3145TIP3    H2 9442   2.470   0.124   2.599
 3146TIP3   OH2 9443   5.734   3.889   1.725
 3146TIP3    H1 9444   5.770   3.825   1.786
 3146TIP3    H2 9445   5.639   3.878   1.731
 3147TIP3   OH2 9446   3.201   0.382   3.846
 3147TIP3    H1 9447   3.123   0.378   3.902
 3147TIP3    H2 9448   3.273   0.400   3.908
 3148TIP3   OH2 9449   2.370   1.048   2.679
 3148TIP3    H1 9450   2.337   1.133   2.709
 3148TIP3    H2 9451   2.465   1.057   2.682
 3149TIP3   OH2 9452   5.753   2.745   0.126
 3149TIP3    H1 9453   5.667   2.765   0.089
 3149TIP3    H2 9454   5.744   2.655   0.157
 3150TIP3   OH2 9455   3.188   5.410   2.086
 3150TIP3    H1 9456   3.104   5.389   2.127
 3150TIP3    H2 9457   3.183   5.373   1.998
 3151TIP3   OH2 9458   3.376   0.600   3.556
 3151TIP3    H1 9459   3.307   0.595   3.490
 3151TIP3    H2 9460   3.425   0.519   3.546
 3152TIP3   OH2 9461   2.404   1.768   4.847
 3152TIP3    H1 9462   2.486   1.725   4.871
 3152TIP3    H2 9463   2.366   1.797   4.930
 3153TIP3   OH2 9464   3.015   4.503   1.154
 3153TIP3    H1 9465   3.011   4.599   1.152
 3153TIP3    H2 9466   3.088   4.484   1.213
 3154TIP3   OH2 9467   0.519   2.642   3.521
 3154TIP3    H1 9468   0.576   2.716   3.541
 3154TIP3    H2 9469   0.492   2.609   3.607
 3155TIP3   OH2 9470   4.605   1.034   1.745
 3155TIP3    H1 9471   4.640   1.123   1.741
 3155TIP3    H2 9472   4.527   1.041   1.800
 3156TIP3   OH2 9473   0.797   2.770   0.869
 3156TIP3    H1 9474   0.861   2.830   0.907
 3156TIP3    H2 9475   0.840   2.685   0.870
 3157TIP3   OH2 9476   5.209   4.683   4.322
 3157TIP3    H1 9477   5.140   4.748   4.336
 3157TIP3    H2 9478   5.288   4.723   4.359
 3158TIP3   OH2 9479   2.595   1.224   0.123
 3158TIP3    H1 9480   2.504   1.203   0.102
 3158TIP3    H2 9481   2.601   1.214   0.218
 3159TIP3   OH2 9482   1.960   2.914   1.840
 3159TIP3    H1 9483   1.893   2.857   1.802
 3159TIP3    H2 9484   1.943   3.000   1.804
 3160TIP3   OH2 9485   5.795   5.126   5.045
 3160TIP3    H1 9486   5.760   5.073   5.116
 3160TIP3    H2 9487   5.798   5.215   5.080
 3161TIP3   OH2 9488   3.381   2.944   0.110
 3161TIP3    H1 9489   3.369   3.027   0.064
 3161TIP3    H2 9490   3.456   2.959   0.167
 3162TIP3   OH2 9491   5.688   1.116   0.702
 3162TIP3    H1 9492   5.727   1.196   0.738
 3162TIP3    H2 9493   5.649   1.072   0.778
 3163TIP3   OH2 9494   5.192   1.842   1.955
 3163TIP3    H1 9495   5.124   1.871   1.894
 3163TIP3    H2 9496   5.261   1.806   1.900
 3164TIP3   OH2 9497   6.102   1.183   3.489
 3164TIP3    H1 9498   6.056   1.236   3.424
 3164TIP3    H2 9499   6.110   1.096   3.448
 3165TIP3   OH2 9500   6.133   5.214   3.803
 3165TIP3    H1 9501   6.197   5.217   3.874
 3165TIP3    H2 9502   6.154   5.133   3.755
 3166TIP3   OH2 9503   1.624   4.926   3.391
 3166TIP3    H1 9504   1.628   5.021   3.378
 3166TIP3    H2 9505   1.531   4.904   3.382
 3167TIP3   OH2 9506   5.670   4.946   0.493
 3167TIP3    H1 9507   5.658   5.040   0.502
 3167TIP3    H2 9508   5.671   4.913   0.583
 3168TIP3   OH2 9509   1.480   3.451   3.387
 3168TIP3    H1 9510   1.457   3.388   3.456
 3168TIP3    H2 9511   1.405   3.449   3.327
 3169TIP3   OH2 9512   5.770   5.300   4.697
 3169TIP3    H1 9513   5.809   5.375   4.742
 3169TIP3    H2 9514   5.789   5.316   4.604
 3170TIP3   OH2 9515   4.172   5.179   2.522
 3170TIP3    H1 9516   4.241   5.240   2.548
 3170TIP3    H2 9517   4.195   5.153   2.433
 3171TIP3   OH2 9518   6.311   4.902   2.753
 3171TIP3    H1 9519   6.350   4.987   2.774
 3171TIP3    H2 9520   6.382   4.839   2.765
 3172TIP3   OH2 9521   5.831   2.191   1.436
 3172TIP3    H1 9522   5.817   2.206   1.529
 3172TIP3    H2 9523   5.742   2.192   1.398
 3173TIP3   OH2 9524   1.442   2.059   2.825
 3173TIP3    H1 9525   1.500   2.056   2.749
 3173TIP3    H2 9526   1.440   2.151   2.851
 3174TIP3   OH2 9527   4.101   5.213   4.144
 3174TIP3    H1 9528   4.048   5.275   4.195
 3174TIP3    H2 9529   4.109   5.136   4.200
 3175TIP3   OH2 9530   1.218   0.897   4.594
 3175TIP3    H1 9531   1.267   0.978   4.581
 3175TIP3    H2 9532   1.284   0.829   4.596
 3176TIP3   OH2 9533   0.693   0.082   4.914
 3176TIP3    H1 9534   0.782   0.094   4.882
 3176TIP3    H2 9535   0.639   0.134   4.854
 3177TIP3   OH2 9536   0.152   4.451   1.821
 3177TIP3    H1 9537   0.205   4.504   1.762
 3177TIP3    H2 9538   0.216   4.395   1.866
 3178TIP3   OH2 9539   4.467   5.112   3.429
 3178TIP3    H1 9540   4.433   5.169   3.498
 3178TIP3    H2 9541   4.415   5.031   3.437
 3179TIP3   OH2 9542   1.691   5.617   0.765
 3179TIP3    H1 9543   1.715   5.572   0.846
 3179TIP3    H2 9544   1.627   5.559   0.723
 3180TIP3   OH2 9545   4.346   4.797   0.317
 3180TIP3    H1 9546   4.267   4.760   0.356
 3180TIP3    H2 9547   4.385   4.726   0.267
 3181TIP3   OH2 9548   3.287   2.867   4.958
 3181TIP3    H1 9549   3.205   2.870   5.008
 3181TIP3    H2 9550   3.354   2.848   5.023
 3182TIP3   OH2 9551   5.534   4.808   4.497
 3182TIP3    H1 9552   5.527   4.733   4.557
 3182TIP3    H2 9553   5.466   4.869   4.526
 3183TIP3   OH2 9554   5.957   5.135   1.582
 3183TIP3    H1 9555   6.021   5.066   1.600
 3183TIP3    H2 9556   5.875   5.088   1.569
 3184TIP3   OH2 9557   1.497   4.678   4.774
 3184TIP3    H1 9558   1.565   4.654   4.712
 3184TIP3    H2 9559   1.524   4.637   4.856
 3185TIP3   OH2 9560   5.891   4.653   4.051
 3185TIP3    H1 9561   5.898   4.654   3.956
 3185TIP3    H2 9562   5.815   4.708   4.071
 3186TIP3   OH2 9563   4.139   3.785   5.192
 3186TIP3    H1 9564   4.151   3.822   5.105
 3186TIP3    H2 9565   4.204   3.715   5.198
 3187TIP3   OH2 9566   3.035   3.653   0.465
 3187TIP3    H1 9567   2.966   3.694   0.517
 3187TIP3    H2 9568   2.998   3.646   0.378
 3188TIP3   OH2 9569   5.471   3.905   0.611
 3188TIP3    H1 9570   5.425   3.870   0.534
 3188TIP3    H2 9571   5.402   3.927   0.673
 3189TIP3   OH2 9572   0.325   0.636   0.132
 3189TIP3    H1 9573   0.386   0.571   0.168
 3189TIP3    H2 9574   0.267   0.585   0.075
 3190TIP3   OH2 9575   1.576   3.621   0.748
 3190TIP3    H1 9576   1.522   3.642   0.672
 3190TIP3    H2 9577   1.587   3.526   0.745
 3191TIP3   OH2 9578   4.341   4.967   4.524
 3191TIP3    H1 9579   4.434   4.952   4.537
 3191TIP3    H2 9580   4.307   4.985   4.612
 3192TIP3   OH2 9581   4.182   1.297   3.747
 3192TIP3    H1 9582   4.153   1.227   3.690
 3192TIP3    H2 9583   4.218   1.253   3.824
 3193TIP3   OH2 9584   4.855   5.269   1.537
 3193TIP3    H1 9585   4.915   5.281   1.464
 3193TIP3    H2 9586   4.878   5.340   1.598
 3194TIP3   OH2 9587   1.314   1.359   3.573
 3194TIP3    H1 9588   1.402   1.331   3.547
 3194TIP3    H2 9589   1.296   1.311   3.653
 3195TIP3   OH2 9590   3.844   5.623   1.170
 3195TIP3    H1 9591   3.879   5.665   1.091
 3195TIP3    H2 9592   3.890   5.539   1.175
 3196TIP3   OH2 9593   4.623   4.288   2.954
 3196TIP3    H1 9594   4.536   4.303   2.991
 3196TIP3    H2 9595   4.605   4.256   2.865
 3197TIP3   OH2 9596   2.843   4.597   5.084
 3197TIP3    H1 9597   2.784   4.661   5.123
 3197TIP3    H2 9598   2.921   4.599   5.139
 3198TIP3   OH2 9599   2.968   0.733   1.585
 3198TIP3    H1 9600   2.903   0.672   1.621
 3198TIP3    H2 9601   2.929   0.819   1.598
 3199TIP3   OH2 9602   2.957   2.256   0.447
 3199TIP3    H1 9603   3.036   2.209   0.419
 3199TIP3    H2 9604   2.905   2.266   0.367
 3200TIP3   OH2 9605   1.102   2.952   3.530
 3200TIP3    H1 9606   1.194   2.927   3.520
 3200TIP3    H2 9607   1.065   2.884   3.586
 3201TIP3   OH2 9608   4.380   1.602   3.309
 3201TIP3    H1 9609   4.459   1.555   3.336
 3201TIP3    H2 9610   4.380   1.682   3.362
 3202TIP3   OH2 9611   6.166   0.038   3.690
 3202TIP3    H1 9612   6.153   0.098   3.764
 3202TIP3    H2 9613   6.202   0.093   3.621
 3203TIP3   OH2 9614   0.148   0.689   3.818
 3203TIP3    H1 9615   0.122   0.652   3.733
 3203TIP3    H2 9616   0.230   0.734   3.799
 3204TIP3   OH2 9617   6.297   2.344   0.322
 3204TIP3    H1 9618   6.233   2.410   0.298
 3204TIP3    H2 9619   6.370   2.393   0.360
 3205TIP3   OH2 9620   5.062   0.093   1.781
 3205TIP3    H1 9621   4.986   0.035   1.772
 3205TIP3    H2 9622   5.024   0.181   1.791
 3206TIP3   OH2 9623   5.409   4.844   0.093
 3206TIP3    H1 9624   5.478   4.787   0.128
 3206TIP3    H2 9625   5.351   4.785   0.046
 3207TIP3   OH2 9626   0.126   0.231   3.732
 3207TIP3    H1 9627   0.060   0.216   3.664
 3207TIP3    H2 9628   0.129   0.149   3.781
 3208TIP3   OH2 9629   0.631   4.223   3.363
 3208TIP3    H1 9630   0.666   4.146   3.408
 3208TIP3    H2 9631   0.551   4.191   3.321
 3209TIP3   OH2 9632   6.199   4.523   4.109
 3209TIP3    H1 9633   6.119   4.575   4.118
 3209TIP3    H2 9634   6.236   4.519   4.197
 3210TIP3   OH2 9635   0.523   3.361   0.964
 3210TIP3    H1 9636   0.515   3.401   1.051
 3210TIP3    H2 9637   0.499   3.269   0.978
 3211TIP3   OH2 9638   2.257   2.696   3.865
 3211TIP3    H1 9639   2.175   2.651   3.847
 3211TIP3    H2 9640   2.324   2.628   3.858
 3212TIP3   OH2 9641   4.832   4.635   0.241
 3212TIP3    H1 9642   4.761   4.638   0.177
 3212TIP3    H2 9643   4.841   4.542   0.262
 3213TIP3   OH2 9644   3.852   1.499   1.148
 3213TIP3    H1 9645   3.761   1.473   1.137
 3213TIP3    H2 9646   3.857   1.586   1.110
 3214TIP3   OH2 9647   4.494   1.134   3.818
 3214TIP3    H1 9648   4.482   1.194   3.891
 3214TIP3    H2 9649   4.407   1.100   3.799
 3215TIP3   OH2 9650   2.937   0.973   2.198
 3215TIP3    H1 9651   2.841   0.972   2.198
 3215TIP3    H2 9652   2.960   1.065   2.205
 3216TIP3   OH2 9653   1.351   0.979   5.027
 3216TIP3    H1 9654   1.263   1.016   5.026
 3216TIP3    H2 9655   1.394   1.020   5.102
 3217TIP3   OH2 9656   0.127   2.410   1.549
 3217TIP3    H1 9657   0.124   2.315   1.537
 3217TIP3    H2 9658   0.214   2.426   1.587
 3218TIP3   OH2 9659   5.734   2.211   4.992
 3218TIP3    H1 9660   5.674   2.146   4.957
 3218TIP3    H2 9661   5.742   2.276   4.923
 3219TIP3   OH2 9662   0.805   2.803   3.881
 3219TIP3    H1 9663   0.863   2.879   3.874
 3219TIP3    H2 9664   0.864   2.728   3.890
 3220TIP3   OH2 9665   0.161   2.004   1.784
 3220TIP3    H1 9666   0.190   2.053   1.861
 3220TIP3    H2 9667   0.082   1.958   1.813
 3221TIP3   OH2 9668   0.847   5.587   1.947
 3221TIP3    H1 9669   0.938   5.597   1.918
 3221TIP3    H2 9670   0.796   5.597   1.866
 3222TIP3   OH2 9671   4.456   3.951   3.126
 3222TIP3    H1 9672   4.428   4.028   3.176
 3222TIP3    H2 9673   4.378   3.924   3.077
 3223TIP3   OH2 9674   2.527   2.395   1.291
 3223TIP3    H1 9675   2.452   2.453   1.275
 3223TIP3    H2 9676   2.603   2.448   1.267
 3224TIP3   OH2 9677   1.102   3.572   0.804
 3224TIP3    H1 9678   1.103   3.505   0.872
 3224TIP3    H2 9679   1.011   3.600   0.799
 3225TIP3   OH2 9680   3.970   4.759   3.645
 3225TIP3    H1 9681   3.877   4.783   3.648
 3225TIP3    H2 9682   4.015   4.833   3.685
 3226TIP3   OH2 9683   5.236   0.848   0.368
 3226TIP3    H1 9684   5.276   0.824   0.452
 3226TIP3    H2 9685   5.145   0.819   0.375
 3227TIP3   OH2 9686   3.901   0.293   1.286
 3227TIP3    H1 9687   3.905   0.200   1.307
 3227TIP3    H2 9688   3.808   0.313   1.278
 3228TIP3   OH2 9689   2.276   5.649   2.385
 3228TIP3    H1 9690   2.367   5.644   2.356
 3228TIP3    H2 9691   2.282   5.644   2.480
 3229TIP3   OH2 9692   0.349   0.840   3.701
 3229TIP3    H1 9693   0.276   0.902   3.697
 3229TIP3    H2 9694   0.360   0.810   3.611
 3230TIP3   OH2 9695   1.049   0.961   3.280
 3230TIP3    H1 9696   1.125   0.967   3.337
 3230TIP3    H2 9697   1.039   0.867   3.264
 3231TIP3   OH2 9698   3.687   3.081   1.391
 3231TIP3    H1 9699   3.608   3.026   1.393
 3231TIP3    H2 9700   3.655   3.169   1.373
 3232TIP3   OH2 9701   2.997   0.758   0.294
 3232TIP3    H1 9702   3.085   0.764   0.257
 3232TIP3    H2 9703   2.975   0.848   0.319
 3233TIP3   OH2 9704   4.342   0.533   1.337
 3233TIP3    H1 9705   4.298   0.474   1.275
 3233TIP3    H2 9706   4.424   0.488   1.358
 3234TIP3   OH2 9707   0.465   3.003   5.070
 3234TIP3    H1 9708   0.507   3.088   5.053
 3234TIP3    H2 9709   0.375   3.015   5.039
 3235TIP3   OH2 9710   4.826   4.702   5.117
 3235TIP3    H1 9711   4.862   4.737   5.199
 3235TIP3    H2 9712   4.787   4.618   5.142
 3236TIP3   OH2 9713   0.777   4.038   4.075
 3236TIP3    H1 9714   0.800   4.109   4.015
 3236TIP3    H2 9715   0.706   4.074   4.128
 3237TIP3   OH2 9716   3.993   3.277   4.869
 3237TIP3    H1 9717   4.010   3.243   4.781
 3237TIP3    H2 9718   3.904   3.248   4.888
 3238TIP3   OH2 9719   4.240   3.301   1.396
 3238TIP3    H1 9720   4.232   3.208   1.374
 3238TIP3    H2 9721   4.331   3.312   1.422
 3239TIP3   OH2 9722   4.757   3.938   0.961
 3239TIP3    H1 9723   4.743   4.031   0.945
 3239TIP3    H2 9724   4.798   3.935   1.048
 3240TIP3   OH2 9725   4.665   1.845   1.975
 3240TIP3    H1 9726   4.635   1.916   2.031
 3240TIP3    H2 9727   4.698   1.778   2.036
 3241TIP3   OH2 9728   1.817   2.362   3.510
 3241TIP3    H1 9729   1.744   2.371   3.572
 3241TIP3    H2 9730   1.775   2.333   3.429
 3242TIP3   OH2 9731   0.393   2.931   2.457
 3242TIP3    H1 9732   0.470   2.874   2.456
 3242TIP3    H2 9733   0.395   2.973   2.543
 3243TIP3   OH2 9734   5.612   5.549   4.438
 3243TIP3    H1 9735   5.519   5.562   4.423
 3243TIP3    H2 9736   5.631   5.463   4.401
 3244TIP3   OH2 9737   5.946   1.910   2.099
 3244TIP3    H1 9738   6.002   1.871   2.031
 3244TIP3    H2 9739   6.001   1.913   2.177
 3245TIP3   OH2 9740   6.224   5.968   5.009
 3245TIP3    H1 9741   6.288   6.021   4.962
 3245TIP3    H2 9742   6.276   5.906   5.059
 3246TIP3   OH2 9743   1.194   3.901   3.496
 3246TIP3    H1 9744   1.155   3.966   3.439
 3246TIP3    H2 9745   1.255   3.853   3.440
 3247TIP3   OH2 9746   3.045   3.744   1.519
 3247TIP3    H1 9747   3.059   3.709   1.431
 3247TIP3    H2 9748   3.125   3.793   1.538
 3248TIP3   OH2 9749   6.030   5.793   3.109
 3248TIP3    H1 9750   5.955   5.845   3.081
 3248TIP3    H2 9751   6.084   5.786   3.030
 3249TIP3   OH2 9752   5.701   3.379   1.568
 3249TIP3    H1 9753   5.734   3.451   1.622
 3249TIP3    H2 9754   5.606   3.389   1.570
 3250TIP3   OH2 9755   4.929   3.292   3.998
 3250TIP3    H1 9756   4.948   3.198   3.991
 3250TIP3    H2 9757   5.007   3.329   4.038
 3251TIP3   OH2 9758   1.048   1.231   4.008
 3251TIP3    H1 9759   0.954   1.227   3.991
 3251TIP3    H2 9760   1.070   1.146   4.046
 3252TIP3   OH2 9761   1.870   4.687   4.440
 3252TIP3    H1 9762   1.824   4.762   4.403
 3252TIP3    H2 9763   1.809   4.652   4.506
 3253TIP3   OH2 9764   6.336   1.036   3.581
 3253TIP3    H1 9765   6.259   1.082   3.548
 3253TIP3    H2 9766   6.303   0.950   3.605
 3254TIP3   OH2 9767   1.521   0.703   1.574
 3254TIP3    H1 9768   1.429   0.728   1.576
 3254TIP3    H2 9769   1.569   0.784   1.590
 3255TIP3   OH2 9770   5.966   1.488   0.436
 3255TIP3    H1 9771   6.011   1.471   0.353
 3255TIP3    H2 9772   5.877   1.513   0.410
 3256TIP3   OH2 9773   3.729   0.145   0.613
 3256TIP3    H1 9774   3.821   0.152   0.589
 3256TIP3    H2 9775   3.730   0.126   0.707
 3257TIP3   OH2 9776   3.650   2.991   2.955
 3257TIP3    H1 9777   3.656   3.044   3.035
 3257TIP3    H2 9778   3.696   3.043   2.889
 3258TIP3   OH2 9779   6.112   2.723   4.426
 3258TIP3    H1 9780   6.150   2.747   4.342
 3258TIP3    H2 9781   6.174   2.757   4.491
 3259TIP3   OH2 9782   3.128   0.955   5.060
 3259TIP3    H1 9783   3.092   0.975   4.973
 3259TIP3    H2 9784   3.180   1.032   5.082
 3260TIP3   OH2 9785   2.019   1.550   4.889
 3260TIP3    H1 9786   1.928   1.538   4.864
 3260TIP3    H2 9787   2.031   1.645   4.893
 3261TIP3   OH2 9788   1.927   3.770   5.092
 3261TIP3    H1 9789   1.943   3.715   5.169
 3261TIP3    H2 9790   1.973   3.727   5.021
 3262TIP3   OH2 9791   4.181   5.736   0.035
 3262TIP3    H1 9792   4.160   5.788   0.113
 3262TIP3    H2 9793   4.103   5.742  -0.020
 3263TIP3   OH2 9794   1.261   5.076   3.725
 3263TIP3    H1 9795   1.329   5.060   3.791
 3263TIP3    H2 9796   1.236   4.989   3.695
 3264TIP3   OH2 9797   2.478   4.301   3.432
 3264TIP3    H1 9798   2.387   4.308   3.406
 3264TIP3    H2 9799   2.475   4.291   3.527
 3265TIP3   OH2 9800   2.762   5.049   1.129
 3265TIP3    H1 9801   2.834   5.109   1.110
 3265TIP3    H2 9802   2.758   5.044   1.224
 3266TIP3   OH2 9803   2.491   2.582   4.679
 3266TIP3    H1 9804   2.531   2.669   4.690
 3266TIP3    H2 9805   2.463   2.557   4.767
 3267TIP3   OH2 9806   2.201   4.232   1.769
 3267TIP3    H1 9807   2.137   4.193   1.709
 3267TIP3    H2 9808   2.164   4.219   1.856
 3268TIP3   OH2 9809   3.140   5.333   0.038
 3268TIP3    H1 9810   3.105   5.331  -0.051
 3268TIP3    H2 9811   3.063   5.330   0.095
 3269TIP3   OH2 9812   4.382   1.062   4.796
 3269TIP3    H1 9813   4.336   0.985   4.831
 3269TIP3    H2 9814   4.474   1.045   4.813
 3270TIP3   OH2 9815   3.235   4.030   4.029
 3270TIP3    H1 9816   3.196   4.102   3.979
 3270TIP3    H2 9817   3.196   3.951   3.992
 3271TIP3   OH2 9818   4.927   5.427   0.430
 3271TIP3    H1 9819   4.842   5.464   0.408
 3271TIP3    H2 9820   4.941   5.359   0.363
 3272TIP3   OH2 9821   2.706   4.759   1.457
 3272TIP3    H1 9822   2.644   4.687   1.474
 3272TIP3    H2 9823   2.791   4.723   1.480
 3273TIP3   OH2 9824   5.334   4.934   4.717
 3273TIP3    H1 9825   5.247   4.906   4.687
 3273TIP3    H2 9826   5.381   4.852   4.731
 3274TIP3   OH2 9827   3.979   0.117   2.883
 3274TIP3    H1 9828   3.995   0.203   2.845
 3274TIP3    H2 9829   3.992   0.056   2.811
 3275TIP3   OH2 9830   3.332   5.199   5.017
 3275TIP3    H1 9831   3.247   5.200   4.973
 3275TIP3    H2 9832   3.396   5.207   4.946
 3276TIP3   OH2 9833   2.028   2.654   2.589
 3276TIP3    H1 9834   2.045   2.734   2.539
 3276TIP3    H2 9835   1.956   2.678   2.648
 3277TIP3   OH2 9836   0.575   1.187   0.695
 3277TIP3    H1 9837   0.636   1.198   0.768
 3277TIP3    H2 9838   0.490   1.173   0.736
 3278TIP3   OH2 9839   4.743   5.897   1.534
 3278TIP3    H1 9840   4.709   5.808   1.529
 3278TIP3    H2 9841   4.798   5.897   1.612
 3279TIP3   OH2 9842   3.994   4.204   0.761
 3279TIP3    H1 9843   4.085   4.219   0.735
 3279TIP3    H2 9844   3.988   4.109   0.774
 3280TIP3   OH2 9845   5.898   5.930   2.502
 3280TIP3    H1 9846   5.859   5.915   2.588
 3280TIP3    H2 9847   5.979   5.880   2.503
 3281TIP3   OH2 9848   0.793   4.939   0.336
 3281TIP3    H1 9849   0.862   4.979   0.283
 3281TIP3    H2 9850   0.835   4.863   0.378
 3282TIP3   OH2 9851   2.768   5.100   5.120
 3282TIP3    H1 9852   2.685   5.142   5.096
 3282TIP3    H2 9853   2.794   5.144   5.201
 3283TIP3   OH2 9854   0.458   0.547   4.390
 3283TIP3    H1 9855   0.489   0.599   4.316
 3283TIP3    H2 9856   0.454   0.458   4.357
 3284TIP3   OH2 9857   5.170   2.376   4.383
 3284TIP3    H1 9858   5.081   2.352   4.359
 3284TIP3    H2 9859   5.214   2.394   4.300
 3285TIP3   OH2 9860   4.409   2.838   1.445
 3285TIP3    H1 9861   4.454   2.901   1.502
 3285TIP3    H2 9862   4.329   2.816   1.492
 3286TIP3   OH2 9863   1.075   0.211   2.098
 3286TIP3    H1 9864   1.016   0.193   2.026
 3286TIP3    H2 9865   1.134   0.279   2.064
 3287TIP3   OH2 9866   2.577   4.097   3.907
 3287TIP3    H1 9867   2.517   4.088   3.981
 3287TIP3    H2 9868   2.569   4.015   3.859
 3288TIP3   OH2 9869   1.429   3.012   1.623
 3288TIP3    H1 9870   1.406   2.945   1.687
 3288TIP3    H2 9871   1.437   2.964   1.540
 3289TIP3   OH2 9872   0.842   5.151   2.610
 3289TIP3    H1 9873   0.763   5.112   2.571
 3289TIP3    H2 9874   0.809   5.226   2.660
 3290TIP3   OH2 9875   5.217   0.956   4.203
 3290TIP3    H1 9876   5.153   0.988   4.267
 3290TIP3    H2 9877   5.171   0.960   4.119
 3291TIP3   OH2 9878   5.433   5.597   4.890
 3291TIP3    H1 9879   5.417   5.507   4.862
 3291TIP3    H2 9880   5.528   5.602   4.902
 3292TIP3   OH2 9881   1.951   0.075   3.526
 3292TIP3    H1 9882   1.880   0.079   3.461
 3292TIP3    H2 9883   1.942  -0.010   3.567
 3293TIP3   OH2 9884   3.876   5.097   1.645
 3293TIP3    H1 9885   3.857   5.058   1.730
 3293TIP3    H2 9886   3.826   5.043   1.583
 3294TIP3   OH2 9887   6.129   2.153   2.110
 3294TIP3    H1 9888   6.214   2.195   2.113
 3294TIP3    H2 9889   6.118   2.115   2.197
 3295TIP3   OH2 9890   5.695   3.767   0.187
 3295TIP3    H1 9891   5.618   3.713   0.207
 3295TIP3    H2 9892   5.762   3.704   0.160
 3296TIP3   OH2 9893   5.517   1.843   3.516
 3296TIP3    H1 9894   5.424   1.861   3.506
 3296TIP3    H2 9895   5.520   1.753   3.550
 3297TIP3   OH2 9896   1.917   1.564   4.359
 3297TIP3    H1 9897   1.916   1.473   4.331
 3297TIP3    H2 9898   1.969   1.609   4.292
 3298TIP3   OH2 9899   4.620   4.034   1.589
 3298TIP3    H1 9900   4.543   4.007   1.638
 3298TIP3    H2 9901   4.620   3.979   1.511
 3299TIP3   OH2 9902   3.302   4.831   1.745
 3299TIP3    H1 9903   3.365   4.889   1.702
 3299TIP3    H2 9904   3.314   4.848   1.838
 3300TIP3   OH2 9905   2.146   4.431   4.758
 3300TIP3    H1 9906   2.226   4.455   4.712
 3300TIP3    H2 9907   2.144   4.490   4.834
 3301TIP3   OH2 9908   5.133   3.038   0.297
 3301TIP3    H1 9909   5.068   3.091   0.251
 3301TIP3    H2 9910   5.093   3.019   0.382
 3302TIP3   OH2 9911   2.110   0.877   1.846
 3302TIP3    H1 9912   2.072   0.861   1.760
 3302TIP3    H2 9913   2.169   0.951   1.832
 3303TIP3   OH2 9914   4.593   2.268   4.976
 3303TIP3    H1 9915   4.581   2.287   4.883
 3303TIP3    H2 9916   4.509   2.231   5.004
 3304TIP3   OH2 9917   5.106   5.512   3.776
 3304TIP3    H1 9918   5.043   5.486   3.843
 3304TIP3    H2 9919   5.115   5.435   3.720
 3305TIP3   OH2 9920   2.055   1.167   2.656
 3305TIP3    H1 9921   1.963   1.193   2.657
 3305TIP3    H2 9922   2.054   1.074   2.679
 3306TIP3   OH2 9923   1.761   0.094   4.816
 3306TIP3    H1 9924   1.809   0.031   4.869
 3306TIP3    H2 9925   1.748   0.051   4.732
 3307TIP3   OH2 9926   4.232   3.322   2.885
 3307TIP3    H1 9927   4.296   3.391   2.864
 3307TIP3    H2 9928   4.261   3.288   2.969
 3308TIP3   OH2 9929   5.212   5.214   2.324
 3308TIP3    H1 9930   5.261   5.295   2.314
 3308TIP3    H2 9931   5.121   5.240   2.311
 3309TIP3   OH2 9932   0.463   3.041   1.830
 3309TIP3    H1 9933   0.432   3.101   1.897
 3309TIP3    H2 9934   0.424   3.072   1.749
 3310TIP3   OH2 9935   5.730   1.598   0.440
 3310TIP3    H1 9936   5.758   1.634   0.356
 3310TIP3    H2 9937   5.662   1.658   0.470
 3311TIP3   OH2 9938   0.363   3.065   0.398
 3311TIP3    H1 9939   0.440   3.105   0.357
 3311TIP3    H2 9940   0.329   3.133   0.456
 3312TIP3   OH2 9941   1.774   0.447   0.448
 3312TIP3    H1 9942   1.749   0.367   0.402
 3312TIP3    H2 9943   1.721   0.447   0.527
 3313TIP3   OH2 9944   5.177   4.909   2.938
 3313TIP3    H1 9945   5.130   4.876   3.015
 3313TIP3    H2 9946   5.269   4.889   2.956
 3314TIP3   OH2 9947   5.687   2.718   4.330
 3314TIP3    H1 9948   5.726   2.769   4.401
 3314TIP3    H2 9949   5.688   2.777   4.255
 3315TIP3   OH2 9950   0.035   3.101   2.318
 3315TIP3    H1 9951   0.035   3.152   2.237
 3315TIP3    H2 9952   0.105   3.037   2.305
 3316TIP3   OH2 9953   1.333   1.243   4.121
 3316TIP3    H1 9954   1.271   1.292   4.176
 3316TIP3    H2 9955   1.304   1.152   4.126
 3317TIP3   OH2 9956   3.097   1.700   0.442
 3317TIP3    H1 9957   3.132   1.754   0.513
 3317TIP3    H2 9958   3.123   1.746   0.362
 3318TIP3   OH2 9959   2.168   4.543   2.357
 3318TIP3    H1 9960   2.224   4.508   2.426
 3318TIP3    H2 9961   2.128   4.622   2.395
 3319TIP3   OH2 9962   2.852   4.267   1.844
 3319TIP3    H1 9963   2.902   4.323   1.903
 3319TIP3    H2 9964   2.786   4.324   1.806
 3320TIP3   OH2 9965   6.237   0.663   1.236
 3320TIP3    H1 9966   6.256   0.647   1.329
 3320TIP3    H2 9967   6.309   0.621   1.189
 3321TIP3   OH2 9968   0.971   1.208   2.244
 3321TIP3    H1 9969   0.990   1.301   2.259
 3321TIP3    H2 9970   1.055   1.171   2.216
 3322TIP3   OH2 9971   0.536   4.749   3.649
 3322TIP3    H1 9972   0.622   4.709   3.634
 3322TIP3    H2 9973   0.553   4.822   3.709
 3323TIP3   OH2 9974   0.578   2.865   1.991
 3323TIP3    H1 9975   0.501   2.808   1.984
 3323TIP3    H2 9976   0.552   2.945   1.945
 3324TIP3   OH2 9977   1.706   5.267   1.086
 3324TIP3    H1 9978   1.767   5.260   1.160
 3324TIP3    H2 9979   1.745   5.334   1.030
 3325TIP3   OH2 9980   0.163   2.234   4.231
 3325TIP3    H1 9981   0.221   2.239   4.156
 3325TIP3    H2 9982   0.201   2.164   4.285
 3326TIP3   OH2 9983   4.715   1.458   0.573
 3326TIP3    H1 9984   4.773   1.405   0.518
 3326TIP3    H2 9985   4.709   1.409   0.655
 3327TIP3   OH2 9986   3.106   0.541   4.679
 3327TIP3    H1 9987   3.042   0.479   4.644
 3327TIP3    H2 9988   3.179   0.486   4.708
 3328TIP3   OH2 9989   3.887   1.159   5.160
 3328TIP3    H1 9990   3.851   1.079   5.198
 3328TIP3    H2 9991   3.875   1.149   5.066
 3329TIP3   OH2 9992   4.803   4.331   1.899
 3329TIP3    H1 9993   4.886   4.323   1.946
 3329TIP3    H2 9994   4.763   4.245   1.906
 3330TIP3   OH2 9995   4.620   2.268   4.697
 3330TIP3    H1 9996   4.703   2.316   4.694
 3330TIP3    H2 9997   4.586   2.273   4.608
 3331TIP3   OH2 9998   5.602   0.943   3.394
 3331TIP3    H1 9999   5.523   0.963   3.343
 3331TIP3    H210000   5.670   0.997   3.354
 3332TIP3   OH210001   0.749   2.468   1.476
 3332TIP3    H110002   0.699   2.398   1.518
 3332TIP3    H210003   0.830   2.475   1.527
 3333TIP3   OH210004   0.901   4.391   4.214
 3333TIP3    H110005   0.983   4.407   4.168
 3333TIP3    H210006   0.911   4.437   4.297
 3334TIP3   OH210007   5.648   5.523   2.063
 3334TIP3    H110008   5.579   5.524   2.129
 3334TIP3    H210009   5.636   5.604   2.014
 3335TIP3   OH210010   5.507   3.739   3.514
 3335TIP3    H110011   5.557   3.687   3.577
 3335TIP3    H210012   5.571   3.763   3.447
 3336TIP3   OH210013   1.592   2.516   1.552
 3336TIP3    H110014   1.668   2.460   1.567
 3336TIP3    H210015   1.614   2.566   1.473
 3337TIP3   OH210016   5.820   3.813   3.556
 3337TIP3    H110017   5.907   3.841   3.583
 3337TIP3    H210018   5.826   3.804   3.461
 3338TIP3   OH210019   2.957   1.874   2.890
 3338TIP3    H110020   3.027   1.817   2.858
 3338TIP3    H210021   2.879   1.818   2.890
 3339TIP3   OH210022   1.709   5.764   1.541
 3339TIP3    H110023   1.772   5.698   1.570
 3339TIP3    H210024   1.644   5.715   1.492
 3340TIP3   OH210025   1.308   2.572   4.503
 3340TIP3    H110026   1.276   2.491   4.542
 3340TIP3    H210027   1.242   2.596   4.439
 3341TIP3   OH210028   2.356   1.121   0.049
 3341TIP3    H110029   2.280   1.167   0.016
 3341TIP3    H210030   2.322   1.062   0.117
 3342TIP3   OH210031   3.303   5.642   2.863
 3342TIP3    H110032   3.221   5.620   2.819
 3342TIP3    H210033   3.281   5.646   2.956
 3343TIP3   OH210034   5.120   6.006   4.720
 3343TIP3    H110035   5.060   5.935   4.695
 3343TIP3    H210036   5.206   5.974   4.692
 3344TIP3   OH210037   2.531   2.999   0.654
 3344TIP3    H110038   2.608   2.992   0.598
 3344TIP3    H210039   2.563   3.038   0.735
 3345TIP3   OH210040   1.511   5.475   5.020
 3345TIP3    H110041   1.525   5.405   4.956
 3345TIP3    H210042   1.502   5.554   4.967
 3346TIP3   OH210043   3.381   2.035   0.797
 3346TIP3    H110044   3.366   2.113   0.851
 3346TIP3    H210045   3.427   1.975   0.855
 3347TIP3   OH210046   0.308   2.048   3.192
 3347TIP3    H110047   0.224   2.087   3.214
 3347TIP3    H210048   0.286   1.970   3.142
 3348TIP3   OH210049   0.411   2.539   2.388
 3348TIP3    H110050   0.437   2.549   2.479
 3348TIP3    H210051   0.482   2.489   2.348
 3349TIP3   OH210052   1.961   4.398   0.530
 3349TIP3    H110053   2.014   4.363   0.459
 3349TIP3    H210054   1.900   4.327   0.552
 3350TIP3   OH210055   3.577   5.641   3.073
 3350TIP3    H110056   3.615   5.593   2.999
 3350TIP3    H210057   3.583   5.733   3.047
 3351TIP3   OH210058   0.757   1.165   2.068
 3351TIP3    H110059   0.832   1.178   2.126
 3351TIP3    H210060   0.796   1.142   1.983
 3352TIP3   OH210061   2.700   2.281   4.330
 3352TIP3    H110062   2.766   2.234   4.380
 3352TIP3    H210063   2.734   2.371   4.324
 3353TIP3   OH210064   5.446   5.225   0.006
 3353TIP3    H110065   5.477   5.267   0.087
 3353TIP3    H210066   5.519   5.233  -0.055
 3354TIP3   OH210067   5.234   1.280   3.469
 3354TIP3    H110068   5.311   1.331   3.446
 3354TIP3    H210069   5.256   1.190   3.445
 3355TIP3   OH210070   0.368   0.392   2.096
 3355TIP3    H110071   0.330   0.467   2.048
 3355TIP3    H210072   0.432   0.432   2.155
 3356TIP3   OH210073   0.601   0.760   3.937
 3356TIP3    H110074   0.567   0.843   3.906
 3356TIP3    H210075   0.585   0.699   3.865
 3357TIP3   OH210076   0.701   4.316   4.068
 3357TIP3    H110077   0.762   4.340   4.138
 3357TIP3    H210078   0.621   4.291   4.113
 3358TIP3   OH210079   5.811   4.306   0.528
 3358TIP3    H110080   5.754   4.370   0.484
 3358TIP3    H210081   5.751   4.236   0.555
 3359TIP3   OH210082   2.463   1.601   3.992
 3359TIP3    H110083   2.507   1.686   3.991
 3359TIP3    H210084   2.533   1.537   3.998
 3360TIP3   OH210085   5.216   0.145   4.337
 3360TIP3    H110086   5.201   0.183   4.250
 3360TIP3    H210087   5.129   0.115   4.365
 3361TIP3   OH210088   0.090   2.710   3.703
 3361TIP3    H110089   0.132   2.788   3.669
 3361TIP3    H210090   0.003   2.710   3.663
 3362TIP3   OH210091   1.348   5.135   1.761
 3362TIP3    H110092   1.261   5.099   1.779
 3362TIP3    H210093   1.400   5.110   1.838
 3363TIP3   OH210094   3.125   0.520   0.933
 3363TIP3    H110095   3.036   0.520   0.968
 3363TIP3    H210096   3.177   0.565   1.000
 3364TIP3   OH210097   3.541   1.257   2.249
 3364TIP3    H110098   3.446   1.261   2.263
 3364TIP3    H210099   3.559   1.330   2.189
 3365TIP3   OH210100   2.958   3.257   3.625
 3365TIP3    H110101   3.030   3.319   3.623
 3365TIP3    H210102   2.881   3.309   3.601
 3366TIP3   OH210103   5.916   0.504   4.708
 3366TIP3    H110104   5.859   0.568   4.666
 3366TIP3    H210105   5.856   0.443   4.751
 3367TIP3   OH210106   0.447   1.965   0.389
 3367TIP3    H110107   0.412   1.901   0.326
 3367TIP3    H210108   0.435   1.923   0.474
 3368TIP3   OH210109   3.302   4.900   2.825
 3368TIP3    H110110   3.273   4.880   2.914
 3368TIP3    H210111   3.367   4.833   2.804
 3369TIP3   OH210112   4.790   5.919   0.061
 3369TIP3    H110113   4.750   5.874   0.136
 3369TIP3    H210114   4.880   5.886   0.059
 3370TIP3   OH210115   2.866   4.615   2.947
 3370TIP3    H110116   2.875   4.677   2.874
 3370TIP3    H210117   2.848   4.669   3.023
 3371TIP3   OH210118   0.354   2.085   2.546
 3371TIP3    H110119   0.356   2.022   2.474
 3371TIP3    H210120   0.319   2.165   2.506
 3372TIP3   OH210121   1.466   3.306   1.956
 3372TIP3    H110122   1.479   3.340   2.045
 3372TIP3    H210123   1.387   3.350   1.925
 3373TIP3   OH210124   0.423   1.366   1.575
 3373TIP3    H110125   0.346   1.422   1.578
 3373TIP3    H210126   0.425   1.324   1.661
 3374TIP3   OH210127   2.777   5.073   4.610
 3374TIP3    H110128   2.794   5.028   4.694
 3374TIP3    H210129   2.697   5.124   4.626
 3375TIP3   OH210130   5.926   3.927   0.754
 3375TIP3    H110131   5.907   4.019   0.737
 3375TIP3    H210132   6.019   3.925   0.774
 3376TIP3   OH210133   4.216   1.000   1.251
 3376TIP3    H110134   4.199   1.084   1.294
 3376TIP3    H210135   4.135   0.950   1.264
 3377TIP3   OH210136   2.332   4.802   1.411
 3377TIP3    H110137   2.346   4.730   1.349
 3377TIP3    H210138   2.344   4.762   1.497
 3378TIP3   OH210139   4.225   1.726   0.222
 3378TIP3    H110140   4.158   1.778   0.267
 3378TIP3    H210141   4.306   1.777   0.233
 3379TIP3   OH210142   4.757   4.541   3.332
 3379TIP3    H110143   4.721   4.455   3.352
 3379TIP3    H210144   4.814   4.561   3.406
 3380TIP3   OH210145   5.895   5.571   4.510
 3380TIP3    H110146   5.803   5.579   4.485
 3380TIP3    H210147   5.943   5.580   4.428
 3381TIP3   OH210148   2.451   4.969   0.505
 3381TIP3    H110149   2.519   5.010   0.452
 3381TIP3    H210150   2.454   5.017   0.588
 3382TIP3   OH210151   3.867   2.859   4.286
 3382TIP3    H110152   3.874   2.770   4.251
 3382TIP3    H210153   3.958   2.886   4.300
 3383TIP3   OH210154   2.672   0.641   4.360
 3383TIP3    H110155   2.753   0.593   4.344
 3383TIP3    H210156   2.627   0.591   4.428
 3384TIP3   OH210157   0.954   1.274   0.902
 3384TIP3    H110158   0.889   1.339   0.880
 3384TIP3    H210159   0.974   1.230   0.820
 3385TIP3   OH210160   5.304   1.982   0.915
 3385TIP3    H110161   5.349   1.988   0.830
 3385TIP3    H210162   5.213   2.005   0.896
 3386TIP3   OH210163   0.223   4.503   0.143
 3386TIP3    H110164   0.296   4.537   0.092
 3386TIP3    H210165   0.217   4.411   0.119
 3387TIP3   OH210166   0.387   5.523   4.029
 3387TIP3    H110167   0.306   5.540   3.980
 3387TIP3    H210168   0.457   5.545   3.967
 3388TIP3   OH210169   3.379   4.500   2.103
 3388TIP3    H110170   3.365   4.411   2.136
 3388TIP3    H210171   3.406   4.487   2.012
 3389TIP3   OH210172   5.969   0.828   0.730
 3389TIP3    H110173   5.887   0.803   0.688
 3389TIP3    H210174   5.946   0.906   0.781
 3390TIP3   OH210175   2.381   5.345   1.779
 3390TIP3    H110176   2.352   5.379   1.864
 3390TIP3    H210177   2.434   5.269   1.801
 3391TIP3   OH210178   2.745   4.770   0.148
 3391TIP3    H110179   2.669   4.818   0.116
 3391TIP3    H210180   2.757   4.699   0.084
 3392TIP3   OH210181   2.440   5.668   1.606
 3392TIP3    H110182   2.422   5.577   1.583
 3392TIP3    H210183   2.501   5.698   1.537
 3393TIP3   OH210184   0.773   4.944   4.860
 3393TIP3    H110185   0.679   4.927   4.856
 3393TIP3    H210186   0.782   5.016   4.922
 3394TIP3   OH210187   4.488   0.999  -0.007
 3394TIP3    H110188   4.551   1.007   0.065
 3394TIP3    H210189   4.453   1.087  -0.020
 3395TIP3   OH210190   1.480   5.905   2.825
 3395TIP3    H110191   1.464   5.994   2.795
 3395TIP3    H210192   1.461   5.907   2.918
 3396TIP3   OH210193   4.387   0.530   1.001
 3396TIP3    H110194   4.364   0.437   1.003
 3396TIP3    H210195   4.304   0.576   1.013
 3397TIP3   OH210196   0.771   4.356   3.133
 3397TIP3    H110197   0.694   4.310   3.168
 3397TIP3    H210198   0.810   4.294   3.071
 3398TIP3   OH210199   4.780   3.105   2.741
 3398TIP3    H110200   4.773   3.184   2.794
 3398TIP3    H210201   4.860   3.116   2.691
 3399TIP3   OH210202   5.452   1.345   0.826
 3399TIP3    H110203   5.370   1.356   0.777
 3399TIP3    H210204   5.452   1.416   0.890
 3400TIP3   OH210205   3.779   5.769   2.710
 3400TIP3    H110206   3.690   5.734   2.702
 3400TIP3    H210207   3.795   5.776   2.804
 3401TIP3   OH210208   4.212   5.032   0.565
 3401TIP3    H110209   4.122   5.006   0.545
 3401TIP3    H210210   4.249   5.060   0.481
 3402TIP3   OH210211   4.266   2.381   3.940
 3402TIP3    H110212   4.355   2.410   3.918
 3402TIP3    H210213   4.245   2.428   4.021
 3403TIP3   OH210214   4.723   2.030   0.797
 3403TIP3    H110215   4.690   1.942   0.817
 3403TIP3    H210216   4.748   2.026   0.704
 3404TIP3   OH210217   2.919   4.383   4.526
 3404TIP3    H110218   2.876   4.409   4.445
 3404TIP3    H210219   2.851   4.336   4.574
 3405TIP3   OH210220   4.581   2.999   1.072
 3405TIP3    H110221   4.661   2.947   1.075
 3405TIP3    H210222   4.610   3.089   1.080
 3406TIP3   OH210223   3.975   3.111   2.171
 3406TIP3    H110224   4.064   3.134   2.146
 3406TIP3    H210225   3.965   3.020   2.143
 3407TIP3   OH210226   3.805   2.360   4.929
 3407TIP3    H110227   3.835   2.272   4.952
 3407TIP3    H210228   3.872   2.392   4.868
 3408TIP3   OH210229   4.866   2.912   1.594
 3408TIP3    H110230   4.798   2.851   1.622
 3408TIP3    H210231   4.849   2.992   1.643
 3409TIP3   OH210232   2.096   4.502   0.738
 3409TIP3    H110233   2.057   4.483   0.652
 3409TIP3    H210234   2.164   4.566   0.720
 3410TIP3   OH210235   5.324   3.109   1.847
 3410TIP3    H110236   5.411   3.114   1.808
 3410TIP3    H210237   5.319   3.184   1.906
 3411TIP3   OH210238   6.091   3.337   2.087
 3411TIP3    H110239   6.182   3.366   2.096
 3411TIP3    H210240   6.060   3.381   2.008
 3412TIP3   OH210241   2.911   2.589   1.964
 3412TIP3    H110242   2.829   2.539   1.960
 3412TIP3    H210243   2.974   2.526   2.000
 3413TIP3   OH210244   5.019   2.510   0.820
 3413TIP3    H110245   4.949   2.502   0.755
 3413TIP3    H210246   5.039   2.603   0.822
 3414TIP3   OH210247   0.151   2.616   3.950
 3414TIP3    H110248   0.183   2.703   3.975
 3414TIP3    H210249   0.137   2.622   3.856
 3415TIP3   OH210250   2.548   5.541   2.281
 3415TIP3    H110251   2.514   5.572   2.197
 3415TIP3    H210252   2.631   5.586   2.291
 3416TIP3   OH210253   0.430   4.877   1.913
 3416TIP3    H110254   0.465   4.789   1.902
 3416TIP3    H210255   0.507   4.932   1.926
 3417TIP3   OH210256   5.327   1.976   0.074
 3417TIP3    H110257   5.275   2.053   0.051
 3417TIP3    H210258   5.418   2.007   0.068
 3418TIP3   OH210259   5.911   0.340   2.700
 3418TIP3    H110260   5.845   0.270   2.699
 3418TIP3    H210261   5.862   0.418   2.726
 3419TIP3   OH210262   0.758   3.575   1.928
 3419TIP3    H110263   0.774   3.602   2.018
 3419TIP3    H210264   0.663   3.566   1.922
 3420TIP3   OH210265   3.893   1.714   0.960
 3420TIP3    H110266   3.966   1.765   0.924
 3420TIP3    H210267   3.876   1.647   0.894
 3421TIP3   OH210268   4.543   0.373   4.509
 3421TIP3    H110269   4.505   0.456   4.539
 3421TIP3    H210270   4.504   0.307   4.567
 3422TIP3   OH210271   5.472   3.195   1.194
 3422TIP3    H110272   5.504   3.282   1.168
 3422TIP3    H210273   5.549   3.139   1.188
 3423TIP3   OH210274   3.367   0.656   0.816
 3423TIP3    H110275   3.283   0.615   0.795
 3423TIP3    H210276   3.344   0.726   0.877
 3424TIP3   OH210277   2.352   1.777   1.217
 3424TIP3    H110278   2.323   1.860   1.178
 3424TIP3    H210279   2.438   1.798   1.255
 3425TIP3   OH210280   2.528   3.746   0.948
 3425TIP3    H110281   2.443   3.741   0.906
 3425TIP3    H210282   2.591   3.744   0.875
 3426TIP3   OH210283   2.296   3.560   2.075
 3426TIP3    H110284   2.256   3.609   2.003
 3426TIP3    H210285   2.239   3.576   2.150
 3427TIP3   OH210286   5.078   3.408   0.622
 3427TIP3    H110287   5.027   3.483   0.593
 3427TIP3    H210288   5.148   3.400   0.558
 3428TIP3   OH210289   1.295   0.612   3.866
 3428TIP3    H110290   1.367   0.666   3.901
 3428TIP3    H210291   1.228   0.616   3.934
 3429TIP3   OH210292   2.207   5.419   3.634
 3429TIP3    H110293   2.129   5.372   3.664
 3429TIP3    H210294   2.279   5.378   3.681
 3430TIP3   OH210295   3.306   0.178   4.375
 3430TIP3    H110296   3.223   0.132   4.368
 3430TIP3    H210297   3.362   0.137   4.310
 3431TIP3   OH210298   3.534   1.806   4.671
 3431TIP3    H110299   3.450   1.848   4.688
 3431TIP3    H210300   3.586   1.823   4.749
 3432TIP3   OH210301   2.864   4.675   3.243
 3432TIP3    H110302   2.913   4.594   3.257
 3432TIP3    H210303   2.781   4.661   3.289
 3433TIP3   OH210304   5.616   0.453   2.155
 3433TIP3    H110305   5.582   0.404   2.080
 3433TIP3    H210306   5.649   0.387   2.215
 3434TIP3   OH210307   3.878   4.472   2.575
 3434TIP3    H110308   3.919   4.495   2.492
 3434TIP3    H210309   3.873   4.555   2.623
 3435TIP3   OH210310   6.137   0.110   2.367
 3435TIP3    H110311   6.213   0.152   2.326
 3435TIP3    H210312   6.085   0.183   2.401
 3436TIP3   OH210313   1.354   3.157   2.518
 3436TIP3    H110314   1.437   3.176   2.562
 3436TIP3    H210315   1.332   3.068   2.544
 3437TIP3   OH210316   0.372   2.635   0.346
 3437TIP3    H110317   0.358   2.555   0.294
 3437TIP3    H210318   0.284   2.664   0.368
 3438TIP3   OH210319   6.266   5.934   0.817
 3438TIP3    H110320   6.277   5.853   0.866
 3438TIP3    H210321   6.314   5.919   0.736
 3439TIP3   OH210322   4.673   0.723   1.356
 3439TIP3    H110323   4.584   0.755   1.338
 3439TIP3    H210324   4.692   0.755   1.445
 3440TIP3   OH210325   2.633   5.449   0.059
 3440TIP3    H110326   2.650   5.519  -0.003
 3440TIP3    H210327   2.538   5.438   0.056
 3441TIP3   OH210328   0.373   0.954   2.768
 3441TIP3    H110329   0.315   1.030   2.780
 3441TIP3    H210330   0.461   0.992   2.769
 3442TIP3   OH210331   4.019   5.014   3.224
 3442TIP3    H110332   4.000   5.064   3.304
 3442TIP3    H210333   4.086   5.065   3.179
 3443TIP3   OH210334   4.930   2.073   3.452
 3443TIP3    H110335   4.946   2.020   3.530
 3443TIP3    H210336   5.008   2.060   3.398
 3444TIP3   OH210337   5.851   2.565   5.106
 3444TIP3    H110338   5.772   2.518   5.133
 3444TIP3    H210339   5.916   2.541   5.172
 3445TIP3   OH210340   3.081   2.296   4.850
 3445TIP3    H110341   3.103   2.389   4.850
 3445TIP3    H210342   3.161   2.252   4.879
 3446TIP3   OH210343   0.273   0.338   5.186
 3446TIP3    H110344   0.314   0.418   5.221
 3446TIP3    H210345   0.198   0.369   5.137
 3447TIP3   OH210346   3.461   4.301   1.529
 3447TIP3    H110347   3.404   4.242   1.480
 3447TIP3    H210348   3.479   4.254   1.611
 3448TIP3   OH210349   1.242   2.828   2.337
 3448TIP3    H110350   1.175   2.896   2.338
 3448TIP3    H210351   1.325   2.875   2.338
 3449TIP3   OH210352   0.773   5.725   0.221
 3449TIP3    H110353   0.803   5.785   0.288
 3449TIP3    H210354   0.751   5.645   0.268
 3450TIP3   OH210355   4.662   4.289   1.275
 3450TIP3    H110356   4.589   4.322   1.327
 3450TIP3    H210357   4.656   4.194   1.285
 3451TIP3   OH210358   5.957   5.573   1.222
 3451TIP3    H110359   5.923   5.500   1.170
 3451TIP3    H210360   5.885   5.597   1.279
 3452TIP3   OH210361   5.661   3.747   0.688
 3452TIP3    H110362   5.619   3.810   0.631
 3452TIP3    H210363   5.597   3.676   0.697
 3453TIP3   OH210364   2.668   2.043   3.101
 3453TIP3    H110365   2.660   2.081   3.189
 3453TIP3    H210366   2.721   1.965   3.113
 3454TIP3   OH210367   3.379   0.746   2.533
 3454TIP3    H110368   3.456   0.766   2.479
 3454TIP3    H210369   3.338   0.831   2.548
 3455TIP3   OH210370   3.031   3.394   0.517
 3455TIP3    H110371   3.098   3.355   0.572
 3455TIP3    H210372   3.038   3.488   0.532
 3456TIP3   OH210373   4.467   5.253   4.719
 3456TIP3    H110374   4.524   5.324   4.748
 3456TIP3    H210375   4.380   5.292   4.715
 3457TIP3   OH210376   5.727   3.194   3.047
 3457TIP3    H110377   5.678   3.267   3.084
 3457TIP3    H210378   5.818   3.222   3.051
 3458TIP3   OH210379   3.112   1.879   1.251
 3458TIP3    H110380   3.040   1.890   1.313
 3458TIP3    H210381   3.190   1.868   1.306
 3459TIP3   OH210382   2.843   5.636   3.732
 3459TIP3    H110383   2.911   5.573   3.710
 3459TIP3    H210384   2.828   5.683   3.650
 3460TIP3   OH210385   1.002   5.593   4.764
 3460TIP3    H110386   1.080   5.541   4.783
 3460TIP3    H210387   0.962   5.609   4.849
 3461TIP3   OH210388   5.498   0.667   1.314
 3461TIP3    H110389   5.463   0.685   1.226
 3461TIP3    H210390   5.521   0.753   1.349
 3462TIP3   OH210391   4.556   1.768   3.069
 3462TIP3    H110392   4.600   1.687   3.043
 3462TIP3    H210393   4.463   1.751   3.055
 3463TIP3   OH210394   1.039   4.997   1.488
 3463TIP3    H110395   1.004   5.075   1.530
 3463TIP3    H210396   0.966   4.935   1.486
 3464TIP3   OH210397   0.893   2.854   3.030
 3464TIP3    H110398   0.856   2.918   3.091
 3464TIP3    H210399   0.859   2.881   2.944
 3465TIP3   OH210400   5.689   1.711   4.360
 3465TIP3    H110401   5.642   1.757   4.291
 3465TIP3    H210402   5.764   1.672   4.316
 3466TIP3   OH210403   0.011   3.338   0.252
 3466TIP3    H110404   0.010   3.293   0.337
 3466TIP3    H210405   0.075   3.289   0.200
 3467TIP3   OH210406   2.435   2.101   3.397
 3467TIP3    H110407   2.369   2.076   3.462
 3467TIP3    H210408   2.388   2.161   3.338
 3468TIP3   OH210409   4.221   3.612   1.584
 3468TIP3    H110410   4.223   3.706   1.568
 3468TIP3    H210411   4.159   3.600   1.656
 3469TIP3   OH210412   2.876   3.397   3.057
 3469TIP3    H110413   2.908   3.486   3.045
 3469TIP3    H210414   2.925   3.364   3.132
 3470TIP3   OH210415   0.075   5.492   3.606
 3470TIP3    H110416   0.104   5.503   3.516
 3470TIP3    H210417   0.036   5.405   3.608
 3471TIP3   OH210418   2.456   0.742   0.187
 3471TIP3    H110419   2.424   0.674   0.247
 3471TIP3    H210420   2.430   0.824   0.229
 3472TIP3   OH210421   1.078   5.056   1.863
 3472TIP3    H110422   1.045   5.076   1.950
 3472TIP3    H210423   1.068   5.138   1.814
 3473TIP3   OH210424   0.581   2.728   2.714
 3473TIP3    H110425   0.576   2.778   2.795
 3473TIP3    H210426   0.555   2.639   2.739
 3474TIP3   OH210427   1.880   1.307   4.111
 3474TIP3    H110428   1.936   1.273   4.182
 3474TIP3    H210429   1.792   1.306   4.147
 3475TIP3   OH210430   1.058   5.084   2.154
 3475TIP3    H110431   1.136   5.100   2.101
 3475TIP3    H210432   1.089   5.089   2.245
 3476TIP3   OH210433   4.286   0.664   3.446
 3476TIP3    H110434   4.336   0.582   3.453
 3476TIP3    H210435   4.277   0.694   3.536
 3477TIP3   OH210436   3.697   0.956   1.077
 3477TIP3    H110437   3.654   0.946   1.161
 3477TIP3    H210438   3.716   1.050   1.069
 3478TIP3   OH210439   3.372   0.201   3.019
 3478TIP3    H110440   3.352   0.272   2.957
 3478TIP3    H210441   3.430   0.241   3.084
 3479TIP3   OH210442   2.227   1.690   2.071
 3479TIP3    H110443   2.314   1.652   2.078
 3479TIP3    H210444   2.169   1.624   2.109
 3480TIP3   OH210445   1.493   5.517   2.216
 3480TIP3    H110446   1.565   5.565   2.258
 3480TIP3    H210447   1.420   5.526   2.277
 3481TIP3   OH210448   3.436   1.216   1.125
 3481TIP3    H110449   3.382   1.289   1.156
 3481TIP3    H210450   3.377   1.141   1.126
 3482TIP3   OH210451   2.546   0.121   0.028
 3482TIP3    H110452   2.504   0.051  -0.022
 3482TIP3    H210453   2.598   0.074   0.094
 3483TIP3   OH210454   0.585   3.604   0.568
 3483TIP3    H110455   0.555   3.651   0.645
 3483TIP3    H210456   0.610   3.673   0.506
 3484TIP3   OH210457   1.507   1.962   1.356
 3484TIP3    H110458   1.439   1.899   1.381
 3484TIP3    H210459   1.536   1.933   1.270
 3485TIP3   OH210460   4.989   0.102   3.127
 3485TIP3    H110461   5.053   0.159   3.170
 3485TIP3    H210462   4.923   0.162   3.092
 3486TIP3   OH210463   2.654   2.654   0.298
 3486TIP3    H110464   2.586   2.707   0.257
 3486TIP3    H210465   2.736   2.690   0.264
 3487TIP3   OH210466   1.500   1.051   2.427
 3487TIP3    H110467   1.486   1.121   2.363
 3487TIP3    H210468   1.584   1.012   2.402
 3488TIP3   OH210469   1.514   3.095   4.955
 3488TIP3    H110470   1.489   3.011   4.992
 3488TIP3    H210471   1.503   3.157   5.027
 3489TIP3   OH210472   1.149   5.544   1.015
 3489TIP3    H110473   1.164   5.471   0.955
 3489TIP3    H210474   1.088   5.510   1.080
 3490TIP3   OH210475   5.989   3.377   0.778
 3490TIP3    H110476   5.930   3.314   0.821
 3490TIP3    H210477   6.076   3.342   0.796
 3491TIP3   OH210478   6.170   3.689   2.483
 3491TIP3    H110479   6.265   3.697   2.470
 3491TIP3    H210480   6.157   3.707   2.576
 3492TIP3   OH210481   4.298   5.066   0.288
 3492TIP3    H110482   4.325   4.977   0.311
 3492TIP3    H210483   4.275   5.061   0.195
 3493TIP3   OH210484   4.840   5.399   1.058
 3493TIP3    H110485   4.749   5.420   1.078
 3493TIP3    H210486   4.882   5.485   1.049
 3494TIP3   OH210487   2.911   1.462   3.323
 3494TIP3    H110488   2.869   1.376   3.331
 3494TIP3    H210489   2.888   1.492   3.235
 3495TIP3   OH210490   2.178   2.685   4.214
 3495TIP3    H110491   2.163   2.603   4.168
 3495TIP3    H210492   2.255   2.669   4.268
 3496TIP3   OH210493   5.210   1.618   1.510
 3496TIP3    H110494   5.225   1.571   1.427
 3496TIP3    H210495   5.118   1.604   1.529
 3497TIP3   OH210496   2.256   0.895   2.886
 3497TIP3    H110497   2.262   0.953   2.810
 3497TIP3    H210498   2.341   0.851   2.889
 3498TIP3   OH210499   6.164   2.692   2.525
 3498TIP3    H110500   6.161   2.748   2.603
 3498TIP3    H210501   6.097   2.728   2.467
 3499TIP3   OH210502   4.030   3.547   4.902
 3499TIP3    H110503   4.040   3.452   4.896
 3499TIP3    H210504   4.119   3.581   4.888
 3500TIP3   OH210505   6.182   4.220   4.418
 3500TIP3    H110506   6.187   4.191   4.509
 3500TIP3    H210507   6.213   4.144   4.368
 3501TIP3   OH210508   0.338   1.138   4.529
 3501TIP3    H110509   0.397   1.078   4.483
 3501TIP3    H210510   0.250   1.107   4.508
 3502TIP3   OH210511   4.365   1.332   1.611
 3502TIP3    H110512   4.367   1.421   1.574
 3502TIP3    H210513   4.418   1.338   1.690
 3503TIP3   OH210514   0.186   4.164   1.425
 3503TIP3    H110515   0.246   4.134   1.493
 3503TIP3    H210516   0.204   4.258   1.416
 3504TIP3   OH210517   5.616   4.115   3.362
 3504TIP3    H110518   5.592   4.108   3.454
 3504TIP3    H210519   5.694   4.059   3.354
 3505TIP3   OH210520   5.370   0.709   1.090
 3505TIP3    H110521   5.398   0.763   1.016
 3505TIP3    H210522   5.277   0.690   1.071
 3506TIP3   OH210523   3.733   5.857   1.306
 3506TIP3    H110524   3.774   5.912   1.239
 3506TIP3    H210525   3.765   5.768   1.287
 3507TIP3   OH210526   3.181   3.106   4.400
 3507TIP3    H110527   3.189   3.105   4.305
 3507TIP3    H210528   3.271   3.101   4.432
 3508TIP3   OH210529   0.615   4.257   5.098
 3508TIP3    H110530   0.659   4.325   5.149
 3508TIP3    H210531   0.529   4.293   5.079
 3509TIP3   OH210532   5.128   3.730   3.844
 3509TIP3    H110533   5.180   3.802   3.880
 3509TIP3    H210534   5.141   3.737   3.749
 3510TIP3   OH210535   4.648   5.754   3.808
 3510TIP3    H110536   4.730   5.795   3.834
 3510TIP3    H210537   4.611   5.720   3.889
 3511TIP3   OH210538   5.533   2.216   0.976
 3511TIP3    H110539   5.443   2.219   1.008
 3511TIP3    H210540   5.552   2.306   0.949
 3512TIP3   OH210541   4.724   3.943   3.236
 3512TIP3    H110542   4.643   3.942   3.186
 3512TIP3    H210543   4.697   3.974   3.323
 3513TIP3   OH210544   3.376   5.046   0.700
 3513TIP3    H110545   3.439   5.068   0.631
 3513TIP3    H210546   3.338   5.129   0.726
 3514TIP3   OH210547   1.848   4.183   4.134
 3514TIP3    H110548   1.769   4.198   4.082
 3514TIP3    H210549   1.908   4.252   4.106
 3515TIP3   OH210550   4.932   1.133   0.531
 3515TIP3    H110551   4.963   1.139   0.440
 3515TIP3    H210552   4.945   1.221   0.567
 3516TIP3   OH210553   2.602   4.946   3.324
 3516TIP3    H110554   2.527   4.909   3.369
 3516TIP3    H210555   2.625   4.880   3.258
 3517TIP3   OH210556   6.245   2.083   0.368
 3517TIP3    H110557   6.235   2.174   0.341
 3517TIP3    H210558   6.237   2.085   0.464
 3518TIP3   OH210559   3.994   3.848   3.846
 3518TIP3    H110560   4.002   3.791   3.923
 3518TIP3    H210561   3.939   3.921   3.876
 3519TIP3   OH210562   1.182   0.887   0.556
 3519TIP3    H110563   1.145   0.904   0.643
 3519TIP3    H210564   1.106   0.875   0.499
 3520TIP3   OH210565   0.864   0.886   2.299
 3520TIP3    H110566   0.873   0.973   2.258
 3520TIP3    H210567   0.803   0.839   2.242
 3521TIP3   OH210568   0.997   2.789   1.826
 3521TIP3    H110569   0.903   2.773   1.823
 3521TIP3    H210570   1.036   2.712   1.785
 3522TIP3   OH210571   3.972   0.845   1.278
 3522TIP3    H110572   3.967   0.751   1.296
 3522TIP3    H210573   3.909   0.858   1.207
 3523TIP3   OH210574   2.964   1.048   1.072
 3523TIP3    H110575   2.921   1.012   1.149
 3523TIP3    H210576   2.917   1.010   0.998
 3524TIP3   OH210577   3.476   3.629   3.700
 3524TIP3    H110578   3.510   3.714   3.728
 3524TIP3    H210579   3.411   3.651   3.634
 3525TIP3   OH210580   5.310   5.294   1.841
 3525TIP3    H110581   5.224   5.253   1.841
 3525TIP3    H210582   5.371   5.220   1.850
 3526TIP3   OH210583   2.772   2.995   1.243
 3526TIP3    H110584   2.840   3.055   1.212
 3526TIP3    H210585   2.719   3.047   1.302
 3527TIP3   OH210586   4.325   1.167   3.392
 3527TIP3    H110587   4.269   1.170   3.470
 3527TIP3    H210588   4.414   1.157   3.427
 3528TIP3   OH210589   1.066   2.215   1.195
 3528TIP3    H110590   1.133   2.262   1.245
 3528TIP3    H210591   1.070   2.125   1.229
 3529TIP3   OH210592   1.866   5.376   4.966
 3529TIP3    H110593   1.911   5.392   5.049
 3529TIP3    H210594   1.837   5.462   4.937
 3530TIP3   OH210595   3.142   0.431   0.681
 3530TIP3    H110596   3.122   0.519   0.648
 3530TIP3    H210597   3.119   0.434   0.774
 3531TIP3   OH210598   1.058   3.321   3.143
 3531TIP3    H110599   1.050   3.273   3.060
 3531TIP3    H210600   0.975   3.305   3.188
 3532TIP3   OH210601   0.226   0.941   1.755
 3532TIP3    H110602   0.241   1.011   1.691
 3532TIP3    H210603   0.284   0.964   1.829
 3533TIP3   OH210604   5.064   4.336   1.974
 3533TIP3    H110605   5.078   4.422   1.933
 3533TIP3    H210606   5.112   4.341   2.056
 3534TIP3   OH210607   2.751   4.516   1.963
 3534TIP3    H110608   2.662   4.513   1.999
 3534TIP3    H210609   2.739   4.540   1.871
 3535TIP3   OH210610   3.939   5.671   0.944
 3535TIP3    H110611   4.034   5.678   0.955
 3535TIP3    H210612   3.929   5.627   0.859
 3536TIP3   OH210613   3.734   3.110   3.740
 3536TIP3    H110614   3.675   3.148   3.675
 3536TIP3    H210615   3.809   3.168   3.743
 3537TIP3   OH210616   1.560   4.651   2.811
 3537TIP3    H110617   1.539   4.588   2.880
 3537TIP3    H210618   1.576   4.596   2.733
 3538TIP3   OH210619   5.784   2.623   4.685
 3538TIP3    H110620   5.782   2.718   4.674
 3538TIP3    H210621   5.692   2.599   4.698
 3539TIP3   OH210622   2.050   0.318   0.905
 3539TIP3    H110623   2.020   0.345   0.992
 3539TIP3    H210624   1.970   0.303   0.855
 3540TIP3   OH210625   2.001   3.208   2.027
 3540TIP3    H110626   2.094   3.230   2.021
 3540TIP3    H210627   1.972   3.201   1.937
 3541TIP3   OH210628   2.498   5.220   4.656
 3541TIP3    H110629   2.470   5.171   4.578
 3541TIP3    H210630   2.423   5.217   4.715
 3542TIP3   OH210631   4.775   5.038   4.394
 3542TIP3    H110632   4.751   5.055   4.485
 3542TIP3    H210633   4.780   4.942   4.388
 3543TIP3   OH210634   1.382   1.356   0.943
 3543TIP3    H110635   1.385   1.451   0.942
 3543TIP3    H210636   1.425   1.329   0.862
 3544TIP3   OH210637   3.873   4.957   4.235
 3544TIP3    H110638   3.840   5.042   4.208
 3544TIP3    H210639   3.968   4.965   4.230
 3545TIP3   OH210640   4.809   2.268   5.209
 3545TIP3    H110641   4.869   2.311   5.148
 3545TIP3    H210642   4.825   2.175   5.197
 3546TIP3   OH210643   4.252   0.439   0.303
 3546TIP3    H110644   4.279   0.442   0.395
 3546TIP3    H210645   4.211   0.353   0.293
 3547TIP3   OH210646   4.879   1.141   0.856
 3547TIP3    H110647   4.886   1.091   0.937
 3547TIP3    H210648   4.863   1.075   0.789
 3548TIP3   OH210649   1.135   1.940   1.234
 3548TIP3    H110650   1.062   1.953   1.295
 3548TIP3    H210651   1.209   1.919   1.290
 3549TIP3   OH210652   5.353   5.907   1.481
 3549TIP3    H110653   5.412   5.982   1.475
 3549TIP3    H210654   5.326   5.890   1.391
 3550TIP3   OH210655   2.251   0.803   1.574
 3550TIP3    H110656   2.235   0.711   1.595
 3550TIP3    H210657   2.172   0.849   1.604
 3551TIP3   OH210658   1.589   1.880   3.049
 3551TIP3    H110659   1.532   1.954   3.071
 3551TIP3    H210660   1.531   1.804   3.052
 3552TIP3   OH210661   4.703   0.349   0.564
 3552TIP3    H110662   4.741   0.380   0.646
 3552TIP3    H210663   4.707   0.253   0.571
 3553TIP3   OH210664   1.965   3.684   2.544
 3553TIP3    H110665   1.870   3.697   2.547
 3553TIP3    H210666   2.001   3.769   2.568
 3554TIP3   OH210667   2.482   4.907   4.560
 3554TIP3    H110668   2.400   4.861   4.540
 3554TIP3    H210669   2.502   4.880   4.650
 3555TIP3   OH210670   1.252   5.826   4.235
 3555TIP3    H110671   1.275   5.893   4.171
 3555TIP3    H210672   1.333   5.779   4.251
 3556TIP3   OH210673   3.148   3.528   3.607
 3556TIP3    H110674   3.184   3.616   3.597
 3556TIP3    H210675   3.180   3.499   3.692
 3557TIP3   OH210676   4.722   0.230   2.004
 3557TIP3    H110677   4.734   0.204   1.913
 3557TIP3    H210678   4.660   0.167   2.040
 3558TIP3   OH210679   4.258   2.599   2.871
 3558TIP3    H110680   4.217   2.542   2.805
 3558TIP3    H210681   4.204   2.589   2.949
 3559TIP3   OH210682   2.761   1.750   2.996
 3559TIP3    H110683   2.764   1.657   3.018
 3559TIP3    H210684   2.817   1.793   3.061
 3560TIP3   OH210685   3.379   0.163   3.697
 3560TIP3    H110686   3.362   0.069   3.688
 3560TIP3    H210687   3.301   0.197   3.741
 3561TIP3   OH210688   0.163   1.236   3.478
 3561TIP3    H110689   0.095   1.301   3.497
 3561TIP3    H210690   0.115   1.156   3.458
 3562TIP3   OH210691   5.304   5.240   2.631
 3562TIP3    H110692   5.371   5.176   2.604
 3562TIP3    H210693   5.302   5.304   2.561
 3563TIP3   OH210694   0.649   5.896   3.645
 3563TIP3    H110695   0.574   5.933   3.599
 3563TIP3    H210696   0.672   5.817   3.596
 3564TIP3   OH210697   4.826   1.211   2.135
 3564TIP3    H110698   4.830   1.168   2.050
 3564TIP3    H210699   4.828   1.140   2.199
 3565TIP3   OH210700   4.861   4.438   0.753
 3565TIP3    H110701   4.811   4.370   0.708
 3565TIP3    H210702   4.947   4.398   0.768
 3566TIP3   OH210703   0.188   4.261   3.190
 3566TIP3    H110704   0.271   4.216   3.201
 3566TIP3    H210705   0.189   4.293   3.100
 3567TIP3   OH210706   4.649   4.485   4.315
 3567TIP3    H110707   4.599   4.467   4.395
 3567TIP3    H210708   4.735   4.448   4.332
 3568TIP3   OH210709   0.465   5.323   2.700
 3568TIP3    H110710   0.444   5.241   2.744
 3568TIP3    H210711   0.558   5.335   2.715
 3569TIP3   OH210712   6.029   5.124   4.707
 3569TIP3    H110713   5.939   5.092   4.713
 3569TIP3    H210714   6.042   5.174   4.788
 3570TIP3   OH210715   1.767   2.934   0.470
 3570TIP3    H110716   1.802   3.001   0.529
 3570TIP3    H210717   1.752   2.858   0.527
 3571TIP3   OH210718   1.564   1.959   0.964
 3571TIP3    H110719   1.590   2.044   0.928
 3571TIP3    H210720   1.496   1.981   1.028
 3572TIP3   OH210721   3.707   1.991   5.151
 3572TIP3    H110722   3.735   2.078   5.181
 3572TIP3    H210723   3.635   1.967   5.209
 3573TIP3   OH210724   6.143   5.545   0.506
 3573TIP3    H110725   6.158   5.525   0.414
 3573TIP3    H210726   6.230   5.543   0.546
 3574TIP3   OH210727   2.887   0.428   2.084
 3574TIP3    H110728   2.981   0.432   2.097
 3574TIP3    H210729   2.858   0.519   2.087
 3575TIP3   OH210730   4.928   0.709   3.449
 3575TIP3    H110731   4.865   0.781   3.447
 3575TIP3    H210732   5.012   0.750   3.429
 3576TIP3   OH210733   0.258   0.344   2.573
 3576TIP3    H110734   0.186   0.287   2.548
 3576TIP3    H210735   0.329   0.321   2.513
 3577TIP3   OH210736   5.067   5.853   2.424
 3577TIP3    H110737   5.135   5.788   2.405
 3577TIP3    H210738   5.082   5.923   2.360
 3578TIP3   OH210739   5.313   3.397   2.956
 3578TIP3    H110740   5.252   3.334   2.918
 3578TIP3    H210741   5.320   3.370   3.048
 3579TIP3   OH210742   4.789   4.597   0.979
 3579TIP3    H110743   4.782   4.691   0.960
 3579TIP3    H210744   4.836   4.561   0.904
 3580TIP3   OH210745   3.146   5.591   2.328
 3580TIP3    H110746   3.155   5.519   2.265
 3580TIP3    H210747   3.159   5.670   2.276
 3581TIP3   OH210748   5.230   2.189   3.976
 3581TIP3    H110749   5.300   2.251   3.998
 3581TIP3    H210750   5.151   2.228   4.012
 3582TIP3   OH210751   5.593   4.315   1.025
 3582TIP3    H110752   5.518   4.339   1.080
 3582TIP3    H210753   5.649   4.392   1.026
 3583TIP3   OH210754   2.261   0.523   1.591
 3583TIP3    H110755   2.279   0.507   1.498
 3583TIP3    H210756   2.340   0.493   1.636
 3584TIP3   OH210757   4.430   1.904   0.470
 3584TIP3    H110758   4.438   1.903   0.375
 3584TIP3    H210759   4.451   1.814   0.497
 3585TIP3   OH210760   5.339   0.356   4.980
 3585TIP3    H110761   5.274   0.393   4.920
 3585TIP3    H210762   5.362   0.428   5.039
 3586TIP3   OH210763   1.048   5.059   2.420
 3586TIP3    H110764   0.979   5.113   2.461
 3586TIP3    H210765   1.007   4.974   2.407
 3587TIP3   OH210766   2.397   1.555   0.303
 3587TIP3    H110767   2.353   1.521   0.225
 3587TIP3    H210768   2.423   1.477   0.352
 3588TIP3   OH210769   2.198   3.201   3.867
 3588TIP3    H110770   2.226   3.251   3.944
 3588TIP3    H210771   2.201   3.110   3.896
 3589TIP3   OH210772   0.915   0.093   0.390
 3589TIP3    H110773   0.907   0.114   0.483
 3589TIP3    H210774   0.997   0.045   0.383
 3590TIP3   OH210775   3.420   5.515   2.177
 3590TIP3    H110776   3.345   5.474   2.134
 3590TIP3    H210777   3.420   5.477   2.266
 3591TIP3   OH210778   2.988   3.660   1.979
 3591TIP3    H110779   2.909   3.669   2.033
 3591TIP3    H210780   3.002   3.565   1.974
 3592TIP3   OH210781   1.298   1.109   1.015
 3592TIP3    H110782   1.212   1.103   1.056
 3592TIP3    H210783   1.320   1.202   1.016
 3593TIP3   OH210784   5.302   0.086   0.011
 3593TIP3    H110785   5.378   0.111  -0.040
 3593TIP3    H210786   5.320  -0.003   0.040
 3594TIP3   OH210787   0.742   0.790   3.469
 3594TIP3    H110788   0.724   0.701   3.440
 3594TIP3    H210789   0.799   0.779   3.545
 3595TIP3   OH210790   5.426   3.068   0.944
 3595TIP3    H110791   5.379   3.150   0.931
 3595TIP3    H210792   5.453   3.070   1.036
 3596TIP3   OH210793   2.270   1.385   1.901
 3596TIP3    H110794   2.206   1.339   1.954
 3596TIP3    H210795   2.224   1.406   1.820
 3597TIP3   OH210796   4.823   2.977   3.408
 3597TIP3    H110797   4.819   2.992   3.502
 3597TIP3    H210798   4.866   3.056   3.373
 3598TIP3   OH210799   2.212   3.837   4.792
 3598TIP3    H110800   2.254   3.789   4.863
 3598TIP3    H210801   2.277   3.903   4.767
 3599TIP3   OH210802   6.104   3.794   4.289
 3599TIP3    H110803   6.165   3.797   4.216
 3599TIP3    H210804   6.159   3.798   4.367
 3600TIP3   OH210805   5.474   5.085   1.883
 3600TIP3    H110806   5.509   5.037   1.808
 3600TIP3    H210807   5.550   5.102   1.939
 3601TIP3   OH210808   3.201   5.827   1.251
 3601TIP3    H110809   3.288   5.804   1.282
 3601TIP3    H210810   3.142   5.796   1.320
 3602TIP3   OH210811   6.240   4.155   4.693
 3602TIP3    H110812   6.270   4.070   4.662
 3602TIP3    H210813   6.320   4.200   4.720
 3603TIP3   OH210814   3.708   1.207   1.267
 3603TIP3    H110815   3.729   1.290   1.308
 3603TIP3    H210816   3.615   1.214   1.243
 3604TIP3   OH210817   4.658   4.532   2.008
 3604TIP3    H110818   4.683   4.531   2.100
 3604TIP3    H210819   4.717   4.469   1.966
 3605TIP3   OH210820   2.371   4.627   1.869
 3605TIP3    H110821   2.288   4.580   1.880
 3605TIP3    H210822   2.345   4.718   1.854
 3606TIP3   OH210823   5.158   4.755   0.783
 3606TIP3    H110824   5.075   4.719   0.754
 3606TIP3    H210825   5.160   4.843   0.746
 3607TIP3   OH210826   1.222   4.815   4.612
 3607TIP3    H110827   1.175   4.832   4.530
 3607TIP3    H210828   1.152   4.802   4.677
 3608TIP3   OH210829   5.013   0.778   3.786
 3608TIP3    H110830   4.976   0.856   3.744
 3608TIP3    H210831   5.000   0.708   3.721
 3609TIP3   OH210832   3.276   3.756   2.541
 3609TIP3    H110833   3.236   3.819   2.601
 3609TIP3    H210834   3.218   3.680   2.544
 3610TIP3   OH210835   2.168   5.783   4.970
 3610TIP3    H110836   2.206   5.839   5.038
 3610TIP3    H210837   2.074   5.790   4.983
 3611TIP3   OH210838   0.277   3.251   0.573
 3611TIP3    H110839   0.205   3.208   0.619
 3611TIP3    H210840   0.237   3.329   0.534
 3612TIP3   OH210841   2.160   2.427   4.069
 3612TIP3    H110842   2.201   2.347   4.037
 3612TIP3    H210843   2.124   2.469   3.991
 3613TIP3   OH210844   3.402   5.436   4.276
 3613TIP3    H110845   3.421   5.429   4.369
 3613TIP3    H210846   3.321   5.487   4.271
 3614TIP3   OH210847   2.387   4.443   0.289
 3614TIP3    H110848   2.466   4.497   0.293
 3614TIP3    H210849   2.381   4.402   0.375
 3615TIP3   OH210850   5.750   3.855   3.287
 3615TIP3    H110851   5.690   3.870   3.214
 3615TIP3    H210852   5.798   3.776   3.262
 3616TIP3   OH210853   1.427   5.212   3.951
 3616TIP3    H110854   1.499   5.273   3.961
 3616TIP3    H210855   1.348   5.265   3.958
 3617TIP3   OH210856   5.708   5.525   1.367
 3617TIP3    H110857   5.664   5.581   1.302
 3617TIP3    H210858   5.717   5.580   1.444
 3618TIP3   OH210859   3.455   3.992   3.359
 3618TIP3    H110860   3.419   3.913   3.319
 3618TIP3    H210861   3.532   3.961   3.407
 3619TIP3   OH210862   4.790   2.841   1.155
 3619TIP3    H110863   4.879   2.805   1.147
 3619TIP3    H210864   4.747   2.785   1.220
 3620TIP3   OH210865   4.707   2.594   4.315
 3620TIP3    H110866   4.727   2.640   4.397
 3620TIP3    H210867   4.692   2.664   4.252
 3621TIP3   OH210868   2.246   5.456   1.055
 3621TIP3    H110869   2.221   5.426   1.142
 3621TIP3    H210870   2.200   5.396   0.995
 3622TIP3   OH210871   0.400   3.056   2.687
 3622TIP3    H110872   0.435   2.999   2.756
 3622TIP3    H210873   0.426   3.144   2.712
 3623TIP3   OH210874   0.145   0.842   4.068
 3623TIP3    H110875   0.140   0.810   3.977
 3623TIP3    H210876   0.116   0.767   4.121
 3624TIP3   OH210877   2.527   1.313   1.981
 3624TIP3    H110878   2.585   1.324   1.905
 3624TIP3    H210879   2.444   1.351   1.953
 3625TIP3   OH210880   1.839   4.800   0.084
 3625TIP3    H110881   1.838   4.709   0.053
 3625TIP3    H210882   1.823   4.853   0.006
 3626TIP3   OH210883   0.883   0.805   1.513
 3626TIP3    H110884   0.881   0.755   1.432
 3626TIP3    H210885   0.892   0.896   1.486
 3627TIP3   OH210886   4.068   1.582   4.960
 3627TIP3    H110887   4.048   1.601   4.868
 3627TIP3    H210888   4.151   1.536   4.957
 3628TIP3   OH210889   5.155   2.055   1.608
 3628TIP3    H110890   5.177   1.967   1.639
 3628TIP3    H210891   5.059   2.058   1.609
 3629TIP3   OH210892   3.341   5.759   4.182
 3629TIP3    H110893   3.286   5.805   4.245
 3629TIP3    H210894   3.285   5.745   4.106
 3630TIP3   OH210895   5.626   0.981   2.461
 3630TIP3    H110896   5.638   0.918   2.532
 3630TIP3    H210897   5.708   0.979   2.413
 3631TIP3   OH210898   5.776   3.110   2.050
 3631TIP3    H110899   5.866   3.081   2.032
 3631TIP3    H210900   5.724   3.030   2.049
 3632TIP3   OH210901   5.967   4.685   0.186
 3632TIP3    H110902   5.998   4.735   0.110
 3632TIP3    H210903   5.872   4.694   0.183
 3633TIP3   OH210904   4.081   3.068   2.688
 3633TIP3    H110905   4.100   3.059   2.594
 3633TIP3    H210906   4.033   3.151   2.695
 3634TIP3   OH210907   5.246   1.714   3.282
 3634TIP3    H110908   5.286   1.752   3.203
 3634TIP3    H210909   5.158   1.752   3.284
 3635TIP3   OH210910   1.345   4.977   3.353
 3635TIP3    H110911   1.380   5.004   3.269
 3635TIP3    H210912   1.256   5.012   3.355
 3636TIP3   OH210913   3.303   0.320   1.939
 3636TIP3    H110914   3.265   0.392   1.990
 3636TIP3    H210915   3.312   0.249   2.002
 3637TIP3   OH210916   2.558   1.338   3.206
 3637TIP3    H110917   2.580   1.351   3.298
 3637TIP3    H210918   2.466   1.364   3.200
 3638TIP3   OH210919   1.597   4.651   2.306
 3638TIP3    H110920   1.650   4.617   2.233
 3638TIP3    H210921   1.515   4.602   2.301
 3639TIP3   OH210922   2.058   5.442   4.743
 3639TIP3    H110923   1.983   5.408   4.694
 3639TIP3    H210924   2.090   5.515   4.689
 3640TIP3   OH210925   0.319   1.445   2.526
 3640TIP3    H110926   0.282   1.382   2.464
 3640TIP3    H210927   0.396   1.400   2.562
 3641TIP3   OH210928   2.396   5.237   3.055
 3641TIP3    H110929   2.331   5.304   3.032
 3641TIP3    H210930   2.432   5.266   3.138
 3642TIP3   OH210931   4.236   5.667   3.537
 3642TIP3    H110932   4.254   5.673   3.631
 3642TIP3    H210933   4.248   5.756   3.504
 3643TIP3   OH210934   5.872   1.077   1.066
 3643TIP3    H110935   5.792   1.044   1.107
 3643TIP3    H210936   5.843   1.153   1.016
 3644TIP3   OH210937   2.328   4.598   3.551
 3644TIP3    H110938   2.419   4.568   3.540
 3644TIP3    H210939   2.302   4.565   3.637
 3645TIP3   OH210940   1.157   5.629   2.126
 3645TIP3    H110941   1.210   5.678   2.063
 3645TIP3    H210942   1.076   5.679   2.134
 3646TIP3   OH210943   2.264   5.763   1.256
 3646TIP3    H110944   2.333   5.711   1.215
 3646TIP3    H210945   2.304   5.800   1.334
 3647TIP3   OH210946   5.726   1.401   2.499
 3647TIP3    H110947   5.679   1.377   2.419
 3647TIP3    H210948   5.779   1.477   2.474
 3648TIP3   OH210949   3.182   0.537   4.212
 3648TIP3    H110950   3.242   0.557   4.284
 3648TIP3    H210951   3.236   0.544   4.133
 3649TIP3   OH210952   1.434   0.848   0.701
 3649TIP3    H110953   1.459   0.756   0.696
 3649TIP3    H210954   1.366   0.858   0.634
 3650TIP3   OH210955   2.762   4.596   1.146
 3650TIP3    H110956   2.756   4.623   1.238
 3650TIP3    H210957   2.852   4.563   1.137
 3651TIP3   OH210958   1.122   1.764   1.684
 3651TIP3    H110959   1.182   1.812   1.627
 3651TIP3    H210960   1.157   1.777   1.772
 3652TIP3   OH210961   4.261   3.513   3.180
 3652TIP3    H110962   4.346   3.481   3.209
 3652TIP3    H210963   4.273   3.533   3.087
 3653TIP3   OH210964   4.128   3.508   4.124
 3653TIP3    H110965   4.135   3.421   4.084
 3653TIP3    H210966   4.035   3.529   4.120
 3654TIP3   OH210967   3.011   5.321   3.092
 3654TIP3    H110968   2.961   5.402   3.079
 3654TIP3    H210969   2.945   5.253   3.099
 3655TIP3   OH210970   5.295   4.944   2.061
 3655TIP3    H110971   5.364   4.996   2.019
 3655TIP3    H210972   5.316   4.949   2.154
 3656TIP3   OH210973   6.249   4.764   4.683
 3656TIP3    H110974   6.212   4.825   4.619
 3656TIP3    H210975   6.250   4.813   4.765
 3657TIP3   OH210976   5.998   4.819   0.805
 3657TIP3    H110977   6.056   4.833   0.730
 3657TIP3    H210978   5.911   4.839   0.772
 3658TIP3   OH210979   6.051   1.406   2.078
 3658TIP3    H110980   6.030   1.422   1.986
 3658TIP3    H210981   6.073   1.313   2.082
 3659TIP3   OH210982   2.746   0.233   1.613
 3659TIP3    H110983   2.675   0.187   1.568
 3659TIP3    H210984   2.825   0.209   1.565
 3660TIP3   OH210985   1.173   0.891   2.022
 3660TIP3    H110986   1.237   0.915   1.954
 3660TIP3    H210987   1.179   0.962   2.086
 3661TIP3   OH210988   3.783   3.285   4.244
 3661TIP3    H110989   3.699   3.294   4.199
 3661TIP3    H210990   3.827   3.369   4.229
 3662TIP3   OH210991   3.361   5.087   4.615
 3662TIP3    H110992   3.435   5.026   4.622
 3662TIP3    H210993   3.367   5.141   4.694
 3663TIP3   OH210994   1.807   0.128   4.349
 3663TIP3    H110995   1.878   0.173   4.394
 3663TIP3    H210996   1.733   0.132   4.409
 3664TIP3   OH210997   1.929   5.702   0.674
 3664TIP3    H110998   1.988   5.739   0.740
 3664TIP3    H210999   1.857   5.665   0.725
 3665TIP3   OH211000   5.437   3.423   1.651
 3665TIP3    H111001   5.374   3.463   1.712
 3665TIP3    H211002   5.385   3.362   1.600
 3666TIP3   OH211003   1.371   1.538   3.912
 3666TIP3    H111004   1.352   1.445   3.926
 3666TIP3    H211005   1.467   1.544   3.920
 3667TIP3   OH211006   1.488   0.275   0.230
 3667TIP3    H111007   1.441   0.337   0.286
 3667TIP3    H211008   1.573   0.264   0.272
 3668TIP3   OH211009   1.245   1.649   0.393
 3668TIP3    H111010   1.286   1.577   0.346
 3668TIP3    H211011   1.282   1.728   0.353
 3669TIP3   OH211012   0.026   5.912   1.328
 3669TIP3    H111013   0.093   5.845   1.314
 3669TIP3    H211014  -0.026   5.879   1.401
 3670TIP3   OH211015   5.296   3.833   4.658
 3670TIP3    H111016   5.294   3.863   4.749
 3670TIP3    H211017   5.307   3.913   4.607
 3671TIP3   OH211018   6.119   0.845   2.160
 3671TIP3    H111019   6.092   0.875   2.073
 3671TIP3    H211020   6.071   0.762   2.172
 3672TIP3   OH211021   2.405   4.233   0.849
 3672TIP3    H111022   2.382   4.162   0.909
 3672TIP3    H211023   2.497   4.251   0.868
 3673TIP3   OH211024   4.561   3.595   0.667
 3673TIP3    H111025   4.502   3.558   0.733
 3673TIP3    H211026   4.629   3.640   0.718
 3674TIP3   OH211027   5.916   0.587   2.386
 3674TIP3    H111028   5.937   0.651   2.455
 3674TIP3    H211029   5.842   0.538   2.421
 3675TIP3   OH211030   3.043   2.703   2.194
 3675TIP3    H111031   3.009   2.638   2.256
 3675TIP3    H211032   3.133   2.675   2.177
 3676TIP3   OH211033   2.234   3.037   4.276
 3676TIP3    H111034   2.219   3.131   4.263
 3676TIP3    H211035   2.263   3.005   4.191
 3677TIP3   OH211036   3.385   3.803   1.992
 3677TIP3    H111037   3.355   3.799   1.901
 3677TIP3    H211038   3.306   3.824   2.042
 3678TIP3   OH211039   0.463   4.484   1.063
 3678TIP3    H111040   0.489   4.509   1.152
 3678TIP3    H211041   0.368   4.497   1.061
 3679TIP3   OH211042   3.220   3.474   3.105
 3679TIP3    H111043   3.297   3.530   3.092
 3679TIP3    H211044   3.147   3.527   3.072
 3680TIP3   OH211045   5.122   3.761   1.424
 3680TIP3    H111046   5.154   3.826   1.487
 3680TIP3    H211047   5.201   3.723   1.387
 3681TIP3   OH211048   4.250   4.795   4.955
 3681TIP3    H111049   4.321   4.756   5.006
 3681TIP3    H211050   4.171   4.751   4.988
 3682TIP3   OH211051   4.800   1.977   0.538
 3682TIP3    H111052   4.752   1.934   0.468
 3682TIP3    H211053   4.825   2.062   0.501
 3683TIP3   OH211054   3.209   4.436   1.318
 3683TIP3    H111055   3.166   4.371   1.374
 3683TIP3    H211056   3.253   4.384   1.250
 3684TIP3   OH211057   6.079   0.222   3.346
 3684TIP3    H111058   6.128   0.258   3.272
 3684TIP3    H211059   5.995   0.267   3.344
 3685TIP3   OH211060   4.780   5.020   2.191
 3685TIP3    H111061   4.805   5.039   2.281
 3685TIP3    H211062   4.863   5.002   2.146
 3686TIP3   OH211063   4.651   0.994   0.445
 3686TIP3    H111064   4.734   0.998   0.492
 3686TIP3    H211065   4.606   0.918   0.482
 3687TIP3   OH211066   1.179   5.479   1.552
 3687TIP3    H111067   1.176   5.556   1.609
 3687TIP3    H211068   1.257   5.431   1.580
 3688TIP3   OH211069   4.841   3.325   4.818
 3688TIP3    H111070   4.769   3.273   4.852
 3688TIP3    H211071   4.857   3.391   4.887
 3689TIP3   OH211072   6.242   1.334   1.699
 3689TIP3    H111073   6.262   1.291   1.616
 3689TIP3    H211074   6.210   1.264   1.756
 3690TIP3   OH211075   1.900   1.453   1.370
 3690TIP3    H111076   1.970   1.517   1.385
 3690TIP3    H211077   1.942   1.381   1.323
 3691TIP3   OH211078   2.208   1.783   0.943
 3691TIP3    H111079   2.256   1.739   1.013
 3691TIP3    H211080   2.139   1.831   0.988
 3692TIP3   OH211081   0.172   1.262   2.399
 3692TIP3    H111082   0.174   1.220   2.313
 3692TIP3    H211083   0.149   1.192   2.459
 3693TIP3   OH211084   5.519   0.232   2.397
 3693TIP3    H111085   5.554   0.156   2.443
 3693TIP3    H211086   5.461   0.195   2.330
 3694TIP3   OH211087   3.613   2.040   1.394
 3694TIP3    H111088   3.606   2.104   1.324
 3694TIP3    H211089   3.692   1.989   1.373
 3695TIP3   OH211090   0.934   2.127   3.341
 3695TIP3    H111091   0.940   2.083   3.425
 3695TIP3    H211092   0.957   2.218   3.360
 3696TIP3   OH211093   1.925   0.268   4.121
 3696TIP3    H111094   1.912   0.190   4.176
 3696TIP3    H211095   2.008   0.252   4.076
 3697TIP3   OH211096   4.908   2.884   4.191
 3697TIP3    H111097   4.824   2.839   4.176
 3697TIP3    H211098   4.931   2.862   4.282
 3698TIP3   OH211099   1.170   4.505   4.219
 3698TIP3    H111100   1.237   4.437   4.208
 3698TIP3    H211101   1.174   4.556   4.138
 3699TIP3   OH211102   2.891   0.105   3.073
 3699TIP3    H111103   2.907   0.185   3.023
 3699TIP3    H211104   2.969   0.095   3.127
 3700TIP3   OH211105   3.665   2.181   1.804
 3700TIP3    H111106   3.718   2.207   1.880
 3700TIP3    H211107   3.580   2.158   1.841
 3701TIP3   OH211108   0.475   1.437   4.778
 3701TIP3    H111109   0.519   1.367   4.826
 3701TIP3    H211110   0.394   1.397   4.746
 3702TIP3   OH211111   6.242   4.431   2.018
 3702TIP3    H111112   6.288   4.396   1.942
 3702TIP3    H211113   6.312   4.470   2.071
 3703TIP3   OH211114   2.121   5.415   2.301
 3703TIP3    H111115   2.028   5.426   2.325
 3703TIP3    H211116   2.160   5.500   2.318
 3704TIP3   OH211117   0.072   3.721   1.327
 3704TIP3    H111118   0.110   3.797   1.282
 3704TIP3    H211119  -0.003   3.757   1.376
 3705TIP3   OH211120   3.002   3.194   0.087
 3705TIP3    H111121   3.049   3.257   0.032
 3705TIP3    H211122   3.043   3.110   0.067
 3706TIP3   OH211123   5.124   3.802   2.283
 3706TIP3    H111124   5.110   3.740   2.211
 3706TIP3    H211125   5.041   3.850   2.289
 3707TIP3   OH211126   1.841   2.826   0.170
 3707TIP3    H111127   1.916   2.874   0.134
 3707TIP3    H211128   1.843   2.845   0.264
 3708TIP3   OH211129   3.091   2.077   5.141
 3708TIP3    H111130   3.174   2.105   5.179
 3708TIP3    H211131   3.112   1.998   5.092
 3709TIP3   OH211132   0.025   0.466   4.722
 3709TIP3    H111133  -0.040   0.536   4.714
 3709TIP3    H211134   0.085   0.481   4.649
 3710TIP3   OH211135   3.521   4.587   3.946
 3710TIP3    H111136   3.543   4.506   3.900
 3710TIP3    H211137   3.427   4.599   3.929
 3711TIP3   OH211138   3.835   5.874   5.081
 3711TIP3    H111139   3.842   5.968   5.060
 3711TIP3    H211140   3.908   5.858   5.141
 3712TIP3   OH211141   3.294   3.499   2.796
 3712TIP3    H111142   3.199   3.514   2.795
 3712TIP3    H211143   3.320   3.503   2.704
 3713TIP3   OH211144   1.906   3.083   4.629
 3713TIP3    H111145   1.824   3.036   4.613
 3713TIP3    H211146   1.974   3.016   4.625
 3714TIP3   OH211147   5.722   4.266   2.134
 3714TIP3    H111148   5.665   4.193   2.155
 3714TIP3    H211149   5.811   4.230   2.139
 3715TIP3   OH211150   0.412   5.467   4.460
 3715TIP3    H111151   0.416   5.559   4.486
 3715TIP3    H211152   0.502   5.437   4.462
 3716TIP3   OH211153   0.527   2.763   1.062
 3716TIP3    H111154   0.592   2.713   1.012
 3716TIP3    H211155   0.458   2.700   1.081
 3717TIP3   OH211156   1.446   0.277   1.729
 3717TIP3    H111157   1.502   0.334   1.676
 3717TIP3    H211158   1.399   0.223   1.666
 3718TIP3   OH211159   3.087   5.292   4.889
 3718TIP3    H111160   3.071   5.341   4.970
 3718TIP3    H211161   3.099   5.359   4.822
 3719TIP3   OH211162   2.034   5.365  -0.029
 3719TIP3    H111163   1.957   5.322   0.009
 3719TIP3    H211164   2.106   5.342   0.029
 3720TIP3   OH211165   4.107   3.524   3.720
 3720TIP3    H111166   4.110   3.553   3.629
 3720TIP3    H211167   4.198   3.511   3.745
 3721TIP3   OH211168   2.954   4.967   3.007
 3721TIP3    H111169   3.042   4.938   3.030
 3721TIP3    H211170   2.964   5.013   2.924
 3722TIP3   OH211171   5.027   0.139   1.360
 3722TIP3    H111172   5.015   0.199   1.433
 3722TIP3    H211173   5.049   0.055   1.401
 3723TIP3   OH211174   2.813   4.109   0.121
 3723TIP3    H111175   2.770   4.168   0.183
 3723TIP3    H211176   2.741   4.079   0.065
 3724TIP3   OH211177   5.710   0.624   0.333
 3724TIP3    H111178   5.709   0.534   0.302
 3724TIP3    H211179   5.749   0.675   0.262
 3725TIP3   OH211180   4.229   2.671   2.052
 3725TIP3    H111181   4.149   2.710   2.016
 3725TIP3    H211182   4.201   2.626   2.132
 3726TIP3   OH211183   1.585   0.143   1.908
 3726TIP3    H111184   1.642   0.214   1.938
 3726TIP3    H211185   1.536   0.181   1.836
 3727TIP3   OH211186   3.361   4.367   4.065
 3727TIP3    H111187   3.309   4.413   3.999
 3727TIP3    H211188   3.296   4.334   4.127
 3728TIP3   OH211189   4.850   5.257   2.709
 3728TIP3    H111190   4.912   5.275   2.780
 3728TIP3    H211191   4.819   5.168   2.727
 3729TIP3   OH211192   4.042   3.379   2.294
 3729TIP3    H111193   3.958   3.424   2.294
 3729TIP3    H211194   4.028   3.301   2.241
 3730TIP3   OH211195   0.578   3.636   3.515
 3730TIP3    H111196   0.612   3.595   3.435
 3730TIP3    H211197   0.599   3.574   3.585
 3731TIP3   OH211198   1.594   5.373   3.719
 3731TIP3    H111199   1.519   5.360   3.661
 3731TIP3    H211200   1.652   5.299   3.700
 3732TIP3   OH211201   0.487   0.255   0.640
 3732TIP3    H111202   0.481   0.172   0.593
 3732TIP3    H211203   0.399   0.291   0.636
 3733TIP3   OH211204   2.548   3.073   2.804
 3733TIP3    H111205   2.525   3.043   2.716
 3733TIP3    H211206   2.631   3.029   2.823
 3734TIP3   OH211207   3.832   3.911   1.366
 3734TIP3    H111208   3.849   3.898   1.272
 3734TIP3    H211209   3.883   3.989   1.388
 3735TIP3   OH211210   2.284   3.577   0.228
 3735TIP3    H111211   2.264   3.524   0.305
 3735TIP3    H211212   2.201   3.585   0.181
 3736TIP3   OH211213   5.108   4.063   1.966
 3736TIP3    H111214   5.070   4.034   2.048
 3736TIP3    H211215   5.050   4.132   1.935
 3737TIP3   OH211216   0.596   4.514   4.390
 3737TIP3    H111217   0.652   4.586   4.421
 3737TIP3    H211218   0.597   4.522   4.295
 3738TIP3   OH211219   2.754   2.801   4.514
 3738TIP3    H111220   2.843   2.834   4.526
 3738TIP3    H211221   2.704   2.840   4.587
 3739TIP3   OH211222   4.529   3.854   2.508
 3739TIP3    H111223   4.438   3.853   2.479
 3739TIP3    H211224   4.568   3.929   2.463
 3740TIP3   OH211225   3.237  -0.006   2.883
 3740TIP3    H111226   3.311   0.036   2.926
 3740TIP3    H211227   3.176   0.065   2.866
 3741TIP3   OH211228   0.336   0.089   4.596
 3741TIP3    H111229   0.259   0.114   4.546
 3741TIP3    H211230   0.364   0.006   4.558
 3742TIP3   OH211231   2.581   3.719   1.205
 3742TIP3    H111232   2.581   3.726   1.109
 3742TIP3    H211233   2.624   3.799   1.235
 3743TIP3   OH211234   0.803   0.917   0.290
 3743TIP3    H111235   0.735   0.960   0.342
 3743TIP3    H211236   0.756   0.874   0.219
 3744TIP3   OH211237   5.905   3.625   4.484
 3744TIP3    H111238   5.954   3.545   4.505
 3744TIP3    H211239   5.964   3.674   4.426
 3745TIP3   OH211240   1.657   4.122   1.480
 3745TIP3    H111241   1.563   4.137   1.473
 3745TIP3    H211242   1.697   4.203   1.448
 3746TIP3   OH211243   4.556   2.572   1.077
 3746TIP3    H111244   4.568   2.477   1.085
 3746TIP3    H211245   4.597   2.608   1.155
 3747TIP3   OH211246   2.442   5.655   2.042
 3747TIP3    H111247   2.518   5.644   1.985
 3747TIP3    H211248   2.404   5.739   2.015
 3748TIP3   OH211249   0.861   0.500   4.153
 3748TIP3    H111250   0.778   0.465   4.123
 3748TIP3    H211251   0.873   0.461   4.240
 3749TIP3   OH211252   1.221   0.436   0.063
 3749TIP3    H111253   1.150   0.399   0.011
 3749TIP3    H211254   1.300   0.416   0.013
 3750TIP3   OH211255   4.479   5.125   4.151
 3750TIP3    H111256   4.471   5.041   4.195
 3750TIP3    H211257   4.458   5.190   4.218
 3751TIP3   OH211258   1.146   4.313   0.906
 3751TIP3    H111259   1.193   4.306   0.823
 3751TIP3    H211260   1.055   4.291   0.884
 3752TIP3   OH211261   0.562   5.681   2.520
 3752TIP3    H111262   0.642   5.658   2.472
 3752TIP3    H211263   0.546   5.773   2.499
 3753TIP3   OH211264   5.255   2.061   4.649
 3753TIP3    H111265   5.254   1.983   4.704
 3753TIP3    H211266   5.270   2.028   4.561
 3754TIP3   OH211267   3.295   1.265   2.024
 3754TIP3    H111268   3.254   1.346   2.057
 3754TIP3    H211269   3.225   1.201   2.024
 3755TIP3   OH211270   3.750   2.291   3.720
 3755TIP3    H111271   3.789   2.206   3.703
 3755TIP3    H211272   3.656   2.276   3.709
 3756TIP3   OH211273   1.415   2.747   1.951
 3756TIP3    H111274   1.331   2.778   1.916
 3756TIP3    H211275   1.447   2.820   2.004
 3757TIP3   OH211276   4.068   4.723   1.739
 3757TIP3    H111277   4.140   4.706   1.678
 3757TIP3    H211278   4.104   4.788   1.799
 3758TIP3   OH211279   3.797   3.565   1.925
 3758TIP3    H111280   3.732   3.610   1.870
 3758TIP3    H211281   3.880   3.578   1.879
 3759TIP3   OH211282   1.838   4.662   3.643
 3759TIP3    H111283   1.907   4.727   3.652
 3759TIP3    H211284   1.883   4.585   3.607
 3760TIP3   OH211285   5.736   2.018   2.854
 3760TIP3    H111286   5.802   1.959   2.820
 3760TIP3    H211287   5.783   2.098   2.875
 3761TIP3   OH211288   1.759   3.964   3.586
 3761TIP3    H111289   1.716   3.958   3.501
 3761TIP3    H211290   1.801   4.051   3.585
 3762TIP3   OH211291   3.114   4.380   0.043
 3762TIP3    H111292   3.090   4.374   0.136
 3762TIP3    H211293   3.171   4.457   0.038
 3763TIP3   OH211294   1.702   4.918   4.391
 3763TIP3    H111295   1.659   4.925   4.306
 3763TIP3    H211296   1.631   4.899   4.453
 3764TIP3   OH211297   2.111  -0.010   4.065
 3764TIP3    H111298   2.125   0.029   4.151
 3764TIP3    H211299   2.154   0.050   4.004
 3765TIP3   OH211300   0.852   1.029   3.525
 3765TIP3    H111301   0.840   0.955   3.466
 3765TIP3    H211302   0.869   0.990   3.611
 3766TIP3   OH211303   3.816   3.939   4.789
 3766TIP3    H111304   3.841   3.849   4.769
 3766TIP3    H211305   3.757   3.964   4.717
 3767TIP3   OH211306   3.003   1.027   3.961
 3767TIP3    H111307   2.952   1.086   4.017
 3767TIP3    H211308   2.952   1.019   3.881
 3768TIP3   OH211309   3.160   1.797   2.749
 3768TIP3    H111310   3.236   1.850   2.724
 3768TIP3    H211311   3.197   1.709   2.764
 3769TIP3   OH211312   0.524   1.461   0.601
 3769TIP3    H111313   0.553   1.469   0.510
 3769TIP3    H211314   0.527   1.368   0.620
 3770TIP3   OH211315   5.278   5.506   2.019
 3770TIP3    H111316   5.252   5.439   1.956
 3770TIP3    H211317   5.321   5.573   1.966
 3771TIP3   OH211318   4.095   5.540   4.438
 3771TIP3    H111319   4.021   5.504   4.388
 3771TIP3    H211320   4.169   5.484   4.413
 3772TIP3   OH211321   1.831   2.224   1.226
 3772TIP3    H111322   1.824   2.205   1.133
 3772TIP3    H211323   1.892   2.299   1.231
 3773TIP3   OH211324   6.210   5.802   1.560
 3773TIP3    H111325   6.157   5.723   1.549
 3773TIP3    H211326   6.272   5.781   1.630
 3774TIP3   OH211327   1.709   2.157   2.226
 3774TIP3    H111328   1.636   2.096   2.239
 3774TIP3    H211329   1.738   2.140   2.136
 3775TIP3   OH211330   1.937   0.317   0.631
 3775TIP3    H111331   1.893   0.354   0.555
 3775TIP3    H211332   1.882   0.244   0.658
 3776TIP3   OH211333   6.062   3.878   3.659
 3776TIP3    H111334   6.145   3.888   3.705
 3776TIP3    H211335   6.069   3.941   3.586
 3777TIP3   OH211336   3.928   4.151   1.447
 3777TIP3    H111337   3.853   4.209   1.437
 3777TIP3    H211338   3.998   4.207   1.480
 3778TIP3   OH211339   2.837   1.812   1.903
 3778TIP3    H111340   2.848   1.827   1.996
 3778TIP3    H211341   2.889   1.734   1.885
 3779TIP3   OH211342   5.774   0.477   3.661
 3779TIP3    H111343   5.861   0.502   3.632
 3779TIP3    H211344   5.716   0.540   3.617
 3780TIP3   OH211345   0.558   2.419   0.051
 3780TIP3    H111346   0.540   2.325   0.046
 3780TIP3    H211347   0.503   2.449   0.123
 3781TIP3   OH211348   1.086   1.164   1.616
 3781TIP3    H111349   1.077   1.113   1.535
 3781TIP3    H211350   1.063   1.254   1.591
 3782TIP3   OH211351   3.716   3.072   3.357
 3782TIP3    H111352   3.758   3.125   3.425
 3782TIP3    H211353   3.667   3.135   3.304
 3783TIP3   OH211354   5.355   1.222   2.194
 3783TIP3    H111355   5.424   1.192   2.135
 3783TIP3    H211356   5.286   1.155   2.185
 3784TIP3   OH211357   1.130   4.720   3.553
 3784TIP3    H111358   1.198   4.760   3.607
 3784TIP3    H211359   1.070   4.681   3.616
 3785TIP3   OH211360   1.872   4.506   2.733
 3785TIP3    H111361   1.892   4.496   2.826
 3785TIP3    H211362   1.886   4.599   2.715
 3786TIP3   OH211363   3.771   0.433   4.691
 3786TIP3    H111364   3.711   0.500   4.724
 3786TIP3    H211365   3.803   0.388   4.769
 3787TIP3   OH211366   1.703   5.457   2.740
 3787TIP3    H111367   1.626   5.433   2.792
 3787TIP3    H211368   1.776   5.414   2.783
 3788TIP3   OH211369   1.328   3.405   0.103
 3788TIP3    H111370   1.346   3.312   0.089
 3788TIP3    H211371   1.240   3.408   0.140
 3789TIP3   OH211372   1.760   0.975   1.909
 3789TIP3    H111373   1.815   0.953   1.983
 3789TIP3    H211374   1.705   1.048   1.940
 3790TIP3   OH211375   2.366   2.526   3.545
 3790TIP3    H111376   2.452   2.497   3.515
 3790TIP3    H211377   2.375   2.535   3.640
 3791TIP3   OH211378   2.099   2.330   3.620
 3791TIP3    H111379   2.005   2.340   3.605
 3791TIP3    H211380   2.109   2.239   3.648
 3792TIP3   OH211381   3.957   4.969   4.961
 3792TIP3    H111382   3.888   5.034   4.947
 3792TIP3    H211383   3.987   4.985   5.051
 3793TIP3   OH211384   0.104   1.149   0.777
 3793TIP3    H111385   0.074   1.186   0.694
 3793TIP3    H211386   0.053   1.068   0.786
 3794TIP3   OH211387   4.882   0.820   0.923
 3794TIP3    H111388   4.847   0.761   0.857
 3794TIP3    H211389   4.956   0.863   0.880
 3795TIP3   OH211390   2.813   0.336   2.630
 3795TIP3    H111391   2.888   0.352   2.573
 3795TIP3    H211392   2.738   0.369   2.580
 3796TIP3   OH211393   2.454   2.902   4.376
 3796TIP3    H111394   2.438   2.808   4.370
 3796TIP3    H211395   2.389   2.941   4.317
 3797TIP3   OH211396   2.087   3.920   3.561
 3797TIP3    H111397   2.082   3.917   3.657
 3797TIP3    H211398   2.070   4.012   3.539
 3798TIP3   OH211399   2.621   3.490   1.410
 3798TIP3    H111400   2.602   3.560   1.348
 3798TIP3    H211401   2.675   3.532   1.477
 3799TIP3   OH211402   3.216   5.159   4.349
 3799TIP3    H111403   3.246   5.082   4.301
 3799TIP3    H211404   3.190   5.221   4.281
 3800TIP3   OH211405   2.531   0.073   0.485
 3800TIP3    H111406   2.560   0.164   0.490
 3800TIP3    H211407   2.436   0.078   0.498
 3801TIP3   OH211408   2.309   0.000   3.802
 3801TIP3    H111409   2.375   0.013   3.870
 3801TIP3    H211410   2.341   0.053   3.728
 3802TIP3   OH211411   5.320   3.178   0.552
 3802TIP3    H111412   5.228   3.154   0.568
 3802TIP3    H211413   5.352   3.209   0.637
 3803TIP3   OH211414   3.038   0.296   4.186
 3803TIP3    H111415   3.079   0.364   4.239
 3803TIP3    H211416   3.005   0.342   4.109
 3804TIP3   OH211417   4.545   5.462   3.020
 3804TIP3    H111418   4.628   5.443   2.977
 3804TIP3    H211419   4.494   5.381   3.012
 3805TIP3   OH211420   1.842   0.449   2.287
 3805TIP3    H111421   1.860   0.541   2.266
 3805TIP3    H211422   1.891   0.432   2.367
 3806TIP3   OH211423   1.930   0.302   3.682
 3806TIP3    H111424   1.858   0.282   3.741
 3806TIP3    H211425   1.946   0.221   3.634
 3807TIP3   OH211426   6.070   1.124   2.098
 3807TIP3    H111427   5.978   1.148   2.112
 3807TIP3    H211428   6.104   1.107   2.186
 3808TIP3   OH211429   2.441   2.445   3.130
 3808TIP3    H111430   2.416   2.399   3.050
 3808TIP3    H211431   2.372   2.511   3.142
 3809TIP3   OH211432   2.049   4.952   1.980
 3809TIP3    H111433   1.970   4.998   1.951
 3809TIP3    H211434   2.117   5.018   1.981
 3810TIP3   OH211435   6.289   1.690   3.484
 3810TIP3    H111436   6.203   1.732   3.488
 3810TIP3    H211437   6.288   1.638   3.404
 3811TIP3   OH211438   3.747   5.535   4.138
 3811TIP3    H111439   3.702   5.612   4.172
 3811TIP3    H211440   3.679   5.487   4.091
 3812TIP3   OH211441   2.710   0.047   2.728
 3812TIP3    H111442   2.729   0.128   2.680
 3812TIP3    H211443   2.617   0.052   2.749
 3813TIP3   OH211444   3.519   0.476   5.031
 3813TIP3    H111445   3.546   0.429   5.109
 3813TIP3    H211446   3.429   0.504   5.049
 3814TIP3   OH211447   6.333   2.480   4.715
 3814TIP3    H111448   6.271   2.456   4.646
 3814TIP3    H211449   6.278   2.507   4.789
 3815TIP3   OH211450   0.957   0.175   1.311
 3815TIP3    H111451   0.883   0.166   1.251
 3815TIP3    H211452   0.917   0.188   1.397
 3816TIP3   OH211453   2.308   0.458   4.057
 3816TIP3    H111454   2.303   0.440   4.150
 3816TIP3    H211455   2.401   0.474   4.040
 3817TIP3   OH211456   4.773   1.005   2.337
 3817TIP3    H111457   4.844   1.050   2.382
 3817TIP3    H211458   4.698   1.014   2.395
 3818TIP3   OH211459   6.061   5.795   1.111
 3818TIP3    H111460   6.022   5.720   1.156
 3818TIP3    H211461   6.039   5.870   1.165
 3819TIP3   OH211462   1.405   4.529   0.666
 3819TIP3    H111463   1.474   4.503   0.605
 3819TIP3    H211464   1.381   4.618   0.639
 3820TIP3   OH211465   6.277   0.421   2.150
 3820TIP3    H111466   6.277   0.327   2.165
 3820TIP3    H211467   6.197   0.437   2.100
 3821TIP3   OH211468   0.543   1.725   0.970
 3821TIP3    H111469   0.532   1.779   0.892
 3821TIP3    H211470   0.635   1.737   0.995
 3822TIP3   OH211471   5.067   3.300   1.428
 3822TIP3    H111472   5.028   3.219   1.395
 3822TIP3    H211473   5.027   3.313   1.514
 3823TIP3   OH211474   2.358   3.565   2.426
 3823TIP3    H111475   2.278   3.579   2.375
 3823TIP3    H211476   2.333   3.499   2.491
 3824TIP3   OH211477   2.094   4.313   1.139
 3824TIP3    H111478   2.098   4.400   1.180
 3824TIP3    H211479   2.054   4.329   1.054
 3825TIP3   OH211480   5.232   3.955   1.613
 3825TIP3    H111481   5.245   4.050   1.621
 3825TIP3    H211482   5.140   3.942   1.635
 3826TIP3   OH211483   4.295   2.788   4.007
 3826TIP3    H111484   4.316   2.881   3.998
 3826TIP3    H211485   4.372   2.742   3.976
 3827TIP3   OH211486   2.154   4.250   5.000
 3827TIP3    H111487   2.072   4.216   4.964
 3827TIP3    H211488   2.166   4.335   4.957
 3828TIP3   OH211489   1.152   2.018   2.910
 3828TIP3    H111490   1.242   2.020   2.877
 3828TIP3    H211491   1.153   1.951   2.978
 3829TIP3   OH211492   4.289   0.309   2.611
 3829TIP3    H111493   4.257   0.400   2.612
 3829TIP3    H211494   4.361   0.308   2.673
 3830TIP3   OH211495   3.334   3.869   2.292
 3830TIP3    H111496   3.319   3.831   2.379
 3830TIP3    H211497   3.250   3.861   2.247
 3831TIP3   OH211498   3.147   4.885   2.599
 3831TIP3    H111499   3.210   4.885   2.672
 3831TIP3    H211500   3.092   4.808   2.614
 3832TIP3   OH211501   3.569   5.800   3.706
 3832TIP3    H111502   3.479   5.788   3.738
 3832TIP3    H211503   3.586   5.893   3.718
 3833TIP3   OH211504   1.756   4.256   3.702
 3833TIP3    H111505   1.811   4.284   3.629
 3833TIP3    H211506   1.790   4.304   3.778
 3834TIP3   OH211507   1.211   3.400   3.977
 3834TIP3    H111508   1.164   3.482   3.965
 3834TIP3    H211509   1.203   3.381   4.071
 3835TIP3   OH211510   3.218   2.421   0.821
 3835TIP3    H111511   3.180   2.499   0.861
 3835TIP3    H211512   3.159   2.400   0.748
 3836TIP3   OH211513   0.491   2.344   1.237
 3836TIP3    H111514   0.545   2.344   1.316
 3836TIP3    H211515   0.410   2.388   1.263
 3837TIP3   OH211516   0.223   0.094   4.835
 3837TIP3    H111517   0.191   0.183   4.853
 3837TIP3    H211518   0.267   0.101   4.750
 3838TIP3   OH211519   3.325   3.269   1.777
 3838TIP3    H111520   3.414   3.233   1.786
 3838TIP3    H211521   3.339   3.363   1.767
 3839TIP3   OH211522   1.652   1.010   2.897
 3839TIP3    H111523   1.591   0.945   2.863
 3839TIP3    H211524   1.644   1.084   2.837
 3840TIP3   OH211525   3.033   0.970   3.318
 3840TIP3    H111526   3.016   1.056   3.358
 3840TIP3    H211527   3.114   0.941   3.360
 3841TIP3   OH211528   3.169   5.838   2.271
 3841TIP3    H111529   3.201   5.887   2.196
 3841TIP3    H211530   3.076   5.861   2.277
 3842TIP3   OH211531   0.864   2.728   1.166
 3842TIP3    H111532   0.952   2.693   1.181
 3842TIP3    H211533   0.805   2.657   1.190
 3843TIP3   OH211534   5.836   3.886   4.253
 3843TIP3    H111535   5.930   3.875   4.267
 3843TIP3    H211536   5.820   3.979   4.271
 3844TIP3   OH211537   4.969   0.821   0.425
 3844TIP3    H111538   4.947   0.892   0.365
 3844TIP3    H211539   4.885   0.793   0.461
 3845TIP3   OH211540   0.888   1.481   0.228
 3845TIP3    H111541   0.933   1.465   0.145
 3845TIP3    H211542   0.840   1.563   0.214
 3846TIP3   OH211543   0.523   3.924   3.532
 3846TIP3    H111544   0.608   3.962   3.509
 3846TIP3    H211545   0.533   3.830   3.514
 3847TIP3   OH211546   0.456   2.388   3.422
 3847TIP3    H111547   0.474   2.482   3.414
 3847TIP3    H211548   0.528   2.354   3.475
 3848TIP3   OH211549   1.722   3.542   3.890
 3848TIP3    H111550   1.813   3.548   3.918
 3848TIP3    H211551   1.688   3.466   3.938
 3849TIP3   OH211552   1.897   5.558   3.641
 3849TIP3    H111553   1.957   5.486   3.662
 3849TIP3    H211554   1.853   5.578   3.724
 3850TIP3   OH211555   4.138   2.325   4.639
 3850TIP3    H111556   4.168   2.286   4.721
 3850TIP3    H211557   4.081   2.259   4.601
 3851TIP3   OH211558   3.088   5.355   4.168
 3851TIP3    H111559   3.068   5.414   4.096
 3851TIP3    H211560   3.059   5.401   4.247
 3852TIP3   OH211561   1.069   3.460   0.562
 3852TIP3    H111562   1.109   3.480   0.647
 3852TIP3    H211563   1.100   3.530   0.504
 3853TIP3   OH211564   2.210   5.014   4.465
 3853TIP3    H111565   2.287   5.049   4.420
 3853TIP3    H211566   2.176   4.947   4.405
 3854TIP3   OH211567   5.288   5.242   3.163
 3854TIP3    H111568   5.344   5.313   3.195
 3854TIP3    H211569   5.259   5.272   3.076
 3855TIP3   OH211570   3.409   1.397   1.791
 3855TIP3    H111571   3.364   1.374   1.871
 3855TIP3    H211572   3.427   1.313   1.749
 3856TIP3   OH211573   4.356   5.758   1.177
 3856TIP3    H111574   4.440   5.733   1.138
 3856TIP3    H211575   4.349   5.703   1.255
 3857TIP3   OH211576   3.968   1.182   3.275
 3857TIP3    H111577   4.036   1.115   3.279
 3857TIP3    H211578   3.889   1.139   3.304
 3858TIP3   OH211579   4.504   4.356   4.939
 3858TIP3    H111580   4.410   4.369   4.923
 3858TIP3    H211581   4.515   4.261   4.938
 3859TIP3   OH211582   4.521   3.035   1.608
 3859TIP3    H111583   4.586   3.096   1.572
 3859TIP3    H211584   4.477   3.085   1.677
 3860TIP3   OH211585   4.160   1.212   1.438
 3860TIP3    H111586   4.229   1.242   1.497
 3860TIP3    H211587   4.117   1.292   1.408
 3861TIP3   OH211588   1.617   4.657   5.011
 3861TIP3    H111589   1.528   4.688   5.026
 3861TIP3    H211590   1.659   4.661   5.098
 3862TIP3   OH211591   3.323   1.476   1.230
 3862TIP3    H111592   3.266   1.525   1.289
 3862TIP3    H211593   3.412   1.492   1.262
 3863TIP3   OH211594   4.835   1.996   4.124
 3863TIP3    H111595   4.761   1.937   4.140
 3863TIP3    H211596   4.913   1.941   4.133
 3864TIP3   OH211597   4.212   0.176   4.177
 3864TIP3    H111598   4.140   0.161   4.239
 3864TIP3    H211599   4.169   0.208   4.098
 3865TIP3   OH211600   3.389   0.621   1.820
 3865TIP3    H111601   3.428   0.579   1.743
 3865TIP3    H211602   3.438   0.585   1.894
 3866TIP3   OH211603   1.338   4.803   0.653
 3866TIP3    H111604   1.411   4.846   0.609
 3866TIP3    H211605   1.344   4.833   0.744
 3867TIP3   OH211606   2.696   5.363   4.806
 3867TIP3    H111607   2.636   5.393   4.875
 3867TIP3    H211608   2.643   5.301   4.755
 3868TIP3   OH211609   4.579   5.459   4.132
 3868TIP3    H111610   4.652   5.428   4.185
 3868TIP3    H211611   4.502   5.416   4.168
 3869TIP3   OH211612   5.159   5.360   3.529
 3869TIP3    H111613   5.076   5.324   3.496
 3869TIP3    H211614   5.178   5.433   3.471
 3870TIP3   OH211615   2.705   0.881   4.241
 3870TIP3    H111616   2.697   0.800   4.290
 3870TIP3    H211617   2.750   0.856   4.160
 3871TIP3   OH211618   6.225   3.425   5.098
 3871TIP3    H111619   6.146   3.478   5.091
 3871TIP3    H211620   6.289   3.484   5.139
 3872TIP3   OH211621   4.599   1.974   4.657
 3872TIP3    H111622   4.550   2.028   4.595
 3872TIP3    H211623   4.594   2.022   4.739
 3873TIP3   OH211624   1.739   0.201   0.369
 3873TIP3    H111625   1.719   0.157   0.452
 3873TIP3    H211626   1.791   0.137   0.320
 3874TIP3   OH211627   5.309   4.415   4.239
 3874TIP3    H111628   5.272   4.502   4.252
 3874TIP3    H211629   5.270   4.384   4.157
 3875TIP3   OH211630   4.908   0.915   5.141
 3875TIP3    H111631   4.871   0.946   5.059
 3875TIP3    H211632   4.865   0.968   5.208
 3876TIP3   OH211633   1.249   3.436   1.856
 3876TIP3    H111634   1.250   3.483   1.773
 3876TIP3    H211635   1.157   3.433   1.882
 3877TIP3   OH211636   4.263   5.405   4.249
 3877TIP3    H111637   4.201   5.347   4.206
 3877TIP3    H211638   4.321   5.346   4.298
 3878TIP3   OH211639   5.423   1.658   0.708
 3878TIP3    H111640   5.477   1.578   0.709
 3878TIP3    H211641   5.457   1.709   0.634
 3879TIP3   OH211642   2.720   0.240   1.886
 3879TIP3    H111643   2.752   0.239   1.795
 3879TIP3    H211644   2.658   0.167   1.890
 3880TIP3   OH211645   5.233   5.758   0.238
 3880TIP3    H111646   5.285   5.801   0.305
 3880TIP3    H211647   5.298   5.719   0.179
 3881TIP3   OH211648   5.678   1.022   1.254
 3881TIP3    H111649   5.636   1.108   1.262
 3881TIP3    H211650   5.651   0.976   1.333
 3882TIP3   OH211651   0.990   4.511   3.733
 3882TIP3    H111652   0.925   4.475   3.795
 3882TIP3    H211653   1.062   4.448   3.735
 3883TIP3   OH211654   4.227   2.325   0.729
 3883TIP3    H111655   4.256   2.235   0.719
 3883TIP3    H211656   4.306   2.377   0.719
 3884TIP3   OH211657   1.980   2.866   2.438
 3884TIP3    H111658   2.032   2.872   2.358
 3884TIP3    H211659   1.981   2.955   2.473
 3885TIP3   OH211660   0.484   3.736   0.808
 3885TIP3    H111661   0.569   3.760   0.847
 3885TIP3    H211662   0.421   3.793   0.852
 3886TIP3   OH211663   0.130   1.565   4.691
 3886TIP3    H111664   0.212   1.600   4.725
 3886TIP3    H211665   0.141   1.470   4.697
 3887TIP3   OH211666   2.668   1.434   4.054
 3887TIP3    H111667   2.680   1.425   4.149
 3887TIP3    H211668   2.650   1.345   4.024
 3888TIP3   OH211669   1.704   3.944   4.830
 3888TIP3    H111670   1.762   3.887   4.881
 3888TIP3    H211671   1.687   3.895   4.749
 3889TIP3   OH211672   4.831   5.846   2.067
 3889TIP3    H111673   4.793   5.865   2.153
 3889TIP3    H211674   4.838   5.751   2.064
 3890TIP3   OH211675   3.825   2.392   4.025
 3890TIP3    H111676   3.799   2.364   4.113
 3890TIP3    H211677   3.898   2.334   4.002
 3891TIP3   OH211678   5.604   3.699   2.254
 3891TIP3    H111679   5.668   3.631   2.232
 3891TIP3    H211680   5.593   3.692   2.349
 3892TIP3   OH211681   4.475   2.117   0.890
 3892TIP3    H111682   4.562   2.092   0.859
 3892TIP3    H211683   4.416   2.093   0.819
 3893TIP3   OH211684   1.155   1.884   4.527
 3893TIP3    H111685   1.213   1.934   4.584
 3893TIP3    H211686   1.074   1.874   4.577
 3894TIP3   OH211687   0.460   5.570   1.559
 3894TIP3    H111688   0.494   5.620   1.485
 3894TIP3    H211689   0.429   5.488   1.521
 3895TIP3   OH211690   1.570   4.507   0.454
 3895TIP3    H111691   1.578   4.421   0.414
 3895TIP3    H211692   1.539   4.564   0.384
 3896TIP3   OH211693   1.292   4.895   1.470
 3896TIP3    H111694   1.315   4.932   1.385
 3896TIP3    H211695   1.207   4.935   1.491
 3897TIP3   OH211696   0.225   0.541   0.424
 3897TIP3    H111697   0.187   0.487   0.355
 3897TIP3    H211698   0.150   0.581   0.467
 3898TIP3   OH211699   3.216   5.301   0.320
 3898TIP3    H111700   3.135   5.250   0.325
 3898TIP3    H211701   3.221   5.329   0.228
 3899TIP3   OH211702   3.014   2.645   2.642
 3899TIP3    H111703   2.975   2.577   2.697
 3899TIP3    H211704   3.008   2.610   2.553
 3900TIP3   OH211705   4.363   3.641   3.652
 3900TIP3    H111706   4.301   3.714   3.655
 3900TIP3    H211707   4.446   3.680   3.680
 3901TIP3   OH211708   4.050   0.732   1.766
 3901TIP3    H111709   3.996   0.672   1.713
 3901TIP3    H211710   4.084   0.795   1.703
 3902TIP3   OH211711   0.597   3.240   4.668
 3902TIP3    H111712   0.582   3.302   4.596
 3902TIP3    H211713   0.569   3.288   4.746
 3903TIP3   OH211714   5.651   0.394   1.693
 3903TIP3    H111715   5.725   0.343   1.660
 3903TIP3    H211716   5.592   0.329   1.732
 3904TIP3   OH211717   0.687   5.406   0.234
 3904TIP3    H111718   0.645   5.332   0.276
 3904TIP3    H211719   0.643   5.415   0.150
 3905TIP3   OH211720   2.944   4.272   3.046
 3905TIP3    H111721   3.015   4.330   3.076
 3905TIP3    H211722   2.913   4.313   2.965
 3906TIP3   OH211723   5.264   2.156   2.106
 3906TIP3    H111724   5.208   2.187   2.177
 3906TIP3    H211725   5.352   2.183   2.131
 3907TIP3   OH211726   0.339   4.884   1.048
 3907TIP3    H111727   0.332   4.973   1.015
 3907TIP3    H211728   0.409   4.844   0.996
 3908TIP3   OH211729   0.090   2.101   4.681
 3908TIP3    H111730   0.087   2.131   4.590
 3908TIP3    H211731   0.007   2.131   4.719
 3909TIP3   OH211732   0.071   0.940   4.772
 3909TIP3    H111733   0.035   0.886   4.842
 3909TIP3    H211734   0.006   1.009   4.758
 3910TIP3   OH211735   3.513   3.752   0.008
 3910TIP3    H111736   3.466   3.816  -0.046
 3910TIP3    H211737   3.476   3.762   0.096
 3911TIP3   OH211738   5.133   3.209   2.892
 3911TIP3    H111739   5.042   3.192   2.915
 3911TIP3    H211740   5.164   3.127   2.853
 3912TIP3   OH211741   0.432   4.073   0.725
 3912TIP3    H111742   0.414   4.016   0.799
 3912TIP3    H211743   0.524   4.100   0.738
 3913TIP3   OH211744   2.920   1.121   2.951
 3913TIP3    H111745   2.856   1.072   3.003
 3913TIP3    H211746   2.869   1.158   2.879
 3914TIP3   OH211747   6.240   2.009   3.990
 3914TIP3    H111748   6.201   2.071   4.051
 3914TIP3    H211749   6.317   1.975   4.036
 3915TIP3   OH211750   6.086   2.452   2.854
 3915TIP3    H111751   6.107   2.539   2.818
 3915TIP3    H211752   6.058   2.470   2.944
 3916TIP3   OH211753   4.755   1.950   3.084
 3916TIP3    H111754   4.680   1.890   3.080
 3916TIP3    H211755   4.816   1.917   3.018
 3917TIP3   OH211756   5.092   2.920   2.977
 3917TIP3    H111757   5.035   2.981   3.022
 3917TIP3    H211758   5.039   2.885   2.905
 3918TIP3   OH211759   4.198   1.310   0.202
 3918TIP3    H111760   4.124   1.370   0.211
 3918TIP3    H211761   4.242   1.313   0.287
 3919TIP3   OH211762   2.410   4.493   0.027
 3919TIP3    H111763   2.330   4.536  -0.005
 3919TIP3    H211764   2.386   4.459   0.113
 3920TIP3   OH211765   5.421   1.381   1.432
 3920TIP3    H111766   5.500   1.417   1.473
 3920TIP3    H211767   5.378   1.332   1.503
 3921TIP3   OH211768   4.941   2.389   3.870
 3921TIP3    H111769   5.020   2.442   3.863
 3921TIP3    H211770   4.954   2.335   3.948
 3922TIP3   OH211771   5.709   3.636   4.285
 3922TIP3    H111772   5.762   3.710   4.257
 3922TIP3    H211773   5.746   3.611   4.370
 3923TIP3   OH211774   1.692   1.997   0.325
 3923TIP3    H111775   1.737   1.917   0.299
 3923TIP3    H211776   1.676   2.044   0.243
 3924TIP3   OH211777   2.571   4.680   3.816
 3924TIP3    H111778   2.509   4.751   3.803
 3924TIP3    H211779   2.569   4.632   3.733
 3925TIP3   OH211780   4.500   2.003   3.325
 3925TIP3    H111781   4.558   2.070   3.289
 3925TIP3    H211782   4.542   1.920   3.302
 3926TIP3   OH211783   4.437   2.984   5.120
 3926TIP3    H111784   4.441   2.899   5.077
 3926TIP3    H211785   4.388   3.040   5.059
 3927TIP3   OH211786   3.967   2.926   2.900
 3927TIP3    H111787   3.905   2.854   2.885
 3927TIP3    H211788   3.983   2.962   2.813
 3928TIP3   OH211789   4.489   3.419   1.046
 3928TIP3    H111790   4.568   3.469   1.066
 3928TIP3    H211791   4.504   3.384   0.958
 3929TIP3   OH211792   1.941   4.757   0.920
 3929TIP3    H111793   1.868   4.816   0.937
 3929TIP3    H211794   1.904   4.687   0.866
 3930TIP3   OH211795   3.170   3.858   2.963
 3930TIP3    H111796   3.142   3.869   2.872
 3930TIP3    H211797   3.260   3.891   2.965
 3931TIP3   OH211798   1.615   3.126   4.688
 3931TIP3    H111799   1.584   3.085   4.768
 3931TIP3    H211800   1.596   3.062   4.619
 3932TIP3   OH211801   1.012   3.144   2.910
 3932TIP3    H111802   0.994   3.066   2.856
 3932TIP3    H211803   1.083   3.188   2.864
 3933TIP3   OH211804   3.743   5.447   2.588
 3933TIP3    H111805   3.705   5.395   2.517
 3933TIP3    H211806   3.747   5.536   2.554
 3934TIP3   OH211807   5.633   1.779   2.173
 3934TIP3    H111808   5.603   1.749   2.258
 3934TIP3    H211809   5.729   1.769   2.177
 3935TIP3   OH211810   3.706   4.200   3.484
 3935TIP3    H111811   3.617   4.200   3.449
 3935TIP3    H211812   3.709   4.126   3.544
 3936TIP3   OH211813   4.701   4.764   0.497
 3936TIP3    H111814   4.682   4.857   0.491
 3936TIP3    H211815   4.742   4.742   0.414
 3937TIP3   OH211816   2.677   0.801   0.057
 3937TIP3    H111817   2.594   0.778   0.100
 3937TIP3    H211818   2.722   0.717   0.048
 3938TIP3   OH211819   4.205   0.574   2.626
 3938TIP3    H111820   4.155   0.570   2.708
 3938TIP3    H211821   4.181   0.659   2.588
 3939TIP3   OH211822  -0.023   5.134   1.497
 3939TIP3    H111823   0.066   5.113   1.467
 3939TIP3    H211824  -0.025   5.103   1.588
 3940TIP3   OH211825   0.738   1.477   4.151
 3940TIP3    H111826   0.720   1.396   4.200
 3940TIP3    H211827   0.814   1.514   4.194
 3941TIP3   OH211828   3.647   3.586   1.661
 3941TIP3    H111829   3.686   3.611   1.577
 3941TIP3    H211830   3.686   3.501   1.681
 3942TIP3   OH211831   3.015   2.392   1.279
 3942TIP3    H111832   2.996   2.436   1.196
 3942TIP3    H211833   3.025   2.464   1.342
 3943TIP3   OH211834   3.473   0.213   4.614
 3943TIP3    H111835   3.411   0.204   4.541
 3943TIP3    H211836   3.545   0.155   4.591
 3944TIP3   OH211837   3.116   3.977   3.586
 3944TIP3    H111838   3.056   3.961   3.659
 3944TIP3    H211839   3.060   3.990   3.510
 3945TIP3   OH211840   3.247   1.631   1.811
 3945TIP3    H111841   3.305   1.693   1.856
 3945TIP3    H211842   3.301   1.552   1.800
 3946TIP3   OH211843   6.305   1.438   3.338
 3946TIP3    H111844   6.341   1.393   3.262
 3946TIP3    H211845   6.219   1.470   3.309
 3947TIP3   OH211846   4.285   4.314   0.249
 3947TIP3    H111847   4.324   4.320   0.336
 3947TIP3    H211848   4.333   4.243   0.206
 3948TIP3   OH211849   5.493   3.672   4.769
 3948TIP3    H111850   5.434   3.725   4.716
 3948TIP3    H211851   5.579   3.713   4.759
 3949TIP3   OH211852   4.971   5.618   1.969
 3949TIP3    H111853   4.976   5.627   1.874
 3949TIP3    H211854   5.042   5.673   2.002
 3950TIP3   OH211855   2.785   1.217   1.344
 3950TIP3    H111856   2.842   1.155   1.391
 3950TIP3    H211857   2.842   1.254   1.277
 3951TIP3   OH211858   0.719   5.724   3.051
 3951TIP3    H111859   0.743   5.636   3.021
 3951TIP3    H211860   0.796   5.754   3.100
 3952TIP3   OH211861   5.208   2.957   2.052
 3952TIP3    H111862   5.265   2.989   1.981
 3952TIP3    H211863   5.235   2.865   2.063
 3953TIP3   OH211864   3.187   1.229   1.435
 3953TIP3    H111865   3.122   1.274   1.490
 3953TIP3    H211866   3.156   1.245   1.346
 3954TIP3   OH211867   2.958   4.685   2.475
 3954TIP3    H111868   2.923   4.597   2.486
 3954TIP3    H211869   2.951   4.702   2.381
 3955TIP3   OH211870   6.261   1.174   0.391
 3955TIP3    H111871   6.268   1.253   0.446
 3955TIP3    H211872   6.299   1.201   0.307
 3956TIP3   OH211873   6.189   3.650   3.159
 3956TIP3    H111874   6.156   3.740   3.149
 3956TIP3    H211875   6.214   3.643   3.251
 3957TIP3   OH211876   2.713  -0.007   2.266
 3957TIP3    H111877   2.695   0.077   2.222
 3957TIP3    H211878   2.734  -0.067   2.195
 3958TIP3   OH211879   2.400   2.100   4.462
 3958TIP3    H111880   2.463   2.047   4.512
 3958TIP3    H211881   2.413   2.189   4.495
 3959TIP3   OH211882   5.926   0.607   2.105
 3959TIP3    H111883   5.932   0.586   2.198
 3959TIP3    H211884   5.843   0.654   2.097
 3960TIP3   OH211885   0.832   5.872   2.435
 3960TIP3    H111886   0.753   5.912   2.400
 3960TIP3    H211887   0.838   5.787   2.392
 3961TIP3   OH211888   1.756   3.323   4.824
 3961TIP3    H111889   1.714   3.261   4.765
 3961TIP3    H211890   1.846   3.293   4.832
 3962TIP3   OH211891   3.076   5.481   4.666
 3962TIP3    H111892   3.124   5.563   4.673
 3962TIP3    H211893   2.987   5.507   4.640
 3963TIP3   OH211894   0.224   1.389   3.065
 3963TIP3    H111895   0.213   1.319   3.000
 3963TIP3    H211896   0.302   1.363   3.114
 3964TIP3   OH211897   5.922   3.089   2.682
 3964TIP3    H111898   5.904   3.159   2.745
 3964TIP3    H211899   6.012   3.104   2.653
 3965TIP3   OH211900   0.126   0.183   1.077
 3965TIP3    H111901   0.176   0.148   1.003
 3965TIP3    H211902   0.125   0.112   1.141
 3966TIP3   OH211903   1.750   5.538   4.699
 3966TIP3    H111904   1.806   5.595   4.647
 3966TIP3    H211905   1.767   5.450   4.665
 3967TIP3   OH211906   1.083   3.273   1.369
 3967TIP3    H111907   1.043   3.188   1.388
 3967TIP3    H211908   1.177   3.259   1.381
 3968TIP3   OH211909   1.977   3.257   0.811
 3968TIP3    H111910   1.919   3.317   0.765
 3968TIP3    H211911   2.058   3.258   0.760
 3969TIP3   OH211912   4.403   1.068   1.918
 3969TIP3    H111913   4.396   0.986   1.967
 3969TIP3    H211914   4.325   1.117   1.943
 3970TIP3   OH211915   4.506   5.255   2.719
 3970TIP3    H111916   4.498   5.162   2.737
 3970TIP3    H211917   4.563   5.260   2.642
 3971TIP3   OH211918   0.688   5.467   4.870
 3971TIP3    H111919   0.627   5.407   4.913
 3971TIP3    H211920   0.670   5.552   4.910
 3972TIP3   OH211921   2.032   1.725   3.461
 3972TIP3    H111922   1.967   1.787   3.492
 3972TIP3    H211923   2.007   1.642   3.502
 3973TIP3   OH211924   1.208   0.571   2.991
 3973TIP3    H111925   1.189   0.479   2.971
 3973TIP3    H211926   1.302   0.580   2.977
 3974TIP3   OH211927   2.071   4.149   4.296
 3974TIP3    H111928   1.981   4.137   4.266
 3974TIP3    H211929   2.063   4.175   4.388
 3975TIP3   OH211930   2.566   2.741   4.930
 3975TIP3    H111931   2.565   2.835   4.948
 3975TIP3    H211932   2.484   2.708   4.968
 3976TIP3   OH211933   3.715   1.350   2.968
 3976TIP3    H111934   3.714   1.351   3.064
 3976TIP3    H211935   3.807   1.363   2.945
 3977TIP3   OH211936   6.093   0.551   1.609
 3977TIP3    H111937   6.103   0.571   1.702
 3977TIP3    H211938   6.147   0.616   1.564
 3978TIP3   OH211939   0.264   3.764   0.486
 3978TIP3    H111940   0.253   3.816   0.566
 3978TIP3    H211941   0.204   3.803   0.424
 3979TIP3   OH211942   1.477   5.912   0.910
 3979TIP3    H111943   1.556   5.895   0.859
 3979TIP3    H211944   1.405   5.895   0.850
 3980TIP3   OH211945   5.533   1.574   0.074
 3980TIP3    H111946   5.561   1.501   0.020
 3980TIP3    H211947   5.446   1.549   0.104
 3981TIP3   OH211948   2.040   0.302   1.300
 3981TIP3    H111949   2.014   0.251   1.223
 3981TIP3    H211950   2.024   0.243   1.374
 3982TIP3   OH211951   1.941   5.730   3.162
 3982TIP3    H111952   1.918   5.766   3.248
 3982TIP3    H211953   1.931   5.635   3.172
 3983TIP3   OH211954   6.116   4.625   5.125
 3983TIP3    H111955   6.028   4.664   5.121
 3983TIP3    H211956   6.146   4.626   5.034
 3984TIP3   OH211957   1.598   0.355   0.688
 3984TIP3    H111958   1.608   0.416   0.761
 3984TIP3    H211959   1.516   0.380   0.647
 3985TIP3   OH211960   3.581   3.814   1.371
 3985TIP3    H111961   3.668   3.849   1.390
 3985TIP3    H211962   3.582   3.800   1.276
 3986TIP3   OH211963   2.486   5.240   3.359
 3986TIP3    H111964   2.566   5.189   3.365
 3986TIP3    H211965   2.420   5.188   3.405
 3987TIP3   OH211966   1.663   0.079   0.597
 3987TIP3    H111967   1.605   0.148   0.630
 3987TIP3    H211968   1.712   0.050   0.674
 3988TIP3   OH211969   3.288   0.021   0.052
 3988TIP3    H111970   3.197   0.045   0.070
 3988TIP3    H211971   3.332   0.103   0.032
 3989TIP3   OH211972   1.430   4.691   0.245
 3989TIP3    H111973   1.485   4.761   0.207
 3989TIP3    H211974   1.341   4.716   0.222
 3990TIP3   OH211975   3.080   3.244   2.624
 3990TIP3    H111976   3.100   3.268   2.714
 3990TIP3    H211977   3.103   3.151   2.618
 3991TIP3   OH211978   1.819   3.156   3.871
 3991TIP3    H111979   1.803   3.190   3.959
 3991TIP3    H211980   1.889   3.212   3.836
 3992TIP3   OH211981   0.364   1.850   3.446
 3992TIP3    H111982   0.305   1.907   3.396
 3992TIP3    H211983   0.372   1.771   3.393
 3993TIP3   OH211984   0.045   4.541   3.349
 3993TIP3    H111985   0.018   4.618   3.299
 3993TIP3    H211986   0.139   4.535   3.336
 3994TIP3   OH211987   1.207   1.613   4.429
 3994TIP3    H111988   1.161   1.697   4.439
 3994TIP3    H211989   1.275   1.631   4.364
 3995TIP3   OH211990   4.765   4.843   2.519
 3995TIP3    H111991   4.818   4.917   2.489
 3995TIP3    H211992   4.751   4.859   2.612
 3996TIP3   OH211993   0.078   2.445   0.554
 3996TIP3    H111994   0.046   2.532   0.575
 3996TIP3    H211995   0.116   2.413   0.637
 3997TIP3   OH211996   5.028   4.990   2.090
 3997TIP3    H111997   5.119   4.966   2.108
 3997TIP3    H211998   5.033   5.047   2.013
 3998TIP3   OH211999   4.375   0.644   4.006
 3998TIP3    H112000   4.437   0.596   3.951
 3998TIP3    H212001   4.391   0.609   4.094
 3999TIP3   OH212002   1.504   5.647   4.187
 3999TIP3    H112003   1.507   5.569   4.241
 3999TIP3    H212004   1.530   5.718   4.245
 4000TIP3   OH212005   3.728   3.712   3.930
 4000TIP3    H112006   3.686   3.796   3.909
 4000TIP3    H212007   3.656   3.650   3.936
 4001TIP3   OH212008   1.052   0.386   4.631
 4001TIP3    H112009   0.976   0.360   4.683
 4001TIP3    H212010   1.120   0.405   4.696
 4002TIP3   OH212011   0.936   2.356   2.019
 4002TIP3    H112012   1.015   2.311   1.986
 4002TIP3    H212013   0.959   2.382   2.108
 4003TIP3   OH212014   4.502   3.381   4.396
 4003TIP3    H112015   4.479   3.467   4.360
 4003TIP3    H212016   4.534   3.400   4.484
 4004TIP3   OH212017   5.991   2.955   4.058
 4004TIP3    H112018   5.916   2.973   4.000
 4004TIP3    H212019   6.067   2.955   3.999
 4005TIP3   OH212020   0.066   5.338   2.041
 4005TIP3    H112021  -0.008   5.326   2.101
 4005TIP3    H212022   0.143   5.336   2.098
 4006TIP3   OH212023   4.447   1.556   4.538
 4006TIP3    H112024   4.496   1.574   4.619
 4006TIP3    H212025   4.412   1.641   4.512
 4007TIP3   OH212026   4.479   0.791   3.296
 4007TIP3    H112027   4.427   0.730   3.348
 4007TIP3    H212028   4.420   0.821   3.227
 4008TIP3   OH212029   4.730   0.644   3.882
 4008TIP3    H112030   4.820   0.656   3.914
 4008TIP3    H212031   4.720   0.710   3.814
 4009TIP3   OH212032   4.545   1.229   1.048
 4009TIP3    H112033   4.483   1.159   1.025
 4009TIP3    H212034   4.609   1.186   1.105
 4010TIP3   OH212035   5.636   2.433   0.840
 4010TIP3    H112036   5.670   2.383   0.767
 4010TIP3    H212037   5.607   2.516   0.801
 4011TIP3   OH212038   2.717   1.480   5.046
 4011TIP3    H112039   2.729   1.414   5.113
 4011TIP3    H212040   2.712   1.563   5.095
 4012TIP3   OH212041   1.766   1.181   4.551
 4012TIP3    H112042   1.842   1.170   4.608
 4012TIP3    H212043   1.711   1.105   4.569
 4013TIP3   OH212044   5.736   2.998   0.307
 4013TIP3    H112045   5.756   2.905   0.314
 4013TIP3    H212046   5.651   3.007   0.350
 4014TIP3   OH212047   1.733   3.681   0.321
 4014TIP3    H112048   1.666   3.749   0.324
 4014TIP3    H212049   1.687   3.604   0.287
 4015TIP3   OH212050   6.023   3.288   3.108
 4015TIP3    H112051   5.955   3.313   3.170
 4015TIP3    H212052   6.065   3.212   3.148
 4016TIP3   OH212053   0.340   1.069   4.839
 4016TIP3    H112054   0.251   1.035   4.841
 4016TIP3    H212055   0.350   1.105   4.751
 4017TIP3   OH212056   3.587   3.980   2.019
 4017TIP3    H112057   3.566   4.005   2.109
 4017TIP3    H212058   3.520   3.916   1.995
 4018TIP3   OH212059   1.967   4.435   3.331
 4018TIP3    H112060   1.964   4.520   3.376
 4018TIP3    H212061   2.060   4.412   3.329
 4019TIP3   OH212062   0.223   3.337   2.724
 4019TIP3    H112063   0.188   3.414   2.769
 4019TIP3    H212064   0.318   3.346   2.733
 4020TIP3   OH212065   1.347   2.343   4.946
 4020TIP3    H112066   1.423   2.300   4.909
 4020TIP3    H212067   1.283   2.273   4.958
 4021TIP3   OH212068   3.960   3.302   3.726
 4021TIP3    H112069   4.003   3.388   3.725
 4021TIP3    H212070   3.947   3.281   3.634
 4022TIP3   OH212071   4.982   1.541   2.764
 4022TIP3    H112072   5.011   1.621   2.721
 4022TIP3    H212073   5.023   1.544   2.850
 4023TIP3   OH212074   5.812   3.173   1.442
 4023TIP3    H112075   5.793   3.096   1.496
 4023TIP3    H212076   5.786   3.247   1.497
 4024TIP3   OH212077   2.438   3.558   0.526
 4024TIP3    H112078   2.467   3.532   0.439
 4024TIP3    H212079   2.351   3.518   0.535
 4025TIP3   OH212080   5.392   2.246   0.549
 4025TIP3    H112081   5.352   2.296   0.621
 4025TIP3    H212082   5.320   2.196   0.512
 4026TIP3   OH212083   3.819   5.094   3.894
 4026TIP3    H112084   3.770   5.111   3.975
 4026TIP3    H212085   3.817   5.178   3.848
 4027TIP3   OH212086   5.333   2.900   2.395
 4027TIP3    H112087   5.415   2.919   2.440
 4027TIP3    H212088   5.288   2.984   2.389
 4028TIP3   OH212089   1.137   2.126   2.019
 4028TIP3    H112090   1.182   2.166   2.094
 4028TIP3    H212091   1.185   2.158   1.943
 4029TIP3   OH212092   0.849   2.385   4.324
 4029TIP3    H112093   0.933   2.410   4.286
 4029TIP3    H212094   0.821   2.461   4.375
 4030TIP3   OH212095   4.297   5.164   1.893
 4030TIP3    H112096   4.347   5.142   1.814
 4030TIP3    H212097   4.240   5.236   1.866
 4031TIP3   OH212098   1.019   3.748   2.694
 4031TIP3    H112099   1.045   3.658   2.713
 4031TIP3    H212100   1.055   3.800   2.767
 4032TIP3   OH212101   3.033   4.013   1.825
 4032TIP3    H112102   2.956   3.981   1.778
 4032TIP3    H212103   3.000   4.039   1.910
 4033TIP3   OH212104   5.543   4.172   0.041
 4033TIP3    H112105   5.572   4.208  -0.042
 4033TIP3    H212106   5.461   4.218   0.060
 4034TIP3   OH212107   2.597   1.612   1.692
 4034TIP3    H112108   2.641   1.691   1.662
 4034TIP3    H212109   2.588   1.625   1.787
 4035TIP3   OH212110   1.638   4.911   2.387
 4035TIP3    H112111   1.732   4.926   2.388
 4035TIP3    H212112   1.627   4.829   2.339
 4036TIP3   OH212113   3.914   4.172   2.243
 4036TIP3    H112114   3.822   4.197   2.238
 4036TIP3    H212115   3.958   4.249   2.278
 4037TIP3   OH212116   1.795   2.517   3.815
 4037TIP3    H112117   1.732   2.551   3.878
 4037TIP3    H212118   1.754   2.436   3.781
 4038TIP3   OH212119   1.797   2.652   4.178
 4038TIP3    H112120   1.730   2.618   4.118
 4038TIP3    H212121   1.805   2.585   4.245
 4039TIP3   OH212122   0.303   0.669   1.099
 4039TIP3    H112123   0.234   0.733   1.116
 4039TIP3    H212124   0.381   0.704   1.142
 4040TIP3   OH212125   5.052   1.914   3.967
 4040TIP3    H112126   5.074   1.875   4.052
 4040TIP3    H212127   5.135   1.916   3.919
 4041TIP3   OH212128   6.203   3.065   0.243
 4041TIP3    H112129   6.298   3.056   0.247
 4041TIP3    H212130   6.177   3.009   0.170
 4042TIP3   OH212131   3.055   1.556   1.306
 4042TIP3    H112132   2.962   1.543   1.324
 4042TIP3    H212133   3.061   1.555   1.210
 4043TIP3   OH212134   2.133   0.529   4.861
 4043TIP3    H112135   2.054   0.476   4.852
 4043TIP3    H212136   2.195   0.473   4.907
 4044TIP3   OH212137   4.211   1.994   1.565
 4044TIP3    H112138   4.160   2.015   1.643
 4044TIP3    H212139   4.178   1.908   1.537
 4045TIP3   OH212140   3.456   4.574   1.833
 4045TIP3    H112141   3.424   4.556   1.744
 4045TIP3    H212142   3.521   4.643   1.822
 4046TIP3   OH212143   3.924   2.244   2.804
 4046TIP3    H112144   3.887   2.188   2.736
 4046TIP3    H212145   4.004   2.199   2.832
 4047TIP3   OH212146   5.084   4.647   3.410
 4047TIP3    H112147   5.153   4.695   3.455
 4047TIP3    H212148   5.043   4.594   3.478
 4048TIP3   OH212149   0.733   3.235   1.967
 4048TIP3    H112150   0.651   3.269   1.930
 4048TIP3    H212151   0.760   3.300   2.031
 4049TIP3   OH212152   1.668   4.016   4.353
 4049TIP3    H112153   1.691   4.102   4.387
 4049TIP3    H212154   1.627   4.033   4.268
 4050TIP3   OH212155   5.568   5.080   4.216
 4050TIP3    H112156   5.524   5.000   4.186
 4050TIP3    H212157   5.647   5.049   4.260
 4051TIP3   OH212158   5.469   0.495   0.225
 4051TIP3    H112159   5.519   0.499   0.144
 4051TIP3    H212160   5.402   0.429   0.209
 4052TIP3   OH212161   0.661   3.626   3.243
 4052TIP3    H112162   0.684   3.539   3.213
 4052TIP3    H212163   0.568   3.635   3.220
 4053TIP3   OH212164   2.133   1.327   4.020
 4053TIP3    H112165   2.038   1.333   4.025
 4053TIP3    H212166   2.154   1.246   4.066
 4054TIP3   OH212167   1.729   3.985   5.160
 4054TIP3    H112168   1.775   4.051   5.109
 4054TIP3    H212169   1.774   3.903   5.139
 4055TIP3   OH212170   5.630   2.223   2.394
 4055TIP3    H112171   5.560   2.158   2.386
 4055TIP3    H212172   5.687   2.206   2.319
 4056TIP3   OH212173   1.171   4.018   4.863
 4056TIP3    H112174   1.179   3.999   4.769
 4056TIP3    H212175   1.092   4.071   4.870
 4057TIP3   OH212176   0.021   3.827   0.088
 4057TIP3    H112177  -0.007   3.745   0.129
 4057TIP3    H212178   0.000   3.894   0.152
 4058TIP3   OH212179   2.418   0.202   2.254
 4058TIP3    H112180   2.371   0.284   2.268
 4058TIP3    H212181   2.501   0.228   2.214
 4059TIP3   OH212182   3.311   5.203   1.172
 4059TIP3    H112183   3.376   5.207   1.102
 4059TIP3    H212184   3.231   5.173   1.128
 4060TIP3   OH212185   3.222   2.379   3.640
 4060TIP3    H112186   3.196   2.334   3.560
 4060TIP3    H212187   3.219   2.472   3.618
 4061TIP3   OH212188   5.442   3.217   4.570
 4061TIP3    H112189   5.507   3.208   4.639
 4061TIP3    H212190   5.429   3.128   4.538
 4062TIP3   OH212191   5.749   3.424   4.771
 4062TIP3    H112192   5.690   3.349   4.784
 4062TIP3    H212193   5.749   3.437   4.677
 4063TIP3   OH212194   4.020   5.504   2.445
 4063TIP3    H112195   4.042   5.466   2.359
 4063TIP3    H212196   4.101   5.547   2.473
 4064TIP3   OH212197   0.187   3.315   5.095
 4064TIP3    H112198   0.198   3.238   5.039
 4064TIP3    H212199   0.164   3.386   5.034
 4065TIP3   OH212200   2.406   5.919   2.985
 4065TIP3    H112201   2.389   5.854   3.052
 4065TIP3    H212202   2.357   5.997   3.013
 4066TIP3   OH212203   0.856   1.890   4.215
 4066TIP3    H112204   0.892   1.978   4.203
 4066TIP3    H212205   0.803   1.896   4.294
 4067TIP3   OH212206   5.178   0.315   1.230
 4067TIP3    H112207   5.144   0.290   1.144
 4067TIP3    H212208   5.126   0.265   1.293
 4068TIP3   OH212209   4.248   3.104   2.400
 4068TIP3    H112210   4.171   3.160   2.404
 4068TIP3    H212211   4.322   3.165   2.406
 4069TIP3   OH212212   6.319   3.068   1.083
 4069TIP3    H112213   6.414   3.084   1.087
 4069TIP3    H212214   6.307   2.983   1.124
 4070TIP3   OH212215   2.572   3.009   4.988
 4070TIP3    H112216   2.599   2.978   5.074
 4070TIP3    H212217   2.498   3.067   5.006
 4071TIP3   OH212218   6.180   3.616   0.847
 4071TIP3    H112219   6.236   3.576   0.780
 4071TIP3    H212220   6.120   3.546   0.873
 4072TIP3   OH212221   1.658   5.287   0.413
 4072TIP3    H112222   1.709   5.281   0.332
 4072TIP3    H212223   1.567   5.277   0.384
 4073TIP3   OH212224   2.291   4.335   4.530
 4073TIP3    H112225   2.329   4.253   4.561
 4073TIP3    H212226   2.197   4.319   4.529
 4074TIP3   OH212227   5.334   2.631   1.226
 4074TIP3    H112228   5.368   2.718   1.248
 4074TIP3    H212229   5.300   2.597   1.309
 4075TIP3   OH212230   3.135   3.422   1.998
 4075TIP3    H112231   3.155   3.349   1.939
 4075TIP3    H212232   3.214   3.475   1.999
 4076TIP3   OH212233   5.534   1.158   0.347
 4076TIP3    H112234   5.446   1.120   0.352
 4076TIP3    H212235   5.529   1.237   0.400
 4077TIP3   OH212236   3.385   2.834   3.575
 4077TIP3    H112237   3.453   2.821   3.509
 4077TIP3    H212238   3.423   2.801   3.657
 4078TIP3   OH212239   3.134   0.615   1.931
 4078TIP3    H112240   3.086   0.692   1.903
 4078TIP3    H212241   3.223   0.627   1.896
 4079TIP3   OH212242   5.192   4.936   2.371
 4079TIP3    H112243   5.214   5.025   2.345
 4079TIP3    H212244   5.167   4.943   2.463
 4080TIP3   OH212245   4.990   5.551   4.434
 4080TIP3    H112246   5.008   5.582   4.523
 4080TIP3    H212247   5.041   5.471   4.426
 4081TIP3   OH212248   4.117   4.495   3.295
 4081TIP3    H112249   4.053   4.424   3.282
 4081TIP3    H212250   4.194   4.451   3.330
 4082TIP3   OH212251   3.974   2.573   4.314
 4082TIP3    H112252   4.023   2.608   4.388
 4082TIP3    H212253   4.027   2.595   4.237
 4083TIP3   OH212254   4.919   4.482   1.236
 4083TIP3    H112255   4.885   4.503   1.149
 4083TIP3    H212256   4.891   4.392   1.253
 4084TIP3   OH212257   1.794   5.181   3.074
 4084TIP3    H112258   1.753   5.257   3.116
 4084TIP3    H212259   1.749   5.106   3.112
 4085TIP3   OH212260   4.193   2.388   2.697
 4085TIP3    H112261   4.182   2.296   2.722
 4085TIP3    H212262   4.123   2.403   2.633
 4086TIP3   OH212263   3.097   5.631   0.140
 4086TIP3    H112264   3.174   5.606   0.089
 4086TIP3    H212265   3.023   5.603   0.086
 4087TIP3   OH212266   4.534   1.180   4.444
 4087TIP3    H112267   4.456   1.134   4.475
 4087TIP3    H212268   4.599   1.167   4.514
 4088TIP3   OH212269   3.199   3.966   2.684
 4088TIP3    H112270   3.258   4.037   2.658
 4088TIP3    H212271   3.113   3.993   2.651
 4089TIP3   OH212272   0.050   1.541   4.113
 4089TIP3    H112273   0.077   1.606   4.178
 4089TIP3    H212274   0.131   1.520   4.066
 4090TIP3   OH212275   6.111   5.263   1.408
 4090TIP3    H112276   6.196   5.227   1.431
 4090TIP3    H212277   6.049   5.221   1.467
 4091TIP3   OH212278   1.877   4.829   4.851
 4091TIP3    H112279   1.793   4.790   4.872
 4091TIP3    H212280   1.927   4.759   4.810
 4092TIP3   OH212281   1.132   4.180   0.097
 4092TIP3    H112282   1.061   4.116   0.102
 4092TIP3    H212283   1.106   4.240   0.027
 4093TIP3   OH212284   3.439   4.860   0.315
 4093TIP3    H112285   3.441   4.912   0.396
 4093TIP3    H212286   3.370   4.899   0.263
 4094TIP3   OH212287   1.831   5.522   1.945
 4094TIP3    H112288   1.851   5.585   2.015
 4094TIP3    H212289   1.842   5.437   1.987
 4095TIP3   OH212290   3.848   2.695   4.010
 4095TIP3    H112291   3.775   2.636   4.029
 4095TIP3    H212292   3.808   2.767   3.961
 4096TIP3   OH212293   3.850   2.760   2.416
 4096TIP3    H112294   3.807   2.675   2.424
 4096TIP3    H212295   3.806   2.803   2.343
 4097TIP3   OH212296   0.592   1.822   0.038
 4097TIP3    H112297   0.507   1.846   0.001
 4097TIP3    H212298   0.651   1.893   0.013
 4098TIP3   OH212299   4.049   4.152   4.519
 4098TIP3    H112300   4.109   4.139   4.593
 4098TIP3    H212301   4.082   4.093   4.451
 4099TIP3   OH212302   3.934   2.854   0.121
 4099TIP3    H112303   3.978   2.939   0.115
 4099TIP3    H212304   3.849   2.869   0.079
 4100TIP3   OH212305   3.105   1.729   2.430
 4100TIP3    H112306   3.106   1.634   2.418
 4100TIP3    H212307   3.157   1.743   2.510
 4101TIP3   OH212308   6.090   1.254   0.866
 4101TIP3    H112309   6.141   1.330   0.839
 4101TIP3    H212310   6.004   1.266   0.826
 4102TIP3   OH212311   2.140   2.407   1.084
 4102TIP3    H112312   2.066   2.442   1.034
 4102TIP3    H212313   2.215   2.458   1.055
 4103TIP3   OH212314   5.063   2.757   1.230
 4103TIP3    H112315   5.146   2.752   1.183
 4103TIP3    H212316   5.087   2.782   1.319
 4104TIP3   OH212317   4.237   1.272   4.708
 4104TIP3    H112318   4.287   1.199   4.743
 4104TIP3    H212319   4.221   1.248   4.616
 4105TIP3   OH212320   1.665   2.908   3.944
 4105TIP3    H112321   1.668   2.883   4.037
 4105TIP3    H212322   1.737   2.970   3.933
 4106TIP3   OH212323   1.461   2.937   4.512
 4106TIP3    H112324   1.524   2.876   4.474
 4106TIP3    H212325   1.405   2.883   4.568
 4107TIP3   OH212326   2.108   1.902   2.194
 4107TIP3    H112327   2.186   1.950   2.224
 4107TIP3    H212328   2.143   1.827   2.146
 4108TIP3   OH212329   5.922   2.237   3.623
 4108TIP3    H112330   5.977   2.197   3.691
 4108TIP3    H212331   5.847   2.178   3.615
 4109TIP3   OH212332   0.163   5.345   1.059
 4109TIP3    H112333   0.153   5.439   1.050
 4109TIP3    H212334   0.076   5.315   1.087
 4110TIP3   OH212335   3.197   1.423   4.678
 4110TIP3    H112336   3.129   1.364   4.644
 4110TIP3    H212337   3.165   1.511   4.657
 4111TIP3   OH212338   0.892   0.964   3.804
 4111TIP3    H112339   0.852   1.031   3.860
 4111TIP3    H212340   0.846   0.884   3.826
 4112TIP3   OH212341   5.985   4.194   4.826
 4112TIP3    H112342   5.954   4.260   4.765
 4112TIP3    H212343   6.065   4.160   4.786
 4113TIP3   OH212344   1.949   0.655   1.423
 4113TIP3    H112345   1.910   0.647   1.336
 4113TIP3    H212346   2.042   0.637   1.409
 4114TIP3   OH212347   0.517   3.551   2.884
 4114TIP3    H112348   0.500   3.569   2.976
 4114TIP3    H212349   0.546   3.635   2.848
 4115TIP3   OH212350   4.974   0.670   4.025
 4115TIP3    H112351   5.014   0.721   3.955
 4115TIP3    H212352   4.949   0.735   4.091
 4116TIP3   OH212353   3.355   2.144   0.527
 4116TIP3    H112354   3.352   2.240   0.522
 4116TIP3    H212355   3.333   2.125   0.618
 4117TIP3   OH212356   5.780   4.154   1.839
 4117TIP3    H112357   5.762   4.208   1.916
 4117TIP3    H212358   5.712   4.087   1.840
 4118TIP3   OH212359   6.096   4.231   1.424
 4118TIP3    H112360   6.023   4.176   1.395
 4118TIP3    H212361   6.174   4.179   1.407
 4119TIP3   OH212362   2.470   0.195   3.940
 4119TIP3    H112363   2.401   0.259   3.921
 4119TIP3    H212364   2.474   0.191   4.035
 4120TIP3   OH212365   1.192   4.404   2.688
 4120TIP3    H112366   1.218   4.485   2.731
 4120TIP3    H212367   1.098   4.412   2.674
 4121TIP3   OH212368   3.757   4.715   4.285
 4121TIP3    H112369   3.785   4.805   4.271
 4121TIP3    H212370   3.807   4.686   4.361
 4122TIP3   OH212371   5.434   0.676   1.887
 4122TIP3    H112372   5.453   0.651   1.796
 4122TIP3    H212373   5.369   0.746   1.879
 4123TIP3   OH212374   0.282   5.007   4.917
 4123TIP3    H112375   0.279   5.049   5.003
 4123TIP3    H212376   0.211   5.048   4.868
 4124TIP3   OH212377   4.480   1.633   2.114
 4124TIP3    H112378   4.475   1.718   2.158
 4124TIP3    H212379   4.564   1.634   2.069
 4125TIP3   OH212380   2.251   5.475   4.923
 4125TIP3    H112381   2.186   5.451   4.857
 4125TIP3    H212382   2.203   5.530   4.985
 4126TIP3   OH212383   5.586   1.994   4.895
 4126TIP3    H112384   5.553   1.958   4.813
 4126TIP3    H212385   5.635   1.922   4.934
 4127TIP3   OH212386   3.260   5.836   0.231
 4127TIP3    H112387   3.221   5.748   0.235
 4127TIP3    H212388   3.335   5.825   0.172
 4128TIP3   OH212389   2.879   0.400   2.934
 4128TIP3    H112390   2.907   0.377   2.845
 4128TIP3    H212391   2.794   0.441   2.922
 4129TIP3   OH212392   0.735   0.300   2.085
 4129TIP3    H112393   0.736   0.375   2.025
 4129TIP3    H212394   0.779   0.230   2.038
 4130TIP3   OH212395   3.351   2.695   2.580
 4130TIP3    H112396   3.414   2.767   2.583
 4130TIP3    H212397   3.405   2.617   2.569
 4131TIP3   OH212398   4.100   0.892   3.341
 4131TIP3    H112399   4.157   0.855   3.273
 4131TIP3    H212400   4.156   0.896   3.419
 4132TIP3   OH212401   2.856   4.113   3.929
 4132TIP3    H112402   2.893   4.080   3.847
 4132TIP3    H212403   2.769   4.072   3.933
 4133TIP3   OH212404   1.352   4.768   2.519
 4133TIP3    H112405   1.348   4.708   2.593
 4133TIP3    H212406   1.392   4.717   2.449
 4134TIP3   OH212407   3.513   2.678   0.338
 4134TIP3    H112408   3.441   2.660   0.399
 4134TIP3    H212409   3.570   2.739   0.385
 4135TIP3   OH212410   1.767   3.276   0.286
 4135TIP3    H112411   1.816   3.289   0.367
 4135TIP3    H212412   1.725   3.360   0.269
 4136TIP3   OH212413   0.689   5.019   1.638
 4136TIP3    H112414   0.705   5.112   1.622
 4136TIP3    H212415   0.691   5.010   1.733
 4137TIP3   OH212416   0.514   2.828   0.185
 4137TIP3    H112417   0.578   2.779   0.133
 4137TIP3    H212418   0.511   2.783   0.269
 4138TIP3   OH212419   2.540   0.042   1.900
 4138TIP3    H112420   2.445   0.052   1.896
 4138TIP3    H212421   2.554  -0.049   1.925
 4139TIP3   OH212422   5.042   1.674   2.143
 4139TIP3    H112423   5.067   1.742   2.081
 4139TIP3    H212424   5.120   1.618   2.149
 4140TIP3   OH212425   5.419   3.829   3.945
 4140TIP3    H112426   5.461   3.886   3.880
 4140TIP3    H212427   5.449   3.862   4.029
 4141TIP3   OH212428   5.939   1.681   0.085
 4141TIP3    H112429   5.872   1.730   0.134
 4141TIP3    H212430   5.934   1.592   0.120
 4142TIP3   OH212431   2.729   3.430   3.596
 4142TIP3    H112432   2.678   3.399   3.520
 4142TIP3    H212433   2.668   3.422   3.670
 4143TIP3   OH212434   1.370   0.049   2.435
 4143TIP3    H112435   1.466   0.052   2.438
 4143TIP3    H212436   1.346  -0.004   2.511
 4144TIP3   OH212437   4.055   2.856   2.229
 4144TIP3    H112438   4.064   2.762   2.238
 4144TIP3    H212439   4.019   2.886   2.312
 4145TIP3   OH212440   2.419   0.451   3.139
 4145TIP3    H112441   2.431   0.389   3.067
 4145TIP3    H212442   2.399   0.534   3.095
 4146TIP3   OH212443   1.586   1.531   2.819
 4146TIP3    H112444   1.533   1.573   2.888
 4146TIP3    H212445   1.579   1.591   2.745
 4147TIP3   OH212446   3.974   3.919   0.808
 4147TIP3    H112447   3.888   3.914   0.766
 4147TIP3    H212448   4.035   3.897   0.738
 4148TIP3   OH212449   5.652   5.009   2.269
 4148TIP3    H112450   5.682   5.003   2.179
 4148TIP3    H212451   5.660   5.102   2.291
 4149TIP3   OH212452   0.590   0.283   1.149
 4149TIP3    H112453   0.581   0.326   1.234
 4149TIP3    H212454   0.513   0.310   1.099
 4150TIP3   OH212455   1.045   0.348   5.075
 4150TIP3    H112456   1.132   0.385   5.089
 4150TIP3    H212457   1.058   0.283   5.006
 4151TIP3   OH212458   5.918   1.592   0.948
 4151TIP3    H112459   5.866   1.657   0.900
 4151TIP3    H212460   6.005   1.598   0.910
 4152TIP3   OH212461   0.719   1.727   0.263
 4152TIP3    H112462   0.666   1.759   0.190
 4152TIP3    H212463   0.656   1.713   0.334
 4153TIP3   OH212464   5.797   2.435   3.871
 4153TIP3    H112465   5.755   2.506   3.823
 4153TIP3    H212466   5.882   2.469   3.896
 4154TIP3   OH212467   4.964   3.680   4.367
 4154TIP3    H112468   4.873   3.707   4.360
 4154TIP3    H212469   4.961   3.586   4.383
 4155TIP3   OH212470   0.970   0.432   1.632
 4155TIP3    H112471   0.902   0.485   1.673
 4155TIP3    H212472   0.933   0.343   1.630
 4156TIP3   OH212473   3.712   3.293   4.938
 4156TIP3    H112474   3.740   3.358   5.003
 4156TIP3    H212475   3.627   3.263   4.969
 4157TIP3   OH212476   0.077   3.120   1.508
 4157TIP3    H112477   0.027   3.039   1.518
 4157TIP3    H212478   0.038   3.163   1.432
 4158TIP3   OH212479   6.000   1.490   4.478
 4158TIP3    H112480   6.092   1.494   4.451
 4158TIP3    H212481   5.958   1.560   4.428
 4159TIP3   OH212482   3.131  -0.022   4.609
 4159TIP3    H112483   3.121   0.044   4.677
 4159TIP3    H212484   3.084   0.015   4.533
 4160TIP3   OH212485   0.099   4.511   2.186
 4160TIP3    H112486   0.121   4.537   2.275
 4160TIP3    H212487   0.174   4.541   2.134
 4161TIP3   OH212488   1.805   4.407   1.545
 4161TIP3    H112489   1.803   4.418   1.450
 4161TIP3    H212490   1.818   4.495   1.579
 4162TIP3   OH212491   2.769   4.265   4.731
 4162TIP3    H112492   2.689   4.214   4.737
 4162TIP3    H212493   2.750   4.346   4.778
 4163TIP3   OH212494   4.817   0.089   0.930
 4163TIP3    H112495   4.753   0.160   0.923
 4163TIP3    H212496   4.817   0.066   1.022
 4164TIP3   OH212497   1.887   1.452   1.769
 4164TIP3    H112498   1.793   1.446   1.787
 4164TIP3    H212499   1.918   1.361   1.775
 4165TIP3   OH212500   3.181   4.307   4.298
 4165TIP3    H112501   3.133   4.385   4.271
 4165TIP3    H212502   3.120   4.235   4.283
 4166TIP3   OH212503   5.905   3.189   1.772
 4166TIP3    H112504   5.904   3.206   1.866
 4166TIP3    H212505   5.821   3.146   1.755
 4167TIP3   OH212506   4.026   5.618   2.696
 4167TIP3    H112507   3.955   5.657   2.747
 4167TIP3    H212508   3.983   5.579   2.620
 4168TIP3   OH212509   6.356   5.488   1.528
 4168TIP3    H112510   6.346   5.466   1.621
 4168TIP3    H212511   6.271   5.522   1.502
 4169TIP3   OH212512   0.540   5.501   0.703
 4169TIP3    H112513   0.611   5.447   0.739
 4169TIP3    H212514   0.555   5.588   0.742
 4170TIP3   OH212515   0.310   2.750   4.773
 4170TIP3    H112516   0.373   2.816   4.744
 4170TIP3    H212517   0.267   2.721   4.693
 4171TIP3   OH212518   4.058   5.068   1.391
 4171TIP3    H112519   3.970   5.064   1.355
 4171TIP3    H212520   4.073   4.981   1.428
 4172TIP3   OH212521   2.973   4.084   2.585
 4172TIP3    H112522   2.924   4.027   2.525
 4172TIP3    H212523   2.920   4.085   2.665
 4173TIP3   OH212524   3.538   1.363   0.558
 4173TIP3    H112525   3.574   1.288   0.605
 4173TIP3    H212526   3.538   1.335   0.466
 4174TIP3   OH212527   1.342   0.831   3.188
 4174TIP3    H112528   1.303   0.851   3.103
 4174TIP3    H212529   1.430   0.868   3.183
 4175TIP3   OH212530   4.203   2.358   1.472
 4175TIP3    H112531   4.161   2.292   1.527
 4175TIP3    H212532   4.163   2.347   1.386
 4176TIP3   OH212533   3.796   2.489   2.736
 4176TIP3    H112534   3.789   2.532   2.821
 4176TIP3    H212535   3.846   2.410   2.753
 4177TIP3   OH212536   3.497   3.212   3.604
 4177TIP3    H112537   3.413   3.176   3.578
 4177TIP3    H212538   3.483   3.245   3.693
 4178TIP3   OH212539   0.570   1.614   1.602
 4178TIP3    H112540   0.639   1.601   1.667
 4178TIP3    H212541   0.525   1.530   1.598
 4179TIP3   OH212542   2.712   4.863   2.981
 4179TIP3    H112543   2.779   4.913   3.026
 4179TIP3    H212544   2.735   4.867   2.888
 4180TIP3   OH212545   5.226   3.722   4.915
 4180TIP3    H112546   5.206   3.644   4.863
 4180TIP3    H212547   5.149   3.778   4.905
 4181TIP3   OH212548   4.508   3.427   2.971
 4181TIP3    H112549   4.500   3.516   3.006
 4181TIP3    H212550   4.478   3.434   2.880
 4182TIP3   OH212551   3.473   4.997   3.151
 4182TIP3    H112552   3.452   5.063   3.084
 4182TIP3    H212553   3.558   4.963   3.125
 4183TIP3   OH212554   5.969   1.747   3.410
 4183TIP3    H112555   5.968   1.841   3.429
 4183TIP3    H212556   5.934   1.707   3.490
 4184TIP3   OH212557   1.163   3.185   1.706
 4184TIP3    H112558   1.178   3.268   1.751
 4184TIP3    H212559   1.088   3.202   1.648
 4185TIP3   OH212560   5.964   1.066   1.349
 4185TIP3    H112561   6.005   1.150   1.329
 4185TIP3    H212562   5.890   1.060   1.289
 4186TIP3   OH212563   3.795   1.980   2.967
 4186TIP3    H112564   3.838   1.903   2.930
 4186TIP3    H212565   3.851   2.006   3.040
 4187TIP3   OH212566   3.799   2.414   3.486
 4187TIP3    H112567   3.801   2.384   3.577
 4187TIP3    H212568   3.813   2.509   3.493
 4188TIP3   OH212569   4.722   0.780   2.182
 4188TIP3    H112570   4.706   0.863   2.227
 4188TIP3    H212571   4.775   0.729   2.243
 4189TIP3   OH212572   2.819   4.766   2.740
 4189TIP3    H112573   2.860   4.735   2.659
 4189TIP3    H212574   2.732   4.797   2.713
 4190TIP3   OH212575   5.409   4.015   3.727
 4190TIP3    H112576   5.354   4.034   3.651
 4190TIP3    H212577   5.496   4.046   3.703
 4191TIP3   OH212578   5.992   0.735   2.627
 4191TIP3    H112579   6.087   0.729   2.620
 4191TIP3    H212580   5.977   0.804   2.693
 4192TIP3   OH212581   0.558   5.075   2.569
 4192TIP3    H112582   0.533   4.997   2.620
 4192TIP3    H212583   0.499   5.073   2.494
 4193TIP3   OH212584   2.732   4.078   1.442
 4193TIP3    H112585   2.649   4.095   1.486
 4193TIP3    H212586   2.746   4.154   1.385
 4194TIP3   OH212587   2.415   0.301   4.729
 4194TIP3    H112588   2.351   0.239   4.764
 4194TIP3    H212589   2.471   0.323   4.803
 4195TIP3   OH212590   1.471   0.167   4.361
 4195TIP3    H112591   1.381   0.188   4.384
 4195TIP3    H212592   1.521   0.193   4.439
 4196TIP3   OH212593   1.795   1.748   0.940
 4196TIP3    H112594   1.713   1.771   0.897
 4196TIP3    H212595   1.819   1.826   0.991
 4197TIP3   OH212596   6.008   5.064   2.857
 4197TIP3    H112597   5.955   5.144   2.849
 4197TIP3    H212598   5.944   4.996   2.879
 4198TIP3   OH212599   5.019   3.138   2.132
 4198TIP3    H112600   5.080   3.076   2.093
 4198TIP3    H212601   5.025   3.216   2.076
 4199TIP3   OH212602   3.208   1.792   4.966
 4199TIP3    H112603   3.146   1.720   4.959
 4199TIP3    H212604   3.238   1.808   4.877
 4200TIP3   OH212605   3.205   4.058   4.554
 4200TIP3    H112606   3.119   4.015   4.554
 4200TIP3    H212607   3.246   4.029   4.472
 4201TIP3   OH212608   1.903   5.824   2.765
 4201TIP3    H112609   1.907   5.733   2.793
 4201TIP3    H212610   1.993   5.846   2.740
 4202TIP3   OH212611   5.135   3.977   3.996
 4202TIP3    H112612   5.160   3.967   4.087
 4202TIP3    H212613   5.042   4.001   3.998
 4203TIP3   OH212614   4.676   4.448   1.664
 4203TIP3    H112615   4.708   4.538   1.664
 4203TIP3    H212616   4.715   4.409   1.742
 4204TIP3   OH212617   0.016   1.596   3.058
 4204TIP3    H112618  -0.063   1.592   3.112
 4204TIP3    H212619   0.070   1.523   3.088
 4205TIP3   OH212620   2.043   0.934   3.797
 4205TIP3    H112621   2.054   0.979   3.714
 4205TIP3    H212622   1.953   0.902   3.795
 4206TIP3   OH212623   2.817   3.836   0.322
 4206TIP3    H112624   2.767   3.900   0.371
 4206TIP3    H212625   2.908   3.865   0.330
 4207TIP3   OH212626   1.280   2.351   3.066
 4207TIP3    H112627   1.190   2.371   3.042
 4207TIP3    H212628   1.322   2.328   2.983
 4208TIP3   OH212629   6.298   5.880   3.726
 4208TIP3    H112630   6.328   5.844   3.642
 4208TIP3    H212631   6.375   5.923   3.762
 4209TIP3   OH212632   1.829   1.065   1.008
 4209TIP3    H112633   1.814   1.151   1.048
 4209TIP3    H212634   1.742   1.033   0.986
 4210TIP3   OH212635   4.890   0.126   2.649
 4210TIP3    H112636   4.831   0.131   2.574
 4210TIP3    H212637   4.875   0.207   2.697
 4211TIP3   OH212638   4.232   4.604   1.955
 4211TIP3    H112639   4.200   4.694   1.964
 4211TIP3    H212640   4.178   4.567   1.885
 4212TIP3   OH212641   3.514   4.154   3.996
 4212TIP3    H112642   3.450   4.179   4.064
 4212TIP3    H212643   3.567   4.233   3.984
 4213TIP3   OH212644   1.640   4.939   1.776
 4213TIP3    H112645   1.581   4.875   1.736
 4213TIP3    H212646   1.604   4.955   1.863
 4214TIP3   OH212647   5.811   0.305   3.410
 4214TIP3    H112648   5.792   0.319   3.503
 4214TIP3    H212649   5.786   0.386   3.367
 4215TIP3   OH212650   1.769   5.789   2.415
 4215TIP3    H112651   1.746   5.841   2.492
 4215TIP3    H212652   1.761   5.698   2.446
 4216TIP3   OH212653   5.281   0.791   0.689
 4216TIP3    H112654   5.325   0.868   0.724
 4216TIP3    H212655   5.339   0.718   0.712
 4217TIP3   OH212656   6.158   1.671   4.965
 4217TIP3    H112657   6.095   1.653   4.895
 4217TIP3    H212658   6.242   1.681   4.920
 4218TIP3   OH212659   2.527   2.987   2.194
 4218TIP3    H112660   2.599   3.030   2.241
 4218TIP3    H212661   2.509   2.909   2.245
 4219TIP3   OH212662   5.168   5.525   4.684
 4219TIP3    H112663   5.233   5.572   4.631
 4219TIP3    H212664   5.145   5.587   4.753
 4220TIP3   OH212665   5.398   3.862   0.357
 4220TIP3    H112666   5.439   3.785   0.318
 4220TIP3    H212667   5.459   3.934   0.341
 4221TIP3   OH212668   3.008   2.351   2.079
 4221TIP3    H112669   2.959   2.348   2.161
 4221TIP3    H212670   3.099   2.338   2.104
 4222TIP3   OH212671   2.708   4.154   2.457
 4222TIP3    H112672   2.626   4.133   2.502
 4222TIP3    H212673   2.765   4.188   2.526
 4223TIP3   OH212674   6.207   5.197   2.523
 4223TIP3    H112675   6.149   5.123   2.506
 4223TIP3    H212676   6.266   5.166   2.593
 4224TIP3   OH212677   0.839   0.598   1.341
 4224TIP3    H112678   0.763   0.541   1.334
 4224TIP3    H212679   0.913   0.539   1.347
 4225TIP3   OH212680   5.240   2.330   0.775
 4225TIP3    H112681   5.151   2.357   0.750
 4225TIP3    H212682   5.270   2.399   0.834
 4226TIP3   OH212683   3.156   1.428   0.562
 4226TIP3    H112684   3.123   1.485   0.492
 4226TIP3    H212685   3.229   1.477   0.600
 4227TIP3   OH212686   5.456   2.773   2.109
 4227TIP3    H112687   5.421   2.685   2.093
 4227TIP3    H212688   5.534   2.778   2.053
 4228TIP3   OH212689   5.636   3.252   0.671
 4228TIP3    H112690   5.612   3.345   0.661
 4228TIP3    H212691   5.702   3.237   0.604
 4229TIP3   OH212692   1.263   5.830   0.703
 4229TIP3    H112693   1.311   5.770   0.646
 4229TIP3    H212694   1.171   5.816   0.681
 4230TIP3   OH212695   5.881   4.903   1.361
 4230TIP3    H112696   5.795   4.944   1.353
 4230TIP3    H212697   5.935   4.968   1.406
 4231TIP3   OH212698   0.767   2.186   4.147
 4231TIP3    H112699   0.795   2.259   4.202
 4231TIP3    H212700   0.845   2.160   4.099
 4232TIP3   OH212701   5.090   1.247   1.908
 4232TIP3    H112702   5.101   1.252   1.813
 4232TIP3    H212703   5.035   1.322   1.930
 4233TIP3   OH212704   2.139   2.024   4.031
 4233TIP3    H112705   2.154   2.095   4.094
 4233TIP3    H212706   2.204   1.957   4.055
 4234TIP3   OH212707   4.307   1.685   0.743
 4234TIP3    H112708   4.391   1.664   0.701
 4234TIP3    H212709   4.331   1.742   0.817
 4235TIP3   OH212710   0.572   0.552   3.771
 4235TIP3    H112711   0.505   0.485   3.756
 4235TIP3    H212712   0.652   0.512   3.737
 4236TIP3   OH212713   2.973   4.929   3.298
 4236TIP3    H112714   2.944   4.852   3.250
 4236TIP3    H212715   2.943   4.914   3.388
 4237TIP3   OH212716   4.648   4.653   0.045
 4237TIP3    H112717   4.582   4.594   0.008
 4237TIP3    H212718   4.605   4.739   0.044
 4238TIP3   OH212719   3.937   0.139   2.328
 4238TIP3    H112720   3.978   0.225   2.341
 4238TIP3    H212721   3.959   0.089   2.407
 4239TIP3   OH212722   5.364   0.251   2.630
 4239TIP3    H112723   5.419   0.180   2.662
 4239TIP3    H212724   5.362   0.239   2.535
 4240TIP3   OH212725   1.937   1.757   0.370
 4240TIP3    H112726   1.848   1.721   0.370
 4240TIP3    H212727   1.992   1.687   0.403
 4241TIP3   OH212728   0.603   4.088   1.961
 4241TIP3    H112729   0.682   4.042   1.990
 4241TIP3    H212730   0.584   4.052   1.875
 4242TIP3   OH212731   5.223   1.726   0.080
 4242TIP3    H112732   5.213   1.707  -0.013
 4242TIP3    H212733   5.265   1.812   0.083
 4243TIP3   OH212734   2.548   0.047   4.847
 4243TIP3    H112735   2.564   0.051   4.942
 4243TIP3    H212736   2.454   0.063   4.838
 4244TIP3   OH212737   6.214   0.351   3.164
 4244TIP3    H112738   6.205   0.350   3.068
 4244TIP3    H212739   6.302   0.386   3.179
 4245TIP3   OH212740   1.236   1.219   0.492
 4245TIP3    H112741   1.159   1.184   0.537
 4245TIP3    H212742   1.213   1.310   0.473
 4246TIP3   OH212743   4.264   4.797   0.729
 4246TIP3    H112744   4.253   4.871   0.669
 4246TIP3    H212745   4.358   4.796   0.749
 4247TIP3   OH212746   6.267   1.346   1.374
 4247TIP3    H112747   6.300   1.263   1.410
 4247TIP3    H212748   6.185   1.322   1.331
 4248TIP3   OH212749   4.711   4.202   2.203
 4248TIP3    H112750   4.645   4.157   2.255
 4248TIP3    H212751   4.672   4.212   2.117
 4249TIP3   OH212752   3.022   5.111   2.775
 4249TIP3    H112753   3.070   5.078   2.700
 4249TIP3    H212754   2.985   5.195   2.745
 4250TIP3   OH212755   2.970   4.896   0.078
 4250TIP3    H112756   2.971   4.835   0.005
 4250TIP3    H212757   2.899   4.865   0.135
 4251TIP3   OH212758   3.180   2.949   2.059
 4251TIP3    H112759   3.093   2.911   2.070
 4251TIP3    H212760   3.210   2.967   2.148
 4252TIP3   OH212761   5.643   4.477   0.372
 4252TIP3    H112762   5.613   4.557   0.416
 4252TIP3    H212763   5.665   4.505   0.284
 4253TIP3   OH212764   5.805   4.911   4.668
 4253TIP3    H112765   5.855   4.872   4.596
 4253TIP3    H212766   5.733   4.957   4.625
 4254TIP3   OH212767   3.992   2.470   2.529
 4254TIP3    H112768   3.933   2.448   2.457
 4254TIP3    H212769   3.938   2.517   2.592
 4255TIP3   OH212770   0.803   3.285   0.882
 4255TIP3    H112771   0.711   3.310   0.872
 4255TIP3    H212772   0.810   3.201   0.836
 4256TIP3   OH212773   4.044   3.864   0.320
 4256TIP3    H112774   4.012   3.775   0.308
 4256TIP3    H212775   4.135   3.860   0.289
 4257TIP3   OH212776   3.517   5.498   1.210
 4257TIP3    H112777   3.578   5.457   1.272
 4257TIP3    H212778   3.541   5.462   1.125
 4258TIP3   OH212779   2.107   2.549   2.920
 4258TIP3    H112780   2.086   2.511   3.005
 4258TIP3    H212781   2.115   2.643   2.937
 4259TIP3   OH212782   0.897   0.093   2.257
 4259TIP3    H112783   0.945   0.148   2.195
 4259TIP3    H212784   0.893   0.145   2.337
 4260TIP3   OH212785   0.984   0.752   0.409
 4260TIP3    H112786   0.993   0.657   0.402
 4260TIP3    H212787   0.935   0.778   0.331
 4261TIP3   OH212788   0.895   5.486   1.159
 4261TIP3    H112789   0.865   5.573   1.183
 4261TIP3    H212790   0.816   5.432   1.158
 4262TIP3   OH212791   6.018   2.554   3.089
 4262TIP3    H112792   6.021   2.614   3.164
 4262TIP3    H212793   5.924   2.541   3.073
 4263TIP3   OH212794   0.520   0.781   1.924
 4263TIP3    H112795   0.528   0.701   1.872
 4263TIP3    H212796   0.547   0.851   1.864
 4264TIP3   OH212797   5.212   3.757   3.542
 4264TIP3    H112798   5.197   3.735   3.450
 4264TIP3    H212799   5.307   3.755   3.552
 4265TIP3   OH212800   1.792   0.050   2.800
 4265TIP3    H112801   1.867  -0.008   2.813
 4265TIP3    H212802   1.719  -0.009   2.778
 4266TIP3   OH212803   4.069   5.210   0.952
 4266TIP3    H112804   4.017   5.134   0.977
 4266TIP3    H212805   4.103   5.244   1.034
 4267TIP3   OH212806   3.996   1.327   2.568
 4267TIP3    H112807   4.090   1.327   2.583
 4267TIP3    H212808   3.985   1.371   2.484
 4268TIP3   OH212809   1.356   2.054   1.107
 4268TIP3    H112810   1.276   2.024   1.152
 4268TIP3    H212811   1.397   2.114   1.169
 4269TIP3   OH212812   4.920   5.251   0.220
 4269TIP3    H112813   4.937   5.286   0.133
 4269TIP3    H212814   4.826   5.231   0.219
 4270TIP3   OH212815   0.832   3.600   0.765
 4270TIP3    H112816   0.801   3.563   0.848
 4270TIP3    H212817   0.781   3.555   0.698
 4271TIP3   OH212818   3.619   2.072   2.738
 4271TIP3    H112819   3.629   2.070   2.833
 4271TIP3    H212820   3.554   2.140   2.722
 4272TIP3   OH212821   2.427   2.201   1.696
 4272TIP3    H112822   2.463   2.260   1.629
 4272TIP3    H212823   2.505   2.162   1.737
 4273TIP3   OH212824   0.136   2.734   3.313
 4273TIP3    H112825   0.232   2.736   3.310
 4273TIP3    H212826   0.115   2.649   3.352
 4274TIP3   OH212827   5.677   4.957   0.187
 4274TIP3    H112828   5.693   5.041   0.230
 4274TIP3    H212829   5.582   4.955   0.175
 4275TIP3   OH212830   2.263   3.631   2.968
 4275TIP3    H112831   2.326   3.609   2.898
 4275TIP3    H212832   2.193   3.568   2.957
 4276TIP3   OH212833   2.707   5.884   3.082
 4276TIP3    H112834   2.695   5.855   2.991
 4276TIP3    H212835   2.761   5.963   3.075
 4277TIP3   OH212836   4.981   1.765   3.227
 4277TIP3    H112837   4.893   1.801   3.230
 4277TIP3    H212838   5.027   1.820   3.163
 4278TIP3   OH212839   6.013   2.330   1.935
 4278TIP3    H112840   5.921   2.331   1.961
 4278TIP3    H212841   6.053   2.261   1.988
 4279TIP3   OH212842   2.438   1.781   3.347
 4279TIP3    H112843   2.449   1.815   3.258
 4279TIP3    H212844   2.410   1.856   3.398
 4280TIP3   OH212845   2.708   4.053   0.465
 4280TIP3    H112846   2.630   4.055   0.521
 4280TIP3    H212847   2.683   4.104   0.388
 4281TIP3   OH212848   3.929   5.237   2.669
 4281TIP3    H112849   4.003   5.230   2.608
 4281TIP3    H212850   3.892   5.324   2.652
 4282TIP3   OH212851   2.611   5.327   1.168
 4282TIP3    H112852   2.556   5.371   1.103
 4282TIP3    H212853   2.681   5.286   1.116
 4283TIP3   OH212854   4.000   1.776   2.440
 4283TIP3    H112855   4.032   1.841   2.377
 4283TIP3    H212856   3.905   1.790   2.443
 4284TIP3   OH212857   5.089   2.144   0.201
 4284TIP3    H112858   5.124   2.186   0.123
 4284TIP3    H212859   5.008   2.191   0.220
 4285TIP3   OH212860   4.804   5.843   1.272
 4285TIP3    H112861   4.854   5.772   1.313
 4285TIP3    H212862   4.757   5.884   1.345
 4286TIP3   OH212863   4.592   5.863   1.913
 4286TIP3    H112864   4.615   5.807   1.840
 4286TIP3    H212865   4.675   5.882   1.957
 4287TIP3   OH212866   3.455   3.582   0.912
 4287TIP3    H112867   3.415   3.669   0.903
 4287TIP3    H212868   3.400   3.537   0.975
 4288TIP3   OH212869   2.166   0.831   0.820
 4288TIP3    H112870   2.207   0.768   0.879
 4288TIP3    H212871   2.236   0.857   0.760
 4289TIP3   OH212872   2.345   3.786   1.355
 4289TIP3    H112873   2.364   3.733   1.432
 4289TIP3    H212874   2.411   3.758   1.291
 4290TIP3   OH212875   1.234   0.211   4.490
 4290TIP3    H112876   1.263   0.210   4.581
 4290TIP3    H212877   1.185   0.293   4.481
 4291TIP3   OH212878   3.389   0.510   4.044
 4291TIP3    H112879   3.386   0.598   4.006
 4291TIP3    H212880   3.480   0.483   4.034
 4292TIP3   OH212881   2.419   0.543   2.771
 4292TIP3    H112882   2.453   0.558   2.683
 4292TIP3    H212883   2.498   0.539   2.826
 4293TIP3   OH212884   0.219   1.532   0.650
 4293TIP3    H112885   0.225   1.622   0.617
 4293TIP3    H212886   0.291   1.486   0.606
 4294TIP3   OH212887   1.750   4.370   2.963
 4294TIP3    H112888   1.665   4.404   2.992
 4294TIP3    H212889   1.729   4.315   2.888
 4295TIP3   OH212890   0.542   1.566   5.151
 4295TIP3    H112891   0.457   1.538   5.186
 4295TIP3    H212892   0.582   1.486   5.118
 4296TIP3   OH212893   4.859   0.561   1.699
 4296TIP3    H112894   4.923   0.633   1.698
 4296TIP3    H212895   4.778   0.600   1.669
 4297TIP3   OH212896   3.045   5.427   3.682
 4297TIP3    H112897   3.119   5.395   3.733
 4297TIP3    H212898   3.069   5.410   3.591
 4298TIP3   OH212899   4.159   5.782   3.799
 4298TIP3    H112900   4.224   5.806   3.865
 4298TIP3    H212901   4.127   5.866   3.766
 4299TIP3   OH212902   0.955   1.755   3.984
 4299TIP3    H112903   0.894   1.780   3.915
 4299TIP3    H212904   0.920   1.795   4.063
 4300TIP3   OH212905   3.558   1.783   3.817
 4300TIP3    H112906   3.644   1.777   3.858
 4300TIP3    H212907   3.499   1.737   3.877
 4301TIP3   OH212908   0.628   1.658   4.699
 4301TIP3    H112909   0.714   1.617   4.705
 4301TIP3    H212910   0.566   1.584   4.698
 4302TIP3   OH212911   0.100   3.710   2.502
 4302TIP3    H112912   0.132   3.790   2.460
 4302TIP3    H212913   0.162   3.694   2.573
 4303TIP3   OH212914   4.334   1.061   0.979
 4303TIP3    H112915   4.284   1.053   1.060
 4303TIP3    H212916   4.303   0.988   0.925
 4304TIP3   OH212917   0.434   4.663   5.075
 4304TIP3    H112918   0.359   4.723   5.078
 4304TIP3    H212919   0.395   4.576   5.073
 4305TIP3   OH212920   4.064   2.120   4.415
 4305TIP3    H112921   4.028   2.057   4.477
 4305TIP3    H212922   3.990   2.177   4.393
 4306TIP3   OH212923   1.141   3.952   0.910
 4306TIP3    H112924   1.057   3.959   0.955
 4306TIP3    H212925   1.185   3.878   0.951
 4307TIP3   OH212926   0.605   2.154   3.117
 4307TIP3    H112927   0.659   2.229   3.093
 4307TIP3    H212928   0.515   2.187   3.111
 4308TIP3   OH212929   4.197   5.447   1.860
 4308TIP3    H112930   4.144   5.515   1.902
 4308TIP3    H212931   4.135   5.400   1.804
 4309TIP3   OH212932   3.446   4.693   0.750
 4309TIP3    H112933   3.352   4.684   0.764
 4309TIP3    H212934   3.475   4.749   0.823
 4310TIP3   OH212935   1.727   4.187   0.998
 4310TIP3    H112936   1.777   4.254   1.044
 4310TIP3    H212937   1.672   4.235   0.937
 4311TIP3   OH212938   5.668   3.488   2.900
 4311TIP3    H112939   5.747   3.483   2.953
 4311TIP3    H212940   5.698   3.470   2.811
 4312TIP3   OH212941   2.113   2.228   5.194
 4312TIP3    H112942   2.179   2.225   5.125
 4312TIP3    H212943   2.076   2.316   5.187
 4313TIP3   OH212944   2.799   4.554   1.708
 4313TIP3    H112945   2.891   4.551   1.734
 4313TIP3    H212946   2.795   4.501   1.628
 4314TIP3   OH212947   3.437   4.402   4.456
 4314TIP3    H112948   3.472   4.420   4.368
 4314TIP3    H212949   3.349   4.367   4.440
 4315TIP3   OH212950   5.837   0.307   0.008
 4315TIP3    H112951   5.811   0.373  -0.056
 4315TIP3    H212952   5.826   0.351   0.093
 4316TIP3   OH212953   0.067   5.834   0.577
 4316TIP3    H112954   0.110   5.774   0.516
 4316TIP3    H212955  -0.026   5.826   0.556
 4317TIP3   OH212956   2.306   5.719   0.505
 4317TIP3    H112957   2.246   5.759   0.442
 4317TIP3    H212958   2.343   5.644   0.457
 4318TIP3   OH212959   2.637   3.566   0.329
 4318TIP3    H112960   2.626   3.530   0.241
 4318TIP3    H212961   2.713   3.624   0.322
 4319TIP3   OH212962   1.332   3.897   2.696
 4319TIP3    H112963   1.346   3.987   2.727
 4319TIP3    H212964   1.247   3.872   2.732
 4320TIP3   OH212965   3.352   3.005   4.019
 4320TIP3    H112966   3.282   3.036   4.076
 4320TIP3    H212967   3.431   3.009   4.073
 4321TIP3   OH212968   5.944   5.098   3.465
 4321TIP3    H112969   5.884   5.040   3.513
 4321TIP3    H212970   5.886   5.162   3.423
 4322TIP3   OH212971   5.120   1.723   2.425
 4322TIP3    H112972   5.078   1.736   2.341
 4322TIP3    H212973   5.191   1.787   2.427
 4323TIP3   OH212974   0.619   4.872   2.732
 4323TIP3    H112975   0.661   4.878   2.818
 4323TIP3    H212976   0.624   4.779   2.710
 4324TIP3   OH212977   2.104   3.348   4.092
 4324TIP3    H112978   2.079   3.438   4.113
 4324TIP3    H212979   2.021   3.301   4.084
 4325TIP3   OH212980   3.392   2.374   1.703
 4325TIP3    H112981   3.409   2.338   1.616
 4325TIP3    H212982   3.386   2.468   1.689
 4326TIP3   OH212983   2.741   5.664   5.152
 4326TIP3    H112984   2.807   5.652   5.084
 4326TIP3    H212985   2.727   5.576   5.188
 4327TIP3   OH212986   3.862   1.032   3.693
 4327TIP3    H112987   3.881   0.943   3.724
 4327TIP3    H212988   3.769   1.031   3.670
 4328TIP3   OH212989   6.295   0.994   3.097
 4328TIP3    H112990   6.312   0.936   3.023
 4328TIP3    H212991   6.372   1.051   3.101
 4329TIP3   OH212992   1.682   2.839   1.446
 4329TIP3    H112993   1.737   2.914   1.470
 4329TIP3    H212994   1.700   2.826   1.353
 4330TIP3   OH212995   3.425   3.375   3.834
 4330TIP3    H112996   3.359   3.404   3.897
 4330TIP3    H212997   3.466   3.456   3.803
 4331TIP3   OH212998   2.862   2.393   3.183
 4331TIP3    H112999   2.828   2.342   3.257
 4331TIP3    H213000   2.924   2.335   3.140
 4332TIP3   OH213001   3.723   3.601   0.059
 4332TIP3    H113002   3.636   3.635   0.040
 4332TIP3    H213003   3.737   3.533  -0.007
 4333TIP3   OH213004   2.803   2.000   4.093
 4333TIP3    H113005   2.852   2.063   4.144
 4333TIP3    H213006   2.866   1.967   4.028
 4334TIP3   OH213007   4.593   4.263   0.142
 4334TIP3    H113008   4.583   4.232   0.231
 4334TIP3    H213009   4.517   4.228   0.095
 4335TIP3   OH213010   2.031   5.304   4.374
 4335TIP3    H113011   2.123   5.293   4.397
 4335TIP3    H213012   2.018   5.399   4.368
 4336TIP3   OH213013   1.081   4.078   2.068
 4336TIP3    H113014   1.094   3.984   2.059
 4336TIP3    H213015   1.022   4.102   1.997
 4337TIP3   OH213016   2.169   4.776   0.500
 4337TIP3    H113017   2.089   4.765   0.449
 4337TIP3    H213018   2.160   4.863   0.540
 4338TIP3   OH213019   2.098   0.472   3.371
 4338TIP3    H113020   2.014   0.518   3.365
 4338TIP3    H213021   2.084   0.392   3.320
 4339TIP3   OH213022   5.045   0.917   2.664
 4339TIP3    H113023   5.033   1.009   2.642
 4339TIP3    H213024   5.140   0.906   2.673
 4340TIP3   OH213025   5.653   4.989   1.666
 4340TIP3    H113026   5.639   4.907   1.618
 4340TIP3    H213027   5.727   4.970   1.724
 4341TIP3   OH213028   3.595   1.963   3.489
 4341TIP3    H113029   3.630   2.016   3.418
 4341TIP3    H213030   3.649   1.986   3.565
 4342TIP3   OH213031   1.718   1.979   3.393
 4342TIP3    H113032   1.715   2.073   3.373
 4342TIP3    H213033   1.775   1.972   3.469
 4343TIP3   OH213034   0.158   2.468   3.143
 4343TIP3    H113035   0.161   2.564   3.136
 4343TIP3    H213036   0.096   2.450   3.213
 4344TIP3   OH213037   2.990   4.616   2.051
 4344TIP3    H113038   3.029   4.598   1.965
 4344TIP3    H213039   2.904   4.575   2.047
 4345TIP3   OH213040   5.981   2.369   1.641
 4345TIP3    H113041   6.063   2.323   1.624
 4345TIP3    H213042   5.968   2.359   1.735
 4346TIP3   OH213043   4.400   3.971   3.956
 4346TIP3    H113044   4.444   3.970   4.041
 4346TIP3    H213045   4.310   3.998   3.976
 4347TIP3   OH213046   1.634   1.502   3.952
 4347TIP3    H113047   1.721   1.504   3.911
 4347TIP3    H213048   1.651   1.471   4.041
 4348TIP3   OH213049   0.092   1.627   2.254
 4348TIP3    H113050   0.012   1.591   2.292
 4348TIP3    H213051   0.132   1.554   2.207
 4349TIP3   OH213052   6.196   5.365   3.094
 4349TIP3    H113053   6.168   5.453   3.068
 4349TIP3    H213054   6.114   5.319   3.112
 4350TIP3   OH213055   5.184   5.832   1.261
 4350TIP3    H113056   5.127   5.902   1.295
 4350TIP3    H213057   5.139   5.751   1.284
 4351TIP3   OH213058   4.626   1.549   0.975
 4351TIP3    H113059   4.549   1.511   1.017
 4351TIP3    H213060   4.650   1.485   0.907
 4352TIP3   OH213061   4.663   3.707   4.708
 4352TIP3    H113062   4.624   3.772   4.767
 4352TIP3    H213063   4.649   3.742   4.620
 4353TIP3   OH213064   6.092   2.433   4.215
 4353TIP3    H113065   6.137   2.498   4.160
 4353TIP3    H213066   6.115   2.349   4.176
 4354TIP3   OH213067   3.305   4.237   4.740
 4354TIP3    H113068   3.252   4.312   4.714
 4354TIP3    H213069   3.266   4.163   4.694
 4355TIP3   OH213070   5.408   3.337   3.410
 4355TIP3    H113071   5.385   3.375   3.495
 4355TIP3    H213072   5.370   3.398   3.346
 4356TIP3   OH213073   6.107   1.195   3.015
 4356TIP3    H113074   6.173   1.233   2.957
 4356TIP3    H213075   6.149   1.117   3.051
 4357TIP3   OH213076   4.403   3.077   0.771
 4357TIP3    H113077   4.458   3.148   0.737
 4357TIP3    H213078   4.383   3.104   0.861
 4358TIP3   OH213079   4.872   5.078   0.424
 4358TIP3    H113080   4.909   5.146   0.367
 4358TIP3    H213081   4.906   4.996   0.387
 4359TIP3   OH213082   3.280   4.403   0.677
 4359TIP3    H113083   3.318   4.464   0.614
 4359TIP3    H213084   3.271   4.454   0.758
 4360TIP3   OH213085   6.110   2.756   3.275
 4360TIP3    H113086   6.082   2.839   3.237
 4360TIP3    H213087   6.205   2.754   3.258
 4361TIP3   OH213088   0.977   5.401   0.661
 4361TIP3    H113089   0.910   5.392   0.593
 4361TIP3    H213090   1.022   5.316   0.661
 4362TIP3   OH213091   3.303   1.003   0.726
 4362TIP3    H113092   3.295   1.024   0.633
 4362TIP3    H213093   3.384   1.045   0.753
 4363TIP3   OH213094   6.067   0.276   4.646
 4363TIP3    H113095   6.020   0.358   4.659
 4363TIP3    H213096   6.120   0.291   4.567
 4364TIP3   OH213097   1.612   1.083   0.153
 4364TIP3    H113098   1.558   1.075   0.232
 4364TIP3    H213099   1.584   1.011   0.097
 4365TIP3   OH213100   4.022   4.461   0.206
 4365TIP3    H113101   4.114   4.445   0.226
 4365TIP3    H213102   3.983   4.373   0.200
 4366TIP3   OH213103   5.212   0.568   4.141
 4366TIP3    H113104   5.186   0.485   4.100
 4366TIP3    H213105   5.147   0.631   4.112
 4367TIP3   OH213106   6.045   1.568   1.513
 4367TIP3    H113107   6.061   1.655   1.477
 4367TIP3    H213108   5.959   1.543   1.479
 4368TIP3   OH213109   3.088   3.257   4.761
 4368TIP3    H113110   3.182   3.267   4.747
 4368TIP3    H213111   3.050   3.342   4.738
 4369TIP3   OH213112   4.225   0.601   4.397
 4369TIP3    H113113   4.232   0.579   4.490
 4369TIP3    H213114   4.296   0.553   4.355
 4370TIP3   OH213115   3.080   0.303   3.606
 4370TIP3    H113116   3.012   0.238   3.622
 4370TIP3    H213117   3.106   0.332   3.694
 4371TIP3   OH213118   0.764   2.032   2.292
 4371TIP3    H113119   0.747   1.962   2.355
 4371TIP3    H213120   0.810   2.099   2.342
 4372TIP3   OH213121   5.304   3.175   4.052
 4372TIP3    H113122   5.237   3.178   4.120
 4372TIP3    H213123   5.335   3.265   4.046
 4373TIP3   OH213124   3.549   1.056   2.674
 4373TIP3    H113125   3.540   1.150   2.691
 4373TIP3    H213126   3.462   1.028   2.647
 4374TIP3   OH213127   4.851   1.895   4.572
 4374TIP3    H113128   4.879   1.982   4.597
 4374TIP3    H213129   4.763   1.886   4.608
 4375TIP3   OH213130   1.515   0.152   3.615
 4375TIP3    H113131   1.545   0.216   3.550
 4375TIP3    H213132   1.463   0.204   3.677
 4376TIP3   OH213133   2.244   4.211   4.089
 4376TIP3    H113134   2.257   4.116   4.089
 4376TIP3    H213135   2.206   4.230   4.175
 4377TIP3   OH213136   0.406   4.588   2.743
 4377TIP3    H113137   0.351   4.516   2.714
 4377TIP3    H213138   0.420   4.641   2.665
 4378TIP3   OH213139   4.714   0.164   4.193
 4378TIP3    H113140   4.619   0.169   4.181
 4378TIP3    H213141   4.749   0.159   4.104
 4379TIP3   OH213142   2.029   1.923   3.012
 4379TIP3    H113143   2.085   1.927   2.934
 4379TIP3    H213144   1.940   1.936   2.978
 4380TIP3   OH213145   1.779   0.791   0.710
 4380TIP3    H113146   1.688   0.799   0.682
 4380TIP3    H213147   1.824   0.864   0.667
 4381TIP3   OH213148   4.371   4.920   3.085
 4381TIP3    H113149   4.419   4.838   3.079
 4381TIP3    H213150   4.288   4.896   3.128
 4382TIP3   OH213151   3.253   4.621   0.018
 4382TIP3    H113152   3.309   4.592   0.089
 4382TIP3    H213153   3.275   4.714   0.007
 4383TIP3   OH213154   1.893   0.417   0.013
 4383TIP3    H113155   1.812   0.449  -0.026
 4383TIP3    H213156   1.870   0.331   0.048
 4384TIP3   OH213157   0.881   0.414   3.294
 4384TIP3    H113158   0.934   0.439   3.218
 4384TIP3    H213159   0.931   0.443   3.370
 4385TIP3   OH213160   1.091   5.817   1.055
 4385TIP3    H113161   1.111   5.730   1.021
 4385TIP3    H213162   1.023   5.850   0.997
 4386TIP3   OH213163   0.888   4.320   4.496
 4386TIP3    H113164   0.799   4.288   4.483
 4386TIP3    H213165   0.876   4.405   4.540
 4387TIP3   OH213166   1.189   4.959   1.211
 4387TIP3    H113167   1.132   4.885   1.189
 4387TIP3    H213168   1.130   5.022   1.252
 4388TIP3   OH213169   4.138   2.974   0.461
 4388TIP3    H113170   4.180   2.972   0.376
 4388TIP3    H213171   4.053   3.016   0.446
 4389TIP3   OH213172   1.565   3.468   2.170
 4389TIP3    H113173   1.658   3.452   2.152
 4389TIP3    H213174   1.562   3.488   2.264
 4390TIP3   OH213175   3.524   5.069   2.227
 4390TIP3    H113176   3.556   4.980   2.212
 4390TIP3    H213177   3.450   5.059   2.287
 4391TIP3   OH213178   5.964   0.858   4.161
 4391TIP3    H113179   6.045   0.870   4.211
 4391TIP3    H213180   5.993   0.837   4.072
 4392TIP3   OH213181   1.626   5.161   1.580
 4392TIP3    H113182   1.620   5.081   1.527
 4392TIP3    H213183   1.572   5.144   1.656
 4393TIP3   OH213184   0.193   3.933   0.686
 4393TIP3    H113185   0.156   3.953   0.772
 4393TIP3    H213186   0.275   3.981   0.683
 4394TIP3   OH213187   3.734   3.143   2.624
 4394TIP3    H113188   3.800   3.080   2.651
 4394TIP3    H213189   3.746   3.152   2.529
 4395TIP3   OH213190   3.141   4.454   0.315
 4395TIP3    H113191   3.051   4.483   0.330
 4395TIP3    H213192   3.194   4.508   0.374
 4396TIP3   OH213193   0.631   0.553   0.646
 4396TIP3    H113194   0.722   0.573   0.668
 4396TIP3    H213195   0.599   0.503   0.721
 4397TIP3   OH213196   1.821   1.423   0.230
 4397TIP3    H113197   1.782   1.459   0.310
 4397TIP3    H213198   1.840   1.332   0.251
 4398TIP3   OH213199   3.719   3.489   3.578
 4398TIP3    H113200   3.791   3.548   3.599
 4398TIP3    H213201   3.642   3.528   3.620
 4399TIP3   OH213202   3.592   1.448   1.025
 4399TIP3    H113203   3.542   1.370   1.046
 4399TIP3    H213204   3.549   1.484   0.947
 4400TIP3   OH213205   4.974   0.701   4.505
 4400TIP3    H113206   4.968   0.616   4.461
 4400TIP3    H213207   4.884   0.729   4.517
 4401TIP3   OH213208   4.037   0.816   3.870
 4401TIP3    H113209   3.953   0.792   3.909
 4401TIP3    H213210   4.044   0.761   3.792
 4402TIP3   OH213211   5.665   3.368   2.009
 4402TIP3    H113212   5.688   3.282   2.044
 4402TIP3    H213213   5.722   3.429   2.055
 4403TIP3   OH213214   4.756   2.713   3.588
 4403TIP3    H113215   4.776   2.796   3.545
 4403TIP3    H213216   4.826   2.654   3.561
 4404TIP3   OH213217   4.432   2.905   2.321
 4404TIP3    H113218   4.349   2.953   2.319
 4404TIP3    H213219   4.437   2.862   2.235
 4405TIP3   OH213220   1.296   5.752   1.267
 4405TIP3    H113221   1.227   5.782   1.209
 4405TIP3    H213222   1.289   5.657   1.267
 4406TIP3   OH213223   3.196   3.778   1.792
 4406TIP3    H113224   3.160   3.696   1.826
 4406TIP3    H213225   3.122   3.838   1.794
 4407TIP3   OH213226   5.116   4.278   3.348
 4407TIP3    H113227   5.043   4.257   3.291
 4407TIP3    H213228   5.127   4.372   3.339
 4408TIP3   OH213229   5.037   2.703   3.151
 4408TIP3    H113230   5.059   2.785   3.107
 4408TIP3    H213231   4.951   2.719   3.190
 4409TIP3   OH213232   2.947   4.038   0.678
 4409TIP3    H113233   2.966   4.131   0.684
 4409TIP3    H213234   2.865   4.032   0.630
 4410TIP3   OH213235   1.147   1.413   2.285
 4410TIP3    H113236   1.183   1.478   2.224
 4410TIP3    H213237   1.168   1.448   2.371
 4411TIP3   OH213238   3.326   5.308   0.743
 4411TIP3    H113239   3.352   5.364   0.669
 4411TIP3    H213240   3.268   5.363   0.795
 4412TIP3   OH213241   0.956   0.633   3.564
 4412TIP3    H113242   0.971   0.659   3.655
 4412TIP3    H213243   1.043   0.629   3.525
 4413TIP3   OH213244   1.901   5.456   3.168
 4413TIP3    H113245   1.876   5.451   3.260
 4413TIP3    H213246   1.917   5.365   3.142
 4414TIP3   OH213247   3.668   4.963   0.533
 4414TIP3    H113248   3.705   4.997   0.615
 4414TIP3    H213249   3.637   5.041   0.487
 4415TIP3   OH213250   5.130   2.650   0.154
 4415TIP3    H113251   5.056   2.687   0.202
 4415TIP3    H213252   5.187   2.725   0.137
 4416TIP3   OH213253   5.047   1.766   1.069
 4416TIP3    H113254   4.979   1.831   1.055
 4416TIP3    H213255   5.108   1.808   1.130
 4417TIP3   OH213256   5.164   4.989   2.683
 4417TIP3    H113257   5.163   4.968   2.777
 4417TIP3    H213258   5.188   5.082   2.680
 4418TIP3   OH213259   2.401   0.750   3.509
 4418TIP3    H113260   2.440   0.787   3.587
 4418TIP3    H213261   2.324   0.804   3.492
 4419TIP3   OH213262   6.284   2.683   0.624
 4419TIP3    H113263   6.278   2.683   0.719
 4419TIP3    H213264   6.252   2.770   0.598
 4420TIP3   OH213265   5.439   2.782   4.841
 4420TIP3    H113266   5.408   2.870   4.821
 4420TIP3    H213267   5.460   2.785   4.935
 4421TIP3   OH213268   3.606   3.409   0.738
 4421TIP3    H113269   3.539   3.403   0.670
 4421TIP3    H213270   3.560   3.444   0.815
 4422TIP3   OH213271   3.597   1.009   3.654
 4422TIP3    H113272   3.514   1.049   3.677
 4422TIP3    H213273   3.580   0.960   3.574
 4423TIP3   OH213274   0.975   1.435   1.582
 4423TIP3    H113275   1.004   1.435   1.673
 4423TIP3    H213276   0.978   1.527   1.556
 4424TIP3   OH213277   0.259   0.232   4.082
 4424TIP3    H113278   0.284   0.175   4.009
 4424TIP3    H213279   0.218   0.308   4.040
 4425TIP3   OH213280   4.802   1.319   1.210
 4425TIP3    H113281   4.800   1.307   1.305
 4425TIP3    H213282   4.855   1.397   1.196
 4426TIP3   OH213283   2.327   2.251   3.955
 4426TIP3    H113284   2.342   2.190   3.883
 4426TIP3    H213285   2.389   2.223   4.023
 4427TIP3   OH213286   6.250   4.978   3.706
 4427TIP3    H113287   6.301   4.959   3.784
 4427TIP3    H213288   6.241   4.893   3.662
 4428TIP3   OH213289   0.717   2.559   4.495
 4428TIP3    H113290   0.655   2.621   4.456
 4428TIP3    H213291   0.785   2.614   4.533
 4429TIP3   OH213292   3.335   1.582   2.851
 4429TIP3    H113293   3.329   1.504   2.906
 4429TIP3    H213294   3.370   1.650   2.910
 4430TIP3   OH213295   4.142   2.855   4.236
 4430TIP3    H113296   4.177   2.849   4.325
 4430TIP3    H213297   4.195   2.793   4.185
 4431TIP3   OH213298   3.548   2.214   1.184
 4431TIP3    H113299   3.459   2.243   1.203
 4431TIP3    H213300   3.591   2.292   1.150
 4432TIP3   OH213301   2.917   2.860   1.932
 4432TIP3    H113302   2.917   2.765   1.946
 4432TIP3    H213303   2.893   2.870   1.839
 4433TIP3   OH213304   5.415   2.877   1.333
 4433TIP3    H113305   5.482   2.926   1.286
 4433TIP3    H213306   5.395   2.930   1.410
 4434TIP3   OH213307   1.095   3.164   0.675
 4434TIP3    H113308   1.084   3.234   0.611
 4434TIP3    H213309   1.056   3.087   0.634
 4435TIP3   OH213310   1.516   2.426   0.733
 4435TIP3    H113311   1.438   2.371   0.726
 4435TIP3    H213312   1.493   2.506   0.685
 4436TIP3   OH213313   5.831   4.471   2.369
 4436TIP3    H113314   5.862   4.464   2.279
 4436TIP3    H213315   5.855   4.560   2.396
 4437TIP3   OH213316   2.608   5.167   3.961
 4437TIP3    H113317   2.634   5.122   3.881
 4437TIP3    H213318   2.624   5.104   4.031
 4438TIP3   OH213319   1.733   5.574   3.845
 4438TIP3    H113320   1.704   5.499   3.793
 4438TIP3    H213321   1.660   5.635   3.840
 4439TIP3   OH213322   6.198   4.825   3.969
 4439TIP3    H113323   6.139   4.749   3.967
 4439TIP3    H213324   6.141   4.899   3.991
 4440TIP3   OH213325   1.795   0.199   2.494
 4440TIP3    H113326   1.744   0.219   2.415
 4440TIP3    H213327   1.797   0.104   2.498
 4441TIP3   OH213328   3.640   0.430   0.191
 4441TIP3    H113329   3.580   0.392   0.255
 4441TIP3    H213330   3.663   0.515   0.227
 4442TIP3   OH213331   1.347   3.212   0.989
 4442TIP3    H113332   1.369   3.199   0.897
 4442TIP3    H213333   1.256   3.183   0.997
 4443TIP3   OH213334   0.910   1.673   2.092
 4443TIP3    H113335   0.963   1.671   2.171
 4443TIP3    H213336   0.900   1.766   2.072
 4444TIP3   OH213337   0.354   2.531   2.703
 4444TIP3    H113338   0.327   2.467   2.637
 4444TIP3    H213339   0.274   2.551   2.751
 4445TIP3   OH213340   4.729   0.413   2.281
 4445TIP3    H113341   4.779   0.336   2.308
 4445TIP3    H213342   4.747   0.421   2.187
 4446TIP3   OH213343   3.325   2.117   4.639
 4446TIP3    H113344   3.322   2.213   4.632
 4446TIP3    H213345   3.334   2.100   4.732
 4447TIP3   OH213346   6.169   2.858   3.885
 4447TIP3    H113347   6.258   2.884   3.906
 4447TIP3    H213348   6.177   2.806   3.806
 4448TIP3   OH213349   3.317   4.005   4.908
 4448TIP3    H113350   3.232   4.039   4.935
 4448TIP3    H213351   3.351   4.071   4.847
 4449TIP3   OH213352   0.292   2.741   3.032
 4449TIP3    H113353   0.341   2.743   3.114
 4449TIP3    H213354   0.235   2.818   3.037
 4450TIP3   OH213355   3.534   5.598   3.488
 4450TIP3    H113356   3.623   5.582   3.456
 4450TIP3    H213357   3.545   5.660   3.560
 4451TIP3   OH213358   6.343   0.523   0.082
 4451TIP3    H113359   6.399   0.483   0.015
 4451TIP3    H213360   6.298   0.449   0.122
 4452TIP3   OH213361   1.818   4.775   2.688
 4452TIP3    H113362   1.735   4.819   2.672
 4452TIP3    H213363   1.863   4.832   2.751
 4453TIP3   OH213364   5.007   3.363   1.956
 4453TIP3    H113365   5.056   3.408   2.025
 4453TIP3    H213366   4.918   3.397   1.963
 4454TIP3   OH213367   3.565   3.093   0.976
 4454TIP3    H113368   3.574   2.999   0.994
 4454TIP3    H213369   3.654   3.127   0.983
 4455TIP3   OH213370   4.406   3.400   4.785
 4455TIP3    H113371   4.478   3.401   4.722
 4455TIP3    H213372   4.332   3.438   4.737
 4456TIP3   OH213373   4.008   5.822   4.367
 4456TIP3    H113374   4.034   5.735   4.337
 4456TIP3    H213375   3.995   5.812   4.461
 4457TIP3   OH213376   0.038   2.797   4.833
 4457TIP3    H113377  -0.007   2.735   4.890
 4457TIP3    H213378   0.129   2.766   4.830
 4458TIP3   OH213379   1.325   0.045   0.199
 4458TIP3    H113380   1.376  -0.010   0.258
 4458TIP3    H213381   1.370   0.129   0.200
 4459TIP3   OH213382   2.029   1.286   2.038
 4459TIP3    H113383   1.996   1.367   2.076
 4459TIP3    H213384   1.964   1.220   2.062
 4460TIP3   OH213385   6.114   5.488   3.798
 4460TIP3    H113386   6.132   5.394   3.792
 4460TIP3    H213387   6.050   5.504   3.729
 4461TIP3   OH213388   1.421   2.322   2.825
 4461TIP3    H113389   1.494   2.381   2.843
 4461TIP3    H213390   1.363   2.372   2.766
 4462TIP3   OH213391   4.933   2.809   0.298
 4462TIP3    H113392   4.939   2.854   0.382
 4462TIP3    H213393   4.874   2.863   0.245
 4463TIP3   OH213394   0.328   4.260   4.700
 4463TIP3    H113395   0.245   4.306   4.691
 4463TIP3    H213396   0.318   4.204   4.777
 4464TIP3   OH213397   0.265   4.847   3.600
 4464TIP3    H113398   0.223   4.764   3.622
 4464TIP3    H213399   0.351   4.842   3.642
 4465TIP3   OH213400   4.766   1.361   0.245
 4465TIP3    H113401   4.848   1.313   0.254
 4465TIP3    H213402   4.791   1.453   0.257
 4466TIP3   OH213403   5.442   4.199   3.942
 4466TIP3    H113404   5.518   4.144   3.959
 4466TIP3    H213405   5.408   4.168   3.858
 4467TIP3   OH213406   6.228   0.457   0.370
 4467TIP3    H113407   6.158   0.502   0.322
 4467TIP3    H213408   6.266   0.524   0.426
 4468TIP3   OH213409   1.015   5.519   3.271
 4468TIP3    H113410   1.090   5.565   3.310
 4468TIP3    H213411   1.043   5.501   3.181
 4469TIP3   OH213412   1.887   5.606   1.670
 4469TIP3    H113413   1.980   5.584   1.673
 4469TIP3    H213414   1.853   5.577   1.755
 4470TIP3   OH213415   1.093   4.551   0.042
 4470TIP3    H113416   1.077   4.644   0.061
 4470TIP3    H213417   1.091   4.546  -0.053
 4471TIP3   OH213418   5.080   0.203   0.976
 4471TIP3    H113419   5.006   0.149   0.947
 4471TIP3    H213420   5.141   0.141   1.015
 4472TIP3   OH213421   0.022   3.402   2.172
 4472TIP3    H113422   0.062   3.413   2.258
 4472TIP3    H213423   0.032   3.487   2.130
 4473TIP3   OH213424   5.084   5.630   4.164
 4473TIP3    H113425   5.074   5.600   4.254
 4473TIP3    H213426   4.994   5.639   4.132
 4474TIP3   OH213427   2.754   5.887   1.892
 4474TIP3    H113428   2.661   5.884   1.870
 4474TIP3    H213429   2.757   5.880   1.987
 4475TIP3   OH213430   0.726   3.397   4.879
 4475TIP3    H113431   0.758   3.420   4.792
 4475TIP3    H213432   0.794   3.430   4.938
 4476TIP3   OH213433   5.150   4.259   4.028
 4476TIP3    H113434   5.096   4.288   3.955
 4476TIP3    H213435   5.204   4.189   3.991
 4477TIP3   OH213436   3.688   1.343   5.182
 4477TIP3    H113437   3.726   1.412   5.128
 4477TIP3    H213438   3.757   1.278   5.190
 4478TIP3   OH213439   1.441   4.979   4.543
 4478TIP3    H113440   1.482   4.983   4.629
 4478TIP3    H213441   1.385   4.901   4.547
 4479TIP3   OH213442   2.586   3.714   4.038
 4479TIP3    H113443   2.668   3.691   4.082
 4479TIP3    H213444   2.517   3.674   4.091
 4480TIP3   OH213445   3.549   3.045   0.298
 4480TIP3    H113446   3.576   2.960   0.331
 4480TIP3    H213447   3.631   3.092   0.282
 4481TIP3   OH213448   6.145   4.801   1.358
 4481TIP3    H113449   6.056   4.782   1.330
 4481TIP3    H213450   6.187   4.839   1.281
 4482TIP3   OH213451   5.317   5.935   4.367
 4482TIP3    H113452   5.255   6.007   4.359
 4482TIP3    H213453   5.332   5.906   4.277
 4483TIP3   OH213454   1.477   1.812   4.718
 4483TIP3    H113455   1.478   1.835   4.625
 4483TIP3    H213456   1.557   1.849   4.754
 4484TIP3   OH213457   3.984   2.241   3.342
 4484TIP3    H113458   4.024   2.327   3.332
 4484TIP3    H213459   3.896   2.260   3.375
 4485TIP3   OH213460   1.643   1.323   0.021
 4485TIP3    H113461   1.606   1.246   0.065
 4485TIP3    H213462   1.737   1.311   0.028
 4486TIP3   OH213463   6.294   5.679   0.976
 4486TIP3    H113464   6.231   5.703   1.043
 4486TIP3    H213465   6.371   5.650   1.025
 4487TIP3   OH213466   1.952   2.849   2.105
 4487TIP3    H113467   1.888   2.779   2.098
 4487TIP3    H213468   1.963   2.881   2.016
 4488TIP3   OH213469   0.722   3.784   1.551
 4488TIP3    H113470   0.648   3.741   1.595
 4488TIP3    H213471   0.799   3.751   1.597
 4489TIP3   OH213472   3.100   1.072   2.721
 4489TIP3    H113473   3.104   1.103   2.811
 4489TIP3    H213474   3.044   0.995   2.724
 4490TIP3   OH213475   4.258   2.890   2.848
 4490TIP3    H113476   4.170   2.927   2.842
 4490TIP3    H213477   4.246   2.798   2.823
 4491TIP3   OH213478   0.830   2.481   2.481
 4491TIP3    H113479   0.852   2.569   2.513
 4491TIP3    H213480   0.848   2.486   2.387
 4492TIP3   OH213481   0.628   3.969   2.254
 4492TIP3    H113482   0.597   3.905   2.317
 4492TIP3    H213483   0.549   4.010   2.219
 4493TIP3   OH213484   4.729   2.568   3.829
 4493TIP3    H113485   4.764   2.603   3.747
 4493TIP3    H213486   4.795   2.507   3.860
 4494TIP3   OH213487   3.992   4.874   3.924
 4494TIP3    H113488   3.931   4.946   3.910
 4494TIP3    H213489   4.072   4.916   3.956
 4495TIP3   OH213490   1.230   5.271   0.566
 4495TIP3    H113491   1.219   5.329   0.491
 4495TIP3    H213492   1.282   5.198   0.533
 4496TIP3   OH213493   0.930   2.774   2.463
 4496TIP3    H113494   0.878   2.848   2.494
 4496TIP3    H213495   0.989   2.812   2.397
 4497TIP3   OH213496   3.868   2.076   4.935
 4497TIP3    H113497   3.795   2.017   4.954
 4497TIP3    H213498   3.919   2.076   5.016
 4498TIP3   OH213499   4.966   4.555   2.502
 4498TIP3    H113500   4.992   4.626   2.561
 4498TIP3    H213501   4.948   4.599   2.419
 4499TIP3   OH213502   3.741   5.349   4.450
 4499TIP3    H113503   3.755   5.313   4.538
 4499TIP3    H213504   3.673   5.415   4.462
 4500TIP3   OH213505   4.830   4.995   3.266
 4500TIP3    H113506   4.846   4.998   3.360
 4500TIP3    H213507   4.802   5.084   3.243
 4501TIP3   OH213508   1.538   0.852   4.869
 4501TIP3    H113509   1.469   0.903   4.912
 4501TIP3    H213510   1.492   0.783   4.822
 4502TIP3   OH213511   5.834   5.744   3.326
 4502TIP3    H113512   5.770   5.788   3.270
 4502TIP3    H213513   5.827   5.789   3.410
 4503TIP3   OH213514   0.138   2.604   2.824
 4503TIP3    H113515   0.187   2.652   2.891
 4503TIP3    H213516   0.051   2.644   2.825
 4504TIP3   OH213517   3.406   0.115   0.597
 4504TIP3    H113518   3.413   0.059   0.520
 4504TIP3    H213519   3.368   0.058   0.664
 4505TIP3   OH213520   2.634   5.299   3.675
 4505TIP3    H113521   2.656   5.336   3.590
 4505TIP3    H213522   2.642   5.204   3.662
 4506TIP3   OH213523   0.250   4.300   2.933
 4506TIP3    H113524   0.180   4.366   2.936
 4506TIP3    H213525   0.330   4.348   2.952
 4507TIP3   OH213526   5.942   5.900   4.595
 4507TIP3    H113527   5.862   5.869   4.637
 4507TIP3    H213528   5.926   5.887   4.501
 4508TIP3   OH213529   0.315   4.820   4.544
 4508TIP3    H113530   0.324   4.728   4.519
 4508TIP3    H213531   0.234   4.849   4.502
 4509TIP3   OH213532   3.838   4.100   3.960
 4509TIP3    H113533   3.807   4.151   4.035
 4509TIP3    H213534   3.877   4.164   3.902
 4510TIP3   OH213535   2.577   3.758   0.660
 4510TIP3    H113536   2.502   3.708   0.628
 4510TIP3    H213537   2.564   3.846   0.624
 4511TIP3   OH213538   6.227   3.556   4.793
 4511TIP3    H113539   6.203   3.628   4.734
 4511TIP3    H213540   6.164   3.562   4.865
 4512TIP3   OH213541   0.407   1.788   3.729
 4512TIP3    H113542   0.406   1.808   3.636
 4512TIP3    H213543   0.358   1.707   3.737
 4513TIP3   OH213544   3.493   5.881   2.939
 4513TIP3    H113545   3.431   5.851   2.872
 4513TIP3    H213546   3.455   5.963   2.971
 4514TIP3   OH213547   2.503   5.127   4.401
 4514TIP3    H113548   2.517   5.109   4.308
 4514TIP3    H213549   2.493   5.041   4.441
 4515TIP3   OH213550   2.988   2.927   4.548
 4515TIP3    H113551   3.033   2.997   4.501
 4515TIP3    H213552   3.033   2.921   4.633
 4516TIP3   OH213553   2.130   0.775   0.363
 4516TIP3    H113554   2.148   0.713   0.433
 4516TIP3    H213555   2.161   0.859   0.397
 4517TIP3   OH213556   5.270   3.619   0.820
 4517TIP3    H113557   5.312   3.604   0.905
 4517TIP3    H213558   5.269   3.714   0.810
 4518TIP3   OH213559   0.788   3.309   4.302
 4518TIP3    H113560   0.852   3.287   4.370
 4518TIP3    H213561   0.796   3.238   4.238
 4519TIP3   OH213562   6.121   3.177   3.540
 4519TIP3    H113563   6.205   3.147   3.572
 4519TIP3    H213564   6.065   3.180   3.618
 4520TIP3   OH213565   2.245   5.211   4.776
 4520TIP3    H113566   2.176   5.173   4.723
 4520TIP3    H213567   2.227   5.305   4.776
 4521TIP3   OH213568   0.960   1.607   4.278
 4521TIP3    H113569   0.928   1.673   4.217
 4521TIP3    H213570   0.922   1.632   4.363
 4522TIP3   OH213571   0.586   4.970   4.440
 4522TIP3    H113572   0.571   5.054   4.396
 4522TIP3    H213573   0.501   4.946   4.476
 4523TIP3   OH213574   1.898   1.923   3.925
 4523TIP3    H113575   1.980   1.972   3.917
 4523TIP3    H213576   1.854   1.963   4.000
 4524TIP3   OH213577   3.145   4.891   4.471
 4524TIP3    H113578   3.065   4.844   4.450
 4524TIP3    H213579   3.211   4.823   4.482
 4525TIP3   OH213580   1.652   0.589   0.834
 4525TIP3    H113581   1.728   0.626   0.789
 4525TIP3    H213582   1.656   0.627   0.922
 4526TIP3   OH213583   5.324   4.511   3.971
 4526TIP3    H113584   5.418   4.513   3.988
 4526TIP3    H213585   5.312   4.440   3.908
 4527TIP3   OH213586   3.829   2.792   1.364
 4527TIP3    H113587   3.758   2.772   1.303
 4527TIP3    H213588   3.907   2.799   1.309
 4528TIP3   OH213589   5.117   2.527   2.749
 4528TIP3    H113590   5.140   2.589   2.819
 4528TIP3    H213591   5.202   2.492   2.720
 4529TIP3   OH213592   6.314   2.788   1.178
 4529TIP3    H113593   6.341   2.697   1.164
 4529TIP3    H213594   6.334   2.806   1.270
 4530TIP3   OH213595   0.096   1.057   4.425
 4530TIP3    H113596   0.083   0.964   4.443
 4530TIP3    H213597   0.108   1.061   4.330
 4531TIP3   OH213598   1.283   0.165   5.114
 4531TIP3    H113599   1.359   0.149   5.057
 4531TIP3    H213600   1.209   0.131   5.064
 4532TIP3   OH213601   3.816   4.769   1.610
 4532TIP3    H113602   3.745   4.756   1.673
 4532TIP3    H213603   3.896   4.761   1.662
 4533TIP3   OH213604   4.162   1.176   0.717
 4533TIP3    H113605   4.162   1.088   0.755
 4533TIP3    H213606   4.078   1.214   0.746
 4534TIP3   OH213607   5.282   4.562   0.401
 4534TIP3    H113608   5.216   4.586   0.335
 4534TIP3    H213609   5.336   4.641   0.410
 4535TIP3   OH213610   1.303   2.169   0.310
 4535TIP3    H113611   1.355   2.247   0.288
 4535TIP3    H213612   1.226   2.175   0.254
 4536TIP3   OH213613   2.707   1.186   0.882
 4536TIP3    H113614   2.770   1.117   0.901
 4536TIP3    H213615   2.745   1.265   0.921
 4537TIP3   OH213616   0.688   1.852   3.480
 4537TIP3    H113617   0.779   1.879   3.465
 4537TIP3    H213618   0.636   1.922   3.441
 4538TIP3   OH213619   0.303   5.719   0.433
 4538TIP3    H113620   0.276   5.716   0.341
 4538TIP3    H213621   0.290   5.630   0.464
 4539TIP3   OH213622   3.927   0.765   2.419
 4539TIP3    H113623   3.881   0.722   2.347
 4539TIP3    H213624   3.930   0.700   2.488
 4540TIP3   OH213625   1.240   4.135   2.264
 4540TIP3    H113626   1.198   4.110   2.181
 4540TIP3    H213627   1.179   4.199   2.302
 4541TIP3   OH213628   5.673   3.033   4.552
 4541TIP3    H113629   5.595   3.009   4.502
 4541TIP3    H213630   5.735   2.962   4.535
 4542TIP3   OH213631   3.113   1.572   4.110
 4542TIP3    H113632   3.114   1.477   4.124
 4542TIP3    H213633   3.036   1.603   4.158
 4543TIP3   OH213634   1.591   1.349   3.718
 4543TIP3    H113635   1.613   1.430   3.672
 4543TIP3    H213636   1.586   1.374   3.810
 4544TIP3   OH213637   2.802   2.829   2.593
 4544TIP3    H113638   2.887   2.784   2.590
 4544TIP3    H213639   2.738   2.758   2.593
 4545TIP3   OH213640   5.206   2.670   4.730
 4545TIP3    H113641   5.257   2.740   4.772
 4545TIP3    H213642   5.179   2.613   4.802
 4546TIP3   OH213643   5.089   5.159   1.862
 4546TIP3    H113644   5.022   5.206   1.912
 4546TIP3    H213645   5.042   5.086   1.821
 4547TIP3   OH213646   5.027   5.136   1.022
 4547TIP3    H113647   5.116   5.115   1.052
 4547TIP3    H213648   5.030   5.122   0.927
 4548TIP3   OH213649   5.122   1.644   0.735
 4548TIP3    H113650   5.099   1.726   0.692
 4548TIP3    H213651   5.213   1.657   0.764
 4549TIP3   OH213652   3.068   4.520   3.112
 4549TIP3    H113653   3.032   4.592   3.059
 4549TIP3    H213654   3.163   4.535   3.112
 4550TIP3   OH213655   4.107   4.222  -0.020
 4550TIP3    H113656   4.100   4.127  -0.006
 4550TIP3    H213657   4.146   4.255   0.061
 4551TIP3   OH213658   5.326   0.214   1.652
 4551TIP3    H113659   5.377   0.177   1.724
 4551TIP3    H213660   5.239   0.229   1.690
 4552TIP3   OH213661   2.591   5.685   1.363
 4552TIP3    H113662   2.649   5.611   1.377
 4552TIP3    H213663   2.545   5.665   1.282
 4553TIP3   OH213664   4.366   0.518   2.970
 4553TIP3    H113665   4.285   0.542   2.926
 4553TIP3    H213666   4.435   0.539   2.907
 4554TIP3   OH213667   2.847   3.371   2.291
 4554TIP3    H113668   2.837   3.379   2.386
 4554TIP3    H213669   2.940   3.356   2.277
 4555TIP3   OH213670   5.758   1.177   2.150
 4555TIP3    H113671   5.687   1.137   2.100
 4555TIP3    H213672   5.719   1.255   2.189
 4556TIP3   OH213673   1.704   0.712   0.344
 4556TIP3    H113674   1.741   0.651   0.408
 4556TIP3    H213675   1.781   0.749   0.300
 4557TIP3   OH213676   2.207   5.018   1.264
 4557TIP3    H113677   2.225   4.930   1.299
 4557TIP3    H213678   2.169   5.065   1.338
 4558TIP3   OH213679   0.891   1.695   4.514
 4558TIP3    H113680   0.875   1.655   4.599
 4558TIP3    H213681   0.818   1.756   4.503
 4559TIP3   OH213682   0.284   0.077   4.290
 4559TIP3    H113683   0.195   0.076   4.324
 4559TIP3    H213684   0.285   0.151   4.229
 4560TIP3   OH213685   3.029   1.375   0.915
 4560TIP3    H113686   3.015   1.374   0.820
 4560TIP3    H213687   2.956   1.425   0.950
 4561TIP3   OH213688   1.863   3.847   3.814
 4561TIP3    H113689   1.776   3.831   3.849
 4561TIP3    H213690   1.847   3.885   3.727
 4562TIP3   OH213691   2.606   3.621   2.901
 4562TIP3    H113692   2.625   3.543   2.847
 4562TIP3    H213693   2.611   3.589   2.991
 4563TIP3   OH213694   5.543   0.967   3.692
 4563TIP3    H113695   5.541   0.980   3.598
 4563TIP3    H213696   5.453   0.944   3.716
 4564TIP3   OH213697   2.282   3.743   2.706
 4564TIP3    H113698   2.236   3.796   2.642
 4564TIP3    H213699   2.214   3.715   2.767
 4565TIP3   OH213700   2.664   1.978   4.341
 4565TIP3    H113701   2.569   1.985   4.331
 4565TIP3    H213702   2.699   1.994   4.254
 4566TIP3   OH213703   4.651   5.473   4.786
 4566TIP3    H113704   4.673   5.494   4.695
 4566TIP3    H213705   4.735   5.451   4.827
 4567TIP3   OH213706   4.056   5.452   3.752
 4567TIP3    H113707   4.026   5.419   3.668
 4567TIP3    H213708   4.094   5.376   3.796
 4568TIP3   OH213709   3.187   3.797  -0.014
 4568TIP3    H113710   3.156   3.713   0.017
 4568TIP3    H213711   3.116   3.858   0.006
 4569TIP3   OH213712   1.985   3.701   0.724
 4569TIP3    H113713   1.994   3.715   0.629
 4569TIP3    H213714   1.925   3.770   0.753
 4570TIP3   OH213715   3.305   4.483   3.604
 4570TIP3    H113716   3.377   4.537   3.572
 4570TIP3    H213717   3.229   4.541   3.603
 4571TIP3   OH213718   4.887   5.465   1.739
 4571TIP3    H113719   4.948   5.537   1.721
 4571TIP3    H213720   4.803   5.508   1.755
 4572TIP3   OH213721   0.795   1.410   3.427
 4572TIP3    H113722   0.865   1.393   3.490
 4572TIP3    H213723   0.841   1.424   3.344
 4573TIP3   OH213724   4.108   4.554   1.306
 4573TIP3    H113725   4.141   4.465   1.319
 4573TIP3    H213726   4.077   4.554   1.216
 4574TIP3   OH213727   2.485   2.794   4.007
 4574TIP3    H113728   2.395   2.767   3.990
 4574TIP3    H213729   2.517   2.732   4.073
 4575TIP3   OH213730   4.165   0.179   0.387
 4575TIP3    H113731   4.250   0.134   0.392
 4575TIP3    H213732   4.139   0.171   0.295
 4576TIP3   OH213733   2.772   1.589   0.783
 4576TIP3    H113734   2.727   1.564   0.703
 4576TIP3    H213735   2.838   1.652   0.755
 4577TIP3   OH213736   2.997   1.578   1.870
 4577TIP3    H113737   2.994   1.490   1.910
 4577TIP3    H213738   3.090   1.598   1.864
 4578TIP3   OH213739   1.382   3.115   0.060
 4578TIP3    H113740   1.442   3.096   0.132
 4578TIP3    H213741   1.298   3.082   0.090
 4579TIP3   OH213742   5.877   2.712   0.787
 4579TIP3    H113743   5.948   2.776   0.789
 4579TIP3    H213744   5.869   2.683   0.878
 4580TIP3   OH213745   4.625   0.422   4.023
 4580TIP3    H113746   4.656   0.489   3.961
 4580TIP3    H213747   4.652   0.339   3.984
 4581TIP3   OH213748   0.337   1.204   0.287
 4581TIP3    H113749   0.386   1.137   0.239
 4581TIP3    H213750   0.317   1.164   0.371
 4582TIP3   OH213751   5.013   2.236   1.919
 4582TIP3    H113752   5.083   2.182   1.955
 4582TIP3    H213753   5.039   2.326   1.941
 4583TIP3   OH213754   4.557   1.584   0.165
 4583TIP3    H113755   4.495   1.572   0.093
 4583TIP3    H213756   4.630   1.526   0.143
 4584TIP3   OH213757   6.084   0.052   0.650
 4584TIP3    H113758   6.115   0.042   0.740
 4584TIP3    H213759   5.989   0.049   0.657
 4585TIP3   OH213760   4.685   1.663   4.025
 4585TIP3    H113761   4.687   1.720   4.102
 4585TIP3    H213762   4.773   1.670   3.988
 4586TIP3   OH213763   2.798   5.431   4.552
 4586TIP3    H113764   2.765   5.409   4.639
 4586TIP3    H213765   2.754   5.514   4.531
 4587TIP3   OH213766   5.726   0.822   1.016
 4587TIP3    H113767   5.821   0.831   1.027
 4587TIP3    H213768   5.692   0.827   1.105
 4588TIP3   OH213769   0.966   4.146   1.468
 4588TIP3    H113770   0.924   4.203   1.403
 4588TIP3    H213771   1.055   4.134   1.435
 4589TIP3   OH213772   3.574   5.470   0.928
 4589TIP3    H113773   3.661   5.447   0.897
 4589TIP3    H213774   3.550   5.549   0.879
 4590TIP3   OH213775   5.102   2.844   1.478
 4590TIP3    H113776   5.016   2.878   1.500
 4590TIP3    H213777   5.130   2.797   1.556
 4591TIP3   OH213778   5.971   2.636   3.980
 4591TIP3    H113779   5.991   2.702   3.913
 4591TIP3    H213780   6.056   2.605   4.009
 4592TIP3   OH213781   6.335   1.432   3.614
 4592TIP3    H113782   6.268   1.449   3.680
 4592TIP3    H213783   6.295   1.458   3.531
 4593TIP3   OH213784   0.188   1.600   4.384
 4593TIP3    H113785   0.229   1.520   4.417
 4593TIP3    H213786   0.232   1.670   4.431
 4594TIP3   OH213787   1.501   3.403   1.515
 4594TIP3    H113788   1.463   3.480   1.474
 4594TIP3    H213789   1.515   3.429   1.606
 4595TIP3   OH213790   1.879   2.012   2.045
 4595TIP3    H113791   1.962   2.008   2.092
 4595TIP3    H213792   1.896   2.067   1.969
 4596TIP3   OH213793   1.686   4.109   3.350
 4596TIP3    H113794   1.721   4.124   3.263
 4596TIP3    H213795   1.623   4.039   3.339
 4597TIP3   OH213796   5.923   2.389   4.671
 4597TIP3    H113797   5.887   2.476   4.654
 4597TIP3    H213798   5.852   2.329   4.649
 4598TIP3   OH213799   6.037   4.783   3.319
 4598TIP3    H113800   6.047   4.862   3.265
 4598TIP3    H213801   5.995   4.720   3.261
 4599TIP3   OH213802   0.374   5.320   1.227
 4599TIP3    H113803   0.365   5.342   1.320
 4599TIP3    H213804   0.285   5.313   1.195
 4600TIP3   OH213805   5.745   3.013   3.954
 4600TIP3    H113806   5.672   3.010   3.892
 4600TIP3    H213807   5.735   3.098   3.998
 4601TIP3   OH213808   2.795   5.118   3.196
 4601TIP3    H113809   2.872   5.061   3.197
 4601TIP3    H213810   2.726   5.066   3.238
 4602TIP3   OH213811   4.788   4.789   1.979
 4602TIP3    H113812   4.785   4.695   1.995
 4602TIP3    H213813   4.750   4.829   2.058
 4603TIP3   OH213814   0.475   5.815   3.117
 4603TIP3    H113815   0.487   5.909   3.123
 4603TIP3    H213816   0.562   5.780   3.098
 4604TIP3   OH213817   2.770   2.457   0.648
 4604TIP3    H113818   2.714   2.461   0.570
 4604TIP3    H213819   2.748   2.537   0.696
 4605TIP3   OH213820   0.804   3.431   2.646
 4605TIP3    H113821   0.861   3.469   2.713
 4605TIP3    H213822   0.731   3.493   2.638
 4606TIP3   OH213823   2.156   0.883   3.445
 4606TIP3    H113824   2.065   0.877   3.472
 4606TIP3    H213825   2.153   0.912   3.354
 4607TIP3   OH213826   4.217   5.625   4.124
 4607TIP3    H113827   4.268   5.695   4.164
 4607TIP3    H213828   4.221   5.553   4.186
 4608TIP3   OH213829   3.138   4.459   4.929
 4608TIP3    H113830   3.048   4.490   4.941
 4608TIP3    H213831   3.156   4.474   4.837
 4609TIP3   OH213832   0.173   4.494   2.449
 4609TIP3    H113833   0.252   4.451   2.483
 4609TIP3    H213834   0.113   4.498   2.524
 4610TIP3   OH213835   6.000   0.469   0.551
 4610TIP3    H113836   6.011   0.555   0.510
 4610TIP3    H213837   6.085   0.427   0.544
 4611TIP3   OH213838   4.411   3.216   3.922
 4611TIP3    H113839   4.319   3.200   3.945
 4611TIP3    H213840   4.442   3.276   3.989
 4612TIP3   OH213841   5.564   3.658   2.521
 4612TIP3    H113842   5.479   3.696   2.545
 4612TIP3    H213843   5.627   3.699   2.580
 4613TIP3   OH213844   0.011   5.022   1.752
 4613TIP3    H113845   0.049   4.956   1.810
 4613TIP3    H213846  -0.045   5.075   1.809
 4614TIP3   OH213847   0.244   3.079   1.059
 4614TIP3    H113848   0.305   3.097   1.130
 4614TIP3    H213849   0.298   3.044   0.989
 4615TIP3   OH213850   2.815   0.918   0.874
 4615TIP3    H113851   2.724   0.895   0.893
 4615TIP3    H213852   2.854   0.837   0.840
 4616TIP3   OH213853   3.827   3.477   1.262
 4616TIP3    H113854   3.743   3.440   1.289
 4616TIP3    H213855   3.808   3.524   1.181
 4617TIP3   OH213856   6.109   3.288   1.582
 4617TIP3    H113857   6.044   3.234   1.626
 4617TIP3    H213858   6.154   3.335   1.652
 4618TIP3   OH213859   3.444   4.222   1.802
 4618TIP3    H113860   3.510   4.257   1.862
 4618TIP3    H213861   3.383   4.175   1.859
 4619TIP3   OH213862   2.825   4.275   3.569
 4619TIP3    H113863   2.919   4.293   3.559
 4619TIP3    H213864   2.798   4.240   3.484
 4620TIP3   OH213865   5.687   1.399   2.772
 4620TIP3    H113866   5.686   1.401   2.676
 4620TIP3    H213867   5.770   1.356   2.793
 4621TIP3   OH213868   1.893   3.549   4.950
 4621TIP3    H113869   1.844   3.491   4.891
 4621TIP3    H213870   1.927   3.490   5.017
 4622TIP3   OH213871   2.701   3.857   4.925
 4622TIP3    H113872   2.770   3.922   4.911
 4622TIP3    H213873   2.748   3.776   4.944
 4623TIP3   OH213874   3.243   2.245   1.295
 4623TIP3    H113875   3.270   2.215   1.208
 4623TIP3    H213876   3.160   2.290   1.279
 4624TIP3   OH213877   3.077   4.045   1.218
 4624TIP3    H113878   3.015   3.972   1.211
 4624TIP3    H213879   3.106   4.061   1.128
 4625TIP3   OH213880   4.871   2.016   1.579
 4625TIP3    H113881   4.786   1.979   1.603
 4625TIP3    H213882   4.857   2.111   1.579
 4626TIP3   OH213883   3.358   1.938   3.721
 4626TIP3    H113884   3.420   2.009   3.707
 4626TIP3    H213885   3.412   1.866   3.755
 4627TIP3   OH213886   5.522   1.284   3.477
 4627TIP3    H113887   5.573   1.247   3.405
 4627TIP3    H213888   5.530   1.379   3.465
 4628TIP3   OH213889   2.931   5.767   3.221
 4628TIP3    H113890   2.859   5.822   3.188
 4628TIP3    H213891   3.003   5.783   3.160
 4629TIP3   OH213892   0.899   2.382   4.966
 4629TIP3    H113893   0.895   2.423   4.880
 4629TIP3    H213894   0.830   2.316   4.965
 4630TIP3   OH213895   4.129   3.906   0.588
 4630TIP3    H113896   4.085   3.882   0.506
 4630TIP3    H213897   4.219   3.875   0.576
 4631TIP3   OH213898   0.513   1.248   1.350
 4631TIP3    H113899   0.448   1.299   1.302
 4631TIP3    H213900   0.500   1.272   1.441
 4632TIP3   OH213901   2.478   5.868   0.826
 4632TIP3    H113902   2.387   5.840   0.832
 4632TIP3    H213903   2.486   5.940   0.888
 4633TIP3   OH213904   6.068   2.391   3.314
 4633TIP3    H113905   6.021   2.441   3.381
 4633TIP3    H213906   6.052   2.439   3.232
 4634TIP3   OH213907   1.245   2.074   0.845
 4634TIP3    H113908   1.301   2.061   0.922
 4634TIP3    H213909   1.169   2.019   0.861
 4635TIP3   OH213910   6.024   3.860   0.477
 4635TIP3    H113911   5.929   3.870   0.486
 4635TIP3    H213912   6.060   3.900   0.556
 4636TIP3   OH213913   2.163   0.265   3.987
 4636TIP3    H113914   2.195   0.352   4.012
 4636TIP3    H213915   2.194   0.253   3.897
 4637TIP3   OH213916   3.445   4.508   4.843
 4637TIP3    H113917   3.480   4.442   4.903
 4637TIP3    H213918   3.381   4.460   4.790
 4638TIP3   OH213919   3.637   0.551   4.403
 4638TIP3    H113920   3.597   0.638   4.399
 4638TIP3    H213921   3.731   0.569   4.415
 4639TIP3   OH213922   4.432   2.458   2.591
 4639TIP3    H113923   4.350   2.459   2.641
 4639TIP3    H213924   4.458   2.550   2.587
 4640TIP3   OH213925   5.983   4.038   2.413
 4640TIP3    H113926   5.982   3.948   2.381
 4640TIP3    H213927   6.036   4.034   2.493
 4641TIP3   OH213928   3.197   2.750   0.226
 4641TIP3    H113929   3.238   2.666   0.205
 4641TIP3    H213930   3.260   2.815   0.196
 4642TIP3   OH213931   1.278   2.083   3.583
 4642TIP3    H113932   1.335   2.017   3.622
 4642TIP3    H213933   1.281   2.065   3.489
 4643TIP3   OH213934   6.053   2.368   4.908
 4643TIP3    H113935   5.997   2.365   4.830
 4643TIP3    H213936   5.992   2.366   4.982
 4644TIP3   OH213937   6.113   0.242   1.839
 4644TIP3    H113938   6.048   0.305   1.808
 4644TIP3    H213939   6.196   0.273   1.802
 4645TIP3   OH213940   6.095   2.989   0.820
 4645TIP3    H113941   6.069   3.035   0.739
 4645TIP3    H213942   6.160   2.925   0.791
 4646TIP3   OH213943   4.763   5.298   4.316
 4646TIP3    H113944   4.829   5.305   4.246
 4646TIP3    H213945   4.769   5.207   4.345
 4647TIP3   OH213946   4.705   5.123   1.722
 4647TIP3    H113947   4.729   5.165   1.805
 4647TIP3    H213948   4.758   5.168   1.656
 4648TIP3   OH213949   5.808   3.278   4.456
 4648TIP3    H113950   5.760   3.206   4.496
 4648TIP3    H213951   5.863   3.237   4.389
 4649TIP3   OH213952   0.746   0.056   1.167
 4649TIP3    H113953   0.694  -0.022   1.186
 4649TIP3    H213954   0.682   0.127   1.160
 4650TIP3   OH213955   0.021   4.739   2.381
 4650TIP3    H113956   0.065   4.675   2.437
 4650TIP3    H213957   0.049   4.824   2.415
 4651TIP3   OH213958   2.076   5.939   1.094
 4651TIP3    H113959   2.136   5.878   1.139
 4651TIP3    H213960   2.115   6.025   1.107
 4652TIP3   OH213961   1.654   3.896   2.012
 4652TIP3    H113962   1.570   3.898   2.057
 4652TIP3    H213963   1.655   3.975   1.958
 4653TIP3   OH213964   3.691   5.194   3.248
 4653TIP3    H113965   3.680   5.225   3.338
 4653TIP3    H213966   3.621   5.238   3.200
 4654TIP3   OH213967   1.139   0.746   1.325
 4654TIP3    H113968   1.128   0.652   1.332
 4654TIP3    H213969   1.082   0.772   1.252
 4655TIP3   OH213970   4.425   5.594   1.410
 4655TIP3    H113971   4.492   5.533   1.378
 4655TIP3    H213972   4.429   5.586   1.505
 4656TIP3   OH213973   2.876   0.523   0.309
 4656TIP3    H113974   2.934   0.598   0.298
 4656TIP3    H213975   2.805   0.555   0.365
 4657TIP3   OH213976   4.868   3.808   3.584
 4657TIP3    H113977   4.818   3.786   3.506
 4657TIP3    H213978   4.874   3.725   3.632
 4658TIP3   OH213979   4.646   5.558   0.036
 4658TIP3    H113980   4.647   5.609   0.117
 4658TIP3    H213981   4.595   5.612  -0.025
 4659TIP3   OH213982   3.839   2.805   1.653
 4659TIP3    H113983   3.749   2.824   1.681
 4659TIP3    H213984   3.836   2.809   1.558
 4660TIP3   OH213985   2.413   4.876   3.734
 4660TIP3    H113986   2.345   4.865   3.667
 4660TIP3    H213987   2.375   4.933   3.799
 4661TIP3   OH213988   5.792   1.177   2.963
 4661TIP3    H113989   5.871   1.158   3.015
 4661TIP3    H213990   5.736   1.226   3.022
 4662TIP3   OH213991   2.539   5.750   2.771
 4662TIP3    H113992   2.476   5.749   2.844
 4662TIP3    H213993   2.485   5.737   2.693
 4663TIP3   OH213994   5.472   5.640   0.136
 4663TIP3    H113995   5.459   5.546   0.123
 4663TIP3    H213996   5.502   5.648   0.226
 4664TIP3   OH213997   0.565   4.978   0.034
 4664TIP3    H113998   0.611   4.987   0.118
 4664TIP3    H213999   0.481   4.940   0.056
 4665TIP3   OH214000   5.529   2.711   0.771
 4665TIP3    H114001   5.482   2.713   0.688
 4665TIP3    H214002   5.571   2.797   0.776
 4666TIP3   OH214003   6.299   3.889   4.075
 4666TIP3    H114004   6.369   3.859   4.133
 4666TIP3    H214005   6.285   3.980   4.099
 4667TIP3   OH214006   3.350   4.701   5.017
 4667TIP3    H114007   3.363   4.614   4.980
 4667TIP3    H214008   3.333   4.757   4.941
 4668TIP3   OH214009   4.909   4.694   0.666
 4668TIP3    H114010   4.852   4.622   0.692
 4668TIP3    H214011   4.853   4.752   0.616
 4669TIP3   OH214012   4.974   3.714   3.292
 4669TIP3    H114013   4.882   3.737   3.284
 4669TIP3    H214014   5.021   3.793   3.266
 4670TIP3   OH214015   3.437   5.633   2.473
 4670TIP3    H114016   3.455   5.652   2.565
 4670TIP3    H214017   3.426   5.538   2.470
 4671TIP3   OH214018   4.054   1.781   1.543
 4671TIP3    H114019   4.059   1.738   1.628
 4671TIP3    H214020   4.056   1.708   1.480
 4672TIP3   OH214021   5.393   1.560   1.228
 4672TIP3    H114022   5.333   1.522   1.164
 4672TIP3    H214023   5.393   1.499   1.302
 4673TIP3   OH214024   2.578   4.484   0.971
 4673TIP3    H114025   2.633   4.410   0.945
 4673TIP3    H214026   2.632   4.535   1.031
 4674TIP3   OH214027   4.148   3.900   4.938
 4674TIP3    H114028   4.055   3.919   4.928
 4674TIP3    H214029   4.191   3.966   4.883
 4675TIP3   OH214030   1.868   5.330   2.472
 4675TIP3    H114031   1.842   5.258   2.529
 4675TIP3    H214032   1.930   5.381   2.524
 4676TIP3   OH214033   6.166   5.552   4.867
 4676TIP3    H114034   6.179   5.593   4.953
 4676TIP3    H214035   6.251   5.556   4.825
 4677TIP3   OH214036   5.748   0.309   4.809
 4677TIP3    H114037   5.728   0.230   4.758
 4677TIP3    H214038   5.690   0.304   4.885
 4678TIP3   OH214039   3.643   1.258   4.415
 4678TIP3    H114040   3.631   1.172   4.454
 4678TIP3    H214041   3.573   1.311   4.453
 4679TIP3   OH214042   5.919   2.065   0.225
 4679TIP3    H114043   5.887   2.105   0.144
 4679TIP3    H214044   5.893   2.126   0.294
 4680TIP3   OH214045   0.112   1.831   4.182
 4680TIP3    H114046   0.198   1.817   4.219
 4680TIP3    H214047   0.126   1.832   4.087
 4681TIP3   OH214048   4.377   0.220   3.830
 4681TIP3    H114049   4.414   0.300   3.792
 4681TIP3    H214050   4.304   0.198   3.773
 4682TIP3   OH214051   5.552   3.347   4.347
 4682TIP3    H114052   5.545   3.302   4.431
 4682TIP3    H214053   5.645   3.360   4.334
 4683TIP3   OH214054   3.079   3.076   4.134
 4683TIP3    H114055   3.047   2.994   4.173
 4683TIP3    H214056   3.017   3.095   4.063
 4684TIP3   OH214057   2.818   1.608   0.508
 4684TIP3    H114058   2.790   1.568   0.425
 4684TIP3    H214059   2.901   1.651   0.486
 4685TIP3   OH214060   6.098   4.442   0.269
 4685TIP3    H114061   6.050   4.516   0.233
 4685TIP3    H214062   6.037   4.368   0.265
 4686TIP3   OH214063   4.005   5.306   0.459
 4686TIP3    H114064   4.068   5.285   0.391
 4686TIP3    H214065   3.953   5.227   0.471
 4687TIP3   OH214066   1.486   2.824   5.025
 4687TIP3    H114067   1.582   2.823   5.027
 4687TIP3    H214068   1.463   2.747   4.973
 4688TIP3   OH214069   5.217   0.020   1.991
 4688TIP3    H114070   5.221  -0.069   1.957
 4688TIP3    H214071   5.148   0.062   1.939
 4689TIP3   OH214072   1.174   3.284   2.342
 4689TIP3    H114073   1.188   3.265   2.249
 4689TIP3    H214074   1.239   3.230   2.388
 4690TIP3   OH214075   1.333   2.188   2.225
 4690TIP3    H114076   1.394   2.117   2.207
 4690TIP3    H214077   1.349   2.212   2.317
 4691TIP3   OH214078   1.319   4.120   1.832
 4691TIP3    H114079   1.342   4.154   1.918
 4691TIP3    H214080   1.339   4.027   1.836
 4692TIP3   OH214081   2.431   3.213   4.085
 4692TIP3    H114082   2.398   3.295   4.049
 4692TIP3    H214083   2.526   3.226   4.092
 4693TIP3   OH214084   1.330   1.948   4.263
 4693TIP3    H114085   1.332   1.856   4.238
 4693TIP3    H214086   1.253   1.956   4.320
 4694TIP3   OH214087   4.621   2.141   4.028
 4694TIP3    H114088   4.659   2.169   3.944
 4694TIP3    H214089   4.679   2.072   4.059
 4695TIP3   OH214090   5.982   1.586   5.152
 4695TIP3    H114091   5.898   1.588   5.106
 4695TIP3    H214092   6.042   1.634   5.095
 4696TIP3   OH214093   2.881   1.922   1.395
 4696TIP3    H114094   2.843   1.903   1.481
 4696TIP3    H214095   2.921   2.008   1.405
 4697TIP3   OH214096   0.170   2.865   4.059
 4697TIP3    H114097   0.220   2.833   4.135
 4697TIP3    H214098   0.112   2.932   4.096
 4698TIP3   OH214099   4.408   0.798   1.261
 4698TIP3    H114100   4.364   0.717   1.287
 4698TIP3    H214101   4.340   0.864   1.263
 4699TIP3   OH214102   1.571   0.413   1.518
 4699TIP3    H114103   1.558   0.504   1.492
 4699TIP3    H214104   1.663   0.409   1.545
 4700TIP3   OH214105   6.290   2.122   3.578
 4700TIP3    H114106   6.341   2.149   3.655
 4700TIP3    H214107   6.202   2.105   3.612
 4701TIP3   OH214108   2.247   1.281   2.798
 4701TIP3    H114109   2.206   1.309   2.880
 4701TIP3    H214110   2.174   1.268   2.738
 4702TIP3   OH214111   4.871   5.965   2.565
 4702TIP3    H114112   4.947   5.916   2.534
 4702TIP3    H214113   4.896   6.057   2.554
 4703TIP3   OH214114   4.626   5.739   3.043
 4703TIP3    H114115   4.589   5.663   2.997
 4703TIP3    H214116   4.668   5.702   3.120
 4704TIP3   OH214117   5.056   3.926   5.102
 4704TIP3    H114118   4.990   3.912   5.034
 4704TIP3    H214119   5.044   3.854   5.164
 4705TIP3   OH214120   3.259   0.626   3.300
 4705TIP3    H114121   3.211   0.568   3.241
 4705TIP3    H214122   3.307   0.686   3.243
 4706TIP3   OH214123   3.520   3.749   4.634
 4706TIP3    H114124   3.544   3.823   4.578
 4706TIP3    H214125   3.587   3.683   4.615
 4707TIP3   OH214126   0.262   3.997   3.469
 4707TIP3    H114127   0.214   3.914   3.462
 4707TIP3    H214128   0.347   3.972   3.506
 4708TIP3   OH214129   1.679   0.912   1.630
 4708TIP3    H114130   1.639   0.996   1.610
 4708TIP3    H214131   1.695   0.914   1.725
 4709TIP3   OH214132   4.206   2.170   4.851
 4709TIP3    H114133   4.292   2.142   4.820
 4709TIP3    H214134   4.169   2.092   4.892
 4710TIP3   OH214135   3.446   3.229   4.930
 4710TIP3    H114136   3.449   3.322   4.954
 4710TIP3    H214137   3.394   3.188   5.000
 4711TIP3   OH214138   2.609   5.842   2.434
 4711TIP3    H114139   2.519   5.820   2.459
 4711TIP3    H214140   2.663   5.798   2.499
 4712TIP3   OH214141   6.315   5.299   3.443
 4712TIP3    H114142   6.359   5.306   3.358
 4712TIP3    H214143   6.310   5.204   3.459
 4713TIP3   OH214144   0.026   0.420   2.809
 4713TIP3    H114145   0.064   0.477   2.742
 4713TIP3    H214146   0.100   0.387   2.858
 4714TIP3   OH214147   4.960   5.864   0.384
 4714TIP3    H114148   5.007   5.795   0.429
 4714TIP3    H214149   5.028   5.929   0.362
 4715TIP3   OH214150   0.167   5.847   2.122
 4715TIP3    H114151   0.224   5.921   2.145
 4715TIP3    H214152   0.092   5.887   2.078
 4716TIP3   OH214153   6.133   4.689   2.467
 4716TIP3    H114154   6.225   4.712   2.456
 4716TIP3    H214155   6.130   4.594   2.454
 4717TIP3   OH214156   2.277   3.488   1.058
 4717TIP3    H114157   2.341   3.490   1.129
 4717TIP3    H214158   2.214   3.556   1.080
 4718TIP3   OH214159   1.231   1.839   1.934
 4718TIP3    H114160   1.326   1.852   1.932
 4718TIP3    H214161   1.197   1.920   1.971
 4719TIP3   OH214162   1.904   4.761   2.142
 4719TIP3    H114163   1.920   4.756   2.236
 4719TIP3    H214164   1.966   4.827   2.111
 4720TIP3   OH214165   1.738   0.423   5.031
 4720TIP3    H114166   1.827   0.431   5.067
 4720TIP3    H214167   1.737   0.484   4.957
 4721TIP3   OH214168   2.270   1.319   3.169
 4721TIP3    H114169   2.203   1.297   3.104
 4721TIP3    H214170   2.313   1.235   3.188
 4722TIP3   OH214171   5.852   1.620   2.425
 4722TIP3    H114172   5.800   1.698   2.442
 4722TIP3    H214173   5.905   1.642   2.349
 4723TIP3   OH214174   5.281   5.222   2.889
 4723TIP3    H114175   5.360   5.265   2.922
 4723TIP3    H214176   5.282   5.238   2.795
 4724TIP3   OH214177   2.625   5.682   4.564
 4724TIP3    H114178   2.678   5.701   4.642
 4724TIP3    H214179   2.568   5.758   4.555
 4725TIP3   OH214180   4.614   4.209   0.927
 4725TIP3    H114181   4.650   4.271   0.990
 4725TIP3    H214182   4.669   4.220   0.849
 4726TIP3   OH214183   1.566   2.650   2.561
 4726TIP3    H114184   1.628   2.693   2.619
 4726TIP3    H214185   1.480   2.681   2.590
 4727TIP3   OH214186   5.593   4.742   3.263
 4727TIP3    H114187   5.567   4.673   3.202
 4727TIP3    H214188   5.634   4.809   3.207
 4728TIP3   OH214189   2.785   4.801   4.488
 4728TIP3    H114190   2.778   4.897   4.491
 4728TIP3    H214191   2.766   4.778   4.397
 4729TIP3   OH214192   1.263   2.597   0.387
 4729TIP3    H114193   1.171   2.584   0.364
 4729TIP3    H214194   1.261   2.661   0.458
 4730TIP3   OH214195   5.007   0.445   4.384
 4730TIP3    H114196   5.032   0.384   4.314
 4730TIP3    H214197   4.967   0.390   4.451
 4731TIP3   OH214198   0.148   3.413   1.234
 4731TIP3    H114199   0.113   3.500   1.253
 4731TIP3    H214200   0.086   3.353   1.275
 4732TIP3   OH214201   2.114   1.640   1.417
 4732TIP3    H114202   2.191   1.600   1.375
 4732TIP3    H214203   2.135   1.734   1.420
 4733TIP3   OH214204   1.313   2.457   2.146
 4733TIP3    H114205   1.328   2.367   2.175
 4733TIP3    H214206   1.381   2.474   2.082
 4734TIP3   OH214207   4.196   5.088   3.603
 4734TIP3    H114208   4.260   5.153   3.575
 4734TIP3    H214209   4.210   5.080   3.698
 4735TIP3   OH214210   1.669   3.403   2.980
 4735TIP3    H114211   1.731   3.346   2.935
 4735TIP3    H214212   1.714   3.431   3.059
 4736TIP3   OH214213   1.040   1.749   4.929
 4736TIP3    H114214   1.032   1.829   4.876
 4736TIP3    H214215   1.102   1.773   4.998
 4737TIP3   OH214216   3.980   1.465   2.324
 4737TIP3    H114217   4.045   1.505   2.266
 4737TIP3    H214218   3.900   1.515   2.307
 4738TIP3   OH214219   5.802   0.827   0.168
 4738TIP3    H114220   5.788   0.868   0.253
 4738TIP3    H214221   5.854   0.890   0.119
 4739TIP3   OH214222   2.321   2.538  -0.023
 4739TIP3    H114223   2.281   2.560   0.061
 4739TIP3    H214224   2.362   2.452  -0.009
 4740TIP3   OH214225   5.547   2.098   2.651
 4740TIP3    H114226   5.607   2.068   2.720
 4740TIP3    H214227   5.598   2.159   2.599
 4741TIP3   OH214228   2.055   1.349   2.969
 4741TIP3    H114229   1.999   1.277   2.999
 4741TIP3    H214230   2.005   1.428   2.991
 4742TIP3   OH214231   0.980   3.873   4.002
 4742TIP3    H114232   0.893   3.912   4.006
 4742TIP3    H214233   1.027   3.926   3.937
 4743TIP3   OH214234   1.455   3.956   0.373
 4743TIP3    H114235   1.472   4.012   0.297
 4743TIP3    H214236   1.366   3.979   0.400
 4744TIP3   OH214237   4.470   0.611   2.467
 4744TIP3    H114238   4.513   0.527   2.484
 4744TIP3    H214239   4.376   0.590   2.464
 4745TIP3   OH214240   5.160   4.389   4.903
 4745TIP3    H114241   5.141   4.475   4.939
 4745TIP3    H214242   5.073   4.351   4.885
 4746TIP3   OH214243   6.076   4.222   3.318
 4746TIP3    H114244   6.078   4.230   3.222
 4746TIP3    H214245   6.166   4.237   3.345
 4747TIP3   OH214246   0.419   3.406   1.289
 4747TIP3    H114247   0.323   3.409   1.285
 4747TIP3    H214248   0.441   3.316   1.265
 4748TIP3   OH214249   2.463   4.011   1.011
 4748TIP3    H114250   2.488   3.924   0.979
 4748TIP3    H214251   2.539   4.040   1.062
 4749TIP3   OH214252   4.743   5.568   3.623
 4749TIP3    H114253   4.681   5.621   3.673
 4749TIP3    H214254   4.691   5.533   3.550
 4750TIP3   OH214255   4.102   0.557   2.870
 4750TIP3    H114256   4.046   0.497   2.920
 4750TIP3    H214257   4.075   0.644   2.899
 4751TIP3   OH214258   6.005   1.310   3.243
 4751TIP3    H114259   5.985   1.391   3.196
 4751TIP3    H214260   6.052   1.257   3.179
 4752TIP3   OH214261   5.151   5.828   2.103
 4752TIP3    H114262   5.201   5.902   2.137
 4752TIP3    H214263   5.132   5.773   2.179
 4753TIP3   OH214264   3.719   0.370   2.143
 4753TIP3    H114265   3.734   0.341   2.054
 4753TIP3    H214266   3.661   0.304   2.181
 4754TIP3   OH214267   4.606   5.189   0.482
 4754TIP3    H114268   4.527   5.226   0.443
 4754TIP3    H214269   4.638   5.125   0.418
 4755TIP3   OH214270   6.292   4.409   0.463
 4755TIP3    H114271   6.241   4.430   0.385
 4755TIP3    H214272   6.371   4.366   0.430
 4756TIP3   OH214273   2.192   4.834   3.284
 4756TIP3    H114274   2.181   4.802   3.194
 4756TIP3    H214275   2.144   4.771   3.337
 4757TIP3   OH214276   2.549   0.634   2.037
 4757TIP3    H114277   2.523   0.715   1.993
 4757TIP3    H214278   2.493   0.567   1.999
 4758TIP3   OH214279   4.686   4.291   3.370
 4758TIP3    H114280   4.666   4.207   3.412
 4758TIP3    H214281   4.731   4.267   3.289
 4759TIP3   OH214282   0.971   2.673   4.549
 4759TIP3    H114283   1.005   2.725   4.476
 4759TIP3    H214284   0.981   2.730   4.625
 4760TIP3   OH214285   6.366   3.932   0.904
 4760TIP3    H114286   6.351   4.018   0.942
 4760TIP3    H214287   6.316   3.872   0.959
 4761TIP3   OH214288   4.849   4.741   4.710
 4761TIP3    H114289   4.796   4.712   4.785
 4761TIP3    H214290   4.873   4.659   4.665
 4762TIP3   OH214291   3.836   0.224   2.658
 4762TIP3    H114292   3.753   0.212   2.613
 4762TIP3    H214293   3.885   0.144   2.641
 4763TIP3   OH214294   5.339   5.879   0.462
 4763TIP3    H114295   5.429   5.907   0.483
 4763TIP3    H214296   5.296   5.873   0.546
 4764TIP3   OH214297   0.729   4.076   1.118
 4764TIP3    H114298   0.804   4.021   1.139
 4764TIP3    H214299   0.653   4.020   1.134
 4765TIP3   OH214300   1.123   5.702   0.412
 4765TIP3    H114301   1.093   5.777   0.465
 4765TIP3    H214302   1.209   5.681   0.446
 4766TIP3   OH214303   3.383   2.589   3.912
 4766TIP3    H114304   3.387   2.614   4.004
 4766TIP3    H214305   3.293   2.609   3.886
 4767TIP3   OH214306   1.972   4.337   2.279
 4767TIP3    H114307   2.028   4.406   2.315
 4767TIP3    H214308   1.895   4.383   2.247
 4768TIP3   OH214309   1.415   0.896   0.062
 4768TIP3    H114310   1.333   0.920   0.105
 4768TIP3    H214311   1.411   0.938  -0.023
 4769TIP3   OH214312   2.386   0.208   4.467
 4769TIP3    H114313   2.319   0.148   4.500
 4769TIP3    H214314   2.416   0.255   4.544
 4770TIP3   OH214315   3.785   5.229   1.145
 4770TIP3    H114316   3.870   5.266   1.170
 4770TIP3    H214317   3.804   5.136   1.132
 4771TIP3   OH214318   2.881   2.228   0.190
 4771TIP3    H114319   2.805   2.217   0.134
 4771TIP3    H214320   2.956   2.224   0.130
 4772TIP3   OH214321   3.294   0.962   3.400
 4772TIP3    H114322   3.309   1.011   3.481
 4772TIP3    H214323   3.360   0.994   3.340
 4773TIP3   OH214324   4.058   1.192   2.300
 4773TIP3    H114325   4.055   1.287   2.287
 4773TIP3    H214326   4.035   1.180   2.392
 4774TIP3   OH214327   4.677   3.633   2.407
 4774TIP3    H114328   4.641   3.712   2.448
 4774TIP3    H214329   4.678   3.568   2.478
 4775TIP3   OH214330   0.715   4.094   0.812
 4775TIP3    H114331   0.709   4.080   0.906
 4775TIP3    H214332   0.763   4.018   0.779
 4776TIP3   OH214333   5.017   1.925   0.675
 4776TIP3    H114334   5.031   2.009   0.718
 4776TIP3    H214335   4.934   1.936   0.629
 4777TIP3   OH214336   5.440   5.893   2.201
 4777TIP3    H114337   5.480   5.931   2.280
 4777TIP3    H214338   5.483   5.939   2.128
 4778TIP3   OH214339   4.496   2.697   3.622
 4778TIP3    H114340   4.591   2.709   3.623
 4778TIP3    H214341   4.474   2.680   3.531
 4779TIP3   OH214342   2.756   3.365   2.044
 4779TIP3    H114343   2.787   3.278   2.021
 4779TIP3    H214344   2.797   3.384   2.128
 4780TIP3   OH214345   2.501   4.954   4.846
 4780TIP3    H114346   2.410   4.969   4.821
 4780TIP3    H214347   2.527   5.033   4.893
 4781TIP3   OH214348   0.784   3.682   4.433
 4781TIP3    H114349   0.818   3.762   4.395
 4781TIP3    H214350   0.695   3.705   4.462
 4782TIP3   OH214351   2.484   3.147   0.206
 4782TIP3    H114352   2.577   3.168   0.194
 4782TIP3    H214353   2.442   3.176   0.125
 4783TIP3   OH214354   2.209   5.990   0.051
 4783TIP3    H114355   2.221   5.943   0.133
 4783TIP3    H214356   2.115   6.006   0.046
 4784TIP3   OH214357   0.359   5.000   2.842
 4784TIP3    H114358   0.350   4.930   2.777
 4784TIP3    H214359   0.283   5.057   2.826
 4785TIP3   OH214360   0.367   5.796   0.997
 4785TIP3    H114361   0.438   5.735   0.973
 4785TIP3    H214362   0.324   5.816   0.913
 4786TIP3   OH214363   4.946   5.643   1.017
 4786TIP3    H114364   4.968   5.733   0.993
 4786TIP3    H214365   4.977   5.634   1.108
 4787TIP3   OH214366   1.876   0.874   3.515
 4787TIP3    H114367   1.805   0.914   3.565
 4787TIP3    H214368   1.837   0.795   3.477
 4788TIP3   OH214369   5.255   0.601   2.542
 4788TIP3    H114370   5.318   0.609   2.471
 4788TIP3    H214371   5.186   0.545   2.506
 4789TIP3   OH214372   3.317   4.671   1.183
 4789TIP3    H114373   3.298   4.585   1.221
 4789TIP3    H214374   3.407   4.665   1.153
 4790TIP3   OH214375   4.213   0.880   2.462
 4790TIP3    H114376   4.196   0.835   2.380
 4790TIP3    H214377   4.126   0.907   2.493
 4791TIP3   OH214378   4.981   1.184   4.545
 4791TIP3    H114379   5.018   1.097   4.559
 4791TIP3    H214380   5.018   1.212   4.461
 4792TIP3   OH214381   2.033   5.442   0.557
 4792TIP3    H114382   2.043   5.377   0.488
 4792TIP3    H214383   1.995   5.518   0.513
 4793TIP3   OH214384   4.829   0.018   1.193
 4793TIP3    H114385   4.845  -0.067   1.235
 4793TIP3    H214386   4.898   0.075   1.229
 4794TIP3   OH214387   5.597   4.331   3.050
 4794TIP3    H114388   5.532   4.268   3.082
 4794TIP3    H214389   5.596   4.319   2.955
 4795TIP3   OH214390   3.452   2.234   1.480
 4795TIP3    H114391   3.481   2.143   1.471
 4795TIP3    H214392   3.381   2.243   1.417
 4796TIP3   OH214393   4.916   0.803   1.254
 4796TIP3    H114394   4.823   0.784   1.269
 4796TIP3    H214395   4.920   0.830   1.163
 4797TIP3   OH214396   3.084   5.368   3.407
 4797TIP3    H114397   3.046   5.292   3.451
 4797TIP3    H214398   3.157   5.332   3.355
 4798TIP3   OH214399   3.504   3.684   0.641
 4798TIP3    H114400   3.591   3.658   0.609
 4798TIP3    H214401   3.501   3.652   0.731
 4799TIP3   OH214402   1.281   2.257   1.804
 4799TIP3    H114403   1.328   2.313   1.741
 4799TIP3    H214404   1.350   2.206   1.846
 4800TIP3   OH214405   3.701   4.484   3.383
 4800TIP3    H114406   3.731   4.399   3.415
 4800TIP3    H214407   3.680   4.534   3.462
 4801TIP3   OH214408   2.253   0.800   4.874
 4801TIP3    H114409   2.226   0.855   4.800
 4801TIP3    H214410   2.219   0.713   4.853
 4802TIP3   OH214411   5.373   3.495   1.051
 4802TIP3    H114412   5.354   3.562   1.117
 4802TIP3    H214413   5.467   3.478   1.060
 4803TIP3   OH214414   4.196   5.802   1.453
 4803TIP3    H114415   4.179   5.708   1.445
 4803TIP3    H214416   4.202   5.817   1.547
 4804TIP3   OH214417   1.659   3.387   3.648
 4804TIP3    H114418   1.721   3.448   3.688
 4804TIP3    H214419   1.573   3.417   3.679
 4805TIP3   OH214420   3.142   0.437   2.801
 4805TIP3    H114421   3.221   0.467   2.755
 4805TIP3    H214422   3.116   0.512   2.855
 4806TIP3   OH214423   2.365   3.982   0.109
 4806TIP3    H114424   2.415   3.921   0.165
 4806TIP3    H214425   2.281   3.992   0.154
 4807TIP3   OH214426   3.322   4.581   3.166
 4807TIP3    H114427   3.415   4.601   3.156
 4807TIP3    H214428   3.303   4.601   3.258
 4808TIP3   OH214429   2.060   3.581   2.772
 4808TIP3    H114430   2.010   3.597   2.691
 4808TIP3    H214431   1.993   3.556   2.836
 4809TIP3   OH214432   4.654   1.056   2.973
 4809TIP3    H114433   4.569   1.091   2.999
 4809TIP3    H214434   4.701   1.044   3.056
 4810TIP3   OH214435   4.294   2.640   4.332
 4810TIP3    H114436   4.382   2.627   4.295
 4810TIP3    H214437   4.262   2.551   4.349
 4811TIP3   OH214438   0.330   3.716   1.283
 4811TIP3    H114439   0.244   3.679   1.264
 4811TIP3    H214440   0.392   3.645   1.266
 4812TIP3   OH214441   5.657   0.087   1.197
 4812TIP3    H114442   5.625   0.165   1.151
 4812TIP3    H214443   5.607   0.084   1.278
 4813TIP3   OH214444   4.445   2.654   3.373
 4813TIP3    H114445   4.375   2.672   3.310
 4813TIP3    H214446   4.520   2.704   3.340
 4814TIP3   OH214447   5.049   2.049   3.122
 4814TIP3    H114448   4.984   1.998   3.074
 4814TIP3    H214449   5.072   2.122   3.064
 4815TIP3   OH214450   0.387   4.063   2.208
 4815TIP3    H114451   0.328   4.017   2.148
 4815TIP3    H214452   0.396   4.151   2.169
 4816TIP3   OH214453   1.963   2.961   3.706
 4816TIP3    H114454   1.922   3.045   3.725
 4816TIP3    H214455   2.032   2.952   3.772
 4817TIP3   OH214456   1.943   5.970   4.576
 4817TIP3    H114457   1.940   6.032   4.503
 4817TIP3    H214458   2.036   5.953   4.590
 4818TIP3   OH214459   6.318   5.956   1.959
 4818TIP3    H114460   6.337   5.902   1.883
 4818TIP3    H214461   6.254   6.020   1.927
 4819TIP3   OH214462   2.332   1.619   4.223
 4819TIP3    H114463   2.345   1.709   4.253
 4819TIP3    H214464   2.377   1.615   4.139
 4820TIP3   OH214465   0.526   2.389   1.842
 4820TIP3    H114466   0.552   2.440   1.919
 4820TIP3    H214467   0.561   2.301   1.860
 4821TIP3   OH214468   5.409   0.138   3.250
 4821TIP3    H114469   5.413   0.097   3.337
 4821TIP3    H214470   5.494   0.118   3.210
 4822TIP3   OH214471   4.912   1.635   0.292
 4822TIP3    H114472   4.946   1.667   0.208
 4822TIP3    H214473   4.990   1.614   0.343
 4823TIP3   OH214474   1.992   5.056   4.665
 4823TIP3    H114475   1.981   4.976   4.717
 4823TIP3    H214476   2.061   5.034   4.602
 4824TIP3   OH214477   0.743   2.696   0.453
 4824TIP3    H114478   0.747   2.604   0.427
 4824TIP3    H214479   0.673   2.700   0.518
 4825TIP3   OH214480   0.779   3.755   1.270
 4825TIP3    H114481   0.726   3.679   1.245
 4825TIP3    H214482   0.754   3.772   1.361
 4826TIP3   OH214483   4.362   2.858   1.167
 4826TIP3    H114484   4.368   2.853   1.263
 4826TIP3    H214485   4.445   2.898   1.140
 4827TIP3   OH214486   0.545   2.053   3.371
 4827TIP3    H114487   0.486   1.978   3.365
 4827TIP3    H214488   0.548   2.089   3.282
 4828TIP3   OH214489   1.316   0.400   4.089
 4828TIP3    H114490   1.386   0.446   4.135
 4828TIP3    H214491   1.245   0.463   4.083
 4829TIP3   OH214492   3.802   3.884   0.033
 4829TIP3    H114493   3.733   3.949   0.041
 4829TIP3    H214494   3.757   3.800   0.045
 4830TIP3   OH214495   3.593   2.929   0.732
 4830TIP3    H114496   3.618   2.893   0.817
 4830TIP3    H214497   3.638   3.014   0.729
 4831TIP3   OH214498   5.725   4.335   4.508
 4831TIP3    H114499   5.714   4.254   4.458
 4831TIP3    H214500   5.652   4.390   4.481
 4832TIP3   OH214501   4.011   3.278   1.599
 4832TIP3    H114502   3.954   3.347   1.632
 4832TIP3    H214503   4.078   3.323   1.549
 4833TIP3   OH214504   1.358   4.435   5.015
 4833TIP3    H114505   1.323   4.512   4.970
 4833TIP3    H214506   1.284   4.400   5.064
 4834TIP3   OH214507   1.071   1.445   0.457
 4834TIP3    H114508   1.114   1.530   0.473
 4834TIP3    H214509   1.027   1.457   0.373
 4835TIP3   OH214510   2.456   1.423   1.523
 4835TIP3    H114511   2.485   1.465   1.604
 4835TIP3    H214512   2.391   1.358   1.552
 4836TIP3   OH214513   0.532   5.007   0.357
 4836TIP3    H114514   0.506   4.955   0.433
 4836TIP3    H214515   0.624   4.985   0.344
 4837TIP3   OH214516   5.569   0.722   3.531
 4837TIP3    H114517   5.475   0.702   3.534
 4837TIP3    H214518   5.574   0.813   3.502
 4838TIP3   OH214519   1.929   2.496   4.745
 4838TIP3    H114520   1.936   2.574   4.801
 4838TIP3    H214521   1.876   2.525   4.671
 4839TIP3   OH214522   6.199   4.488   4.769
 4839TIP3    H114523   6.206   4.573   4.725
 4839TIP3    H214524   6.115   4.453   4.740
 4840TIP3   OH214525   2.564   3.559   1.975
 4840TIP3    H114526   2.602   3.475   2.002
 4840TIP3    H214527   2.479   3.561   2.019
 4841TIP3   OH214528   2.057   5.006   2.443
 4841TIP3    H114529   2.107   4.928   2.469
 4841TIP3    H214530   1.993   5.018   2.514
 4842TIP3   OH214531   4.309   0.463   0.582
 4842TIP3    H114532   4.334   0.547   0.620
 4842TIP3    H214533   4.231   0.437   0.631
 4843TIP3   OH214534   4.853   3.393   2.773
 4843TIP3    H114535   4.845   3.448   2.850
 4843TIP3    H214536   4.931   3.426   2.728
 4844TIP3   OH214537   3.390   5.938   1.687
 4844TIP3    H114538   3.472   5.903   1.651
 4844TIP3    H214539   3.418   6.004   1.751
 4845TIP3   OH214540   2.060   4.964   2.791
 4845TIP3    H114541   1.976   5.008   2.800
 4845TIP3    H214542   2.108   4.986   2.871
 4846TIP3   OH214543   5.373   0.402   0.921
 4846TIP3    H114544   5.345   0.344   0.992
 4846TIP3    H214545   5.309   0.473   0.921
 4847TIP3   OH214546   2.883   2.160   5.001
 4847TIP3    H114547   2.940   2.125   5.070
 4847TIP3    H214548   2.941   2.214   4.947
 4848TIP3   OH214549   4.280   1.044   5.088
 4848TIP3    H114550   4.291   0.949   5.076
 4848TIP3    H214551   4.188   1.060   5.064
 4849TIP3   OH214552   2.363   5.897   2.533
 4849TIP3    H114553   2.284   5.890   2.478
 4849TIP3    H214554   2.398   5.984   2.513
 4850TIP3   OH214555   1.560   4.903   2.675
 4850TIP3    H114556   1.519   4.855   2.604
 4850TIP3    H214557   1.492   4.963   2.706
 4851TIP3   OH214558   1.344   2.774   3.375
 4851TIP3    H114559   1.361   2.847   3.434
 4851TIP3    H214560   1.401   2.704   3.406
 4852TIP3   OH214561   6.030   2.609   1.096
 4852TIP3    H114562   5.961   2.544   1.085
 4852TIP3    H214563   6.102   2.561   1.137
 4853TIP3   OH214564   5.467   0.710   4.561
 4853TIP3    H114565   5.409   0.759   4.619
 4853TIP3    H214566   5.407   0.656   4.508
 4854TIP3   OH214567   4.369   4.541   2.417
 4854TIP3    H114568   4.439   4.600   2.443
 4854TIP3    H214569   4.340   4.500   2.498
 4855TIP3   OH214570   1.287   5.586   2.381
 4855TIP3    H114571   1.257   5.620   2.297
 4855TIP3    H214572   1.261   5.653   2.444
 4856TIP3   OH214573   3.553   1.591   2.261
 4856TIP3    H114574   3.467   1.606   2.223
 4856TIP3    H214575   3.603   1.549   2.191
 4857TIP3   OH214576   5.650   0.355   3.112
 4857TIP3    H114577   5.606   0.402   3.182
 4857TIP3    H214578   5.743   0.360   3.135
 4858TIP3   OH214579   4.067   0.233   0.125
 4858TIP3    H114580   4.078   0.299   0.057
 4858TIP3    H214581   3.976   0.205   0.116
 4859TIP3   OH214582   0.829   5.647   2.646
 4859TIP3    H114583   0.823   5.674   2.554
 4859TIP3    H214584   0.849   5.727   2.693
 4860TIP3   OH214585   5.056   4.748   2.689
 4860TIP3    H114586   5.075   4.841   2.679
 4860TIP3    H214587   5.069   4.731   2.782
 4861TIP3   OH214588   4.559   3.792   4.463
 4861TIP3    H114589   4.643   3.810   4.420
 4861TIP3    H214590   4.526   3.713   4.421
 4862TIP3   OH214591   4.050   5.846   2.398
 4862TIP3    H114592   4.130   5.862   2.448
 4862TIP3    H214593   4.028   5.931   2.360
 4863TIP3   OH214594   5.325   4.010   2.195
 4863TIP3    H114595   5.297   3.920   2.214
 4863TIP3    H214596   5.253   4.065   2.227
 4864TIP3   OH214597   3.156   3.782   4.293
 4864TIP3    H114598   3.183   3.739   4.374
 4864TIP3    H214599   3.079   3.834   4.318
 4865TIP3   OH214600   3.751   0.984   4.804
 4865TIP3    H114601   3.707   0.942   4.877
 4865TIP3    H214602   3.795   1.060   4.843
 4866TIP3   OH214603   6.026   3.898   3.014
 4866TIP3    H114604   5.953   3.912   3.074
 4866TIP3    H214605   5.993   3.836   2.949
 4867TIP3   OH214606   1.262   0.469   0.349
 4867TIP3    H114607   1.324   0.534   0.318
 4867TIP3    H214608   1.234   0.423   0.270
 4868TIP3   OH214609   4.045   0.261   3.459
 4868TIP3    H114610   4.089   0.219   3.533
 4868TIP3    H214611   3.958   0.220   3.457
 4869TIP3   OH214612   0.084   0.653   2.127
 4869TIP3    H114613   0.123   0.640   2.041
 4869TIP3    H214614   0.063   0.565   2.159
 4870TIP3   OH214615   1.376   5.102   2.826
 4870TIP3    H114616   1.423   5.185   2.817
 4870TIP3    H214617   1.297   5.113   2.774
 4871TIP3   OH214618   4.941   0.273   0.049
 4871TIP3    H114619   5.006   0.334   0.014
 4871TIP3    H214620   4.872   0.272  -0.017
 4872TIP3   OH214621   0.221   0.933   1.162
 4872TIP3    H114622   0.294   0.989   1.134
 4872TIP3    H214623   0.143   0.984   1.142
 4873TIP3   OH214624   3.771   5.469   1.571
 4873TIP3    H114625   3.680   5.500   1.568
 4873TIP3    H214626   3.819   5.539   1.614
 4874TIP3   OH214627   5.966   2.878   1.372
 4874TIP3    H114628   5.968   2.867   1.277
 4874TIP3    H214629   5.886   2.832   1.400
 4875TIP3   OH214630   3.876   3.280   3.458
 4875TIP3    H114631   3.926   3.305   3.380
 4875TIP3    H214632   3.818   3.354   3.474
 4876TIP3   OH214633   1.321   0.769   2.538
 4876TIP3    H114634   1.376   0.699   2.504
 4876TIP3    H214635   1.255   0.783   2.470
 4877TIP3   OH214636   0.445   5.602   3.607
 4877TIP3    H114637   0.526   5.622   3.560
 4877TIP3    H214638   0.399   5.541   3.550
 4878TIP3   OH214639   2.559   0.818   0.835
 4878TIP3    H114640   2.519   0.901   0.809
 4878TIP3    H214641   2.553   0.762   0.758
 4879TIP3   OH214642   3.238   4.969   0.157
 4879TIP3    H114643   3.228   5.064   0.156
 4879TIP3    H214644   3.150   4.935   0.171
 4880TIP3   OH214645   5.333   0.714   3.058
 4880TIP3    H114646   5.319   0.807   3.044
 4880TIP3    H214647   5.425   0.700   3.038
 4881TIP3   OH214648   2.201   5.912   2.743
 4881TIP3    H114649   2.273   5.895   2.683
 4881TIP3    H214650   2.242   5.918   2.830
 4882TIP3   OH214651   4.893   1.985   0.083
 4882TIP3    H114652   4.963   2.017   0.139
 4882TIP3    H214653   4.822   1.963   0.144
 4883TIP3   OH214654   0.396   4.090   3.912
 4883TIP3    H114655   0.408   4.178   3.877
 4883TIP3    H214656   0.389   4.102   4.007
 4884TIP3   OH214657   0.313   5.550   2.636
 4884TIP3    H114658   0.383   5.590   2.584
 4884TIP3    H214659   0.357   5.479   2.684
 4885TIP3   OH214660   3.331   3.767   1.518
 4885TIP3    H114661   3.418   3.761   1.478
 4885TIP3    H214662   3.339   3.833   1.587
 4886TIP3   OH214663   2.649   3.112   3.753
 4886TIP3    H114664   2.642   3.207   3.766
 4886TIP3    H214665   2.652   3.076   3.842
 4887TIP3   OH214666   3.153   1.660   4.492
 4887TIP3    H114667   3.069   1.621   4.469
 4887TIP3    H214668   3.214   1.626   4.426
 4888TIP3   OH214669   5.487   3.153   2.944
 4888TIP3    H114670   5.466   3.130   2.854
 4888TIP3    H214671   5.569   3.201   2.939
 4889TIP3   OH214672   5.122   0.307   4.063
 4889TIP3    H114673   5.072   0.347   3.993
 4889TIP3    H214674   5.094   0.216   4.065
 4890TIP3   OH214675   4.188   2.921   0.731
 4890TIP3    H114676   4.179   2.942   0.638
 4890TIP3    H214677   4.244   2.990   0.765
 4891TIP3   OH214678   4.598   1.680   2.381
 4891TIP3    H114679   4.605   1.769   2.347
 4891TIP3    H214680   4.665   1.631   2.333
 4892TIP3   OH214681   1.563   2.659   0.554
 4892TIP3    H114682   1.566   2.659   0.459
 4892TIP3    H214683   1.471   2.679   0.576
 4893TIP3   OH214684   1.443   4.388   1.203
 4893TIP3    H114685   1.394   4.469   1.220
 4893TIP3    H214686   1.376   4.322   1.186
 4894TIP3   OH214687   2.236   4.465   3.341
 4894TIP3    H114688   2.283   4.485   3.260
 4894TIP3    H214689   2.251   4.540   3.398
 4895TIP3   OH214690   1.309   1.768   1.386
 4895TIP3    H114691   1.358   1.696   1.348
 4895TIP3    H214692   1.226   1.729   1.415
 4896TIP3   OH214693   2.585   2.360   1.554
 4896TIP3    H114694   2.548   2.360   1.466
 4896TIP3    H214695   2.659   2.420   1.549
 4897TIP3   OH214696   6.025   3.212   2.324
 4897TIP3    H114697   6.050   3.272   2.394
 4897TIP3    H214698   6.038   3.261   2.244
 4898TIP3   OH214699   3.532   4.684   3.603
 4898TIP3    H114700   3.520   4.746   3.531
 4898TIP3    H214701   3.463   4.707   3.665
 4899TIP3   OH214702   3.628   3.216   3.973
 4899TIP3    H114703   3.548   3.265   3.954
 4899TIP3    H214704   3.664   3.197   3.887
 4900TIP3   OH214705   6.175   0.976   3.336
 4900TIP3    H114706   6.212   0.981   3.247
 4900TIP3    H214707   6.235   0.920   3.384
 4901TIP3   OH214708   1.962   0.859   1.595
 4901TIP3    H114709   1.875   0.899   1.591
 4901TIP3    H214710   1.953   0.779   1.542
 4902TIP3   OH214711   3.590   3.340   1.227
 4902TIP3    H114712   3.639   3.312   1.150
 4902TIP3    H214713   3.499   3.343   1.197
 4903TIP3   OH214714   2.698   3.616   2.420
 4903TIP3    H114715   2.716   3.546   2.484
 4903TIP3    H214716   2.640   3.575   2.356
 4904TIP3   OH214717   4.859   2.495   2.602
 4904TIP3    H114718   4.871   2.485   2.508
 4904TIP3    H214719   4.948   2.493   2.638
 4905TIP3   OH214720   5.440   0.361   1.225
 4905TIP3    H114721   5.466   0.435   1.279
 4905TIP3    H214722   5.345   0.357   1.233
 4906TIP3   OH214723   4.075   2.019   0.807
 4906TIP3    H114724   3.998   1.981   0.764
 4906TIP3    H214725   4.040   2.077   0.873
 4907TIP3   OH214726   3.290   0.848   0.992
 4907TIP3    H114727   3.314   0.901   1.068
 4907TIP3    H214728   3.278   0.912   0.922
 4908TIP3   OH214729   5.279   4.805   3.557
 4908TIP3    H114730   5.261   4.899   3.551
 4908TIP3    H214731   5.232   4.776   3.635
 4909TIP3   OH214732   4.726   3.719   4.249
 4909TIP3    H114733   4.795   3.717   4.182
 4909TIP3    H214734   4.644   3.722   4.200
 4910TIP3   OH214735   2.859   4.589   0.487
 4910TIP3    H114736   2.886   4.578   0.578
 4910TIP3    H214737   2.841   4.683   0.479
 4911TIP3   OH214738   5.200   1.519   0.999
 4911TIP3    H114739   5.142   1.461   0.949
 4911TIP3    H214740   5.155   1.603   1.000
 4912TIP3   OH214741   2.123   4.188   1.369
 4912TIP3    H114742   2.097   4.250   1.301
 4912TIP3    H214743   2.122   4.102   1.326
 4913TIP3   OH214744   4.687   1.350   4.212
 4913TIP3    H114745   4.644   1.354   4.127
 4913TIP3    H214746   4.646   1.276   4.257
 4914TIP3   OH214747   3.848   2.315   3.077
 4914TIP3    H114748   3.855   2.275   2.991
 4914TIP3    H214749   3.939   2.338   3.100
 4915TIP3   OH214750   0.915   0.688   3.868
 4915TIP3    H114751   0.851   0.716   3.933
 4915TIP3    H214752   0.980   0.638   3.919
 4916TIP3   OH214753   2.143   4.537   5.038
 4916TIP3    H114754   2.075   4.491   5.087
 4916TIP3    H214755   2.208   4.560   5.104
 4917TIP3   OH214756   1.655   3.580   1.026
 4917TIP3    H114757   1.689   3.495   1.052
 4917TIP3    H214758   1.639   3.572   0.932
 4918TIP3   OH214759   4.998   3.005   3.950
 4918TIP3    H114760   5.015   2.928   3.896
 4918TIP3    H214761   4.968   2.970   4.033
 4919TIP3   OH214762   3.024   3.083   1.569
 4919TIP3    H114763   3.043   3.121   1.483
 4919TIP3    H214764   2.995   3.158   1.621
 4920TIP3   OH214765   2.882   2.715   0.508
 4920TIP3    H114766   2.803   2.757   0.475
 4920TIP3    H214767   2.929   2.686   0.429
 4921TIP3   OH214768   2.586   2.807   1.973
 4921TIP3    H114769   2.650   2.786   2.042
 4921TIP3    H214770   2.602   2.740   1.906
 4922TIP3   OH214771   1.075   5.193   1.057
 4922TIP3    H114772   1.106   5.106   1.030
 4922TIP3    H214773   1.107   5.252   0.989
 4923TIP3   OH214774   5.412   0.202   3.645
 4923TIP3    H114775   5.452   0.248   3.571
 4923TIP3    H214776   5.385   0.117   3.610
 4924TIP3   OH214777   3.378   1.251   3.946
 4924TIP3    H114778   3.421   1.268   4.029
 4924TIP3    H214779   3.420   1.311   3.884
 4925TIP3   OH214780   4.194   5.740   0.961
 4925TIP3    H114781   4.262   5.706   0.903
 4925TIP3    H214782   4.238   5.749   1.046
 4926TIP3   OH214783   2.506   4.456   5.036
 4926TIP3    H114784   2.472   4.544   5.047
 4926TIP3    H214785   2.574   4.464   4.969
 4927TIP3   OH214786   4.926   3.717   4.025
 4927TIP3    H114787   4.989   3.779   3.988
 4927TIP3    H214788   4.981   3.649   4.065
 4928TIP3   OH214789   2.699   3.360   2.840
 4928TIP3    H114790   2.751   3.364   2.920
 4928TIP3    H214791   2.648   3.279   2.848
 4929TIP3   OH214792   5.730   2.073   4.289
 4929TIP3    H114793   5.767   2.036   4.370
 4929TIP3    H214794   5.680   2.002   4.250
 4930TIP3   OH214795   2.967   5.674   1.340
 4930TIP3    H114796   2.954   5.585   1.371
 4930TIP3    H214797   2.962   5.667   1.244
 4931TIP3   OH214798   2.028   1.247   3.582
 4931TIP3    H114799   2.115   1.218   3.555
 4931TIP3    H214800   1.970   1.218   3.511
 4932TIP3   OH214801   5.265   0.282   2.887
 4932TIP3    H114802   5.232   0.368   2.912
 4932TIP3    H214803   5.273   0.286   2.791
 4933TIP3   OH214804   5.991   3.150   3.775
 4933TIP3    H114805   5.947   3.233   3.793
 4933TIP3    H214806   5.928   3.102   3.720
 4934TIP3   OH214807   6.245   2.539   4.015
 4934TIP3    H114808   6.336   2.569   4.011
 4934TIP3    H214809   6.243   2.460   3.961
 4935TIP3   OH214810   3.986   5.594   3.995
 4935TIP3    H114811   3.922   5.606   4.066
 4935TIP3    H214812   4.071   5.595   4.039
 4936TIP3   OH214813   4.856   4.973   3.872
 4936TIP3    H114814   4.820   5.009   3.953
 4936TIP3    H214815   4.799   5.005   3.803
 4937TIP3   OH214816   1.209   3.943   4.404
 4937TIP3    H114817   1.272   4.014   4.393
 4937TIP3    H214818   1.247   3.870   4.354
 4938TIP3   OH214819   1.107   0.673   3.230
 4938TIP3    H114820   1.108   0.613   3.155
 4938TIP3    H214821   1.190   0.720   3.223
 4939TIP3   OH214822   6.195   3.604   3.709
 4939TIP3    H114823   6.286   3.594   3.681
 4939TIP3    H214824   6.181   3.699   3.708
 4940TIP3   OH214825   0.042   5.151   4.803
 4940TIP3    H114826   0.011   5.197   4.725
 4940TIP3    H214827  -0.018   5.076   4.811
 4941TIP3   OH214828   0.681   5.291   1.200
 4941TIP3    H114829   0.588   5.279   1.219
 4941TIP3    H214830   0.705   5.214   1.148
 4942TIP3   OH214831   1.028   4.272   2.436
 4942TIP3    H114832   0.986   4.326   2.503
 4942TIP3    H214833   0.954   4.229   2.391
 4943TIP3   OH214834   5.973   3.565   5.148
 4943TIP3    H114835   5.926   3.483   5.162
 4943TIP3    H214836   5.921   3.613   5.084
 4944TIP3   OH214837   3.556   2.821   1.693
 4944TIP3    H114838   3.527   2.765   1.621
 4944TIP3    H214839   3.479   2.830   1.749
 4945TIP3   OH214840   5.431   4.563   3.388
 4945TIP3    H114841   5.339   4.561   3.363
 4945TIP3    H214842   5.455   4.656   3.383
 4946TIP3   OH214843   3.358   0.405   4.796
 4946TIP3    H114844   3.426   0.471   4.806
 4946TIP3    H214845   3.395   0.342   4.735
 4947TIP3   OH214846   5.286   0.957   1.598
 4947TIP3    H114847   5.279   0.951   1.693
 4947TIP3    H214848   5.195   0.953   1.567
 4948TIP3   OH214849   6.207   5.780   4.494
 4948TIP3    H114850   6.268   5.761   4.566
 4948TIP3    H214851   6.122   5.791   4.537
 4949TIP3   OH214852   6.180   0.037   1.357
 4949TIP3    H114853   6.235   0.113   1.380
 4949TIP3    H214854   6.233  -0.039   1.381
 4950TIP3   OH214855   4.256   0.130   1.978
 4950TIP3    H114856   4.205   0.206   2.006
 4950TIP3    H214857   4.287   0.153   1.890
 4951TIP3   OH214858   2.932   2.415   2.817
 4951TIP3    H114859   2.852   2.465   2.836
 4951TIP3    H214860   2.950   2.367   2.897
 4952TIP3   OH214861   5.498   0.581   5.071
 4952TIP3    H114862   5.456   0.620   5.148
 4952TIP3    H214863   5.553   0.511   5.106
 4953TIP3   OH214864   1.174   0.606   1.777
 4953TIP3    H114865   1.236   0.645   1.715
 4953TIP3    H214866   1.107   0.566   1.721
 4954TIP3   OH214867   5.703   0.761   2.643
 4954TIP3    H114868   5.687   0.709   2.721
 4954TIP3    H214869   5.796   0.783   2.647
 4955TIP3   OH214870   6.210   1.328   5.036
 4955TIP3    H114871   6.226   1.258   4.973
 4955TIP3    H214872   6.164   1.396   4.987
 4956TIP3   OH214873   1.059   3.574   3.388
 4956TIP3    H114874   1.114   3.496   3.394
 4956TIP3    H214875   1.050   3.603   3.479
 4957TIP3   OH214876   0.167   0.248   3.344
 4957TIP3    H114877   0.138   0.302   3.271
 4957TIP3    H214878   0.251   0.211   3.314
 4958TIP3   OH214879   5.345   5.129   3.517
 4958TIP3    H114880   5.361   5.080   3.437
 4958TIP3    H214881   5.299   5.208   3.489
 4959TIP3   OH214882   2.284   5.118   1.952
 4959TIP3    H114883   2.284   5.195   2.010
 4959TIP3    H214884   2.377   5.100   1.936
 4960TIP3   OH214885   0.978   0.706   1.100
 4960TIP3    H114886   0.921   0.671   1.168
 4960TIP3    H214887   0.982   0.636   1.034
 4961TIP3   OH214888   6.116   5.318   4.269
 4961TIP3    H114889   6.101   5.413   4.276
 4961TIP3    H214890   6.179   5.299   4.339
 4962TIP3   OH214891   5.447   4.158   1.992
 4962TIP3    H114892   5.420   4.245   2.021
 4962TIP3    H214893   5.422   4.099   2.064
 4963TIP3   OH214894   5.058   4.328   3.608
 4963TIP3    H114895   5.062   4.330   3.512
 4963TIP3    H214896   5.020   4.242   3.628
 4964TIP3   OH214897   0.700   3.804   0.945
 4964TIP3    H114898   0.664   3.807   1.033
 4964TIP3    H214899   0.767   3.736   0.948
 4965TIP3   OH214900   6.002   2.162   1.022
 4965TIP3    H114901   6.084   2.155   1.071
 4965TIP3    H214902   6.029   2.158   0.930
 4966TIP3   OH214903   6.269   5.288   2.277
 4966TIP3    H114904   6.265   5.239   2.359
 4966TIP3    H214905   6.223   5.370   2.296
 4967TIP3   OH214906   0.930   2.572   3.883
 4967TIP3    H114907   0.896   2.553   3.796
 4967TIP3    H214908   0.861   2.543   3.943
 4968TIP3   OH214909   1.179   5.661   2.894
 4968TIP3    H114910   1.128   5.598   2.842
 4968TIP3    H214911   1.191   5.736   2.836
 4969TIP3   OH214912   5.592   1.370   2.242
 4969TIP3    H114913   5.510   1.399   2.282
 4969TIP3    H214914   5.575   1.372   2.148
 4970TIP3   OH214915   5.530   4.815   1.040
 4970TIP3    H114916   5.491   4.752   1.101
 4970TIP3    H214917   5.471   4.891   1.045
 4971TIP3   OH214918   6.196   4.477   1.248
 4971TIP3    H114919   6.151   4.395   1.265
 4971TIP3    H214920   6.173   4.498   1.157
 4972TIP3   OH214921   3.602   5.879   1.550
 4972TIP3    H114922   3.692   5.909   1.565
 4972TIP3    H214923   3.595   5.870   1.455
 4973TIP3   OH214924   4.790   2.907   4.976
 4973TIP3    H114925   4.871   2.877   4.935
 4973TIP3    H214926   4.816   2.935   5.064
 4974TIP3   OH214927   0.972   1.178   0.307
 4974TIP3    H114928   0.966   1.272   0.323
 4974TIP3    H214929   0.897   1.141   0.354
 4975TIP3   OH214930   3.073   5.080   3.830
 4975TIP3    H114931   3.155   5.130   3.836
 4975TIP3    H214932   3.034   5.087   3.917
 4976TIP3   OH214933   0.961   2.389   2.701
 4976TIP3    H114934   0.957   2.478   2.736
 4976TIP3    H214935   0.918   2.394   2.616
 4977TIP3   OH214936   2.542   4.791   2.695
 4977TIP3    H114937   2.528   4.843   2.616
 4977TIP3    H214938   2.461   4.802   2.746
 4978TIP3   OH214939   1.695   0.632   1.798
 4978TIP3    H114940   1.647   0.596   1.723
 4978TIP3    H214941   1.628   0.674   1.851
 4979TIP3   OH214942   4.116   0.800   1.515
 4979TIP3    H114943   4.057   0.811   1.441
 4979TIP3    H214944   4.191   0.856   1.495
 4980TIP3   OH214945   4.051   0.413   0.724
 4980TIP3    H114946   4.016   0.344   0.668
 4980TIP3    H214947   4.082   0.367   0.802
 4981TIP3   OH214948   6.271   4.043   3.535
 4981TIP3    H114949   6.290   4.104   3.464
 4981TIP3    H214950   6.303   3.959   3.503
 4982TIP3   OH214951   4.265   3.536   2.314
 4982TIP3    H114952   4.242   3.603   2.378
 4982TIP3    H214953   4.197   3.469   2.323
 4983TIP3   OH214954   2.128   1.716   3.190
 4983TIP3    H114955   2.079   1.715   3.272
 4983TIP3    H214956   2.075   1.769   3.131
 4984TIP3   OH214957   3.583   4.339   5.008
 4984TIP3    H114958   3.660   4.329   5.064
 4984TIP3    H214959   3.606   4.292   4.927
 4985TIP3   OH214960   1.967   3.327   2.321
 4985TIP3    H114961   1.892   3.289   2.367
 4985TIP3    H214962   1.929   3.385   2.255
 4986TIP3   OH214963   0.117   0.768   4.997
 4986TIP3    H114964   0.135   0.687   5.045
 4986TIP3    H214965   0.203   0.800   4.970
 4987TIP3   OH214966   3.944   1.321   0.923
 4987TIP3    H114967   3.983   1.408   0.918
 4987TIP3    H214968   3.914   1.312   1.013
 4988TIP3   OH214969   0.234   2.531   4.230
 4988TIP3    H114970   0.191   2.545   4.146
 4988TIP3    H214971   0.226   2.437   4.245
 4989TIP3   OH214972   0.861   3.243   1.649
 4989TIP3    H114973   0.825   3.174   1.705
 4989TIP3    H214974   0.806   3.241   1.570
 4990TIP3   OH214975   1.523   0.092   5.004
 4990TIP3    H114976   1.581   0.051   4.940
 4990TIP3    H214977   1.582   0.140   5.062
 4991TIP3   OH214978   2.352   3.370   4.317
 4991TIP3    H114979   2.431   3.374   4.371
 4991TIP3    H214980   2.376   3.313   4.244
 4992TIP3   OH214981   0.744   4.930   3.978
 4992TIP3    H114982   0.820   4.874   3.993
 4992TIP3    H214983   0.670   4.878   4.010
 4993TIP3   OH214984   4.939   1.204   4.968
 4993TIP3    H114985   4.854   1.171   4.998
 4993TIP3    H214986   4.968   1.140   4.903
 4994TIP3   OH214987   3.938   1.164   4.633
 4994TIP3    H114988   3.891   1.089   4.596
 4994TIP3    H214989   4.023   1.163   4.590
 4995TIP3   OH214990   3.138   3.020   1.037
 4995TIP3    H114991   3.086   3.101   1.044
 4995TIP3    H214992   3.196   3.036   0.963
 4996TIP3   OH214993   0.971   3.077   2.431
 4996TIP3    H114994   1.008   3.155   2.388
 4996TIP3    H214995   0.954   3.016   2.360
 4997TIP3   OH214996   1.501   1.623   3.118
 4997TIP3    H114997   1.474   1.532   3.128
 4997TIP3    H214998   1.529   1.649   3.205
 4998TIP3   OH214999   6.214   5.723   3.285
 4998TIP3    H115000   6.191   5.632   3.307
 4998TIP3    H215001   6.131   5.764   3.262
 4999TIP3   OH215002   3.787   5.728   3.446
 4999TIP3    H115003   3.782   5.818   3.414
 4999TIP3    H215004   3.859   5.689   3.396
 5000TIP3   OH215005   4.172   2.778   0.242
 5000TIP3    H115006   4.085   2.819   0.240
 5000TIP3    H215007   4.154   2.685   0.259
 5001TIP3   OH215008   4.591   0.436   1.402
 5001TIP3    H115009   4.670   0.485   1.423
 5001TIP3    H215010   4.618   0.372   1.337
 5002TIP3   OH215011   1.527   5.618   1.390
 5002TIP3    H115012   1.473   5.540   1.396
 5002TIP3    H215013   1.468   5.686   1.356
 5003TIP3   OH215014   3.868   5.345   0.838
 5003TIP3    H115015   3.914   5.417   0.795
 5003TIP3    H215016   3.937   5.285   0.865
 5004TIP3   OH215017   0.303   0.050   0.912
 5004TIP3    H115018   0.342   0.065   0.826
 5004TIP3    H215019   0.339  -0.034   0.940
 5005TIP3   OH215020   0.283   2.971   3.647
 5005TIP3    H115021   0.308   2.962   3.739
 5005TIP3    H215022   0.358   2.937   3.598
 5006TIP3   OH215023   1.271   2.276   3.342
 5006TIP3    H115024   1.271   2.301   3.250
 5006TIP3    H215025   1.182   2.294   3.372
 5007TIP3   OH215026   6.080   3.877   2.037
 5007TIP3    H115027   6.105   3.969   2.037
 5007TIP3    H215028   6.162   3.830   2.049
 5008TIP3   OH215029   2.414   1.340   0.566
 5008TIP3    H115030   2.470   1.416   0.581
 5008TIP3    H215031   2.370   1.325   0.650
 5009TIP3   OH215032   4.814   5.126   1.233
 5009TIP3    H115033   4.865   5.049   1.258
 5009TIP3    H215034   4.723   5.101   1.247
 5010TIP3   OH215035   3.965   4.479   0.767
 5010TIP3    H115036   3.974   4.385   0.783
 5010TIP3    H215037   3.870   4.494   0.766
 5011TIP3   OH215038   3.559   2.812   4.413
 5011TIP3    H115039   3.570   2.738   4.352
 5011TIP3    H215040   3.638   2.810   4.467
 5012TIP3   OH215041   0.197   1.585   0.074
 5012TIP3    H115042   0.147   1.511   0.108
 5012TIP3    H215043   0.239   1.624   0.150
 5013TIP3   OH215044   3.716   1.715   2.746
 5013TIP3    H115045   3.689   1.664   2.669
 5013TIP3    H215046   3.811   1.715   2.743
 5014TIP3   OH215047   2.267   2.824   2.899
 5014TIP3    H115048   2.222   2.870   2.828
 5014TIP3    H215049   2.338   2.777   2.856
 5015TIP3   OH215050   4.000   3.931   1.909
 5015TIP3    H115051   3.983   3.902   1.999
 5015TIP3    H215052   3.924   3.985   1.887
 5016TIP3   OH215053   5.504   4.027   4.918
 5016TIP3    H115054   5.413   3.998   4.905
 5016TIP3    H215055   5.496   4.116   4.951
 5017TIP3   OH215056   3.338   3.761   3.285
 5017TIP3    H115057   3.374   3.705   3.216
 5017TIP3    H215058   3.244   3.768   3.264
 5018TIP3   OH215059   0.896   4.768   2.677
 5018TIP3    H115060   0.917   4.849   2.724
 5018TIP3    H215061   0.964   4.760   2.610
 5019TIP3   OH215062   1.988   2.580   3.389
 5019TIP3    H115063   1.937   2.639   3.444
 5019TIP3    H215064   1.986   2.496   3.436
 5020TIP3   OH215065   2.507   2.181   4.152
 5020TIP3    H115066   2.475   2.228   4.229
 5020TIP3    H215067   2.597   2.211   4.140
 5021TIP3   OH215068   5.013   2.414   5.036
 5021TIP3    H115069   5.088   2.389   4.983
 5021TIP3    H215070   5.030   2.504   5.062
 5022TIP3   OH215071   2.644   4.564   0.315
 5022TIP3    H115072   2.690   4.546   0.397
 5022TIP3    H215073   2.674   4.651   0.289
 5023TIP3   OH215074   2.762   5.279   4.339
 5023TIP3    H115075   2.791   5.331   4.414
 5023TIP3    H215076   2.670   5.259   4.359
 5024TIP3   OH215077   4.869   0.535   1.398
 5024TIP3    H115078   4.964   0.546   1.404
 5024TIP3    H215079   4.836   0.622   1.376
 5025TIP3   OH215080   3.854   1.727   3.233
 5025TIP3    H115081   3.867   1.822   3.235
 5025TIP3    H215082   3.820   1.705   3.320
 5026TIP3   OH215083   4.926   3.365   1.681
 5026TIP3    H115084   4.962   3.377   1.769
 5026TIP3    H215085   4.914   3.453   1.647
 5027TIP3   OH215086   2.072   5.096   1.492
 5027TIP3    H115087   2.006   5.162   1.513
 5027TIP3    H215088   2.095   5.059   1.577
 5028TIP3   OH215089   5.478   4.443   1.685
 5028TIP3    H115090   5.510   4.494   1.760
 5028TIP3    H215091   5.530   4.475   1.611
 5029TIP3   OH215092   1.980   5.674   0.082
 5029TIP3    H115093   1.925   5.598   0.102
 5029TIP3    H215094   2.029   5.649   0.004
 5030TIP3   OH215095   0.017   2.907   0.826
 5030TIP3    H115096   0.094   2.857   0.798
 5030TIP3    H215097   0.034   2.929   0.917
 5031TIP3   OH215098   2.918   0.028   5.047
 5031TIP3    H115099   2.828   0.027   5.080
 5031TIP3    H215100   2.918   0.098   4.981
 5032TIP3   OH215101   1.619   3.087   3.664
 5032TIP3    H115102   1.669   3.035   3.728
 5032TIP3    H215103   1.642   3.178   3.684
 5033TIP3   OH215104   2.360   1.920   4.143
 5033TIP3    H115105   2.393   2.010   4.146
 5033TIP3    H215106   2.434   1.869   4.110
 5034TIP3   OH215107   5.838   3.433   2.695
 5034TIP3    H115108   5.773   3.428   2.625
 5034TIP3    H215109   5.918   3.400   2.655
 5035TIP3   OH215110   0.727   2.936   1.511
 5035TIP3    H115111   0.695   2.847   1.528
 5035TIP3    H215112   0.739   2.974   1.598
 5036TIP3   OH215113   6.025   2.124   4.440
 5036TIP3    H115114   5.957   2.112   4.506
 5036TIP3    H215115   6.076   2.198   4.473
 5037TIP3   OH215116   5.810   0.687   1.714
 5037TIP3    H115117   5.810   0.699   1.619
 5037TIP3    H215118   5.722   0.654   1.734
 5038TIP3   OH215119   5.016   1.536   5.033
 5038TIP3    H115120   4.933   1.582   5.046
 5038TIP3    H215121   5.052   1.575   4.953
 5039TIP3   OH215122   0.636   5.701   0.876
 5039TIP3    H115123   0.660   5.682   0.967
 5039TIP3    H215124   0.709   5.666   0.824
 5040TIP3   OH215125   1.698   3.798   3.368
 5040TIP3    H115126   1.720   3.755   3.285
 5040TIP3    H215127   1.770   3.775   3.426
 5041TIP3   OH215128   3.934   2.191   0.969
 5041TIP3    H115129   3.862   2.145   1.013
 5041TIP3    H215130   3.906   2.283   0.968
 5042TIP3   OH215131   2.734   2.563   1.238
 5042TIP3    H115132   2.821   2.536   1.210
 5042TIP3    H215133   2.703   2.621   1.168
 5043TIP3   OH215134   1.773   5.622   1.215
 5043TIP3    H115135   1.685   5.622   1.253
 5043TIP3    H215136   1.772   5.552   1.151
 5044TIP3   OH215137   4.345   5.912   5.013
 5044TIP3    H115138   4.408   5.848   4.980
 5044TIP3    H215139   4.371   5.995   4.972
 5045TIP3   OH215140   4.321   4.131   3.316
 5045TIP3    H115141   4.329   4.119   3.410
 5045TIP3    H215142   4.232   4.101   3.295
 5046TIP3   OH215143   3.858   5.456   4.878
 5046TIP3    H115144   3.831   5.492   4.793
 5046TIP3    H215145   3.934   5.403   4.858
 5047TIP3   OH215146   1.753   5.427   3.443
 5047TIP3    H115147   1.795   5.465   3.520
 5047TIP3    H215148   1.662   5.458   3.447
 5048TIP3   OH215149   4.114   3.765   3.209
 5048TIP3    H115150   4.181   3.698   3.192
 5048TIP3    H215151   4.121   3.825   3.135
 5049TIP3   OH215152   3.054   4.005   0.078
 5049TIP3    H115153   2.976   4.060   0.087
 5049TIP3    H215154   3.080   3.985   0.169
 5050TIP3   OH215155   0.742   2.630   3.263
 5050TIP3    H115156   0.755   2.683   3.185
 5050TIP3    H215157   0.647   2.623   3.271
 5051TIP3   OH215158   2.931   3.625   4.682
 5051TIP3    H115159   2.892   3.613   4.595
 5051TIP3    H215160   2.918   3.541   4.726
 5052TIP3   OH215161   0.401   3.526   3.172
 5052TIP3    H115162   0.310   3.551   3.157
 5052TIP3    H215163   0.398   3.433   3.193
 5053TIP3   OH215164   1.551   0.407   2.629
 5053TIP3    H115165   1.630   0.353   2.625
 5053TIP3    H215166   1.540   0.427   2.722
 5054TIP3   OH215167   1.294   5.907   3.977
 5054TIP3    H115168   1.354   5.981   3.986
 5054TIP3    H215169   1.207   5.947   3.975
 5055TIP3   OH215170   0.298   0.190   1.524
 5055TIP3    H115171   0.271   0.109   1.480
 5055TIP3    H215172   0.324   0.162   1.612
 5056TIP3   OH215173   0.284   5.600   2.094
 5056TIP3    H115174   0.248   5.687   2.112
 5056TIP3    H215175   0.221   5.561   2.033
 5057TIP3   OH215176   1.111   2.534   1.802
 5057TIP3    H115177   1.063   2.477   1.742
 5057TIP3    H215178   1.191   2.486   1.822
 5058TIP3   OH215179   4.789   4.367   2.699
 5058TIP3    H115180   4.860   4.392   2.640
 5058TIP3    H215181   4.755   4.285   2.663
 5059TIP3   OH215182   3.082   3.782   3.253
 5059TIP3    H115183   3.078   3.876   3.237
 5059TIP3    H215184   2.991   3.756   3.266
 5060TIP3   OH215185   0.137   5.094   3.955
 5060TIP3    H115186   0.048   5.092   3.991
 5060TIP3    H215187   0.141   5.177   3.907
 5061TIP3   OH215188   3.778   5.225   5.018
 5061TIP3    H115189   3.712   5.261   5.077
 5061TIP3    H215190   3.810   5.300   4.968
 5062TIP3   OH215191   5.379   0.937   2.884
 5062TIP3    H115192   5.442   1.005   2.859
 5062TIP3    H215193   5.367   0.884   2.805
 5063TIP3   OH215194   3.445   0.397   3.254
 5063TIP3    H115195   3.373   0.366   3.308
 5063TIP3    H215196   3.431   0.491   3.246
 5064TIP3   OH215197   3.975   2.412   0.614
 5064TIP3    H115198   4.045   2.375   0.667
 5064TIP3    H215199   3.901   2.352   0.625
 5065TIP3   OH215200   5.350   1.263   4.324
 5065TIP3    H115201   5.413   1.315   4.274
 5065TIP3    H215202   5.314   1.201   4.261
 5066TIP3   OH215203   5.082   1.556   3.025
 5066TIP3    H115204   5.043   1.627   3.077
 5066TIP3    H215205   5.162   1.533   3.072
 5067TIP3   OH215206   2.362   4.043   2.121
 5067TIP3    H115207   2.425   4.114   2.133
 5067TIP3    H215208   2.401   3.968   2.166
 5068TIP3   OH215209   1.342   5.046   0.447
 5068TIP3    H115210   1.270   4.997   0.406
 5068TIP3    H215211   1.417   4.986   0.444
 5069TIP3   OH215212   0.952   5.348   0.196
 5069TIP3    H115213   0.979   5.371   0.107
 5069TIP3    H215214   0.863   5.381   0.202
 5070TIP3   OH215215   4.104   4.289   1.605
 5070TIP3    H115216   4.112   4.268   1.698
 5070TIP3    H215217   4.193   4.285   1.571
 5071TIP3   OH215218   6.347   1.276   4.550
 5071TIP3    H115219   6.281   1.305   4.487
 5071TIP3    H215220   6.385   1.198   4.511
 5072TIP3   OH215221   1.826   2.598   2.063
 5072TIP3    H115222   1.879   2.542   2.119
 5072TIP3    H215223   1.826   2.554   1.978
 5073TIP3   OH215224   5.746   5.834   1.463
 5073TIP3    H115225   5.803   5.900   1.424
 5073TIP3    H215226   5.661   5.848   1.423
 5074TIP3   OH215227   1.539   1.058   1.221
 5074TIP3    H115228   1.491   1.141   1.231
 5074TIP3    H215229   1.535   1.040   1.127
 5075TIP3   OH215230   6.255   5.319   1.162
 5075TIP3    H115231   6.229   5.313   1.254
 5075TIP3    H215232   6.173   5.319   1.113
 5076TIP3   OH215233   0.426   3.074   0.096
 5076TIP3    H115234   0.519   3.087   0.081
 5076TIP3    H215235   0.416   2.979   0.103
 5077TIP3   OH215236   3.540   2.918   2.618
 5077TIP3    H115237   3.622   2.951   2.656
 5077TIP3    H215238   3.563   2.893   2.529
 5078TIP3   OH215239   2.031   0.883   2.756
 5078TIP3    H115240   2.112   0.868   2.806
 5078TIP3    H215241   1.995   0.795   2.744
 5079TIP3   OH215242   6.291   0.201   3.528
 5079TIP3    H115243   6.225   0.244   3.474
 5079TIP3    H215244   6.343   0.149   3.466
 5080TIP3   OH215245   1.569   2.172   4.477
 5080TIP3    H115246   1.654   2.168   4.522
 5080TIP3    H215247   1.542   2.263   4.484
 5081TIP3   OH215248   2.585   5.005   4.178
 5081TIP3    H115249   2.629   4.928   4.215
 5081TIP3    H215250   2.502   4.971   4.145
 5082TIP3   OH215251   5.860   2.544   0.553
 5082TIP3    H115252   5.942   2.570   0.513
 5082TIP3    H215253   5.856   2.593   0.635
 5083TIP3   OH215254   1.813   5.956   4.821
 5083TIP3    H115255   1.882   5.932   4.884
 5083TIP3    H215256   1.855   5.946   4.735
 5084TIP3   OH215257   0.636   1.460   1.866
 5084TIP3    H115258   0.698   1.531   1.847
 5084TIP3    H215259   0.622   1.465   1.960
 5085TIP3   OH215260   1.585   1.814   1.629
 5085TIP3    H115261   1.657   1.805   1.566
 5085TIP3    H215262   1.629   1.814   1.715
 5086TIP3   OH215263   4.023   1.866   4.555
 5086TIP3    H115264   4.022   1.839   4.463
 5086TIP3    H215265   3.948   1.822   4.595
 5087TIP3   OH215266   5.336   3.228   1.483
 5087TIP3    H115267   5.254   3.261   1.446
 5087TIP3    H215268   5.398   3.229   1.410
 5088TIP3   OH215269   3.290   3.425   3.390
 5088TIP3    H115270   3.229   3.431   3.464
 5088TIP3    H215271   3.235   3.440   3.313
 5089TIP3   OH215272   1.782   2.397   1.813
 5089TIP3    H115273   1.801   2.314   1.858
 5089TIP3    H215274   1.814   2.384   1.724
 5090TIP3   OH215275   4.545   3.611   4.056
 5090TIP3    H115276   4.586   3.525   4.053
 5090TIP3    H215277   4.520   3.630   3.965
 5091TIP3   OH215278   3.553   4.867   1.342
 5091TIP3    H115279   3.554   4.866   1.246
 5091TIP3    H215280   3.580   4.779   1.367
 5092TIP3   OH215281   4.712   3.992   2.700
 5092TIP3    H115282   4.791   4.004   2.647
 5092TIP3    H215283   4.737   3.926   2.766
 5093TIP3   OH215284   5.235   3.550   1.786
 5093TIP3    H115285   5.205   3.624   1.732
 5093TIP3    H215286   5.155   3.512   1.821
 5094TIP3   OH215287   2.833   3.760   2.769
 5094TIP3    H115288   2.826   3.854   2.786
 5094TIP3    H215289   2.761   3.721   2.817
 5095TIP3   OH215290   2.588   4.166   3.213
 5095TIP3    H115291   2.541   4.215   3.281
 5095TIP3    H215292   2.538   4.183   3.133
 5096TIP3   OH215293   5.528   0.112   1.444
 5096TIP3    H115294   5.516   0.055   1.520
 5096TIP3    H215295   5.483   0.193   1.468
 5097TIP3   OH215296   4.431   4.802   2.078
 5097TIP3    H115297   4.478   4.739   2.022
 5097TIP3    H215298   4.490   4.817   2.152
 5098TIP3   OH215299  -0.002   1.322   2.886
 5098TIP3    H115300   0.011   1.321   2.791
 5098TIP3    H215301   0.009   1.414   2.910
 5099TIP3   OH215302   3.600   4.091   0.053
 5099TIP3    H115303   3.512   4.123   0.072
 5099TIP3    H215304   3.651   4.170   0.035
 5100TIP3   OH215305   3.910   3.135   0.453
 5100TIP3    H115306   3.851   3.138   0.527
 5100TIP3    H215307   3.913   3.226   0.421
 5101TIP3   OH215308   3.652   0.823   1.819
 5101TIP3    H115309   3.612   0.752   1.870
 5101TIP3    H215310   3.598   0.900   1.838
 5102TIP3   OH215311   0.675   3.490   1.229
 5102TIP3    H115312   0.723   3.409   1.248
 5102TIP3    H215313   0.583   3.465   1.232
 5103TIP3   OH215314   2.639   3.991   3.495
 5103TIP3    H115315   2.551   4.005   3.531
 5103TIP3    H215316   2.624   3.967   3.403
 5104TIP3   OH215317   3.029   1.290   1.207
 5104TIP3    H115318   3.015   1.280   1.113
 5104TIP3    H215319   3.087   1.366   1.215
 5105TIP3   OH215320   4.967   0.028   4.382
 5105TIP3    H115321   4.895   0.061   4.328
 5105TIP3    H215322   4.937   0.039   4.472
 5106TIP3   OH215323   4.949   0.941   2.031
 5106TIP3    H115324   4.985   0.989   2.106
 5106TIP3    H215325   4.868   0.902   2.065
 5107TIP3   OH215326   6.096   2.895   1.740
 5107TIP3    H115327   6.129   2.950   1.669
 5107TIP3    H215328   6.083   2.809   1.699
 5108TIP3   OH215329   5.843   4.634   1.351
 5108TIP3    H115330   5.795   4.601   1.275
 5108TIP3    H215331   5.865   4.724   1.327
 5109TIP3   OH215332   2.841   0.643   4.102
 5109TIP3    H115333   2.894   0.596   4.165
 5109TIP3    H215334   2.901   0.667   4.032
 5110TIP3   OH215335   3.451   4.478   0.166
 5110TIP3    H115336   3.455   4.492   0.260
 5110TIP3    H215337   3.533   4.513   0.132
 5111TIP3   OH215338   1.325   0.683   4.789
 5111TIP3    H115339   1.305   0.624   4.717
 5111TIP3    H215340   1.247   0.679   4.845
 5112TIP3   OH215341   5.703   0.709   4.673
 5112TIP3    H115342   5.609   0.727   4.670
 5112TIP3    H215343   5.737   0.772   4.736
 5113TIP3   OH215344   0.125   5.434   2.930
 5113TIP3    H115345   0.124   5.364   2.864
 5113TIP3    H215346   0.033   5.461   2.937
 5114TIP3   OH215347   0.928   3.097   0.145
 5114TIP3    H115348   1.012   3.060   0.119
 5114TIP3    H215349   0.863   3.032   0.116
 5115TIP3   OH215350   5.067   3.111   0.587
 5115TIP3    H115351   5.032   3.198   0.571
 5115TIP3    H215352   4.990   3.055   0.597
 5116TIP3   OH215353   2.426   4.654   4.724
 5116TIP3    H115354   2.392   4.660   4.814
 5116TIP3    H215355   2.520   4.666   4.733
 5117TIP3   OH215356   2.335   3.982   1.865
 5117TIP3    H115357   2.351   4.009   1.955
 5117TIP3    H215358   2.307   4.063   1.821
 5118TIP3   OH215359   3.862   3.981   2.852
 5118TIP3    H115360   3.954   3.953   2.863
 5118TIP3    H215361   3.868   4.073   2.827
 5119TIP3   OH215362   2.910   5.650   2.505
 5119TIP3    H115363   2.998   5.625   2.479
 5119TIP3    H215364   2.918   5.741   2.534
 5120TIP3   OH215365   2.100   1.352   2.410
 5120TIP3    H115366   2.009   1.326   2.420
 5120TIP3    H215367   2.129   1.378   2.498
 5121TIP3   OH215368   0.185   3.598   1.706
 5121TIP3    H115369   0.103   3.550   1.692
 5121TIP3    H215370   0.203   3.587   1.799
 5122TIP3   OH215371   0.699   4.564   2.101
 5122TIP3    H115372   0.735   4.476   2.110
 5122TIP3    H215373   0.740   4.599   2.022
 5123TIP3   OH215374   5.782   4.852   2.770
 5123TIP3    H115375   5.743   4.937   2.753
 5123TIP3    H215376   5.759   4.800   2.693
 5124TIP3   OH215377   6.022   5.942   1.396
 5124TIP3    H115378   6.043   6.029   1.429
 5124TIP3    H215379   6.105   5.895   1.398
 5125TIP3   OH215380   1.566   1.482   4.959
 5125TIP3    H115381   1.613   1.550   4.910
 5125TIP3    H215382   1.475   1.493   4.934
 5126TIP3   OH215383   6.165   4.192   0.899
 5126TIP3    H115384   6.099   4.261   0.898
 5126TIP3    H215385   6.195   4.186   0.808
 5127TIP3   OH215386   4.621   2.575   2.171
 5127TIP3    H115387   4.544   2.538   2.215
 5127TIP3    H215388   4.655   2.503   2.118
 5128TIP3   OH215389   6.095   4.475   3.526
 5128TIP3    H115390   6.086   4.424   3.445
 5128TIP3    H215391   6.019   4.533   3.526
 5129TIP3   OH215392   0.567   0.514   1.317
 5129TIP3    H115393   0.588   0.607   1.324
 5129TIP3    H215394   0.473   0.510   1.332
 5130TIP3   OH215395   0.216   2.762   1.730
 5130TIP3    H115396   0.151   2.818   1.772
 5130TIP3    H215397   0.300   2.790   1.768
 5131TIP3   OH215398   2.539   1.587   0.590
 5131TIP3    H115399   2.482   1.660   0.568
 5131TIP3    H215400   2.618   1.600   0.537
 5132TIP3   OH215401   2.166   0.170   2.681
 5132TIP3    H115402   2.261   0.175   2.671
 5132TIP3    H215403   2.132   0.204   2.598
 5133TIP3   OH215404   0.212   4.426   0.762
 5133TIP3    H115405   0.198   4.503   0.818
 5133TIP3    H215406   0.239   4.462   0.678
 5134TIP3   OH215407   6.346   5.839   0.236
 5134TIP3    H115408   6.330   5.910   0.173
 5134TIP3    H215409   6.374   5.765   0.182
 5135TIP3   OH215410   3.063   4.638   3.589
 5135TIP3    H115411   3.107   4.687   3.519
 5135TIP3    H215412   3.054   4.702   3.660
 5136TIP3   OH215413   4.063   3.653   2.845
 5136TIP3    H115414   4.098   3.728   2.892
 5136TIP3    H215415   4.003   3.611   2.906
 5137TIP3   OH215416   0.785   1.373   4.424
 5137TIP3    H115417   0.873   1.373   4.461
 5137TIP3    H215418   0.732   1.422   4.487
 5138TIP3   OH215419   5.514   5.898   4.590
 5138TIP3    H115420   5.467   5.931   4.513
 5138TIP3    H215421   5.590   5.853   4.553
 5139TIP3   OH215422   3.292   1.536   3.557
 5139TIP3    H115423   3.308   1.524   3.463
 5139TIP3    H215424   3.376   1.517   3.598
 5140TIP3   OH215425   1.374   2.707   1.010
 5140TIP3    H115426   1.411   2.795   1.017
 5140TIP3    H215427   1.450   2.649   1.018
 5141TIP3   OH215428   0.705   0.497   4.973
 5141TIP3    H115429   0.689   0.425   5.034
 5141TIP3    H215430   0.778   0.466   4.919
 5142TIP3   OH215431   1.314   2.738   0.629
 5142TIP3    H115432   1.297   2.808   0.692
 5142TIP3    H215433   1.276   2.660   0.667
 5143TIP3   OH215434   4.401   5.475   3.375
 5143TIP3    H115435   4.375   5.486   3.283
 5143TIP3    H215436   4.351   5.541   3.422
 5144TIP3   OH215437   3.832   4.496   0.417
 5144TIP3    H115438   3.786   4.574   0.445
 5144TIP3    H215439   3.887   4.525   0.344
 5145TIP3   OH215440   1.515   0.592   2.443
 5145TIP3    H115441   1.462   0.538   2.384
 5145TIP3    H215442   1.550   0.530   2.507
 5146TIP3   OH215443   6.028   4.647   3.787
 5146TIP3    H115444   6.081   4.566   3.788
 5146TIP3    H215445   6.067   4.700   3.717
 5147TIP3   OH215446   5.307   1.519   2.116
 5147TIP3    H115447   5.364   1.541   2.043
 5147TIP3    H215448   5.302   1.424   2.116
 5148TIP3   OH215449   2.884  -0.016   1.798
 5148TIP3    H115450   2.972   0.016   1.813
 5148TIP3    H215451   2.841   0.053   1.747
 5149TIP3   OH215452   5.026   3.155   1.026
 5149TIP3    H115453   5.058   3.207   0.951
 5149TIP3    H215454   5.087   3.176   1.097
 5150TIP3   OH215455   3.015   4.834   4.949
 5150TIP3    H115456   3.106   4.853   4.972
 5150TIP3    H215457   3.010   4.739   4.949
 5151TIP3   OH215458   2.054   3.578   1.829
 5151TIP3    H115459   2.108   3.656   1.825
 5151TIP3    H215460   1.968   3.606   1.797
 5152TIP3   OH215461   2.109   2.971   3.468
 5152TIP3    H115462   2.047   2.996   3.537
 5152TIP3    H215463   2.173   2.915   3.513
 5153TIP3   OH215464   4.509   3.033   4.191
 5153TIP3    H115465   4.451   3.107   4.171
 5153TIP3    H215466   4.535   3.047   4.282
 5154TIP3   OH215467   1.151   3.766   0.110
 5154TIP3    H115468   1.069   3.723   0.136
 5154TIP3    H215469   1.133   3.859   0.120
 5155TIP3   OH215470   5.928   4.438   4.685
 5155TIP3    H115471   5.857   4.402   4.632
 5155TIP3    H215472   5.886   4.506   4.738
 5156TIP3   OH215473   3.218   0.020   2.603
 5156TIP3    H115474   3.235   0.020   2.697
 5156TIP3    H215475   3.124   0.004   2.596
 5157TIP3   OH215476   2.548   3.328   3.409
 5157TIP3    H115477   2.578   3.281   3.331
 5157TIP3    H215478   2.492   3.265   3.454
 5158TIP3   OH215479   0.025   2.065   2.686
 5158TIP3    H115480  -0.035   2.046   2.613
 5158TIP3    H215481   0.016   2.159   2.700
 5159TIP3   OH215482   4.445   4.330   1.416
 5159TIP3    H115483   4.455   4.325   1.511
 5159TIP3    H215484   4.362   4.286   1.398
 5160TIP3   OH215485   1.169   2.592   0.033
 5160TIP3    H115486   1.224   2.644  -0.025
 5160TIP3    H215487   1.110   2.655   0.073
 5161TIP3   OH215488   4.856   4.853   0.925
 5161TIP3    H115489   4.786   4.909   0.959
 5161TIP3    H215490   4.893   4.903   0.852
 5162TIP3   OH215491   5.375   1.108   4.825
 5162TIP3    H115492   5.357   1.125   4.732
 5162TIP3    H215493   5.368   1.013   4.834
 5163TIP3   OH215494   2.141   1.031   0.474
 5163TIP3    H115495   2.062   1.023   0.527
 5163TIP3    H215496   2.160   1.125   0.473
 5164TIP3   OH215497   3.867   0.783   4.272
 5164TIP3    H115498   3.951   0.778   4.226
 5164TIP3    H215499   3.884   0.743   4.357
 5165TIP3   OH215500   2.802   2.580   4.933
 5165TIP3    H115501   2.714   2.616   4.928
 5165TIP3    H215502   2.810   2.525   4.855
 5166TIP3   OH215503   2.738   0.909   1.221
 5166TIP3    H115504   2.692   0.830   1.194
 5166TIP3    H215505   2.672   0.961   1.267
 5167TIP3   OH215506   2.345   4.152   3.057
 5167TIP3    H115507   2.261   4.165   3.012
 5167TIP3    H215508   2.337   4.065   3.096
 5168TIP3   OH215509   4.565   5.716   4.460
 5168TIP3    H115510   4.616   5.635   4.464
 5168TIP3    H215511   4.565   5.749   4.549
 5169TIP3   OH215512   2.496   4.036   0.629
 5169TIP3    H115513   2.494   4.048   0.724
 5169TIP3    H215514   2.405   4.049   0.601
 5170TIP3   OH215515   0.551   1.619   2.550
 5170TIP3    H115516   0.576   1.660   2.468
 5170TIP3    H215517   0.488   1.551   2.524
 5171TIP3   OH215518   3.123   2.302   3.006
 5171TIP3    H115519   3.185   2.250   2.955
 5171TIP3    H215520   3.166   2.388   3.015
 5172TIP3   OH215521   2.963   4.818   3.795
 5172TIP3    H115522   2.948   4.762   3.871
 5172TIP3    H215523   3.019   4.888   3.827
 5173TIP3   OH215524   6.303   2.232   0.676
 5173TIP3    H115525   6.375   2.169   0.673
 5173TIP3    H215526   6.314   2.285   0.596
 5174TIP3   OH215527   1.932   4.385   3.939
 5174TIP3    H115528   2.004   4.448   3.940
 5174TIP3    H215529   1.853   4.438   3.931
 5175TIP3   OH215530   0.493   3.300   2.773
 5175TIP3    H115531   0.572   3.260   2.808
 5175TIP3    H215532   0.493   3.389   2.807
 5176TIP3   OH215533   3.210   5.229   2.327
 5176TIP3    H115534   3.247   5.147   2.359
 5176TIP3    H215535   3.283   5.291   2.328
 5177TIP3   OH215536   0.155   4.838   0.774
 5177TIP3    H115537   0.129   4.753   0.738
 5177TIP3    H215538   0.202   4.817   0.855
 5178TIP3   OH215539   3.457   3.916   3.021
 5178TIP3    H115540   3.541   3.883   2.990
 5178TIP3    H215541   3.475   4.006   3.050
 5179TIP3   OH215542   1.473   0.140   0.861
 5179TIP3    H115543   1.489   0.208   0.795
 5179TIP3    H215544   1.558   0.124   0.900
 5180TIP3   OH215545   2.649   2.384   0.326
 5180TIP3    H115546   2.661   2.346   0.239
 5180TIP3    H215547   2.644   2.478   0.310
 5181TIP3   OH215548   5.056   4.645   4.964
 5181TIP3    H115549   4.980   4.662   5.020
 5181TIP3    H215550   5.020   4.647   4.875
 5182TIP3   OH215551   3.917   1.959   1.394
 5182TIP3    H115552   3.961   1.887   1.439
 5182TIP3    H215553   3.931   2.035   1.451
 5183TIP3   OH215554   4.941   5.626   5.130
 5183TIP3    H115555   4.898   5.564   5.072
 5183TIP3    H215556   4.891   5.707   5.119
 5184TIP3   OH215557   5.303   3.500   2.574
 5184TIP3    H115558   5.311   3.512   2.479
 5184TIP3    H215559   5.218   3.458   2.586
 5185TIP3   OH215560   3.547   5.707   0.737
 5185TIP3    H115561   3.539   5.799   0.764
 5185TIP3    H215562   3.554   5.711   0.642
 5186TIP3   OH215563   3.699   3.512   3.210
 5186TIP3    H115564   3.760   3.513   3.284
 5186TIP3    H215565   3.615   3.488   3.249
 5187TIP3   OH215566   1.870   1.805   2.231
 5187TIP3    H115567   1.834   1.875   2.177
 5187TIP3    H215568   1.963   1.803   2.210
 5188TIP3   OH215569   3.267   6.004   0.459
 5188TIP3    H115570   3.227   5.982   0.375
 5188TIP3    H215571   3.308   5.922   0.488
 5189TIP3   OH215572   6.253   1.846   3.200
 5189TIP3    H115573   6.174   1.892   3.231
 5189TIP3    H215574   6.325   1.890   3.245
 5190TIP3   OH215575   2.314   0.738   1.060
 5190TIP3    H115576   2.361   0.821   1.057
 5190TIP3    H215577   2.382   0.672   1.050
 5191TIP3   OH215578   3.367   5.490   3.995
 5191TIP3    H115579   3.311   5.567   3.994
 5191TIP3    H215580   3.374   5.467   4.088
 5192TIP3   OH215581   3.575   1.080   0.573
 5192TIP3    H115582   3.576   1.080   0.669
 5192TIP3    H215583   3.621   1.000   0.548
 5193TIP3   OH215584   2.996   4.758   1.300
 5193TIP3    H115585   2.957   4.837   1.339
 5193TIP3    H215586   3.067   4.735   1.359
 5194TIP3   OH215587   5.899   3.158   4.228
 5194TIP3    H115588   5.918   3.069   4.199
 5194TIP3    H215589   5.834   3.191   4.166
 5195TIP3   OH215590  -0.002   1.432   0.535
 5195TIP3    H115591   0.058   1.445   0.609
 5195TIP3    H215592  -0.040   1.518   0.520
 5196TIP3   OH215593   0.416   4.372   3.914
 5196TIP3    H115594   0.464   4.431   3.856
 5196TIP3    H215595   0.423   4.413   4.000
 5197TIP3   OH215596   3.142   3.128   0.360
 5197TIP3    H115597   3.148   3.176   0.277
 5197TIP3    H215598   3.112   3.194   0.423
 5198TIP3   OH215599   5.626   3.424   3.201
 5198TIP3    H115600   5.637   3.508   3.158
 5198TIP3    H215601   5.557   3.439   3.266
 5199TIP3   OH215602   4.616   4.815   1.073
 5199TIP3    H115603   4.596   4.897   1.117
 5199TIP3    H215604   4.584   4.747   1.132
 5200TIP3   OH215605   1.168   2.602   3.708
 5200TIP3    H115606   1.082   2.578   3.744
 5200TIP3    H215607   1.194   2.680   3.757
 5201TIP3   OH215608   2.887   5.565   3.035
 5201TIP3    H115609   2.899   5.640   3.094
 5201TIP3    H215610   2.945   5.583   2.961
 5202TIP3   OH215611   0.793   4.291   1.300
 5202TIP3    H115612   0.759   4.231   1.233
 5202TIP3    H215613   0.715   4.324   1.344
 5203TIP3   OH215614   5.122   0.508   4.891
 5203TIP3    H115615   5.087   0.579   4.944
 5203TIP3    H215616   5.069   0.432   4.915
 5204TIP3   OH215617   3.427   5.844   5.089
 5204TIP3    H115618   3.370   5.921   5.082
 5204TIP3    H215619   3.460   5.847   5.179
 5205TIP3   OH215620   3.753   2.383   0.217
 5205TIP3    H115621   3.719   2.336   0.293
 5205TIP3    H215622   3.780   2.468   0.251
 5206TIP3   OH215623   6.328   2.704   0.103
 5206TIP3    H115624   6.321   2.623   0.053
 5206TIP3    H215625   6.359   2.769   0.039
 5207TIP3   OH215626   0.383   5.204   3.418
 5207TIP3    H115627   0.311   5.165   3.369
 5207TIP3    H215628   0.462   5.179   3.370
 5208TIP3   OH215629   3.874   2.487   0.951
 5208TIP3    H115630   3.964   2.474   0.981
 5208TIP3    H215631   3.882   2.552   0.881
 5209TIP3   OH215632   6.244   2.604   1.589
 5209TIP3    H115633   6.302   2.664   1.542
 5209TIP3    H215634   6.299   2.530   1.614
 5210TIP3   OH215635   4.176   5.248   3.888
 5210TIP3    H115636   4.269   5.229   3.895
 5210TIP3    H215637   4.144   5.243   3.978
 5211TIP3   OH215638   4.566   5.863   0.446
 5211TIP3    H115639   4.480   5.905   0.443
 5211TIP3    H215640   4.554   5.786   0.502
 5212TIP3   OH215641   2.693   1.214   3.895
 5212TIP3    H115642   2.599   1.195   3.903
 5212TIP3    H215643   2.728   1.141   3.845
 5213TIP3   OH215644   4.606   3.745   3.758
 5213TIP3    H115645   4.602   3.841   3.760
 5213TIP3    H215646   4.699   3.725   3.752
 5214TIP3   OH215647   6.161   1.554   2.315
 5214TIP3    H115648   6.102   1.531   2.243
 5214TIP3    H215649   6.145   1.486   2.381
 5215TIP3   OH215650   0.211   4.826   5.121
 5215TIP3    H115651   0.222   4.865   5.034
 5215TIP3    H215652   0.124   4.786   5.119
 5216TIP3   OH215653   3.127   2.672   3.567
 5216TIP3    H115654   3.207   2.715   3.538
 5216TIP3    H215655   3.094   2.628   3.488
 5217TIP3   OH215656   1.435   1.399   3.228
 5217TIP3    H115657   1.469   1.375   3.314
 5217TIP3    H215658   1.385   1.323   3.200
 5218TIP3   OH215659   5.016   1.445   3.445
 5218TIP3    H115660   5.024   1.514   3.510
 5218TIP3    H215661   5.097   1.394   3.455
 5219TIP3   OH215662   5.520   0.244   0.615
 5219TIP3    H115663   5.567   0.257   0.697
 5219TIP3    H215664   5.573   0.288   0.549
 5220TIP3   OH215665   5.803   5.822   5.170
 5220TIP3    H115666   5.770   5.739   5.205
 5220TIP3    H215667   5.726   5.876   5.159
 5221TIP3   OH215668   2.714   4.768   4.230
 5221TIP3    H115669   2.631   4.725   4.251
 5221TIP3    H215670   2.738   4.732   4.144
 5222TIP3   OH215671   0.664   5.954   1.252
 5222TIP3    H115672   0.730   6.023   1.249
 5222TIP3    H215673   0.598   5.980   1.187
 5223TIP3   OH215674   3.661   4.366   4.607
 5223TIP3    H115675   3.586   4.381   4.549
 5223TIP3    H215676   3.704   4.451   4.614
 5224TIP3   OH215677   6.304   5.479   4.442
 5224TIP3    H115678   6.269   5.510   4.525
 5224TIP3    H215679   6.393   5.515   4.438
 5225TIP3   OH215680   5.221   3.307   0.920
 5225TIP3    H115681   5.155   3.360   0.875
 5225TIP3    H215682   5.281   3.371   0.959
 5226TIP3   OH215683   2.875   3.443   4.021
 5226TIP3    H115684   2.944   3.450   4.086
 5226TIP3    H215685   2.879   3.525   3.972
 5227TIP3   OH215686   6.191   1.761   2.514
 5227TIP3    H115687   6.146   1.823   2.457
 5227TIP3    H215688   6.201   1.682   2.461
 5228TIP3   OH215689   5.436   0.772   4.094
 5228TIP3    H115690   5.402   0.849   4.138
 5228TIP3    H215691   5.394   0.698   4.139
 5229TIP3   OH215692   2.983   0.350   2.439
 5229TIP3    H115693   3.052   0.286   2.419
 5229TIP3    H215694   2.979   0.405   2.362
 5230TIP3   OH215695   5.699   2.326   4.425
 5230TIP3    H115696   5.679   2.238   4.393
 5230TIP3    H215697   5.757   2.364   4.360
 5231TIP3   OH215698   2.409   0.237   2.970
 5231TIP3    H115699   2.393   0.143   2.976
 5231TIP3    H215700   2.424   0.253   2.877
 5232TIP3   OH215701   5.899   0.909   2.827
 5232TIP3    H115702   5.807   0.895   2.804
 5232TIP3    H215703   5.899   0.984   2.886
 5233TIP3   OH215704   6.050   3.028   4.585
 5233TIP3    H115705   6.123   2.966   4.574
 5233TIP3    H215706   6.087   3.099   4.637
 5234TIP3   OH215707   2.171   4.960   0.715
 5234TIP3    H115708   2.104   4.964   0.783
 5234TIP3    H215709   2.253   4.974   0.762
 5235TIP3   OH215710   4.113   0.620   1.021
 5235TIP3    H115711   4.017   0.626   1.011
 5235TIP3    H215712   4.147   0.693   0.970
 5236TIP3   OH215713   5.994   4.075   1.086
 5236TIP3    H115714   6.055   4.122   1.030
 5236TIP3    H215715   6.028   3.985   1.089
 5237TIP3   OH215716   0.085   0.888   0.388
 5237TIP3    H115717   0.146   0.895   0.314
 5237TIP3    H215718  -0.002   0.895   0.349
 5238TIP3   OH215719   6.073   4.339   0.645
 5238TIP3    H115720   5.981   4.336   0.618
 5238TIP3    H215721   6.119   4.373   0.568
 5239TIP3   OH215722   0.994   3.055   0.424
 5239TIP3    H115723   1.058   2.991   0.393
 5239TIP3    H215724   0.966   3.100   0.344
 5240TIP3   OH215725   3.399   2.141   1.840
 5240TIP3    H115726   3.377   2.230   1.813
 5240TIP3    H215727   3.332   2.087   1.798
 5241TIP3   OH215728   4.332   5.458   2.657
 5241TIP3    H115729   4.393   5.388   2.681
 5241TIP3    H215730   4.271   5.463   2.730
 5242TIP3   OH215731   2.365   4.567   1.266
 5242TIP3    H115732   2.387   4.474   1.268
 5242TIP3    H215733   2.300   4.574   1.196
 5243TIP3   OH215734   4.900   5.620   2.860
 5243TIP3    H115735   4.898   5.558   2.934
 5243TIP3    H215736   4.960   5.689   2.888
 5244TIP3   OH215737   2.425   4.286   2.768
 5244TIP3    H115738   2.424   4.360   2.707
 5244TIP3    H215739   2.342   4.291   2.814
 5245TIP3   OH215740   1.570   4.704   0.992
 5245TIP3    H115741   1.489   4.660   1.020
 5245TIP3    H215742   1.628   4.632   0.965
 5246TIP3   OH215743   0.936   1.475   1.875
 5246TIP3    H115744   0.938   1.536   1.949
 5246TIP3    H215745   0.893   1.397   1.909
 5247TIP3   OH215746   1.803   3.079   2.155
 5247TIP3    H115747   1.838   2.991   2.141
 5247TIP3    H215748   1.871   3.137   2.122
 5248TIP3   OH215749   4.442   0.427   3.467
 5248TIP3    H115750   4.483   0.409   3.552
 5248TIP3    H215751   4.415   0.341   3.435
 5249TIP3   OH215752   6.194   0.845   4.969
 5249TIP3    H115753   6.178   0.768   4.914
 5249TIP3    H215754   6.270   0.821   5.022
 5250TIP3   OH215755   4.926   5.365   4.107
 5250TIP3    H115756   5.021   5.362   4.093
 5250TIP3    H215757   4.901   5.455   4.087
 5251TIP3   OH215758   1.882   5.685   4.530
 5251TIP3    H115759   1.859   5.672   4.438
 5251TIP3    H215760   1.889   5.780   4.539
 5252TIP3   OH215761   0.920   3.817   5.078
 5252TIP3    H115762   0.983   3.821   5.006
 5252TIP3    H215763   0.974   3.805   5.156
 5253TIP3   OH215764   5.173   1.137   3.734
 5253TIP3    H115765   5.177   1.167   3.825
 5253TIP3    H215766   5.188   1.216   3.682
 5254TIP3   OH215767   3.465   4.359   3.781
 5254TIP3    H115768   3.434   4.269   3.780
 5254TIP3    H215769   3.394   4.410   3.742
 5255TIP3   OH215770   0.844   5.623   0.707
 5255TIP3    H115771   0.906   5.550   0.719
 5255TIP3    H215772   0.814   5.614   0.617
 5256TIP3   OH215773   0.186   5.731   3.997
 5256TIP3    H115774   0.225   5.818   3.987
 5256TIP3    H215775   0.210   5.684   3.917
 5257TIP3   OH215776   5.598   5.930   3.224
 5257TIP3    H115777   5.554   5.857   3.180
 5257TIP3    H215778   5.537   6.003   3.216
 5258TIP3   OH215779   1.935   3.528   1.210
 5258TIP3    H115780   1.991   3.582   1.154
 5258TIP3    H215781   1.938   3.441   1.171
 5259TIP3   OH215782   2.744   1.253   4.534
 5259TIP3    H115783   2.691   1.212   4.466
 5259TIP3    H215784   2.691   1.245   4.614
 5260TIP3   OH215785   2.504   4.510   2.419
 5260TIP3    H115786   2.512   4.599   2.385
 5260TIP3    H215787   2.472   4.522   2.509
 5261TIP3   OH215788   2.070   5.020   1.007
 5261TIP3    H115789   2.105   5.023   1.096
 5261TIP3    H215790   2.001   4.952   1.011
 5262TIP3   OH215791   1.739   4.934   0.988
 5262TIP3    H115792   1.753   4.963   1.078
 5262TIP3    H215793   1.660   4.881   0.992
 5263TIP3   OH215794   2.743   1.335   1.823
 5263TIP3    H115795   2.741   1.373   1.735
 5263TIP3    H215796   2.829   1.360   1.858
 5264TIP3   OH215797   6.243   5.922   2.460
 5264TIP3    H115798   6.323   5.870   2.453
 5264TIP3    H215799   6.273   6.013   2.453
 5265TIP3   OH215800   3.196   4.188   0.387
 5265TIP3    H115801   3.154   4.268   0.355
 5265TIP3    H215802   3.283   4.216   0.416
 5266TIP3   OH215803   2.089   3.398  -0.003
 5266TIP3    H115804   2.003   3.436  -0.019
 5266TIP3    H215805   2.073   3.331   0.064
 5267TIP3   OH215806   1.224   3.214   4.539
 5267TIP3    H115807   1.285   3.288   4.538
 5267TIP3    H215808   1.225   3.184   4.630
 5268TIP3   OH215809   1.019   2.402   3.400
 5268TIP3    H115810   0.928   2.397   3.430
 5268TIP3    H215811   1.031   2.495   3.377
 5269TIP3   OH215812   4.211   4.077   2.381
 5269TIP3    H115813   4.142   4.044   2.324
 5269TIP3    H215814   4.214   4.171   2.364
 5270TIP3   OH215815   4.772   5.716   0.247
 5270TIP3    H115816   4.698   5.704   0.306
 5270TIP3    H215817   4.841   5.755   0.302
 5271TIP3   OH215818   2.923   3.908   4.363
 5271TIP3    H115819   2.933   3.912   4.458
 5271TIP3    H215820   2.869   3.985   4.341
 5272TIP3   OH215821   3.812   3.216   1.943
 5272TIP3    H115822   3.800   3.180   2.032
 5272TIP3    H215823   3.883   3.164   1.906
 5273TIP3   OH215824   1.650   3.913   1.647
 5273TIP3    H115825   1.661   3.983   1.583
 5273TIP3    H215826   1.664   3.954   1.732
 5274TIP3   OH215827   2.497   0.481   4.503
 5274TIP3    H115828   2.463   0.420   4.439
 5274TIP3    H215829   2.443   0.468   4.581
 5275TIP3   OH215830   1.778   0.083   3.325
 5275TIP3    H115831   1.702   0.139   3.343
 5275TIP3    H215832   1.743   0.012   3.271
 5276TIP3   OH215833   1.568   5.415   0.640
 5276TIP3    H115834   1.611   5.384   0.561
 5276TIP3    H215835   1.573   5.341   0.701
 5277TIP3   OH215836   4.264   5.200   1.526
 5277TIP3    H115837   4.201   5.149   1.476
 5277TIP3    H215838   4.318   5.134   1.571
 5278TIP3   OH215839   5.664   0.696   2.043
 5278TIP3    H115840   5.648   0.628   2.108
 5278TIP3    H215841   5.586   0.696   1.988
 5279TIP3   OH215842   0.505   0.150   2.155
 5279TIP3    H115843   0.576   0.209   2.131
 5279TIP3    H215844   0.426   0.204   2.146
 5280TIP3   OH215845   5.048   1.712   4.834
 5280TIP3    H115846   4.984   1.772   4.874
 5280TIP3    H215847   5.015   1.696   4.746
 5281TIP3   OH215848   4.704   3.586   1.497
 5281TIP3    H115849   4.655   3.544   1.426
 5281TIP3    H215850   4.649   3.575   1.575
 5282TIP3   OH215851   2.262   3.382   3.368
 5282TIP3    H115852   2.349   3.423   3.373
 5282TIP3    H215853   2.263   3.314   3.435
 5283TIP3   OH215854   4.382   5.037   1.005
 5283TIP3    H115855   4.307   4.998   1.049
 5283TIP3    H215856   4.353   5.053   0.916
 5284TIP3   OH215857   5.311   3.028   4.829
 5284TIP3    H115858   5.221   3.054   4.809
 5284TIP3    H215859   5.357   3.111   4.842
 5285TIP3   OH215860   4.390   5.563   0.865
 5285TIP3    H115861   4.397   5.481   0.913
 5285TIP3    H215862   4.479   5.580   0.832
 5286TIP3   OH215863   2.936   4.255   1.297
 5286TIP3    H115864   3.001   4.187   1.310
 5286TIP3    H215865   2.944   4.280   1.205
 5287TIP3   OH215866   5.709   4.592   0.113
 5287TIP3    H115867   5.647   4.617   0.045
 5287TIP3    H215868   5.753   4.515   0.079
 5288TIP3   OH215869   4.085   3.054   3.306
 5288TIP3    H115870   4.024   3.118   3.342
 5288TIP3    H215871   4.169   3.101   3.302
 5289TIP3   OH215872   0.891   1.116   0.041
 5289TIP3    H115873   0.937   1.137   0.123
 5289TIP3    H215874   0.919   1.027   0.020
 5290TIP3   OH215875   1.956   3.939   4.041
 5290TIP3    H115876   1.916   3.879   3.977
 5290TIP3    H215877   1.911   4.022   4.026
 5291TIP3   OH215878   4.401   3.097   2.779
 5291TIP3    H115879   4.333   3.159   2.804
 5291TIP3    H215880   4.372   3.014   2.817
 5292TIP3   OH215881   2.486   0.818   1.454
 5292TIP3    H115882   2.395   0.818   1.485
 5292TIP3    H215883   2.497   0.902   1.411
 5293TIP3   OH215884   3.136   1.896   2.140
 5293TIP3    H115885   3.055   1.852   2.116
 5293TIP3    H215886   3.114   1.946   2.218
 5294TIP3   OH215887   2.641   2.677   1.455
 5294TIP3    H115888   2.572   2.739   1.431
 5294TIP3    H215889   2.675   2.645   1.371
 5295TIP3   OH215890   1.490   4.461   3.603
 5295TIP3    H115891   1.546   4.428   3.533
 5295TIP3    H215892   1.549   4.513   3.658
 5296TIP3   OH215893   0.105   2.147   1.538
 5296TIP3    H115894   0.140   2.075   1.591
 5296TIP3    H215895   0.085   2.106   1.454
 5297TIP3   OH215896   1.713   0.761   0.003
 5297TIP3    H115897   1.808   0.761  -0.009
 5297TIP3    H215898   1.701   0.773   0.098
 5298TIP3   OH215899   2.478   5.755   3.400
 5298TIP3    H115900   2.481   5.683   3.337
 5298TIP3    H215901   2.414   5.727   3.465
 5299TIP3   OH215902   5.501   5.673   2.877
 5299TIP3    H115903   5.592   5.660   2.850
 5299TIP3    H215904   5.476   5.755   2.834
 5300TIP3   OH215905   3.262   0.106   1.051
 5300TIP3    H115906   3.259   0.012   1.069
 5300TIP3    H215907   3.218   0.116   0.966
 5301TIP3   OH215908   0.811   3.229   1.155
 5301TIP3    H115909   0.779   3.139   1.148
 5301TIP3    H215910   0.807   3.263   1.066
 5302TIP3   OH215911   5.172   5.848   0.706
 5302TIP3    H115912   5.114   5.877   0.776
 5302TIP3    H215913   5.125   5.773   0.667
 5303TIP3   OH215914   3.748   4.163   4.194
 5303TIP3    H115915   3.724   4.253   4.217
 5303TIP3    H215916   3.669   4.112   4.210
 5304TIP3   OH215917   5.389   1.631   3.794
 5304TIP3    H115918   5.301   1.613   3.760
 5304TIP3    H215919   5.376   1.702   3.857
 5305TIP3   OH215920   5.085   4.794   1.616
 5305TIP3    H115921   5.029   4.736   1.565
 5305TIP3    H215922   5.025   4.840   1.675
 5306TIP3   OH215923   3.057   2.941   3.638
 5306TIP3    H115924   3.080   2.867   3.582
 5306TIP3    H215925   3.125   2.944   3.705
 5307TIP3   OH215926   0.983   1.150   0.628
 5307TIP3    H115927   0.998   1.069   0.677
 5307TIP3    H215928   0.906   1.132   0.574
 5308TIP3   OH215929   5.797   1.232   4.158
 5308TIP3    H115930   5.738   1.305   4.141
 5308TIP3    H215931   5.825   1.203   4.072
 5309TIP3   OH215932   4.770   4.692   1.697
 5309TIP3    H115933   4.689   4.741   1.689
 5309TIP3    H215934   4.807   4.719   1.781
 5310TIP3   OH215935   6.001   3.407   4.011
 5310TIP3    H115936   5.906   3.413   4.013
 5310TIP3    H215937   6.031   3.498   4.007
 5311TIP3   OH215938   2.773   1.450   1.021
 5311TIP3    H115939   2.696   1.451   1.077
 5311TIP3    H215940   2.765   1.529   0.967
 5312TIP3   OH215941   4.094   1.108   2.790
 5312TIP3    H115942   4.043   1.095   2.710
 5312TIP3    H215943   4.101   1.203   2.799
 5313TIP3   OH215944   0.681   2.958   1.170
 5313TIP3    H115945   0.611   2.894   1.160
 5313TIP3    H215946   0.756   2.908   1.202
 5314TIP3   OH215947   3.863   5.715   1.676
 5314TIP3    H115948   3.875   5.793   1.622
 5314TIP3    H215949   3.905   5.736   1.759
 5315TIP3   OH215950   5.617   0.737   3.109
 5315TIP3    H115951   5.596   0.706   3.197
 5315TIP3    H215952   5.713   0.733   3.104
 5316TIP3   OH215953   0.935   3.814   2.455
 5316TIP3    H115954   0.927   3.728   2.413
 5316TIP3    H215955   0.951   3.795   2.547
 5317TIP3   OH215956   3.883   5.232   0.068
 5317TIP3    H115957   3.788   5.239   0.056
 5317TIP3    H215958   3.894   5.187   0.152
 5318TIP3   OH215959   2.619   1.166   3.029
 5318TIP3    H115960   2.554   1.210   3.084
 5318TIP3    H215961   2.676   1.120   3.091
 5319TIP3   OH215962   3.664   3.647   2.767
 5319TIP3    H115963   3.698   3.567   2.729
 5319TIP3    H215964   3.590   3.672   2.711
 5320TIP3   OH215965   3.774   4.969   3.651
 5320TIP3    H115966   3.679   4.977   3.659
 5320TIP3    H215967   3.807   4.991   3.738
 5321TIP3   OH215968   1.920   4.340   1.955
 5321TIP3    H115969   1.996   4.304   2.002
 5321TIP3    H215970   1.923   4.297   1.870
 5322TIP3   OH215971   1.011   2.880   4.730
 5322TIP3    H115972   0.941   2.938   4.760
 5322TIP3    H215973   1.091   2.930   4.743
 5323TIP3   OH215974   4.221   1.037   3.890
 5323TIP3    H115975   4.159   0.965   3.879
 5323TIP3    H215976   4.215   1.061   3.982
 5324TIP3   OH215977   0.202   4.739   2.821
 5324TIP3    H115978   0.295   4.717   2.820
 5324TIP3    H215979   0.181   4.752   2.913
 5325TIP3   OH215980   3.626   2.451   1.065
 5325TIP3    H115981   3.578   2.522   1.022
 5325TIP3    H215982   3.705   2.440   1.012
 5326TIP3   OH215983   3.189   1.502   2.109
 5326TIP3    H115984   3.120   1.525   2.171
 5326TIP3    H215985   3.246   1.579   2.106
 5327TIP3   OH215986   2.947   1.100   0.454
 5327TIP3    H115987   2.856   1.093   0.426
 5327TIP3    H215988   2.944   1.152   0.534
 5328TIP3   OH215989   2.961   1.819   0.708
 5328TIP3    H115990   3.050   1.824   0.673
 5328TIP3    H215991   2.914   1.891   0.666
 5329TIP3   OH215992   2.616   3.560   3.183
 5329TIP3    H115993   2.615   3.536   3.275
 5329TIP3    H215994   2.681   3.630   3.178
 5330TIP3   OH215995   4.729   2.446   3.365
 5330TIP3    H115996   4.723   2.374   3.302
 5330TIP3    H215997   4.692   2.521   3.319
 5331TIP3   OH215998   1.788   2.426   0.678
 5331TIP3    H115999   1.816   2.450   0.766
 5331TIP3    H216000   1.692   2.428   0.682
 5332TIP3   OH216001   0.153   2.751   2.456
 5332TIP3    H116002   0.226   2.812   2.456
 5332TIP3    H216003   0.192   2.666   2.438
 5333TIP3   OH216004   3.059   0.751   3.969
 5333TIP3    H116005   3.034   0.842   3.954
 5333TIP3    H216006   3.130   0.735   3.908
 5334TIP3   OH216007   5.915   1.847   2.739
 5334TIP3    H116008   5.989   1.801   2.777
 5334TIP3    H216009   5.850   1.779   2.722
 5335TIP3   OH216010   2.944   5.251   1.106
 5335TIP3    H116011   2.940   5.344   1.084
 5335TIP3    H216012   3.006   5.214   1.044
 5336TIP3   OH216013   3.144   5.839   1.658
 5336TIP3    H116014   3.221   5.888   1.685
 5336TIP3    H216015   3.175   5.780   1.589
 5337TIP3   OH216016   2.948   2.535   1.040
 5337TIP3    H116017   2.924   2.465   0.979
 5337TIP3    H216018   3.010   2.589   0.992
 5338TIP3   OH216019   3.992   2.155   3.916
 5338TIP3    H116020   4.053   2.116   3.979
 5338TIP3    H216021   4.048   2.200   3.852
 5339TIP3   OH216022   5.314   4.689   2.305
 5339TIP3    H116023   5.381   4.710   2.370
 5339TIP3    H216024   5.250   4.760   2.312
 5340TIP3   OH216025   4.980   5.957   3.468
 5340TIP3    H116026   4.956   5.873   3.508
 5340TIP3    H216027   4.916   6.019   3.502
 5341TIP3   OH216028   5.408   5.565   4.246
 5341TIP3    H116029   5.477   5.518   4.199
 5341TIP3    H216030   5.385   5.638   4.188
 5342TIP3   OH216031   3.327   4.942   4.182
 5342TIP3    H116032   3.281   4.865   4.147
 5342TIP3    H216033   3.378   4.907   4.254
 5343TIP3   OH216034   6.332   0.609   4.152
 5343TIP3    H116035   6.309   0.662   4.229
 5343TIP3    H216036   6.248   0.591   4.110
 5344TIP3   OH216037   3.595   5.369   0.316
 5344TIP3    H116038   3.603   5.436   0.248
 5344TIP3    H216039   3.622   5.413   0.397
 5345TIP3   OH216040   4.400   3.959   4.616
 5345TIP3    H116041   4.448   3.944   4.697
 5345TIP3    H216042   4.428   3.889   4.557
 5346TIP3   OH216043   1.301   5.221   2.190
 5346TIP3    H116044   1.342   5.300   2.226
 5346TIP3    H216045   1.324   5.151   2.251
 5347TIP3   OH216046   0.134   4.244   5.166
 5347TIP3    H116047   0.102   4.259   5.255
 5347TIP3    H216048   0.058   4.261   5.110
 5348TIP3   OH216049   0.821   1.439   4.996
 5348TIP3    H116050   0.734   1.399   5.007
 5348TIP3    H216051   0.872   1.406   5.070
 5349TIP3   OH216052   1.019   3.199   4.001
 5349TIP3    H116053   1.094   3.258   4.006
 5349TIP3    H216054   1.011   3.163   4.090
 5350TIP3   OH216055   4.302   5.948   2.055
 5350TIP3    H116056   4.344   5.862   2.046
 5350TIP3    H216057   4.222   5.941   2.003
 5351TIP3   OH216058   0.268   0.363   0.082
 5351TIP3    H116059   0.187   0.344   0.129
 5351TIP3    H216060   0.333   0.307   0.122
 5352TIP3   OH216061   3.120   4.291   3.529
 5352TIP3    H116062   3.138   4.243   3.449
 5352TIP3    H216063   3.202   4.334   3.552
 5353TIP3   OH216064   5.665   5.362   3.586
 5353TIP3    H116065   5.626   5.449   3.587
 5353TIP3    H216066   5.737   5.367   3.650
 5354TIP3   OH216067   4.584   2.123   2.025
 5354TIP3    H116068   4.588   2.184   2.099
 5354TIP3    H216069   4.604   2.176   1.948
 5355TIP3   OH216070   3.866   0.666   4.550
 5355TIP3    H116071   3.831   0.585   4.586
 5355TIP3    H216072   3.935   0.692   4.611
 5356TIP3   OH216073   2.605   2.592   4.149
 5356TIP3    H116074   2.663   2.582   4.225
 5356TIP3    H216075   2.625   2.518   4.093
 5357TIP3   OH216076   1.562   5.778   3.753
 5357TIP3    H116077   1.503   5.772   3.677
 5357TIP3    H216078   1.508   5.752   3.827
 5358TIP3   OH216079   2.226   1.893   2.761
 5358TIP3    H116080   2.283   1.820   2.786
 5358TIP3    H216081   2.217   1.886   2.666
 5359TIP3   OH216082   3.802   3.200   2.364
 5359TIP3    H116083   3.798   3.269   2.298
 5359TIP3    H216084   3.872   3.142   2.334
 5360TIP3   OH216085   5.613   4.400   5.120
 5360TIP3    H116086   5.581   4.320   5.162
 5360TIP3    H216087   5.694   4.421   5.166
 5361TIP3   OH216088   4.382   5.334   1.029
 5361TIP3    H116089   4.445   5.271   0.995
 5361TIP3    H216090   4.316   5.280   1.072
 5362TIP3   OH216091   4.550   1.688   0.599
 5362TIP3    H116092   4.609   1.744   0.650
 5362TIP3    H216093   4.597   1.604   0.593
 5363TIP3   OH216094   2.564   4.938   1.341
 5363TIP3    H116095   2.623   4.869   1.372
 5363TIP3    H216096   2.477   4.899   1.344
 5364TIP3   OH216097   5.746   4.637   3.724
 5364TIP3    H116098   5.740   4.620   3.630
 5364TIP3    H216099   5.840   4.647   3.741
 5365TIP3   OH216100   4.430   0.186   2.326
 5365TIP3    H116101   4.345   0.176   2.367
 5365TIP3    H216102   4.464   0.269   2.361
 5366TIP3   OH216103   4.151   0.072   3.714
 5366TIP3    H116104   4.216   0.032   3.657
 5366TIP3    H216105   4.069   0.028   3.690
 5367TIP3   OH216106   6.309   5.942   2.843
 5367TIP3    H116107   6.317   6.004   2.771
 5367TIP3    H216108   6.334   5.858   2.805
 5368TIP3   OH216109   4.535   5.330   1.549
 5368TIP3    H116110   4.558   5.339   1.642
 5368TIP3    H216111   4.454   5.278   1.550
 5369TIP3   OH216112   1.056   5.229   3.566
 5369TIP3    H116113   1.038   5.160   3.502
 5369TIP3    H216114   1.101   5.184   3.637
 5370TIP3   OH216115   2.890   2.763   4.095
 5370TIP3    H116116   2.819   2.802   4.146
 5370TIP3    H216117   2.845   2.706   4.033
 5371TIP3   OH216118   1.254   0.712   3.534
 5371TIP3    H116119   1.344   0.743   3.541
 5371TIP3    H216120   1.204   0.769   3.592
 5372TIP3   OH216121   6.273   1.882   4.405
 5372TIP3    H116122   6.314   1.850   4.325
 5372TIP3    H216123   6.292   1.976   4.406
 5373TIP3   OH216124   2.687   5.119   0.403
 5373TIP3    H116125   2.648   5.192   0.450
 5373TIP3    H216126   2.718   5.157   0.321
 5374TIP3   OH216127   4.507   0.513   4.269
 5374TIP3    H116128   4.563   0.479   4.199
 5374TIP3    H216129   4.531   0.462   4.346
 5375TIP3   OH216130   3.717   3.407   0.429
 5375TIP3    H116131   3.722   3.346   0.356
 5375TIP3    H216132   3.626   3.401   0.459
 5376TIP3   OH216133   3.665   4.816   4.020
 5376TIP3    H116134   3.749   4.791   4.059
 5376TIP3    H216135   3.618   4.733   4.010
 5377TIP3   OH216136   6.093   4.401   2.466
 5377TIP3    H116137   6.035   4.386   2.540
 5377TIP3    H216138   6.040   4.381   2.389
 5378TIP3   OH216139   6.011   3.212   1.249
 5378TIP3    H116140   5.975   3.149   1.187
 5378TIP3    H216141   5.946   3.217   1.319
 5379TIP3   OH216142   5.550   3.740   1.965
 5379TIP3    H116143   5.550   3.788   2.048
 5379TIP3    H216144   5.582   3.653   1.988
 5380TIP3   OH216145   3.273   2.865   4.667
 5380TIP3    H116146   3.256   2.853   4.761
 5380TIP3    H216147   3.345   2.927   4.663
 5381TIP3   OH216148   4.929   3.227   2.432
 5381TIP3    H116149   4.872   3.167   2.383
 5381TIP3    H216150   4.978   3.171   2.492
 5382TIP3   OH216151   2.726   0.277   1.085
 5382TIP3    H116152   2.686   0.330   1.154
 5382TIP3    H216153   2.653   0.240   1.036
 5383TIP3   OH216154   1.068   1.395   4.640
 5383TIP3    H116155   1.003   1.420   4.705
 5383TIP3    H216156   1.066   1.299   4.640
 5384TIP3   OH216157   3.674   5.217   2.384
 5384TIP3    H116158   3.728   5.143   2.410
 5384TIP3    H216159   3.615   5.181   2.318
 5385TIP3   OH216160   3.202   5.065   1.993
 5385TIP3    H116161   3.283   5.016   1.977
 5385TIP3    H216162   3.213   5.101   2.081
 5386TIP3   OH216163   5.002   0.290   4.635
 5386TIP3    H116164   4.932   0.254   4.579
 5386TIP3    H216165   4.958   0.309   4.718
 5387TIP3   OH216166   5.853   0.974   2.303
 5387TIP3    H116167   5.831   1.044   2.242
 5387TIP3    H216168   5.948   0.981   2.314
 5388TIP3   OH216169   1.983   4.793   1.333
 5388TIP3    H116170   1.947   4.868   1.287
 5388TIP3    H216171   1.978   4.817   1.425
 5389TIP3   OH216172   0.035   3.358   1.729
 5389TIP3    H116173   0.071   3.307   1.801
 5389TIP3    H216174   0.041   3.299   1.653
 5390TIP3   OH216175   5.984   5.569   0.236
 5390TIP3    H116176   6.051   5.556   0.169
 5390TIP3    H216177   5.923   5.496   0.223
 5391TIP3   OH216178   4.450   5.935   1.409
 5391TIP3    H116179   4.373   5.882   1.429
 5391TIP3    H216180   4.514   5.871   1.378
 5392TIP3   OH216181   2.857   2.252   2.610
 5392TIP3    H116182   2.840   2.322   2.672
 5392TIP3    H216183   2.928   2.201   2.649
 5393TIP3   OH216184   1.000   3.474   2.833
 5393TIP3    H116185   0.996   3.487   2.928
 5393TIP3    H216186   1.073   3.414   2.820
 5394TIP3   OH216187   2.712   1.703   4.503
 5394TIP3    H116188   2.773   1.756   4.451
 5394TIP3    H216189   2.659   1.767   4.551
 5395TIP3   OH216190   4.144   1.351   5.164
 5395TIP3    H116191   4.165   1.359   5.071
 5395TIP3    H216192   4.062   1.301   5.166
 5396TIP3   OH216193   1.530   0.244   3.347
 5396TIP3    H116194   1.474   0.219   3.273
 5396TIP3    H216195   1.524   0.340   3.350
 5397TIP3   OH216196   4.077   1.675   1.781
 5397TIP3    H116197   4.106   1.714   1.863
 5397TIP3    H216198   4.006   1.617   1.806
 5398TIP3   OH216199   2.617   4.589   3.301
 5398TIP3    H116200   2.595   4.497   3.289
 5398TIP3    H216201   2.567   4.635   3.232
 5399TIP3   OH216202   1.672   1.823   3.854
 5399TIP3    H116203   1.631   1.846   3.937
 5399TIP3    H216204   1.766   1.830   3.871
 5400TIP3   OH216205   2.080   4.002   1.578
 5400TIP3    H116206   1.998   3.971   1.540
 5400TIP3    H216207   2.118   4.058   1.511
 5401TIP3   OH216208   4.668   3.337   4.033
 5401TIP3    H116209   4.642   3.279   4.104
 5401TIP3    H216210   4.761   3.319   4.020
 5402TIP3   OH216211   4.260   5.057   4.771
 5402TIP3    H116212   4.230   5.034   4.859
 5402TIP3    H216213   4.342   5.105   4.786
 5403TIP3   OH216214   2.553   2.396   3.396
 5403TIP3    H116215   2.537   2.305   3.422
 5403TIP3    H216216   2.533   2.398   3.302
 5404TIP3   OH216217   5.189   0.970   2.213
 5404TIP3    H116218   5.278   0.938   2.228
 5404TIP3    H216219   5.138   0.931   2.284
 5405TIP3   OH216220   0.345   3.422   0.323
 5405TIP3    H116221   0.424   3.372   0.343
 5405TIP3    H216222   0.346   3.495   0.386
 5406TIP3   OH216223   0.841   0.177   1.595
 5406TIP3    H116224   0.753   0.203   1.568
 5406TIP3    H216225   0.831   0.086   1.623
 5407TIP3   OH216226   3.110   3.514   4.182
 5407TIP3    H116227   3.116   3.609   4.192
 5407TIP3    H216228   3.174   3.480   4.244
 5408TIP3   OH216229   1.963   0.317   4.806
 5408TIP3    H116230   1.894   0.256   4.832
 5408TIP3    H216231   2.038   0.260   4.786
 5409TIP3   OH216232   3.890   2.266   2.302
 5409TIP3    H116233   3.834   2.338   2.330
 5409TIP3    H216234   3.836   2.188   2.313
 5410TIP3   OH216235   1.848   4.068   2.273
 5410TIP3    H116236   1.853   4.118   2.191
 5410TIP3    H216237   1.939   4.042   2.290
 5411TIP3   OH216238   1.838   5.065   0.488
 5411TIP3    H116239   1.793   5.147   0.468
 5411TIP3    H216240   1.816   5.047   0.579
 5412TIP3   OH216241   3.413   5.802   3.297
 5412TIP3    H116242   3.456   5.734   3.349
 5412TIP3    H216243   3.478   5.829   3.233
 5413TIP3   OH216244   4.919   5.600   0.695
 5413TIP3    H116245   4.995   5.602   0.753
 5413TIP3    H216246   4.955   5.601   0.607
 5414TIP3   OH216247   3.988   0.901   5.084
 5414TIP3    H116248   4.043   0.824   5.068
 5414TIP3    H216249   4.006   0.925   5.175
 5415TIP3   OH216250   1.918   3.980   2.982
 5415TIP3    H116251   1.996   3.925   2.974
 5415TIP3    H216252   1.855   3.926   3.029
 5416TIP3   OH216253   1.327   0.593   2.021
 5416TIP3    H116254   1.277   0.600   1.940
 5416TIP3    H216255   1.342   0.684   2.048
 5417TIP3   OH216256   0.834   2.492   3.648
 5417TIP3    H116257   0.743   2.499   3.620
 5417TIP3    H216258   0.883   2.548   3.588
 5418TIP3   OH216259   4.921   3.362   0.830
 5418TIP3    H116260   4.851   3.426   0.840
 5418TIP3    H216261   4.971   3.393   0.755
 5419TIP3   OH216262   3.744   1.490   3.872
 5419TIP3    H116263   3.803   1.415   3.876
 5419TIP3    H216264   3.770   1.546   3.945
 5420TIP3   OH216265   4.314   2.703   4.992
 5420TIP3    H116266   4.288   2.611   4.987
 5420TIP3    H216267   4.409   2.701   5.007
 5421TIP3   OH216268   2.658   0.116   5.135
 5421TIP3    H116269   2.625   0.060   5.205
 5421TIP3    H216270   2.661   0.204   5.174
 5422TIP3   OH216271   5.603   5.360   4.211
 5422TIP3    H116272   5.589   5.266   4.201
 5422TIP3    H216273   5.680   5.379   4.158
 5423TIP3   OH216274   2.010   5.718   1.330
 5423TIP3    H116275   1.949   5.656   1.290
 5423TIP3    H216276   2.095   5.696   1.292
 5424TIP3   OH216277   5.005   5.171   4.663
 5424TIP3    H116278   5.058   5.219   4.727
 5424TIP3    H216279   5.043   5.083   4.662
 5425TIP3   OH216280   1.468   5.854   4.985
 5425TIP3    H116281   1.388   5.873   5.033
 5425TIP3    H216282   1.533   5.915   5.021
 5426TIP3   OH216283   4.732   2.400   1.975
 5426TIP3    H116284   4.779   2.455   1.913
 5426TIP3    H216285   4.683   2.338   1.921
 5427TIP3   OH216286   2.170   2.468   4.575
 5427TIP3    H116287   2.117   2.470   4.496
 5427TIP3    H216288   2.108   2.451   4.646
 5428TIP3   OH216289   5.749   0.138   2.761
 5428TIP3    H116290   5.702   0.098   2.688
 5428TIP3    H216291   5.697   0.116   2.839
 5429TIP3   OH216292   0.138   3.396   2.422
 5429TIP3    H116293   0.167   3.434   2.505
 5429TIP3    H216294   0.126   3.303   2.442
 5430TIP3   OH216295   0.287   1.449   2.157
 5430TIP3    H116296   0.337   1.380   2.202
 5430TIP3    H216297   0.246   1.405   2.083
 5431TIP3   OH216298   2.932   2.174   1.438
 5431TIP3    H116299   2.841   2.170   1.408
 5431TIP3    H216300   2.968   2.251   1.393
 5432TIP3   OH216301   6.145   3.082   3.237
 5432TIP3    H116302   6.213   3.019   3.213
 5432TIP3    H216303   6.140   3.079   3.332
 5433TIP3   OH216304   2.623   5.214   2.905
 5433TIP3    H116305   2.640   5.128   2.868
 5433TIP3    H216306   2.559   5.199   2.974
 5434TIP3   OH216307   5.951   3.450   1.419
 5434TIP3    H116308   6.004   3.384   1.465
 5434TIP3    H216309   5.862   3.416   1.423
 5435TIP3   OH216310   5.046   5.117   4.306
 5435TIP3    H116311   5.093   5.135   4.224
 5435TIP3    H216312   5.073   5.187   4.365
 5436TIP3   OH216313   0.007   0.942   1.942
 5436TIP3    H116314   0.069   0.924   1.872
 5436TIP3    H216315  -0.008   0.857   1.983
 5437TIP3   OH216316   2.266   5.164   2.362
 5437TIP3    H116317   2.220   5.248   2.356
 5437TIP3    H216318   2.199   5.101   2.389
 5438TIP3   OH216319   0.127   5.321   5.027
 5438TIP3    H116320   0.054   5.283   5.075
 5438TIP3    H216321   0.123   5.282   4.940
 5439TIP3   OH216322   3.337   3.465   1.130
 5439TIP3    H116323   3.296   3.496   1.211
 5439TIP3    H216324   3.264   3.431   1.078
 5440TIP3   OH216325   4.040   5.271   4.813
 5440TIP3    H116326   4.126   5.295   4.848
 5440TIP3    H216327   4.056   5.189   4.766
 5441TIP3   OH216328   3.048   2.037   1.827
 5441TIP3    H116329   2.984   1.966   1.825
 5441TIP3    H216330   3.110   2.015   1.757
 5442TIP3   OH216331   4.873   0.988   3.678
 5442TIP3    H116332   4.848   1.042   3.753
 5442TIP3    H216333   4.899   1.050   3.610
 5443TIP3   OH216334   3.281   3.753   3.547
 5443TIP3    H116335   3.212   3.820   3.550
 5443TIP3    H216336   3.307   3.750   3.455
 5444TIP3   OH216337   1.857   1.159   0.325
 5444TIP3    H116338   1.807   1.125   0.251
 5444TIP3    H216339   1.810   1.125   0.402
 5445TIP3   OH216340   0.648   3.336   3.492
 5445TIP3    H116341   0.714   3.321   3.425
 5445TIP3    H216342   0.694   3.386   3.560
 5446TIP3   OH216343   3.313   3.107   0.840
 5446TIP3    H116344   3.310   3.170   0.768
 5446TIP3    H216345   3.406   3.098   0.860
 5447TIP3   OH216346   0.577   5.149   2.943
 5447TIP3    H116347   0.502   5.124   2.888
 5447TIP3    H216348   0.620   5.066   2.964
 5448TIP3   OH216349   2.592   2.144   5.002
 5448TIP3    H116350   2.550   2.152   4.917
 5448TIP3    H216351   2.686   2.153   4.984
 5449TIP3   OH216352   5.156   0.593   1.390
 5449TIP3    H116353   5.194   0.678   1.366
 5449TIP3    H216354   5.203   0.530   1.335
 5450TIP3   OH216355   6.282   4.751   2.085
 5450TIP3    H116356   6.317   4.738   2.173
 5450TIP3    H216357   6.339   4.816   2.045
 5451TIP3   OH216358   0.737   3.493   3.708
 5451TIP3    H116359   0.754   3.585   3.726
 5451TIP3    H216360   0.715   3.456   3.794
 5452TIP3   OH216361   4.299   3.207   3.372
 5452TIP3    H116362   4.363   3.144   3.405
 5452TIP3    H216363   4.315   3.287   3.422
 5453TIP3   OH216364   4.469   1.449   1.237
 5453TIP3    H116365   4.536   1.381   1.231
 5453TIP3    H216366   4.499   1.506   1.308
 5454TIP3   OH216367   3.577   1.614   1.702
 5454TIP3    H116368   3.517   1.540   1.706
 5454TIP3    H216369   3.520   1.690   1.692
 5455TIP3   OH216370   4.681   0.497   1.115
 5455TIP3    H116371   4.595   0.540   1.117
 5455TIP3    H216372   4.667   0.414   1.161
 5456TIP3   OH216373   1.817   1.802   3.205
 5456TIP3    H116374   1.738   1.818   3.153
 5456TIP3    H216375   1.806   1.856   3.283
 5457TIP3   OH216376   4.069   2.969   0.997
 5457TIP3    H116377   4.159   2.963   1.031
 5457TIP3    H216378   4.014   2.942   1.070
 5458TIP3   OH216379   0.895   2.065   0.986
 5458TIP3    H116380   0.980   2.108   0.976
 5458TIP3    H216381   0.845   2.124   1.041
 5459TIP3   OH216382   2.732   5.083   2.022
 5459TIP3    H116383   2.804   5.024   2.002
 5459TIP3    H216384   2.748   5.161   1.968
 5460TIP3   OH216385   3.973   0.446   3.926
 5460TIP3    H116386   4.017   0.477   3.847
 5460TIP3    H216387   4.013   0.361   3.945
 5461TIP3   OH216388   0.480   2.982   0.911
 5461TIP3    H116389   0.485   2.917   0.981
 5461TIP3    H216390   0.571   2.993   0.883
 5462TIP3   OH216391   4.350   0.891   0.330
 5462TIP3    H116392   4.370   0.870   0.421
 5462TIP3    H216393   4.428   0.935   0.297
 5463TIP3   OH216394   4.092   1.120   3.561
 5463TIP3    H116395   4.041   1.165   3.493
 5463TIP3    H216396   4.026   1.093   3.625
 5464TIP3   OH216397   2.295   0.547   0.346
 5464TIP3    H116398   2.264   0.515   0.431
 5464TIP3    H216399   2.218   0.544   0.290
 5465TIP3   OH216400   4.231   3.876   3.685
 5465TIP3    H116401   4.189   3.867   3.770
 5465TIP3    H216402   4.158   3.885   3.623
 5466TIP3   OH216403   3.026   5.027   0.461
 5466TIP3    H116404   2.993   5.078   0.534
 5466TIP3    H216405   2.949   4.978   0.429
 5467TIP3   OH216406   1.817   1.294   2.659
 5467TIP3    H116407   1.723   1.276   2.662
 5467TIP3    H216408   1.830   1.363   2.724
 5468TIP3   OH216409   4.114   1.966   0.320
 5468TIP3    H116410   4.169   2.034   0.281
 5468TIP3    H216411   4.043   2.014   0.362
 5469TIP3   OH216412   4.366   4.098   0.103
 5469TIP3    H116413   4.348   4.006   0.123
 5469TIP3    H216414   4.390   4.099   0.011
 5470TIP3   OH216415   4.869   4.290   0.065
 5470TIP3    H116416   4.907   4.301   0.153
 5470TIP3    H216417   4.775   4.280   0.080
 5471TIP3   OH216418   0.984   4.628   5.003
 5471TIP3    H116419   1.006   4.549   5.052
 5471TIP3    H216420   1.059   4.642   4.945
 5472TIP3   OH216421   4.745   5.511   2.673
 5472TIP3    H116422   4.760   5.418   2.690
 5472TIP3    H216423   4.794   5.557   2.741
 5473TIP3   OH216424   1.237   2.214   3.827
 5473TIP3    H116425   1.267   2.139   3.879
 5473TIP3    H216426   1.252   2.187   3.736
 5474TIP3   OH216427   4.966   1.633   3.958
 5474TIP3    H116428   5.039   1.588   4.002
 5474TIP3    H216429   4.998   1.723   3.945
 5475TIP3   OH216430   1.131   2.429   4.253
 5475TIP3    H116431   1.182   2.444   4.173
 5475TIP3    H216432   1.174   2.356   4.297
 5476TIP3   OH216433   5.301   2.437   2.390
 5476TIP3    H116434   5.308   2.353   2.435
 5476TIP3    H216435   5.344   2.499   2.449
 5477TIP3   OH216436   2.397   1.080   5.017
 5477TIP3    H116437   2.491   1.095   5.024
 5477TIP3    H216438   2.389   0.990   4.985
 5478TIP3   OH216439   3.367   0.357   1.169
 5478TIP3    H116440   3.339   0.269   1.143
 5478TIP3    H216441   3.287   0.401   1.196
 5479TIP3   OH216442   0.144   3.359   0.934
 5479TIP3    H116443   0.183   3.447   0.933
 5479TIP3    H216444   0.154   3.330   1.025
 5480TIP3   OH216445   5.630   0.121   0.343
 5480TIP3    H116446   5.593   0.186   0.284
 5480TIP3    H216447   5.555   0.086   0.391
 5481TIP3   OH216448   2.411   2.629   4.373
 5481TIP3    H116449   2.453   2.592   4.296
 5481TIP3    H216450   2.447   2.580   4.447
 5482TIP3   OH216451   4.218   1.458   4.001
 5482TIP3    H116452   4.160   1.440   3.928
 5482TIP3    H216453   4.299   1.490   3.961
 5483TIP3   OH216454   2.788   2.547   4.356
 5483TIP3    H116455   2.787   2.629   4.406
 5483TIP3    H216456   2.877   2.540   4.322
 5484TIP3   OH216457   1.388   4.280   2.064
 5484TIP3    H116458   1.323   4.249   2.128
 5484TIP3    H216459   1.458   4.317   2.117
 5485TIP3   OH216460   5.598   2.465   3.557
 5485TIP3    H116461   5.585   2.557   3.582
 5485TIP3    H216462   5.592   2.417   3.639
 5486TIP3   OH216463   3.722   0.507   0.766
 5486TIP3    H116464   3.812   0.536   0.751
 5486TIP3    H216465   3.670   0.558   0.704
 5487TIP3   OH216466   4.999   4.755   2.275
 5487TIP3    H116467   4.967   4.803   2.199
 5487TIP3    H216468   5.051   4.818   2.324
 5488TIP3   OH216469   0.913   2.534   0.215
 5488TIP3    H116470   0.955   2.451   0.193
 5488TIP3    H216471   0.822   2.510   0.234
 5489TIP3   OH216472   1.971   0.321   4.492
 5489TIP3    H116473   1.955   0.339   4.585
 5489TIP3    H216474   1.972   0.408   4.451
 5490TIP3   OH216475   1.159   0.698   0.070
 5490TIP3    H116476   1.195   0.611   0.051
 5490TIP3    H216477   1.223   0.738   0.129
 5491TIP3   OH216478   2.797   5.219   1.791
 5491TIP3    H116479   2.770   5.305   1.759
 5491TIP3    H216480   2.796   5.163   1.713
 5492TIP3   OH216481   2.311   5.039   3.447
 5492TIP3    H116482   2.290   4.988   3.369
 5492TIP3    H216483   2.258   5.000   3.516
 5493TIP3   OH216484   4.233   3.570   1.305
 5493TIP3    H116485   4.228   3.482   1.342
 5493TIP3    H216486   4.245   3.628   1.381
 5494TIP3   OH216487   6.112   4.551   2.974
 5494TIP3    H116488   6.092   4.619   2.909
 5494TIP3    H216489   6.049   4.565   3.044
 5495TIP3   OH216490   0.724   4.888   3.027
 5495TIP3    H116491   0.751   4.796   3.017
 5495TIP3    H216492   0.659   4.887   3.098
 5496TIP3   OH216493   1.235   0.027   0.968
 5496TIP3    H116494   1.314   0.066   0.930
 5496TIP3    H216495   1.241   0.047   1.061
 5497TIP3   OH216496   6.188   4.909   0.959
 5497TIP3    H116497   6.223   4.955   0.882
 5497TIP3    H216498   6.107   4.869   0.927
 5498TIP3   OH216499   6.209   3.436   2.995
 5498TIP3    H116500   6.141   3.377   3.029
 5498TIP3    H216501   6.192   3.519   3.040
 5499TIP3   OH216502   3.977   3.653   1.731
 5499TIP3    H116503   3.913   3.648   1.660
 5499TIP3    H216504   4.002   3.745   1.735
 5500TIP3   OH216505   3.677   2.858   0.464
 5500TIP3    H116506   3.761   2.815   0.480
 5500TIP3    H216507   3.658   2.905   0.546
 5501TIP3   OH216508   4.681   3.407   2.559
 5501TIP3    H116509   4.718   3.442   2.639
 5501TIP3    H216510   4.753   3.359   2.517
 5502TIP3   OH216511   4.356   1.801   1.021
 5502TIP3    H116512   4.268   1.828   1.046
 5502TIP3    H216513   4.392   1.760   1.099
 5503TIP3   OH216514   2.605   4.524   2.695
 5503TIP3    H116515   2.602   4.618   2.710
 5503TIP3    H216516   2.615   4.486   2.782
 5504TIP3   OH216517   5.430   2.978   4.451
 5504TIP3    H116518   5.381   3.018   4.379
 5504TIP3    H216519   5.395   2.890   4.459
 5505TIP3   OH216520   1.059   3.410   3.681
 5505TIP3    H116521   1.059   3.505   3.684
 5505TIP3    H216522   1.037   3.383   3.770
 5506TIP3   OH216523   2.899   6.021   4.107
 5506TIP3    H116524   2.873   5.972   4.185
 5506TIP3    H216525   2.918   5.954   4.041
 5507TIP3   OH216526   4.902   4.163   3.202
 5507TIP3    H116527   4.862   4.078   3.191
 5507TIP3    H216528   4.892   4.206   3.116
 5508TIP3   OH216529   4.531   2.932   0.396
 5508TIP3    H116530   4.549   2.913   0.488
 5508TIP3    H216531   4.487   2.854   0.363
 5509TIP3   OH216532   4.551   2.421   4.468
 5509TIP3    H116533   4.471   2.432   4.415
 5509TIP3    H216534   4.617   2.473   4.422
 5510TIP3   OH216535   3.973   4.971   0.516
 5510TIP3    H116536   3.915   4.906   0.555
 5510TIP3    H216537   3.966   4.955   0.422
 5511TIP3   OH216538   0.175   0.489   4.013
 5511TIP3    H116539   0.127   0.526   4.087
 5511TIP3    H216540   0.165   0.554   3.943
 5512TIP3   OH216541   1.326   4.546   2.297
 5512TIP3    H116542   1.338   4.453   2.316
 5512TIP3    H216543   1.232   4.561   2.312
 5513TIP3   OH216544   2.363   3.022   3.068
 5513TIP3    H116545   2.335   2.958   3.003
 5513TIP3    H216546   2.282   3.053   3.108
 5514TIP3   OH216547   5.914   5.861   3.588
 5514TIP3    H116548   5.921   5.956   3.599
 5514TIP3    H216549   5.946   5.825   3.671
 5515TIP3   OH216550   1.513   5.203   0.850
 5515TIP3    H116551   1.537   5.197   0.943
 5515TIP3    H216552   1.452   5.131   0.837
 5516TIP3   OH216553   5.225   3.337   4.443
 5516TIP3    H116554   5.255   3.428   4.432
 5516TIP3    H216555   5.285   3.300   4.507
 5517TIP3   OH216556   3.275   0.254   3.403
 5517TIP3    H116557   3.291   0.165   3.433
 5517TIP3    H216558   3.208   0.287   3.462
 5518TIP3   OH216559   0.500   1.887   5.059
 5518TIP3    H116560   0.471   1.797   5.042
 5518TIP3    H216561   0.589   1.890   5.024
 5519TIP3   OH216562   0.006   5.529   0.716
 5519TIP3    H116563  -0.030   5.605   0.761
 5519TIP3    H216564   0.031   5.469   0.786
 5520TIP3   OH216565   0.591   0.249   1.491
 5520TIP3    H116566   0.529   0.213   1.555
 5520TIP3    H216567   0.549   0.329   1.460
 5521TIP3   OH216568   4.461   2.734   2.532
 5521TIP3    H116569   4.428   2.788   2.460
 5521TIP3    H216570   4.556   2.737   2.524
 5522TIP3   OH216571   4.477   1.477   0.403
 5522TIP3    H116572   4.539   1.497   0.473
 5522TIP3    H216573   4.522   1.503   0.323
 5523TIP3   OH216574   3.524   1.926   1.613
 5523TIP3    H116575   3.533   1.964   1.526
 5523TIP3    H216576   3.614   1.912   1.643
 5524TIP3   OH216577   1.773   1.459   3.404
 5524TIP3    H116578   1.737   1.537   3.361
 5524TIP3    H216579   1.862   1.485   3.428
 5525TIP3   OH216580   3.575   0.134   2.196
 5525TIP3    H116581   3.487   0.121   2.162
 5525TIP3    H216582   3.624   0.057   2.166
 5526TIP3   OH216583   0.893   1.177   3.239
 5526TIP3    H116584   0.943   1.095   3.246
 5526TIP3    H216585   0.849   1.185   3.323
 5527TIP3   OH216586   1.013   4.456   2.011
 5527TIP3    H116587   0.954   4.399   2.059
 5527TIP3    H216588   1.009   4.425   1.921
 5528TIP3   OH216589   2.051   3.606   1.454
 5528TIP3    H116590   2.004   3.594   1.371
 5528TIP3    H216591   2.104   3.684   1.440
 5529TIP3   OH216592   5.003   3.685   0.734
 5529TIP3    H116593   5.016   3.680   0.639
 5529TIP3    H216594   5.079   3.639   0.771
 5530TIP3   OH216595   4.832   2.914   0.581
 5530TIP3    H116596   4.738   2.906   0.597
 5530TIP3    H216597   4.868   2.942   0.665
 5531TIP3   OH216598   0.275   5.646   0.139
 5531TIP3    H116599   0.302   5.697   0.063
 5531TIP3    H216600   0.320   5.562   0.128
 5532TIP3   OH216601   6.200   0.224   1.002
 5532TIP3    H116602   6.170   0.137   0.977
 5532TIP3    H216603   6.292   0.213   1.023
 5533TIP3   OH216604   2.220   4.825   0.038
 5533TIP3    H116605   2.205   4.849  -0.053
 5533TIP3    H216606   2.213   4.730   0.039
 5534TIP3   OH216607   5.828   0.245   2.210
 5534TIP3    H116608   5.899   0.276   2.265
 5534TIP3    H216609   5.803   0.160   2.247
 5535TIP3   OH216610   0.745   3.024   1.779
 5535TIP3    H116611   0.665   3.075   1.771
 5535TIP3    H216612   0.719   2.945   1.828
 5536TIP3   OH216613   3.093   3.248   3.198
 5536TIP3    H116614   3.132   3.171   3.240
 5536TIP3    H216615   3.167   3.298   3.164
 5537TIP3   OH216616   4.325   1.457   4.931
 5537TIP3    H116617   4.420   1.462   4.934
 5537TIP3    H216618   4.306   1.397   4.858
 5538TIP3   OH216619   2.253   2.030   3.168
 5538TIP3    H116620   2.181   1.988   3.121
 5538TIP3    H216621   2.330   1.977   3.145
 5539TIP3   OH216622   0.751   1.770   1.182
 5539TIP3    H116623   0.683   1.772   1.249
 5539TIP3    H216624   0.802   1.692   1.201
 5540TIP3   OH216625   0.591   5.529   2.153
 5540TIP3    H116626   0.571   5.441   2.121
 5540TIP3    H216627   0.532   5.586   2.104
 5541TIP3   OH216628   1.465   5.424   4.328
 5541TIP3    H116629   1.502   5.367   4.396
 5541TIP3    H216630   1.379   5.448   4.362
 5542TIP3   OH216631   2.439   1.264   4.437
 5542TIP3    H116632   2.370   1.327   4.454
 5542TIP3    H216633   2.400   1.179   4.456
 5543TIP3   OH216634   2.576   0.424   2.515
 5543TIP3    H116635   2.597   0.505   2.469
 5543TIP3    H216636   2.490   0.399   2.481
 5544TIP3   OH216637   1.354   5.349   3.356
 5544TIP3    H116638   1.394   5.426   3.315
 5544TIP3    H216639   1.280   5.328   3.300
 5545TIP3   OH216640   3.987   4.736   0.685
 5545TIP3    H116641   4.076   4.759   0.711
 5545TIP3    H216642   3.974   4.648   0.719
 5546TIP3   OH216643   4.953   3.809   2.542
 5546TIP3    H116644   4.885   3.792   2.607
 5546TIP3    H216645   4.968   3.903   2.546
 5547TIP3   OH216646   1.219   4.476   0.297
 5547TIP3    H116647   1.302   4.472   0.249
 5547TIP3    H216648   1.152   4.472   0.229
 5548TIP3   OH216649   4.299   5.919   0.762
 5548TIP3    H116650   4.387   5.921   0.801
 5548TIP3    H216651   4.240   5.918   0.837
 5549TIP3   OH216652   1.476   3.911   4.991
 5549TIP3    H116653   1.476   4.005   5.011
 5549TIP3    H216654   1.547   3.900   4.928
 5550TIP3   OH216655   2.988   0.159   2.088
 5550TIP3    H116656   3.011   0.139   1.997
 5550TIP3    H216657   2.907   0.209   2.082
 5551TIP3   OH216658   5.715   2.674   3.741
 5551TIP3    H116659   5.738   2.706   3.654
 5551TIP3    H216660   5.648   2.735   3.772
 5552TIP3   OH216661   4.843   2.433   4.661
 5552TIP3    H116662   4.798   2.506   4.704
 5552TIP3    H216663   4.931   2.466   4.645
 5553TIP3   OH216664   1.835   2.344   1.550
 5553TIP3    H116665   1.861   2.403   1.479
 5553TIP3    H216666   1.802   2.267   1.505
 5554TIP3   OH216667   4.807   4.246   1.573
 5554TIP3    H116668   4.778   4.337   1.565
 5554TIP3    H216669   4.731   4.198   1.606
 5555TIP3   OH216670   0.872   4.710   0.479
 5555TIP3    H116671   0.967   4.701   0.472
 5555TIP3    H216672   0.859   4.750   0.565
 5556TIP3   OH216673   3.598   4.703   1.064
 5556TIP3    H116674   3.611   4.616   1.026
 5556TIP3    H216675   3.606   4.763   0.989
 5557TIP3   OH216676   4.875   5.068   2.450
 5557TIP3    H116677   4.903   5.151   2.411
 5557TIP3    H216678   4.832   5.095   2.532
 5558TIP3   OH216679   2.827   5.362   2.116
 5558TIP3    H116680   2.837   5.440   2.171
 5558TIP3    H216681   2.805   5.396   2.029
 5559TIP3   OH216682   5.884   5.532   4.022
 5559TIP3    H116683   5.939   5.517   3.945
 5559TIP3    H216684   5.837   5.450   4.035
 5560TIP3   OH216685   1.172   2.955   0.161
 5560TIP3    H116686   1.108   2.897   0.120
 5560TIP3    H216687   1.247   2.898   0.180
 5561TIP3   OH216688   4.847   5.863   5.063
 5561TIP3    H116689   4.858   5.887   4.971
 5561TIP3    H216690   4.772   5.914   5.092
 5562TIP3   OH216691   2.842   2.340   0.891
 5562TIP3    H116692   2.834   2.370   0.800
 5562TIP3    H216693   2.859   2.246   0.883
 5563TIP3   OH216694   6.273   5.174   5.128
 5563TIP3    H116695   6.245   5.083   5.135
 5563TIP3    H216696   6.208   5.215   5.070
 5564TIP3   OH216697   2.073   1.113   0.140
 5564TIP3    H116698   2.008   1.114   0.070
 5564TIP3    H216699   2.036   1.170   0.208
 5565TIP3   OH216700   5.870   0.583   3.927
 5565TIP3    H116701   5.870   0.539   3.842
 5565TIP3    H216702   5.777   0.588   3.951
 5566TIP3   OH216703   5.393   2.041   2.882
 5566TIP3    H116704   5.317   1.985   2.868
 5566TIP3    H216705   5.428   2.056   2.795
 5567TIP3   OH216706   4.130   2.546   2.274
 5567TIP3    H116707   4.104   2.545   2.366
 5567TIP3    H216708   4.142   2.454   2.251
 5568TIP3   OH216709   3.682   1.135   2.428
 5568TIP3    H116710   3.623   1.096   2.493
 5568TIP3    H216711   3.624   1.184   2.369
 5569TIP3   OH216712   1.431   5.585   1.043
 5569TIP3    H116713   1.337   5.574   1.030
 5569TIP3    H216714   1.454   5.661   0.989
 5570TIP3   OH216715   2.710   4.854   0.753
 5570TIP3    H116716   2.622   4.883   0.775
 5570TIP3    H216717   2.750   4.832   0.838
 5571TIP3   OH216718   1.098   2.611   4.839
 5571TIP3    H116719   1.037   2.563   4.783
 5571TIP3    H216720   1.075   2.703   4.827
 5572TIP3   OH216721   0.049   2.065   5.019
 5572TIP3    H116722  -0.027   2.094   4.969
 5572TIP3    H216723   0.078   1.986   4.973
 5573TIP3   OH216724   3.816   2.313   2.001
 5573TIP3    H116725   3.897   2.306   1.952
 5573TIP3    H216726   3.843   2.324   2.092
 5574TIP3   OH216727   2.464   2.843   0.260
 5574TIP3    H116728   2.471   2.938   0.250
 5574TIP3    H216729   2.385   2.830   0.311
 5575TIP3   OH216730   1.814   5.930   3.803
 5575TIP3    H116731   1.779   5.974   3.881
 5575TIP3    H216732   1.738   5.886   3.765
 5576TIP3   OH216733   3.778   0.970   4.522
 5576TIP3    H116734   3.753   0.957   4.613
 5576TIP3    H216735   3.804   0.883   4.491
 5577TIP3   OH216736   5.865   4.369   3.911
 5577TIP3    H116737   5.773   4.380   3.932
 5577TIP3    H216738   5.905   4.453   3.931
 5578TIP3   OH216739   3.970   2.860   4.946
 5578TIP3    H116740   4.037   2.916   4.907
 5578TIP3    H216741   3.901   2.920   4.974
 5579TIP3   OH216742   3.269   2.547   3.035
 5579TIP3    H116743   3.284   2.629   2.988
 5579TIP3    H216744   3.324   2.554   3.113
 5580TIP3   OH216745   3.826   1.546   1.599
 5580TIP3    H116746   3.851   1.479   1.662
 5580TIP3    H216747   3.735   1.566   1.620
 5581TIP3   OH216748   4.129   2.564   0.458
 5581TIP3    H116749   4.069   2.500   0.497
 5581TIP3    H216750   4.193   2.581   0.526
 5582TIP3   OH216751   2.287   5.321   4.063
 5582TIP3    H116752   2.316   5.348   4.150
 5582TIP3    H216753   2.204   5.368   4.049
 5583TIP3   OH216754   4.554   4.243   0.409
 5583TIP3    H116755   4.603   4.319   0.441
 5583TIP3    H216756   4.598   4.168   0.448
 5584TIP3   OH216757   2.946   4.978   1.453
 5584TIP3    H116758   2.983   5.060   1.485
 5584TIP3    H216759   2.967   4.914   1.521
 5585TIP3   OH216760   4.178   5.261   1.214
 5585TIP3    H116761   4.139   5.342   1.247
 5585TIP3    H216762   4.167   5.198   1.285
 5586TIP3   OH216763   1.963   2.024   0.454
 5586TIP3    H116764   1.892   2.080   0.423
 5586TIP3    H216765   1.945   1.938   0.416
 5587TIP3   OH216766   4.788   4.041   1.908
 5587TIP3    H116767   4.856   4.019   1.844
 5587TIP3    H216768   4.726   3.968   1.902
 5588TIP3   OH216769   5.613   2.594   1.239
 5588TIP3    H116770   5.522   2.625   1.234
 5588TIP3    H216771   5.604   2.500   1.257
 5589TIP3   OH216772   1.666   1.318   1.089
 5589TIP3    H116773   1.577   1.320   1.124
 5589TIP3    H216774   1.663   1.371   1.010
 5590TIP3   OH216775   0.459   4.878   0.614
 5590TIP3    H116776   0.467   4.929   0.695
 5590TIP3    H216777   0.477   4.788   0.641
 5591TIP3   OH216778   5.270   2.237   1.154
 5591TIP3    H116779   5.269   2.225   1.249
 5591TIP3    H216780   5.226   2.321   1.140
 5592TIP3   OH216781   2.716   5.448   2.571
 5592TIP3    H116782   2.755   5.532   2.548
 5592TIP3    H216783   2.733   5.392   2.495
 5593TIP3   OH216784   1.957   1.673   4.635
 5593TIP3    H116785   1.956   1.600   4.573
 5593TIP3    H216786   1.956   1.751   4.579
 5594TIP3   OH216787   2.122   3.900   2.322
 5594TIP3    H116788   2.075   3.905   2.238
 5594TIP3    H216789   2.214   3.896   2.297
 5595TIP3   OH216790   2.814   3.385   2.572
 5595TIP3    H116791   2.893   3.333   2.584
 5595TIP3    H216792   2.773   3.386   2.659
 5596TIP3   OH216793   4.575   2.279   1.784
 5596TIP3    H116794   4.556   2.205   1.726
 5596TIP3    H216795   4.546   2.356   1.735
 5597TIP3   OH216796   0.549   0.890   2.365
 5597TIP3    H116797   0.604   0.846   2.300
 5597TIP3    H216798   0.461   0.885   2.329
 5598TIP3   OH216799   0.854   0.669   1.743
 5598TIP3    H116800   0.865   0.714   1.659
 5598TIP3    H216801   0.848   0.739   1.808
 5599TIP3   OH216802   1.148   5.437   0.353
 5599TIP3    H116803   1.080   5.392   0.302
 5599TIP3    H216804   1.119   5.528   0.355
 5600TIP3   OH216805   3.719   4.346   1.477
 5600TIP3    H116806   3.633   4.311   1.499
 5600TIP3    H216807   3.730   4.422   1.534
 5601TIP3   OH216808   5.377   2.254   1.714
 5601TIP3    H116809   5.439   2.192   1.752
 5601TIP3    H216810   5.298   2.202   1.696
 5602TIP3   OH216811   3.348   0.491   4.436
 5602TIP3    H116812   3.442   0.493   4.456
 5602TIP3    H216813   3.327   0.398   4.430
 5603TIP3   OH216814   2.230   4.688   3.879
 5603TIP3    H116815   2.242   4.781   3.859
 5603TIP3    H216816   2.137   4.672   3.866
 5604TIP3   OH216817   2.015   4.392   3.058
 5604TIP3    H116818   2.016   4.468   3.115
 5604TIP3    H216819   1.929   4.395   3.016
 5605TIP3   OH216820   5.247   5.962   3.058
 5605TIP3    H116821   5.300   5.930   2.985
 5605TIP3    H216822   5.223   6.051   3.033
 5606TIP3   OH216823   2.335   2.491   2.025
 5606TIP3    H116824   2.295   2.419   1.977
 5606TIP3    H216825   2.282   2.567   2.002
 5607TIP3   OH216826   3.517   0.254   0.834
 5607TIP3    H116827   3.483   0.209   0.912
 5607TIP3    H216828   3.478   0.206   0.761
 5608TIP3   OH216829   4.882   5.865   3.914
 5608TIP3    H116830   4.924   5.835   3.834
 5608TIP3    H216831   4.919   5.953   3.929
 5609TIP3   OH216832   2.580   4.310   4.440
 5609TIP3    H116833   2.614   4.288   4.527
 5609TIP3    H216834   2.492   4.343   4.456
 5610TIP3   OH216835   1.027   2.877   0.981
 5610TIP3    H116836   1.047   2.948   1.042
 5610TIP3    H216837   1.016   2.800   1.037
 5611TIP3   OH216838   2.937   1.821   3.177
 5611TIP3    H116839   3.005   1.779   3.229
 5611TIP3    H216840   2.975   1.906   3.152
 5612TIP3   OH216841   3.495   2.444   2.902
 5612TIP3    H116842   3.499   2.462   2.808
 5612TIP3    H216843   3.406   2.466   2.927
 5613TIP3   OH216844   6.312   4.303   2.320
 5613TIP3    H116845   6.238   4.348   2.361
 5613TIP3    H216846   6.369   4.373   2.289
 5614TIP3   OH216847   0.624   1.173   4.177
 5614TIP3    H116848   0.670   1.142   4.255
 5614TIP3    H216849   0.559   1.105   4.159
 5615TIP3   OH216850   1.975   0.709   2.378
 5615TIP3    H116851   2.022   0.670   2.304
 5615TIP3    H216852   1.958   0.799   2.350
 5616TIP3   OH216853   5.880   1.863   4.093
 5616TIP3    H116854   5.918   1.950   4.085
 5616TIP3    H216855   5.785   1.877   4.086
 5617TIP3   OH216856   5.592   4.769   4.196
 5617TIP3    H116857   5.507   4.771   4.151
 5617TIP3    H216858   5.573   4.731   4.282
 5618TIP3   OH216859   5.198   1.584   0.394
 5618TIP3    H116860   5.252   1.662   0.410
 5618TIP3    H216861   5.210   1.530   0.472
 5619TIP3   OH216862   1.506   5.651   4.789
 5619TIP3    H116863   1.509   5.741   4.822
 5619TIP3    H216864   1.595   5.634   4.758
 5620TIP3   OH216865   5.900   5.863   1.984
 5620TIP3    H116866   5.895   5.956   1.960
 5620TIP3    H216867   5.870   5.860   2.075
 5621TIP3   OH216868   0.081   4.832   4.087
 5621TIP3    H116869   0.112   4.914   4.049
 5621TIP3    H216870  -0.009   4.824   4.056
 5622TIP3   OH216871   1.626   1.722   1.220
 5622TIP3    H116872   1.628   1.721   1.124
 5622TIP3    H216873   1.702   1.775   1.245
 5623TIP3   OH216874   1.561   1.241   2.751
 5623TIP3    H116875   1.509   1.317   2.726
 5623TIP3    H216876   1.506   1.166   2.730
 5624TIP3   OH216877   2.101   3.005   3.187
 5624TIP3    H116878   2.061   2.921   3.164
 5624TIP3    H216879   2.101   3.006   3.283
 5625TIP3   OH216880   3.525   2.332   5.025
 5625TIP3    H116881   3.608   2.353   4.983
 5625TIP3    H216882   3.476   2.414   5.023
 5626TIP3   OH216883   2.118   5.802   0.309
 5626TIP3    H116884   2.052   5.839   0.368
 5626TIP3    H216885   2.069   5.738   0.257
 5627TIP3   OH216886   2.077   1.344   0.382
 5627TIP3    H116887   2.020   1.312   0.452
 5627TIP3    H216888   2.081   1.439   0.396
 5628TIP3   OH216889   3.336   2.151   4.896
 5628TIP3    H116890   3.397   2.218   4.927
 5628TIP3    H216891   3.293   2.121   4.976
 5629TIP3   OH216892   4.834   4.850   1.483
 5629TIP3    H116893   4.829   4.784   1.553
 5629TIP3    H216894   4.780   4.922   1.515
 5630TIP3   OH216895   5.940   1.084   4.959
 5630TIP3    H116896   5.954   1.149   5.028
 5630TIP3    H216897   6.017   1.028   4.962
 5631TIP3   OH216898   3.314   4.170   0.856
 5631TIP3    H116899   3.324   4.235   0.787
 5631TIP3    H216900   3.360   4.093   0.824
 5632TIP3   OH216901   0.243   5.860   0.782
 5632TIP3    H116902   0.216   5.843   0.692
 5632TIP3    H216903   0.187   5.933   0.810
 5633TIP3   OH216904   5.628   2.266   4.687
 5633TIP3    H116905   5.551   2.309   4.725
 5633TIP3    H216906   5.647   2.317   4.608
 5634TIP3   OH216907   2.532   3.938   2.497
 5634TIP3    H116908   2.447   3.932   2.541
 5634TIP3    H216909   2.594   3.901   2.559
 5635TIP3   OH216910   4.378   1.753   1.766
 5635TIP3    H116911   4.297   1.715   1.799
 5635TIP3    H216912   4.406   1.814   1.835
 5636TIP3   OH216913   1.023   5.246   1.663
 5636TIP3    H116914   0.928   5.259   1.660
 5636TIP3    H216915   1.059   5.324   1.621
 5637TIP3   OH216916   1.017   2.433   2.966
 5637TIP3    H116917   0.993   2.388   2.885
 5637TIP3    H216918   0.939   2.429   3.020
 5638TIP3   OH216919   4.548   0.586   2.794
 5638TIP3    H116920   4.567   0.557   2.704
 5638TIP3    H216921   4.608   0.659   2.808
 5639TIP3   OH216922   4.625   3.786   1.832
 5639TIP3    H116923   4.576   3.707   1.858
 5639TIP3    H216924   4.579   3.818   1.755
 5640TIP3   OH216925   0.962   1.680   3.530
 5640TIP3    H116926   1.044   1.711   3.490
 5640TIP3    H216927   0.973   1.585   3.532
 5641TIP3   OH216928   5.549   4.684   2.649
 5641TIP3    H116929   5.518   4.594   2.657
 5641TIP3    H216930   5.501   4.720   2.574
 5642TIP3   OH216931   5.762   2.997   2.344
 5642TIP3    H116932   5.701   3.017   2.273
 5642TIP3    H216933   5.843   3.043   2.320
 5643TIP3   OH216934   5.509   3.341   3.749
 5643TIP3    H116935   5.430   3.287   3.752
 5643TIP3    H216936   5.491   3.413   3.809
 5644TIP3   OH216937   5.343   1.907   3.910
 5644TIP3    H116938   5.421   1.899   3.965
 5644TIP3    H216939   5.324   2.001   3.910
 5645TIP3   OH216940   6.143   4.967   4.518
 5645TIP3    H116941   6.177   5.041   4.468
 5645TIP3    H216942   6.061   4.999   4.556
 5646TIP3   OH216943   6.296   5.437   1.802
 5646TIP3    H116944   6.210   5.405   1.773
 5646TIP3    H216945   6.326   5.371   1.864
 5647TIP3   OH216946   1.088   3.754   4.864
 5647TIP3    H116947   1.128   3.840   4.873
 5647TIP3    H216948   1.161   3.697   4.838
 5648TIP3   OH216949   4.015   3.432   3.273
 5648TIP3    H116950   3.987   3.489   3.202
 5648TIP3    H216951   4.110   3.426   3.262
 5649TIP3   OH216952   0.545   1.325   2.662
 5649TIP3    H116953   0.523   1.276   2.741
 5649TIP3    H216954   0.638   1.347   2.672
 5650TIP3   OH216955   5.966   4.742   4.286
 5650TIP3    H116956   5.969   4.682   4.213
 5650TIP3    H216957   6.055   4.774   4.296
 5651TIP3   OH216958   1.597   2.528   4.015
 5651TIP3    H116959   1.526   2.576   4.059
 5651TIP3    H216960   1.555   2.449   3.981
 5652TIP3   OH216961   5.062   0.723   1.667
 5652TIP3    H116962   5.007   0.787   1.622
 5652TIP3    H216963   5.087   0.660   1.600
 5653TIP3   OH216964   4.462   0.829   2.059
 5653TIP3    H116965   4.553   0.803   2.070
 5653TIP3    H216966   4.414   0.776   2.123
 5654TIP3   OH216967   0.589   2.451   2.821
 5654TIP3    H116968   0.496   2.466   2.834
 5654TIP3    H216969   0.596   2.421   2.730
 5655TIP3   OH216970   0.444   2.394   4.523
 5655TIP3    H116971   0.530   2.436   4.511
 5655TIP3    H216972   0.381   2.464   4.507
 5656TIP3   OH216973   2.630   1.120   4.309
 5656TIP3    H116974   2.620   1.027   4.288
 5656TIP3    H216975   2.548   1.142   4.354
 5657TIP3   OH216976   5.485   2.868   0.459
 5657TIP3    H116977   5.567   2.818   0.459
 5657TIP3    H216978   5.493   2.926   0.534
 5658TIP3   OH216979   5.413   2.211   4.290
 5658TIP3    H116980   5.424   2.224   4.384
 5658TIP3    H216981   5.354   2.282   4.263
 5659TIP3   OH216982   5.975   1.204   4.601
 5659TIP3    H116983   6.003   1.269   4.537
 5659TIP3    H216984   5.931   1.137   4.549
 5660TIP3   OH216985   0.633   4.584   3.344
 5660TIP3    H116986   0.722   4.598   3.377
 5660TIP3    H216987   0.619   4.489   3.351
 5661TIP3   OH216988   2.658   0.888   1.656
 5661TIP3    H116989   2.580   0.877   1.602
 5661TIP3    H216990   2.682   0.800   1.683
 5662TIP3   OH216991   1.693   3.376   0.674
 5662TIP3    H116992   1.633   3.383   0.600
 5662TIP3    H216993   1.682   3.285   0.704
 5663TIP3   OH216994   1.750   1.194   2.089
 5663TIP3    H116995   1.664   1.236   2.083
 5663TIP3    H216996   1.776   1.205   2.180
 5664TIP3   OH216997   6.012   3.057   5.099
 5664TIP3    H116998   5.953   3.125   5.066
 5664TIP3    H216999   6.036   3.006   5.022
 5665TIP3   OH217000   1.665   4.206   2.776
 5665TIP3    H117001   1.677   4.158   2.694
 5665TIP3    H217002   1.571   4.205   2.791
 5666TIP3   OH217003   1.915   3.175   1.775
 5666TIP3    H117004   1.946   3.233   1.705
 5666TIP3    H217005   1.820   3.175   1.765
 5667TIP3   OH217006   4.122   1.550   0.898
 5667TIP3    H117007   4.199   1.597   0.863
 5667TIP3    H217008   4.153   1.511   0.980
 5668TIP3   OH217009   0.428   0.490   4.782
 5668TIP3    H117010   0.499   0.434   4.813
 5668TIP3    H217011   0.467   0.540   4.710
 5669TIP3   OH217012   0.645   4.086   0.177
 5669TIP3    H117013   0.693   4.061   0.256
 5669TIP3    H217014   0.555   4.059   0.194
 5670TIP3   OH217015   6.258   0.290   1.326
 5670TIP3    H117016   6.181   0.278   1.271
 5670TIP3    H217017   6.318   0.342   1.272
 5671TIP3   OH217018   0.884   0.428   4.404
 5671TIP3    H117019   0.818   0.476   4.454
 5671TIP3    H217020   0.951   0.406   4.469
 5672TIP3   OH217021   6.297   3.875   3.810
 5672TIP3    H117022   6.299   3.878   3.905
 5672TIP3    H217023   6.388   3.863   3.784
 5673TIP3   OH217024   0.995   1.777   2.321
 5673TIP3    H117025   0.958   1.754   2.407
 5673TIP3    H217026   1.060   1.844   2.341
 5674TIP3   OH217027   0.857   2.191   0.425
 5674TIP3    H117028   0.940   2.214   0.467
 5674TIP3    H217029   0.834   2.268   0.373
 5675TIP3   OH217030   0.343   2.132   4.422
 5675TIP3    H117031   0.407   2.077   4.377
 5675TIP3    H217032   0.379   2.220   4.417
 5676TIP3   OH217033   2.786   0.846   2.938
 5676TIP3    H117034   2.869   0.830   2.982
 5676TIP3    H217035   2.812   0.875   2.850
 5677TIP3   OH217036   5.295   5.773   4.091
 5677TIP3    H117037   5.221   5.714   4.104
 5677TIP3    H217038   5.336   5.742   4.010
 5678TIP3   OH217039   4.675   5.425   3.354
 5678TIP3    H117040   4.582   5.443   3.367
 5678TIP3    H217041   4.676   5.340   3.310
 5679TIP3   OH217042   4.492   5.646   0.591
 5679TIP3    H117043   4.400   5.619   0.598
 5679TIP3    H217044   4.532   5.612   0.672
 5680TIP3   OH217045   3.906   2.801   0.839
 5680TIP3    H117046   3.929   2.775   0.750
 5680TIP3    H217047   3.978   2.856   0.868
 5681TIP3   OH217048   2.415   5.501   0.402
 5681TIP3    H117049   2.487   5.520   0.341
 5681TIP3    H217050   2.375   5.422   0.366
 5682TIP3   OH217051   1.621   3.166   1.762
 5682TIP3    H117052   1.584   3.188   1.848
 5682TIP3    H217053   1.547   3.129   1.713
 5683TIP3   OH217054   1.106   2.660   3.312
 5683TIP3    H117055   1.116   2.662   3.217
 5683TIP3    H217056   1.188   2.697   3.345
 5684TIP3   OH217057   1.321   4.298   4.679
 5684TIP3    H117058   1.298   4.329   4.767
 5684TIP3    H217059   1.238   4.275   4.639
 5685TIP3   OH217060   5.201   2.469   3.771
 5685TIP3    H117061   5.294   2.484   3.792
 5685TIP3    H217062   5.202   2.417   3.692
 5686TIP3   OH217063   3.523   2.019   3.084
 5686TIP3    H117064   3.533   1.954   3.014
 5686TIP3    H217065   3.608   2.020   3.128
 5687TIP3   OH217066   5.604   0.021   0.812
 5687TIP3    H117067   5.510   0.003   0.806
 5687TIP3    H217068   5.609   0.114   0.835
 5688TIP3   OH217069   3.944   4.887   2.200
 5688TIP3    H117070   3.902   4.923   2.279
 5688TIP3    H217071   3.969   4.965   2.150
 5689TIP3   OH217072   1.059   4.366   4.744
 5689TIP3    H117073   1.028   4.279   4.720
 5689TIP3    H217074   0.990   4.425   4.712
 5690TIP3   OH217075   1.525   2.497   1.936
 5690TIP3    H117076   1.475   2.578   1.920
 5690TIP3    H217077   1.603   2.506   1.881
 5691TIP3   OH217078   4.340   1.351   4.353
 5691TIP3    H117079   4.423   1.305   4.351
 5691TIP3    H217080   4.357   1.428   4.407
 5692TIP3   OH217081   3.346   2.742   4.160
 5692TIP3    H117082   3.304   2.770   4.241
 5692TIP3    H217083   3.397   2.818   4.131
 5693TIP3   OH217084   5.843   1.864   1.223
 5693TIP3    H117085   5.798   1.921   1.160
 5693TIP3    H217086   5.788   1.786   1.229
 5694TIP3   OH217087   0.446   0.709   0.465
 5694TIP3    H117088   0.364   0.662   0.451
 5694TIP3    H217089   0.487   0.666   0.540
 5695TIP3   OH217090   0.553   0.825   0.908
 5695TIP3    H117091   0.464   0.802   0.881
 5695TIP3    H217092   0.581   0.889   0.844
 5696TIP3   OH217093   1.350   2.786   4.705
 5696TIP3    H117094   1.305   2.722   4.650
 5696TIP3    H217095   1.368   2.739   4.786
 5697TIP3   OH217096   5.227   0.501   1.779
 5697TIP3    H117097   5.255   0.464   1.694
 5697TIP3    H217098   5.176   0.578   1.755
 5698TIP3   OH217099   3.388   1.781   0.072
 5698TIP3    H117100   3.424   1.709   0.123
 5698TIP3    H217101   3.309   1.745   0.031
 5699TIP3   OH217102   4.643   2.493   0.238
 5699TIP3    H117103   4.671   2.566   0.182
 5699TIP3    H217104   4.565   2.526   0.283
 5700TIP3   OH217105   2.249   5.651   3.517
 5700TIP3    H117106   2.219   5.624   3.431
 5700TIP3    H217107   2.226   5.578   3.575
 5701TIP3   OH217108   2.671   2.131   4.597
 5701TIP3    H117109   2.681   2.095   4.508
 5701TIP3    H217110   2.752   2.180   4.611
 5702TIP3   OH217111   1.309   5.565   3.695
 5702TIP3    H117112   1.319   5.578   3.790
 5702TIP3    H217113   1.305   5.470   3.684
 5703TIP3   OH217114   5.227   5.039   0.754
 5703TIP3    H117115   5.173   5.114   0.728
 5703TIP3    H217116   5.313   5.076   0.773
 5704TIP3   OH217117   5.926   3.016   1.056
 5704TIP3    H117118   6.012   3.009   1.014
 5704TIP3    H217119   5.889   2.928   1.049
 5705TIP3   OH217120   5.863   5.281   3.781
 5705TIP3    H117121   5.821   5.200   3.751
 5705TIP3    H217122   5.941   5.252   3.827
 5706TIP3   OH217123   1.837   5.712   3.415
 5706TIP3    H117124   1.869   5.692   3.503
 5706TIP3    H217125   1.757   5.660   3.406
 5707TIP3   OH217126   3.094   2.321   4.415
 5707TIP3    H117127   3.177   2.303   4.459
 5707TIP3    H217128   3.104   2.409   4.379
 5708TIP3   OH217129   4.715   5.103   4.661
 5708TIP3    H117130   4.797   5.153   4.660
 5708TIP3    H217131   4.650   5.163   4.698
 5709TIP3   OH217132   2.408   3.482   0.824
 5709TIP3    H117133   2.381   3.546   0.758
 5709TIP3    H217134   2.395   3.526   0.908
 5710TIP3   OH217135   0.392   2.848   3.873
 5710TIP3    H117136   0.433   2.768   3.906
 5710TIP3    H217137   0.314   2.859   3.928
 5711TIP3   OH217138   2.647   1.319   3.467
 5711TIP3    H117139   2.687   1.350   3.548
 5711TIP3    H217140   2.623   1.228   3.484
 5712TIP3   OH217141   2.585   1.865   3.991
 5712TIP3    H117142   2.562   1.904   3.907
 5712TIP3    H217143   2.653   1.922   4.026
 5713TIP3   OH217144   1.334   5.583   3.116
 5713TIP3    H117145   1.300   5.607   3.029
 5713TIP3    H217146   1.365   5.665   3.153
 5714TIP3   OH217147   5.060   0.020   3.608
 5714TIP3    H117148   5.070   0.115   3.614
 5714TIP3    H217149   4.966   0.007   3.594
 5715TIP3   OH217150   4.182   1.777   4.040
 5715TIP3    H117151   4.138   1.861   4.053
 5715TIP3    H217152   4.135   1.736   3.967
 5716TIP3   OH217153   1.849   3.702   1.668
 5716TIP3    H117154   1.794   3.765   1.622
 5716TIP3    H217155   1.845   3.623   1.614
 5717TIP3   OH217156   5.304   5.526   1.364
 5717TIP3    H117157   5.222   5.575   1.350
 5717TIP3    H217158   5.279   5.453   1.420
 5718TIP3   OH217159   0.278   2.633   0.959
 5718TIP3    H117160   0.261   2.711   0.906
 5718TIP3    H217161   0.271   2.560   0.897
 5719TIP3   OH217162   6.232   5.115   4.070
 5719TIP3    H117163   6.238   5.149   4.159
 5719TIP3    H217164   6.142   5.084   4.062
 5720TIP3   OH217165   5.265   4.756   1.850
 5720TIP3    H117166   5.227   4.742   1.764
 5720TIP3    H217167   5.252   4.850   1.867
 5721TIP3   OH217168   1.396   0.782   1.188
 5721TIP3    H117169   1.311   0.783   1.231
 5721TIP3    H217170   1.422   0.874   1.183
 5722TIP3   OH217171   4.284   1.930   3.185
 5722TIP3    H117172   4.357   1.936   3.247
 5722TIP3    H217173   4.275   1.837   3.167
 5723TIP3   OH217174   5.828   2.162   3.972
 5723TIP3    H117175   5.799   2.253   3.966
 5723TIP3    H217176   5.763   2.113   3.921
 5724TIP3   OH217177   3.725   5.186   4.149
 5724TIP3    H117178   3.730   5.244   4.225
 5724TIP3    H217179   3.634   5.157   4.146
 5725TIP3   OH217180   0.711   4.609   3.069
 5725TIP3    H117181   0.669   4.621   3.154
 5725TIP3    H217182   0.774   4.538   3.082
 5726TIP3   OH217183   4.908   5.101   3.534
 5726TIP3    H117184   4.867   5.169   3.588
 5726TIP3    H217185   4.965   5.053   3.594
 5727TIP3   OH217186   5.555   1.128   2.814
 5727TIP3    H117187   5.550   1.217   2.778
 5727TIP3    H217188   5.639   1.125   2.859
 5728TIP3   OH217189   1.947   5.283   0.775
 5728TIP3    H117190   1.981   5.316   0.692
 5728TIP3    H217191   1.912   5.196   0.754
 5729TIP3   OH217192   4.647   2.800   4.125
 5729TIP3    H117193   4.638   2.773   4.033
 5729TIP3    H217194   4.590   2.877   4.133
 5730TIP3   OH217195   1.934   0.203   1.895
 5730TIP3    H117196   1.852   0.247   1.875
 5730TIP3    H217197   1.999   0.248   1.841
 5731TIP3   OH217198   4.671   1.326   0.815
 5731TIP3    H117199   4.628   1.331   0.900
 5731TIP3    H217200   4.753   1.281   0.832
 5732TIP3   OH217201   1.568   4.861   0.497
 5732TIP3    H117202   1.597   4.849   0.407
 5732TIP3    H217203   1.629   4.809   0.549
 5733TIP3   OH217204   0.266   2.116   2.038
 5733TIP3    H117205   0.355   2.107   2.073
 5733TIP3    H217206   0.214   2.055   2.091
 5734TIP3   OH217207   1.828   0.546   3.514
 5734TIP3    H117208   1.841   0.451   3.507
 5734TIP3    H217209   1.770   0.557   3.589
 5735TIP3   OH217210   3.226   1.608   1.519
 5735TIP3    H117211   3.200   1.547   1.588
 5735TIP3    H217212   3.157   1.602   1.454
 5736TIP3   OH217213   4.951   1.897   2.915
 5736TIP3    H117214   4.928   1.836   2.845
 5736TIP3    H217215   4.990   1.972   2.870
 5737TIP3   OH217216   3.010   0.175   0.010
 5737TIP3    H117217   3.077   0.242  -0.004
 5737TIP3    H217218   2.951   0.214   0.074
 5738TIP3   OH217219   3.555   1.339   2.715
 5738TIP3    H117220   3.622   1.370   2.654
 5738TIP3    H217221   3.575   1.384   2.797
 5739TIP3   OH217222   4.008   4.025   3.529
 5739TIP3    H117223   3.930   3.978   3.559
 5739TIP3    H217224   3.973   4.103   3.486
 5740TIP3   OH217225   4.111   0.661   0.394
 5740TIP3    H117226   4.130   0.577   0.352
 5740TIP3    H217227   4.163   0.725   0.345
 5741TIP3   OH217228   4.806   2.747   4.543
 5741TIP3    H117229   4.778   2.701   4.623
 5741TIP3    H217230   4.887   2.704   4.518
 5742TIP3   OH217231   1.600   1.969   4.083
 5742TIP3    H117232   1.507   1.965   4.106
 5742TIP3    H217233   1.641   2.014   4.157
 5743TIP3   OH217234   4.822   5.632   4.073
 5743TIP3    H117235   4.830   5.714   4.024
 5743TIP3    H217236   4.728   5.619   4.082
 5744TIP3   OH217237   2.002   3.334   3.776
 5744TIP3    H117238   1.996   3.419   3.819
 5744TIP3    H217239   2.086   3.299   3.804
 5745TIP3   OH217240   4.541   2.793   0.902
 5745TIP3    H117241   4.511   2.860   0.964
 5745TIP3    H217242   4.559   2.717   0.957
 5746TIP3   OH217243   1.547   4.039   4.100
 5746TIP3    H117244   1.482   4.074   4.161
 5746TIP3    H217245   1.496   3.993   4.034
 5747TIP3   OH217246   4.201   3.969   1.188
 5747TIP3    H117247   4.262   3.996   1.119
 5747TIP3    H217248   4.147   3.901   1.146
 5748TIP3   OH217249   4.264   0.783   3.132
 5748TIP3    H117250   4.268   0.690   3.109
 5748TIP3    H217251   4.212   0.822   3.061
 5749TIP3   OH217252   2.160   1.233   4.950
 5749TIP3    H117253   2.101   1.206   5.020
 5749TIP3    H217254   2.231   1.169   4.952
 5750TIP3   OH217255   2.177   5.561   4.526
 5750TIP3    H117256   2.265   5.569   4.488
 5750TIP3    H217257   2.119   5.595   4.458
 5751TIP3   OH217258   0.438   3.386   3.869
 5751TIP3    H117259   0.422   3.324   3.797
 5751TIP3    H217260   0.522   3.358   3.906
 5752TIP3   OH217261   4.158   4.127   4.035
 5752TIP3    H117262   4.075   4.174   4.036
 5752TIP3    H217263   4.175   4.109   3.943
 5753TIP3   OH217264   0.528   4.157   4.252
 5753TIP3    H117265   0.435   4.174   4.265
 5753TIP3    H217266   0.566   4.165   4.339
 5754TIP3   OH217267   4.373   4.583   0.156
 5754TIP3    H117268   4.364   4.568   0.062
 5754TIP3    H217269   4.345   4.501   0.196
 5755TIP3   OH217270   5.585   5.570   0.369
 5755TIP3    H117271   5.522   5.563   0.441
 5755TIP3    H217272   5.667   5.596   0.411
 5756TIP3   OH217273   5.376   3.892   3.264
 5756TIP3    H117274   5.384   3.931   3.351
 5756TIP3    H217275   5.283   3.902   3.242
 5757TIP3   OH217276   2.468   2.928   1.692
 5757TIP3    H117277   2.492   2.932   1.600
 5757TIP3    H217278   2.402   2.996   1.703
 5758TIP3   OH217279   5.995   0.149   4.966
 5758TIP3    H117280   5.932   0.134   4.895
 5758TIP3    H217281   6.080   0.156   4.922
 5759TIP3   OH217282   6.208   3.943   0.664
 5759TIP3    H117283   6.230   4.018   0.609
 5759TIP3    H217284   6.282   3.936   0.726
 5760TIP3   OH217285   2.122   3.615   2.318
 5760TIP3    H117286   2.058   3.578   2.378
 5760TIP3    H217287   2.129   3.707   2.344
 5761TIP3   OH217288   3.434   5.364   2.429
 5761TIP3    H117289   3.416   5.354   2.522
 5761TIP3    H217290   3.521   5.326   2.417
 5762TIP3   OH217291   5.340   1.723   3.012
 5762TIP3    H117292   5.383   1.640   2.991
 5762TIP3    H217293   5.412   1.783   3.030
 5763TIP3   OH217294   3.811   5.884   4.170
 5763TIP3    H117295   3.875   5.882   4.241
 5763TIP3    H217296   3.728   5.864   4.212
 5764TIP3   OH217297   5.604   4.143   1.601
 5764TIP3    H117298   5.535   4.171   1.661
 5764TIP3    H217299   5.685   4.158   1.650
 5765TIP3   OH217300   1.134   2.660   2.097
 5765TIP3    H117301   1.204   2.596   2.113
 5765TIP3    H217302   1.128   2.664   2.001
 5766TIP3   OH217303   1.311   2.258   0.654
 5766TIP3    H117304   1.288   2.199   0.725
 5766TIP3    H217305   1.380   2.212   0.605
 5767TIP3   OH217306   3.856   1.771   4.315
 5767TIP3    H117307   3.817   1.858   4.316
 5767TIP3    H217308   3.835   1.734   4.401
 5768TIP3   OH217309   0.576   4.389   0.732
 5768TIP3    H117310   0.558   4.299   0.759
 5768TIP3    H217311   0.661   4.409   0.772
 5769TIP3   OH217312   0.377   0.114   3.234
 5769TIP3    H117313   0.428   0.190   3.205
 5769TIP3    H217314   0.423   0.039   3.197
 5770TIP3   OH217315   3.777   4.498   2.199
 5770TIP3    H117316   3.732   4.450   2.130
 5770TIP3    H217317   3.764   4.445   2.278
 5771TIP3   OH217318   4.136   1.680   3.477
 5771TIP3    H117319   4.227   1.667   3.449
 5771TIP3    H217320   4.085   1.623   3.419
 5772TIP3   OH217321   0.111   1.411   0.275
 5772TIP3    H117322   0.113   1.431   0.368
 5772TIP3    H217323   0.187   1.354   0.261
 5773TIP3   OH217324   3.572   2.367   4.373
 5773TIP3    H117325   3.518   2.293   4.399
 5773TIP3    H217326   3.574   2.424   4.451
 5774TIP3   OH217327   4.358   4.435   2.177
 5774TIP3    H117328   4.358   4.491   2.255
 5774TIP3    H217329   4.328   4.492   2.106
 5775TIP3   OH217330   5.362   3.118   3.783
 5775TIP3    H117331   5.284   3.098   3.731
 5775TIP3    H217332   5.331   3.121   3.874
 5776TIP3   OH217333   3.334   1.104   3.648
 5776TIP3    H117334   3.277   1.177   3.671
 5776TIP3    H217335   3.315   1.036   3.712
 5777TIP3   OH217336   1.689   3.622   2.638
 5777TIP3    H117337   1.708   3.656   2.725
 5777TIP3    H217338   1.615   3.674   2.607
 5778TIP3   OH217339   4.654   5.539   0.813
 5778TIP3    H117340   4.742   5.578   0.816
 5778TIP3    H217341   4.668   5.446   0.829
 5779TIP3   OH217342   2.462   5.052   1.101
 5779TIP3    H117343   2.543   5.050   1.153
 5779TIP3    H217344   2.392   5.062   1.165
 5780TIP3   OH217345   1.547   5.568   1.784
 5780TIP3    H117346   1.473   5.516   1.752
 5780TIP3    H217347   1.593   5.509   1.844
 5781TIP3   OH217348   4.000   1.903   3.471
 5781TIP3    H117349   3.990   1.926   3.378
 5781TIP3    H217350   4.018   1.809   3.471
 5782TIP3   OH217351   2.255   2.169   1.307
 5782TIP3    H117352   2.270   2.163   1.213
 5782TIP3    H217353   2.202   2.248   1.318
 5783TIP3   OH217354   1.671   1.367   0.458
 5783TIP3    H117355   1.680   1.300   0.526
 5783TIP3    H217356   1.605   1.427   0.492
 5784TIP3   OH217357   1.189   1.757   0.107
 5784TIP3    H117358   1.143   1.841   0.115
 5784TIP3    H217359   1.202   1.747   0.012
 5785TIP3   OH217360   5.161   0.631   2.166
 5785TIP3    H117361   5.161   0.670   2.078
 5785TIP3    H217362   5.160   0.706   2.226
 5786TIP3   OH217363   5.182   1.211   1.145
 5786TIP3    H117364   5.120   1.138   1.142
 5786TIP3    H217365   5.175   1.252   1.059
 5787TIP3   OH217366   1.977   0.615   4.566
 5787TIP3    H117367   1.968   0.683   4.634
 5787TIP3    H217368   2.047   0.648   4.510
 5788TIP3   OH217369   3.014   5.934   4.789
 5788TIP3    H117370   2.955   5.982   4.847
 5788TIP3    H217371   3.057   6.002   4.737
 5789TIP3   OH217372   4.589   0.366   2.556
 5789TIP3    H117373   4.575   0.302   2.626
 5789TIP3    H217374   4.667   0.334   2.510
 5790TIP3   OH217375   0.598   4.815   2.225
 5790TIP3    H117376   0.661   4.837   2.156
 5790TIP3    H217377   0.594   4.720   2.225
 5791TIP3   OH217378   4.488   3.649   2.203
 5791TIP3    H117379   4.562   3.634   2.262
 5791TIP3    H217380   4.415   3.600   2.242
 5792TIP3   OH217381   5.026   2.309   1.409
 5792TIP3    H117382   4.996   2.281   1.495
 5792TIP3    H217383   4.968   2.382   1.386
 5793TIP3   OH217384   1.048   2.445   1.452
 5793TIP3    H117385   1.036   2.352   1.433
 5793TIP3    H217386   1.127   2.469   1.403
 5794TIP3   OH217387   4.184   2.929   4.481
 5794TIP3    H117388   4.257   2.990   4.495
 5794TIP3    H217389   4.196   2.863   4.549
 5795TIP3   OH217390   0.229   3.656   2.249
 5795TIP3    H117391   0.168   3.686   2.181
 5795TIP3    H217392   0.172   3.627   2.321
 5796TIP3   OH217393   1.719   0.686   4.475
 5796TIP3    H117394   1.721   0.722   4.386
 5796TIP3    H217395   1.811   0.666   4.495
 5797TIP3   OH217396   5.810   2.765   2.965
 5797TIP3    H117397   5.886   2.804   2.923
 5797TIP3    H217398   5.768   2.837   3.011
 5798TIP3   OH217399   0.277   5.293   1.802
 5798TIP3    H117400   0.193   5.301   1.848
 5798TIP3    H217401   0.302   5.202   1.814
 5799TIP3   OH217402   4.493   5.572   2.067
 5799TIP3    H117403   4.530   5.644   2.016
 5799TIP3    H217404   4.509   5.597   2.159
 5800TIP3   OH217405   4.822   3.582   2.979
 5800TIP3    H117406   4.807   3.539   3.063
 5800TIP3    H217407   4.916   3.600   2.977
 5801TIP3   OH217408   2.228   5.398   2.041
 5801TIP3    H117409   2.288   5.463   2.078
 5801TIP3    H217410   2.158   5.390   2.106
 5802TIP3   OH217411   3.873   0.526   3.468
 5802TIP3    H117412   3.815   0.469   3.418
 5802TIP3    H217413   3.930   0.566   3.403
 5803TIP3   OH217414   4.925   0.814   4.242
 5803TIP3    H117415   4.957   0.772   4.322
 5803TIP3    H217416   4.877   0.891   4.274
 5804TIP3   OH217417   1.249   4.210   0.507
 5804TIP3    H117418   1.272   4.196   0.415
 5804TIP3    H217419   1.213   4.299   0.509
 5805TIP3   OH217420   5.904   0.209   1.208
 5805TIP3    H117421   5.972   0.167   1.157
 5805TIP3    H217422   5.823   0.165   1.182
 5806TIP3   OH217423   5.636   2.686   2.322
 5806TIP3    H117424   5.561   2.720   2.273
 5806TIP3    H217425   5.598   2.622   2.382
 5807TIP3   OH217426   1.774   3.021   2.716
 5807TIP3    H117427   1.708   3.005   2.649
 5807TIP3    H217428   1.817   2.936   2.729
 5808TIP3   OH217429   4.721   2.187   3.234
 5808TIP3    H117430   4.797   2.186   3.293
 5808TIP3    H217431   4.743   2.123   3.166
 5809TIP3   OH217432   2.031   5.804   3.941
 5809TIP3    H117433   1.970   5.848   3.881
 5809TIP3    H217434   2.112   5.795   3.890
 5810TIP3   OH217435   1.345   0.238   3.105
 5810TIP3    H117436   1.282   0.251   3.034
 5810TIP3    H217437   1.291   0.239   3.185
 5811TIP3   OH217438   1.274   1.179   3.195
 5811TIP3    H117439   1.303   1.114   3.259
 5811TIP3    H217440   1.212   1.132   3.140
 5812TIP3   OH217441   3.170   3.689   1.294
 5812TIP3    H117442   3.175   3.697   1.198
 5812TIP3    H217443   3.259   3.706   1.324
 5813TIP3   OH217444   4.145   3.012   4.794
 5813TIP3    H117445   4.108   3.066   4.723
 5813TIP3    H217446   4.196   3.074   4.846
 5814TIP3   OH217447   3.715   1.020   4.177
 5814TIP3    H117448   3.654   1.015   4.251
 5814TIP3    H217449   3.756   0.934   4.174
 5815TIP3   OH217450   5.765   5.644   2.838
 5815TIP3    H117451   5.809   5.607   2.762
 5815TIP3    H217452   5.767   5.739   2.823
 5816TIP3   OH217453   5.417   1.698   1.915
 5816TIP3    H117454   5.512   1.692   1.925
 5816TIP3    H217455   5.396   1.624   1.857
 5817TIP3   OH217456   6.089   2.049   3.752
 5817TIP3    H117457   6.166   2.037   3.808
 5817TIP3    H217458   6.031   1.977   3.776
 5818TIP3   OH217459   5.488   0.473   2.694
 5818TIP3    H117460   5.414   0.534   2.698
 5818TIP3    H217461   5.450   0.390   2.667
 5819TIP3   OH217462   3.501   4.916   0.912
 5819TIP3    H117463   3.529   5.004   0.938
 5819TIP3    H217464   3.449   4.931   0.833
 5820TIP3   OH217465   5.058   0.789   2.379
 5820TIP3    H117466   5.108   0.772   2.459
 5820TIP3    H217467   4.977   0.739   2.390
 5821TIP3   OH217468   3.190   0.569   0.023
 5821TIP3    H117469   3.252   0.628  -0.018
 5821TIP3    H217470   3.235   0.536   0.101
 5822TIP3   OH217471   0.903   5.807   1.567
 5822TIP3    H117472   0.820   5.841   1.599
 5822TIP3    H217473   0.947   5.882   1.527
 5823TIP3   OH217474   0.668   1.512   2.131
 5823TIP3    H117475   0.743   1.570   2.118
 5823TIP3    H217476   0.693   1.457   2.205
 5824TIP3   OH217477   6.182   1.311   0.059
 5824TIP3    H117478   6.254   1.261   0.098
 5824TIP3    H217479   6.155   1.257  -0.016
 5825TIP3   OH217480   5.023   0.978   2.986
 5825TIP3    H117481   5.105   0.984   2.937
 5825TIP3    H217482   4.973   1.055   2.958
 5826TIP3   OH217483   5.790   5.412   0.101
 5826TIP3    H117484   5.815   5.469   0.028
 5826TIP3    H217485   5.779   5.325   0.061
 5827TIP3   OH217486   2.110   5.841   1.553
 5827TIP3    H117487   2.120   5.774   1.620
 5827TIP3    H217488   2.071   5.796   1.479
 5828TIP3   OH217489   2.171   4.864   5.103
 5828TIP3    H117490   2.126   4.815   5.172
 5828TIP3    H217491   2.109   4.934   5.080
 5829TIP3   OH217492   3.357   4.803   2.039
 5829TIP3    H117493   3.263   4.796   2.057
 5829TIP3    H217494   3.381   4.717   2.004
 5830TIP3   OH217495   3.317   5.762   3.774
 5830TIP3    H117496   3.265   5.755   3.694
 5830TIP3    H217497   3.252   5.764   3.845
 5831TIP3   OH217498   5.723   2.747   4.057
 5831TIP3    H117499   5.739   2.839   4.033
 5831TIP3    H217500   5.788   2.698   4.007
 5832TIP3   OH217501   1.964   3.771   0.456
 5832TIP3    H117502   1.892   3.728   0.410
 5832TIP3    H217503   2.020   3.805   0.385
 5833TIP3   OH217504   4.794   4.045   5.110
 5833TIP3    H117505   4.747   4.074   5.189
 5833TIP3    H217506   4.802   3.950   5.122
 5834TIP3   OH217507   5.059   2.671   5.140
 5834TIP3    H117508   5.067   2.755   5.095
 5834TIP3    H217509   5.039   2.694   5.231
 5835TIP3   OH217510   5.117   3.827   0.350
 5835TIP3    H117511   5.213   3.835   0.355
 5835TIP3    H217512   5.096   3.851   0.260
 5836TIP3   OH217513   0.679   5.365   3.689
 5836TIP3    H117514   0.734   5.349   3.766
 5836TIP3    H217515   0.740   5.366   3.616
 5837TIP3   OH217516   3.054   2.693   5.024
 5837TIP3    H117517   2.967   2.668   4.993
 5837TIP3    H217518   3.046   2.695   5.119
 5838TIP3   OH217519   0.573   1.714   0.508
 5838TIP3    H117520   0.572   1.637   0.564
 5838TIP3    H217521   0.568   1.788   0.569
 5839TIP3   OH217522   0.840   0.917   1.030
 5839TIP3    H117523   0.860   0.827   1.054
 5839TIP3    H217524   0.774   0.909   0.961
 5840TIP3   OH217525   1.136   4.650   3.978
 5840TIP3    H117526   1.041   4.647   3.966
 5840TIP3    H217527   1.172   4.610   3.899
 5841TIP3   OH217528   2.358   4.064   4.909
 5841TIP3    H117529   2.395   4.099   4.990
 5841TIP3    H217530   2.276   4.112   4.897
 5842TIP3   OH217531   3.525   5.817   2.005
 5842TIP3    H117532   3.523   5.763   2.084
 5842TIP3    H217533   3.613   5.806   1.970
 5843TIP3   OH217534   2.958   3.898   4.632
 5843TIP3    H117535   2.954   3.813   4.676
 5843TIP3    H217536   2.919   3.959   4.693
 5844TIP3   OH217537   5.413   2.937   4.118
 5844TIP3    H117538   5.366   3.016   4.091
 5844TIP3    H217539   5.349   2.885   4.167
 5845TIP3   OH217540   4.664   0.847   2.799
 5845TIP3    H117541   4.661   0.905   2.875
 5845TIP3    H217542   4.591   0.877   2.743
 5846TIP3   OH217543   2.413   2.348   2.299
 5846TIP3    H117544   2.373   2.360   2.214
 5846TIP3    H217545   2.418   2.253   2.311
 5847TIP3   OH217546   0.183   2.365   0.824
 5847TIP3    H117547   0.245   2.304   0.784
 5847TIP3    H217548   0.150   2.318   0.901
 5848TIP3   OH217549   1.072   1.053   5.000
 5848TIP3    H117550   1.034   0.995   4.934
 5848TIP3    H217551   1.043   1.016   5.084
 5849TIP3   OH217552   2.288   2.858   3.635
 5849TIP3    H117553   2.380   2.834   3.624
 5849TIP3    H217554   2.260   2.812   3.714
 5850TIP3   OH217555   5.917   5.585   3.609
 5850TIP3    H117556   5.952   5.519   3.549
 5850TIP3    H217557   5.904   5.662   3.554
 5851TIP3   OH217558   1.782   2.039   2.914
 5851TIP3    H117559   1.706   1.985   2.935
 5851TIP3    H217560   1.746   2.127   2.900
 5852TIP3   OH217561   5.005   5.865   2.940
 5852TIP3    H117562   5.094   5.889   2.967
 5852TIP3    H217563   4.948   5.924   2.990
 5853TIP3   OH217564   2.396   2.602   2.789
 5853TIP3    H117565   2.365   2.588   2.700
 5853TIP3    H217566   2.324   2.570   2.844
 5854TIP3   OH217567   5.524   2.223   2.073
 5854TIP3    H117568   5.505   2.130   2.063
 5854TIP3    H217569   5.601   2.225   2.131
 5855TIP3   OH217570   1.749   4.543   2.122
 5855TIP3    H117571   1.804   4.473   2.087
 5855TIP3    H217572   1.808   4.619   2.126
 5856TIP3   OH217573   1.157   5.635   3.466
 5856TIP3    H117574   1.136   5.604   3.554
 5856TIP3    H217575   1.245   5.672   3.474
 5857TIP3   OH217576   4.478   5.348   2.217
 5857TIP3    H117577   4.467   5.433   2.175
 5857TIP3    H217578   4.512   5.291   2.148
 5858TIP3   OH217579   6.110   5.537   2.265
 5858TIP3    H117580   6.189   5.590   2.276
 5858TIP3    H217581   6.074   5.565   2.181
 5859TIP3   OH217582   6.067   1.939   2.340
 5859TIP3    H117583   6.027   2.009   2.390
 5859TIP3    H217584   6.161   1.956   2.345
 5860TIP3   OH217585   1.960   4.862   0.333
 5860TIP3    H117586   1.915   4.929   0.384
 5860TIP3    H217587   1.902   4.846   0.258
 5861TIP3   OH217588   5.631   2.687   2.725
 5861TIP3    H117589   5.665   2.748   2.659
 5861TIP3    H217590   5.693   2.693   2.797
 5862TIP3   OH217591   5.000   5.169   2.947
 5862TIP3    H117592   5.093   5.172   2.970
 5862TIP3    H217593   4.991   5.088   2.896
 5863TIP3   OH217594   3.301   2.086   2.849
 5863TIP3    H117595   3.343   2.065   2.765
 5863TIP3    H217596   3.365   2.061   2.915
 5864TIP3   OH217597   2.839   1.884   4.863
 5864TIP3    H117598   2.764   1.902   4.806
 5864TIP3    H217599   2.872   1.970   4.888
 5865TIP3   OH217600   0.571   3.853   4.502
 5865TIP3    H117601   0.532   3.809   4.578
 5865TIP3    H217602   0.495   3.882   4.451
 5866TIP3   OH217603   5.802   3.504   2.209
 5866TIP3    H117604   5.888   3.479   2.176
 5866TIP3    H217605   5.797   3.466   2.297
 5867TIP3   OH217606   3.937   5.404   4.267
 5867TIP3    H117607   3.879   5.435   4.198
 5867TIP3    H217608   3.878   5.370   4.334
 5868TIP3   OH217609   0.345   0.843   2.141
 5868TIP3    H117610   0.274   0.781   2.127
 5868TIP3    H217611   0.390   0.847   2.056
 5869TIP3   OH217612   5.799   2.160   2.183
 5869TIP3    H117613   5.855   2.094   2.143
 5869TIP3    H217614   5.851   2.197   2.254
 5870TIP3   OH217615   5.761   5.946   0.390
 5870TIP3    H117616   5.704   5.901   0.452
 5870TIP3    H217617   5.828   5.986   0.445
 5871TIP3   OH217618   4.263   0.599   0.103
 5871TIP3    H117619   4.262   0.528   0.167
 5871TIP3    H217620   4.221   0.672   0.149
 5872TIP3   OH217621   3.668   2.869   3.855
 5872TIP3    H117622   3.697   2.946   3.806
 5872TIP3    H217623   3.592   2.899   3.905
 5873TIP3   OH217624   6.179   0.365   4.419
 5873TIP3    H117625   6.220   0.314   4.349
 5873TIP3    H217626   6.152   0.447   4.376
 5874TIP3   OH217627   1.194   0.994   4.065
 5874TIP3    H117628   1.238   0.953   3.991
 5874TIP3    H217629   1.151   0.921   4.110
 5875TIP3   OH217630   0.582   2.953   4.160
 5875TIP3    H117631   0.559   2.955   4.067
 5875TIP3    H217632   0.568   2.862   4.186
 5876TIP3   OH217633   6.053   5.972   3.804
 5876TIP3    H117634   6.129   5.927   3.765
 5876TIP3    H217635   5.998   5.901   3.838
 5877TIP3   OH217636   6.189   1.139   1.859
 5877TIP3    H117637   6.150   1.144   1.947
 5877TIP3    H217638   6.225   1.051   1.854
 5878TIP3   OH217639   0.792   2.247   3.767
 5878TIP3    H117640   0.846   2.227   3.843
 5878TIP3    H217641   0.813   2.338   3.746
 5879TIP3   OH217642   6.255   2.595   4.978
 5879TIP3    H117643   6.263   2.515   5.030
 5879TIP3    H217644   6.161   2.605   4.962
 5880TIP3   OH217645   3.390   3.858   0.903
 5880TIP3    H117646   3.308   3.904   0.923
 5880TIP3    H217647   3.409   3.881   0.812
 5881TIP3   OH217648   4.379   1.771   5.082
 5881TIP3    H117649   4.417   1.786   5.169
 5881TIP3    H217650   4.359   1.678   5.080
 5882TIP3   OH217651   3.296   0.124   1.532
 5882TIP3    H117652   3.356   0.182   1.578
 5882TIP3    H217653   3.330   0.121   1.442
 5883TIP3   OH217654   4.506   5.354   1.896
 5883TIP3    H117655   4.450   5.279   1.914
 5883TIP3    H217656   4.471   5.425   1.949
 5884TIP3   OH217657   0.762   3.426   0.032
 5884TIP3    H117658   0.794   3.478   0.106
 5884TIP3    H217659   0.699   3.365   0.072
 5885TIP3   OH217660   0.490   2.691   5.097
 5885TIP3    H117661   0.410   2.722   5.139
 5885TIP3    H217662   0.488   2.729   5.010
 5886TIP3   OH217663   5.848   3.563   1.714
 5886TIP3    H117664   5.809   3.640   1.755
 5886TIP3    H217665   5.938   3.561   1.747
 5887TIP3   OH217666   5.055   4.549   1.457
 5887TIP3    H117667   5.015   4.540   1.370
 5887TIP3    H217668   5.094   4.463   1.474
 5888TIP3   OH217669   1.478   1.996   3.742
 5888TIP3    H117670   1.513   2.061   3.803
 5888TIP3    H217671   1.543   1.925   3.743
 5889TIP3   OH217672   1.604   4.923   0.216
 5889TIP3    H117673   1.684   4.880   0.187
 5889TIP3    H217674   1.582   4.982   0.144
 5890TIP3   OH217675   3.803   1.494   4.271
 5890TIP3    H117676   3.891   1.472   4.300
 5890TIP3    H217677   3.794   1.588   4.287
 5891TIP3   OH217678   1.593   2.479   5.133
 5891TIP3    H117679   1.597   2.561   5.182
 5891TIP3    H217680   1.563   2.505   5.045
 5892TIP3   OH217681   5.721   2.741   0.436
 5892TIP3    H117682   5.770   2.683   0.494
 5892TIP3    H217683   5.722   2.697   0.351
 5893TIP3   OH217684   1.187   5.737   4.576
 5893TIP3    H117685   1.156   5.827   4.567
 5893TIP3    H217686   1.134   5.701   4.648
 5894TIP3   OH217687   5.767   4.129   4.307
 5894TIP3    H117688   5.841   4.186   4.326
 5894TIP3    H217689   5.738   4.156   4.220
 5895TIP3   OH217690   2.581   1.880   1.353
 5895TIP3    H117691   2.536   1.892   1.436
 5895TIP3    H217692   2.653   1.943   1.355
 5896TIP3   OH217693   2.587   5.558   3.829
 5896TIP3    H117694   2.662   5.605   3.792
 5896TIP3    H217695   2.595   5.469   3.793
 5897TIP3   OH217696   6.236   2.527   2.197
 5897TIP3    H117697   6.256   2.616   2.228
 5897TIP3    H217698   6.228   2.536   2.102
 5898TIP3   OH217699   0.860   4.234   1.877
 5898TIP3    H117700   0.801   4.158   1.873
 5898TIP3    H217701   0.836   4.287   1.801
 5899TIP3   OH217702   1.092   2.861   4.380
 5899TIP3    H117703   1.163   2.913   4.342
 5899TIP3    H217704   1.036   2.925   4.424
 5900TIP3   OH217705   3.787   3.655   4.786
 5900TIP3    H117706   3.865   3.640   4.839
 5900TIP3    H217707   3.715   3.655   4.849
 5901TIP3   OH217708   1.330   0.402   0.596
 5901TIP3    H117709   1.310   0.436   0.509
 5901TIP3    H217710   1.260   0.338   0.614
 5902TIP3   OH217711   1.576   3.502   1.800
 5902TIP3    H117712   1.531   3.429   1.841
 5902TIP3    H217713   1.664   3.500   1.838
 5903TIP3   OH217714   4.920   2.777   2.793
 5903TIP3    H117715   4.883   2.791   2.706
 5903TIP3    H217716   4.963   2.691   2.787
 5904TIP3   OH217717   5.941   1.271   2.730
 5904TIP3    H117718   5.920   1.226   2.648
 5904TIP3    H217719   5.956   1.200   2.793
 5905TIP3   OH217720   0.993   5.133   0.546
 5905TIP3    H117721   1.077   5.176   0.563
 5905TIP3    H217722   1.011   5.073   0.473
 5906TIP3   OH217723   2.790   5.439   1.363
 5906TIP3    H117724   2.735   5.413   1.289
 5906TIP3    H217725   2.870   5.387   1.352
 5907TIP3   OH217726   5.957   5.060   1.061
 5907TIP3    H117727   5.933   4.984   1.115
 5907TIP3    H217728   6.047   5.080   1.087
 5908TIP3   OH217729   6.226   2.143   4.832
 5908TIP3    H117730   6.167   2.076   4.797
 5908TIP3    H217731   6.167   2.209   4.869
 5909TIP3   OH217732   0.650   3.912   2.577
 5909TIP3    H117733   0.626   3.997   2.541
 5909TIP3    H217734   0.735   3.926   2.618
 5910TIP3   OH217735   4.329   3.975   0.935
 5910TIP3    H117736   4.385   3.975   0.856
 5910TIP3    H217737   4.295   3.886   0.939
 5911TIP3   OH217738   2.883   1.454   4.342
 5911TIP3    H117739   2.850   1.382   4.288
 5911TIP3    H217740   2.804   1.498   4.374
 5912TIP3   OH217741   5.302   0.765   0.117
 5912TIP3    H117742   5.301   0.786   0.210
 5912TIP3    H217743   5.387   0.723   0.102
 5913TIP3   OH217744   0.424   3.501   4.975
 5913TIP3    H117745   0.332   3.517   4.995
 5913TIP3    H217746   0.472   3.552   5.040
 5914TIP3   OH217747   1.174   0.776   4.259
 5914TIP3    H117748   1.140   0.826   4.333
 5914TIP3    H217749   1.268   0.771   4.274
 5915TIP3   OH217750   3.622   0.281   2.447
 5915TIP3    H117751   3.616   0.367   2.406
 5915TIP3    H217752   3.642   0.221   2.375
 5916TIP3   OH217753   0.633   1.031   1.194
 5916TIP3    H117754   0.601   1.060   1.280
 5916TIP3    H217755   0.727   1.017   1.206
 5917TIP3   OH217756   0.262   5.479   3.397
 5917TIP3    H117757   0.269   5.385   3.412
 5917TIP3    H217758   0.225   5.487   3.309
 5918TIP3   OH217759   1.841   3.260   4.415
 5918TIP3    H117760   1.926   3.304   4.408
 5918TIP3    H217761   1.845   3.213   4.498
 5919TIP3   OH217762   0.352   4.527   4.807
 5919TIP3    H117763   0.369   4.469   4.732
 5919TIP3    H217764   0.408   4.603   4.792
 5920TIP3   OH217765   2.734   0.241   3.414
 5920TIP3    H117766   2.685   0.159   3.424
 5920TIP3    H217767   2.668   0.309   3.416
 5921TIP3   OH217768   5.298   0.444   3.740
 5921TIP3    H117769   5.316   0.356   3.707
 5921TIP3    H217770   5.206   0.441   3.768
 5922TIP3   OH217771   0.176   1.858   3.925
 5922TIP3    H117772   0.145   1.790   3.865
 5922TIP3    H217773   0.254   1.893   3.883
 5923TIP3   OH217774   1.147   2.630   1.118
 5923TIP3    H117775   1.221   2.662   1.067
 5923TIP3    H217776   1.188   2.577   1.187
 5924TIP3   OH217777   3.908   5.930   3.309
 5924TIP3    H117778   3.881   5.964   3.223
 5924TIP3    H217779   3.940   6.007   3.356
 5925TIP3   OH217780   2.627   5.936   1.531
 5925TIP3    H117781   2.619   5.851   1.487
 5925TIP3    H217782   2.720   5.958   1.523
 5926TIP3   OH217783   4.839   0.630   2.401
 5926TIP3    H117784   4.831   0.652   2.493
 5926TIP3    H217785   4.779   0.556   2.388
 5927TIP3   OH217786   2.180   3.445   0.483
 5927TIP3    H117787   2.189   3.355   0.513
 5927TIP3    H217788   2.086   3.458   0.472
 5928TIP3   OH217789   0.156   2.968   2.926
 5928TIP3    H117790   0.107   2.915   2.864
 5928TIP3    H217791   0.147   3.058   2.893
 5929TIP3   OH217792   2.915   5.350   0.163
 5929TIP3    H117793   2.843   5.290   0.144
 5929TIP3    H217794   2.884   5.436   0.134
 5930TIP3   OH217795   0.128   4.253   0.948
 5930TIP3    H117796   0.033   4.258   0.935
 5930TIP3    H217797   0.165   4.311   0.882
 5931TIP3   OH217798   3.917   4.996   1.076
 5931TIP3    H117799   3.881   4.941   1.006
 5931TIP3    H217800   3.998   4.952   1.101
 5932TIP3   OH217801   5.788   3.355   3.753
 5932TIP3    H117802   5.703   3.313   3.764
 5932TIP3    H217803   5.769   3.448   3.754
 5933TIP3   OH217804   2.205   1.119   1.769
 5933TIP3    H117805   2.182   1.195   1.715
 5933TIP3    H217806   2.291   1.091   1.735
 5934TIP3   OH217807   2.790   1.026   3.183
 5934TIP3    H117808   2.866   0.998   3.234
 5934TIP3    H217809   2.726   0.955   3.194
 5935TIP3   OH217810   4.124   0.837   0.598
 5935TIP3    H117811   4.128   0.925   0.560
 5935TIP3    H217812   4.115   0.778   0.523
 5936TIP3   OH217813   1.115   4.160   3.279
 5936TIP3    H117814   1.191   4.168   3.336
 5936TIP3    H217815   1.063   4.239   3.298
 5937TIP3   OH217816   4.272   5.826   1.706
 5937TIP3    H117817   4.336   5.897   1.702
 5937TIP3    H217818   4.199   5.863   1.756
 5938TIP3   OH217819   4.019   2.006   3.207
 5938TIP3    H117820   4.105   1.971   3.184
 5938TIP3    H217821   4.038   2.087   3.255
 5939TIP3   OH217822   4.247   4.174   2.761
 5939TIP3    H117823   4.335   4.204   2.786
 5939TIP3    H217824   4.237   4.090   2.805
 5940TIP3   OH217825   2.442   1.202   4.043
 5940TIP3    H117826   2.369   1.262   4.029
 5940TIP3    H217827   2.472   1.221   4.131
 5941TIP3   OH217828   1.231   5.338   0.869
 5941TIP3    H117829   1.318   5.309   0.897
 5941TIP3    H217830   1.239   5.355   0.776
 5942TIP3   OH217831   0.131   5.268  -0.018
 5942TIP3    H117832   0.111   5.295   0.072
 5942TIP3    H217833   0.086   5.184  -0.028
 5943TIP3   OH217834   0.314   3.525   1.976
 5943TIP3    H117835   0.381   3.591   1.995
 5943TIP3    H217836   0.254   3.531   2.051
 5944TIP3   OH217837   4.220   1.423   1.137
 5944TIP3    H117838   4.183   1.399   1.222
 5944TIP3    H217839   4.314   1.430   1.152
 5945TIP3   OH217840   3.130   0.173   5.189
 5945TIP3    H117841   3.155   0.243   5.129
 5945TIP3    H217842   3.044   0.144   5.157
 5946TIP3   OH217843   2.255   2.342   3.353
 5946TIP3    H117844   2.299   2.403   3.412
 5946TIP3    H217845   2.194   2.294   3.409
 5947TIP3   OH217846   3.734   0.925   3.159
 5947TIP3    H117847   3.776   0.848   3.121
 5947TIP3    H217848   3.721   0.984   3.085
 5948TIP3   OH217849   2.822   3.748   3.351
 5948TIP3    H117850   2.827   3.726   3.444
 5948TIP3    H217851   2.742   3.801   3.343
 5949TIP3   OH217852   0.797   2.150   4.714
 5949TIP3    H117853   0.767   2.241   4.710
 5949TIP3    H217854   0.730   2.105   4.765
 5950TIP3   OH217855   1.843   0.442   1.564
 5950TIP3    H117856   1.905   0.372   1.548
 5950TIP3    H217857   1.878   0.517   1.515
 5951TIP3   OH217858   6.046   4.771   2.834
 5951TIP3    H117859   5.965   4.782   2.784
 5951TIP3    H217860   6.105   4.838   2.798
 5952TIP3   OH217861   2.152   2.035   0.784
 5952TIP3    H117862   2.098   1.976   0.732
 5952TIP3    H217863   2.178   2.104   0.723
 5953TIP3   OH217864   4.844   1.436   3.245
 5953TIP3    H117865   4.904   1.437   3.320
 5953TIP3    H217866   4.839   1.344   3.220
 5954TIP3   OH217867   5.101   3.479   4.132
 5954TIP3    H117868   5.066   3.484   4.221
 5954TIP3    H217869   5.196   3.480   4.144
 5955TIP3   OH217870   2.660   3.212   1.051
 5955TIP3    H117871   2.565   3.222   1.055
 5955TIP3    H217872   2.675   3.148   0.982
 5956TIP3   OH217873   2.767   1.021   3.727
 5956TIP3    H117874   2.844   1.072   3.703
 5956TIP3    H217875   2.785   0.934   3.691
 5957TIP3   OH217876   1.634   0.944   4.621
 5957TIP3    H117877   1.653   0.861   4.577
 5957TIP3    H217878   1.620   0.920   4.713
 5958TIP3   OH217879   4.473   2.343   1.344
 5958TIP3    H117880   4.392   2.384   1.375
 5958TIP3    H217881   4.447   2.295   1.265
 5959TIP3   OH217882   3.372   3.128   1.192
 5959TIP3    H117883   3.281   3.119   1.166
 5959TIP3    H217884   3.421   3.131   1.110
 5960TIP3   OH217885   5.773   4.639   2.938
 5960TIP3    H117886   5.787   4.722   2.891
 5960TIP3    H217887   5.678   4.628   2.940
 5961TIP3   OH217888   2.871   2.299   2.330
 5961TIP3    H117889   2.858   2.248   2.409
 5961TIP3    H217890   2.789   2.347   2.319
 5962TIP3   OH217891   0.298   4.475   1.619
 5962TIP3    H117892   0.247   4.453   1.541
 5962TIP3    H217893   0.358   4.544   1.591
 5963TIP3   OH217894   1.544   0.786   2.721
 5963TIP3    H117895   1.478   0.762   2.655
 5963TIP3    H217896   1.627   0.783   2.674
 5964TIP3   OH217897   4.733   2.013   1.305
 5964TIP3    H117898   4.803   1.990   1.366
 5964TIP3    H217899   4.779   2.031   1.223
 5965TIP3   OH217900   0.875   3.780   3.309
 5965TIP3    H117901   0.789   3.739   3.311
 5965TIP3    H217902   0.934   3.715   3.348
 5966TIP3   OH217903   2.618   2.106   1.060
 5966TIP3    H117904   2.693   2.072   1.012
 5966TIP3    H217905   2.543   2.058   1.025
 5967TIP3   OH217906   1.434   1.308   1.286
 5967TIP3    H117907   1.355   1.303   1.339
 5967TIP3    H217908   1.484   1.381   1.324
 5968TIP3   OH217909   5.076   2.078   2.725
 5968TIP3    H117910   5.003   2.096   2.665
 5968TIP3    H217911   5.133   2.018   2.676
 5969TIP3   OH217912   2.742   4.488   4.868
 5969TIP3    H117913   2.742   4.571   4.821
 5969TIP3    H217914   2.765   4.510   4.958
 5970TIP3   OH217915   5.486   2.024   0.697
 5970TIP3    H117916   5.528   2.071   0.769
 5970TIP3    H217917   5.475   2.090   0.629
 5971TIP3   OH217918   2.664   0.600   1.460
 5971TIP3    H117919   2.682   0.587   1.553
 5971TIP3    H217920   2.598   0.670   1.458
 5972TIP3   OH217921   3.465   1.194   1.418
 5972TIP3    H117922   3.371   1.178   1.405
 5972TIP3    H217923   3.477   1.286   1.393
 5973TIP3   OH217924   0.155   5.616   1.134
 5973TIP3    H117925   0.230   5.650   1.085
 5973TIP3    H217926   0.168   5.647   1.223
 5974TIP3   OH217927   2.201   0.588   2.493
 5974TIP3    H117928   2.121   0.613   2.447
 5974TIP3    H217929   2.184   0.610   2.584
 5975TIP3   OH217930   3.815   3.092   4.467
 5975TIP3    H117931   3.823   3.019   4.406
 5975TIP3    H217932   3.775   3.162   4.415
 5976TIP3   OH217933   4.540   0.183   0.932
 5976TIP3    H117934   4.477   0.230   0.985
 5976TIP3    H217935   4.502   0.182   0.844
 5977TIP3   OH217936   4.596   2.922   4.611
 5977TIP3    H117937   4.527   2.860   4.586
 5977TIP3    H217938   4.677   2.873   4.601
 5978TIP3   OH217939   5.459   3.533   0.624
 5978TIP3    H117940   5.408   3.503   0.549
 5978TIP3    H217941   5.393   3.556   0.689
 5979TIP3   OH217942   5.138   3.616   2.066
 5979TIP3    H117943   5.184   3.691   2.028
 5979TIP3    H217944   5.049   3.624   2.032
 5980TIP3   OH217945   5.540   4.760   3.856
 5980TIP3    H117946   5.608   4.707   3.813
 5980TIP3    H217947   5.525   4.832   3.794
 5981TIP3   OH217948   4.186   4.469   0.546
 5981TIP3    H117949   4.230   4.385   0.562
 5981TIP3    H217950   4.106   4.464   0.597
 5982TIP3   OH217951   0.362   5.739   4.509
 5982TIP3    H117952   0.356   5.824   4.465
 5982TIP3    H217953   0.417   5.754   4.585
 5983TIP3   OH217954   0.658   5.692   5.042
 5983TIP3    H117955   0.749   5.690   5.070
 5983TIP3    H217956   0.651   5.771   4.988
 5984TIP3   OH217957   5.119   3.729   1.114
 5984TIP3    H117958   5.044   3.681   1.150
 5984TIP3    H217959   5.093   3.821   1.116
 5985TIP3   OH217960   5.821   1.235   3.870
 5985TIP3    H117961   5.881   1.285   3.814
 5985TIP3    H217962   5.734   1.254   3.835
 5986TIP3   OH217963   1.331   1.593   4.710
 5986TIP3    H117964   1.392   1.666   4.720
 5986TIP3    H217965   1.287   1.587   4.794
 5987TIP3   OH217966   0.523   1.028   3.464
 5987TIP3    H117967   0.491   0.941   3.439
 5987TIP3    H217968   0.615   1.014   3.487
 5988TIP3   OH217969   3.847   1.429   4.542
 5988TIP3    H117970   3.842   1.342   4.581
 5988TIP3    H217971   3.799   1.422   4.460
 5989TIP3   OH217972   3.167   2.140   0.320
 5989TIP3    H117973   3.220   2.141   0.400
 5989TIP3    H217974   3.225   2.176   0.253
 5990TIP3   OH217975   2.350   1.086   3.259
 5990TIP3    H117976   2.280   1.027   3.231
 5990TIP3    H217977   2.420   1.029   3.290
 5991TIP3   OH217978   5.841   5.619   0.500
 5991TIP3    H117979   5.911   5.600   0.438
 5991TIP3    H217980   5.886   5.641   0.581
 5992TIP3   OH217981   0.968   2.174   3.045
 5992TIP3    H117982   0.991   2.160   3.137
 5992TIP3    H217983   1.027   2.117   2.997
 5993TIP3   OH217984   0.167   2.651   4.548
 5993TIP3    H117985   0.085   2.617   4.585
 5993TIP3    H217986   0.147   2.665   4.455
 5994TIP3   OH217987   0.490   4.580   1.833
 5994TIP3    H117988   0.582   4.585   1.807
 5994TIP3    H217989   0.482   4.494   1.874
 5995TIP3   OH217990   3.857   3.855   2.143
 5995TIP3    H117991   3.851   3.780   2.202
 5995TIP3    H217992   3.783   3.910   2.166
 5996TIP3   OH217993   3.649   5.231   2.023
 5996TIP3    H117994   3.609   5.219   2.110
 5996TIP3    H217995   3.575   5.242   1.964
 5997TIP3   OH217996   5.299   4.366   3.011
 5997TIP3    H117997   5.302   4.286   3.064
 5997TIP3    H217998   5.214   4.405   3.031
 5998TIP3   OH217999   3.779   5.933   1.000
 5998TIP3    H118000   3.723   5.974   0.934
 5998TIP3    H218001   3.765   5.839   0.987
 5999TIP3   OH218002   0.914   4.625   3.341
 5999TIP3    H118003   0.981   4.647   3.405
 5999TIP3    H218004   0.933   4.681   3.266
 6000TIP3   OH218005   4.058   1.531   4.702
 6000TIP3    H118006   4.118   1.457   4.691
 6000TIP3    H218007   3.994   1.522   4.632
 6001TIP3   OH218008   3.745   1.374   3.240
 6001TIP3    H118009   3.749   1.452   3.295
 6001TIP3    H218010   3.807   1.313   3.280
 6002TIP3   OH218011   0.372   1.129   1.893
 6002TIP3    H118012   0.421   1.143   1.974
 6002TIP3    H218013   0.290   1.176   1.907
 6003TIP3   OH218014   4.165   2.333   3.691
 6003TIP3    H118015   4.215   2.331   3.772
 6003TIP3    H218016   4.232   2.340   3.622
 6004TIP3   OH218017   0.125   1.810   4.915
 6004TIP3    H118018   0.204   1.758   4.901
 6004TIP3    H218019   0.081   1.810   4.829
 6005TIP3   OH218020   4.152   0.847   0.159
 6005TIP3    H118021   4.221   0.886   0.213
 6005TIP3    H218022   4.121   0.918   0.104
 6006TIP3   OH218023   2.444   1.066   0.824
 6006TIP3    H118024   2.385   1.135   0.794
 6006TIP3    H218025   2.525   1.112   0.846
 6007TIP3   OH218026   1.625   5.807   1.897
 6007TIP3    H118027   1.580   5.810   1.981
 6007TIP3    H218028   1.597   5.724   1.858
 6008TIP3   OH218029   6.188   2.194   1.611
 6008TIP3    H118030   6.279   2.221   1.599
 6008TIP3    H218031   6.185   2.157   1.699
 6009TIP3   OH218032   2.435   2.110   2.539
 6009TIP3    H118033   2.413   2.068   2.457
 6009TIP3    H218034   2.531   2.105   2.545
 6010TIP3   OH218035   1.998   3.848   2.080
 6010TIP3    H118036   2.038   3.852   1.994
 6010TIP3    H218037   1.924   3.787   2.070
 6011TIP3   OH218038   6.211   0.806   4.318
 6011TIP3    H118039   6.137   0.774   4.371
 6011TIP3    H218040   6.281   0.822   4.381
 6012TIP3   OH218041   0.989   4.757   3.121
 6012TIP3    H118042   0.935   4.836   3.128
 6012TIP3    H218043   1.060   4.781   3.062
 6013TIP3   OH218044   1.830   2.205   4.576
 6013TIP3    H118045   1.873   2.209   4.662
 6013TIP3    H218046   1.876   2.270   4.523
 6014TIP3   OH218047   3.969   5.964   2.656
 6014TIP3    H118048   3.955   5.999   2.568
 6014TIP3    H218049   3.897   5.903   2.670
 6015TIP3   OH218050   2.241   4.889   4.836
 6015TIP3    H118051   2.193   4.835   4.774
 6015TIP3    H218052   2.218   4.852   4.922
 6016TIP3   OH218053   4.772   2.892   3.034
 6016TIP3    H118054   4.810   2.980   3.041
 6016TIP3    H218055   4.795   2.863   2.945
 6017TIP3   OH218056   5.890   5.529   3.058
 6017TIP3    H118057   5.874   5.572   2.974
 6017TIP3    H218058   5.937   5.595   3.110
 6018TIP3   OH218059   0.869   4.323   0.782
 6018TIP3    H118060   0.832   4.356   0.864
 6018TIP3    H218061   0.813   4.249   0.759
 6019TIP3   OH218062   4.616   1.518   4.944
 6019TIP3    H118063   4.683   1.573   4.985
 6019TIP3    H218064   4.621   1.541   4.851
 6020TIP3   OH218065   5.488   4.270   2.609
 6020TIP3    H118066   5.484   4.339   2.543
 6020TIP3    H218067   5.573   4.229   2.595
 6021TIP3   OH218068   1.958   3.357   1.514
 6021TIP3    H118069   1.882   3.365   1.457
 6021TIP3    H218070   2.018   3.426   1.485
 6022TIP3   OH218071   0.539   3.756   2.067
 6022TIP3    H118072   0.466   3.809   2.035
 6022TIP3    H218073   0.597   3.819   2.111
 6023TIP3   OH218074   4.470   0.764   4.455
 6023TIP3    H118075   4.490   0.703   4.384
 6023TIP3    H218076   4.433   0.709   4.524
 6024TIP3   OH218077   2.815   1.001   0.217
 6024TIP3    H118078   2.775   0.969   0.136
 6024TIP3    H218079   2.867   1.077   0.189
 6025TIP3   OH218080   2.070   2.717   4.840
 6025TIP3    H118081   2.108   2.787   4.893
 6025TIP3    H218082   2.123   2.716   4.760
 6026TIP3   OH218083   4.680   1.373   3.475
 6026TIP3    H118084   4.653   1.456   3.514
 6026TIP3    H218085   4.690   1.392   3.382
 6027TIP3   OH218086   1.379   3.213   3.904
 6027TIP3    H118087   1.326   3.291   3.919
 6027TIP3    H218088   1.360   3.189   3.813
 6028TIP3   OH218089   1.760   3.496   3.237
 6028TIP3    H118090   1.783   3.520   3.327
 6028TIP3    H218091   1.665   3.482   3.240
 6029TIP3   OH218092   2.868   0.584   0.033
 6029TIP3    H118093   2.962   0.585   0.017
 6029TIP3    H218094   2.858   0.536   0.115
 6030TIP3   OH218095   4.409   3.367   0.278
 6030TIP3    H118096   4.430   3.437   0.216
 6030TIP3    H218097   4.494   3.326   0.297
 6031TIP3   OH218098   4.961   4.065   2.593
 6031TIP3    H118099   5.029   4.096   2.653
 6031TIP3    H218100   4.967   4.123   2.518
 6032TIP3   OH218101   5.925   5.730   3.839
 6032TIP3    H118102   5.866   5.712   3.913
 6032TIP3    H218103   5.900   5.665   3.773
 6033TIP3   OH218104   0.735   5.309   3.975
 6033TIP3    H118105   0.643   5.279   3.977
 6033TIP3    H218106   0.738   5.382   4.037
 6034TIP3   OH218107   5.222   5.886   3.355
 6034TIP3    H118108   5.134   5.924   3.352
 6034TIP3    H218109   5.253   5.891   3.264
 6035TIP3   OH218110   2.099   0.223   0.300
 6035TIP3    H118111   2.053   0.171   0.235
 6035TIP3    H218112   2.061   0.311   0.291
 6036TIP3   OH218113   3.282   5.510   0.540
 6036TIP3    H118114   3.330   5.578   0.493
 6036TIP3    H218115   3.248   5.452   0.472
 6037TIP3   OH218116   1.117   0.550   2.289
 6037TIP3    H118117   1.032   0.510   2.304
 6037TIP3    H218118   1.180   0.480   2.308
 6038TIP3   OH218119   3.240   0.305   0.158
 6038TIP3    H118120   3.299   0.376   0.184
 6038TIP3    H218121   3.209   0.267   0.241
 6039TIP3   OH218122   3.519   0.511   1.559
 6039TIP3    H118123   3.485   0.585   1.509
 6039TIP3    H218124   3.610   0.501   1.529
 6040TIP3   OH218125   4.133   0.787   4.133
 6040TIP3    H118126   4.175   0.705   4.158
 6040TIP3    H218127   4.119   0.780   4.039
 6041TIP3   OH218128   1.112   4.370   5.098
 6041TIP3    H118129   1.086   4.365   5.190
 6041TIP3    H218130   1.056   4.306   5.054
 6042TIP3   OH218131   5.432   4.320   0.413
 6042TIP3    H118132   5.514   4.364   0.435
 6042TIP3    H218133   5.364   4.384   0.432
 6043TIP3   OH218134   4.426   2.113   1.151
 6043TIP3    H118135   4.412   2.095   1.058
 6043TIP3    H218136   4.430   2.027   1.192
 6044TIP3   OH218137   4.947   5.755   3.650
 6044TIP3    H118138   5.021   5.705   3.684
 6044TIP3    H218139   4.880   5.689   3.633
 6045TIP3   OH218140   0.788   5.864   4.824
 6045TIP3    H118141   0.834   5.904   4.898
 6045TIP3    H218142   0.858   5.839   4.763
 6046TIP3   OH218143   0.361   4.559   4.532
 6046TIP3    H118144   0.309   4.498   4.480
 6046TIP3    H218145   0.444   4.565   4.486
 6047TIP3   OH218146   3.552   1.765   2.943
 6047TIP3    H118147   3.585   1.759   2.853
 6047TIP3    H218148   3.620   1.724   2.996
 6048TIP3   OH218149   4.237   5.212   2.266
 6048TIP3    H118150   4.188   5.292   2.246
 6048TIP3    H218151   4.328   5.236   2.251
 6049TIP3   OH218152   0.503   3.625   1.682
 6049TIP3    H118153   0.513   3.531   1.669
 6049TIP3    H218154   0.417   3.645   1.646
 6050TIP3   OH218155   3.304   4.666   4.514
 6050TIP3    H118156   3.359   4.730   4.470
 6050TIP3    H218157   3.360   4.589   4.525
 6051TIP3   OH218158   3.399   2.574   3.281
 6051TIP3    H118159   3.455   2.497   3.292
 6051TIP3    H218160   3.447   2.644   3.324
 6052TIP3   OH218161   0.904   5.357   2.315
 6052TIP3    H118162   0.820   5.315   2.329
 6052TIP3    H218163   0.914   5.360   2.219
 6053TIP3   OH218164   1.745   2.758   1.716
 6053TIP3    H118165   1.705   2.785   1.634
 6053TIP3    H218166   1.704   2.674   1.737
 6054TIP3   OH218167   0.219   2.382   5.102
 6054TIP3    H118168   0.192   2.473   5.090
 6054TIP3    H218169   0.209   2.343   5.015
 6055TIP3   OH218170   0.524   4.983   3.815
 6055TIP3    H118171   0.486   5.066   3.788
 6055TIP3    H218172   0.598   5.007   3.871
 6056TIP3   OH218173   0.029   2.295   2.217
 6056TIP3    H118174   0.118   2.316   2.189
 6056TIP3    H218175  -0.021   2.375   2.201
 6057TIP3   OH218176   4.854   3.606   3.791
 6057TIP3    H118177   4.927   3.633   3.847
 6057TIP3    H218178   4.802   3.548   3.846
 6058TIP3   OH218179   6.215   2.680   0.896
 6058TIP3    H118180   6.243   2.753   0.952
 6058TIP3    H218181   6.138   2.645   0.939
 6059TIP3   OH218182   0.585   2.269   5.034
 6059TIP3    H118183   0.555   2.305   4.951
 6059TIP3    H218184   0.563   2.336   5.099
 6060TIP3   OH218185   5.832   3.197   0.489
 6060TIP3    H118186   5.917   3.239   0.478
 6060TIP3    H218187   5.822   3.142   0.411
 6061TIP3   OH218188   3.870   4.533   1.832
 6061TIP3    H118189   3.938   4.590   1.794
 6061TIP3    H218190   3.820   4.590   1.890
 6062TIP3   OH218191   2.942   5.827   1.109
 6062TIP3    H118192   2.995   5.889   1.160
 6062TIP3    H218193   2.954   5.855   1.018
 6063TIP3   OH218194   6.168   1.622   0.548
 6063TIP3    H118195   6.108   1.563   0.503
 6063TIP3    H218196   6.172   1.699   0.491
 6064TIP3   OH218197   0.360   5.014   4.111
 6064TIP3    H118198   0.279   5.032   4.063
 6064TIP3    H218199   0.403   5.099   4.118
 6065TIP3   OH218200   2.465   0.494   0.935
 6065TIP3    H118201   2.515   0.412   0.940
 6065TIP3    H218202   2.447   0.505   0.842
 6066TIP3   OH218203   0.790   1.274   3.015
 6066TIP3    H118204   0.835   1.217   3.076
 6066TIP3    H218205   0.732   1.328   3.070
 6067TIP3   OH218206   2.584   4.133   2.230
 6067TIP3    H118207   2.622   4.080   2.300
 6067TIP3    H218208   2.652   4.136   2.162
 6068TIP3   OH218209   3.918   4.777   3.045
 6068TIP3    H118210   3.978   4.793   2.972
 6068TIP3    H218211   3.865   4.703   3.016
 6069TIP3   OH218212   3.816   5.238   4.669
 6069TIP3    H118213   3.876   5.256   4.742
 6069TIP3    H218214   3.830   5.145   4.649
 6070TIP3   OH218215   4.066   5.449   2.165
 6070TIP3    H118216   4.095   5.539   2.175
 6070TIP3    H218217   3.983   5.455   2.118
 6071TIP3   OH218218   0.678   1.901   1.694
 6071TIP3    H118219   0.670   1.815   1.655
 6071TIP3    H218220   0.770   1.909   1.718
 6072TIP3   OH218221   2.229   3.979   1.206
 6072TIP3    H118222   2.306   3.974   1.149
 6072TIP3    H218223   2.248   3.918   1.277
 6073TIP3   OH218224   5.898   0.741   3.215
 6073TIP3    H118225   5.937   0.697   3.140
 6073TIP3    H218226   5.935   0.695   3.291
 6074TIP3   OH218227   0.100   4.412   4.717
 6074TIP3    H118228   0.011   4.428   4.749
 6074TIP3    H218229   0.150   4.488   4.746
 6075TIP3   OH218230   2.063   2.411   4.341
 6075TIP3    H118231   2.073   2.406   4.245
 6075TIP3    H218232   1.972   2.435   4.354
 6076TIP3   OH218233   5.546   1.026   2.046
 6076TIP3    H118234   5.472   1.044   1.988
 6076TIP3    H218235   5.535   0.935   2.072
 6077TIP3   OH218236   1.747   0.164   5.131
 6077TIP3    H118237   1.835   0.135   5.154
 6077TIP3    H218238   1.760   0.232   5.065
 6078TIP3   OH218239   2.303   3.756   0.808
 6078TIP3    H118240   2.308   3.757   0.712
 6078TIP3    H218241   2.258   3.838   0.830
 6079TIP3   OH218242   3.520   5.063   3.659
 6079TIP3    H118243   3.489   5.041   3.747
 6079TIP3    H218244   3.496   5.155   3.647
 6080TIP3   OH218245   6.011   3.273   0.197
 6080TIP3    H118246   6.089   3.217   0.194
 6080TIP3    H218247   6.024   3.327   0.275
 6081TIP3   OH218248   0.839   3.696   2.168
 6081TIP3    H118249   0.825   3.649   2.250
 6081TIP3    H218250   0.921   3.744   2.182
 6082TIP3   OH218251   0.282   4.475   0.474
 6082TIP3    H118252   0.373   4.446   0.480
 6082TIP3    H218253   0.243   4.415   0.409
 6083TIP3   OH218254   1.886   1.548   3.109
 6083TIP3    H118255   1.855   1.636   3.133
 6083TIP3    H218256   1.954   1.529   3.174
 6084TIP3   OH218257   5.751   0.754   0.570
 6084TIP3    H118258   5.726   0.844   0.548
 6084TIP3    H218259   5.725   0.703   0.493
 6085TIP3   OH218260   1.332   3.814   4.634
 6085TIP3    H118261   1.282   3.845   4.559
 6085TIP3    H218262   1.395   3.884   4.651
 6086TIP3   OH218263   3.750   4.018   3.670
 6086TIP3    H118264   3.717   3.992   3.756
 6086TIP3    H218265   3.717   3.951   3.611
 6087TIP3   OH218266   1.570   4.326   2.299
 6087TIP3    H118267   1.629   4.347   2.372
 6087TIP3    H218268   1.505   4.267   2.336
 6088TIP3   OH218269   4.916   3.993   2.183
 6088TIP3    H118270   4.851   4.062   2.198
 6088TIP3    H218271   4.864   3.913   2.173
 6089TIP3   OH218272   4.497   4.262   3.791
 6089TIP3    H118273   4.440   4.194   3.754
 6089TIP3    H218274   4.475   4.263   3.884
 6090TIP3   OH218275   2.235   4.053   4.609
 6090TIP3    H118276   2.195   3.989   4.551
 6090TIP3    H218277   2.170   4.068   4.677
 6091TIP3   OH218278   0.930   2.422   0.981
 6091TIP3    H118279   0.861   2.436   1.046
 6091TIP3    H218280   0.998   2.374   1.029
 6092TIP3   OH218281   2.766   3.185   0.220
 6092TIP3    H118282   2.853   3.185   0.180
 6092TIP3    H218283   2.760   3.100   0.264
 6093TIP3   OH218284   1.216   5.328   3.113
 6093TIP3    H118285   1.126   5.329   3.081
 6093TIP3    H218286   1.245   5.419   3.109
 6094TIP3   OH218287   0.444   5.383   0.491
 6094TIP3    H118288   0.453   5.408   0.583
 6094TIP3    H218289   0.359   5.418   0.465
 6095TIP3   OH218290   1.318   0.410   4.847
 6095TIP3    H118291   1.323   0.316   4.833
 6095TIP3    H218292   1.400   0.444   4.810
 6096TIP3   OH218293   0.137   5.370   4.217
 6096TIP3    H118294   0.066   5.370   4.153
 6096TIP3    H218295   0.160   5.462   4.227
 6097TIP3   OH218296   2.741   5.750   4.795
 6097TIP3    H118297   2.668   5.773   4.853
 6097TIP3    H218298   2.818   5.758   4.851
 6098TIP3   OH218299   2.166   2.498   0.766
 6098TIP3    H118300   2.082   2.476   0.805
 6098TIP3    H218301   2.205   2.561   0.826
 6099TIP3   OH218302   0.680   2.279   3.491
 6099TIP3    H118303   0.642   2.197   3.460
 6099TIP3    H218304   0.689   2.267   3.585
 6100TIP3   OH218305   5.679   0.459   2.490
 6100TIP3    H118306   5.653   0.371   2.464
 6100TIP3    H218307   5.621   0.482   2.563
 6101TIP3   OH218308   2.565   3.392   3.797
 6101TIP3    H118309   2.483   3.389   3.748
 6101TIP3    H218310   2.540   3.420   3.885
 6102TIP3   OH218311   2.186   5.245   0.884
 6102TIP3    H118312   2.152   5.167   0.927
 6102TIP3    H218313   2.113   5.276   0.830
 6103TIP3   OH218314   1.895   1.960   3.582
 6103TIP3    H118315   1.967   1.992   3.528
 6103TIP3    H218316   1.906   2.005   3.666
 6104TIP3   OH218317   0.717   3.371   3.181
 6104TIP3    H118318   0.761   3.299   3.226
 6104TIP3    H218319   0.703   3.339   3.092
 6105TIP3   OH218320   1.316   2.029   4.011
 6105TIP3    H118321   1.292   1.956   3.954
 6105TIP3    H218322   1.308   1.993   4.100
 6106TIP3   OH218323   5.824   4.370   2.917
 6106TIP3    H118324   5.764   4.355   2.989
 6106TIP3    H218325   5.817   4.463   2.898
 6107TIP3   OH218326   4.817   1.195   3.821
 6107TIP3    H118327   4.746   1.168   3.880
 6107TIP3    H218328   4.799   1.287   3.801
 6108TIP3   OH218329   2.920   3.242   4.391
 6108TIP3    H118330   3.013   3.224   4.402
 6108TIP3    H218331   2.894   3.190   4.315
 6109TIP3   OH218332   3.309   1.008   2.528
 6109TIP3    H118333   3.316   1.068   2.454
 6109TIP3    H218334   3.237   1.042   2.580
 6110TIP3   OH218335   1.582   5.393   3.152
 6110TIP3    H118336   1.630   5.464   3.107
 6110TIP3    H218337   1.490   5.418   3.144
 6111TIP3   OH218338   3.985   1.335   3.025
 6111TIP3    H118339   3.970   1.269   3.094
 6111TIP3    H218340   4.080   1.342   3.020
 6112TIP3   OH218341   5.484   0.868   0.901
 6112TIP3    H118342   5.495   0.963   0.909
 6112TIP3    H218343   5.562   0.832   0.943
 6113TIP3   OH218344   3.683   0.825   1.542
 6113TIP3    H118345   3.740   0.748   1.546
 6113TIP3    H218346   3.661   0.843   1.633
 6114TIP3   OH218347   5.481   5.181   0.791
 6114TIP3    H118348   5.446   5.265   0.759
 6114TIP3    H218349   5.528   5.204   0.872
 6115TIP3   OH218350   2.300   1.278   3.468
 6115TIP3    H118351   2.318   1.232   3.386
 6115TIP3    H218352   2.301   1.371   3.443
 6116TIP3   OH218353   5.274   2.916   3.591
 6116TIP3    H118354   5.340   2.867   3.542
 6116TIP3    H218355   5.235   2.974   3.526
 6117TIP3   OH218356   1.965   1.500   3.618
 6117TIP3    H118357   1.982   1.406   3.610
 6117TIP3    H218358   1.912   1.508   3.698
 6118TIP3   OH218359   3.218   1.858   0.618
 6118TIP3    H118360   3.257   1.923   0.676
 6118TIP3    H218361   3.282   1.786   0.616
 6119TIP3   OH218362   6.023   0.971   0.405
 6119TIP3    H118363   5.937   1.008   0.423
 6119TIP3    H218364   6.073   1.044   0.369
 6120TIP3   OH218365   4.459   1.402   2.813
 6120TIP3    H118366   4.421   1.319   2.784
 6120TIP3    H218367   4.484   1.446   2.732
 6121TIP3   OH218368   1.940   1.365   1.006
 6121TIP3    H118369   1.945   1.387   0.913
 6121TIP3    H218370   1.847   1.355   1.024
 6122TIP3   OH218371   0.046   4.834   0.284
 6122TIP3    H118372   0.044   4.794   0.371
 6122TIP3    H218373  -0.007   4.775   0.230
 6123TIP3   OH218374   0.556   0.428  -0.021
 6123TIP3    H118375   0.531   0.380   0.058
 6123TIP3    H218376   0.548   0.520   0.004
 6124TIP3   OH218377   0.964   3.017   3.812
 6124TIP3    H118378   0.962   3.086   3.878
 6124TIP3    H218379   0.943   3.063   3.730
 6125TIP3   OH218380   3.402   1.513   2.596
 6125TIP3    H118381   3.454   1.435   2.613
 6125TIP3    H218382   3.392   1.556   2.681
 6126TIP3   OH218383   3.352   5.320   2.686
 6126TIP3    H118384   3.265   5.351   2.661
 6126TIP3    H218385   3.356   5.333   2.781
 6127TIP3   OH218386   2.227   5.041   3.878
 6127TIP3    H118387   2.163   5.042   3.806
 6127TIP3    H218388   2.276   5.123   3.868
 6128TIP3   OH218389   2.233   5.237   2.663
 6128TIP3    H118390   2.231   5.145   2.637
 6128TIP3    H218391   2.326   5.262   2.657
 6129TIP3   OH218392   1.850   2.941   3.038
 6129TIP3    H118393   1.761   2.961   3.011
 6129TIP3    H218394   1.852   2.963   3.131
 6130TIP3   OH218395   1.197   4.823   0.199
 6130TIP3    H118396   1.118   4.830   0.146
 6130TIP3    H218397   1.261   4.879   0.155
 6131TIP3   OH218398   2.673   3.005   4.003
 6131TIP3    H118399   2.718   2.984   4.085
 6131TIP3    H218400   2.588   2.961   4.010
 6132TIP3   OH218401   2.591   1.815   2.483
 6132TIP3    H118402   2.637   1.896   2.464
 6132TIP3    H218403   2.610   1.796   2.574
 6133TIP3   OH218404   2.994   2.938   2.356
 6133TIP3    H118405   3.073   2.988   2.376
 6133TIP3    H218406   3.027   2.852   2.328
 6134TIP3   OH218407   5.605   0.275   5.030
 6134TIP3    H118408   5.515   0.303   5.017
 6134TIP3    H218409   5.603   0.220   5.108
 6135TIP3   OH218410   5.788   1.711   1.531
 6135TIP3    H118411   5.840   1.788   1.551
 6135TIP3    H218412   5.702   1.745   1.507
 6136TIP3   OH218413   4.527   4.180   2.670
 6136TIP3    H118414   4.571   4.098   2.694
 6136TIP3    H218415   4.473   4.157   2.595
 6137TIP3   OH218416   5.492   4.482   4.435
 6137TIP3    H118417   5.444   4.466   4.516
 6137TIP3    H218418   5.426   4.476   4.366
 6138TIP3   OH218419   3.385   4.191   3.008
 6138TIP3    H118420   3.325   4.166   3.078
 6138TIP3    H218421   3.446   4.252   3.050
 6139TIP3   OH218422   6.291   1.600   1.645
 6139TIP3    H118423   6.285   1.509   1.673
 6139TIP3    H218424   6.212   1.615   1.594
 6140TIP3   OH218425   1.171   0.961   3.706
 6140TIP3    H118426   1.184   1.055   3.719
 6140TIP3    H218427   1.081   0.946   3.734
 6141TIP3   OH218428   3.757   3.649   0.556
 6141TIP3    H118429   3.756   3.564   0.511
 6141TIP3    H218430   3.807   3.706   0.497
 6142TIP3   OH218431   4.639   3.278   1.542
 6142TIP3    H118432   4.595   3.355   1.580
 6142TIP3    H218433   4.720   3.312   1.505
 6143TIP3   OH218434   2.796   0.578   4.826
 6143TIP3    H118435   2.823   0.669   4.837
 6143TIP3    H218436   2.820   0.557   4.736
 6144TIP3   OH218437   5.790   2.195   0.728
 6144TIP3    H118438   5.877   2.168   0.760
 6144TIP3    H218439   5.805   2.220   0.637
 6145TIP3   OH218440   2.389   4.237   5.139
 6145TIP3    H118441   2.298   4.240   5.111
 6145TIP3    H218442   2.422   4.326   5.123
 6146TIP3   OH218443   0.840   0.166   0.639
 6146TIP3    H118444   0.818   0.252   0.675
 6146TIP3    H218445   0.789   0.104   0.691
 6147TIP3   OH218446   4.122   2.607   3.123
 6147TIP3    H118447   4.121   2.561   3.207
 6147TIP3    H218448   4.056   2.676   3.133
 6148TIP3   OH218449   3.227   5.823   0.838
 6148TIP3    H118450   3.158   5.798   0.776
 6148TIP3    H218451   3.284   5.746   0.842
 6149TIP3   OH218452   1.751   5.519   0.162
 6149TIP3    H118453   1.778   5.435   0.198
 6149TIP3    H218454   1.719   5.568   0.237
 6150TIP3   OH218455   0.789   4.284   3.809
 6150TIP3    H118456   0.697   4.281   3.783
 6150TIP3    H218457   0.786   4.295   3.904
 6151TIP3   OH218458   1.282   4.230   3.518
 6151TIP3    H118459   1.334   4.291   3.467
 6151TIP3    H218460   1.337   4.208   3.593
 6152TIP3   OH218461   5.870   3.762   1.927
 6152TIP3    H118462   5.950   3.814   1.931
 6152TIP3    H218463   5.815   3.797   1.997
 6153TIP3   OH218464   3.415   1.630   5.098
 6153TIP3    H118465   3.332   1.670   5.074
 6153TIP3    H218466   3.455   1.605   5.015
 6154TIP3   OH218467   2.766   1.760   1.097
 6154TIP3    H118468   2.676   1.753   1.065
 6154TIP3    H218469   2.774   1.851   1.127
 6155TIP3   OH218470   2.501   5.203   1.390
 6155TIP3    H118471   2.541   5.232   1.308
 6155TIP3    H218472   2.463   5.117   1.369
 6156TIP3   OH218473   0.371   3.089   1.590
 6156TIP3    H118474   0.293   3.118   1.542
 6156TIP3    H218475   0.402   3.013   1.541
 6157TIP3   OH218476   0.616   1.934   4.775
 6157TIP3    H118477   0.524   1.962   4.768
 6157TIP3    H218478   0.611   1.840   4.792
 6158TIP3   OH218479   5.476   4.597   1.914
 6158TIP3    H118480   5.426   4.677   1.902
 6158TIP3    H218481   5.430   4.550   1.984
 6159TIP3   OH218482   2.329   5.667   3.925
 6159TIP3    H118483   2.405   5.621   3.890
 6159TIP3    H218484   2.357   5.758   3.932
 6160TIP3   OH218485   4.971   5.505   2.476
 6160TIP3    H118486   5.057   5.532   2.508
 6160TIP3    H218487   4.909   5.553   2.531
 6161TIP3   OH218488   0.630   1.610   2.816
 6161TIP3    H118489   0.697   1.542   2.810
 6161TIP3    H218490   0.596   1.618   2.727
 6162TIP3   OH218491   0.088   0.193   4.442
 6162TIP3    H118492   0.028   0.244   4.496
 6162TIP3    H218493   0.033   0.156   4.372
 6163TIP3   OH218494   5.281   4.988   5.132
 6163TIP3    H118495   5.346   5.007   5.064
 6163TIP3    H218496   5.288   4.893   5.145
 6164TIP3   OH218497   1.315   0.111   4.111
 6164TIP3    H118498   1.328   0.200   4.079
 6164TIP3    H218499   1.362   0.107   4.194
 6165TIP3   OH218500   1.857   4.017   0.222
 6165TIP3    H118501   1.806   4.043   0.146
 6165TIP3    H218502   1.796   4.022   0.296
 6166TIP3   OH218503   4.658   1.093   5.057
 6166TIP3    H118504   4.604   1.169   5.080
 6166TIP3    H218505   4.602   1.018   5.077
 6167TIP3   OH218506   4.559   5.038   1.240
 6167TIP3    H118507   4.508   4.988   1.303
 6167TIP3    H218508   4.498   5.057   1.169
 6168TIP3   OH218509   0.205   5.320   4.592
 6168TIP3    H118510   0.255   5.370   4.528
 6168TIP3    H218511   0.242   5.232   4.588
 6169TIP3   OH218512   3.709   4.008   2.471
 6169TIP3    H118513   3.665   3.996   2.555
 6169TIP3    H218514   3.780   4.070   2.490
 6170TIP3   OH218515   1.672   2.285   4.185
 6170TIP3    H118516   1.671   2.369   4.139
 6170TIP3    H218517   1.714   2.305   4.269
 6171TIP3   OH218518   3.136   3.667   0.995
 6171TIP3    H118519   3.148   3.582   0.952
 6171TIP3    H218520   3.139   3.731   0.924
 6172TIP3   OH218521   2.724   0.844   4.617
 6172TIP3    H118522   2.660   0.786   4.577
 6172TIP3    H218523   2.684   0.872   4.699
 6173TIP3   OH218524   0.980   1.730   1.410
 6173TIP3    H118525   0.959   1.679   1.332
 6173TIP3    H218526   0.941   1.816   1.393
 6174TIP3   OH218527   0.934   3.973   0.103
 6174TIP3    H118528   0.856   3.966   0.048
 6174TIP3    H218529   0.924   3.902   0.167
 6175TIP3   OH218530   0.536   5.844   0.388
 6175TIP3    H118531   0.514   5.927   0.431
 6175TIP3    H218532   0.459   5.789   0.401
 6176TIP3   OH218533   5.719   2.283   3.315
 6176TIP3    H118534   5.806   2.275   3.356
 6176TIP3    H218535   5.658   2.260   3.385
 6177TIP3   OH218536   4.970   4.278   2.887
 6177TIP3    H118537   5.039   4.326   2.842
 6177TIP3    H218538   4.889   4.317   2.855
 6178TIP3   OH218539   3.741   0.659   2.838
 6178TIP3    H118540   3.800   0.631   2.909
 6178TIP3    H218541   3.772   0.746   2.814
 6179TIP3   OH218542   0.210   2.298   3.518
 6179TIP3    H118543   0.278   2.347   3.471
 6179TIP3    H218544   0.220   2.208   3.488
 6180TIP3   OH218545   0.510   4.643   0.152
 6180TIP3    H118546   0.442   4.679   0.208
 6180TIP3    H218547   0.578   4.614   0.212
 6181TIP3   OH218548   2.257   0.421   4.318
 6181TIP3    H118549   2.161   0.429   4.313
 6181TIP3    H218550   2.274   0.327   4.316
 6182TIP3   OH218551   1.605   3.070   0.772
 6182TIP3    H118552   1.697   3.046   0.764
 6182TIP3    H218553   1.557   3.001   0.728
 6183TIP3   OH218554   5.584   4.678   4.994
 6183TIP3    H118555   5.608   4.593   5.030
 6183TIP3    H218556   5.538   4.722   5.065
 6184TIP3   OH218557   1.384   2.949   3.559
 6184TIP3    H118558   1.404   3.033   3.600
 6184TIP3    H218559   1.444   2.887   3.601
 6185TIP3   OH218560   3.040   2.110   4.238
 6185TIP3    H118561   3.127   2.073   4.248
 6185TIP3    H218562   3.042   2.190   4.291
 6186TIP3   OH218563   4.372   4.853   1.360
 6186TIP3    H118564   4.282   4.852   1.392
 6186TIP3    H218565   4.395   4.761   1.350
 6187TIP3   OH218566   1.394   3.905   3.033
 6187TIP3    H118567   1.385   3.951   3.116
 6187TIP3    H218568   1.434   3.821   3.055
 6188TIP3   OH218569   6.328   0.663   0.523
 6188TIP3    H118570   6.281   0.669   0.606
 6188TIP3    H218571   6.330   0.754   0.491
 6189TIP3   OH218572   0.846   3.077   4.171
 6189TIP3    H118573   0.762   3.031   4.163
 6189TIP3    H218574   0.879   3.051   4.257
 6190TIP3   OH218575   6.005   0.755   1.110
 6190TIP3    H118576   6.086   0.719   1.146
 6190TIP3    H218577   5.935   0.713   1.160
 6191TIP3   OH218578   3.649   3.720   4.994
 6191TIP3    H118579   3.712   3.716   5.066
 6191TIP3    H218580   3.629   3.813   4.985
 6192TIP3   OH218581   3.918   5.667   0.425
 6192TIP3    H118582   3.891   5.699   0.338
 6192TIP3    H218583   4.004   5.705   0.439
 6193TIP3   OH218584   0.308   1.698   1.973
 6193TIP3    H118585   0.333   1.607   1.957
 6193TIP3    H218586   0.267   1.726   1.891
 6194TIP3   OH218587   5.016   4.788   3.169
 6194TIP3    H118588   4.942   4.843   3.194
 6194TIP3    H218589   5.036   4.738   3.248
 6195TIP3   OH218590   0.148   0.096   0.511
 6195TIP3    H118591   0.088   0.081   0.584
 6195TIP3    H218592   0.190   0.179   0.532
 6196TIP3   OH218593   3.472   4.975   3.938
 6196TIP3    H118594   3.552   4.926   3.960
 6196TIP3    H218595   3.415   4.963   4.014
 6197TIP3   OH218596   4.399   3.610   4.292
 6197TIP3    H118597   4.436   3.598   4.204
 6197TIP3    H218598   4.307   3.631   4.276
 6198TIP3   OH218599   3.898   2.033   0.461
 6198TIP3    H118600   3.885   1.968   0.530
 6198TIP3    H218601   3.824   2.093   0.469
 6199TIP3   OH218602   3.294   0.261   2.515
 6199TIP3    H118603   3.270   0.278   2.423
 6199TIP3    H218604   3.248   0.180   2.537
 6200TIP3   OH218605   5.967   2.160   2.447
 6200TIP3    H118606   5.970   2.168   2.542
 6200TIP3    H218607   5.997   2.244   2.415
 6201TIP3   OH218608   0.642   0.253   0.866
 6201TIP3    H118609   0.573   0.282   0.806
 6201TIP3    H218610   0.614   0.284   0.952
 6202TIP3   OH218611   5.256   1.436   4.534
 6202TIP3    H118612   5.281   1.364   4.475
 6202TIP3    H218613   5.337   1.486   4.546
 6203TIP3   OH218614   3.775   3.198   0.205
 6203TIP3    H118615   3.863   3.211   0.241
 6203TIP3    H218616   3.790   3.166   0.116
 6204TIP3   OH218617   2.308   1.775   0.517
 6204TIP3    H118618   2.297   1.823   0.435
 6204TIP3    H218619   2.366   1.831   0.569
 6205TIP3   OH218620   0.847   4.519   4.667
 6205TIP3    H118621   0.791   4.565   4.730
 6205TIP3    H218622   0.870   4.585   4.602
 6206TIP3   OH218623   2.902   5.753   4.501
 6206TIP3    H118624   2.817   5.709   4.493
 6206TIP3    H218625   2.880   5.844   4.523
 6207TIP3   OH218626   1.850   5.712   2.151
 6207TIP3    H118627   1.892   5.795   2.129
 6207TIP3    H218628   1.828   5.719   2.244
 6208TIP3   OH218629   3.241   2.894   1.609
 6208TIP3    H118630   3.247   2.906   1.704
 6208TIP3    H218631   3.164   2.946   1.584
 6209TIP3   OH218632   3.875   2.480   1.583
 6209TIP3    H118633   3.792   2.453   1.544
 6209TIP3    H218634   3.852   2.547   1.647
 6210TIP3   OH218635   2.933   5.141   4.153
 6210TIP3    H118636   3.004   5.203   4.136
 6210TIP3    H218637   2.885   5.178   4.227
 6211TIP3   OH218638   6.153   0.148   0.272
 6211TIP3    H118639   6.079   0.113   0.222
 6211TIP3    H218640   6.166   0.236   0.237
 6212TIP3   OH218641   3.790   4.221   0.505
 6212TIP3    H118642   3.760   4.206   0.595
 6212TIP3    H218643   3.843   4.300   0.510
 6213TIP3   OH218644   0.522   5.696   4.211
 6213TIP3    H118645   0.484   5.651   4.135
 6213TIP3    H218646   0.565   5.627   4.261
 6214TIP3   OH218647   0.527   0.038   4.199
 6214TIP3    H118648   0.439   0.031   4.237
 6214TIP3    H218649   0.515   0.015   4.107
 6215TIP3   OH218650   0.309   3.676   3.409
 6215TIP3    H118651   0.384   3.645   3.460
 6215TIP3    H218652   0.255   3.598   3.395
 6216TIP3   OH218653   0.045   3.137   3.627
 6216TIP3    H118654   0.104   3.105   3.559
 6216TIP3    H218655   0.088   3.114   3.710
 6217TIP3   OH218656   4.441   2.520   4.731
 6217TIP3    H118657   4.478   2.449   4.679
 6217TIP3    H218658   4.385   2.476   4.794
 6218TIP3   OH218659   0.262   1.019   3.146
 6218TIP3    H118660   0.315   1.083   3.192
 6218TIP3    H218661   0.279   1.036   3.053
 6219TIP3   OH218662   3.706   1.519   0.062
 6219TIP3    H118663   3.721   1.607   0.027
 6219TIP3    H218664   3.793   1.488   0.087
 6220TIP3   OH218665   0.195   0.336   0.626
 6220TIP3    H118666   0.243   0.419   0.620
 6220TIP3    H218667   0.109   0.361   0.659
 6221TIP3   OH218668   1.284   1.622   0.874
 6221TIP3    H118669   1.219   1.610   0.805
 6221TIP3    H218670   1.245   1.687   0.933
 6222TIP3   OH218671   6.044   0.682   0.364
 6222TIP3    H118672   6.101   0.695   0.288
 6222TIP3    H218673   6.010   0.770   0.383
 6223TIP3   OH218674   0.802   1.840   2.900
 6223TIP3    H118675   0.797   1.869   2.991
 6223TIP3    H218676   0.750   1.759   2.898
 6224TIP3   OH218677   4.811   1.380   2.569
 6224TIP3    H118678   4.815   1.324   2.646
 6224TIP3    H218679   4.899   1.416   2.560
 6225TIP3   OH218680   4.168   5.778   3.185
 6225TIP3    H118681   4.099   5.814   3.129
 6225TIP3    H218682   4.225   5.730   3.125
 6226TIP3   OH218683   1.586   3.257   4.316
 6226TIP3    H118684   1.532   3.294   4.385
 6226TIP3    H218685   1.675   3.257   4.352
 6227TIP3   OH218686   5.927   1.406   0.154
 6227TIP3    H118687   5.853   1.357   0.118
 6227TIP3    H218688   6.004   1.360   0.122
 6228TIP3   OH218689   3.966   1.781   2.808
 6228TIP3    H118690   3.957   1.728   2.886
 6228TIP3    H218691   4.053   1.759   2.773
 6229TIP3   OH218692   1.853   5.303   4.585
 6229TIP3    H118693   1.875   5.224   4.635
 6229TIP3    H218694   1.918   5.306   4.515
 6230TIP3   OH218695   4.966   3.399   4.359
 6230TIP3    H118696   5.044   3.362   4.400
 6230TIP3    H218697   4.915   3.323   4.331
 6231TIP3   OH218698   1.450   2.586   4.899
 6231TIP3    H118699   1.492   2.579   4.813
 6231TIP3    H218700   1.394   2.509   4.905
 6232TIP3   OH218701   1.520   4.517   2.564
 6232TIP3    H118702   1.584   4.447   2.577
 6232TIP3    H218703   1.446   4.474   2.521
 6233TIP3   OH218704   2.930   2.097   3.340
 6233TIP3    H118705   2.866   2.061   3.400
 6233TIP3    H218706   2.897   2.075   3.253
 6234TIP3   OH218707   0.951   4.175   3.628
 6234TIP3    H118708   0.964   4.245   3.564
 6234TIP3    H218709   0.890   4.212   3.692
 6235TIP3   OH218710   3.908   2.140   1.636
 6235TIP3    H118711   3.832   2.130   1.694
 6235TIP3    H218712   3.894   2.225   1.593
 6236TIP3   OH218713   1.999   1.356   4.681
 6236TIP3    H118714   2.054   1.420   4.726
 6236TIP3    H218715   1.928   1.337   4.742
 6237TIP3   OH218716   4.751   2.223   3.801
 6237TIP3    H118717   4.682   2.264   3.750
 6237TIP3    H218718   4.823   2.287   3.799
 6238TIP3   OH218719   6.139   2.723   3.641
 6238TIP3    H118720   6.159   2.634   3.611
 6238TIP3    H218721   6.063   2.749   3.589
 6239TIP3   OH218722   3.072   0.181   2.794
 6239TIP3    H118723   2.992   0.190   2.742
 6239TIP3    H218724   3.107   0.270   2.801
 6240TIP3   OH218725   5.738   4.104   0.941
 6240TIP3    H118726   5.816   4.109   0.995
 6240TIP3    H218727   5.684   4.178   0.969
 6241TIP3   OH218728   2.119   2.701   1.419
 6241TIP3    H118729   2.172   2.676   1.494
 6241TIP3    H218730   2.114   2.796   1.424
 6242TIP3   OH218731   2.556   2.167   2.871
 6242TIP3    H118732   2.620   2.130   2.932
 6242TIP3    H218733   2.478   2.181   2.923
 6243TIP3   OH218734   0.058   1.583   2.777
 6243TIP3    H118735   0.130   1.633   2.739
 6243TIP3    H218736   0.039   1.629   2.859
 6244TIP3   OH218737   4.908   3.161   4.551
 6244TIP3    H118738   4.827   3.179   4.599
 6244TIP3    H218739   4.883   3.171   4.459
 6245TIP3   OH218740   5.959   4.906   2.227
 6245TIP3    H118741   5.955   4.849   2.151
 6245TIP3    H218742   5.947   4.994   2.192
 6246TIP3   OH218743   3.705   4.471   3.693
 6246TIP3    H118744   3.627   4.416   3.695
 6246TIP3    H218745   3.672   4.561   3.691
 6247TIP3   OH218746   3.756   0.307   3.008
 6247TIP3    H118747   3.700   0.317   2.930
 6247TIP3    H218748   3.809   0.229   2.990
 6248TIP3   OH218749   0.255   4.075   1.142
 6248TIP3    H118750   0.283   4.089   1.232
 6248TIP3    H218751   0.197   4.149   1.123
 6249TIP3   OH218752   1.407   3.486   2.902
 6249TIP3    H118753   1.489   3.446   2.930
 6249TIP3    H218754   1.398   3.463   2.810
 6250TIP3   OH218755   5.245   2.648   3.366
 6250TIP3    H118756   5.158   2.663   3.328
 6250TIP3    H218757   5.266   2.558   3.344
 6251TIP3   OH218758   0.409   3.025   4.596
 6251TIP3    H118759   0.493   3.068   4.613
 6251TIP3    H218760   0.350   3.096   4.570
 6252TIP3   OH218761   3.114   1.043   1.961
 6252TIP3    H118762   3.055   0.976   1.995
 6252TIP3    H218763   3.123   1.022   1.868
 6253TIP3   OH218764   4.638   3.249   0.846
 6253TIP3    H118765   4.705   3.227   0.781
 6253TIP3    H218766   4.682   3.239   0.930
 6254TIP3   OH218767   1.742   5.933   3.063
 6254TIP3    H118768   1.787   5.850   3.045
 6254TIP3    H218769   1.773   5.992   2.994
 6255TIP3   OH218770   3.481   3.078   2.065
 6255TIP3    H118771   3.456   3.135   2.138
 6255TIP3    H218772   3.402   3.027   2.046
 6256TIP3   OH218773   4.479   2.060   1.562
 6256TIP3    H118774   4.394   2.016   1.571
 6256TIP3    H218775   4.507   2.040   1.472
 6257TIP3   OH218776   2.974   0.591   5.131
 6257TIP3    H118777   2.899   0.532   5.135
 6257TIP3    H218778   2.987   0.607   5.037
 6258TIP3   OH218779   3.230   0.387   5.028
 6258TIP3    H118780   3.241   0.481   5.044
 6258TIP3    H218781   3.279   0.371   4.947
 6259TIP3   OH218782   3.949   4.257   3.254
 6259TIP3    H118783   3.855   4.246   3.238
 6259TIP3    H218784   3.990   4.241   3.169
 6260TIP3   OH218785   5.870   5.674   1.640
 6260TIP3    H118786   5.837   5.730   1.569
 6260TIP3    H218787   5.949   5.634   1.604
 6261TIP3   OH218788   4.139   3.333   1.873
 6261TIP3    H118789   4.154   3.254   1.925
 6261TIP3    H218790   4.101   3.300   1.791
 6262TIP3   OH218791   2.228   2.313   1.830
 6262TIP3    H118792   2.306   2.279   1.786
 6262TIP3    H218793   2.180   2.359   1.760
 6263TIP3   OH218794   1.412   0.891   3.882
 6263TIP3    H118795   1.370   0.881   3.797
 6263TIP3    H218796   1.501   0.920   3.862
 6264TIP3   OH218797   3.421   5.500   4.813
 6264TIP3    H118798   3.471   5.563   4.865
 6264TIP3    H218799   3.348   5.550   4.777
 6265TIP3   OH218800   5.519   4.337   3.510
 6265TIP3    H118801   5.585   4.304   3.448
 6265TIP3    H218802   5.487   4.418   3.470
 6266TIP3   OH218803   3.401   3.257   2.258
 6266TIP3    H118804   3.364   3.340   2.229
 6266TIP3    H218805   3.440   3.277   2.343
 6267TIP3   OH218806   4.652   2.658   1.314
 6267TIP3    H118807   4.602   2.731   1.350
 6267TIP3    H218808   4.647   2.590   1.381
 6268TIP3   OH218809   1.400   0.426   3.654
 6268TIP3    H118810   1.363   0.500   3.702
 6268TIP3    H218811   1.393   0.451   3.562
 6269TIP3   OH218812   2.448   1.977   0.621
 6269TIP3    H118813   2.448   2.004   0.712
 6269TIP3    H218814   2.506   2.039   0.577
 6270TIP3   OH218815   6.204   3.933   5.009
 6270TIP3    H118816   6.293   3.907   4.985
 6270TIP3    H218817   6.213   3.979   5.092
 6271TIP3   OH218818   3.265   5.427   1.349
 6271TIP3    H118819   3.273   5.345   1.299
 6271TIP3    H218820   3.338   5.480   1.319
 6272TIP3   OH218821   4.845   3.676   1.948
 6272TIP3    H118822   4.841   3.694   2.042
 6272TIP3    H218823   4.769   3.720   1.911
 6273TIP3   OH218824   0.498   1.228   2.149
 6273TIP3    H118825   0.579   1.209   2.101
 6273TIP3    H218826   0.522   1.216   2.241
 6274TIP3   OH218827   1.528   0.487   4.663
 6274TIP3    H118828   1.513   0.544   4.587
 6274TIP3    H218829   1.623   0.493   4.678
 6275TIP3   OH218830   3.720   4.909   2.652
 6275TIP3    H118831   3.643   4.959   2.680
 6275TIP3    H218832   3.684   4.836   2.601
 6276TIP3   OH218833   1.201   2.334   4.624
 6276TIP3    H118834   1.111   2.311   4.599
 6276TIP3    H218835   1.237   2.253   4.660
 6277TIP3   OH218836   1.490   2.733   3.791
 6277TIP3    H118837   1.567   2.789   3.801
 6277TIP3    H218838   1.503   2.663   3.855
 6278TIP3   OH218839   4.902   3.104   1.312
 6278TIP3    H118840   4.846   3.139   1.243
 6278TIP3    H218841   4.901   3.010   1.298
 6279TIP3   OH218842   0.527   4.389   0.468
 6279TIP3    H118843   0.559   4.392   0.558
 6279TIP3    H218844   0.584   4.450   0.421
 6280TIP3   OH218845   1.610   2.709   0.260
 6280TIP3    H118846   1.637   2.618   0.249
 6280TIP3    H218847   1.681   2.761   0.222
 6281TIP3   OH218848   6.001   4.209   2.190
 6281TIP3    H118849   5.964   4.155   2.259
 6281TIP3    H218850   6.090   4.177   2.179
 6282TIP3   OH218851   0.057   5.379   3.912
 6282TIP3    H118852  -0.016   5.439   3.898
 6282TIP3    H218853   0.132   5.422   3.871
 6283TIP3   OH218854   1.906   1.127   3.048
 6283TIP3    H118855   1.820   1.143   3.087
 6283TIP3    H218856   1.886   1.095   2.960
 6284TIP3   OH218857   5.466   5.416   2.967
 6284TIP3    H118858   5.449   5.488   2.907
 6284TIP3    H218859   5.469   5.457   3.054
 6285TIP3   OH218860   4.093   2.786   1.243
 6285TIP3    H118861   4.100   2.747   1.330
 6285TIP3    H218862   4.172   2.757   1.197
 6286TIP3   OH218863   6.302   4.967   1.204
 6286TIP3    H118864   6.302   4.969   1.108
 6286TIP3    H218865   6.290   5.058   1.229
 6287TIP3   OH218866   5.097   5.649   0.486
 6287TIP3    H118867   5.173   5.657   0.429
 6287TIP3    H218868   5.057   5.565   0.461
 6288TIP3   OH218869   2.457   3.769   0.283
 6288TIP3    H118870   2.390   3.709   0.250
 6288TIP3    H218871   2.532   3.713   0.303
 6289TIP3   OH218872   3.751   4.408   1.201
 6289TIP3    H118873   3.839   4.444   1.201
 6289TIP3    H218874   3.732   4.389   1.293
 6290TIP3   OH218875   2.165   4.277   2.865
 6290TIP3    H118876   2.109   4.229   2.804
 6290TIP3    H218877   2.104   4.311   2.931
 6291TIP3   OH218878   1.050   5.023   2.765
 6291TIP3    H118879   0.974   5.066   2.726
 6291TIP3    H218880   1.123   5.047   2.709
 6292TIP3   OH218881   0.680   4.687   5.190
 6292TIP3    H118882   0.683   4.778   5.220
 6292TIP3    H218883   0.596   4.679   5.145
 6293TIP3   OH218884   3.060   1.618   3.716
 6293TIP3    H118885   3.056   1.564   3.795
 6293TIP3    H218886   3.153   1.621   3.693
 6294TIP3   OH218887   0.126   4.132   2.464
 6294TIP3    H118888   0.046   4.184   2.461
 6294TIP3    H218889   0.130   4.088   2.379
 6295TIP3   OH218890   3.362   2.213   3.219
 6295TIP3    H118891   3.421   2.287   3.235
 6295TIP3    H218892   3.414   2.152   3.166
 6296TIP3   OH218893   5.096   0.723   5.089
 6296TIP3    H118894   5.107   0.683   5.176
 6296TIP3    H218895   5.021   0.781   5.099
 6297TIP3   OH218896   4.950   2.220   0.585
 6297TIP3    H118897   4.909   2.244   0.668
 6297TIP3    H218898   4.971   2.304   0.544
 6298TIP3   OH218899   1.328   3.856   1.931
 6298TIP3    H118900   1.259   3.833   1.869
 6298TIP3    H218901   1.357   3.772   1.967
 6299TIP3   OH218902   3.153   2.698   0.923
 6299TIP3    H118903   3.136   2.754   0.999
 6299TIP3    H218904   3.219   2.746   0.873
 6300TIP3   OH218905   6.365   0.884   2.271
 6300TIP3    H118906   6.405   0.804   2.239
 6300TIP3    H218907   6.273   0.878   2.245
 6301TIP3   OH218908   2.317   0.235   3.291
 6301TIP3    H118909   2.361   0.309   3.249
 6301TIP3    H218910   2.241   0.218   3.235
 6302TIP3   OH218911   2.285   2.513   0.504
 6302TIP3    H118912   2.264   2.525   0.597
 6302TIP3    H218913   2.323   2.426   0.499
 6303TIP3   OH218914   2.763   1.047   2.537
 6303TIP3    H118915   2.701   1.043   2.611
 6303TIP3    H218916   2.726   1.115   2.480
 6304TIP3   OH218917   0.188   5.626   4.266
 6304TIP3    H118918   0.248   5.667   4.328
 6304TIP3    H218919   0.208   5.668   4.182
 6305TIP3   OH218920   4.637   4.125   4.897
 6305TIP3    H118921   4.677   4.175   4.826
 6305TIP3    H218922   4.705   4.120   4.964
 6306TIP3   OH218923   3.318   2.420   4.579
 6306TIP3    H118924   3.394   2.470   4.609
 6306TIP3    H218925   3.243   2.466   4.615
 6307TIP3   OH218926   0.758   2.415   3.037
 6307TIP3    H118927   0.732   2.429   2.946
 6307TIP3    H218928   0.731   2.495   3.083
 6308TIP3   OH218929   4.483   2.232   0.507
 6308TIP3    H118930   4.432   2.177   0.568
 6308TIP3    H218931   4.543   2.280   0.564
 6309TIP3   OH218932   1.559   5.365   1.987
 6309TIP3    H118933   1.540   5.422   2.061
 6309TIP3    H218934   1.634   5.312   2.017
 6310TIP3   OH218935   2.863   2.872   1.613
 6310TIP3    H118936   2.924   2.944   1.597
 6310TIP3    H218937   2.807   2.871   1.536
 6311TIP3   OH218938   0.022   5.680   2.747
 6311TIP3    H118939  -0.024   5.618   2.691
 6311TIP3    H218940   0.114   5.670   2.724
 6312TIP3   OH218941   5.124   5.740   4.854
 6312TIP3    H118942   5.052   5.771   4.799
 6312TIP3    H218943   5.187   5.812   4.853
 6313TIP3   OH218944   5.551   5.350   0.229
 6313TIP3    H118945   5.644   5.327   0.225
 6313TIP3    H218946   5.549   5.437   0.269
 6314TIP3   OH218947   5.785   4.934   4.369
 6314TIP3    H118948   5.711   4.878   4.394
 6314TIP3    H218949   5.851   4.872   4.338
 6315TIP3   OH218950   4.864   2.577   1.780
 6315TIP3    H118951   4.862   2.661   1.825
 6315TIP3    H218952   4.798   2.585   1.711
 6316TIP3   OH218953   0.527   1.432   1.020
 6316TIP3    H118954   0.559   1.522   1.013
 6316TIP3    H218955   0.606   1.379   1.023
 6317TIP3   OH218956   2.716   1.350   2.711
 6317TIP3    H118957   2.624   1.369   2.694
 6317TIP3    H218958   2.753   1.433   2.742
 6318TIP3   OH218959   1.753   6.007   3.345
 6318TIP3    H118960   1.759   6.009   3.249
 6318TIP3    H218961   1.779   5.919   3.369
 6319TIP3   OH218962   3.355   4.199   2.732
 6319TIP3    H118963   3.305   4.185   2.812
 6319TIP3    H218964   3.302   4.260   2.681
 6320TIP3   OH218965   4.233   0.825   0.881
 6320TIP3    H118966   4.206   0.837   0.790
 6320TIP3    H218967   4.326   0.804   0.876
 6321TIP3   OH218968   2.547   5.465   5.001
 6321TIP3    H118969   2.586   5.486   5.085
 6321TIP3    H218970   2.473   5.526   4.993
 6322TIP3   OH218971   1.428   4.905   0.882
 6322TIP3    H118972   1.462   4.824   0.919
 6322TIP3    H218973   1.349   4.923   0.932
 6323TIP3   OH218974   0.986   5.847   0.605
 6323TIP3    H118975   0.958   5.938   0.607
 6323TIP3    H218976   0.923   5.801   0.660
 6324TIP3   OH218977   1.390   4.229   1.523
 6324TIP3    H118978   1.349   4.211   1.608
 6324TIP3    H218979   1.344   4.172   1.462
 6325TIP3   OH218980   1.763   1.847   5.057
 6325TIP3    H118981   1.710   1.870   5.134
 6325TIP3    H218982   1.806   1.765   5.082
 6326TIP3   OH218983   1.596   1.398   1.775
 6326TIP3    H118984   1.542   1.365   1.848
 6326TIP3    H218985   1.535   1.446   1.720
 6327TIP3   OH218986   3.355   0.725   1.411
 6327TIP3    H118987   3.299   0.689   1.342
 6327TIP3    H218988   3.434   0.753   1.365
 6328TIP3   OH218989   2.621   1.221   0.407
 6328TIP3    H118990   2.543   1.232   0.461
 6328TIP3    H218991   2.693   1.253   0.462
 6329TIP3   OH218992   0.687   1.078   4.900
 6329TIP3    H118993   0.613   1.020   4.880
 6329TIP3    H218994   0.738   1.029   4.965
 6330TIP3   OH218995   2.916   2.686   0.213
 6330TIP3    H118996   3.010   2.693   0.226
 6330TIP3    H218997   2.906   2.646   0.127
 6331TIP3   OH218998   1.705   2.231   3.289
 6331TIP3    H118999   1.780   2.204   3.236
 6331TIP3    H219000   1.651   2.284   3.230
 6332TIP3   OH219001   2.204   5.536   3.269
 6332TIP3    H119002   2.298   5.519   3.279
 6332TIP3    H219003   2.165   5.450   3.255
 6333TIP3   OH219004   3.808   2.770   4.559
 6333TIP3    H119005   3.859   2.849   4.543
 6333TIP3    H219006   3.870   2.698   4.544
 6334TIP3   OH219007   2.135   5.905   2.367
 6334TIP3    H119008   2.168   5.817   2.356
 6334TIP3    H219009   2.074   5.917   2.294
 6335TIP3   OH219010   4.917   5.209   5.031
 6335TIP3    H119011   4.849   5.226   5.096
 6335TIP3    H219012   4.902   5.119   5.002
 6336TIP3   OH219013   4.934   0.717   2.922
 6336TIP3    H119014   4.897   0.691   2.837
 6336TIP3    H219015   4.960   0.808   2.909
 6337TIP3   OH219016   0.392   2.446   1.598
 6337TIP3    H119017   0.415   2.448   1.691
 6337TIP3    H219018   0.464   2.398   1.557
 6338TIP3   OH219019   4.973   3.517   1.286
 6338TIP3    H119020   5.029   3.444   1.312
 6338TIP3    H219021   5.017   3.595   1.321
 6339TIP3   OH219022   6.019   2.681   2.056
 6339TIP3    H119023   5.958   2.614   2.088
 6339TIP3    H219024   6.064   2.638   1.983
 6340TIP3   OH219025   3.902   3.921   1.074
 6340TIP3    H119026   3.847   3.998   1.063
 6340TIP3    H219027   3.951   3.915   0.991
 6341TIP3   OH219028   3.177   4.303   2.528
 6341TIP3    H119029   3.102   4.286   2.584
 6341TIP3    H219030   3.162   4.249   2.451
 6342TIP3   OH219031   5.286   1.828   1.672
 6342TIP3    H119032   5.250   1.753   1.625
 6342TIP3    H219033   5.373   1.842   1.634
 6343TIP3   OH219034   1.887   1.631   3.890
 6343TIP3    H119035   1.979   1.612   3.910
 6343TIP3    H219036   1.881   1.727   3.892
 6344TIP3   OH219037   4.151   4.153   3.748
 6344TIP3    H119038   4.094   4.228   3.764
 6344TIP3    H219039   4.097   4.093   3.697
 6345TIP3   OH219040   2.022   1.962   4.596
 6345TIP3    H119041   1.963   2.038   4.594
 6345TIP3    H219042   2.085   1.983   4.665
 6346TIP3   OH219043   5.548   2.011   1.729
 6346TIP3    H119044   5.542   1.988   1.822
 6346TIP3    H219045   5.631   2.057   1.720
 6347TIP3   OH219046   5.841   1.470   1.176
 6347TIP3    H119047   5.796   1.539   1.225
 6347TIP3    H219048   5.902   1.517   1.119
 6348TIP3   OH219049   2.358   4.441   3.093
 6348TIP3    H119050   2.341   4.356   3.053
 6348TIP3    H219051   2.449   4.461   3.070
 6349TIP3   OH219052   4.434   3.297   2.128
 6349TIP3    H119053   4.485   3.378   2.136
 6349TIP3    H219054   4.440   3.256   2.214
 6350TIP3   OH219055   0.544   1.580   3.402
 6350TIP3    H119056   0.467   1.607   3.353
 6350TIP3    H219057   0.517   1.498   3.444
 6351TIP3   OH219058   3.990   2.711   3.505
 6351TIP3    H119059   3.934   2.715   3.428
 6351TIP3    H219060   3.958   2.781   3.562
 6352TIP3   OH219061   3.759   1.978   3.983
 6352TIP3    H119062   3.837   2.027   4.010
 6352TIP3    H219063   3.686   2.036   4.003
 6353TIP3   OH219064   4.386   5.229   4.409
 6353TIP3    H119065   4.396   5.277   4.492
 6353TIP3    H219066   4.352   5.143   4.436
 6354TIP3   OH219067   3.547   0.587   4.782
 6354TIP3    H119068   3.507   0.673   4.770
 6354TIP3    H219069   3.532   0.566   4.874
 6355TIP3   OH219070   5.761   1.610   3.074
 6355TIP3    H119071   5.830   1.610   3.008
 6355TIP3    H219072   5.724   1.698   3.072
 6356TIP3   OH219073   6.365   4.816   3.293
 6356TIP3    H119074   6.296   4.845   3.353
 6356TIP3    H219075   6.336   4.845   3.207
 6357TIP3   OH219076   5.749   4.612   1.038
 6357TIP3    H119077   5.696   4.691   1.042
 6357TIP3    H219078   5.773   4.604   0.946
 6358TIP3   OH219079   4.687   4.513   4.837
 6358TIP3    H119080   4.624   4.446   4.863
 6358TIP3    H219081   4.735   4.535   4.917
 6359TIP3   OH219082   5.354   0.042   5.037
 6359TIP3    H119083   5.259   0.055   5.042
 6359TIP3    H219084   5.384   0.106   4.972
 6360TIP3   OH219085   1.216   3.788   1.181
 6360TIP3    H119086   1.308   3.786   1.157
 6360TIP3    H219087   1.189   3.696   1.180
 6361TIP3   OH219088   1.396   2.751   1.432
 6361TIP3    H119089   1.490   2.742   1.418
 6361TIP3    H219090   1.371   2.827   1.380
 6362TIP3   OH219091   0.908   5.606   5.061
 6362TIP3    H119092   0.995   5.646   5.066
 6362TIP3    H219093   0.894   5.569   5.148
 6363TIP3   OH219094   1.352   5.624   3.977
 6363TIP3    H119095   1.418   5.633   4.046
 6363TIP3    H219096   1.276   5.671   4.011
 6364TIP3   OH219097   0.406   2.021   1.455
 6364TIP3    H119098   0.455   1.939   1.453
 6364TIP3    H219099   0.318   1.996   1.424
 6365TIP3   OH219100   3.857   3.727   3.625
 6365TIP3    H119101   3.938   3.693   3.586
 6365TIP3    H219102   3.885   3.763   3.710
 6366TIP3   OH219103   2.043   3.906   3.229
 6366TIP3    H119104   2.012   3.997   3.229
 6366TIP3    H219105   2.012   3.870   3.313
 6367TIP3   OH219106   4.290   4.573   3.637
 6367TIP3    H119107   4.305   4.496   3.582
 6367TIP3    H219108   4.297   4.647   3.577
 6368TIP3   OH219109   0.530   3.932   4.848
 6368TIP3    H119110   0.535   3.841   4.817
 6368TIP3    H219111   0.603   3.976   4.805
 6369TIP3   OH219112   5.337   1.958   4.357
 6369TIP3    H119113   5.384   1.889   4.311
 6369TIP3    H219114   5.367   2.039   4.316
 6370TIP3   OH219115   3.042   1.125   0.070
 6370TIP3    H119116   2.995   1.055   0.025
 6370TIP3    H219117   3.122   1.084   0.101
 6371TIP3   OH219118   6.048   3.701   1.232
 6371TIP3    H119119   6.051   3.611   1.200
 6371TIP3    H219120   5.991   3.697   1.309
 6372TIP3   OH219121   5.942   5.255   3.184
 6372TIP3    H119122   5.917   5.336   3.139
 6372TIP3    H219123   5.868   5.236   3.242
 6373TIP3   OH219124   3.958   1.100   1.578
 6373TIP3    H119125   4.028   1.111   1.514
 6373TIP3    H219126   3.888   1.057   1.528
 6374TIP3   OH219127   3.114   5.800   3.615
 6374TIP3    H119128   3.076   5.727   3.568
 6374TIP3    H219129   3.051   5.871   3.605
 6375TIP3   OH219130   6.278   4.364   5.027
 6375TIP3    H119131   6.204   4.304   5.018
 6375TIP3    H219132   6.273   4.420   4.949
 6376TIP3   OH219133   2.092   1.115   4.706
 6376TIP3    H119134   2.091   1.124   4.801
 6376TIP3    H219135   2.113   1.203   4.674
 6377TIP3   OH219136   6.016   3.463   3.552
 6377TIP3    H119137   5.971   3.421   3.625
 6377TIP3    H219138   6.081   3.520   3.593
 6378TIP3   OH219139   4.131   3.742   4.381
 6378TIP3    H119140   4.137   3.835   4.357
 6378TIP3    H219141   4.037   3.728   4.397
 6379TIP3   OH219142   3.502   0.804   3.972
 6379TIP3    H119143   3.491   0.761   3.887
 6379TIP3    H219144   3.430   0.867   3.976
 6380TIP3   OH219145   6.329   6.004   3.142
 6380TIP3    H119146   6.313   6.008   3.047
 6380TIP3    H219147   6.276   5.930   3.171
 6381TIP3   OH219148   1.825   5.896   1.194
 6381TIP3    H119149   1.806   5.802   1.202
 6381TIP3    H219150   1.917   5.899   1.169
 6382TIP3   OH219151   3.162   5.115   3.232
 6382TIP3    H119152   3.110   5.037   3.254
 6382TIP3    H219153   3.099   5.175   3.192
 6383TIP3   OH219154   0.567   2.647   3.056
 6383TIP3    H119155   0.539   2.737   3.037
 6383TIP3    H219156   0.506   2.592   3.007
 6384TIP3   OH219157   3.135   2.868   3.900
 6384TIP3    H119158   3.060   2.927   3.896
 6384TIP3    H219159   3.203   2.918   3.946
 6385TIP3   OH219160   5.192   1.643   3.572
 6385TIP3    H119161   5.192   1.738   3.562
 6385TIP3    H219162   5.258   1.612   3.510
 6386TIP3   OH219163   4.914   3.132   3.053
 6386TIP3    H119164   4.828   3.172   3.045
 6386TIP3    H219165   4.942   3.153   3.142
 6387TIP3   OH219166   5.213   3.821   1.908
 6387TIP3    H119167   5.296   3.860   1.937
 6387TIP3    H219168   5.151   3.894   1.911
 6388TIP3   OH219169   2.821   5.621   2.238
 6388TIP3    H119170   2.853   5.665   2.317
 6388TIP3    H219171   2.878   5.653   2.168
 6389TIP3   OH219172   3.699   3.804   2.977
 6389TIP3    H119173   3.715   3.735   2.912
 6389TIP3    H219174   3.763   3.872   2.956
 6390TIP3   OH219175   6.217   4.118   0.424
 6390TIP3    H119176   6.136   4.136   0.377
 6390TIP3    H219177   6.272   4.195   0.407
 6391TIP3   OH219178   3.396   1.609   0.580
 6391TIP3    H119179   3.470   1.669   0.567
 6391TIP3    H219180   3.436   1.527   0.607
 6392TIP3   OH219181   5.842   1.554   2.152
 6392TIP3    H119182   5.894   1.489   2.104
 6392TIP3    H219183   5.790   1.503   2.214
 6393TIP3   OH219184   6.053   5.891   4.145
 6393TIP3    H119185   5.963   5.890   4.112
 6393TIP3    H219186   6.053   5.958   4.213
 6394TIP3   OH219187   3.450   3.496   4.952
 6394TIP3    H119188   3.533   3.544   4.948
 6394TIP3    H219189   3.383   3.563   4.936
 6395TIP3   OH219190   3.773   5.943   1.844
 6395TIP3    H119191   3.747   6.028   1.877
 6395TIP3    H219192   3.809   5.961   1.757
 6396TIP3   OH219193   4.906   5.307   2.303
 6396TIP3    H119194   4.939   5.356   2.379
 6396TIP3    H219195   4.873   5.375   2.244
 6397TIP3   OH219196   3.553   2.116   4.106
 6397TIP3    H119197   3.534   2.158   4.189
 6397TIP3    H219198   3.467   2.090   4.072
 6398TIP3   OH219199   1.575   2.616   3.462
 6398TIP3    H119200   1.665   2.645   3.479
 6398TIP3    H219201   1.553   2.560   3.537
 6399TIP3   OH219202   5.017   3.965   0.823
 6399TIP3    H119203   5.011   3.891   0.762
 6399TIP3    H219204   4.967   3.937   0.899
 6400TIP3   OH219205   2.136   2.413   1.607
 6400TIP3    H119206   2.094   2.423   1.521
 6400TIP3    H219207   2.228   2.430   1.590
 6401TIP3   OH219208   6.231   4.195   3.790
 6401TIP3    H119209   6.242   4.175   3.883
 6401TIP3    H219210   6.256   4.114   3.745
 6402TIP3   OH219211   2.014   4.332   4.502
 6402TIP3    H119212   1.930   4.337   4.548
 6402TIP3    H219213   2.005   4.394   4.429
 6403TIP3   OH219214   3.140   0.412   2.174
 6403TIP3    H119215   3.204   0.468   2.216
 6403TIP3    H219216   3.161   0.324   2.205
 6404TIP3   OH219217   5.324   1.838   0.368
 6404TIP3    H119218   5.291   1.919   0.405
 6404TIP3    H219219   5.291   1.836   0.278
 6405TIP3   OH219220   1.114   4.293   3.976
 6405TIP3    H119221   1.161   4.362   3.928
 6405TIP3    H219222   1.104   4.222   3.913
 6406TIP3   OH219223   6.143   1.696   2.779
 6406TIP3    H119224   6.167   1.724   2.690
 6406TIP3    H219225   6.207   1.740   2.835
 6407TIP3   OH219226   3.134   5.488   0.884
 6407TIP3    H119227   3.100   5.567   0.842
 6407TIP3    H219228   3.162   5.517   0.971
 6408TIP3   OH219229   3.010   4.192   1.596
 6408TIP3    H119230   3.050   4.139   1.665
 6408TIP3    H219231   2.931   4.228   1.635
 6409TIP3   OH219232   0.846   2.429   1.775
 6409TIP3    H119233   0.755   2.457   1.776
 6409TIP3    H219234   0.867   2.411   1.866
 6410TIP3   OH219235   0.037   1.137   0.125
 6410TIP3    H119236   0.048   1.045   0.149
 6410TIP3    H219237   0.123   1.176   0.140
 6411TIP3   OH219238   2.834   0.894   4.924
 6411TIP3    H119239   2.846   0.945   4.844
 6411TIP3    H219240   2.919   0.851   4.938
 6412TIP3   OH219241   0.832   3.747   3.763
 6412TIP3    H119242   0.783   3.829   3.764
 6412TIP3    H219243   0.806   3.703   3.845
 6413TIP3   OH219244   5.131   4.402   2.716
 6413TIP3    H119245   5.190   4.469   2.750
 6413TIP3    H219246   5.092   4.442   2.638
 6414TIP3   OH219247   4.716   2.269   1.436
 6414TIP3    H119248   4.721   2.178   1.407
 6414TIP3    H219249   4.635   2.302   1.398
 6415TIP3   OH219250   4.796   0.153   3.927
 6415TIP3    H119251   4.797   0.213   3.852
 6415TIP3    H219252   4.888   0.144   3.953
 6416TIP3   OH219253   2.513   2.408   0.773
 6416TIP3    H119254   2.529   2.406   0.867
 6416TIP3    H219255   2.598   2.392   0.733
 6417TIP3   OH219256   0.041   1.131   1.098
 6417TIP3    H119257  -0.013   1.062   1.137
 6417TIP3    H219258   0.010   1.138   1.008
 6418TIP3   OH219259   4.500   5.663   4.913
 6418TIP3    H119260   4.552   5.594   4.873
 6418TIP3    H219261   4.479   5.630   5.000
 6419TIP3   OH219262   5.612   0.341   0.853
 6419TIP3    H119263   5.656   0.425   0.864
 6419TIP3    H219264   5.526   0.353   0.892
 6420TIP3   OH219265   3.828   2.899   2.654
 6420TIP3    H119266   3.824   2.820   2.707
 6420TIP3    H219267   3.818   2.868   2.564
 6421TIP3   OH219268   3.216   3.436   2.486
 6421TIP3    H119269   3.165   3.365   2.524
 6421TIP3    H219270   3.150   3.495   2.448
 6422TIP3   OH219271   5.235   4.004   4.907
 6422TIP3    H119272   5.190   3.968   4.983
 6422TIP3    H219273   5.192   4.089   4.892
 6423TIP3   OH219274   1.584   1.070   4.227
 6423TIP3    H119275   1.587   1.047   4.134
 6423TIP3    H219276   1.670   1.045   4.261
 6424TIP3   OH219277   0.885   3.754   1.776
 6424TIP3    H119278   0.845   3.678   1.820
 6424TIP3    H219279   0.976   3.728   1.763
 6425TIP3   OH219280   5.378   3.395   1.974
 6425TIP3    H119281   5.471   3.418   1.966
 6425TIP3    H219282   5.332   3.468   1.933
 6426TIP3   OH219283   6.002   5.423   0.738
 6426TIP3    H119284   6.047   5.444   0.656
 6426TIP3    H219285   5.975   5.332   0.729
 6427TIP3   OH219286   0.168   5.184   3.630
 6427TIP3    H119287   0.164   5.088   3.624
 6427TIP3    H219288   0.243   5.201   3.686
 6428TIP3   OH219289   2.650   0.576   2.948
 6428TIP3    H119290   2.685   0.588   3.036
 6428TIP3    H219291   2.609   0.660   2.927
 6429TIP3   OH219292   5.361   0.110   3.914
 6429TIP3    H119293   5.429   0.048   3.940
 6429TIP3    H219294   5.386   0.137   3.825
 6430TIP3   OH219295   3.123   5.458   2.585
 6430TIP3    H119296   3.128   5.489   2.495
 6430TIP3    H219297   3.056   5.390   2.584
 6431TIP3   OH219298   5.212   0.298   0.514
 6431TIP3    H119299   5.125   0.294   0.474
 6431TIP3    H219300   5.238   0.389   0.504
 6432TIP3   OH219301   2.871   1.018   1.521
 6432TIP3    H119302   2.915   0.977   1.595
 6432TIP3    H219303   2.779   1.024   1.548
 6433TIP3   OH219304   4.381   3.735   0.519
 6433TIP3    H119305   4.439   3.679   0.571
 6433TIP3    H219306   4.402   3.713   0.428
 6434TIP3   OH219307   3.321   4.246   2.176
 6434TIP3    H119308   3.385   4.190   2.220
 6434TIP3    H219309   3.283   4.190   2.108
 6435TIP3   OH219310   2.827   2.498   4.650
 6435TIP3    H119311   2.742   2.512   4.608
 6435TIP3    H219312   2.888   2.551   4.600
 6436TIP3   OH219313   2.030   0.692   3.071
 6436TIP3    H119314   1.969   0.618   3.076
 6436TIP3    H219315   2.085   0.673   2.996
 6437TIP3   OH219316   6.039   4.988   3.138
 6437TIP3    H119317   6.016   5.063   3.193
 6437TIP3    H219318   6.094   5.026   3.069
 6438TIP3   OH219319   3.458   3.996   1.635
 6438TIP3    H119320   3.532   4.029   1.584
 6438TIP3    H219321   3.439   4.066   1.697
 6439TIP3   OH219322   5.424   5.139   4.922
 6439TIP3    H119323   5.406   5.067   4.861
 6439TIP3    H219324   5.514   5.165   4.904
 6440TIP3   OH219325   2.306   5.328   4.345
 6440TIP3    H119326   2.356   5.246   4.354
 6440TIP3    H219327   2.353   5.391   4.399
 6441TIP3   OH219328   5.757   1.187   3.345
 6441TIP3    H119329   5.836   1.211   3.297
 6441TIP3    H219330   5.788   1.160   3.432
 6442TIP3   OH219331   5.632   5.287   2.360
 6442TIP3    H119332   5.710   5.334   2.330
 6442TIP3    H219333   5.558   5.338   2.326
 6443TIP3   OH219334   1.906   5.644   0.414
 6443TIP3    H119335   1.817   5.677   0.401
 6443TIP3    H219336   1.931   5.674   0.501
 6444TIP3   OH219337   0.482   0.314   4.259
 6444TIP3    H119338   0.532   0.237   4.233
 6444TIP3    H219339   0.428   0.334   4.182
 6445TIP3   OH219340   2.785   0.259   0.182
 6445TIP3    H119341   2.787   0.345   0.223
 6445TIP3    H219342   2.693   0.247   0.155
 6446TIP3   OH219343   2.864   3.708   5.119
 6446TIP3    H119344   2.827   3.760   5.190
 6446TIP3    H219345   2.857   3.617   5.149
 6447TIP3   OH219346   0.482   2.687   4.240
 6447TIP3    H119347   0.475   2.725   4.328
 6447TIP3    H219348   0.417   2.616   4.239
 6448TIP3   OH219349   3.339   1.678   3.966
 6448TIP3    H119350   3.256   1.633   3.980
 6448TIP3    H219351   3.404   1.621   4.008
 6449TIP3   OH219352   4.268   3.862   1.441
 6449TIP3    H119353   4.226   3.890   1.360
 6449TIP3    H219354   4.232   3.920   1.508
 6450TIP3   OH219355   5.501   3.259   2.361
 6450TIP3    H119356   5.451   3.197   2.414
 6450TIP3    H219357   5.548   3.204   2.298
 6451TIP3   OH219358   2.224   4.490   4.118
 6451TIP3    H119359   2.239   4.547   4.042
 6451TIP3    H219360   2.236   4.401   4.085
 6452TIP3   OH219361   4.784   0.149   1.746
 6452TIP3    H119362   4.824   0.198   1.675
 6452TIP3    H219363   4.750   0.070   1.705
 6453TIP3   OH219364   0.233   5.063   1.449
 6453TIP3    H119365   0.234   4.976   1.410
 6453TIP3    H219366   0.288   5.055   1.527
 6454TIP3   OH219367   4.907   1.543   1.054
 6454TIP3    H119368   4.967   1.616   1.037
 6454TIP3    H219369   4.822   1.573   1.020
 6455TIP3   OH219370   6.214   3.280   0.924
 6455TIP3    H119371   6.303   3.316   0.922
 6455TIP3    H219372   6.225   3.192   0.958
 6456TIP3   OH219373   4.506   2.585   3.012
 6456TIP3    H119374   4.557   2.572   2.932
 6456TIP3    H219375   4.418   2.606   2.981
 6457TIP3   OH219376   0.617   2.035   1.121
 6457TIP3    H119377   0.594   2.081   1.202
 6457TIP3    H219378   0.613   1.942   1.144
 6458TIP3   OH219379   2.255   1.664   4.633
 6458TIP3    H119380   2.168   1.690   4.661
 6458TIP3    H219381   2.314   1.708   4.695
 6459TIP3   OH219382   3.673   2.929   2.203
 6459TIP3    H119383   3.631   3.014   2.213
 6459TIP3    H219384   3.652   2.903   2.114
 6460TIP3   OH219385   6.250   4.806   4.308
 6460TIP3    H119386   6.227   4.880   4.365
 6460TIP3    H219387   6.345   4.809   4.302
 6461TIP3   OH219388   2.335   2.788   2.538
 6461TIP3    H119389   2.406   2.852   2.541
 6461TIP3    H219390   2.262   2.830   2.583
 6462TIP3   OH219391   4.919   4.283   2.371
 6462TIP3    H119392   4.838   4.266   2.323
 6462TIP3    H219393   4.910   4.373   2.403
 6463TIP3   OH219394   4.433   4.485   0.744
 6463TIP3    H119395   4.510   4.507   0.797
 6463TIP3    H219396   4.377   4.563   0.751
 6464TIP3   OH219397   3.193   1.245   4.922
 6464TIP3    H119398   3.271   1.301   4.917
 6464TIP3    H219399   3.120   1.307   4.926
 6465TIP3   OH219400   5.260   1.792   1.258
 6465TIP3    H119401   5.322   1.863   1.240
 6465TIP3    H219402   5.305   1.712   1.229
 6466TIP3   OH219403   5.796   2.510   2.133
 6466TIP3    H119404   5.757   2.574   2.193
 6466TIP3    H219405   5.822   2.437   2.190
 6467TIP3   OH219406   6.311   2.438   0.022
 6467TIP3    H119407   6.293   2.405   0.110
 6467TIP3    H219408   6.353   2.364  -0.023
 6468TIP3   OH219409   4.413   1.705   4.247
 6468TIP3    H119410   4.333   1.743   4.284
 6468TIP3    H219411   4.394   1.694   4.154
 6469TIP3   OH219412   5.964   1.916   5.026
 6469TIP3    H119413   5.892   1.885   4.971
 6469TIP3    H219414   6.039   1.920   4.968
 6470TIP3   OH219415   2.692   4.277   0.847
 6470TIP3    H119416   2.733   4.307   0.766
 6470TIP3    H219417   2.712   4.184   0.852
 6471TIP3   OH219418   1.422   0.858   2.218
 6471TIP3    H119419   1.327   0.855   2.216
 6471TIP3    H219420   1.443   0.890   2.306
 6472TIP3   OH219421   4.720   2.134   4.420
 6472TIP3    H119422   4.734   2.048   4.381
 6472TIP3    H219423   4.625   2.139   4.433
 6473TIP3   OH219424   3.181   5.877   2.702
 6473TIP3    H119425   3.114   5.874   2.634
 6473TIP3    H219426   3.144   5.829   2.776
 6474TIP3   OH219427   3.175   0.167   0.783
 6474TIP3    H119428   3.118   0.126   0.719
 6474TIP3    H219429   3.192   0.255   0.748
 6475TIP3   OH219430   0.128   5.804   4.926
 6475TIP3    H119431   0.103   5.806   5.019
 6475TIP3    H219432   0.118   5.895   4.897
 6476TIP3   OH219433   3.086   3.386   5.064
 6476TIP3    H119434   3.043   3.336   4.995
 6476TIP3    H219435   3.119   3.465   5.020
 6477TIP3   OH219436   6.062   3.448   1.083
 6477TIP3    H119437   6.126   3.388   1.045
 6477TIP3    H219438   5.998   3.392   1.125
 6478TIP3   OH219439   0.860   3.594   1.043
 6478TIP3    H119440   0.819   3.523   1.091
 6478TIP3    H219441   0.935   3.620   1.097
 6479TIP3   OH219442   3.314   2.631   2.208
 6479TIP3    H119443   3.363   2.704   2.246
 6479TIP3    H219444   3.358   2.613   2.126
 6480TIP3   OH219445   2.165   5.782   1.982
 6480TIP3    H119446   2.136   5.823   2.064
 6480TIP3    H219447   2.129   5.838   1.914
 6481TIP3   OH219448   2.549   2.746   3.655
 6481TIP3    H119449   2.552   2.789   3.741
 6481TIP3    H219450   2.607   2.799   3.600
 6482TIP3   OH219451   5.054   2.802   3.765
 6482TIP3    H119452   5.063   2.719   3.717
 6482TIP3    H219453   5.117   2.860   3.724
 6483TIP3   OH219454   4.338   0.384   1.878
 6483TIP3    H119455   4.425   0.392   1.919
 6483TIP3    H219456   4.356   0.364   1.787
 6484TIP3   OH219457   3.457   2.112   4.398
 6484TIP3    H119458   3.388   2.068   4.348
 6484TIP3    H219459   3.440   2.087   4.489
 6485TIP3   OH219460   4.287   5.202   0.767
 6485TIP3    H119461   4.209   5.224   0.818
 6485TIP3    H219462   4.255   5.145   0.697
 6486TIP3   OH219463   3.611   5.714   4.297
 6486TIP3    H119464   3.626   5.687   4.388
 6486TIP3    H219465   3.516   5.704   4.285
 6487TIP3   OH219466   2.520   5.010   2.163
 6487TIP3    H119467   2.495   5.098   2.192
 6487TIP3    H219468   2.603   5.022   2.118
 6488TIP3   OH219469   4.462   2.100   4.450
 6488TIP3    H119470   4.425   2.019   4.413
 6488TIP3    H219471   4.391   2.164   4.442
 6489TIP3   OH219472   2.502   0.891   3.762
 6489TIP3    H119473   2.595   0.910   3.750
 6489TIP3    H219474   2.499   0.798   3.781
 6490TIP3   OH219475   0.470   5.276   3.997
 6490TIP3    H119476   0.436   5.258   3.909
 6490TIP3    H219477   0.424   5.354   4.026
 6491TIP3   OH219478   4.122   5.018   4.336
 6491TIP3    H119479   4.129   4.931   4.295
 6491TIP3    H219480   4.203   5.028   4.384
 6492TIP3   OH219481   3.376   0.776   4.439
 6492TIP3    H119482   3.360   0.685   4.467
 6492TIP3    H219483   3.322   0.786   4.361
 6493TIP3   OH219484   1.396   4.771   5.096
 6493TIP3    H119485   1.321   4.820   5.062
 6493TIP3    H219486   1.357   4.711   5.160
 6494TIP3   OH219487   3.019   2.642   1.652
 6494TIP3    H119488   2.990   2.733   1.648
 6494TIP3    H219489   3.011   2.619   1.744
 6495TIP3   OH219490   4.106   1.772   1.180
 6495TIP3    H119491   4.023   1.740   1.147
 6495TIP3    H219492   4.101   1.867   1.168
 6496TIP3   OH219493   3.224   4.771   3.390
 6496TIP3    H119494   3.264   4.827   3.456
 6496TIP3    H219495   3.213   4.828   3.314
 6497TIP3   OH219496   3.590   4.605   3.140
 6497TIP3    H119497   3.656   4.588   3.207
 6497TIP3    H219498   3.633   4.583   3.057
 6498TIP3   OH219499   1.676   4.086   2.505
 6498TIP3    H119500   1.732   4.062   2.431
 6498TIP3    H219501   1.596   4.036   2.492
 6499TIP3   OH219502   4.722   4.434   3.784
 6499TIP3    H119503   4.707   4.490   3.860
 6499TIP3    H219504   4.650   4.371   3.786
 6500TIP3   OH219505   5.427   1.181   2.490
 6500TIP3    H119506   5.434   1.228   2.407
 6500TIP3    H219507   5.494   1.113   2.484
 6501TIP3   OH219508   0.947   1.743   0.486
 6501TIP3    H119509   0.992   1.795   0.419
 6501TIP3    H219510   0.862   1.723   0.448
 6502TIP3   OH219511   0.336   3.916   0.944
 6502TIP3    H119512   0.311   3.983   1.007
 6502TIP3    H219513   0.311   3.833   0.985
 6503TIP3   OH219514   6.040   5.330   1.751
 6503TIP3    H119515   5.962   5.362   1.795
 6503TIP3    H219516   6.008   5.268   1.686
 6504TIP3   OH219517   5.382   3.424   4.150
 6504TIP3    H119518   5.422   3.391   4.231
 6504TIP3    H219519   5.396   3.518   4.153
 6505TIP3   OH219520   2.929   1.453   3.912
 6505TIP3    H119521   2.986   1.391   3.957
 6505TIP3    H219522   2.908   1.519   3.979
 6506TIP3   OH219523   2.206   3.399   2.627
 6506TIP3    H119524   2.159   3.473   2.664
 6506TIP3    H219525   2.239   3.351   2.704
 6507TIP3   OH219526   1.894   5.833   1.841
 6507TIP3    H119527   1.891   5.756   1.784
 6507TIP3    H219528   1.808   5.835   1.883
 6508TIP3   OH219529   5.049   2.147   0.852
 6508TIP3    H119530   5.123   2.206   0.843
 6508TIP3    H219531   4.999   2.181   0.926
 6509TIP3   OH219532   0.442   1.637   2.287
 6509TIP3    H119533   0.511   1.591   2.240
 6509TIP3    H219534   0.361   1.592   2.263
 6510TIP3   OH219535   2.964   5.942   2.510
 6510TIP3    H119536   2.955   5.965   2.418
 6510TIP3    H219537   2.907   6.003   2.556
 6511TIP3   OH219538   1.791   5.873   0.106
 6511TIP3    H119539   1.849   5.806   0.071
 6511TIP3    H219540   1.788   5.941   0.038
 6512TIP3   OH219541   3.577   5.508   3.831
 6512TIP3    H119542   3.531   5.502   3.748
 6512TIP3    H219543   3.508   5.504   3.897
 6513TIP3   OH219544   5.385   2.182   4.843
 6513TIP3    H119545   5.469   2.136   4.849
 6513TIP3    H219546   5.339   2.140   4.771
 6514TIP3   OH219547   6.013   4.474   2.132
 6514TIP3    H119548   5.979   4.385   2.132
 6514TIP3    H219549   6.099   4.467   2.091
 6515TIP3   OH219550   1.339   3.721   0.879
 6515TIP3    H119551   1.402   3.687   0.815
 6515TIP3    H219552   1.256   3.679   0.856
 6516TIP3   OH219553   0.256   2.391   2.110
 6516TIP3    H119554   0.287   2.481   2.104
 6516TIP3    H219555   0.330   2.338   2.081
 6517TIP3   OH219556   2.435   5.888   1.848
 6517TIP3    H119557   2.466   5.850   1.766
 6517TIP3    H219558   2.370   5.953   1.821
 6518TIP3   OH219559   5.574   1.242   3.742
 6518TIP3    H119560   5.555   1.149   3.753
 6518TIP3    H219561   5.547   1.262   3.653
 6519TIP3   OH219562   6.309   3.853   1.600
 6519TIP3    H119563   6.275   3.767   1.576
 6519TIP3    H219564   6.232   3.902   1.630
 6520TIP3   OH219565   3.628   2.468   1.447
 6520TIP3    H119566   3.578   2.509   1.376
 6520TIP3    H219567   3.576   2.392   1.472
 6521TIP3   OH219568   0.599   3.248   0.364
 6521TIP3    H119569   0.665   3.317   0.369
 6521TIP3    H219570   0.638   3.174   0.409
 6522TIP3   OH219571   4.945   4.409   4.713
 6522TIP3    H119572   4.872   4.348   4.724
 6522TIP3    H219573   4.943   4.432   4.620
 6523TIP3   OH219574   3.655   2.056   2.105
 6523TIP3    H119575   3.569   2.096   2.115
 6523TIP3    H219576   3.683   2.035   2.194
 6524TIP3   OH219577   1.530   3.101   0.347
 6524TIP3    H119578   1.549   3.025   0.402
 6524TIP3    H219579   1.604   3.106   0.287
 6525TIP3   OH219580   4.827   3.115   1.786
 6525TIP3    H119581   4.801   3.194   1.738
 6525TIP3    H219582   4.904   3.142   1.836
 6526TIP3   OH219583   5.255   1.161   2.990
 6526TIP3    H119584   5.321   1.176   3.057
 6526TIP3    H219585   5.281   1.079   2.948
 6527TIP3   OH219586   1.762   2.235   0.934
 6527TIP3    H119587   1.764   2.203   0.843
 6527TIP3    H219588   1.831   2.301   0.937
 6528TIP3   OH219589   5.824   5.947   3.020
 6528TIP3    H119590   5.736   5.980   3.037
 6528TIP3    H219591   5.818   5.905   2.935
 6529TIP3   OH219592   5.193   2.091   0.458
 6529TIP3    H119593   5.139   2.123   0.386
 6529TIP3    H219594   5.136   2.098   0.535
 6530TIP3   OH219595   0.764   4.563   3.596
 6530TIP3    H119596   0.847   4.533   3.631
 6530TIP3    H219597   0.700   4.498   3.626
 6531TIP3   OH219598   1.174   2.134   4.995
 6531TIP3    H119599   1.185   2.039   4.989
 6531TIP3    H219600   1.081   2.146   5.015
 6532TIP3   OH219601   1.326   5.670   0.189
 6532TIP3    H119602   1.403   5.725   0.205
 6532TIP3    H219603   1.261   5.701   0.252
 6533TIP3   OH219604   5.421   4.405   1.299
 6533TIP3    H119605   5.494   4.424   1.359
 6533TIP3    H219606   5.350   4.375   1.357
 6534TIP3   OH219607   2.375   5.400   1.509
 6534TIP3    H119608   2.426   5.328   1.472
 6534TIP3    H219609   2.354   5.372   1.598
 6535TIP3   OH219610   5.192  -0.020   2.983
 6535TIP3    H119611   5.243   0.061   2.986
 6535TIP3    H219612   5.111   0.001   3.030
 6536TIP3   OH219613   1.236   5.122   2.589
 6536TIP3    H119614   1.226   5.218   2.589
 6536TIP3    H219615   1.193   5.094   2.508
 6537TIP3   OH219616   0.698   2.807   3.638
 6537TIP3    H119617   0.726   2.850   3.719
 6537TIP3    H219618   0.780   2.784   3.594
 6538TIP3   OH219619   4.205   0.204   5.068
 6538TIP3    H119620   4.223   0.196   4.974
 6538TIP3    H219621   4.277   0.257   5.102
 6539TIP3   OH219622   1.726   5.128   3.621
 6539TIP3    H119623   1.679   5.073   3.559
 6539TIP3    H219624   1.707   5.090   3.706
 6540TIP3   OH219625   5.410   2.898   3.321
 6540TIP3    H119626   5.380   2.970   3.267
 6540TIP3    H219627   5.418   2.824   3.261
 6541TIP3   OH219628   3.755   4.107   3.119
 6541TIP3    H119629   3.781   4.023   3.156
 6541TIP3    H219630   3.772   4.098   3.025
 6542TIP3   OH219631   2.410   0.555   0.660
 6542TIP3    H119632   2.375   0.638   0.628
 6542TIP3    H219633   2.338   0.493   0.648
 6543TIP3   OH219634   4.737   1.860   0.288
 6543TIP3    H119635   4.770   1.771   0.302
 6543TIP3    H219636   4.649   1.847   0.253
 6544TIP3   OH219637   1.868   3.955   1.093
 6544TIP3    H119638   1.845   3.901   1.017
 6544TIP3    H219639   1.820   4.036   1.080
 6545TIP3   OH219640   3.489   1.597   0.222
 6545TIP3    H119641   3.561   1.547   0.184
 6545TIP3    H219642   3.532   1.661   0.280
 6546TIP3   OH219643   3.725   5.504   0.517
 6546TIP3    H119644   3.770   5.444   0.576
 6546TIP3    H219645   3.794   5.563   0.487
 6547TIP3   OH219646   1.744   3.678   1.376
 6547TIP3    H119647   1.789   3.625   1.310
 6547TIP3    H219648   1.787   3.763   1.372
 6548TIP3   OH219649   1.078   0.656   4.933
 6548TIP3    H119650   1.119   0.571   4.949
 6548TIP3    H219651   1.075   0.698   5.019
 6549TIP3   OH219652   2.242   2.126   1.030
 6549TIP3    H119653   2.240   2.222   1.026
 6549TIP3    H219654   2.269   2.100   0.942
 6550TIP3   OH219655   2.718   4.372   2.220
 6550TIP3    H119656   2.686   4.296   2.268
 6550TIP3    H219657   2.641   4.408   2.177
 6551TIP3   OH219658   2.099   0.646   0.603
 6551TIP3    H119659   2.058   0.561   0.621
 6551TIP3    H219660   2.059   0.706   0.666
 6552TIP3   OH219661   3.511   4.080   1.167
 6552TIP3    H119662   3.522   3.988   1.189
 6552TIP3    H219663   3.547   4.089   1.079
 6553TIP3   OH219664   3.788   4.059   1.853
 6553TIP3    H119665   3.722   4.024   1.913
 6553TIP3    H219666   3.788   3.997   1.780
 6554TIP3   OH219667   5.063   3.124   4.771
 6554TIP3    H119668   5.007   3.189   4.813
 6554TIP3    H219669   5.036   3.125   4.679
 6555TIP3   OH219670   1.535   4.677   1.336
 6555TIP3    H119671   1.502   4.626   1.410
 6555TIP3    H219672   1.457   4.705   1.289
 6556TIP3   OH219673   0.812   5.276   1.947
 6556TIP3    H119674   0.785   5.359   1.909
 6556TIP3    H219675   0.895   5.296   1.991
 6557TIP3   OH219676   0.684   2.911   2.536
 6557TIP3    H119677   0.655   2.847   2.602
 6557TIP3    H219678   0.646   2.994   2.566
 6558TIP3   OH219679   1.120   5.120   4.686
 6558TIP3    H119680   1.036   5.163   4.700
 6558TIP3    H219681   1.099   5.042   4.634
 6559TIP3   OH219682   4.944   1.163   0.244
 6559TIP3    H119683   5.023   1.134   0.198
 6559TIP3    H219684   4.874   1.109   0.208
 6560TIP3   OH219685   6.243   0.946   1.236
 6560TIP3    H119686   6.270   0.860   1.202
 6560TIP3    H219687   6.148   0.945   1.231
 6561TIP3   OH219688   1.597   3.488   0.192
 6561TIP3    H119689   1.609   3.422   0.123
 6561TIP3    H219690   1.503   3.506   0.192
 6562TIP3   OH219691   2.764   0.568   1.711
 6562TIP3    H119692   2.846   0.534   1.747
 6562TIP3    H219693   2.700   0.499   1.729
 6563TIP3   OH219694   3.692   0.784   5.063
 6563TIP3    H119695   3.711   0.692   5.044
 6563TIP3    H219696   3.764   0.812   5.120
 6564TIP3   OH219697   1.384   5.233   4.797
 6564TIP3    H119698   1.419   5.157   4.844
 6564TIP3    H219699   1.313   5.197   4.744
 6565TIP3   OH219700   3.210   1.043   1.152
 6565TIP3    H119701   3.191   1.039   1.245
 6565TIP3    H219702   3.123   1.046   1.110
 6566TIP3   OH219703   4.448   1.918   0.204
 6566TIP3    H119704   4.392   1.995   0.193
 6566TIP3    H219705   4.449   1.876   0.118
 6567TIP3   OH219706   1.010   5.089   0.258
 6567TIP3    H119707   1.106   5.092   0.252
 6567TIP3    H219708   0.982   5.178   0.234
 6568TIP3   OH219709   0.174   5.472   0.518
 6568TIP3    H119710   0.115   5.449   0.446
 6568TIP3    H219711   0.117   5.474   0.595
 6569TIP3   OH219712   5.890   4.764   5.152
 6569TIP3    H119713   5.863   4.821   5.225
 6569TIP3    H219714   5.900   4.824   5.078
 6570TIP3   OH219715   1.581   1.655   3.643
 6570TIP3    H119716   1.601   1.690   3.730
 6570TIP3    H219717   1.486   1.662   3.635
 6571TIP3   OH219718   3.372   0.015   5.115
 6571TIP3    H119719   3.288   0.040   5.155
 6571TIP3    H219720   3.414   0.098   5.094
 6572TIP3   OH219721   2.535   0.807   2.849
 6572TIP3    H119722   2.612   0.835   2.899
 6572TIP3    H219723   2.520   0.878   2.786
 6573TIP3   OH219724   2.013   5.876   4.203
 6573TIP3    H119725   2.010   5.843   4.113
 6573TIP3    H219726   2.101   5.856   4.233
 6574TIP3   OH219727   4.247   3.812   1.902
 6574TIP3    H119728   4.172   3.868   1.922
 6574TIP3    H219729   4.222   3.725   1.934
 6575TIP3   OH219730   2.680   2.593   3.165
 6575TIP3    H119731   2.733   2.518   3.140
 6575TIP3    H219732   2.590   2.562   3.156
 6576TIP3   OH219733   5.800   4.010   0.101
 6576TIP3    H119734   5.727   4.066   0.074
 6576TIP3    H219735   5.757   3.935   0.142
 6577TIP3   OH219736   2.162   5.383   1.302
 6577TIP3    H119737   2.217   5.441   1.355
 6577TIP3    H219738   2.166   5.299   1.347
 6578TIP3   OH219739   3.293   2.236   1.021
 6578TIP3    H119740   3.261   2.307   0.965
 6578TIP3    H219741   3.227   2.168   1.013
 6579TIP3   OH219742   2.838   3.371   0.877
 6579TIP3    H119743   2.792   3.314   0.939
 6579TIP3    H219744   2.777   3.380   0.803
 6580TIP3   OH219745   1.654   2.925   4.220
 6580TIP3    H119746   1.651   2.833   4.244
 6580TIP3    H219747   1.631   2.972   4.301
 6581TIP3   OH219748   5.976   5.605   2.025
 6581TIP3    H119749   5.936   5.554   1.955
 6581TIP3    H219750   5.971   5.695   1.995
 6582TIP3   OH219751   5.784   1.935   3.601
 6582TIP3    H119752   5.701   1.899   3.569
 6582TIP3    H219753   5.792   1.899   3.690
 6583TIP3   OH219754   5.291   3.871   2.498
 6583TIP3    H119755   5.252   3.850   2.583
 6583TIP3    H219756   5.239   3.820   2.435
 6584TIP3   OH219757   1.065   4.971   0.893
 6584TIP3    H119758   1.023   4.943   0.811
 6584TIP3    H219759   1.021   4.921   0.961
 6585TIP3   OH219760   4.346   5.809   2.452
 6585TIP3    H119761   4.410   5.764   2.507
 6585TIP3    H219762   4.309   5.741   2.396
 6586TIP3   OH219763   5.103   4.989   3.758
 6586TIP3    H119764   5.026   4.991   3.815
 6586TIP3    H219765   5.168   5.041   3.804
 6587TIP3   OH219766   1.602   2.276   4.815
 6587TIP3    H119767   1.593   2.367   4.786
 6587TIP3    H219768   1.687   2.274   4.859
 6588TIP3   OH219769   0.569   2.251   1.517
 6588TIP3    H119770   0.509   2.176   1.509
 6588TIP3    H219771   0.649   2.213   1.553
 6589TIP3   OH219772   4.828   1.949   1.047
 6589TIP3    H119773   4.818   2.000   0.966
 6589TIP3    H219774   4.751   1.892   1.048
 6590TIP3   OH219775   1.361   1.422   0.290
 6590TIP3    H119776   1.454   1.412   0.309
 6590TIP3    H219777   1.342   1.355   0.225
 6591TIP3   OH219778   4.036   4.375   4.318
 6591TIP3    H119779   3.990   4.442   4.368
 6591TIP3    H219780   4.064   4.311   4.383
 6592TIP3   OH219781   1.951   2.925   4.144
 6592TIP3    H119782   2.000   2.866   4.201
 6592TIP3    H219783   1.860   2.897   4.153
 6593TIP3   OH219784   0.727   4.433   1.690
 6593TIP3    H119785   0.674   4.415   1.612
 6593TIP3    H219786   0.781   4.507   1.665
 6594TIP3   OH219787   3.034   2.992   4.823
 6594TIP3    H119788   3.053   2.988   4.917
 6594TIP3    H219789   3.040   3.086   4.802
 6595TIP3   OH219790   3.457   2.550   0.892
 6595TIP3    H119791   3.429   2.639   0.870
 6595TIP3    H219792   3.380   2.496   0.872
 6596TIP3   OH219793   2.885   3.724   3.910
 6596TIP3    H119794   2.826   3.753   3.980
 6596TIP3    H219795   2.971   3.755   3.938
 6597TIP3   OH219796   1.008   4.604   4.429
 6597TIP3    H119797   1.068   4.559   4.369
 6597TIP3    H219798   1.021   4.697   4.412
 6598TIP3   OH219799   5.041   5.313   1.273
 6598TIP3    H119800   5.120   5.281   1.316
 6598TIP3    H219801   5.041   5.407   1.289
 6599TIP3   OH219802   3.124   0.720   2.909
 6599TIP3    H119803   3.206   0.766   2.927
 6599TIP3    H219804   3.072   0.734   2.989
 6600TIP3   OH219805   2.225   2.903   2.294
 6600TIP3    H119806   2.226   2.994   2.326
 6600TIP3    H219807   2.246   2.851   2.372
 6601TIP3   OH219808   4.399   3.086   4.495
 6601TIP3    H119809   4.457   3.039   4.554
 6601TIP3    H219810   4.454   3.155   4.457
 6602TIP3   OH219811   4.036   0.346   1.612
 6602TIP3    H119812   4.039   0.417   1.548
 6602TIP3    H219813   3.981   0.379   1.683
 6603TIP3   OH219814   5.041   5.908   0.945
 6603TIP3    H119815   4.988   5.979   0.981
 6603TIP3    H219816   5.131   5.932   0.966
 6604TIP3   OH219817   3.077   0.727   4.892
 6604TIP3    H119818   3.137   0.801   4.886
 6604TIP3    H219819   3.091   0.677   4.812
 6605TIP3   OH219820   3.297   4.210   3.304
 6605TIP3    H119821   3.345   4.134   3.336
 6605TIP3    H219822   3.362   4.264   3.260
 6606TIP3   OH219823   0.807   1.505   0.867
 6606TIP3    H119824   0.854   1.582   0.899
 6606TIP3    H219825   0.745   1.540   0.802
 6607TIP3   OH219826   5.107   4.619   2.034
 6607TIP3    H119827   5.086   4.672   2.111
 6607TIP3    H219828   5.191   4.654   2.003
 6608TIP3   OH219829   5.944   0.485   1.873
 6608TIP3    H119830   5.881   0.530   1.816
 6608TIP3    H219831   5.944   0.535   1.954
 6609TIP3   OH219832   1.366   4.185   4.247
 6609TIP3    H119833   1.388   4.264   4.198
 6609TIP3    H219834   1.270   4.184   4.249
 6610TIP3   OH219835   0.810   3.177   3.334
 6610TIP3    H119836   0.841   3.198   3.422
 6610TIP3    H219837   0.875   3.116   3.300
 6611TIP3   OH219838   2.293   2.497   2.517
 6611TIP3    H119839   2.320   2.432   2.451
 6611TIP3    H219840   2.307   2.581   2.475
 6612TIP3   OH219841   4.745   4.210   4.653
 6612TIP3    H119842   4.779   4.136   4.602
 6612TIP3    H219843   4.670   4.240   4.603
 6613TIP3   OH219844   0.978   3.390   1.900
 6613TIP3    H119845   0.920   3.355   1.832
 6613TIP3    H219846   0.919   3.422   1.968
 6614TIP3   OH219847   1.702   3.306   1.060
 6614TIP3    H119848   1.776   3.252   1.087
 6614TIP3    H219849   1.671   3.264   0.980
 6615TIP3   OH219850   1.671   0.807   2.362
 6615TIP3    H119851   1.701   0.781   2.275
 6615TIP3    H219852   1.614   0.735   2.391
 6616TIP3   OH219853   1.789   4.143   4.605
 6616TIP3    H119854   1.767   4.055   4.635
 6616TIP3    H219855   1.710   4.195   4.619
 6617TIP3   OH219856   2.584   0.824   3.272
 6617TIP3    H119857   2.535   0.814   3.354
 6617TIP3    H219858   2.518   0.817   3.204
 6618TIP3   OH219859   3.770   1.200   3.461
 6618TIP3    H119860   3.677   1.209   3.482
 6618TIP3    H219861   3.806   1.146   3.532
 6619TIP3   OH219862   1.731   4.590   1.837
 6619TIP3    H119863   1.647   4.544   1.832
 6619TIP3    H219864   1.777   4.547   1.909
 6620TIP3   OH219865   0.900   4.866   2.152
 6620TIP3    H119866   0.963   4.938   2.160
 6620TIP3    H219867   0.840   4.879   2.225
 6621TIP3   OH219868   6.105   4.904   1.642
 6621TIP3    H119869   6.131   4.839   1.576
 6621TIP3    H219870   6.187   4.947   1.666
 6622TIP3   OH219871   0.487   4.640   0.754
 6622TIP3    H119872   0.549   4.658   0.825
 6622TIP3    H219873   0.489   4.544   0.745
 6623TIP3   OH219874   1.823   0.740   3.879
 6623TIP3    H119875   1.887   0.754   3.949
 6623TIP3    H219876   1.813   0.645   3.874
 6624TIP3   OH219877   3.497   5.223   4.804
 6624TIP3    H119878   3.586   5.211   4.770
 6624TIP3    H219879   3.482   5.318   4.797
 6625TIP3   OH219880   2.839   2.471   1.551
 6625TIP3    H119881   2.902   2.537   1.580
 6625TIP3    H219882   2.881   2.387   1.572
 6626TIP3   OH219883   4.284   2.420   4.951
 6626TIP3    H119884   4.328   2.388   5.030
 6626TIP3    H219885   4.223   2.350   4.928
 6627TIP3   OH219886   4.256   2.783   4.717
 6627TIP3    H119887   4.323   2.758   4.781
 6627TIP3    H219888   4.219   2.864   4.750
 6628TIP3   OH219889   2.622   2.914   3.097
 6628TIP3    H119890   2.689   2.949   3.038
 6628TIP3    H219891   2.556   2.983   3.102
 6629TIP3   OH219892   4.253   4.250   0.777
 6629TIP3    H119893   4.333   4.303   0.774
 6629TIP3    H219894   4.280   4.169   0.821
 6630TIP3   OH219895   2.367   4.444   3.844
 6630TIP3    H119896   2.341   4.535   3.862
 6630TIP3    H219897   2.457   4.450   3.814
 6631TIP3   OH219898   4.902   1.625   4.576
 6631TIP3    H119899   4.894   1.720   4.568
 6631TIP3    H219900   4.820   1.591   4.538
 6632TIP3   OH219901   4.373   0.055   1.702
 6632TIP3    H119902   4.316   0.003   1.645
 6632TIP3    H219903   4.424   0.109   1.642
 6633TIP3   OH219904   0.090   4.984   0.559
 6633TIP3    H119905   0.113   4.942   0.642
 6633TIP3    H219906   0.174   4.998   0.515
 6634TIP3   OH219907   4.164   5.262   3.231
 6634TIP3    H119908   4.186   5.315   3.308
 6634TIP3    H219909   4.243   5.263   3.178
 6635TIP3   OH219910   0.947   1.479   3.185
 6635TIP3    H119911   1.015   1.439   3.240
 6635TIP3    H219912   0.923   1.410   3.123
 6636TIP3   OH219913   4.249   4.112   4.789
 6636TIP3    H119914   4.319   4.059   4.750
 6636TIP3    H219915   4.261   4.199   4.753
 6637TIP3   OH219916   2.611   4.425   2.978
 6637TIP3    H119917   2.703   4.444   2.996
 6637TIP3    H219918   2.610   4.334   2.950
 6638TIP3   OH219919   1.021   2.692   0.519
 6638TIP3    H119920   1.062   2.778   0.529
 6638TIP3    H219921   0.933   2.712   0.484
 6639TIP3   OH219922   4.141   4.702   4.495
 6639TIP3    H119923   4.131   4.758   4.571
 6639TIP3    H219924   4.231   4.670   4.500
 6640TIP3   OH219925   4.774   3.218   1.072
 6640TIP3    H119926   4.859   3.191   1.036
 6640TIP3    H219927   4.775   3.314   1.066
 6641TIP3   OH219928   5.150   2.936   1.746
 6641TIP3    H119929   5.164   2.954   1.653
 6641TIP3    H219930   5.222   2.980   1.791
 6642TIP3   OH219931   1.652   4.854   2.981
 6642TIP3    H119932   1.625   4.794   2.912
 6642TIP3    H219933   1.570   4.889   3.017
 6643TIP3   OH219934   1.231   1.576   2.044
 6643TIP3    H119935   1.173   1.652   2.032
 6643TIP3    H219936   1.319   1.610   2.029
 6644TIP3   OH219937   0.182   3.220   0.070
 6644TIP3    H119938   0.250   3.163   0.106
 6644TIP3    H219939   0.228   3.279   0.012
 6645TIP3   OH219940   5.814   2.482   4.235
 6645TIP3    H119941   5.908   2.468   4.240
 6645TIP3    H219942   5.800   2.569   4.273
   6.35079   5.98758   5.18540   0.00000   0.00000  -2.11694   0.00000  -2.11694  -2.99379
