Title
19927
    1ASP      N    1   0.039   3.528   1.200  0.0551 -0.0710  0.2550
    1ASP    HT1    2   0.097   3.446   1.228  0.2894 -0.6167 -1.6814
    1ASP    HT2    3   0.097   3.612   1.219  1.1906 -0.4297 -1.4514
    1ASP    HT3    4   0.028   3.519   1.097  0.3116  1.5558  0.0505
    1ASP     CA    5  -0.091   3.515   1.277 -0.5741  0.2919  0.0389
    1ASP     HA    6  -0.144   3.428   1.242 -0.8437  1.2080 -1.9590
    1ASP     CB    7  -0.049   3.482   1.424 -0.6682 -0.0414 -0.0917
    1ASP    HB1    8  -0.134   3.497   1.494 -1.0089  0.2387 -0.5565
    1ASP    HB2    9   0.026   3.557   1.457 -0.6128 -0.3283  0.4540
    1ASP     CG   10   0.006   3.340   1.444 -0.0428  0.5158  0.1968
    1ASP    OD1   11   0.034   3.267   1.342 -0.3338  0.4207 -0.4661
    1ASP    OD2   12   0.028   3.304   1.562 -0.4420  0.1339  0.2475
    1ASP      C   13  -0.181   3.640   1.257  0.0529  0.3665 -0.1352
    1ASP      O   14  -0.186   3.699   1.148 -0.3516  0.4677  0.7772
    2ALA      N   15  -0.265   3.675   1.358 -0.2920  0.5348  0.4211
    2ALA     HN   16  -0.277   3.614   1.437 -1.0108 -0.7134 -0.6246
    2ALA     CA   17  -0.365   3.779   1.345  0.2579 -0.8156 -0.4292
    2ALA     HA   18  -0.437   3.755   1.269  2.6359 -2.6324 -2.2847
    2ALA     CB   19  -0.464   3.783   1.470  0.1089  0.2462  0.0525
    2ALA    HB1   20  -0.414   3.800   1.567  0.1160 -2.4239  0.6103
    2ALA    HB2   21  -0.510   3.682   1.482  0.6155 -0.0136 -0.1272
    2ALA    HB3   22  -0.546   3.856   1.454  0.3467  0.2940 -1.0571
    2ALA      C   23  -0.304   3.915   1.312 -0.4316  0.3683  0.0299
    2ALA      O   24  -0.190   3.939   1.344  0.1206  0.4707  0.1348
    3ASP      N   25  -0.376   3.999   1.237 -0.6882 -0.1444 -0.2881
    3ASP     HN   26  -0.465   3.972   1.201 -0.9779 -2.0099  1.6382
    3ASP     CA   27  -0.325   4.133   1.210 -0.1487  0.0470 -0.6527
    3ASP     HA   28  -0.223   4.124   1.174 -0.6627  0.6093 -2.3152
    3ASP     CB   29  -0.424   4.208   1.118  0.2786  0.1165  0.3713
    3ASP    HB1   30  -0.386   4.310   1.093 -0.1295  0.4253  0.9777
    3ASP    HB2   31  -0.519   4.227   1.172  0.3474 -0.0484  0.5513
    3ASP     CG   32  -0.454   4.137   0.984 -1.0437  0.7202  0.6914
    3ASP    OD1   33  -0.349   4.095   0.927  0.1386  0.1344 -0.2815
    3ASP    OD2   34  -0.572   4.132   0.938 -0.7131  0.0413  0.2294
    3ASP      C   35  -0.307   4.219   1.339  0.3961  0.1585  0.5343
    3ASP      O   36  -0.383   4.204   1.434 -0.0620  0.4551 -0.3782
    4GLY      N   37  -0.214   4.318   1.338 -0.1926 -0.5270 -0.8041
    4GLY     HN   38  -0.139   4.322   1.272  0.8510 -1.3146  0.2777
    4GLY     CA   39  -0.201   4.415   1.450  0.4576  0.2511  0.0676
    4GLY    HA1   40  -0.121   4.480   1.419  0.4700  0.1335 -0.1473
    4GLY    HA2   41  -0.170   4.368   1.542  0.3653  1.8943  0.9653
    4GLY      C   42  -0.329   4.506   1.486  0.0231  0.1357 -0.3782
    4GLY      O   43  -0.436   4.493   1.427 -0.4392 -0.0851  0.2473
    5PRO      N   44  -0.308   4.601   1.581 -0.1087  0.0364  0.6135
    5PRO     CD   45  -0.175   4.629   1.634 -0.0202 -0.0592 -0.9348
    5PRO    HD1   46  -0.116   4.687   1.560  0.8060  0.6715  0.2650
    5PRO    HD2   47  -0.113   4.543   1.666  1.4825  1.3105 -0.0014
    5PRO     CA   48  -0.393   4.709   1.615 -0.2818 -0.0055 -0.1990
    5PRO     HA   49  -0.468   4.667   1.681 -1.9207  2.7569 -0.1399
    5PRO     CB   50  -0.302   4.813   1.685  0.1692 -0.2679  0.3304
    5PRO    HB1   51  -0.353   4.890   1.748  2.6847  1.7825  0.0260
    5PRO    HB2   52  -0.250   4.878   1.611 -0.8008 -0.0150 -0.1435
    5PRO     CG   53  -0.197   4.724   1.755 -0.3073 -0.7238  0.9168
    5PRO    HG1   54  -0.104   4.775   1.787  0.7641 -1.1970 -1.2366
    5PRO    HG2   55  -0.251   4.681   1.842 -0.3866 -1.0105  0.7266
    5PRO      C   56  -0.474   4.782   1.504 -0.8824  0.3095  0.0774
    5PRO      O   57  -0.419   4.813   1.399  0.0605  0.2253 -0.2327
    6GLY      N   58  -0.605   4.808   1.524 -0.0486 -0.2958 -0.1173
    6GLY     HN   59  -0.648   4.783   1.611 -2.0065 -2.8929 -1.6963
    6GLY     CA   60  -0.688   4.890   1.430 -0.5382  0.3997 -0.5532
    6GLY    HA1   61  -0.778   4.901   1.487  0.2740 -1.4605  1.2271
    6GLY    HA2   62  -0.707   4.830   1.341 -2.5481  1.4402 -0.8695
    6GLY      C   63  -0.643   5.025   1.389  0.3102 -0.1726 -0.3144
    6GLY      O   64  -0.556   5.086   1.450 -0.2473  0.2644  0.5636
    7ASP      N   65  -0.707   5.087   1.286 -0.0748 -0.4732 -0.0429
    7ASP     HN   66  -0.780   5.026   1.256  1.2105 -2.4107  0.5801
    7ASP     CA   67  -0.672   5.217   1.236  0.2496  0.0048 -0.1542
    7ASP     HA   68  -0.568   5.237   1.259  0.5277  0.5080 -1.7154
    7ASP     CB   69  -0.684   5.214   1.077 -0.3315 -0.8129 -0.6392
    7ASP    HB1   70  -0.653   5.309   1.029 -0.1220  0.4020  1.7571
    7ASP    HB2   71  -0.791   5.200   1.050 -0.3281 -1.4925 -0.3404
    7ASP     CG   72  -0.598   5.108   1.013 -0.3890 -0.6108  0.0782
    7ASP    OD1   73  -0.618   5.077   0.895  0.2824  0.1327 -0.6635
    7ASP    OD2   74  -0.492   5.078   1.071 -0.0923 -0.5201  0.1816
    7ASP      C   75  -0.756   5.334   1.290  0.2040  0.2885 -0.0538
    7ASP      O   76  -0.867   5.313   1.337 -0.2520 -0.2690  0.4500
    8PRO      N   77  -0.719   5.458   1.285 -0.5299 -0.0031 -0.0135
    8PRO     CD   78  -0.574   5.494   1.279  0.7721 -0.2420  0.5867
    8PRO    HD1   79  -0.532   5.487   1.176 -0.2570 -1.4544  0.2218
    8PRO    HD2   80  -0.508   5.428   1.338  0.3822  0.1405  1.4646
    8PRO     CA   81  -0.804   5.577   1.312  0.3294 -0.0420  0.3412
    8PRO     HA   82  -0.815   5.574   1.420 -1.5009 -1.0345  0.1664
    8PRO     CB   83  -0.712   5.694   1.276  0.1042  0.5739  0.3772
    8PRO    HB1   84  -0.737   5.784   1.336  0.7915  2.3453 -1.8518
    8PRO    HB2   85  -0.708   5.724   1.169 -0.4746  0.1432  0.2258
    8PRO     CG   86  -0.579   5.640   1.320 -0.0699 -0.2821 -0.3504
    8PRO    HG1   87  -0.501   5.704   1.273 -0.0388  0.5535  0.7991
    8PRO    HG2   88  -0.577   5.647   1.431 -2.2013  1.0843 -0.3466
    8PRO      C   89  -0.939   5.578   1.248  0.3307 -0.2326  0.2914
    8PRO      O   90  -0.956   5.563   1.125 -0.2609  0.1750 -0.4643
    9ASP      N   91  -1.039   5.588   1.337  0.5825  0.0494 -0.3778
    9ASP     HN   92  -1.015   5.576   1.433 -0.6580 -3.0798 -0.3410
    9ASP     CA   93  -1.178   5.564   1.312  0.1418  0.4702 -0.0967
    9ASP     HA   94  -1.185   5.459   1.288 -0.8089  0.4249  0.3480
    9ASP     CB   95  -1.271   5.589   1.435  0.3284  0.2106  0.0789
    9ASP    HB1   96  -1.377   5.565   1.412  0.1456  0.0203  1.0840
    9ASP    HB2   97  -1.269   5.693   1.473  0.6373  0.3311 -0.2667
    9ASP     CG   98  -1.250   5.492   1.552  0.4583 -0.3389 -0.5996
    9ASP    OD1   99  -1.314   5.520   1.656 -0.2471  0.2003 -0.7895
    9ASP    OD2  100  -1.177   5.392   1.542 -0.5392  0.1434 -0.7584
    9ASP      C  101  -1.225   5.645   1.191  0.3805 -0.0343  0.2703
    9ASP      O  102  -1.197   5.761   1.171  0.0301 -0.2722 -0.9734
   10ALA      N  103  -1.312   5.578   1.111  0.1076  0.2520  0.0086
   10ALA     HN  104  -1.338   5.486   1.139  1.2782 -0.3122 -0.6787
   10ALA     CA  105  -1.395   5.638   1.005  0.2532 -0.3594 -0.0804
   10ALA     HA  106  -1.327   5.688   0.938  1.0007  0.8992  1.5580
   10ALA     CB  107  -1.467   5.522   0.924 -0.0402  0.9407 -0.1517
   10ALA    HB1  108  -1.511   5.450   0.996  0.0746  1.0851  0.0651
   10ALA    HB2  109  -1.410   5.462   0.851 -0.8220 -0.9512  0.7051
   10ALA    HB3  110  -1.545   5.566   0.858 -0.4765  0.3136 -0.0562
   10ALA      C  111  -1.481   5.756   1.040  0.3566 -0.5206 -0.8994
   10ALA      O  112  -1.510   5.787   1.160  0.0573  0.2389 -0.7404
   11GLY      N  113  -1.520   5.840   0.948 -0.3433 -0.3761 -0.2457
   11GLY     HN  114  -1.482   5.819   0.858  2.2725 -0.6732  0.8374
   11GLY     CA  115  -1.611   5.960   0.952 -0.6598  0.1165 -0.0599
   11GLY    HA1  116  -1.706   5.937   0.999 -0.8201  1.8251  0.5413
   11GLY    HA2  117  -1.618   5.992   0.849  1.8969  0.8120 -0.0845
   11GLY      C  118  -1.551   6.088   1.027 -0.2747 -0.6986 -0.3551
   11GLY    OT1  119  -1.599   6.130   1.139  0.0630  0.4227  0.5435
   11GLY    OT2  120  -1.452   6.144   0.974  0.1627  0.0841 -0.3175
   12SOD    SOD  121   4.443   3.320   4.532 -0.0701 -0.0648 -0.2427
   13SOD    SOD  122   4.675   1.123   4.307 -0.3561  0.3497 -0.4416
   14SOD    SOD  123   1.569   4.926   3.116 -0.3978  0.1770  0.1660
   15SOD    SOD  124   1.516   3.308   0.801 -0.3093 -0.3441  0.4926
   16SOD    SOD  125   0.785   0.505   0.551 -0.2600  0.4582 -0.4441
   17SOD    SOD  126   6.233   4.337   3.422 -0.7214  0.0237  0.0846
   18SOD    SOD  127   3.116   2.136   4.769 -0.3124  0.0782  0.1239
   19SOD    SOD  128   2.659   0.985   0.328  0.2447 -0.0284 -0.2509
   20SOD    SOD  129   2.926   2.202   1.738  0.3607  0.0812 -0.0177
   21SOD    SOD  130   2.747   1.181   4.732  0.0221 -0.1947 -0.3366
   22SOD    SOD  131   3.918   0.606   2.641  0.1124 -0.2584  0.2496
   23SOD    SOD  132   6.079   1.523   2.472 -0.2595 -0.2687  0.1908
   24SOD    SOD  133   5.795   3.816   2.550  0.4140  0.5311  0.0018
   25SOD    SOD  134   4.563   0.100   4.064 -0.7203 -0.0075  0.6036
   26SOD    SOD  135   0.313   2.312   3.312  0.1634  0.2190  0.2410
   27SOD    SOD  136   3.656   4.817   1.154 -0.2689  0.2997 -0.3757
   28SOD    SOD  137   2.010   4.835   1.745 -0.1399  0.1352 -0.6738
   29SOD    SOD  138   5.370   5.689   0.561 -0.4982 -0.2521 -0.3268
   30SOD    SOD  139   3.592   3.983   3.816  0.1182 -0.1041  0.0649
   31SOD    SOD  140   1.935   1.268   1.045  0.2405 -0.1033  0.0832
   32SOD    SOD  141   4.925   4.546   3.520  0.2745  0.2810 -0.4426
   33SOD    SOD  142   3.433   1.831   2.503 -0.4284 -0.4303 -0.0385
   34CLA    CLA  143   6.175   3.798   0.134 -0.1201  0.2662  0.2654
   35CLA    CLA  144   4.574   1.374   2.456  0.1070  0.2231 -0.1510
   36CLA    CLA  145   1.734   0.519   1.177 -0.2783 -0.4021 -0.6627
   37CLA    CLA  146   4.257   0.739   3.020  0.0707  0.0300 -0.1544
   38CLA    CLA  147   2.183   4.321   0.214  0.3624 -0.4452 -0.4856
   39CLA    CLA  148   0.735   3.218   3.389 -0.0417  0.0852  0.1506
   40CLA    CLA  149   0.846   2.828   1.969  0.1138 -0.0604  0.1343
   41CLA    CLA  150   5.772   4.069   2.428 -0.1996  0.2093 -0.0519
   42CLA    CLA  151   2.614   2.485   1.884 -0.0693 -0.1610  0.0854
   43CLA    CLA  152   2.692   5.081   0.936  0.2253  0.0362 -0.5419
   44CLA    CLA  153   3.905   1.618   4.256 -0.3600  0.0475 -0.1364
   45CLA    CLA  154   0.942   4.160   2.626  0.2560 -0.1657 -0.0735
   46CLA    CLA  155   6.097   2.627   1.757  0.2153 -0.2376 -0.0327
   47CLA    CLA  156   4.696   1.023   3.745 -0.1417 -0.1244 -0.0153
   48CLA    CLA  157   2.608   0.138   3.670  0.3464 -0.1412  0.2489
   49CLA    CLA  158   2.277   1.854   0.816 -0.2333  0.3787 -0.0917
   50CLA    CLA  159   2.717   1.859   1.057 -0.1453 -0.1079  0.1042
   51CLA    CLA  160   6.193   2.104   3.488 -0.3478  0.5468  0.0646
   52TIP3   OH2  161   1.126   2.656   3.075  0.5550 -0.4512 -0.3440
   52TIP3    H1  162   1.127   2.642   2.980 -0.8527 -2.2215 -0.1489
   52TIP3    H2  163   1.211   2.623   3.105  0.7019 -0.6038 -0.9134
   53TIP3   OH2  164   1.767   4.045   0.470 -0.6441 -0.1663 -0.3845
   53TIP3    H1  165   1.803   3.967   0.513  2.0708  1.8764  1.4122
   53TIP3    H2  166   1.679   4.055   0.509  0.7763  0.2253  3.1120
   54TIP3   OH2  167   4.321   2.705   5.153  0.4102 -0.2207 -0.2118
   54TIP3    H1  168   4.381   2.748   5.092  0.5365 -0.1286 -0.0219
   54TIP3    H2  169   4.375   2.683   5.229 -0.1712  1.5367  0.7584
   55TIP3   OH2  170   0.290   2.860   2.948 -0.4457  0.4094  1.2876
   55TIP3    H1  171   0.320   2.888   3.034 -0.0474  0.6095  1.0864
   55TIP3    H2  172   0.221   2.922   2.925 -0.2778  0.5997  1.2927
   56TIP3   OH2  173   1.665   2.119   1.441 -0.4133 -0.0931 -0.8239
   56TIP3    H1  174   1.754   2.119   1.477  0.1486  1.7793 -2.0252
   56TIP3    H2  175   1.665   2.049   1.376  0.1632 -0.1726 -0.7440
   57TIP3   OH2  176   4.302   4.541   0.867 -0.6224 -0.1328 -0.1232
   57TIP3    H1  177   4.279   4.457   0.905  0.6342  0.0086  1.0152
   57TIP3    H2  178   4.348   4.519   0.786  1.3680 -0.6394  1.0967
   58TIP3   OH2  179   2.947   4.688   3.521 -0.1257  0.0446  0.0466
   58TIP3    H1  180   2.875   4.671   3.582 -0.2943  0.3140 -0.0775
   58TIP3    H2  181   2.904   4.714   3.440  0.1159  0.7866  0.1442
   59TIP3   OH2  182   1.094   4.696   1.843  0.2257 -0.3525  0.0510
   59TIP3    H1  183   1.187   4.685   1.865  0.5774  0.3291 -0.9954
   59TIP3    H2  184   1.050   4.707   1.927  0.7536 -2.9161  0.7511
   60TIP3   OH2  185   0.946   1.771   2.182 -0.1433  0.3898  0.5879
   60TIP3    H1  186   0.865   1.798   2.139 -0.6980 -1.0433  0.7065
   60TIP3    H2  187   1.010   1.766   2.111 -0.9185 -1.4297 -0.0448
   61TIP3   OH2  188   5.442   3.628   3.433 -0.2476  0.4856  0.3135
   61TIP3    H1  189   5.480   3.541   3.431 -1.0170  0.1377  0.4357
   61TIP3    H2  190   5.429   3.651   3.341  0.4136  0.6825  0.2658
   62TIP3   OH2  191   6.148   3.044   5.057 -0.2747 -0.2482  0.2517
   62TIP3    H1  192   6.218   2.985   5.028 -1.4936 -1.4658 -0.3019
   62TIP3    H2  193   6.109   3.077   4.976  0.5984  1.6592  0.5411
   63TIP3   OH2  194   1.576   4.603   0.833  0.1129 -0.1830  0.0300
   63TIP3    H1  195   1.664   4.632   0.857 -0.3201  1.0880  0.1627
   63TIP3    H2  196   1.590   4.539   0.764  1.1923 -0.8471  0.8319
   64TIP3   OH2  197   2.204   1.542   2.640  0.1419 -0.0814  0.2614
   64TIP3    H1  198   2.197   1.526   2.546 -0.2899  2.0822 -0.1420
   64TIP3    H2  199   2.254   1.468   2.673 -0.0480 -1.1121 -1.5982
   65TIP3   OH2  200   4.193   0.416   4.223 -0.3468  0.5257 -0.2560
   65TIP3    H1  201   4.148   0.388   4.143  0.4887  0.2672 -0.6442
   65TIP3    H2  202   4.124   0.457   4.276 -1.1480 -0.3367 -0.5964
   66TIP3   OH2  203   1.454   2.201   1.821 -0.0344  0.5400  0.1899
   66TIP3    H1  204   1.512   2.130   1.848  0.0537  0.4346 -0.2749
   66TIP3    H2  205   1.512   2.266   1.782 -0.0793  1.0033  0.8709
   67TIP3   OH2  206   2.773   1.506   4.306  0.5258  0.1746  0.1418
   67TIP3    H1  207   2.848   1.448   4.297  0.2811 -0.1367  0.0758
   67TIP3    H2  208   2.779   1.565   4.231  0.1038 -0.5539 -0.4911
   68TIP3   OH2  209   5.121   0.158   0.462 -0.4397 -0.0305  0.6738
   68TIP3    H1  210   5.083   0.090   0.518  2.3403 -1.6329  0.8384
   68TIP3    H2  211   5.083   0.141   0.375 -2.0052  0.1265  1.2969
   69TIP3   OH2  212   1.551   5.980   4.517  0.2066  0.6083  0.3456
   69TIP3    H1  213   1.632   5.943   4.482 -0.4981 -0.6594 -0.0122
   69TIP3    H2  214   1.565   5.985   4.612  0.5872  0.1162  0.3154
   70TIP3   OH2  215   5.930   5.765   3.989  0.2607  0.0533 -0.4475
   70TIP3    H1  216   5.923   5.860   4.000 -0.9535  0.1632 -1.9182
   70TIP3    H2  217   6.015   5.743   4.027  0.0948  1.5543  0.9227
   71TIP3   OH2  218   6.035   1.510   4.582  0.4661 -0.2768  0.3754
   71TIP3    H1  219   6.003   1.474   4.500 -1.6262  2.5048 -0.1704
   71TIP3    H2  220   6.124   1.538   4.563 -0.5990  2.0638 -1.6518
   72TIP3   OH2  221   5.493   4.290   1.540  0.5344 -0.4275 -0.6989
   72TIP3    H1  222   5.443   4.317   1.463  2.0304  0.8658 -1.2572
   72TIP3    H2  223   5.560   4.230   1.506  0.8838 -0.2570 -0.3221
   73TIP3   OH2  224   0.251   0.859   2.991 -0.1135  0.0763 -0.5638
   73TIP3    H1  225   0.210   0.775   2.967 -0.4737  0.3795 -1.0211
   73TIP3    H2  226   0.184   0.924   2.972 -0.3646  0.3518  1.1405
   74TIP3   OH2  227   4.377   3.564   2.428 -0.0076 -0.5175  0.6559
   74TIP3    H1  228   4.283   3.581   2.422  0.1100  0.4388  1.3598
   74TIP3    H2  229   4.409   3.573   2.338 -0.5437 -0.6146  0.4521
   75TIP3   OH2  230   0.957   2.530   1.483 -0.0609 -0.3605 -0.0813
   75TIP3    H1  231   0.981   2.566   1.568 -0.2168  1.1436 -0.6504
   75TIP3    H2  232   1.019   2.458   1.469  1.9101  1.2538  0.0076
   76TIP3   OH2  233   1.079   3.551   4.305  0.2674  0.8480 -0.1524
   76TIP3    H1  234   1.104   3.462   4.278  1.0559  1.0438 -0.1127
   76TIP3    H2  235   1.082   3.602   4.224  1.1656  1.1176  0.0307
   77TIP3   OH2  236   2.062   0.151   1.611  0.0018 -0.0447  0.2366
   77TIP3    H1  237   2.046   0.071   1.661 -0.4167  0.3916  0.8109
   77TIP3    H2  238   2.114   0.206   1.669  1.6570 -0.5077 -0.7449
   78TIP3   OH2  239   2.664   5.862   0.519 -0.5308  0.0655  0.2873
   78TIP3    H1  240   2.664   5.924   0.592 -0.6736 -0.6462  0.9070
   78TIP3    H2  241   2.623   5.783   0.555  0.9842 -0.9080 -0.0366
   79TIP3   OH2  242   5.196   2.955   4.777  0.7520 -0.3301 -0.1084
   79TIP3    H1  243   5.261   3.017   4.809  0.1842  1.3531 -1.9537
   79TIP3    H2  244   5.165   2.994   4.695 -1.1706 -2.0440 -0.2752
   80TIP3   OH2  245   0.164   2.083   3.755 -0.3836  0.7997 -0.0970
   80TIP3    H1  246   0.217   2.031   3.816 -1.7627 -0.8188 -0.1787
   80TIP3    H2  247   0.178   2.042   3.670 -2.9388 -0.7965  0.1271
   81TIP3   OH2  248   1.203   4.934   5.122  0.2927 -0.0378  0.2615
   81TIP3    H1  249   1.113   4.943   5.154  0.7890  1.6028  1.3283
   81TIP3    H2  250   1.229   5.023   5.098  1.4225 -0.5903 -0.6496
   82TIP3   OH2  251   1.160   2.992   4.966  0.3631 -0.5324 -0.2805
   82TIP3    H1  252   1.088   2.948   4.921 -0.5986 -1.4627  2.0196
   82TIP3    H2  253   1.225   2.923   4.981  0.3509 -0.4127  0.3635
   83TIP3   OH2  254   1.139   4.988   4.312  0.1425  0.2621 -0.1370
   83TIP3    H1  255   1.163   5.078   4.331  0.6162  0.4603 -1.5299
   83TIP3    H2  256   1.202   4.935   4.361  0.6258  0.7174 -0.2562
   84TIP3   OH2  257   4.597   3.182   3.327 -0.3604 -0.2490  0.0160
   84TIP3    H1  258   4.647   3.102   3.340  1.9367  1.2245  0.6936
   84TIP3    H2  259   4.641   3.228   3.256 -1.2613  0.7275  0.0505
   85TIP3   OH2  260   0.102   5.623   3.410 -0.1347  0.3412 -0.2327
   85TIP3    H1  261   0.024   5.636   3.355 -0.3539 -0.6891 -0.1881
   85TIP3    H2  262   0.073   5.647   3.498 -0.5917 -0.6327 -0.1108
   86TIP3   OH2  263   0.425   2.107   1.985  0.0136  0.1556 -0.8352
   86TIP3    H1  264   0.463   2.193   1.998  0.0026  0.3561 -2.0219
   86TIP3    H2  265   0.340   2.125   1.944  0.5775 -0.4496 -2.3289
   87TIP3   OH2  266   3.495   0.530   1.152  0.1144  0.0006  0.1712
   87TIP3    H1  267   3.450   0.488   1.079 -0.1253  0.0769  0.2745
   87TIP3    H2  268   3.429   0.588   1.191  1.0442  2.2621 -1.3693
   88TIP3   OH2  269   0.080   2.916   4.077  0.1357  0.4871  0.1691
   88TIP3    H1  270   0.029   2.858   4.020 -0.9186 -0.7343  2.2207
   88TIP3    H2  271   0.170   2.907   4.047 -0.3271 -0.4766 -0.9867
   89TIP3   OH2  272   5.072   3.071   0.759 -0.2406 -0.3461  0.9762
   89TIP3    H1  273   5.066   3.134   0.687  0.4713 -0.0596  1.1657
   89TIP3    H2  274   5.036   3.118   0.835 -1.0600 -0.6735  0.8044
   90TIP3   OH2  275   2.049   2.318   3.661  0.0214 -0.1595  0.1700
   90TIP3    H1  276   2.106   2.294   3.734 -0.0517  0.6555  0.5135
   90TIP3    H2  277   1.989   2.244   3.651 -0.8617  0.2796  1.8459
   91TIP3   OH2  278   4.349   5.116   4.405 -0.2199 -0.0972 -0.0904
   91TIP3    H1  279   4.441   5.134   4.425 -0.0147  1.8249 -2.2911
   91TIP3    H2  280   4.304   5.126   4.489  1.3662  0.6345  0.7196
   92TIP3   OH2  281   2.512   3.060   0.660  0.4163  0.2548  0.0565
   92TIP3    H1  282   2.538   3.118   0.589 -0.7328 -0.3902 -0.9213
   92TIP3    H2  283   2.428   3.095   0.690  1.6921  1.6131  2.3763
   93TIP3   OH2  284   5.156   1.240   0.051 -0.0708  0.3566  0.3188
   93TIP3    H1  285   5.244   1.257   0.018  0.4086 -0.5176  1.0849
   93TIP3    H2  286   5.104   1.315   0.023  1.1278  1.3133  0.6183
   94TIP3   OH2  287   0.823   0.157   3.372  0.1708  0.3876 -0.6562
   94TIP3    H1  288   0.786   0.133   3.457  1.1426  2.0074  0.2704
   94TIP3    H2  289   0.842   0.073   3.329 -0.5992 -0.4491  0.5855
   95TIP3   OH2  290   2.759   4.395   3.190 -0.0603  0.1336  0.3280
   95TIP3    H1  291   2.849   4.366   3.177  0.0206  0.3429  0.4132
   95TIP3    H2  292   2.713   4.318   3.224 -0.1650 -0.2832 -0.7096
   96TIP3   OH2  293   5.498   1.152   0.568 -0.8399 -0.0563 -0.1959
   96TIP3    H1  294   5.593   1.139   0.565 -0.4981  2.0348  0.3332
   96TIP3    H2  295   5.486   1.245   0.550 -2.7189 -0.0430  0.8956
   97TIP3   OH2  296   2.522   4.025   0.150 -0.0442  0.0914  0.1497
   97TIP3    H1  297   2.525   4.110   0.195 -0.5187  2.2729 -3.5527
   97TIP3    H2  298   2.610   3.989   0.163 -0.1793  0.4739  2.7799
   98TIP3   OH2  299   4.004   3.260   2.971  0.2170 -0.0572  0.1224
   98TIP3    H1  300   4.058   3.181   2.982 -0.5987 -1.0097 -2.0565
   98TIP3    H2  301   4.066   3.332   2.979  1.9047 -1.1202 -2.2599
   99TIP3   OH2  302   3.364   3.864   2.691  0.3184  0.3787  0.1026
   99TIP3    H1  303   3.296   3.888   2.628 -0.0802 -0.1199  0.3437
   99TIP3    H2  304   3.399   3.781   2.658 -1.6489 -1.2472  1.8921
  100TIP3   OH2  305   0.196   5.298   1.705 -0.1077 -0.1265 -0.3002
  100TIP3    H1  306   0.162   5.385   1.684 -0.8778  0.1569  1.8597
  100TIP3    H2  307   0.143   5.238   1.654 -0.1168  0.6150 -1.1836
  101TIP3   OH2  308   3.396   1.812   2.253 -0.5558  0.0506 -0.2953
  101TIP3    H1  309   3.384   1.899   2.214  1.5672 -0.3325 -2.0241
  101TIP3    H2  310   3.308   1.776   2.260 -1.2840  1.4256 -1.8356
  102TIP3   OH2  311   1.758   3.089   2.392 -0.8945 -0.2138  0.5538
  102TIP3    H1  312   1.817   3.020   2.362 -0.7062  1.2404 -2.9057
  102TIP3    H2  313   1.672   3.065   2.357 -0.7371  1.4261 -1.1010
  103TIP3   OH2  314   2.158   5.056   1.365  0.1733  0.1105  0.5171
  103TIP3    H1  315   2.178   4.971   1.405 -0.5688  0.5774  1.9777
  103TIP3    H2  316   2.214   5.117   1.413  0.1482  0.5467 -0.0075
  104TIP3   OH2  317   4.950   1.251   2.250  0.9666  0.1727  0.0525
  104TIP3    H1  318   4.988   1.181   2.303 -2.1891 -0.9008  1.1380
  104TIP3    H2  319   4.922   1.317   2.314  1.2192  1.0328 -0.7074
  105TIP3   OH2  320   0.176   3.146   3.705 -0.0192 -0.0174  0.4138
  105TIP3    H1  321   0.180   3.225   3.651 -3.4376 -0.3088 -0.4890
  105TIP3    H2  322   0.167   3.179   3.794  1.2928  0.5486  0.3492
  106TIP3   OH2  323   5.373   3.682   0.876  0.2245  0.0035 -0.1120
  106TIP3    H1  324   5.468   3.678   0.891  0.0538  1.1603  1.6452
  106TIP3    H2  325   5.348   3.769   0.908 -1.5550 -0.6010  0.2398
  107TIP3   OH2  326   2.222   5.045   0.409 -0.1620 -0.2704 -0.3859
  107TIP3    H1  327   2.230   5.088   0.494  0.7310 -0.6459 -0.2725
  107TIP3    H2  328   2.155   4.978   0.422 -2.5327  1.8545 -0.9029
  108TIP3   OH2  329   2.981   3.610   3.979 -0.0876  0.6171 -0.0518
  108TIP3    H1  330   2.905   3.553   3.964  0.4388 -0.4661  1.2151
  108TIP3    H2  331   2.975   3.633   4.072  1.6117 -0.2343  0.3007
  109TIP3   OH2  332   0.292   2.525   0.761  0.0661 -0.4625 -0.5554
  109TIP3    H1  333   0.217   2.466   0.757  0.3049 -0.8525  0.3699
  109TIP3    H2  334   0.359   2.484   0.707 -0.7454  0.4603 -2.3304
  110TIP3   OH2  335   2.450   5.757   1.627 -0.2423 -0.3801  0.1529
  110TIP3    H1  336   2.432   5.744   1.720 -0.3903 -1.5109 -0.0243
  110TIP3    H2  337   2.531   5.709   1.611 -1.1527 -1.6918 -0.6725
  111TIP3   OH2  338   1.911   1.036   3.572 -0.1318 -0.2538 -0.3636
  111TIP3    H1  339   1.845   1.029   3.642 -0.9946 -0.6007 -1.1889
  111TIP3    H2  340   1.939   1.127   3.575 -0.4717 -0.1626  0.1656
  112TIP3   OH2  341   0.140   4.920   4.800  0.1708  0.6288 -0.1098
  112TIP3    H1  342   0.203   4.960   4.739 -0.4405 -0.9335 -1.8848
  112TIP3    H2  343   0.174   4.832   4.815 -0.7525  0.3203  0.2113
  113TIP3   OH2  344   5.630   0.301   3.421  0.4077  0.4219 -0.0888
  113TIP3    H1  345   5.638   0.270   3.511  2.0260 -0.7089 -0.5933
  113TIP3    H2  346   5.650   0.395   3.426  0.3615  0.3959  0.7228
  114TIP3   OH2  347   1.588   2.019   0.665 -0.0568 -0.1234 -0.5759
  114TIP3    H1  348   1.530   2.067   0.725  0.5173  1.9458 -1.6212
  114TIP3    H2  349   1.662   2.077   0.651  2.4856 -2.7392  0.8202
  115TIP3   OH2  350   4.895   5.623   5.040  0.1698  0.2658 -0.1210
  115TIP3    H1  351   4.989   5.634   5.026  0.5964 -2.0449  0.4677
  115TIP3    H2  352   4.875   5.678   5.116  1.3217 -0.1105  0.4757
  116TIP3   OH2  353   4.528   5.287   3.398  0.4121 -0.0000  0.1808
  116TIP3    H1  354   4.562   5.316   3.482 -0.4401 -0.9142  0.8571
  116TIP3    H2  355   4.448   5.239   3.419 -0.4009  0.6681 -1.2289
  117TIP3   OH2  356   5.798   5.350   0.697  0.1126  0.1997 -0.2835
  117TIP3    H1  357   5.856   5.379   0.768 -0.6851  0.9858  0.0498
  117TIP3    H2  358   5.775   5.260   0.722 -0.4306  0.5805  0.6360
  118TIP3   OH2  359   0.053   5.899   3.173 -0.4481  0.1939  0.0183
  118TIP3    H1  360   0.012   5.945   3.247  0.1158 -2.6006  2.2537
  118TIP3    H2  361   0.145   5.928   3.175  0.1013 -1.4376  1.9349
  119TIP3   OH2  362   3.733   4.241   0.841  0.4133  0.2325 -0.1169
  119TIP3    H1  363   3.707   4.161   0.796  1.2521  0.7875 -1.6774
  119TIP3    H2  364   3.742   4.216   0.933  0.0631 -1.3008 -0.4822
  120TIP3   OH2  365   2.171   5.641   5.058  0.0404  0.0497 -0.2960
  120TIP3    H1  366   2.246   5.700   5.068 -1.2632  1.7091  0.1122
  120TIP3    H2  367   2.106   5.692   5.010 -0.4101 -1.7864 -1.7622
  121TIP3   OH2  368   1.476   4.334   1.384 -0.8791 -0.3458  0.2298
  121TIP3    H1  369   1.447   4.284   1.460 -0.7263 -1.6013 -0.5099
  121TIP3    H2  370   1.405   4.324   1.320 -1.0730  0.8098  0.2386
  122TIP3   OH2  371   1.295   1.231   2.187 -0.9392 -0.0964 -0.8878
  122TIP3    H1  372   1.263   1.160   2.131 -2.7599 -0.7685  0.8706
  122TIP3    H2  373   1.365   1.191   2.239 -0.5689 -0.0166 -1.3220
  123TIP3   OH2  374   0.882   5.948   4.796 -0.3093  0.6032 -0.0478
  123TIP3    H1  375   0.902   6.013   4.863 -0.0487 -0.9729  1.4772
  123TIP3    H2  376   0.789   5.929   4.807  0.1647 -1.2084  1.3962
  124TIP3   OH2  377   2.543   3.260   2.873  0.0864  0.2195  0.4129
  124TIP3    H1  378   2.461   3.263   2.822 -1.5021  1.1525  2.8267
  124TIP3    H2  379   2.593   3.336   2.843 -0.9060  0.8616  0.3100
  125TIP3   OH2  380   0.705   0.387   2.348 -0.1354  0.1416 -0.2713
  125TIP3    H1  381   0.752   0.327   2.407 -0.4626  1.3048  1.2304
  125TIP3    H2  382   0.773   0.444   2.312 -0.1382  0.5891  0.4112
  126TIP3   OH2  383   3.797   5.031   0.402  0.6220 -0.3114  0.1656
  126TIP3    H1  384   3.722   5.070   0.357  0.6206 -0.2096  0.2572
  126TIP3    H2  385   3.787   5.057   0.493  0.6584 -0.4709  0.2151
  127TIP3   OH2  386   0.533   4.353   0.587  0.1638  0.1973  0.4954
  127TIP3    H1  387   0.568   4.304   0.512  1.3899 -1.5367  2.0870
  127TIP3    H2  388   0.610   4.369   0.642 -0.9469 -0.1406  2.2049
  128TIP3   OH2  389   2.985   3.363   3.753 -0.1505 -0.3319  1.0170
  128TIP3    H1  390   3.062   3.351   3.697 -0.6332 -0.5356  0.3970
  128TIP3    H2  391   3.003   3.308   3.830  0.5973  0.0973  1.1533
  129TIP3   OH2  392   0.074   5.729   0.870  0.5850 -0.0404 -0.1451
  129TIP3    H1  393   0.045   5.816   0.897  1.1718  0.7571 -1.9132
  129TIP3    H2  394   0.110   5.690   0.949 -0.1975  1.1067  0.8150
  130TIP3   OH2  395   3.610   3.525   4.827 -0.5495 -0.6116  0.3758
  130TIP3    H1  396   3.607   3.621   4.830  2.0150 -0.4790  1.1244
  130TIP3    H2  397   3.541   3.497   4.888 -1.7187  0.7059 -0.2865
  131TIP3   OH2  398   2.966   1.585   0.256 -0.3124  0.7564  0.0549
  131TIP3    H1  399   2.983   1.663   0.308  0.9420  0.1627  0.5743
  131TIP3    H2  400   2.913   1.529   0.313 -1.8613  1.4949 -0.5882
  132TIP3   OH2  401   0.260   5.513   1.270 -0.1276 -0.0777  0.2573
  132TIP3    H1  402   0.329   5.500   1.335  0.8926 -0.5482 -0.8947
  132TIP3    H2  403   0.268   5.439   1.211  0.2397  1.2966 -1.5213
  133TIP3   OH2  404   5.625   4.557   2.740 -0.3048  0.2609  0.1801
  133TIP3    H1  405   5.563   4.495   2.701 -0.5632  0.9189 -0.4814
  133TIP3    H2  406   5.572   4.634   2.762  0.4602  1.3554 -1.5878
  134TIP3   OH2  407   3.513   4.083   2.683  0.0179  0.0039  0.4994
  134TIP3    H1  408   3.465   4.000   2.694 -1.5073  1.0090  2.0389
  134TIP3    H2  409   3.572   4.086   2.758  1.9271 -0.7816 -0.8885
  135TIP3   OH2  410   0.078   5.547   4.913  0.2400  0.3058  0.0515
  135TIP3    H1  411   0.046   5.458   4.929  0.2662  0.1633 -0.6522
  135TIP3    H2  412   0.093   5.583   5.000  0.2891 -0.4014  0.3434
  136TIP3   OH2  413   4.726   4.720   2.524  0.1018  0.5414 -0.1465
  136TIP3    H1  414   4.791   4.732   2.455 -0.7579  0.8722 -0.9052
  136TIP3    H2  415   4.643   4.706   2.478 -0.7496  2.2418  0.8027
  137TIP3   OH2  416   2.236   1.503   3.165  0.0598  0.1783  0.6177
  137TIP3    H1  417   2.176   1.451   3.111 -0.7517  1.5242  0.1727
  137TIP3    H2  418   2.216   1.478   3.255  0.9606 -1.5989  0.3619
  138TIP3   OH2  419   5.305   0.343   3.282 -0.8190 -0.2579 -0.4446
  138TIP3    H1  420   5.401   0.346   3.276 -0.8524 -0.0029 -0.9588
  138TIP3    H2  421   5.287   0.270   3.341 -0.2468  1.2082  1.6710
  139TIP3   OH2  422   3.016   1.861   3.364 -0.6809  0.0060  0.0307
  139TIP3    H1  423   2.962   1.856   3.285 -0.1037  2.8732 -0.6745
  139TIP3    H2  424   2.966   1.917   3.423 -0.9361 -1.8109  1.6530
  140TIP3   OH2  425   5.458   4.890   1.160 -0.0700 -0.9009 -0.9377
  140TIP3    H1  426   5.472   4.900   1.066  0.1938 -2.2967 -1.0693
  140TIP3    H2  427   5.448   4.796   1.173 -1.3611 -0.6312  0.2690
  141TIP3   OH2  428   0.722   5.137   2.098 -0.9533 -0.1987  0.3162
  141TIP3    H1  429   0.703   5.089   2.017  0.8664 -0.0080 -0.2581
  141TIP3    H2  430   0.817   5.131   2.109 -1.1101  0.1134  2.2534
  142TIP3   OH2  431   2.461   1.004   4.368 -0.2097 -0.0922  0.0930
  142TIP3    H1  432   2.468   1.033   4.277 -0.7082 -1.3641 -0.3832
  142TIP3    H2  433   2.366   0.996   4.383 -0.2587  2.3370  1.5001
  143TIP3   OH2  434   5.652   5.363   3.123  0.1354  0.1509  0.5870
  143TIP3    H1  435   5.568   5.410   3.121 -0.0266 -0.1166 -0.9926
  143TIP3    H2  436   5.629   5.275   3.152 -0.7053 -0.7602 -2.3997
  144TIP3   OH2  437   2.940   5.523   4.587  0.2616  0.2031 -0.1670
  144TIP3    H1  438   2.879   5.589   4.620 -0.2680  0.8710 -2.2988
  144TIP3    H2  439   3.025   5.568   4.584  0.5773 -0.2464  1.3563
  145TIP3   OH2  440   2.199   0.781   4.875 -0.1688  0.4548  0.1249
  145TIP3    H1  441   2.200   0.851   4.810 -0.3296  1.1153  0.8078
  145TIP3    H2  442   2.108   0.776   4.903 -0.6457 -1.6096 -1.5334
  146TIP3   OH2  443   0.581   5.399   2.756  0.1209  0.5105  0.7704
  146TIP3    H1  444   0.635   5.452   2.698  0.7200  0.3147  1.1407
  146TIP3    H2  445   0.549   5.328   2.700 -1.3829  1.6809  0.0537
  147TIP3   OH2  446   5.691   4.721   4.606  0.4798  0.4918  0.0416
  147TIP3    H1  447   5.769   4.699   4.556  0.2133 -1.1169  0.2629
  147TIP3    H2  448   5.620   4.674   4.562  0.2673 -1.1295  1.9386
  148TIP3   OH2  449   0.032   3.123   4.488  0.2149  0.6228  0.0346
  148TIP3    H1  450   0.062   3.126   4.579 -0.0598 -1.4930  0.2430
  148TIP3    H2  451   0.084   3.053   4.448  0.0217  1.2242 -1.3299
  149TIP3   OH2  452   0.828   3.697   0.860 -0.1210 -0.0360 -0.1249
  149TIP3    H1  453   0.775   3.687   0.939 -0.9816 -0.3426 -0.7289
  149TIP3    H2  454   0.796   3.777   0.819 -1.7912 -1.4469 -1.7147
  150TIP3   OH2  455   2.091   0.739   0.488  0.0566 -0.0115 -0.4739
  150TIP3    H1  456   2.011   0.728   0.437 -0.3618  1.7854 -0.2598
  150TIP3    H2  457   2.155   0.682   0.444 -1.2863 -1.4617 -0.6578
  151TIP3   OH2  458   2.148   1.361   3.400  0.5814 -0.2355  0.1898
  151TIP3    H1  459   2.156   1.268   3.378 -0.0662 -0.0355 -0.9786
  151TIP3    H2  460   2.054   1.373   3.418  0.4204  0.4535 -1.0091
  152TIP3   OH2  461   3.380   3.826   4.430 -0.1577  0.1774 -0.2584
  152TIP3    H1  462   3.362   3.919   4.448  0.9992  0.2340  0.7353
  152TIP3    H2  463   3.475   3.818   4.439 -0.1645 -0.9793 -1.0020
  153TIP3   OH2  464   4.309   3.132   2.238 -0.1557 -0.7624  0.1317
  153TIP3    H1  465   4.262   3.054   2.266 -0.4054  0.0668  2.2286
  153TIP3    H2  466   4.284   3.143   2.146 -1.6264 -2.0582  0.3255
  154TIP3   OH2  467   1.334   5.318   1.891 -0.1465  0.2125 -0.4779
  154TIP3    H1  468   1.298   5.371   1.962 -0.3634  1.1634 -1.2738
  154TIP3    H2  469   1.286   5.235   1.897 -1.7187  1.0585 -0.8305
  155TIP3   OH2  470   1.308   2.884   0.513  0.8086 -0.1154  0.9083
  155TIP3    H1  471   1.225   2.836   0.515  0.5533  0.2912  0.4310
  155TIP3    H2  472   1.282   2.975   0.498  1.3953 -0.1729 -0.5712
  156TIP3   OH2  473   1.849   0.195   1.440  0.0723 -0.3333  0.5231
  156TIP3    H1  474   1.903   0.180   1.518 -0.3442  0.3443  0.9616
  156TIP3    H2  475   1.793   0.118   1.434 -0.1141 -0.2499  1.0952
  157TIP3   OH2  476   5.867   3.210   2.111 -0.4603 -0.3761  0.1422
  157TIP3    H1  477   5.839   3.179   2.025 -0.6560  1.1360 -0.3619
  157TIP3    H2  478   5.909   3.294   2.094  1.4150 -1.0154  1.2903
  158TIP3   OH2  479   5.868   1.077   1.834  0.7993 -0.4090  0.0052
  158TIP3    H1  480   5.854   1.021   1.911 -0.3078 -0.4945 -0.2388
  158TIP3    H2  481   5.950   1.045   1.796  2.7288  1.2236  2.4668
  159TIP3   OH2  482   0.698   0.017   1.325 -0.0377  0.3688 -0.4307
  159TIP3    H1  483   0.687  -0.069   1.285 -0.4388 -0.4454  1.3385
  159TIP3    H2  484   0.639   0.074   1.276  1.6489  0.1293 -2.8869
  160TIP3   OH2  485   5.777   4.831   2.001  0.1635 -0.5383  0.6311
  160TIP3    H1  486   5.714   4.760   2.013  0.1766 -0.6220  0.2154
  160TIP3    H2  487   5.857   4.798   2.044 -0.1054 -0.3781  1.2688
  161TIP3   OH2  488   2.016   1.696   1.808 -0.2120  0.1834 -0.1270
  161TIP3    H1  489   2.110   1.682   1.814 -0.0853  0.6432 -0.9161
  161TIP3    H2  490   1.993   1.739   1.890  0.1924 -0.2913  0.2422
  162TIP3   OH2  491   3.106   4.072   2.256  0.0486  0.3074 -0.0909
  162TIP3    H1  492   3.020   4.110   2.238  0.3058  0.7903 -0.2992
  162TIP3    H2  493   3.166   4.146   2.256  0.3260  0.1033  1.0286
  163TIP3   OH2  494   1.462   5.195   4.026  0.0522 -0.2972  0.7804
  163TIP3    H1  495   1.530   5.230   3.968 -0.5194  1.8660  1.3143
  163TIP3    H2  496   1.490   5.222   4.114 -1.2040  0.1770  1.0575
  164TIP3   OH2  497   1.269   0.342   0.048  0.5431  0.6284 -0.1891
  164TIP3    H1  498   1.317   0.413   0.090  0.1145  0.2374  1.0029
  164TIP3    H2  499   1.338   0.285   0.013  1.1501 -0.8118  2.9288
  165TIP3   OH2  500   3.480   0.948   4.161 -0.4291 -0.3805 -0.6420
  165TIP3    H1  501   3.523   0.927   4.243  0.2448  0.6751 -0.7129
  165TIP3    H2  502   3.549   0.982   4.105 -1.0095 -0.4324 -1.4136
  166TIP3   OH2  503   2.124   1.490   4.231  0.2256 -0.4543  0.1904
  166TIP3    H1  504   2.045   1.482   4.178  1.2383 -0.5101 -1.3695
  166TIP3    H2  505   2.189   1.527   4.172  0.7910  1.7780  2.0583
  167TIP3   OH2  506   5.305   1.790   4.741  0.0339 -0.0217  0.3088
  167TIP3    H1  507   5.288   1.882   4.723  1.0335 -0.2240 -2.0386
  167TIP3    H2  508   5.335   1.788   4.832 -2.4025  1.5796  1.2444
  168TIP3   OH2  509   5.535   3.753   0.566  0.9007 -0.5596  0.1077
  168TIP3    H1  510   5.471   3.742   0.495  0.9870 -0.3368 -0.0079
  168TIP3    H2  511   5.597   3.818   0.532 -0.2733  1.2267  1.2245
  169TIP3   OH2  512   5.047   5.612   2.993  0.3525 -0.2350  0.7767
  169TIP3    H1  513   4.985   5.669   2.947  2.6423  1.6260 -0.2713
  169TIP3    H2  514   5.039   5.527   2.950 -0.9593  0.1534  0.2127
  170TIP3   OH2  515   4.166   5.841   3.029 -0.3255  0.2200  0.5115
  170TIP3    H1  516   4.103   5.794   2.975 -0.8253  1.4441 -0.0145
  170TIP3    H2  517   4.247   5.839   2.977 -0.0445 -0.9252  0.9644
  171TIP3   OH2  518   1.993   3.876   1.783 -0.5671 -0.3625  0.3784
  171TIP3    H1  519   1.899   3.872   1.799 -0.5054 -1.6786  0.5795
  171TIP3    H2  520   2.012   3.795   1.735  0.2140  0.6334 -1.0956
  172TIP3   OH2  521   2.240   3.727   0.307  0.5797 -0.2523  0.3379
  172TIP3    H1  522   2.147   3.738   0.288  0.7443 -0.2138 -0.4913
  172TIP3    H2  523   2.284   3.748   0.225  1.2977 -0.6337  0.6116
  173TIP3   OH2  524   4.797   0.283   3.073 -0.4797  0.0586 -0.5697
  173TIP3    H1  525   4.799   0.207   3.015  0.9492  0.0836 -0.5956
  173TIP3    H2  526   4.739   0.258   3.145  2.0726 -2.2161  0.8959
  174TIP3   OH2  527   3.097   5.269   4.413  0.0329 -1.0213 -0.0794
  174TIP3    H1  528   3.105   5.210   4.488 -0.3877 -0.7188  0.2057
  174TIP3    H2  529   3.182   5.314   4.410 -0.1049 -0.7098  0.4938
  175TIP3   OH2  530   2.210   1.601   5.117 -0.2540  0.8329 -0.9740
  175TIP3    H1  531   2.124   1.640   5.100 -1.0868 -0.3678  0.2889
  175TIP3    H2  532   2.234   1.559   5.035 -0.8417  1.2244 -1.3576
  176TIP3   OH2  533   0.385   3.557   1.426 -0.1141 -0.3203  0.1959
  176TIP3    H1  534   0.421   3.618   1.491 -0.0013  0.1847 -0.3364
  176TIP3    H2  535   0.353   3.484   1.478 -1.5049  0.7956  0.9891
  177TIP3   OH2  536   3.320   3.818   5.112  0.3842  0.1707 -0.2483
  177TIP3    H1  537   3.378   3.858   5.176 -1.7649  0.2095  1.7810
  177TIP3    H2  538   3.334   3.869   5.032  1.0940  1.9503  0.9585
  178TIP3   OH2  539   5.062   4.795   3.134 -0.0292  1.2736  0.0838
  178TIP3    H1  540   5.120   4.865   3.164  0.4096 -0.0263  2.5539
  178TIP3    H2  541   4.974   4.825   3.155  0.1893  0.9521  1.5646
  179TIP3   OH2  542   5.461   5.121   3.275  0.5024 -0.1405 -0.2866
  179TIP3    H1  543   5.399   5.050   3.259  0.8993 -0.5250 -0.1575
  179TIP3    H2  544   5.546   5.083   3.252  0.8055  0.0610  0.4808
  180TIP3   OH2  545   4.869   3.801   1.964  0.0063 -0.1763  0.6575
  180TIP3    H1  546   4.825   3.829   1.883  1.0607 -0.5012 -0.0563
  180TIP3    H2  547   4.950   3.760   1.933  0.8978  0.5815  1.9324
  181TIP3   OH2  548   5.165   4.467   2.255 -0.1253  0.8225  0.0458
  181TIP3    H1  549   5.241   4.437   2.206 -0.0243  1.3033 -0.1004
  181TIP3    H2  550   5.188   4.557   2.281  0.4138  0.1466  2.1498
  182TIP3   OH2  551   4.386   3.026   4.124 -0.3687  0.7772  0.0351
  182TIP3    H1  552   4.313   3.081   4.150 -1.4250 -0.3843 -0.3465
  182TIP3    H2  553   4.363   2.939   4.158  1.0568  0.4896  0.3049
  183TIP3   OH2  554   1.543   4.106   4.154  0.2458 -0.2449  0.0061
  183TIP3    H1  555   1.486   4.147   4.089  0.7102  0.4403  0.0170
  183TIP3    H2  556   1.630   4.142   4.136  0.2694  0.5069  1.4251
  184TIP3   OH2  557   0.931   1.516   0.162  0.0226  0.4792 -0.0743
  184TIP3    H1  558   1.015   1.475   0.144 -1.1801 -2.2266 -0.0054
  184TIP3    H2  559   0.918   1.503   0.256  0.4102  2.7636  0.3427
  185TIP3   OH2  560   4.815   1.549   3.063  0.3437 -0.1604  0.1469
  185TIP3    H1  561   4.832   1.557   3.157 -0.0570  2.8539  0.0730
  185TIP3    H2  562   4.720   1.562   3.055  0.5355  0.8376 -0.7310
  186TIP3   OH2  563   4.062   0.312   3.989  0.3548  0.2716 -0.7201
  186TIP3    H1  564   4.088   0.262   3.911  0.0997 -0.1029 -0.5657
  186TIP3    H2  565   3.970   0.334   3.974  0.3201  0.2443 -0.5484
  187TIP3   OH2  566   2.543   1.235   2.943 -0.4683 -0.7694  0.1499
  187TIP3    H1  567   2.612   1.232   3.010  0.3161 -1.1802 -0.6583
  187TIP3    H2  568   2.503   1.321   2.953 -0.7460 -1.0393  1.5226
  188TIP3   OH2  569   3.683   4.536   0.774 -0.1427  0.0641 -0.4250
  188TIP3    H1  570   3.654   4.550   0.684  1.0285 -1.3616 -1.0605
  188TIP3    H2  571   3.702   4.443   0.780  0.5902  0.2664  1.0580
  189TIP3   OH2  572   5.381   4.773   2.182  0.9069  0.3517  0.2988
  189TIP3    H1  573   5.310   4.758   2.120  1.4077  2.0279 -0.7687
  189TIP3    H2  574   5.348   4.844   2.238  1.0470 -0.1219  0.9914
  190TIP3   OH2  575   0.438   3.941   4.357  0.4101 -0.0744 -0.3906
  190TIP3    H1  576   0.403   3.868   4.306  0.5516 -1.1808  1.0006
  190TIP3    H2  577   0.442   3.907   4.447  0.2124  1.7587  0.3598
  191TIP3   OH2  578   5.855   0.688   1.495  0.0421  0.3499 -0.0105
  191TIP3    H1  579   5.883   0.598   1.479  0.2775  0.3571  0.3425
  191TIP3    H2  580   5.762   0.689   1.473  0.0101 -0.0107  0.1022
  192TIP3   OH2  581   4.689   5.775   1.393 -0.1087  0.1647 -0.1678
  192TIP3    H1  582   4.747   5.773   1.317  0.6258  2.5114  0.2595
  192TIP3    H2  583   4.648   5.688   1.394  2.1037 -0.9752 -1.4677
  193TIP3   OH2  584   5.597   4.059   0.352  0.2479 -0.5293 -0.3386
  193TIP3    H1  585   5.651   3.984   0.377  0.4774  0.0399  0.9132
  193TIP3    H2  586   5.658   4.123   0.317  0.5122  0.3729  1.6797
  194TIP3   OH2  587   1.172   3.573   1.746 -0.1514 -0.7423  0.1246
  194TIP3    H1  588   1.133   3.546   1.663 -3.9980  0.1372  1.4382
  194TIP3    H2  589   1.199   3.491   1.788 -0.2991 -1.3825 -1.0051
  195TIP3   OH2  590   1.622   1.519   2.381  0.5841  0.1763  0.5541
  195TIP3    H1  591   1.533   1.497   2.408  0.5689  1.7019  1.9187
  195TIP3    H2  592   1.614   1.542   2.289 -0.4024  0.0434  0.5970
  196TIP3   OH2  593  -0.005   3.361   2.609  0.5070  0.2595  1.1717
  196TIP3    H1  594   0.024   3.293   2.669 -3.8467 -0.9548  2.2849
  196TIP3    H2  595   0.008   3.443   2.657  0.1815 -0.3968  2.4220
  197TIP3   OH2  596   0.015   4.134   3.944 -0.3463  0.2405 -0.4119
  197TIP3    H1  597   0.091   4.126   3.886 -0.5232  1.6642 -0.8747
  197TIP3    H2  598  -0.060   4.123   3.886 -0.5078 -0.2909 -0.1055
  198TIP3   OH2  599   2.164   0.971   4.394 -0.2996  0.0843  0.1677
  198TIP3    H1  600   2.110   0.895   4.374 -0.8927 -0.0127  1.9387
  198TIP3    H2  601   2.138   1.037   4.330  0.4988 -1.2821 -1.6436
  199TIP3   OH2  602   0.525   5.750   1.385 -1.2281 -0.0826 -0.2897
  199TIP3    H1  603   0.529   5.655   1.395 -0.1076 -0.0109 -0.0000
  199TIP3    H2  604   0.549   5.784   1.471 -2.9777  0.4797  0.0233
  200TIP3   OH2  605   5.895   3.536   3.528  0.2997  0.0912 -0.3489
  200TIP3    H1  606   5.891   3.445   3.498 -1.5371  0.8530 -2.7463
  200TIP3    H2  607   5.860   3.533   3.617 -1.6639 -1.3443 -1.0905
  201TIP3   OH2  608   4.674   2.981   0.284  0.2649 -0.6891  0.1261
  201TIP3    H1  609   4.685   3.037   0.360 -0.2185 -1.9678  1.1866
  201TIP3    H2  610   4.661   3.041   0.210  1.6369  0.5889  0.8863
  202TIP3   OH2  611   2.642  -0.002   3.960 -0.3469 -0.6491  0.2082
  202TIP3    H1  612   2.647   0.026   3.868 -0.0690 -2.4921 -0.3802
  202TIP3    H2  613   2.562   0.038   3.993  0.1115  0.9288 -0.5016
  203TIP3   OH2  614   5.017   0.828   2.900  0.2690  0.5503  0.0249
  203TIP3    H1  615   4.961   0.763   2.943  1.2828 -0.8170 -0.6363
  203TIP3    H2  616   4.958   0.899   2.877 -0.6757  0.3939  1.7816
  204TIP3   OH2  617   3.626   0.606   3.565  0.1131  0.5967 -0.1588
  204TIP3    H1  618   3.539   0.621   3.530 -0.5297 -1.0623  0.6208
  204TIP3    H2  619   3.666   0.542   3.507 -0.3384 -0.8982  1.0976
  205TIP3   OH2  620   3.387   5.599   4.251 -0.3542  0.3003  0.0260
  205TIP3    H1  621   3.329   5.578   4.177  0.4181  0.9074 -0.7668
  205TIP3    H2  622   3.468   5.552   4.232 -0.3712 -0.0630  0.8302
  206TIP3   OH2  623   1.231   3.820   0.556  0.1248  0.3308  0.1222
  206TIP3    H1  624   1.186   3.850   0.635 -2.0273  1.9982 -1.6208
  206TIP3    H2  625   1.165   3.770   0.508  1.7647 -1.7234 -0.1168
  207TIP3   OH2  626   4.650   2.062   4.072 -0.1490 -0.3291  0.2000
  207TIP3    H1  627   4.617   2.119   4.142  0.4611  0.3418 -0.0433
  207TIP3    H2  628   4.595   2.082   3.997 -0.6609 -0.8883  0.4174
  208TIP3   OH2  629   3.088   5.649   3.099  0.3713 -0.2704  0.1642
  208TIP3    H1  630   3.057   5.690   3.019  0.3839  0.6052  0.5972
  208TIP3    H2  631   3.035   5.569   3.108  0.2710 -0.2955 -0.6249
  209TIP3   OH2  632   1.724   5.532   4.001 -0.6395 -0.1407 -0.4404
  209TIP3    H1  633   1.651   5.584   4.033 -0.7620  0.1932 -1.2381
  209TIP3    H2  634   1.792   5.596   3.979  0.5927 -0.5330  1.9168
  210TIP3   OH2  635   3.766   4.152   3.811 -0.4571  0.1276 -0.0317
  210TIP3    H1  636   3.795   4.203   3.887 -0.8200 -0.0876  0.2535
  210TIP3    H2  637   3.845   4.140   3.758  0.6255 -2.6518  1.9753
  211TIP3   OH2  638   5.958   4.237   4.363  0.0783 -0.2634  0.2191
  211TIP3    H1  639   6.044   4.256   4.325  0.0037  1.9197  0.9638
  211TIP3    H2  640   5.951   4.142   4.362  2.3982 -0.4789 -0.0923
  212TIP3   OH2  641   2.328   1.287   2.140 -0.1547  0.4792 -0.0292
  212TIP3    H1  642   2.296   1.303   2.051  0.7773 -0.9889 -0.6798
  212TIP3    H2  643   2.390   1.358   2.155  2.0752 -0.9095 -1.8692
  213TIP3   OH2  644   5.256   1.372   1.952  0.1066 -0.5152  0.5199
  213TIP3    H1  645   5.247   1.456   1.998 -0.7009 -0.0207 -0.5033
  213TIP3    H2  646   5.349   1.364   1.934 -0.0313  1.3246 -1.4149
  214TIP3   OH2  647   0.230   2.839   4.646  0.2770  0.1239 -0.9681
  214TIP3    H1  648   0.272   2.781   4.710 -0.1985  0.3012 -0.4885
  214TIP3    H2  649   0.301   2.897   4.617  0.1785  1.0882  0.5933
  215TIP3   OH2  650   4.445   3.605   2.944 -0.3253 -0.1981  0.4007
  215TIP3    H1  651   4.495   3.600   2.863 -0.2167  0.2874  0.4320
  215TIP3    H2  652   4.437   3.515   2.973  2.0633 -0.1653  1.3365
  216TIP3   OH2  653   2.952   5.697   1.011  0.1218  0.0655  0.8710
  216TIP3    H1  654   2.949   5.676   1.105  0.3356 -0.6347  0.7321
  216TIP3    H2  655   2.862   5.720   0.989  0.0071 -0.0661  1.1865
  217TIP3   OH2  656   1.741   5.539   0.675 -0.7126 -0.0501  0.1957
  217TIP3    H1  657   1.835   5.536   0.692 -0.5537  2.3813  0.0894
  217TIP3    H2  658   1.708   5.455   0.707  1.1412  0.0022  2.4906
  218TIP3   OH2  659   4.800   4.070   0.522  0.0900  0.0140  0.3007
  218TIP3    H1  660   4.733   4.006   0.498  0.9304 -0.4949 -0.8166
  218TIP3    H2  661   4.818   4.052   0.614  0.3726 -1.4509 -0.0148
  219TIP3   OH2  662   6.101   0.755   0.807  0.3698 -0.1626  0.3330
  219TIP3    H1  663   6.168   0.739   0.740  0.8994  0.0089  0.8166
  219TIP3    H2  664   6.149   0.756   0.889 -0.3351 -0.7460  0.7606
  220TIP3   OH2  665   2.931   4.971   3.980 -0.1465  0.8045 -0.2759
  220TIP3    H1  666   2.953   5.029   4.053  0.5771  0.2583 -0.0532
  220TIP3    H2  667   3.013   4.926   3.960 -0.4137  0.7381 -1.2403
  221TIP3   OH2  668   5.034   1.110   3.689 -0.0469 -0.1099  0.4970
  221TIP3    H1  669   5.082   1.030   3.668  2.5311  1.2484  0.8381
  221TIP3    H2  670   4.959   1.080   3.741  2.3616 -2.1479  3.1163
  222TIP3   OH2  671   1.786   2.607   2.693  0.2960 -0.1925  0.2121
  222TIP3    H1  672   1.851   2.542   2.666  1.5733  0.7434  0.9309
  222TIP3    H2  673   1.702   2.572   2.663  1.2556 -0.8571 -1.8113
  223TIP3   OH2  674   3.629   4.964   3.880  0.3636 -0.0945 -1.1501
  223TIP3    H1  675   3.724   4.965   3.871  0.3533 -0.7062 -1.3734
  223TIP3    H2  676   3.597   4.981   3.792  0.2575  1.1779 -0.8839
  224TIP3   OH2  677   2.440   3.122   3.806 -0.0529 -0.1993  0.0562
  224TIP3    H1  678   2.452   3.139   3.712 -0.4859  1.0389  0.2028
  224TIP3    H2  679   2.366   3.178   3.830 -0.0761 -0.6649  1.1007
  225TIP3   OH2  680   2.990   3.243   2.665  0.1167 -0.2460 -0.0181
  225TIP3    H1  681   3.032   3.325   2.690 -2.2800  0.6717  1.2973
  225TIP3    H2  682   3.049   3.205   2.599  2.8645  0.9589  1.5643
  226TIP3   OH2  683   1.378   1.980   0.074 -0.0082  0.1143 -0.6042
  226TIP3    H1  684   1.397   2.055   0.130 -1.4176  0.6478 -0.7930
  226TIP3    H2  685   1.436   1.991  -0.001  0.2851  0.6464 -0.3039
  227TIP3   OH2  686   6.287   3.493   3.661 -0.2835 -0.0575 -0.2742
  227TIP3    H1  687   6.301   3.560   3.728 -0.5526  0.3564 -0.6263
  227TIP3    H2  688   6.279   3.411   3.710  2.1621 -0.1880  0.0548
  228TIP3   OH2  689   5.753   0.612   2.369  0.2507  0.0501  0.4387
  228TIP3    H1  690   5.739   0.553   2.295  1.6766  0.4439 -0.1777
  228TIP3    H2  691   5.827   0.575   2.416 -0.3144  0.0905  1.3972
  229TIP3   OH2  692   4.101   4.521   0.150 -0.2672  0.0300  0.0697
  229TIP3    H1  693   4.092   4.584   0.078  0.2872  0.6141  0.5029
  229TIP3    H2  694   4.142   4.445   0.109 -0.3376  0.1960 -0.3214
  230TIP3   OH2  695   0.677   2.957   2.512  0.3884 -0.4553  0.2200
  230TIP3    H1  696   0.719   2.886   2.463  1.8577  0.8816 -0.5479
  230TIP3    H2  697   0.588   2.961   2.477  0.6677 -1.1240 -0.6056
  231TIP3   OH2  698   5.858   5.929   5.102 -0.2108  0.4374 -0.6211
  231TIP3    H1  699   5.817   5.953   5.018  1.5670  1.9260 -1.1407
  231TIP3    H2  700   5.822   5.993   5.164  1.3221  1.8484 -1.1098
  232TIP3   OH2  701   3.666   3.434   2.797  0.1522  0.1150  0.1216
  232TIP3    H1  702   3.709   3.442   2.882  0.1910  1.0847  0.0160
  232TIP3    H2  703   3.727   3.382   2.745 -0.1936 -1.0997  0.8895
  233TIP3   OH2  704   2.724   5.217   4.278 -1.0240 -0.1562 -0.3336
  233TIP3    H1  705   2.795   5.265   4.322  0.2233 -1.9693 -0.2301
  233TIP3    H2  706   2.727   5.248   4.187 -1.5727  1.3768  0.1524
  234TIP3   OH2  707   3.280   5.355   2.091 -0.3810 -0.2762 -0.3002
  234TIP3    H1  708   3.346   5.418   2.116  0.0349 -0.6606 -0.4114
  234TIP3    H2  709   3.329   5.285   2.047 -0.6226 -1.4356  1.1878
  235TIP3   OH2  710   4.921   2.319   3.160  0.7054  0.2735 -0.6376
  235TIP3    H1  711   5.016   2.317   3.161  0.7043 -1.4985 -1.5087
  235TIP3    H2  712   4.896   2.277   3.078 -0.8323  2.0599 -1.1832
  236TIP3   OH2  713   4.084   4.894   1.315  0.3188  0.6474  0.2898
  236TIP3    H1  714   4.177   4.873   1.325  0.6987  2.1506  0.0795
  236TIP3    H2  715   4.060   4.939   1.396 -0.9255 -1.9316  1.4707
  237TIP3   OH2  716   0.289   5.813   0.203  0.0157 -0.0052  0.0586
  237TIP3    H1  717   0.344   5.786   0.276  0.1704 -1.2891 -0.5093
  237TIP3    H2  718   0.335   5.782   0.125 -0.2745  1.1146 -0.5808
  238TIP3   OH2  719   5.267   4.845   4.697  0.1054 -0.4508 -0.4917
  238TIP3    H1  720   5.302   4.930   4.722 -0.0646 -0.6265  0.3475
  238TIP3    H2  721   5.295   4.786   4.766 -1.5689 -0.6555  0.0390
  239TIP3   OH2  722   5.177   1.992   0.342  0.7813 -0.5750 -0.2002
  239TIP3    H1  723   5.214   2.066   0.390  0.2293 -0.6951  0.4326
  239TIP3    H2  724   5.099   1.968   0.393  1.6694 -2.4387  0.3438
  240TIP3   OH2  725   1.495   1.222   1.056  0.0755  0.0633 -0.1671
  240TIP3    H1  726   1.525   1.289   1.118  1.6893  0.4997 -1.3339
  240TIP3    H2  727   1.399   1.225   1.062  0.1612  0.8333  1.4889
  241TIP3   OH2  728   3.830   4.454   1.367  0.5833 -0.4143 -0.5948
  241TIP3    H1  729   3.833   4.406   1.450  1.0259  0.5556 -0.0299
  241TIP3    H2  730   3.900   4.519   1.375  1.3066 -0.9599 -2.1494
  242TIP3   OH2  731   5.860   1.584   2.375 -0.3344 -0.1924 -0.5240
  242TIP3    H1  732   5.786   1.645   2.375  0.9180  1.3836  0.1674
  242TIP3    H2  733   5.862   1.549   2.286 -1.9174 -0.3051 -0.5497
  243TIP3   OH2  734   2.920   4.101   0.789 -0.6393 -0.0462 -0.6297
  243TIP3    H1  735   2.918   4.197   0.786 -1.3814 -0.0335  0.0889
  243TIP3    H2  736   2.973   4.081   0.866 -0.3191 -0.2248 -0.8921
  244TIP3   OH2  737   3.895   4.885   4.443  0.6446  0.1059  0.1631
  244TIP3    H1  738   3.963   4.918   4.501 -0.3910  1.3211  0.7298
  244TIP3    H2  739   3.837   4.959   4.429 -1.7127 -1.3898  1.3622
  245TIP3   OH2  740   1.491   0.473   4.273 -0.1464  0.0343  0.0174
  245TIP3    H1  741   1.524   0.526   4.200 -0.0446  0.3195  0.2650
  245TIP3    H2  742   1.520   0.521   4.351  0.7672 -0.8969  0.2621
  246TIP3   OH2  743   0.286   4.350   3.822 -0.9178  0.7260  0.1437
  246TIP3    H1  744   0.254   4.438   3.846 -0.2516  1.1923 -0.6576
  246TIP3    H2  745   0.367   4.366   3.775 -0.4314 -0.3705  0.5821
  247TIP3   OH2  746   3.916   1.562   2.837  0.3103  0.1348  0.6637
  247TIP3    H1  747   3.856   1.497   2.800  0.8943  1.0851 -2.1651
  247TIP3    H2  748   4.002   1.519   2.835  0.6446  0.8163 -0.9153
  248TIP3   OH2  749   0.656   4.373   3.142 -0.5219  0.2193  0.1078
  248TIP3    H1  750   0.748   4.346   3.144 -0.1561  1.4633  1.3975
  248TIP3    H2  751   0.635   4.379   3.048  0.3886 -1.0602 -0.2100
  249TIP3   OH2  752   6.302   1.564   3.412 -0.1431 -0.4172  0.1571
  249TIP3    H1  753   6.320   1.655   3.388 -2.1547  0.2931  1.0846
  249TIP3    H2  754   6.352   1.512   3.349  2.0731  1.2935  0.3855
  250TIP3   OH2  755   0.046   3.606   3.898 -0.4193 -0.2092  0.6111
  250TIP3    H1  756   0.140   3.600   3.881 -0.3190  0.3196  0.9527
  250TIP3    H2  757   0.035   3.566   3.985 -0.5766 -0.6811  0.3767
  251TIP3   OH2  758   4.905   3.946   3.509  0.6878 -0.2984 -0.0847
  251TIP3    H1  759   4.978   3.953   3.571  0.9381  1.1207 -0.4893
  251TIP3    H2  760   4.941   3.899   3.434  1.1129  0.1305 -0.1550
  252TIP3   OH2  761   2.734   1.362   0.257 -0.9575  0.3800 -0.9985
  252TIP3    H1  762   2.709   1.303   0.327 -1.5694  2.0191  0.2210
  252TIP3    H2  763   2.798   1.312   0.205 -0.1751 -0.7309  0.9423
  253TIP3   OH2  764   0.410   0.593   2.163  0.5987 -0.5677  0.1712
  253TIP3    H1  765   0.499   0.579   2.131  1.1904  3.0196 -0.1795
  253TIP3    H2  766   0.416   0.672   2.217 -2.3066 -0.4239  0.4307
  254TIP3   OH2  767   6.057   5.601   2.998  0.2579  0.0015  0.2042
  254TIP3    H1  768   6.048   5.680   2.944  1.9739 -1.0329 -1.7848
  254TIP3    H2  769   6.025   5.531   2.942  1.4805 -1.0460  0.7677
  255TIP3   OH2  770   2.030   0.283   4.368  0.4117  0.2523  0.0217
  255TIP3    H1  771   2.102   0.281   4.431  0.7530 -0.0147 -0.3729
  255TIP3    H2  772   2.015   0.192   4.345 -0.3396  0.2738  0.4210
  256TIP3   OH2  773   1.944   0.444   1.416 -0.3146  0.0774  0.3034
  256TIP3    H1  774   1.901   0.515   1.369  1.0840  1.7125  1.3712
  256TIP3    H2  775   1.885   0.370   1.407 -2.1980  1.5692 -0.2560
  257TIP3   OH2  776  -0.015   0.106   3.662 -0.1273 -0.0737  0.0012
  257TIP3    H1  777   0.043   0.163   3.612 -2.2913  0.2008 -2.3679
  257TIP3    H2  778  -0.003   0.019   3.625  0.8389 -0.6139  1.4800
  258TIP3   OH2  779   3.634   4.351   0.221 -0.3490 -0.0639 -0.0003
  258TIP3    H1  780   3.608   4.366   0.312 -0.3688 -0.3328  0.0399
  258TIP3    H2  781   3.558   4.311   0.180 -0.3546  0.0955 -0.1471
  259TIP3   OH2  782   3.969   1.198   0.075  0.0015 -0.3523  0.0184
  259TIP3    H1  783   3.932   1.280   0.106 -0.7474 -0.6069 -0.1999
  259TIP3    H2  784   3.951   1.197  -0.019  1.5855  0.0587 -0.3321
  260TIP3   OH2  785   1.765   4.741   2.877  0.2877 -0.2147  0.8901
  260TIP3    H1  786   1.674   4.750   2.850  0.7704 -0.6960 -1.0851
  260TIP3    H2  787   1.763   4.673   2.945 -0.8312 -0.0601  1.0305
  261TIP3   OH2  788   0.706   4.457   1.497 -0.3621 -0.2059 -0.4630
  261TIP3    H1  789   0.753   4.472   1.415  1.0472  2.4762  0.7276
  261TIP3    H2  790   0.681   4.544   1.527  1.0429 -0.8178  2.9762
  262TIP3   OH2  791   3.359   2.834   4.394  0.1855 -0.1102 -0.3310
  262TIP3    H1  792   3.306   2.879   4.460  0.3609  0.6846 -0.7120
  262TIP3    H2  793   3.300   2.819   4.321  0.4167  0.6078 -0.6813
  263TIP3   OH2  794   1.275   1.160   3.821 -0.0306  0.4106 -0.0581
  263TIP3    H1  795   1.301   1.222   3.890 -0.3438  1.6460 -1.0001
  263TIP3    H2  796   1.184   1.140   3.840 -0.1018  0.7096 -0.0745
  264TIP3   OH2  797   0.292   4.564   3.344  0.4596  0.0879  0.0123
  264TIP3    H1  798   0.377   4.519   3.345 -0.4607 -1.7252  0.9182
  264TIP3    H2  799   0.295   4.622   3.420  0.3366 -1.1286  0.9762
  265TIP3   OH2  800   4.039   2.199   3.009 -0.7400 -1.0476  0.1975
  265TIP3    H1  801   4.015   2.227   3.097  0.7536 -0.5839  0.4957
  265TIP3    H2  802   4.130   2.169   3.018 -0.9508 -2.1228 -0.9561
  266TIP3   OH2  803   2.339   3.926   1.983  0.2229 -0.3167 -0.4936
  266TIP3    H1  804   2.278   3.952   1.915 -1.5859 -1.0485  0.7814
  266TIP3    H2  805   2.365   3.836   1.959  1.4441  0.2472 -1.4257
  267TIP3   OH2  806   0.938   3.198   2.358  0.0227 -0.1239  0.3017
  267TIP3    H1  807   0.859   3.240   2.326 -1.0704 -2.0412  0.3198
  267TIP3    H2  808   1.007   3.263   2.345 -1.4987  1.5307  0.1052
  268TIP3   OH2  809   1.694   5.890   3.933 -0.4753 -0.9409 -0.2007
  268TIP3    H1  810   1.736   5.845   3.860 -2.2009  1.2530 -2.7276
  268TIP3    H2  811   1.638   5.824   3.974  1.0775 -2.4010 -0.3318
  269TIP3   OH2  812   2.218   5.415   1.083 -0.8358 -0.6646  0.1149
  269TIP3    H1  813   2.144   5.465   1.049  0.1267  2.1212  1.8139
  269TIP3    H2  814   2.184   5.326   1.093 -3.3564  0.0872 -0.9154
  270TIP3   OH2  815   5.171   1.558   2.367  0.5014 -0.0165  0.3865
  270TIP3    H1  816   5.160   1.640   2.415  1.7615 -0.0523  0.7794
  270TIP3    H2  817   5.083   1.521   2.362 -0.0097  1.1196  0.6310
  271TIP3   OH2  818   6.113   2.932   2.922 -0.0945  0.1867 -0.0353
  271TIP3    H1  819   6.094   2.944   3.015 -0.3386 -1.3262  0.1398
  271TIP3    H2  820   6.027   2.932   2.880  0.0865  2.7061 -0.5610
  272TIP3   OH2  821   0.578   1.244   3.916 -0.1433 -0.0869  0.2213
  272TIP3    H1  822   0.611   1.165   3.871 -1.6371 -0.5569 -0.0903
  272TIP3    H2  823   0.483   1.233   3.917 -0.2609  0.8877  1.7504
  273TIP3   OH2  824   0.964   1.994   0.025  0.1258 -0.0936 -0.0201
  273TIP3    H1  825   0.924   1.923   0.076  0.1236 -1.5033 -1.8663
  273TIP3    H2  826   0.891   2.039  -0.016  0.0657  1.5741  1.7749
  274TIP3   OH2  827   4.647   4.599   1.189 -0.0554 -0.4933  0.0286
  274TIP3    H1  828   4.560   4.635   1.174  0.4843  0.4398 -1.0174
  274TIP3    H2  829   4.689   4.662   1.248 -0.3307 -1.3324  1.1399
  275TIP3   OH2  830   2.243   3.032   4.118 -0.0327 -0.1445  0.4817
  275TIP3    H1  831   2.257   3.120   4.154  1.0940  0.0511 -0.3530
  275TIP3    H2  832   2.159   3.037   4.073  0.5418  0.8679 -0.5302
  276TIP3   OH2  833   0.304   2.438   4.592  0.4976 -0.4078  0.3481
  276TIP3    H1  834   0.219   2.483   4.584  0.9177  0.3688  0.0538
  276TIP3    H2  835   0.306   2.406   4.682 -0.9008 -2.1041 -0.1638
  277TIP3   OH2  836   2.611   1.799   0.641 -0.1443  0.3483 -0.7964
  277TIP3    H1  837   2.612   1.732   0.710 -0.2236  1.8699  0.7754
  277TIP3    H2  838   2.518   1.808   0.619 -0.6837  2.4419  1.7135
  278TIP3   OH2  839   4.387   3.442   4.964  0.4112 -0.0186 -0.0382
  278TIP3    H1  840   4.305   3.417   5.007 -0.6155  1.9315 -0.7596
  278TIP3    H2  841   4.455   3.410   5.023 -0.8704 -0.8275  1.0728
  279TIP3   OH2  842   1.529   4.921   4.172 -0.3997  0.0065  0.3314
  279TIP3    H1  843   1.624   4.919   4.161 -0.2992  0.0194  1.1584
  279TIP3    H2  844   1.505   5.011   4.151 -0.3186 -0.1572 -0.5075
  280TIP3   OH2  845   4.886   1.755   0.017 -0.1773 -0.4640  0.4733
  280TIP3    H1  846   4.877   1.775  -0.076  1.5051  1.1001  0.5757
  280TIP3    H2  847   4.842   1.828   0.062  0.2951 -0.4155  0.8777
  281TIP3   OH2  848   2.754   1.527   2.964  0.1152  0.2702  0.6880
  281TIP3    H1  849   2.680   1.547   3.020  0.8530  0.0033  1.7848
  281TIP3    H2  850   2.715   1.506   2.879 -1.0138  0.6894  1.0866
  282TIP3   OH2  851   5.585   5.172   3.721  0.1897  0.5634 -0.4905
  282TIP3    H1  852   5.526   5.235   3.681 -0.4942  1.4170  1.6988
  282TIP3    H2  853   5.578   5.190   3.815  0.2155 -2.5822  0.2032
  283TIP3   OH2  854   0.528   5.212   0.705  0.3615  0.3039 -0.3856
  283TIP3    H1  855   0.518   5.123   0.739 -1.3621  0.1586 -1.1674
  283TIP3    H2  856   0.537   5.200   0.611  0.0278  0.9593 -0.5026
  284TIP3   OH2  857   2.227   2.801   1.961 -0.3846 -0.3107 -0.0867
  284TIP3    H1  858   2.205   2.765   1.875 -0.2394  2.1597 -1.2462
  284TIP3    H2  859   2.159   2.767   2.019 -2.0479  0.0526 -1.7258
  285TIP3   OH2  860   1.054   0.743   0.722  0.8219  0.2797  0.0435
  285TIP3    H1  861   0.966   0.706   0.733  0.7861  0.6653  1.2993
  285TIP3    H2  862   1.055   0.817   0.783  1.5597  1.1180 -0.9724
  286TIP3   OH2  863   0.117   5.386   2.662 -0.1835  0.4197 -0.6474
  286TIP3    H1  864   0.053   5.443   2.620 -0.8388 -0.1950 -0.4932
  286TIP3    H2  865   0.083   5.372   2.750  1.2921  1.8852  0.2272
  287TIP3   OH2  866   4.426   1.272   5.130 -0.1432 -0.0604  0.4872
  287TIP3    H1  867   4.402   1.256   5.222  0.9662 -0.3395  0.7505
  287TIP3    H2  868   4.472   1.192   5.104 -1.2190 -0.3442 -0.6018
  288TIP3   OH2  869   0.347   2.226   1.391 -0.0828 -0.1770  0.4453
  288TIP3    H1  870   0.383   2.137   1.389 -1.1677 -0.6487  1.0231
  288TIP3    H2  871   0.344   2.253   1.300  1.2969 -0.2938  0.3503
  289TIP3   OH2  872   3.564   3.059   2.130  0.1003  0.8082  0.4521
  289TIP3    H1  873   3.658   3.048   2.114 -0.1197  0.4925 -0.7395
  289TIP3    H2  874   3.524   3.052   2.043 -1.3240 -2.3461  1.2209
  290TIP3   OH2  875   5.357   0.075   3.463 -0.8758  0.0443 -0.0670
  290TIP3    H1  876   5.321   0.133   3.530  2.1430  0.2477  1.5327
  290TIP3    H2  877   5.448   0.061   3.489  0.1036 -0.8959 -3.4727
  291TIP3   OH2  878   3.178   4.677   5.033 -0.3164  0.7764  0.5311
  291TIP3    H1  879   3.229   4.686   5.113  0.5381  2.0465 -0.1185
  291TIP3    H2  880   3.088   4.694   5.060 -0.2929 -0.4672  1.5034
  292TIP3   OH2  881   3.090   4.065   0.159 -0.3302  0.0139 -0.5645
  292TIP3    H1  882   3.033   4.139   0.139 -2.2460 -0.9932  0.8906
  292TIP3    H2  883   3.089   4.059   0.254  0.5213 -1.3243 -0.6154
  293TIP3   OH2  884   0.082   0.907   4.463  0.0154 -0.1579 -0.7763
  293TIP3    H1  885  -0.011   0.888   4.475  0.2500 -0.2022  1.1988
  293TIP3    H2  886   0.102   0.971   4.531  0.8828  1.8478 -2.7604
  294TIP3   OH2  887   2.791   1.332   4.513  0.0991 -0.1812  0.0899
  294TIP3    H1  888   2.884   1.341   4.491 -0.3975 -0.2052 -2.2384
  294TIP3    H2  889   2.748   1.401   4.463 -1.3766 -1.5380 -0.5757
  295TIP3   OH2  890   1.522   3.945   1.522  0.6300  0.1426 -0.0011
  295TIP3    H1  891   1.435   3.908   1.505  0.8071 -0.3932  0.2314
  295TIP3    H2  892   1.556   3.967   1.436 -0.2328  1.5225 -0.0120
  296TIP3   OH2  893   0.689   1.069   0.073 -0.3144 -0.0762 -0.4408
  296TIP3    H1  894   0.680   1.139   0.138 -0.1481  0.2934 -0.8145
  296TIP3    H2  895   0.767   1.020   0.100 -0.6672 -0.3715  0.0573
  297TIP3   OH2  896   2.455   2.458   1.066  0.4866 -0.4342 -0.2015
  297TIP3    H1  897   2.544   2.427   1.084  1.1310  0.8850 -0.9655
  297TIP3    H2  898   2.468   2.539   1.017 -1.1513 -0.4411 -0.6829
  298TIP3   OH2  899   5.810   5.140   1.726 -0.4803 -0.3553 -0.3846
  298TIP3    H1  900   5.802   5.117   1.633  0.7030 -1.3369 -0.2676
  298TIP3    H2  901   5.758   5.220   1.736  0.0551  0.2324 -2.0608
  299TIP3   OH2  902   2.596   4.449   2.976  0.1247 -0.4815 -0.0635
  299TIP3    H1  903   2.520   4.436   3.032  0.9484 -2.5503  0.6537
  299TIP3    H2  904   2.662   4.488   3.034  0.8060 -2.1491  0.3441
  300TIP3   OH2  905   1.058   0.731   4.597 -0.4572 -0.4810  0.1398
  300TIP3    H1  906   0.975   0.762   4.631 -0.9369 -2.5220  0.9309
  300TIP3    H2  907   1.084   0.798   4.533 -2.9500 -0.0821 -0.5289
  301TIP3   OH2  908   4.251   5.210   0.383  0.1640  0.3950 -0.1972
  301TIP3    H1  909   4.217   5.271   0.319 -0.3832  0.4794  0.1706
  301TIP3    H2  910   4.199   5.131   0.373  2.0065 -0.7016 -1.8909
  302TIP3   OH2  911   1.863   2.631   5.107 -0.1042 -0.2993  0.2383
  302TIP3    H1  912   1.799   2.586   5.052 -1.3825 -0.8222  2.0489
  302TIP3    H2  913   1.948   2.598   5.079 -0.1949  2.3109 -4.0770
  303TIP3   OH2  914   5.427   4.578   1.566  0.0713  0.0802 -0.0510
  303TIP3    H1  915   5.473   4.494   1.561 -1.0829 -0.6850  1.5105
  303TIP3    H2  916   5.463   4.621   1.643 -1.1445 -0.1390  0.6673
  304TIP3   OH2  917   5.243   3.039   1.106  0.3304 -1.1826 -0.0839
  304TIP3    H1  918   5.290   3.033   1.022  1.4906 -0.5454  0.4925
  304TIP3    H2  919   5.174   2.974   1.099  0.3790 -1.1237 -1.5527
  305TIP3   OH2  920   0.226   2.066   0.928  0.2544  0.1714 -0.4514
  305TIP3    H1  921   0.265   1.986   0.962 -1.7614 -0.9118 -0.5110
  305TIP3    H2  922   0.161   2.090   0.994  1.1770  2.1020 -0.1751
  306TIP3   OH2  923   1.446   3.408   0.581 -0.0730 -0.3596 -0.0250
  306TIP3    H1  924   1.441   3.380   0.489  2.2466 -0.3115 -0.2202
  306TIP3    H2  925   1.455   3.503   0.576  3.5784 -0.5933 -0.0209
  307TIP3   OH2  926   3.811   0.783   1.836  0.5474 -0.0972 -0.2113
  307TIP3    H1  927   3.851   0.700   1.812  0.1635 -0.7508  1.2867
  307TIP3    H2  928   3.723   0.759   1.865 -0.0216  0.9986 -0.9290
  308TIP3   OH2  929   4.154   5.764   1.813 -0.0843  0.8360 -0.1880
  308TIP3    H1  930   4.098   5.775   1.736 -2.0708  1.7772  1.2933
  308TIP3    H2  931   4.158   5.851   1.852  0.4125  0.2692  1.0701
  309TIP3   OH2  932   5.176   0.976   0.106  0.1156 -0.3527  0.0351
  309TIP3    H1  933   5.169   1.071   0.096 -0.8049 -0.0686  2.6437
  309TIP3    H2  934   5.265   0.954   0.078  0.3214  1.2615 -0.6341
  310TIP3   OH2  935   2.446   3.530   0.777 -0.3799  0.2818 -0.3418
  310TIP3    H1  936   2.464   3.464   0.843 -1.1676 -0.0333 -0.4340
  310TIP3    H2  937   2.508   3.601   0.797 -0.4436  0.0944  0.5810
  311TIP3   OH2  938   2.609   2.001   3.910  0.1273  0.1861 -0.1088
  311TIP3    H1  939   2.556   1.923   3.920  0.1983  0.1844  0.2521
  311TIP3    H2  940   2.550   2.066   3.872  0.0684 -0.0399 -0.4082
  312TIP3   OH2  941   0.762   4.257   1.008 -0.6681 -0.1138  0.0003
  312TIP3    H1  942   0.674   4.233   1.037 -0.8159 -0.0319 -0.3733
  312TIP3    H2  943   0.819   4.234   1.082 -0.7538 -1.8798 -0.4503
  313TIP3   OH2  944   2.362   0.608   0.457  0.2527  0.1924 -0.0863
  313TIP3    H1  945   2.435   0.546   0.459 -0.5747 -0.7925 -0.1185
  313TIP3    H2  946   2.369   0.650   0.371  1.4844  0.9869  0.3706
  314TIP3   OH2  947   0.192   2.293   5.114  0.4543  0.2641  0.2210
  314TIP3    H1  948   0.190   2.234   5.189  0.1932  0.2601  0.2106
  314TIP3    H2  949   0.101   2.320   5.102  0.4961  0.2662 -0.0939
  315TIP3   OH2  950   5.085   4.598   0.983 -0.5097 -0.8532 -0.1099
  315TIP3    H1  951   5.032   4.519   0.994  0.1659 -1.1811  0.8790
  315TIP3    H2  952   5.069   4.649   1.062  0.8880 -1.1138  0.3693
  316TIP3   OH2  953   3.433   5.226   2.692  0.1183  0.0386  0.6014
  316TIP3    H1  954   3.446   5.244   2.785 -1.5426  1.7557  0.5897
  316TIP3    H2  955   3.403   5.135   2.688  1.8146 -0.5852  1.5408
  317TIP3   OH2  956   6.093   3.416   2.187  0.4034  0.2285 -0.1028
  317TIP3    H1  957   6.151   3.491   2.186  0.9744 -0.1981 -1.8339
  317TIP3    H2  958   6.137   3.352   2.243  1.4844  0.0105 -1.1801
  318TIP3   OH2  959   0.488   0.278   3.158 -0.2952 -0.4279 -0.2846
  318TIP3    H1  960   0.456   0.237   3.239  0.0554 -0.5444 -0.2010
  318TIP3    H2  961   0.530   0.207   3.110 -0.9911 -0.4799 -0.8361
  319TIP3   OH2  962   2.869   0.251   1.053  0.1782 -0.3388 -0.1507
  319TIP3    H1  963   2.928   0.273   1.125  2.0584 -0.6203 -1.5189
  319TIP3    H2  964   2.820   0.175   1.084  0.6968 -0.2385  0.9619
  320TIP3   OH2  965   6.247   2.568   0.112 -0.1133  0.1392 -0.5439
  320TIP3    H1  966   6.169   2.624   0.118  1.5262  2.5879 -0.6421
  320TIP3    H2  967   6.290   2.596   0.031  1.7783  0.1431  0.4109
  321TIP3   OH2  968   1.394   4.107   2.346  0.2838  0.3571  0.2423
  321TIP3    H1  969   1.451   4.131   2.273 -0.5692  1.0128 -0.2344
  321TIP3    H2  970   1.319   4.064   2.304  0.6065 -0.8633  0.8886
  322TIP3   OH2  971   1.570   2.192   4.536 -0.3626  0.3172 -0.6356
  322TIP3    H1  972   1.477   2.180   4.518 -1.2926 -1.1861  3.8657
  322TIP3    H2  973   1.609   2.106   4.521  0.0139  0.5332 -0.9411
  323TIP3   OH2  974   4.961   1.534   1.967  0.0780  0.5529 -0.6039
  323TIP3    H1  975   4.995   1.446   1.981  1.4686  1.2637  0.7882
  323TIP3    H2  976   4.995   1.561   1.882 -0.4233 -0.2699 -1.0739
  324TIP3   OH2  977   5.423   1.431   0.800  0.3516 -0.5287 -0.3522
  324TIP3    H1  978   5.495   1.474   0.846  1.9141 -3.4802  0.2131
  324TIP3    H2  979   5.414   1.480   0.718  2.2651  0.5571  0.0386
  325TIP3   OH2  980   5.931   4.294   3.695 -0.7002 -0.3068  0.2332
  325TIP3    H1  981   5.985   4.317   3.619 -1.3468  1.4600  0.2606
  325TIP3    H2  982   5.889   4.211   3.670  0.6316 -0.7976 -0.4978
  326TIP3   OH2  983   1.756   2.711   2.390  0.8083 -0.0260 -0.4748
  326TIP3    H1  984   1.713   2.702   2.475 -1.1872 -0.3681 -1.4597
  326TIP3    H2  985   1.828   2.647   2.393  0.1999 -0.6959  0.6260
  327TIP3   OH2  986   6.246   4.931   4.677 -0.1939  0.4651 -0.1697
  327TIP3    H1  987   6.254   5.022   4.647 -0.2471  1.5526  2.7864
  327TIP3    H2  988   6.322   4.918   4.734 -0.4151 -1.2239 -0.2249
  328TIP3   OH2  989   0.845   3.591   0.606  0.4535 -0.0251 -0.3643
  328TIP3    H1  990   0.877   3.624   0.689  0.2987 -2.0903  0.5692
  328TIP3    H2  991   0.758   3.630   0.597  1.0965  1.4614 -0.3643
  329TIP3   OH2  992   2.831   1.843   3.801 -0.1297 -0.2317  0.2284
  329TIP3    H1  993   2.822   1.933   3.831  1.7179  0.4386 -1.0208
  329TIP3    H2  994   2.777   1.839   3.722  0.1045 -0.0627  0.0540
  330TIP3   OH2  995   1.800   5.617   1.143 -0.6361  0.2622  0.4820
  330TIP3    H1  996   1.869   5.657   1.196 -0.7998  1.3360 -0.0732
  330TIP3    H2  997   1.846   5.557   1.085 -0.0123  1.7204 -0.5867
  331TIP3   OH2  998   4.886   4.380   0.933 -0.4463 -0.2708  0.0166
  331TIP3    H1  999   4.841   4.366   1.017  0.1594  0.0044  0.3981
  331TIP3    H2 1000   4.827   4.439   0.885 -0.7160 -0.2837  0.3214
  332TIP3   OH2 1001   4.727   4.727   3.504  0.0273  0.1381  0.6104
  332TIP3    H1 1002   4.633   4.734   3.522 -0.8612 -0.4834 -3.0264
  332TIP3    H2 1003   4.756   4.817   3.493 -0.6561  0.2804 -0.1843
  333TIP3   OH2 1004   2.388   4.552   3.745 -0.2778  0.2783 -0.3236
  333TIP3    H1 1005   2.480   4.533   3.765  0.0659  1.2446 -0.9221
  333TIP3    H2 1006   2.342   4.472   3.768  0.6881 -0.1523  0.1794
  334TIP3   OH2 1007   1.032   5.642   3.201  0.0075  0.0536 -0.4685
  334TIP3    H1 1008   1.076   5.618   3.120 -0.4279 -1.3940 -0.2994
  334TIP3    H2 1009   1.007   5.558   3.241  0.9435  0.6694  1.5671
  335TIP3   OH2 1010   5.079   2.749   1.572  0.3351  0.0063 -0.5937
  335TIP3    H1 1011   5.012   2.801   1.526 -1.8359 -1.9392  0.1594
  335TIP3    H2 1012   5.080   2.785   1.661 -0.8914 -0.9095 -0.1782
  336TIP3   OH2 1013   1.698   5.867  -0.001 -0.0261  0.0094 -0.2080
  336TIP3    H1 1014   1.786   5.904  -0.011  0.3602 -0.4450  1.2967
  336TIP3    H2 1015   1.713   5.776   0.023 -0.8207  0.4621  2.2860
  337TIP3   OH2 1016   3.279   2.468   1.926 -0.2418 -0.1835 -1.0378
  337TIP3    H1 1017   3.191   2.505   1.935  0.0722  0.1146  2.0704
  337TIP3    H2 1018   3.277   2.390   1.982  1.4600 -0.1797 -0.9352
  338TIP3   OH2 1019   3.964   2.370   2.359  0.2728 -0.3901 -0.1427
  338TIP3    H1 1020   4.051   2.361   2.398  1.2257  0.6089 -1.9556
  338TIP3    H2 1021   3.906   2.326   2.422  2.0906 -1.3516  0.9610
  339TIP3   OH2 1022   0.658   1.179   0.933 -0.5350 -0.1764 -0.2974
  339TIP3    H1 1023   0.593   1.109   0.938 -0.5550 -0.2188 -1.1314
  339TIP3    H2 1024   0.609   1.258   0.956 -1.5609  0.2069 -3.4176
  340TIP3   OH2 1025   3.978   0.577   1.756 -0.1380 -0.2981 -0.4203
  340TIP3    H1 1026   4.057   0.529   1.728  0.7833 -0.0124  1.5408
  340TIP3    H2 1027   3.917   0.509   1.784  0.8021 -0.4454  1.4332
  341TIP3   OH2 1028   2.330   2.517   4.205 -0.0607 -0.2734 -0.2674
  341TIP3    H1 1029   2.288   2.538   4.122 -1.4126 -0.2510  0.3885
  341TIP3    H2 1030   2.305   2.589   4.263 -0.1237 -0.8834  0.4814
  342TIP3   OH2 1031   6.214   1.633   0.719  0.6505 -0.0105 -0.4928
  342TIP3    H1 1032   6.231   1.559   0.661 -1.3688 -0.3802 -0.6810
  342TIP3    H2 1033   6.120   1.646   0.715  0.3761 -0.1180  2.8133
  343TIP3   OH2 1034   0.290   2.970   2.038  0.4182 -0.3596 -0.1613
  343TIP3    H1 1035   0.375   2.926   2.036 -0.0870 -1.3326 -0.6520
  343TIP3    H2 1036   0.232   2.913   1.989 -0.6451  0.0486  0.5808
  344TIP3   OH2 1037   4.067   1.430   1.831 -0.4146  0.5063 -0.2486
  344TIP3    H1 1038   4.064   1.369   1.905  2.3569  1.9765  1.2321
  344TIP3    H2 1039   3.975   1.440   1.805 -1.6449  0.3900  3.4125
  345TIP3   OH2 1040   1.076   4.105   1.760  0.3075  0.1104 -0.5577
  345TIP3    H1 1041   1.146   4.087   1.823 -0.1406  3.0646  0.9544
  345TIP3    H2 1042   1.000   4.057   1.794 -0.1917  2.4033  1.8748
  346TIP3   OH2 1043   1.049   1.350   0.905  0.4670  0.6490  0.3979
  346TIP3    H1 1044   0.963   1.355   0.864 -0.2179 -1.0990  1.5177
  346TIP3    H2 1045   1.109   1.327   0.834 -0.7413 -2.6820  0.2764
  347TIP3   OH2 1046   2.203   3.193   1.573 -0.1544 -0.1074 -0.2011
  347TIP3    H1 1047   2.161   3.136   1.637 -0.2686 -0.3570 -0.4910
  347TIP3    H2 1048   2.223   3.135   1.499 -2.4696  0.6544 -1.5319
  348TIP3   OH2 1049   4.124   1.701   0.389  0.3460  0.3112  0.0536
  348TIP3    H1 1050   4.061   1.740   0.449 -0.2082  0.4276 -0.5979
  348TIP3    H2 1051   4.098   1.732   0.302 -1.4463 -3.0913 -0.8397
  349TIP3   OH2 1052   1.434   1.046   3.271 -0.5237  0.1633 -0.2926
  349TIP3    H1 1053   1.496   1.011   3.207  0.1341 -1.1309  0.9853
  349TIP3    H2 1054   1.358   1.074   3.219 -1.5826 -4.0966 -1.4787
  350TIP3   OH2 1055   5.745   3.654   3.288  0.5594 -0.3007 -0.0096
  350TIP3    H1 1056   5.727   3.570   3.247  1.7146 -0.4255 -0.2916
  350TIP3    H2 1057   5.777   3.631   3.375 -2.4456 -0.0268  1.2944
  351TIP3   OH2 1058   4.221   3.078   2.973 -0.3898 -0.4030  0.3242
  351TIP3    H1 1059   4.313   3.056   2.960  0.4338  3.2580 -1.5143
  351TIP3    H2 1060   4.175   3.035   2.901  0.0219 -1.3709  0.6257
  352TIP3   OH2 1061   4.601   5.207   5.095 -0.3048 -0.0699 -0.0753
  352TIP3    H1 1062   4.683   5.238   5.058 -0.3920 -0.6262 -0.7579
  352TIP3    H2 1063   4.603   5.112   5.082 -0.6997 -0.1804  0.6281
  353TIP3   OH2 1064   5.177   3.316   1.052  0.2773 -0.4468 -0.0558
  353TIP3    H1 1065   5.091   3.314   1.009  0.8512 -0.7256 -1.2405
  353TIP3    H2 1066   5.196   3.224   1.072  0.0285 -0.3208  0.7948
  354TIP3   OH2 1067   1.925   0.047   3.294  0.0520  0.1185 -0.1662
  354TIP3    H1 1068   1.908   0.139   3.318  0.1827  0.5210 -1.5201
  354TIP3    H2 1069   1.955   0.006   3.375 -0.9179  1.0384  0.6847
  355TIP3   OH2 1070   1.388   5.280   0.874 -0.1263  0.9951 -0.1467
  355TIP3    H1 1071   1.297   5.288   0.902 -0.3553  1.5287 -1.0146
  355TIP3    H2 1072   1.439   5.312   0.948 -0.6616  1.0857  0.1830
  356TIP3   OH2 1073   5.223   1.878   4.356 -0.0041  0.1715 -0.5281
  356TIP3    H1 1074   5.191   1.826   4.430  0.9528 -0.3208 -0.4443
  356TIP3    H2 1075   5.173   1.960   4.361 -1.6087 -0.7580 -0.7156
  357TIP3   OH2 1076   5.894   2.658   0.696 -0.4160 -0.2912 -0.5864
  357TIP3    H1 1077   5.851   2.572   0.697  1.9216 -1.5640  1.9953
  357TIP3    H2 1078   5.850   2.708   0.765  0.7355 -0.8115  0.5432
  358TIP3   OH2 1079   2.342   1.659   4.111  0.2879  0.1475 -0.0153
  358TIP3    H1 1080   2.394   1.690   4.037  0.4491  0.1690  0.1088
  358TIP3    H2 1081   2.388   1.691   4.189  0.0286  0.2676  0.0906
  359TIP3   OH2 1082   1.117   1.247   4.321  0.2658 -0.5568  0.3128
  359TIP3    H1 1083   1.049   1.241   4.254  0.9682 -0.7247 -0.3955
  359TIP3    H2 1084   1.182   1.182   4.296  0.7983 -0.2513  0.8598
  360TIP3   OH2 1085   6.125   2.647   4.940 -0.6411  0.0274 -0.3597
  360TIP3    H1 1086   6.136   2.679   5.029  0.0057 -0.6871 -0.1782
  360TIP3    H2 1087   6.032   2.624   4.934 -1.1941  2.1021 -0.5737
  361TIP3   OH2 1088   1.857   0.578   2.016 -0.1051  0.0342 -0.1040
  361TIP3    H1 1089   1.791   0.634   2.056 -0.9774 -0.9972 -0.0571
  361TIP3    H2 1090   1.808   0.507   1.976  0.9052 -0.1634 -1.0532
  362TIP3   OH2 1091   3.189   1.257   3.015 -0.2527 -0.0553  0.0089
  362TIP3    H1 1092   3.115   1.306   3.050  0.7531  1.9819 -0.4802
  362TIP3    H2 1093   3.151   1.196   2.952 -1.5828  0.1177  0.6184
  363TIP3   OH2 1094   4.481   5.154   0.970  0.4870  0.3079  0.2125
  363TIP3    H1 1095   4.410   5.138   0.907 -0.7200 -1.1756  1.8640
  363TIP3    H2 1096   4.561   5.130   0.923 -0.4482 -1.6211 -0.5006
  364TIP3   OH2 1097   2.171   4.186   4.313  0.4851 -0.1292  0.6209
  364TIP3    H1 1098   2.165   4.215   4.222  1.6726 -1.2069  0.1653
  364TIP3    H2 1099   2.080   4.183   4.343  0.1630  1.6220 -0.0593
  365TIP3   OH2 1100   3.780   0.823   1.151  0.0933 -0.5600 -0.2941
  365TIP3    H1 1101   3.740   0.906   1.125  1.1394  0.7533  2.0353
  365TIP3    H2 1102   3.857   0.815   1.095 -0.5350 -0.4780 -1.1917
  366TIP3   OH2 1103   5.195   1.232   2.825 -0.1515 -0.2232  0.1780
  366TIP3    H1 1104   5.222   1.281   2.747  0.2938 -0.3610  0.2439
  366TIP3    H2 1105   5.099   1.226   2.817 -0.0072 -1.6021 -1.1983
  367TIP3   OH2 1106   3.930   4.229   1.822  0.3228 -0.0514 -0.0957
  367TIP3    H1 1107   3.885   4.186   1.895  0.6293  0.8108  0.6294
  367TIP3    H2 1108   4.019   4.243   1.854  0.3923  0.5569 -0.5377
  368TIP3   OH2 1109   1.368   1.693   2.867  0.0061 -0.1423  0.2367
  368TIP3    H1 1110   1.442   1.712   2.925  1.4572 -1.4220 -1.0996
  368TIP3    H2 1111   1.338   1.606   2.892 -0.1307 -0.2075 -0.1405
  369TIP3   OH2 1112   2.305   4.587   2.480 -0.3867 -0.9377  0.1368
  369TIP3    H1 1113   2.265   4.562   2.563  0.2092 -2.5847 -0.0345
  369TIP3    H2 1114   2.288   4.512   2.422 -1.0943  0.3061 -1.3500
  370TIP3   OH2 1115   2.386   3.750   3.669 -0.1077  0.3272 -0.0799
  370TIP3    H1 1116   2.304   3.781   3.706  0.8056  2.4968  0.2408
  370TIP3    H2 1117   2.420   3.688   3.734 -1.0867  0.0146  0.1468
  371TIP3   OH2 1118   4.441   0.349   3.052 -0.5982  0.2650  0.6849
  371TIP3    H1 1119   4.352   0.368   3.024 -0.2470  1.1982  0.1409
  371TIP3    H2 1120   4.496   0.382   2.981  0.2446  1.0551  1.6639
  372TIP3   OH2 1121   2.764   0.259   1.588  0.0146 -0.3879  0.0311
  372TIP3    H1 1122   2.798   0.319   1.654 -3.3322 -0.7710  2.3471
  372TIP3    H2 1123   2.812   0.177   1.603  0.3226 -0.0466  1.0024
  373TIP3   OH2 1124   4.064   1.773   0.836 -0.4130  0.0610 -0.0052
  373TIP3    H1 1125   4.081   1.867   0.846  2.4973 -0.3461 -0.1431
  373TIP3    H2 1126   4.076   1.757   0.742  0.6451 -0.6448  0.2303
  374TIP3   OH2 1127   4.294   4.237   1.450 -0.5287 -0.0694 -0.5093
  374TIP3    H1 1128   4.324   4.317   1.493 -0.9745 -0.2564  0.1666
  374TIP3    H2 1129   4.358   4.222   1.380  1.5072 -0.9497  1.4191
  375TIP3   OH2 1130   4.375   4.500   1.492 -0.4156 -0.0893 -0.7346
  375TIP3    H1 1131   4.424   4.575   1.525 -1.9862  1.0047 -0.7531
  375TIP3    H2 1132   4.352   4.523   1.403 -2.4652  0.2740 -0.1668
  376TIP3   OH2 1133   2.953   2.419   1.678  0.0631  0.2599  0.3380
  376TIP3    H1 1134   2.908   2.485   1.731 -0.2962  0.0675  0.2814
  376TIP3    H2 1135   3.037   2.458   1.656 -0.6688  1.2450 -0.8215
  377TIP3   OH2 1136   0.174   5.080   2.724  0.2183  0.3052 -0.2533
  377TIP3    H1 1137   0.234   5.009   2.747 -1.8127 -1.0738  1.1340
  377TIP3    H2 1138   0.206   5.156   2.772  1.9620  0.1780 -1.1192
  378TIP3   OH2 1139   3.953   1.460   3.444  0.2764  0.6594  0.4422
  378TIP3    H1 1140   4.028   1.444   3.386  0.8493 -0.7117  1.4962
  378TIP3    H2 1141   3.881   1.481   3.385  1.7561  3.3569 -0.5539
  379TIP3   OH2 1142   4.516   5.043   4.114  1.0965  0.0239 -0.2719
  379TIP3    H1 1143   4.484   5.115   4.059 -0.1631 -0.5800 -0.3702
  379TIP3    H2 1144   4.566   5.086   4.183  0.7405  0.9616 -0.5803
  380TIP3   OH2 1145   1.088   2.662   4.695  0.0799 -0.6083 -0.2906
  380TIP3    H1 1146   1.044   2.746   4.707  3.5307  1.0304  2.9146
  380TIP3    H2 1147   1.030   2.598   4.734 -0.7067  1.0110  1.3235
  381TIP3   OH2 1148   1.544   0.352   4.005  0.0498  0.6283  0.6858
  381TIP3    H1 1149   1.496   0.321   4.082  0.9892 -1.5426  0.4978
  381TIP3    H2 1150   1.480   0.402   3.955 -1.9436 -1.7207  0.6848
  382TIP3   OH2 1151   3.435   3.571   2.701 -0.2381 -0.5767 -0.4483
  382TIP3    H1 1152   3.453   3.584   2.608  2.7606 -0.3575  0.0647
  382TIP3    H2 1153   3.498   3.503   2.729  0.0403  0.4669  1.7102
  383TIP3   OH2 1154   0.469   1.345   4.727  0.3425  0.0982 -0.3113
  383TIP3    H1 1155   0.457   1.424   4.780  0.0286  0.2810 -0.6541
  383TIP3    H2 1156   0.383   1.329   4.689 -0.4959 -2.1915  2.2301
  384TIP3   OH2 1157   1.476   1.553   3.465  0.1028 -0.2948 -0.2074
  384TIP3    H1 1158   1.568   1.557   3.441  0.4206 -0.5021  0.9276
  384TIP3    H2 1159   1.432   1.612   3.403  0.8981 -0.6706 -1.1484
  385TIP3   OH2 1160   0.809   4.608   3.125  0.3037 -0.1408 -0.1207
  385TIP3    H1 1161   0.845   4.555   3.196 -0.6016  0.0171  0.4850
  385TIP3    H2 1162   0.730   4.560   3.097 -0.2973  0.6680  0.1589
  386TIP3   OH2 1163   0.381   4.562   2.178  0.0728  0.4152  0.3129
  386TIP3    H1 1164   0.471   4.527   2.175  0.2390  0.9085 -0.7952
  386TIP3    H2 1165   0.389   4.644   2.227  0.5949  1.4508 -1.4421
  387TIP3   OH2 1166   4.424   5.380   4.975  0.3783 -0.2058  0.0543
  387TIP3    H1 1167   4.350   5.330   4.939  1.6403 -1.4263 -0.9649
  387TIP3    H2 1168   4.474   5.315   5.025  1.1491  0.4354  0.1207
  388TIP3   OH2 1169   4.052   4.026   4.894  0.0970 -0.1394 -0.2385
  388TIP3    H1 1170   4.032   4.104   4.946  0.4795  0.9599 -1.6636
  388TIP3    H2 1171   4.136   4.046   4.853  0.0689 -1.1893 -0.8382
  389TIP3   OH2 1172   5.959   3.636   0.946 -0.4628 -0.2591  0.5314
  389TIP3    H1 1173   5.971   3.652   0.852  0.9592 -1.4884  0.4436
  389TIP3    H2 1174   6.034   3.678   0.987  0.5179 -2.1214  0.7777
  390TIP3   OH2 1175   4.879   4.953   4.215 -0.3130 -0.5935  0.0017
  390TIP3    H1 1176   4.972   4.974   4.221 -0.5121  0.5726 -0.7107
  390TIP3    H2 1177   4.876   4.872   4.165  0.2883 -0.3304 -0.4701
  391TIP3   OH2 1178   1.809   2.157   4.344  0.0246 -0.0804 -0.6228
  391TIP3    H1 1179   1.776   2.191   4.261  0.6492  1.4931 -0.2473
  391TIP3    H2 1180   1.738   2.102   4.377 -0.3726 -0.4510 -2.0176
  392TIP3   OH2 1181   4.783   5.892   4.704 -0.3728  0.0117  0.6865
  392TIP3    H1 1182   4.767   5.873   4.797  0.3408  1.1484  1.0613
  392TIP3    H2 1183   4.878   5.905   4.698 -0.4617  0.3380 -0.1350
  393TIP3   OH2 1184   1.204   1.948   5.031  0.3568 -0.2620  0.5780
  393TIP3    H1 1185   1.214   2.039   5.003  1.8280 -0.5224  0.1755
  393TIP3    H2 1186   1.275   1.935   5.094 -0.6350 -0.7717  1.6253
  394TIP3   OH2 1187   6.128   0.006   3.837 -0.3909 -0.0238  0.0241
  394TIP3    H1 1188   6.214   0.041   3.812 -0.1979 -0.4863  0.0303
  394TIP3    H2 1189   6.067   0.045   3.774  0.1311 -1.4337 -1.4365
  395TIP3   OH2 1190   6.079   1.638   3.049  0.3347  0.1613  0.3371
  395TIP3    H1 1191   6.175   1.634   3.048  0.3322  0.1157  0.3071
  395TIP3    H2 1192   6.058   1.726   3.016  0.3426 -0.0839 -0.3289
  396TIP3   OH2 1193   5.504   4.660   3.338 -0.3521  0.1252  0.1808
  396TIP3    H1 1194   5.498   4.575   3.382  0.0374 -1.2896 -2.3346
  396TIP3    H2 1195   5.590   4.661   3.297 -0.1540  1.9850  0.5195
  397TIP3   OH2 1196   2.436   2.854   4.239  0.2268 -0.3463 -0.4272
  397TIP3    H1 1197   2.393   2.929   4.199 -0.8122 -1.3107 -1.1883
  397TIP3    H2 1198   2.364   2.801   4.274  1.0431  0.1048  2.1745
  398TIP3   OH2 1199   6.274   2.540   3.300  0.0256 -0.5342 -0.0393
  398TIP3    H1 1200   6.225   2.502   3.227  0.4156 -1.5429  0.1994
  398TIP3    H2 1201   6.323   2.612   3.261  2.1852 -2.5576 -1.3790
  399TIP3   OH2 1202   2.424   0.566   3.404  0.2832  0.5747  0.0002
  399TIP3    H1 1203   2.399   0.485   3.361  1.1052  0.5142 -0.3851
  399TIP3    H2 1204   2.401   0.553   3.496 -2.3114  1.0320 -0.5152
  400TIP3   OH2 1205   0.286   4.115   0.178  0.6968  0.0905  0.1560
  400TIP3    H1 1206   0.324   4.035   0.141 -2.0500 -1.3174  0.1043
  400TIP3    H2 1207   0.209   4.085   0.226 -0.7695  2.7354 -0.3351
  401TIP3   OH2 1208   2.837   5.848   1.594  0.5246 -0.3254 -0.6246
  401TIP3    H1 1209   2.798   5.761   1.583  0.0011 -0.1392 -0.2948
  401TIP3    H2 1210   2.928   5.831   1.617  0.3179 -0.7954 -0.1371
  402TIP3   OH2 1211   1.810   1.442   0.907  0.1319  0.2705 -0.0546
  402TIP3    H1 1212   1.804   1.506   0.978 -0.5696  0.6464 -0.4483
  402TIP3    H2 1213   1.865   1.484   0.842  1.0420 -0.2021  0.3842
  403TIP3   OH2 1214   4.653   1.081   1.198 -0.7026 -0.4058 -0.3921
  403TIP3    H1 1215   4.607   1.145   1.144  0.8664  0.2784 -0.9608
  403TIP3    H2 1216   4.726   1.051   1.144 -0.8087 -1.9396  0.2482
  404TIP3   OH2 1217   4.092   2.640   4.717  0.3808 -0.2507 -0.0404
  404TIP3    H1 1218   4.062   2.557   4.680 -1.8582  0.4519  0.0894
  404TIP3    H2 1219   4.138   2.615   4.797 -0.3947 -1.3519  0.0827
  405TIP3   OH2 1220   3.769   5.042   0.675  0.4738  0.4990  0.0839
  405TIP3    H1 1221   3.818   5.113   0.717 -0.3955  0.1721  1.7597
  405TIP3    H2 1222   3.721   5.000   0.747 -0.2197 -0.8295 -1.0953
  406TIP3   OH2 1223   0.614   1.224   4.528  0.1374 -0.7081 -0.6477
  406TIP3    H1 1224   0.605   1.253   4.619  1.7734  0.4746 -0.8136
  406TIP3    H2 1225   0.542   1.267   4.482  0.3242  0.1089 -0.1971
  407TIP3   OH2 1226   0.150   1.914   2.798  0.1501 -0.2064 -0.1646
  407TIP3    H1 1227   0.144   1.962   2.715 -0.9083 -0.5857 -0.3219
  407TIP3    H2 1228   0.204   1.970   2.854  0.0839  0.5130 -0.7977
  408TIP3   OH2 1229   0.194   0.461   2.062 -0.1314  0.0010 -0.1237
  408TIP3    H1 1230   0.252   0.529   2.097 -1.7989  1.0740  0.6550
  408TIP3    H2 1231   0.253   0.389   2.039  1.4430  0.8135  1.1850
  409TIP3   OH2 1232   4.005   0.066   2.275  0.3878  0.0182  0.0429
  409TIP3    H1 1233   4.086   0.075   2.325  0.3286 -2.3618  0.6671
  409TIP3    H2 1234   3.935   0.077   2.339  0.2745 -0.4921  0.0152
  410TIP3   OH2 1235   0.972   0.312   0.533  0.0787 -0.2250  0.2097
  410TIP3    H1 1236   1.015   0.330   0.450  0.7336 -0.4580  0.4931
  410TIP3    H2 1237   1.038   0.331   0.600 -1.1239  2.1358  0.8254
  411TIP3   OH2 1238   3.388   0.454   4.451 -0.5786 -0.1709 -0.2294
  411TIP3    H1 1239   3.465   0.509   4.437 -0.5793 -0.3633 -1.0494
  411TIP3    H2 1240   3.418   0.386   4.511 -0.6876  0.9252  1.1292
  412TIP3   OH2 1241   0.780   5.887   1.719 -0.0556  0.3757 -0.6401
  412TIP3    H1 1242   0.722   5.812   1.707  0.9658 -0.7290  0.9825
  412TIP3    H2 1243   0.847   5.877   1.651  0.1222 -0.2503 -0.3820
  413TIP3   OH2 1244   1.843   1.115   2.588  0.3387 -0.0954 -0.0079
  413TIP3    H1 1245   1.779   1.096   2.519  0.6748 -0.9302 -0.0973
  413TIP3    H2 1246   1.847   1.211   2.590 -0.4157 -0.0402 -0.4571
  414TIP3   OH2 1247   2.298   2.172   1.049 -0.4336 -0.4481 -0.6807
  414TIP3    H1 1248   2.232   2.165   0.980  0.7011  0.7224 -1.9461
  414TIP3    H2 1249   2.381   2.149   1.006 -0.0311 -2.4888  1.0129
  415TIP3   OH2 1250   1.489   1.745   4.553 -0.0705  0.2147  0.7800
  415TIP3    H1 1251   1.529   1.666   4.516  0.1352  0.5555  0.2582
  415TIP3    H2 1252   1.461   1.719   4.641  1.3401 -0.0257  1.1885
  416TIP3   OH2 1253   1.835   4.338   1.728 -0.0723 -0.8611  0.0694
  416TIP3    H1 1254   1.809   4.246   1.729  1.4279 -1.3082  0.5938
  416TIP3    H2 1255   1.821   4.368   1.817 -1.2873 -0.3351 -0.2752
  417TIP3   OH2 1256   3.211   2.448   0.488 -0.1424  0.0443 -0.2134
  417TIP3    H1 1257   3.136   2.462   0.545  0.0589  1.0964 -0.1866
  417TIP3    H2 1258   3.286   2.441   0.547 -0.3674 -2.4608 -0.1411
  418TIP3   OH2 1259   3.169   0.788   5.180  0.0040 -0.2207 -0.2095
  418TIP3    H1 1260   3.113   0.711   5.174 -1.0606  0.5916 -1.3532
  418TIP3    H2 1261   3.110   0.861   5.161  1.5017  0.6473 -1.8374
  419TIP3   OH2 1262   2.705   0.656   3.820  0.3883  0.0510  0.2237
  419TIP3    H1 1263   2.616   0.670   3.853  0.5056 -1.2152  1.1222
  419TIP3    H2 1264   2.699   0.677   3.726 -1.2420 -1.5005 -0.0730
  420TIP3   OH2 1265   1.630   0.870   3.471  0.3372  0.2440  0.0870
  420TIP3    H1 1266   1.646   0.960   3.446  0.5889  0.7648  1.9606
  420TIP3    H2 1267   1.641   0.869   3.566 -2.3660 -1.1677  0.4858
  421TIP3   OH2 1268   5.466   2.799   1.874 -0.0366  0.3000 -0.0062
  421TIP3    H1 1269   5.531   2.815   1.943  1.3206 -2.9191 -0.3233
  421TIP3    H2 1270   5.415   2.725   1.908 -0.5291 -0.1579 -1.6611
  422TIP3   OH2 1271   4.440   2.776   0.825  0.1628  1.2283 -0.7077
  422TIP3    H1 1272   4.534   2.790   0.837  0.0127  0.8190  1.2439
  422TIP3    H2 1273   4.426   2.788   0.731  2.8016 -2.3844 -1.7573
  423TIP3   OH2 1274   4.177   4.850   3.936  0.3446 -0.1399 -0.0470
  423TIP3    H1 1275   4.125   4.779   3.972 -0.8946  1.2043  0.9040
  423TIP3    H2 1276   4.210   4.898   4.012  2.8265 -0.7847 -0.6097
  424TIP3   OH2 1277   5.682   0.646   4.202 -0.0510 -0.1411 -0.1159
  424TIP3    H1 1278   5.674   0.741   4.212  0.2144 -0.0786 -0.4892
  424TIP3    H2 1279   5.666   0.611   4.290  0.6980  0.3057  0.2128
  425TIP3   OH2 1280   1.055   4.032   3.377  0.2133  0.2564  0.5848
  425TIP3    H1 1281   1.143   4.002   3.354 -0.0165  0.2832 -0.4004
  425TIP3    H2 1282   1.053   4.124   3.353 -0.1391  0.2061  0.4028
  426TIP3   OH2 1283   3.819   3.441   3.041 -0.5500 -0.1689 -0.0894
  426TIP3    H1 1284   3.764   3.366   3.066 -0.0234 -1.3578 -2.2010
  426TIP3    H2 1285   3.908   3.406   3.041 -0.0486  1.0417  0.8094
  427TIP3   OH2 1286   6.279   0.879   4.215 -0.1687  0.6899 -0.0154
  427TIP3    H1 1287   6.297   0.797   4.169 -1.4039 -0.0228  0.7464
  427TIP3    H2 1288   6.354   0.890   4.273 -0.3944 -0.3488  0.4907
  428TIP3   OH2 1289   0.890   5.943   0.973 -0.2719 -0.4490 -1.0386
  428TIP3    H1 1290   0.803   5.982   0.978  0.6102  1.7461 -1.4371
  428TIP3    H2 1291   0.886   5.884   0.897 -1.4938 -0.6905 -0.8054
  429TIP3   OH2 1292   1.040   1.223   0.433 -0.1357 -0.0289 -0.0918
  429TIP3    H1 1293   1.072   1.277   0.505  1.6607 -0.0795 -0.7971
  429TIP3    H2 1294   1.119   1.200   0.383 -1.4038  1.0282 -2.7921
  430TIP3   OH2 1295   2.447   2.014   3.158 -0.2986  0.0416  0.1598
  430TIP3    H1 1296   2.368   2.063   3.180 -0.0561 -0.4317  2.2782
  430TIP3    H2 1297   2.418   1.922   3.156  0.2131 -0.1653  1.2492
  431TIP3   OH2 1298   0.396   4.447   0.225 -0.0700  0.2776  0.6588
  431TIP3    H1 1299   0.347   4.446   0.307 -0.6542 -1.2917  0.3190
  431TIP3    H2 1300   0.459   4.376   0.234 -0.2689 -0.0360 -0.3036
  432TIP3   OH2 1301   1.109   1.404   1.536 -0.1417  0.2225 -0.0351
  432TIP3    H1 1302   1.121   1.390   1.630 -0.6977  1.8690  0.3123
  432TIP3    H2 1303   1.029   1.355   1.515  0.4138 -0.7881  0.1759
  433TIP3   OH2 1304   4.786   1.974   5.142  0.3699  0.0065  0.2838
  433TIP3    H1 1305   4.799   1.908   5.074  0.0756  0.1675  0.0668
  433TIP3    H2 1306   4.872   1.983   5.184  0.6278  0.1041 -0.2530
  434TIP3   OH2 1307   3.265   3.214   2.340  0.1658 -0.0998  0.3502
  434TIP3    H1 1308   3.208   3.257   2.277  1.7067  0.8477 -0.4629
  434TIP3    H2 1309   3.220   3.132   2.363 -0.6948 -0.1890 -1.5379
  435TIP3   OH2 1310   2.746   5.107   3.198 -0.3295 -0.0859 -0.7963
  435TIP3    H1 1311   2.724   5.056   3.276 -0.3597  0.1822 -0.6303
  435TIP3    H2 1312   2.786   5.187   3.231 -2.5126  1.1508 -0.9291
  436TIP3   OH2 1313   6.049   3.643   3.940 -0.5192 -0.2702 -1.0128
  436TIP3    H1 1314   6.127   3.634   3.995 -0.1218  0.9329 -1.3544
  436TIP3    H2 1315   6.010   3.556   3.941  0.2714 -0.6448 -0.0104
  437TIP3   OH2 1316   3.746   4.780   1.635 -0.0709 -0.5538  0.0275
  437TIP3    H1 1317   3.836   4.747   1.637 -0.6632 -2.3884 -0.9238
  437TIP3    H2 1318   3.730   4.812   1.723  1.1634 -1.2495  0.5266
  438TIP3   OH2 1319   1.785   1.080   0.970  0.3355  0.8878 -0.0738
  438TIP3    H1 1320   1.699   1.120   0.980 -0.7216 -0.9498 -1.1682
  438TIP3    H2 1321   1.785   1.007   1.032  0.1498 -0.5242 -1.6648
  439TIP3   OH2 1322   1.792   3.145   2.949 -0.0862 -0.0720  0.4415
  439TIP3    H1 1323   1.736   3.192   3.010 -0.4152 -1.3875  1.1912
  439TIP3    H2 1324   1.865   3.114   3.003  1.0698  1.0500 -0.3884
  440TIP3   OH2 1325   3.487   1.190   3.915  0.3461 -0.3008 -0.6128
  440TIP3    H1 1326   3.460   1.245   3.841 -0.1633 -0.4345 -0.5276
  440TIP3    H2 1327   3.582   1.201   3.919  0.5555 -1.3194 -2.1153
  441TIP3   OH2 1328   5.902   4.513   2.186 -0.3395 -0.4615 -0.0095
  441TIP3    H1 1329   5.952   4.588   2.154 -1.3081 -0.0459 -0.5735
  441TIP3    H2 1330   5.966   4.441   2.188  0.1386 -0.0925 -1.2768
  442TIP3   OH2 1331   0.253   4.852   2.955  0.6337  0.2132 -0.6607
  442TIP3    H1 1332   0.290   4.931   2.995  1.7825 -0.1714 -0.9159
  442TIP3    H2 1333   0.295   4.780   3.002  1.2624 -0.2397 -1.8729
  443TIP3   OH2 1334   5.603   2.136   3.691 -0.2560 -0.2724 -0.3452
  443TIP3    H1 1335   5.692   2.104   3.704 -0.2867 -1.0155 -1.8341
  443TIP3    H2 1336   5.547   2.069   3.731 -0.1949 -0.3382 -0.3700
  444TIP3   OH2 1337   2.427   0.114   4.080 -0.7085  0.5421 -0.3013
  444TIP3    H1 1338   2.410   0.102   4.173  0.7504 -1.5243 -0.2443
  444TIP3    H2 1339   2.451   0.207   4.072  0.5846  0.4343  1.6544
  445TIP3   OH2 1340   6.205   2.117   0.482  0.0086  0.6201 -0.4093
  445TIP3    H1 1341   6.280   2.113   0.423 -0.7827 -0.3562 -1.3947
  445TIP3    H2 1342   6.152   2.041   0.459 -0.7445  0.6796  1.0168
  446TIP3   OH2 1343   0.186   0.498   0.373  0.1922  0.3254 -0.6838
  446TIP3    H1 1344   0.100   0.490   0.414  0.2132 -0.1410 -0.7263
  446TIP3    H2 1345   0.235   0.423   0.406  0.8967  1.1136  0.0943
  447TIP3   OH2 1346   4.009   2.796   3.069  0.0264 -0.6297  0.3600
  447TIP3    H1 1347   4.044   2.811   2.981 -0.3215 -0.6934  0.2106
  447TIP3    H2 1348   4.078   2.828   3.128 -0.6555  1.5004  0.0723
  448TIP3   OH2 1349   3.626   2.608   3.182 -0.1076 -0.1175 -0.0313
  448TIP3    H1 1350   3.589   2.559   3.256  0.9245 -0.4712  0.2721
  448TIP3    H2 1351   3.598   2.698   3.197  1.4167  0.1279  1.7291
  449TIP3   OH2 1352   3.272   5.916   0.601 -0.4325 -0.0175 -0.0407
  449TIP3    H1 1353   3.334   5.978   0.639 -0.4824  0.1314 -0.1971
  449TIP3    H2 1354   3.225   5.879   0.676 -0.3004  0.0245  0.0634
  450TIP3   OH2 1355   0.609   2.121   5.088 -0.5447 -0.2024  0.3669
  450TIP3    H1 1356   0.522   2.125   5.128 -0.7331  0.3669 -0.0823
  450TIP3    H2 1357   0.625   2.028   5.074 -1.2365 -0.2898  0.1348
  451TIP3   OH2 1358   2.467   0.750   4.522 -0.3628 -0.2017  0.0585
  451TIP3    H1 1359   2.497   0.728   4.610 -1.3735 -2.1129 -0.0416
  451TIP3    H2 1360   2.548   0.762   4.472  0.2260  0.9933  1.2179
  452TIP3   OH2 1361   1.094   1.129   4.620 -0.1874  0.0827 -0.0429
  452TIP3    H1 1362   1.037   1.091   4.554  1.6544  0.0004 -1.6693
  452TIP3    H2 1363   1.094   1.223   4.600  1.2508 -0.0802 -0.9230
  453TIP3   OH2 1364   3.381   0.478   0.893  0.1945  0.1900  0.2652
  453TIP3    H1 1365   3.408   0.394   0.856 -1.0900  0.1235 -0.5591
  453TIP3    H2 1366   3.310   0.508   0.837 -1.7013  0.2003  2.5107
  454TIP3   OH2 1367   2.628   5.108   1.253 -0.3859 -1.0536 -0.4092
  454TIP3    H1 1368   2.532   5.108   1.250 -0.3845 -2.0876 -0.6173
  454TIP3    H2 1369   2.655   5.116   1.162 -0.2751 -1.5445 -0.4193
  455TIP3   OH2 1370   5.921   1.098   4.560 -0.4483 -0.4894  0.7591
  455TIP3    H1 1371   5.971   1.171   4.597 -0.6381 -0.8642  1.7948
  455TIP3    H2 1372   5.848   1.140   4.513  0.5165  0.0374 -0.3097
  456TIP3   OH2 1373   2.142   1.686   0.312 -0.1878  0.2507 -0.0742
  456TIP3    H1 1374   2.073   1.748   0.288 -0.2632  0.1236 -0.1907
  456TIP3    H2 1375   2.223   1.728   0.283 -0.3472 -0.2795 -1.3609
  457TIP3   OH2 1376   3.865   4.917   3.681  0.5139 -0.5809  0.1529
  457TIP3    H1 1377   3.845   4.932   3.589 -2.9440 -0.6412  0.7621
  457TIP3    H2 1378   3.844   4.825   3.696 -1.2142 -0.0456  1.4026
  458TIP3   OH2 1379   0.253   1.404   5.139  0.2547  0.0252  0.3017
  458TIP3    H1 1380   0.201   1.377   5.215  0.1160  1.7878  0.8640
  458TIP3    H2 1381   0.344   1.392   5.168  0.2136  1.1332  0.9414
  459TIP3   OH2 1382   1.174   3.994   2.713 -0.0638  0.1860 -0.3175
  459TIP3    H1 1383   1.252   4.044   2.687 -0.9699  0.6488 -2.3341
  459TIP3    H2 1384   1.102   4.057   2.708 -0.4653  0.1179  2.8156
  460TIP3   OH2 1385   0.915   3.901   1.295 -0.5608 -0.1208 -0.4988
  460TIP3    H1 1386   0.910   3.832   1.361  0.4308 -0.4865 -0.7936
  460TIP3    H2 1387   0.894   3.857   1.212 -1.9743  0.3707 -0.4433
  461TIP3   OH2 1388   3.282   2.683   2.951 -0.0553  0.1429 -0.3447
  461TIP3    H1 1389   3.201   2.655   2.994  1.2276 -1.8292  0.9599
  461TIP3    H2 1390   3.313   2.756   3.004  0.2311 -0.6613  0.6217
  462TIP3   OH2 1391   1.142   0.115   2.671 -0.0892 -0.2596 -0.0827
  462TIP3    H1 1392   1.179   0.028   2.679 -1.2889 -1.0238 -2.0951
  462TIP3    H2 1393   1.049   0.104   2.692  0.0771  0.9531  1.5364
  463TIP3   OH2 1394   4.963   3.660   0.356 -0.4362 -0.0042  0.0140
  463TIP3    H1 1395   5.002   3.730   0.408  0.5236 -0.7580  0.3483
  463TIP3    H2 1396   4.939   3.702   0.273 -0.3234  0.8137  0.3881
  464TIP3   OH2 1397   4.451   0.255   1.095 -0.1200 -0.3181 -0.2351
  464TIP3    H1 1398   4.515   0.326   1.086 -0.4365 -0.1779 -1.6403
  464TIP3    H2 1399   4.464   0.201   1.017 -1.0304 -0.8542 -0.0339
  465TIP3   OH2 1400   1.583   0.218   2.667  0.6488 -0.4009 -0.1762
  465TIP3    H1 1401   1.559   0.150   2.730  0.2747 -1.7709 -1.7257
  465TIP3    H2 1402   1.664   0.188   2.628  1.5960  1.0995  0.5514
  466TIP3   OH2 1403   2.994   0.921   2.191  0.1019 -0.2965 -0.3506
  466TIP3    H1 1404   3.088   0.905   2.184  0.3838  0.6473  0.9934
  466TIP3    H2 1405   2.966   0.866   2.264 -0.4444 -0.7534 -0.8954
  467TIP3   OH2 1406   2.259   5.983   3.981 -0.2718  0.1328  0.1882
  467TIP3    H1 1407   2.166   5.986   4.003  0.1479  3.1836  2.1939
  467TIP3    H2 1408   2.262   5.952   3.891 -3.2609  0.3845 -0.0839
  468TIP3   OH2 1409   2.462   0.992   4.952 -0.0752  0.1856  0.2702
  468TIP3    H1 1410   2.502   0.942   5.023  0.3089  0.1802  0.0509
  468TIP3    H2 1411   2.471   1.084   4.978 -0.4099  0.1597  0.4777
  469TIP3   OH2 1412   1.659   4.143   1.108 -0.4910 -0.0715  0.4367
  469TIP3    H1 1413   1.650   4.128   1.202 -0.7479 -1.5290  0.2091
  469TIP3    H2 1414   1.574   4.175   1.081  0.7177  4.6441  1.3317
  470TIP3   OH2 1415   1.029   0.489   3.735 -0.5509 -0.4385 -0.3641
  470TIP3    H1 1416   0.939   0.503   3.705 -0.7662 -0.2181  0.3512
  470TIP3    H2 1417   1.036   0.543   3.814  0.8293  1.1457 -1.4906
  471TIP3   OH2 1418   2.562   3.038   0.271  0.1423  0.4230 -0.1199
  471TIP3    H1 1419   2.484   2.982   0.273  0.4413 -0.0195 -0.5679
  471TIP3    H2 1420   2.528   3.125   0.253 -0.2521  0.2299 -0.3263
  472TIP3   OH2 1421   4.679   2.415   0.826  0.0707  0.2963  0.2726
  472TIP3    H1 1422   4.764   2.457   0.819  0.1687 -0.0637 -0.7601
  472TIP3    H2 1423   4.660   2.415   0.920  1.2664  0.2364  0.5189
  473TIP3   OH2 1424   3.966   2.280   0.085  0.1780 -0.4588  0.4273
  473TIP3    H1 1425   4.038   2.338   0.059 -0.8626  1.0540  0.7754
  473TIP3    H2 1426   3.957   2.219   0.012  0.0773  1.0293 -0.8583
  474TIP3   OH2 1427   6.118   2.516   4.044 -0.3770  0.4013  0.1276
  474TIP3    H1 1428   6.165   2.467   4.112 -0.5471 -1.0388 -0.7476
  474TIP3    H2 1429   6.090   2.596   4.088 -1.4416 -0.9576  2.1072
  475TIP3   OH2 1430   3.895   4.562   0.952 -0.1671 -0.6932 -0.5001
  475TIP3    H1 1431   3.835   4.574   0.878 -1.3824 -2.0291  0.2384
  475TIP3    H2 1432   3.960   4.500   0.920 -0.9325 -1.5938 -0.3251
  476TIP3   OH2 1433   3.801   2.361   0.528 -0.3986 -0.1068  0.2576
  476TIP3    H1 1434   3.887   2.401   0.521 -0.4434 -0.0242  0.1804
  476TIP3    H2 1435   3.750   2.399   0.456 -0.7843  0.5597  0.8674
  477TIP3   OH2 1436   3.955   4.529   0.416 -0.1286  0.7834  0.4244
  477TIP3    H1 1437   3.958   4.525   0.320  0.3976 -0.0743  0.4657
  477TIP3    H2 1438   3.871   4.570   0.436 -0.9918 -0.5207 -0.3794
  478TIP3   OH2 1439   1.518   4.492   4.773 -0.0863  0.4972 -0.2358
  478TIP3    H1 1440   1.516   4.540   4.691 -0.3536  3.9665  1.5973
  478TIP3    H2 1441   1.437   4.441   4.773  0.1918 -0.0359 -2.2849
  479TIP3   OH2 1442   4.713   5.317   0.683  0.1211 -0.3836  0.4325
  479TIP3    H1 1443   4.751   5.245   0.733  0.8733 -1.1665 -1.2224
  479TIP3    H2 1444   4.620   5.315   0.705  0.3328 -1.1135  1.2886
  480TIP3   OH2 1445   6.041   4.020   1.611  0.2281 -0.2577 -0.4938
  480TIP3    H1 1446   6.111   3.976   1.564 -0.1068 -0.7004 -0.5799
  480TIP3    H2 1447   6.026   4.101   1.562 -0.6036 -1.0398 -1.5729
  481TIP3   OH2 1448   5.672   2.780   2.080  0.1469 -0.2346 -0.4096
  481TIP3    H1 1449   5.682   2.739   2.165  1.6184  0.6884 -0.1041
  481TIP3    H2 1450   5.747   2.750   2.029  1.1996  1.8748 -0.2199
  482TIP3   OH2 1451   1.325   0.733   4.905 -0.3060  0.3347 -0.7426
  482TIP3    H1 1452   1.252   0.713   4.963 -0.2650 -0.3310 -0.9054
  482TIP3    H2 1453   1.350   0.823   4.926  0.2205 -0.1482  0.8252
  483TIP3   OH2 1454   3.151   1.089   1.065  0.3093 -0.0448 -0.3594
  483TIP3    H1 1455   3.155   1.084   1.161 -2.1142 -0.9218 -0.2404
  483TIP3    H2 1456   3.233   1.131   1.040  0.3982  1.5102  2.1862
  484TIP3   OH2 1457   5.870   0.375   0.671  0.0839  0.0053  0.3458
  484TIP3    H1 1458   5.832   0.307   0.616  1.3190 -0.0261 -0.4936
  484TIP3    H2 1459   5.857   0.456   0.621  2.2680 -0.1729 -0.6061
  485TIP3   OH2 1460   0.973   2.018   1.524  0.7362 -0.1597 -0.1017
  485TIP3    H1 1461   1.019   2.010   1.441 -0.2793 -0.8180 -0.6351
  485TIP3    H2 1462   0.904   1.951   1.519  0.2806  0.2000  1.0176
  486TIP3   OH2 1463   0.740   5.920   2.794  0.3271 -0.2203 -0.0269
  486TIP3    H1 1464   0.682   5.910   2.719 -0.6465 -1.5988  0.8696
  486TIP3    H2 1465   0.805   5.850   2.784  0.5000 -0.0868  0.1508
  487TIP3   OH2 1466   1.984   5.492   0.988  0.3020 -0.2458  0.2654
  487TIP3    H1 1467   1.991   5.510   0.894  1.4489  0.0644  0.4000
  487TIP3    H2 1468   1.933   5.411   0.993 -1.4764  0.7644 -0.5264
  488TIP3   OH2 1469   0.235   0.824   1.061  0.4716 -0.0009 -0.4622
  488TIP3    H1 1470   0.232   0.760   0.990  3.7949 -0.1305 -0.6711
  488TIP3    H2 1471   0.244   0.771   1.141  1.3167  0.1684 -0.4394
  489TIP3   OH2 1472   5.281   0.186   3.893  0.2154 -0.1941  0.2818
  489TIP3    H1 1473   5.358   0.152   3.937  0.5045  0.0548 -0.0216
  489TIP3    H2 1474   5.315   0.250   3.831 -0.1562 -0.7111 -0.4770
  490TIP3   OH2 1475   3.153   3.262   3.549  0.2934  0.1373  0.4903
  490TIP3    H1 1476   3.078   3.266   3.490 -2.1265 -0.4100  3.2815
  490TIP3    H2 1477   3.217   3.321   3.510 -1.9391  1.4080 -1.5531
  491TIP3   OH2 1478   4.506   3.623   2.662  0.3422  0.3138 -0.3517
  491TIP3    H1 1479   4.475   3.605   2.573 -0.5679  0.0563  0.0043
  491TIP3    H2 1480   4.507   3.719   2.667 -0.3528  0.3286 -0.3946
  492TIP3   OH2 1481   5.084   3.040   4.542  0.2154 -0.5691  0.0987
  492TIP3    H1 1482   5.140   3.107   4.503  0.1876 -1.0989 -0.9013
  492TIP3    H2 1483   5.044   2.996   4.467  2.2050 -3.3871  0.5284
  493TIP3   OH2 1484   6.130   0.698   2.663  0.5686  0.2639 -0.2635
  493TIP3    H1 1485   6.051   0.752   2.658 -1.0118 -2.0247 -2.4010
  493TIP3    H2 1486   6.145   0.685   2.756 -1.3336  1.0780  0.1982
  494TIP3   OH2 1487   5.876   0.514   3.836 -0.4800 -0.2155 -0.1901
  494TIP3    H1 1488   5.912   0.473   3.757 -1.3990 -1.8227  0.1727
  494TIP3    H2 1489   5.952   0.550   3.881  0.3003 -0.9070 -0.8958
  495TIP3   OH2 1490   5.554   4.933   4.021  0.3266  0.3090 -0.0338
  495TIP3    H1 1491   5.601   4.996   3.967  1.2183  1.2463  1.7544
  495TIP3    H2 1492   5.622   4.883   4.065 -0.2518  1.6330  2.5519
  496TIP3   OH2 1493   3.422   0.359   0.398 -0.1648  0.4423 -0.0730
  496TIP3    H1 1494   3.377   0.442   0.385 -0.2188  0.6084  1.0320
  496TIP3    H2 1495   3.501   0.382   0.446  1.6330  0.2699 -2.7577
  497TIP3   OH2 1496   0.998   5.391   5.056  1.0129  0.0913 -0.1589
  497TIP3    H1 1497   0.999   5.316   5.117 -1.8639  0.7056  0.7645
  497TIP3    H2 1498   1.090   5.418   5.051  1.9057 -2.4749  0.7408
  498TIP3   OH2 1499   0.784   3.448   2.066  0.6834  0.2371 -0.4296
  498TIP3    H1 1500   0.815   3.517   2.124  1.9503 -1.6983  1.3512
  498TIP3    H2 1501   0.733   3.390   2.123 -0.9137 -0.0087 -2.0135
  499TIP3   OH2 1502   1.344   5.490   1.147  0.0242  0.5726  0.4373
  499TIP3    H1 1503   1.326   5.584   1.145 -0.3696  0.4766 -1.1400
  499TIP3    H2 1504   1.440   5.485   1.148  0.1014  0.9832  3.0197
  500TIP3   OH2 1505   6.186   5.667   4.562  0.1233  0.3057  0.1191
  500TIP3    H1 1506   6.191   5.687   4.655 -0.2059 -1.4305  0.5480
  500TIP3    H2 1507   6.111   5.607   4.554  1.3944 -1.2335 -0.9208
  501TIP3   OH2 1508   4.989   1.074   2.456 -0.1117 -0.0526 -0.1795
  501TIP3    H1 1509   4.968   0.999   2.512 -0.0322 -0.7306 -1.0509
  501TIP3    H2 1510   5.054   1.041   2.395  0.6056  0.9787 -0.0042
  502TIP3   OH2 1511   0.890   4.277   4.019  0.1781 -0.0579  0.0880
  502TIP3    H1 1512   0.916   4.201   4.070 -1.3416  0.4759  1.7627
  502TIP3    H2 1513   0.964   4.338   4.025  0.5811 -0.5822  0.4504
  503TIP3   OH2 1514   1.533   1.838   3.629  0.4227  0.6029 -0.0984
  503TIP3    H1 1515   1.613   1.787   3.619  0.7802  1.3141 -1.0742
  503TIP3    H2 1516   1.478   1.812   3.555 -0.4369 -0.1792  0.7884
  504TIP3   OH2 1517   5.539   5.656   1.744 -0.3074  0.2292 -0.2920
  504TIP3    H1 1518   5.475   5.695   1.684 -1.6625  0.7349  1.4094
  504TIP3    H2 1519   5.621   5.701   1.724 -0.1844 -0.9971 -3.0883
  505TIP3   OH2 1520   3.339   3.715   1.663 -0.3653  0.0941 -0.1079
  505TIP3    H1 1521   3.281   3.769   1.716  0.6933  0.1841  0.9880
  505TIP3    H2 1522   3.399   3.777   1.622 -1.0339  0.0059 -1.2805
  506TIP3   OH2 1523   0.917   5.558   3.993  0.6517  0.0977  0.0898
  506TIP3    H1 1524   0.864   5.576   3.915  0.1094  0.3563  0.5171
  506TIP3    H2 1525   1.003   5.594   3.972  0.6811 -0.3628 -0.6248
  507TIP3   OH2 1526   4.673   2.573   1.622 -0.1965 -0.0801  0.4832
  507TIP3    H1 1527   4.656   2.480   1.638 -0.4710 -0.3132 -1.0398
  507TIP3    H2 1528   4.745   2.574   1.559 -0.2373  0.7450  0.4395
  508TIP3   OH2 1529   3.445   3.635   0.372 -0.5994  0.4555  0.1861
  508TIP3    H1 1530   3.380   3.591   0.427 -0.9206  0.0596 -0.4955
  508TIP3    H2 1531   3.529   3.615   0.413 -0.7739 -0.4627  0.1083
  509TIP3   OH2 1532   2.748   4.131   3.908 -0.6140 -0.5340  0.5099
  509TIP3    H1 1533   2.690   4.204   3.929  1.1178  0.8317  0.7854
  509TIP3    H2 1534   2.711   4.056   3.955 -0.9128  0.7822  2.4828
  510TIP3   OH2 1535   1.639   5.639   5.143  0.4775  0.5051  0.3399
  510TIP3    H1 1536   1.698   5.650   5.218  0.9543  0.8571 -0.0862
  510TIP3    H2 1537   1.628   5.727   5.108 -0.0908  0.4010  0.2550
  511TIP3   OH2 1538   2.029   5.014   4.454 -0.1971 -0.2707 -0.6684
  511TIP3    H1 1539   2.042   5.085   4.390  0.8165  1.5393  1.4275
  511TIP3    H2 1540   2.087   4.944   4.424  1.8605  1.3376 -0.6569
  512TIP3   OH2 1541   0.952   3.895   0.348 -0.6470  0.1544  0.7860
  512TIP3    H1 1542   0.972   3.869   0.258  1.7463  0.2130  1.2443
  512TIP3    H2 1543   0.949   3.991   0.345 -0.1021  0.1770  0.8363
  513TIP3   OH2 1544   3.116   5.089   2.525 -0.0195  0.0117  0.0810
  513TIP3    H1 1545   3.155   5.101   2.439 -0.3417  1.3118  0.0929
  513TIP3    H2 1546   3.127   5.173   2.569 -3.2814  0.7004 -0.1274
  514TIP3   OH2 1547   1.152   2.878   1.383  0.1089 -0.3541 -0.3118
  514TIP3    H1 1548   1.146   2.876   1.479  0.8919 -1.2798 -0.2725
  514TIP3    H2 1549   1.212   2.807   1.361 -0.9804 -0.9292 -1.5641
  515TIP3   OH2 1550   5.551   2.232   2.771 -0.3696 -0.0827  0.2630
  515TIP3    H1 1551   5.603   2.298   2.726 -0.0433 -0.3490  0.2494
  515TIP3    H2 1552   5.612   2.191   2.832 -0.7746  0.1840  0.8546
  516TIP3   OH2 1553   6.232   3.406   0.498  0.0730 -0.0941  0.0101
  516TIP3    H1 1554   6.228   3.463   0.421 -1.3668 -0.0635  0.0853
  516TIP3    H2 1555   6.252   3.465   0.571 -2.7639  0.6358  0.3191
  517TIP3   OH2 1556   2.283   5.452   2.020 -0.0378  0.0931  0.3978
  517TIP3    H1 1557   2.280   5.360   1.992 -1.3080 -0.1207  1.1868
  517TIP3    H2 1558   2.196   5.470   2.054  0.9243  0.8541  2.6392
  518TIP3   OH2 1559   2.249   0.930   2.592  0.1185 -0.4216  0.4171
  518TIP3    H1 1560   2.241   0.838   2.565 -0.2217 -0.4668  0.6638
  518TIP3    H2 1561   2.292   0.926   2.678  0.7415 -0.3076  0.1122
  519TIP3   OH2 1562   0.021   2.312   2.769  0.1111  0.1924 -0.2174
  519TIP3    H1 1563   0.101   2.357   2.797  0.0553  0.4733 -0.4987
  519TIP3    H2 1564   0.044   2.272   2.685  1.1907 -3.1485  1.5320
  520TIP3   OH2 1565   1.817   4.518   3.016 -0.3184  0.0384 -0.3310
  520TIP3    H1 1566   1.756   4.450   2.989 -0.9143  0.1222  0.7650
  520TIP3    H2 1567   1.885   4.472   3.065 -0.4211  0.1596 -0.0719
  521TIP3   OH2 1568   3.915   4.901   4.794  0.3035 -0.2585 -0.6182
  521TIP3    H1 1569   3.887   4.991   4.776 -0.1221 -0.2846 -0.0842
  521TIP3    H2 1570   3.979   4.882   4.725  1.0560  0.7590 -0.2185
  522TIP3   OH2 1571   1.929   4.601   2.599  0.1518 -0.2676 -0.0771
  522TIP3    H1 1572   1.844   4.637   2.625 -0.2368 -1.0463 -0.2229
  522TIP3    H2 1573   1.912   4.558   2.515  0.3214 -1.7293  0.6076
  523TIP3   OH2 1574   2.104   5.825   2.488 -0.1741 -0.2057  0.4482
  523TIP3    H1 1575   2.139   5.785   2.409  1.6205  2.6190 -0.3246
  523TIP3    H2 1576   2.139   5.773   2.560 -0.1754 -1.5912 -0.5284
  524TIP3   OH2 1577   4.852   5.265   1.668 -0.7016  0.1180 -0.7666
  524TIP3    H1 1578   4.831   5.355   1.691  1.4270  0.8130 -1.2865
  524TIP3    H2 1579   4.870   5.267   1.574 -1.8823 -1.1246 -1.0420
  525TIP3   OH2 1580   3.158   4.040   2.575  0.1173  0.3892  0.2644
  525TIP3    H1 1581   3.143   4.049   2.481 -0.2010  0.4279  0.3154
  525TIP3    H2 1582   3.099   4.104   2.615 -1.6101 -1.3091  0.6105
  526TIP3   OH2 1583   0.821   0.438   3.428 -0.4906 -0.0016 -0.1869
  526TIP3    H1 1584   0.769   0.481   3.359 -0.5652  0.2665  0.0347
  526TIP3    H2 1585   0.806   0.345   3.415 -0.9927  0.0714 -0.1535
  527TIP3   OH2 1586   5.200   4.996   4.977  0.1240 -0.2753  0.3633
  527TIP3    H1 1587   5.225   5.056   5.047 -0.5356 -0.0301  0.3958
  527TIP3    H2 1588   5.174   4.916   5.023 -1.2196  0.1985  0.4838
  528TIP3   OH2 1589   2.391   1.700   2.113 -0.0797 -0.5883  0.4873
  528TIP3    H1 1590   2.411   1.607   2.122  0.3296 -1.0363 -3.4521
  528TIP3    H2 1591   2.465   1.744   2.153  1.0790 -2.0337  0.0190
  529TIP3   OH2 1592   0.156   4.915   1.815  0.4339 -0.3922 -0.1499
  529TIP3    H1 1593   0.205   4.977   1.868  0.5849  0.0823 -0.8256
  529TIP3    H2 1594   0.148   4.837   1.870  0.8772 -0.0366  0.4295
  530TIP3   OH2 1595   5.516   3.152   0.719 -0.1811  0.1742 -0.4518
  530TIP3    H1 1596   5.596   3.180   0.763 -0.7642 -0.9466  1.4075
  530TIP3    H2 1597   5.508   3.213   0.645  2.5250  0.1261 -0.9135
  531TIP3   OH2 1598   5.007  -0.005   5.069  0.9788 -0.0964  0.2583
  531TIP3    H1 1599   4.929   0.039   5.103 -0.2556 -0.3871 -2.0040
  531TIP3    H2 1600   5.081   0.040   5.111 -0.3639  0.1742  2.4754
  532TIP3   OH2 1601   6.150   4.860   3.758 -0.3465 -0.0665  0.2874
  532TIP3    H1 1602   6.145   4.935   3.699 -1.4771 -0.5729 -0.2877
  532TIP3    H2 1603   6.207   4.798   3.713  0.3355  0.2965  0.6221
  533TIP3   OH2 1604   5.119   0.615   2.338 -0.2773  0.0411  0.5981
  533TIP3    H1 1605   5.150   0.527   2.360  0.4059 -0.8743 -3.3683
  533TIP3    H2 1606   5.188   0.673   2.372 -0.1921 -0.9627  2.2838
  534TIP3   OH2 1607   2.074   0.877   1.339 -0.0369 -0.3416 -0.1032
  534TIP3    H1 1608   2.158   0.848   1.305 -0.1938 -1.5876  0.5265
  534TIP3    H2 1609   2.070   0.843   1.428 -0.1532  1.8310  0.7943
  535TIP3   OH2 1610   5.742   1.799   4.198 -0.1566 -0.4307 -0.0447
  535TIP3    H1 1611   5.808   1.747   4.243 -0.2416 -1.6495 -1.2414
  535TIP3    H2 1612   5.714   1.743   4.125 -0.9813  0.9138 -0.7983
  536TIP3   OH2 1613   1.110   5.368   3.909 -0.0878  0.1726  0.0594
  536TIP3    H1 1614   1.026   5.406   3.936 -0.6069 -0.8196 -0.1136
  536TIP3    H2 1615   1.116   5.285   3.957  1.2438  0.6554  0.7987
  537TIP3   OH2 1616   5.778   0.304   1.594 -0.0402  0.3427 -0.0389
  537TIP3    H1 1617   5.814   0.363   1.528  1.2809 -1.8136 -1.3779
  537TIP3    H2 1618   5.839   0.310   1.668  0.1577  0.5529 -0.2178
  538TIP3   OH2 1619   1.312   1.018   0.812 -0.2357  0.0338  0.6243
  538TIP3    H1 1620   1.296   1.068   0.892 -1.3951 -1.4191  1.3592
  538TIP3    H2 1621   1.226   0.983   0.788  0.4136 -1.0528 -0.2190
  539TIP3   OH2 1622   4.463   1.706   1.910 -0.3521  0.3894  0.4704
  539TIP3    H1 1623   4.444   1.613   1.923 -1.1808  0.3467 -0.8117
  539TIP3    H2 1624   4.474   1.741   1.998 -0.3451 -0.8596  0.9876
  540TIP3   OH2 1625   1.733   3.877   1.887 -0.2040 -0.3638  0.2960
  540TIP3    H1 1626   1.684   3.797   1.906 -3.5166  1.3802 -0.0249
  540TIP3    H2 1627   1.773   3.902   1.970  1.7217 -2.7157  0.2012
  541TIP3   OH2 1628   3.282   2.393   2.910 -1.0268  0.3661 -0.0642
  541TIP3    H1 1629   3.266   2.379   3.003 -0.0145  0.9212  0.2061
  541TIP3    H2 1630   3.305   2.485   2.902  0.9316 -0.1006 -0.5287
  542TIP3   OH2 1631   5.143   5.363   1.848  0.3632 -0.6451 -0.5113
  542TIP3    H1 1632   5.229   5.400   1.866  0.6092 -1.5362  0.2331
  542TIP3    H2 1633   5.113   5.409   1.769  1.7638 -0.7344 -1.1275
  543TIP3   OH2 1634   6.285   0.272   4.533  0.3194 -0.3576  0.0418
  543TIP3    H1 1635   6.366   0.221   4.521  0.9394  0.5592  0.2276
  543TIP3    H2 1636   6.256   0.247   4.621  0.8491 -0.0889  0.3018
  544TIP3   OH2 1637   6.047   5.667   0.675 -0.2872  0.0429 -0.6199
  544TIP3    H1 1638   6.075   5.680   0.766  1.4640 -0.5245 -1.0421
  544TIP3    H2 1639   5.990   5.743   0.657 -0.5912  0.2114  0.8992
  545TIP3   OH2 1640   4.326   3.458   4.383  0.4165  0.6249  0.3111
  545TIP3    H1 1641   4.231   3.442   4.382  0.7498 -1.7315  0.1036
  545TIP3    H2 1642   4.343   3.509   4.304 -0.6324  0.8407  0.2117
  546TIP3   OH2 1643   4.683   5.074   1.340 -0.8964 -0.1082 -0.0999
  546TIP3    H1 1644   4.733   5.151   1.367 -0.5561 -0.9460  1.8283
  546TIP3    H2 1645   4.745   5.019   1.294 -0.6774 -0.0454  0.1215
  547TIP3   OH2 1646   5.776   3.485   3.989  0.4509 -0.3758  0.0300
  547TIP3    H1 1647   5.824   3.414   3.946 -2.6189 -2.2031 -0.6567
  547TIP3    H2 1648   5.734   3.533   3.918  0.7211  0.8188  0.6405
  548TIP3   OH2 1649   6.179   1.020   4.886  0.3279 -0.2497 -0.1306
  548TIP3    H1 1650   6.192   1.038   4.979  0.8584 -1.0202 -0.0494
  548TIP3    H2 1651   6.091   1.052   4.867  0.0456 -0.4998  0.7347
  549TIP3   OH2 1652   0.170   1.648   2.843 -0.3425  0.2704  0.2683
  549TIP3    H1 1653   0.256   1.649   2.885  0.0578  1.2653 -0.5222
  549TIP3    H2 1654   0.169   1.727   2.789 -0.1072 -1.7954 -3.0491
  550TIP3   OH2 1655   6.005   0.002   4.953 -0.2822  0.0323 -0.3726
  550TIP3    H1 1656   6.009   0.014   4.858  0.6032 -0.5246 -0.4190
  550TIP3    H2 1657   6.097  -0.004   4.980 -0.5570 -1.3221  0.3117
  551TIP3   OH2 1658   6.171   2.299   4.753  0.0309  0.6967  0.2541
  551TIP3    H1 1659   6.114   2.367   4.716 -1.1871 -0.7851 -0.7046
  551TIP3    H2 1660   6.161   2.225   4.694  2.4244  0.1047  0.4902
  552TIP3   OH2 1661   0.142   1.816   2.441  0.1545 -0.0770 -0.0065
  552TIP3    H1 1662   0.063   1.831   2.492  0.1978 -0.2572  0.1123
  552TIP3    H2 1663   0.166   1.725   2.459  0.5505  0.0654  0.1884
  553TIP3   OH2 1664   6.181   3.712   4.178  0.2861  0.2630 -0.6432
  553TIP3    H1 1665   6.254   3.774   4.177  0.2548  0.2964 -1.3097
  553TIP3    H2 1666   6.191   3.665   4.261 -0.9394  2.6018  0.9320
  554TIP3   OH2 1667   5.525   0.179   1.882  0.1552  0.4904 -1.1556
  554TIP3    H1 1668   5.517   0.222   1.797 -0.7991 -0.4297 -1.5456
  554TIP3    H2 1669   5.467   0.103   1.876 -0.0697  0.5184  0.3888
  555TIP3   OH2 1670   4.416   3.197   3.907 -0.7632 -0.1260  0.0520
  555TIP3    H1 1671   4.328   3.220   3.878 -1.2368 -2.4410 -0.5735
  555TIP3    H2 1672   4.402   3.135   3.980  0.3874  0.9822  1.2799
  556TIP3   OH2 1673   1.199   2.818   0.934 -0.1273 -0.1868 -0.1995
  556TIP3    H1 1674   1.271   2.822   0.997  0.6967 -0.8299 -1.0697
  556TIP3    H2 1675   1.219   2.742   0.879 -0.0719  1.1402 -2.1050
  557TIP3   OH2 1676   4.235   3.561   3.703 -0.3242  0.4253 -0.5186
  557TIP3    H1 1677   4.224   3.471   3.732 -0.1768  0.5255 -0.1504
  557TIP3    H2 1678   4.311   3.559   3.645 -0.7785  0.1763 -1.1210
  558TIP3   OH2 1679   2.205   1.900   2.105  0.3931 -0.1270  0.4980
  558TIP3    H1 1680   2.246   1.986   2.094 -0.2213  0.1774  0.5127
  558TIP3    H2 1681   2.276   1.838   2.092  0.8435  0.3824  0.4587
  559TIP3   OH2 1682   3.846   5.540   3.151  0.3111  0.0260 -0.3783
  559TIP3    H1 1683   3.768   5.594   3.140  0.0957  0.2026  1.5522
  559TIP3    H2 1684   3.901   5.560   3.076 -1.2969  0.2289 -1.5586
  560TIP3   OH2 1685   4.479   0.846   0.961 -0.1634  0.0203 -0.0513
  560TIP3    H1 1686   4.546   0.889   0.907  1.1277  0.3121  1.6831
  560TIP3    H2 1687   4.399   0.850   0.908  0.3063  2.9163 -0.7312
  561TIP3   OH2 1688   3.270   5.234   4.040  0.0040  0.3409 -0.3053
  561TIP3    H1 1689   3.282   5.155   4.093 -1.1516 -0.2021 -0.8035
  561TIP3    H2 1690   3.327   5.221   3.964  1.1017  0.7839  0.4156
  562TIP3   OH2 1691   3.347   1.665   1.925  0.0614 -0.0514 -0.5250
  562TIP3    H1 1692   3.326   1.589   1.871  0.6733  0.0006 -0.8453
  562TIP3    H2 1693   3.265   1.687   1.969 -0.6544  0.3752 -2.0001
  563TIP3   OH2 1694   1.769   3.762   3.990  0.0635 -0.5166  0.4185
  563TIP3    H1 1695   1.785   3.741   4.082  1.8846  0.4512  0.3634
  563TIP3    H2 1696   1.827   3.702   3.942  0.9278  0.5898  0.0335
  564TIP3   OH2 1697   0.242   3.107   1.398 -0.2835 -0.6024 -0.3970
  564TIP3    H1 1698   0.162   3.154   1.379  0.8034  0.8383 -1.6376
  564TIP3    H2 1699   0.226   3.018   1.367 -1.9202 -0.7747  0.8143
  565TIP3   OH2 1700   0.905   4.840   3.217 -0.5215 -0.1379  0.7577
  565TIP3    H1 1701   0.945   4.875   3.137 -1.3912  1.4029  0.9659
  565TIP3    H2 1702   0.883   4.749   3.195  0.8019 -0.2655 -0.1709
  566TIP3   OH2 1703   2.368   2.860   3.916  0.1222  0.0022 -0.5752
  566TIP3    H1 1704   2.413   2.935   3.878  2.3884  0.1328  2.0033
  566TIP3    H2 1705   2.305   2.898   3.977  0.6580 -0.1491  0.0878
  567TIP3   OH2 1706   1.377   2.891   3.524 -0.2453  0.0634 -0.2306
  567TIP3    H1 1707   1.438   2.874   3.451  2.2306 -0.1829  1.7601
  567TIP3    H2 1708   1.384   2.985   3.540 -0.4894  0.0533 -0.0584
  568TIP3   OH2 1709   3.730   4.180   4.304  0.8640 -0.1473 -0.1731
  568TIP3    H1 1710   3.768   4.228   4.377 -0.8456  1.0950 -0.0329
  568TIP3    H2 1711   3.635   4.188   4.317  0.5219 -0.5359 -2.1076
  569TIP3   OH2 1712   4.828   1.238   0.901 -0.2137 -0.0864 -0.4414
  569TIP3    H1 1713   4.828   1.214   0.808 -1.7604 -1.4416 -0.1247
  569TIP3    H2 1714   4.904   1.192   0.937  1.5885  1.9719 -1.3190
  570TIP3   OH2 1715   1.031   4.417   0.641  0.1783  0.2923 -0.2838
  570TIP3    H1 1716   1.108   4.473   0.643  2.2200 -2.3389 -0.8562
  570TIP3    H2 1717   1.034   4.369   0.724  0.0525 -0.9334 -0.9742
  571TIP3   OH2 1718   4.911   5.441   1.951  0.4146 -0.0148  0.2102
  571TIP3    H1 1719   4.993   5.401   1.924  0.5849  0.9145 -0.7152
  571TIP3    H2 1720   4.906   5.523   1.901 -0.7779  0.2421  0.7031
  572TIP3   OH2 1721   1.827   3.855   2.608 -0.2446 -0.3221  0.3637
  572TIP3    H1 1722   1.797   3.931   2.658  0.5362  1.7003 -2.0583
  572TIP3    H2 1723   1.775   3.857   2.528  1.5394 -0.7938 -0.8677
  573TIP3   OH2 1724   3.887   0.062   0.740  0.4529  0.3186 -0.0902
  573TIP3    H1 1725   3.911   0.002   0.669 -1.2592  1.1963 -1.4789
  573TIP3    H2 1726   3.796   0.039   0.761 -0.3281  2.5196 -0.8164
  574TIP3   OH2 1727   4.712   2.986   2.670  0.0380 -0.4115 -0.6133
  574TIP3    H1 1728   4.703   2.976   2.575 -1.6646 -1.4953 -0.3864
  574TIP3    H2 1729   4.753   2.905   2.699  1.8056  0.4692 -0.5290
  575TIP3   OH2 1730   2.547   1.280   0.974  0.4546  0.3355  0.1125
  575TIP3    H1 1731   2.568   1.246   0.887 -0.9603 -0.2075 -0.0542
  575TIP3    H2 1732   2.457   1.313   0.965  0.7980  1.5762  1.0092
  576TIP3   OH2 1733   0.614   2.585   1.636 -0.0879  0.2259  0.4187
  576TIP3    H1 1734   0.543   2.581   1.572  0.5468 -1.9814 -0.2436
  576TIP3    H2 1735   0.674   2.652   1.601 -0.3085 -0.1410 -0.7117
  577TIP3   OH2 1736   5.098   0.861   3.590  0.4775 -0.2332  0.4230
  577TIP3    H1 1737   5.051   0.799   3.535  0.3118  0.8320 -0.6686
  577TIP3    H2 1738   5.187   0.862   3.555  0.5403 -0.0137  0.5854
  578TIP3   OH2 1739   0.342   0.320   4.701 -0.4170  0.0950  0.0546
  578TIP3    H1 1740   0.387   0.274   4.772  1.5965  0.3836 -0.9620
  578TIP3    H2 1741   0.270   0.261   4.677  0.9637 -1.6875  0.0342
  579TIP3   OH2 1742   2.594   1.915   5.096 -0.0317 -0.6274 -0.1411
  579TIP3    H1 1743   2.628   1.856   5.162  1.7073  2.2193  1.7053
  579TIP3    H2 1744   2.501   1.890   5.087  0.5082 -3.2690  0.7700
  580TIP3   OH2 1745   5.105   0.782   1.090 -0.0662 -0.4676 -0.3480
  580TIP3    H1 1746   5.099   0.757   1.182  1.3089  2.2028  0.5632
  580TIP3    H2 1747   5.014   0.791   1.061 -0.5169 -1.5332  0.6634
  581TIP3   OH2 1748   2.065   2.224   0.566  0.3903 -0.2001  0.0513
  581TIP3    H1 1749   2.064   2.133   0.535  0.8985 -0.2563  0.1767
  581TIP3    H2 1750   2.137   2.265   0.518 -0.3598  0.3651 -0.6148
  582TIP3   OH2 1751   3.818   0.482   0.168 -0.2104 -0.0725  0.3526
  582TIP3    H1 1752   3.757   0.416   0.138 -0.9576  0.4106  0.7808
  582TIP3    H2 1753   3.904   0.450   0.141 -0.6238 -0.8971  0.0017
  583TIP3   OH2 1754   5.035   4.768   0.451  0.6090  0.1313  0.1770
  583TIP3    H1 1755   5.036   4.690   0.508  1.8581  0.6060  0.8590
  583TIP3    H2 1756   5.016   4.734   0.364 -3.0740 -0.4548  1.0302
  584TIP3   OH2 1757   5.069   0.654   0.521  0.5533 -0.4498  0.1047
  584TIP3    H1 1758   5.060   0.719   0.451 -3.2143  0.9676  1.6196
  584TIP3    H2 1759   5.088   0.572   0.476  1.3027  0.9126 -2.2472
  585TIP3   OH2 1760   1.834   5.761   2.251  0.0088 -0.3750 -0.0897
  585TIP3    H1 1761   1.742   5.753   2.279  0.0584 -1.1010 -0.1114
  585TIP3    H2 1762   1.845   5.854   2.231  0.5090  0.6468  4.1303
  586TIP3   OH2 1763   5.648   1.331   0.371  0.1818 -0.0762  0.8451
  586TIP3    H1 1764   5.665   1.415   0.328  0.2587 -0.2305  0.5755
  586TIP3    H2 1765   5.595   1.282   0.308  1.1316 -0.6902  0.5070
  587TIP3   OH2 1766   2.824   4.192   0.474 -0.3826 -0.1209  0.2947
  587TIP3    H1 1767   2.776   4.269   0.444 -0.1350 -0.8046 -2.0768
  587TIP3    H2 1768   2.833   4.204   0.569 -1.3004  2.1937  0.1438
  588TIP3   OH2 1769   4.490   1.620   0.392  0.3693  0.0002  0.3076
  588TIP3    H1 1770   4.519   1.655   0.307 -0.7455  2.6555  0.9333
  588TIP3    H2 1771   4.567   1.628   0.449  0.4489  0.3736  0.1475
  589TIP3   OH2 1772   1.280   2.818   2.197 -0.1909 -0.1805  0.6594
  589TIP3    H1 1773   1.197   2.863   2.211 -0.4715 -0.8707  1.2452
  589TIP3    H2 1774   1.339   2.855   2.262 -0.3574 -0.4983  0.9904
  590TIP3   OH2 1775   0.969   1.828   0.404 -0.2725 -0.2470 -0.1061
  590TIP3    H1 1776   1.022   1.908   0.398  1.0533 -0.9190  1.8297
  590TIP3    H2 1777   1.019   1.762   0.357  0.0486 -0.6024  0.7217
  591TIP3   OH2 1778   0.686   4.037   2.944  0.3983  0.1411  0.4257
  591TIP3    H1 1779   0.647   3.963   2.898  0.3296  0.0872  0.5682
  591TIP3    H2 1780   0.767   4.002   2.982 -0.6814 -0.4470  2.2832
  592TIP3   OH2 1781   0.215   0.914   3.254 -0.9516  0.2990  0.3636
  592TIP3    H1 1782   0.225   0.888   3.163 -0.6792 -1.1599  0.7805
  592TIP3    H2 1783   0.213   1.010   3.252  0.4601  0.3441 -1.0327
  593TIP3   OH2 1784   0.784   5.464   0.271 -0.1977 -0.2132  0.5166
  593TIP3    H1 1785   0.767   5.558   0.271 -1.2505 -0.3913  0.2974
  593TIP3    H2 1786   0.698   5.424   0.262  0.2843 -1.1936  0.1235
  594TIP3   OH2 1787   1.066   4.872   2.728  0.2759 -0.0575 -0.0045
  594TIP3    H1 1788   1.037   4.951   2.684  0.6653  0.6911  1.0468
  594TIP3    H2 1789   0.989   4.814   2.727 -0.8709  1.3364  1.4621
  595TIP3   OH2 1790   4.842   0.115   3.335  0.6492 -0.1389 -0.5693
  595TIP3    H1 1791   4.757   0.119   3.291  1.0387 -0.0702 -1.3349
  595TIP3    H2 1792   4.846   0.195   3.387 -0.8139 -1.3256  1.4970
  596TIP3   OH2 1793   4.169   1.176   2.249  0.2490 -0.2482  0.2030
  596TIP3    H1 1794   4.190   1.082   2.242  0.4737 -0.1116 -1.4928
  596TIP3    H2 1795   4.249   1.221   2.222  0.2953  0.4730  1.4588
  597TIP3   OH2 1796   4.944   2.713   4.976  0.3878 -0.2766  0.0768
  597TIP3    H1 1797   5.033   2.746   4.993  0.8402 -0.6915 -1.3893
  597TIP3    H2 1798   4.887   2.778   5.018  1.3442  0.7900 -0.2172
  598TIP3   OH2 1799   1.259   3.722   4.444 -0.1962 -0.2340  0.0457
  598TIP3    H1 1800   1.283   3.768   4.364  1.2315 -0.4294  0.3404
  598TIP3    H2 1801   1.171   3.687   4.426 -0.3877  0.7051 -0.9862
  599TIP3   OH2 1802   1.608   5.681   4.655 -0.3362  0.0245  0.3765
  599TIP3    H1 1803   1.594   5.586   4.657 -0.8524  0.0818 -0.2389
  599TIP3    H2 1804   1.563   5.710   4.576 -0.6807  0.8599  0.8692
  600TIP3   OH2 1805   3.848   4.822   0.239 -0.0118  0.3041  0.1785
  600TIP3    H1 1806   3.772   4.792   0.189 -0.4392  0.0578  0.9429
  600TIP3    H2 1807   3.811   4.883   0.303  0.4452  0.2475  0.5008
  601TIP3   OH2 1808   4.435   4.374   2.268  0.6805  0.3655  0.8180
  601TIP3    H1 1809   4.402   4.284   2.270  1.3473  0.1207  1.1910
  601TIP3    H2 1810   4.466   4.385   2.178  1.5557 -0.1443  1.0460
  602TIP3   OH2 1811   0.564   0.843   4.087 -0.1887 -0.5026 -0.2794
  602TIP3    H1 1812   0.491   0.785   4.112 -0.6736  0.4759  0.6613
  602TIP3    H2 1813   0.560   0.914   4.151  2.5175 -1.1660  0.7363
  603TIP3   OH2 1814   2.701   3.577   4.863  0.5535 -0.3486  0.5459
  603TIP3    H1 1815   2.725   3.569   4.771  0.7068 -0.6109  0.6071
  603TIP3    H2 1816   2.756   3.512   4.908 -0.2427 -0.9340  0.6903
  604TIP3   OH2 1817   6.173   4.270  -0.026 -0.5326 -0.4085 -0.2582
  604TIP3    H1 1818   6.211   4.326   0.042 -0.2803 -1.6531  0.6778
  604TIP3    H2 1819   6.096   4.231   0.016 -0.7935 -0.6327 -0.9362
  605TIP3   OH2 1820   0.410   1.340   1.775 -0.2200  0.1339  0.8596
  605TIP3    H1 1821   0.471   1.401   1.734 -0.6831 -0.2280 -0.4485
  605TIP3    H2 1822   0.458   1.303   1.849  0.8756  0.3923  0.3032
  606TIP3   OH2 1823   2.111   0.458   0.860 -0.6686  0.0296  0.1609
  606TIP3    H1 1824   2.087   0.366   0.867 -1.0765  0.0582 -0.7118
  606TIP3    H2 1825   2.067   0.488   0.780  0.1753  0.7493 -0.0494
  607TIP3   OH2 1826   2.099   4.961   2.637  0.0215  0.2032  0.0660
  607TIP3    H1 1827   2.134   5.022   2.702  0.3275 -1.1249  1.2202
  607TIP3    H2 1828   2.170   4.898   2.623 -0.7040 -0.5906 -0.1373
  608TIP3   OH2 1829  -0.013   0.067   1.876 -0.0552 -0.2526 -0.6536
  608TIP3    H1 1830   0.055   0.043   1.939 -0.2535  0.5289 -0.1150
  608TIP3    H2 1831   0.032   0.074   1.792 -0.0499 -2.7621 -0.9281
  609TIP3   OH2 1832   3.711   5.331   0.961 -0.6738  0.1070 -0.3789
  609TIP3    H1 1833   3.707   5.416   0.917  0.7971  0.9535  1.0058
  609TIP3    H2 1834   3.620   5.309   0.980 -1.1964  0.5834 -2.1776
  610TIP3   OH2 1835   3.958   5.170   4.652  0.3544  0.2551 -0.3249
  610TIP3    H1 1836   3.877   5.206   4.615 -0.1676 -0.1410  0.4123
  610TIP3    H2 1837   3.974   5.222   4.731 -0.2099 -0.8445  0.5516
  611TIP3   OH2 1838   1.793   2.396   1.494  0.0127 -0.1370  0.2049
  611TIP3    H1 1839   1.743   2.427   1.419 -0.4247  0.0031  0.5500
  611TIP3    H2 1840   1.815   2.305   1.473  0.9602  0.2700 -0.6352
  612TIP3   OH2 1841   5.270   5.774   2.969  0.5287  0.0928  0.6783
  612TIP3    H1 1842   5.240   5.812   3.051  0.5366 -0.0940  0.7686
  612TIP3    H2 1843   5.207   5.705   2.950  0.1874  0.5277  0.2153
  613TIP3   OH2 1844   3.423   0.062   5.157 -0.0211  0.0765  0.3222
  613TIP3    H1 1845   3.358   0.004   5.117  2.4974 -0.8051 -3.0037
  613TIP3    H2 1846   3.406   0.148   5.118  2.1516 -0.6905 -2.7605
  614TIP3   OH2 1847   0.864   5.412   1.374 -0.3019 -0.2729 -0.1355
  614TIP3    H1 1848   0.948   5.441   1.338 -0.0486 -0.2149  0.4973
  614TIP3    H2 1849   0.859   5.454   1.460 -1.2535  0.2062 -0.4191
  615TIP3   OH2 1850   5.596   3.101   3.650  0.2909 -0.3306  0.1380
  615TIP3    H1 1851   5.652   3.023   3.645 -0.7927 -1.1100 -0.0249
  615TIP3    H2 1852   5.524   3.084   3.590 -1.0775 -0.1333  1.6536
  616TIP3   OH2 1853   3.622   5.869   3.341  0.6211 -0.1637  0.1287
  616TIP3    H1 1854   3.595   5.790   3.294 -2.8089  2.1619 -2.2464
  616TIP3    H2 1855   3.581   5.941   3.293  2.4453  3.0175  2.9238
  617TIP3   OH2 1856   4.358   2.674   2.516 -0.4738 -0.7399  0.6712
  617TIP3    H1 1857   4.273   2.665   2.558 -0.6430  0.0555  0.5125
  617TIP3    H2 1858   4.409   2.599   2.548 -0.8007 -0.5005  1.8043
  618TIP3   OH2 1859   5.845   1.480   4.137  0.4620 -0.4469 -0.1711
  618TIP3    H1 1860   5.859   1.386   4.134  4.8011 -0.0111  0.2524
  618TIP3    H2 1861   5.827   1.505   4.047 -1.9056 -1.7196 -0.1090
  619TIP3   OH2 1862   4.163   0.587   2.551 -0.4360 -0.1176  0.8070
  619TIP3    H1 1863   4.217   0.664   2.530 -2.0729  1.0908  0.8124
  619TIP3    H2 1864   4.224   0.514   2.549  1.7305  1.4497  3.3127
  620TIP3   OH2 1865   2.643   1.295   2.488 -0.3823 -0.4353  0.7399
  620TIP3    H1 1866   2.647   1.199   2.488  1.1584 -0.4536 -1.3686
  620TIP3    H2 1867   2.562   1.316   2.441 -0.7648 -0.6832  1.2783
  621TIP3   OH2 1868   0.078   4.582   0.298  0.1247  0.6366  0.0341
  621TIP3    H1 1869   0.171   4.561   0.300 -0.2442 -1.3283 -1.1109
  621TIP3    H2 1870   0.049   4.570   0.389  0.5738 -0.9079  0.0008
  622TIP3   OH2 1871   3.830   4.319   0.066 -0.0422 -0.3070 -0.4951
  622TIP3    H1 1872   3.897   4.286   0.125 -0.7788  1.6539  1.5957
  622TIP3    H2 1873   3.752   4.327   0.121 -1.3846 -0.3444 -2.2897
  623TIP3   OH2 1874   4.175   1.319   3.292 -0.0064 -0.8459  0.3212
  623TIP3    H1 1875   4.156   1.327   3.199 -0.0629 -0.0744  0.3973
  623TIP3    H2 1876   4.261   1.359   3.303 -0.6720  0.5219  0.8413
  624TIP3   OH2 1877   3.767   1.986   3.965 -0.2604 -0.3670  0.2241
  624TIP3    H1 1878   3.772   1.942   3.880  1.3088  0.7200 -0.2921
  624TIP3    H2 1879   3.843   1.954   4.013 -0.5340 -0.1572  0.8041
  625TIP3   OH2 1880   2.152   0.639   1.993  0.4394 -0.2162  0.9979
  625TIP3    H1 1881   2.069   0.593   1.979  0.4614 -0.2447  0.9598
  625TIP3    H2 1882   2.132   0.705   2.059 -0.3043  1.6378 -0.9733
  626TIP3   OH2 1883   4.515   1.058   0.373  0.4200 -0.0668 -0.3675
  626TIP3    H1 1884   4.496   1.143   0.333 -0.3637 -1.2881 -2.7478
  626TIP3    H2 1885   4.447   1.000   0.340  0.7962 -1.5946  1.4047
  627TIP3   OH2 1886   0.618   3.275   4.220  0.5516  0.2473  0.0634
  627TIP3    H1 1887   0.527   3.304   4.215  0.4930  0.2960  1.1912
  627TIP3    H2 1888   0.665   3.349   4.259  0.5429 -0.8333  2.2188
  628TIP3   OH2 1889   2.963   3.532   2.917  0.0582  0.1099 -0.6088
  628TIP3    H1 1890   2.915   3.611   2.894  0.2156 -0.6000 -4.0060
  628TIP3    H2 1891   3.054   3.553   2.897  0.1923 -0.7057 -0.8936
  629TIP3   OH2 1892   1.296   1.260   4.865  0.5754  0.6466  0.0566
  629TIP3    H1 1893   1.202   1.278   4.874  0.9514  2.1063  1.4284
  629TIP3    H2 1894   1.332   1.338   4.823  0.9714 -0.5804 -2.0082
  630TIP3   OH2 1895   1.798   1.554   1.411  0.0453 -0.1524 -0.3472
  630TIP3    H1 1896   1.736   1.543   1.483 -0.3551  0.1961 -0.6392
  630TIP3    H2 1897   1.871   1.497   1.434 -0.2810 -0.3900  0.1116
  631TIP3   OH2 1898   3.544   4.575   3.207  0.3291 -0.3934 -0.3242
  631TIP3    H1 1899   3.602   4.504   3.233  0.2826 -0.3779 -0.1765
  631TIP3    H2 1900   3.480   4.534   3.149  0.0108 -0.5692  0.1538
  632TIP3   OH2 1901   1.951   5.084   4.063  0.2122  0.2178  0.4333
  632TIP3    H1 1902   1.911   5.025   4.127  2.6268 -0.4384  1.4596
  632TIP3    H2 1903   1.923   5.171   4.091  0.1855 -0.1523  1.6261
  633TIP3   OH2 1904   3.675   0.441   0.475 -0.2766 -0.4143 -0.0236
  633TIP3    H1 1905   3.668   0.436   0.570 -2.0835 -1.5781 -0.1778
  633TIP3    H2 1906   3.729   0.366   0.450  1.3848  0.6786  0.1471
  634TIP3   OH2 1907   4.912   1.813   3.004 -0.0913 -0.3952 -0.2922
  634TIP3    H1 1908   4.935   1.831   2.913  2.6120 -0.1057  0.3537
  634TIP3    H2 1909   4.913   1.717   3.010  0.2199 -0.4045 -0.4656
  635TIP3   OH2 1910   4.362   1.581   2.290 -0.4338  0.6624  0.1049
  635TIP3    H1 1911   4.390   1.493   2.316 -0.7992  0.5787  0.2300
  635TIP3    H2 1912   4.285   1.598   2.345 -0.2488  1.1371  0.2160
  636TIP3   OH2 1913   4.425   2.030   2.810  0.3323  0.2818 -0.0160
  636TIP3    H1 1914   4.512   2.060   2.835 -0.2828  0.7845  1.6575
  636TIP3    H2 1915   4.365   2.079   2.866 -0.9328 -1.2760  0.0850
  637TIP3   OH2 1916   3.724   2.777   2.211  0.5328 -0.0740  0.1997
  637TIP3    H1 1917   3.756   2.751   2.297  1.6407 -0.7662 -0.3981
  637TIP3    H2 1918   3.731   2.872   2.210 -0.3210  0.0185  1.1769
  638TIP3   OH2 1919   4.043   4.001   2.716  0.0885 -0.3245 -0.5143
  638TIP3    H1 1920   4.009   3.971   2.632 -0.6404 -1.8974  0.3056
  638TIP3    H2 1921   4.117   3.943   2.734 -0.3866 -0.6570  0.3958
  639TIP3   OH2 1922   0.949   0.948   0.042  0.0564 -0.3562  0.2636
  639TIP3    H1 1923   0.964   0.882  -0.026  1.4078  0.3630 -0.1786
  639TIP3    H2 1924   0.999   1.025   0.012  0.0525  0.2294  1.6899
  640TIP3   OH2 1925   3.233   0.582   4.643  0.2619 -0.1321 -0.1051
  640TIP3    H1 1926   3.283   0.547   4.569  0.8015 -0.1497  0.2552
  640TIP3    H2 1927   3.220   0.674   4.622  0.4567 -0.1260 -0.2034
  641TIP3   OH2 1928   1.560   0.295   0.785 -0.3912 -0.7529 -0.4596
  641TIP3    H1 1929   1.650   0.311   0.815 -0.7700 -0.9892  0.8331
  641TIP3    H2 1930   1.534   0.377   0.743 -0.1380 -0.1088  0.6177
  642TIP3   OH2 1931   2.489   5.850   3.181 -0.2337  0.3725  0.1256
  642TIP3    H1 1932   2.473   5.922   3.120  1.3083 -0.4094 -1.2839
  642TIP3    H2 1933   2.433   5.779   3.149 -0.6632  0.4671  0.6457
  643TIP3   OH2 1934   3.887   2.875   1.208  0.1077 -0.5306 -1.2894
  643TIP3    H1 1935   3.849   2.878   1.120 -1.8285  0.7378 -0.4735
  643TIP3    H2 1936   3.914   2.965   1.225 -1.7909 -0.2024  0.2956
  644TIP3   OH2 1937   3.213   5.757   5.078  0.7361  0.3326  0.0518
  644TIP3    H1 1938   3.242   5.686   5.021 -2.7366  0.7303 -2.5467
  644TIP3    H2 1939   3.165   5.714   5.149  0.3391 -0.0158 -0.4228
  645TIP3   OH2 1940   0.072   5.814   3.940 -0.0083 -0.2095 -0.1883
  645TIP3    H1 1941   0.096   5.906   3.926 -0.1059 -0.1061  0.3171
  645TIP3    H2 1942   0.082   5.774   3.854 -0.9741  0.5026 -0.6562
  646TIP3   OH2 1943   2.008   0.765   4.347 -0.6240 -0.0927  0.4259
  646TIP3    H1 1944   1.917   0.748   4.324 -0.3286 -1.0733 -0.0669
  646TIP3    H2 1945   2.038   0.684   4.387 -0.1040  0.3961  1.0452
  647TIP3   OH2 1946   1.326   3.528   2.373  0.0807  0.1509 -0.1531
  647TIP3    H1 1947   1.404   3.490   2.414 -0.0350 -0.8006 -0.7762
  647TIP3    H2 1948   1.329   3.621   2.396  0.2788 -0.2470  1.5957
  648TIP3   OH2 1949   2.632   0.053   0.114 -0.2519 -0.1219  0.4930
  648TIP3    H1 1950   2.689   0.009   0.052  0.4520  2.4130 -0.8084
  648TIP3    H2 1951   2.680   0.051   0.197  0.9912  0.4767 -0.1796
  649TIP3   OH2 1952   1.179   5.082   0.985 -0.8728 -0.0945 -0.3357
  649TIP3    H1 1953   1.147   5.158   0.936  0.0258  0.9160  0.6022
  649TIP3    H2 1954   1.203   5.116   1.071  1.4222 -1.0406 -0.5223
  650TIP3   OH2 1955   5.329   0.664   3.930  0.1971  0.1099  0.1185
  650TIP3    H1 1956   5.377   0.588   3.897 -0.0649  0.0372 -0.1009
  650TIP3    H2 1957   5.380   0.740   3.900  0.2005  0.0320 -0.0747
  651TIP3   OH2 1958   4.250   1.525   4.279  0.6284  0.1123  0.8667
  651TIP3    H1 1959   4.223   1.467   4.351 -0.2996 -0.0523  0.4098
  651TIP3    H2 1960   4.184   1.510   4.211  1.8885 -0.2867 -0.3136
  652TIP3   OH2 1961   2.637   2.856   0.538 -0.0999 -0.1303  0.5816
  652TIP3    H1 1962   2.716   2.886   0.493 -0.2217 -1.5937 -0.6826
  652TIP3    H2 1963   2.608   2.931   0.589  1.4625  0.7905  0.1591
  653TIP3   OH2 1964   0.144   3.419   2.010  0.0936 -0.2775 -0.0833
  653TIP3    H1 1965   0.094   3.431   1.930  0.8801 -1.3126 -0.7610
  653TIP3    H2 1966   0.206   3.349   1.989  1.8860  1.0015  0.6853
  654TIP3   OH2 1967   0.836   0.004   0.659  0.7184  0.2770 -0.2831
  654TIP3    H1 1968   0.849   0.046   0.744  0.3858  0.7085 -0.4396
  654TIP3    H2 1969   0.754   0.042   0.626 -0.4423 -1.6139  0.2333
  655TIP3   OH2 1970   4.145   3.509   2.982 -0.8763 -0.1375  0.5329
  655TIP3    H1 1971   4.154   3.575   3.051 -1.6287  1.2472 -0.6346
  655TIP3    H2 1972   4.171   3.554   2.902  0.9216 -1.9957 -0.0132
  656TIP3   OH2 1973   3.100   3.990   1.607 -0.0878  0.2762 -0.2915
  656TIP3    H1 1974   3.107   4.075   1.565 -0.8860  0.6477  0.3128
  656TIP3    H2 1975   3.006   3.977   1.620  0.1066 -0.1106  0.8001
  657TIP3   OH2 1976   3.400   0.912   1.759 -0.3622 -0.1876  0.2331
  657TIP3    H1 1977   3.332   0.845   1.767 -0.9469  0.3237 -0.3856
  657TIP3    H2 1978   3.422   0.912   1.665  1.9902 -1.7975  0.6904
  658TIP3   OH2 1979   2.776   1.538   0.782 -0.3781 -0.0408 -0.4529
  658TIP3    H1 1980   2.777   1.541   0.686  1.8702 -0.3586 -0.5107
  658TIP3    H2 1981   2.690   1.570   0.807 -0.4133  1.7070 -2.5403
  659TIP3   OH2 1982   4.214   4.191   2.876 -0.0434 -0.0059 -0.3803
  659TIP3    H1 1983   4.158   4.127   2.919  0.7569 -1.6387 -1.6730
  659TIP3    H2 1984   4.214   4.167   2.784  2.2542  0.2957 -0.5364
  660TIP3   OH2 1985   4.662   4.663   1.826 -0.2718  0.1487  0.1649
  660TIP3    H1 1986   4.591   4.624   1.876 -0.4156  0.6110  0.3319
  660TIP3    H2 1987   4.742   4.627   1.863 -0.3306  1.1789  1.3612
  661TIP3   OH2 1988   4.028   4.054   0.408  0.5211 -0.3736 -0.0479
  661TIP3    H1 1989   4.001   3.996   0.337 -2.4943  1.5328 -0.6490
  661TIP3    H2 1990   4.039   4.140   0.366 -0.9703  0.7193  1.6392
  662TIP3   OH2 1991   1.841   2.983   2.025 -0.1707  0.5829 -0.7414
  662TIP3    H1 1992   1.848   2.890   2.004 -0.7979  0.0729  1.1143
  662TIP3    H2 1993   1.755   3.009   1.991 -1.1712 -0.2228  1.0634
  663TIP3   OH2 1994   2.550   4.392   4.980  0.3388  0.5220 -0.2676
  663TIP3    H1 1995   2.472   4.347   4.947 -0.2430 -0.8557  2.7050
  663TIP3    H2 1996   2.622   4.335   4.954 -0.0134 -0.1124  0.1182
  664TIP3   OH2 1997   0.761   5.120   0.284  0.9806  0.3531 -0.1972
  664TIP3    H1 1998   0.738   5.213   0.280  1.6846  0.5196 -0.6118
  664TIP3    H2 1999   0.849   5.119   0.322  0.1002 -0.3021  1.9820
  665TIP3   OH2 2000   0.150   2.663   4.990 -0.1952 -0.3495  0.4523
  665TIP3    H1 2001   0.236   2.660   4.948 -1.3233  1.2951 -2.1676
  665TIP3    H2 2002   0.095   2.607   4.936 -1.4009  0.7552  0.5089
  666TIP3   OH2 2003   4.960   4.270   2.093  0.1087 -0.0117 -0.0707
  666TIP3    H1 2004   4.961   4.207   2.166 -1.4695  1.2126  1.0643
  666TIP3    H2 2005   5.027   4.334   2.116  0.6776 -0.4492 -0.4827
  667TIP3   OH2 2006   0.158   0.381   4.352 -0.2626  0.0410 -0.3645
  667TIP3    H1 2007   0.228   0.367   4.288  0.1577  1.1703 -0.1742
  667TIP3    H2 2008   0.152   0.299   4.400 -0.2617 -0.6705 -1.5289
  668TIP3   OH2 2009   3.908   1.790   4.524  0.5180 -0.5983  0.1831
  668TIP3    H1 2010   3.901   1.735   4.445 -0.8628 -0.7273  0.3659
  668TIP3    H2 2011   3.965   1.741   4.582  0.2059 -1.3129 -0.0998
  669TIP3   OH2 2012   5.976   3.525   0.197  0.1213 -0.1578  0.0106
  669TIP3    H1 2013   5.949   3.506   0.287  1.4967 -1.9808  0.0887
  669TIP3    H2 2014   6.019   3.610   0.203  0.3049 -0.3044  1.1190
  670TIP3   OH2 2015   0.464   2.148   2.637  0.1455  0.2291 -0.3782
  670TIP3    H1 2016   0.377   2.185   2.626  0.0437 -0.4140 -2.0003
  670TIP3    H2 2017   0.451   2.054   2.633  1.0000  0.1401 -1.4497
  671TIP3   OH2 2018   2.023   2.570   4.902  0.5615  0.5763  0.0410
  671TIP3    H1 2019   2.106   2.525   4.917 -1.6369 -3.5650  1.6637
  671TIP3    H2 2020   1.982   2.522   4.830 -0.8980  1.7306  0.0552
  672TIP3   OH2 2021   3.861   5.175   4.304  0.0195 -0.2080  0.0232
  672TIP3    H1 2022   3.838   5.169   4.211 -0.5531  0.1641  0.1399
  672TIP3    H2 2023   3.957   5.183   4.304  0.3438 -2.8832 -0.4128
  673TIP3   OH2 2024   3.867   2.673   4.495  0.1759  0.2353  0.1854
  673TIP3    H1 2025   3.952   2.645   4.529 -0.0628 -0.7670 -0.0016
  673TIP3    H2 2026   3.823   2.712   4.570 -0.0669 -1.3032  0.8863
  674TIP3   OH2 2027   0.408   4.399   1.152 -0.1853 -0.1456 -0.0090
  674TIP3    H1 2028   0.388   4.454   1.076 -1.0584 -0.3835  0.0350
  674TIP3    H2 2029   0.436   4.461   1.220  2.0460 -0.0514 -0.9535
  675TIP3   OH2 2030   5.807   4.990   0.660  0.1086 -0.2417  0.1791
  675TIP3    H1 2031   5.783   5.020   0.747 -1.8351  2.6320 -1.1695
  675TIP3    H2 2032   5.898   5.019   0.648  0.0550  0.2140  0.8816
  676TIP3   OH2 2033   6.308   0.013   2.649  0.0678 -0.0679 -0.4779
  676TIP3    H1 2034   6.353   0.093   2.623  0.1291  0.6038  1.4928
  676TIP3    H2 2035   6.215   0.034   2.641 -0.0686 -1.3372 -4.1991
  677TIP3   OH2 2036   4.160   4.486   4.627  0.0141  0.5801 -0.4434
  677TIP3    H1 2037   4.185   4.546   4.556  0.7533  1.1050  0.2335
  677TIP3    H2 2038   4.229   4.420   4.628  0.6988  1.2783  0.5702
  678TIP3   OH2 2039   4.270   1.486   0.540 -0.1832  0.6526  0.7796
  678TIP3    H1 2040   4.214   1.549   0.493  0.2568 -0.9114 -2.0908
  678TIP3    H2 2041   4.359   1.507   0.511  0.1669 -0.0683  1.2987
  679TIP3   OH2 2042   6.169   3.952   2.142 -0.6871  0.2210 -0.2278
  679TIP3    H1 2043   6.245   3.899   2.117 -1.8165 -1.6165  0.0817
  679TIP3    H2 2044   6.118   3.961   2.061 -1.6689 -1.2131  0.1931
  680TIP3   OH2 2045   4.323   0.870   4.429 -0.3437 -0.1758  0.1331
  680TIP3    H1 2046   4.356   0.784   4.404 -0.4073  0.2654 -1.6037
  680TIP3    H2 2047   4.239   0.878   4.384 -0.5210  0.6546  0.5769
  681TIP3   OH2 2048   1.510   1.703   4.206 -0.4132  0.0160  0.1974
  681TIP3    H1 2049   1.517   1.782   4.152 -0.1571 -1.5358 -2.1992
  681TIP3    H2 2050   1.598   1.665   4.204 -0.6233 -0.5535  1.0067
  682TIP3   OH2 2051   1.723   5.684   3.756 -0.1684  0.2523 -0.7294
  682TIP3    H1 2052   1.772   5.611   3.717  0.1480  0.5550 -0.9070
  682TIP3    H2 2053   1.632   5.654   3.757 -0.0267 -0.1839 -0.7064
  683TIP3   OH2 2054   4.000   1.766   2.669  0.1784 -0.0508 -0.0216
  683TIP3    H1 2055   3.947   1.739   2.744 -0.5575 -0.1061 -0.5512
  683TIP3    H2 2056   3.992   1.694   2.607  0.4985  0.1532 -0.3015
  684TIP3   OH2 2057   5.785   2.220   2.971 -0.5494  0.1860  0.1703
  684TIP3    H1 2058   5.879   2.203   2.967 -0.3882  1.1310 -0.4390
  684TIP3    H2 2059   5.772   2.269   3.052 -0.7783 -1.3533  1.1000
  685TIP3   OH2 2060   0.362   2.493   1.506 -0.2854  0.2042  0.2639
  685TIP3    H1 2061   0.333   2.469   1.595  0.6666  0.1503  0.5717
  685TIP3    H2 2062   0.343   2.416   1.453 -0.0114 -0.1146  0.6207
  686TIP3   OH2 2063   2.697   4.402   0.675 -0.1742  0.3349  0.7197
  686TIP3    H1 2064   2.646   4.481   0.689  0.6947  1.3254 -1.3800
  686TIP3    H2 2065   2.689   4.384   0.582  2.2440 -0.1986  0.5576
  687TIP3   OH2 2066   2.125   0.519   4.283  0.1270  0.6602 -0.0345
  687TIP3    H1 2067   2.094   0.430   4.293  0.6649  0.4795  0.0632
  687TIP3    H2 2068   2.220   0.511   4.273  0.0232  1.0546 -1.8918
  688TIP3   OH2 2069   4.765   2.704   4.787 -0.4823 -0.0049  0.3129
  688TIP3    H1 2070   4.843   2.693   4.842 -0.5003 -1.5882  0.0506
  688TIP3    H2 2071   4.704   2.637   4.818 -1.2656  0.3943 -0.3347
  689TIP3   OH2 2072   3.477   5.861   4.636 -0.2854 -0.3650 -0.4473
  689TIP3    H1 2073   3.416   5.846   4.708 -0.6504  0.3469 -0.5987
  689TIP3    H2 2074   3.512   5.948   4.652  1.6246 -1.2271  0.3087
  690TIP3   OH2 2075   2.012   4.855   2.889 -0.0861 -0.2235 -0.1644
  690TIP3    H1 2076   2.066   4.840   2.812 -0.0936 -0.1284 -0.1880
  690TIP3    H2 2077   1.926   4.821   2.864 -0.5379  1.3068 -0.8096
  691TIP3   OH2 2078   5.479   2.528   2.302  0.4837  0.4510  0.0878
  691TIP3    H1 2079   5.498   2.435   2.313  0.1306  0.3040 -0.4898
  691TIP3    H2 2080   5.384   2.532   2.288  0.4992  0.8964  0.0778
  692TIP3   OH2 2081   3.275   1.990   4.392 -0.1924 -0.1108  0.3770
  692TIP3    H1 2082   3.270   1.964   4.300 -1.2599 -1.0824  0.6890
  692TIP3    H2 2083   3.363   2.027   4.402  0.1999 -0.6770 -0.8516
  693TIP3   OH2 2084   2.825   3.497   0.356  0.6724 -0.1839 -0.3678
  693TIP3    H1 2085   2.749   3.441   0.373  0.2858  0.0496 -1.3029
  693TIP3    H2 2086   2.850   3.476   0.266  0.0083  1.7310 -1.0401
  694TIP3   OH2 2087   3.719   3.536   0.438 -0.1033 -0.7167  0.0309
  694TIP3    H1 2088   3.787   3.469   0.429  0.4043 -0.0917 -0.9758
  694TIP3    H2 2089   3.764   3.619   0.422 -0.9860 -0.2443 -0.1090
  695TIP3   OH2 2090   5.687   2.580   2.875  1.0099  0.0428 -0.0826
  695TIP3    H1 2091   5.664   2.657   2.926  1.5590 -0.3238  0.7388
  695TIP3    H2 2092   5.725   2.615   2.795  0.8134  0.6252  0.0732
  696TIP3   OH2 2093   5.322   5.176   3.525 -0.0198  0.2255  0.1213
  696TIP3    H1 2094   5.344   5.164   3.433 -0.3648  0.7078 -0.0255
  696TIP3    H2 2095   5.393   5.132   3.572  0.9243  1.2164 -0.3551
  697TIP3   OH2 2096   3.390   2.965   0.271  0.2423 -0.0359 -0.1387
  697TIP3    H1 2097   3.353   2.947   0.185 -5.0794  1.9116  1.3923
  697TIP3    H2 2098   3.384   2.882   0.318 -1.6891  0.0010 -0.2371
  698TIP3   OH2 2099   0.220   0.679   1.289 -0.0429  0.0600  0.5188
  698TIP3    H1 2100   0.127   0.690   1.307 -0.3742 -0.6652 -0.6665
  698TIP3    H2 2101   0.258   0.653   1.373 -0.9114  0.2952  0.9917
  699TIP3   OH2 2102   2.230   2.569   3.946 -0.3195 -0.3970 -0.5096
  699TIP3    H1 2103   2.188   2.648   3.913  0.6208 -0.4925 -2.0184
  699TIP3    H2 2104   2.241   2.514   3.868 -0.4438 -1.7778  0.4189
  700TIP3   OH2 2105   4.792   1.273   0.134 -0.4669  0.1451  0.1373
  700TIP3    H1 2106   4.837   1.224   0.202 -0.9012 -0.0172  0.3124
  700TIP3    H2 2107   4.756   1.349   0.179 -2.0807 -0.7422  0.4318
  701TIP3   OH2 2108   4.495   4.255   1.974 -0.3055 -0.0028 -0.3545
  701TIP3    H1 2109   4.532   4.312   1.906 -1.3353 -0.3329 -1.2170
  701TIP3    H2 2110   4.572   4.214   2.014  0.3526  0.6500 -0.9096
  702TIP3   OH2 2111   3.387   1.723   5.121 -0.2877  0.3880 -0.1184
  702TIP3    H1 2112   3.477   1.752   5.103  0.6241 -1.6702  0.8343
  702TIP3    H2 2113   3.372   1.745   5.212  0.1898 -1.4448  0.4371
  703TIP3   OH2 2114   5.552   0.695   0.786 -0.9661 -0.1454  0.4052
  703TIP3    H1 2115   5.626   0.752   0.809 -0.1595 -0.9340 -0.1368
  703TIP3    H2 2116   5.482   0.720   0.846 -0.5665  1.2706  0.3128
  704TIP3   OH2 2117   0.637   4.545   3.571 -0.0793  0.0642  0.2378
  704TIP3    H1 2118   0.567   4.585   3.519 -0.5191 -0.3431  0.5113
  704TIP3    H2 2119   0.621   4.576   3.660 -1.4488 -2.0262  0.7897
  705TIP3   OH2 2120   0.651   2.641   3.271 -0.6446  0.0825  0.0350
  705TIP3    H1 2121   0.722   2.597   3.318 -1.1499  0.2251  0.9467
  705TIP3    H2 2122   0.694   2.679   3.194 -0.0455 -1.2882 -0.3516
  706TIP3   OH2 2123   0.036   3.915   4.142  0.1866 -0.5319 -0.9077
  706TIP3    H1 2124   0.094   3.954   4.207 -0.0916  0.3189 -1.1615
  706TIP3    H2 2125   0.021   3.985   4.078 -0.3808 -1.0301 -1.3330
  707TIP3   OH2 2126   5.050   0.057   4.563 -0.4700  0.1856 -0.2800
  707TIP3    H1 2127   5.142   0.065   4.538 -0.9698 -0.4387 -2.6166
  707TIP3    H2 2128   5.052   0.033   4.655  1.7958 -1.4979 -0.6723
  708TIP3   OH2 2129   2.743   3.438   2.801 -0.9244  0.6082 -0.7989
  708TIP3    H1 2130   2.740   3.464   2.709  0.2806  1.7811 -0.5404
  708TIP3    H2 2131   2.833   3.456   2.829 -0.0203 -3.6427 -0.4238
  709TIP3   OH2 2132   0.871   3.218   4.876 -0.7987 -0.2509 -0.4243
  709TIP3    H1 2133   0.830   3.304   4.889 -0.5074 -0.1101 -0.4408
  709TIP3    H2 2134   0.950   3.220   4.930 -0.4910 -0.2965 -0.8624
  710TIP3   OH2 2135   4.957   2.890   3.777  0.5528 -0.0091 -0.2521
  710TIP3    H1 2136   5.044   2.878   3.816  0.0025 -0.7418  0.7845
  710TIP3    H2 2137   4.931   2.803   3.749 -0.5379 -0.0983  0.9691
  711TIP3   OH2 2138   4.711   2.026   3.346  0.7340  0.3367  0.0695
  711TIP3    H1 2139   4.794   1.981   3.336  1.3917  0.6192  3.2668
  711TIP3    H2 2140   4.645   1.959   3.327  1.7060 -1.4435  2.4585
  712TIP3   OH2 2141   4.535   2.619   2.303 -0.2541 -0.4906 -0.6515
  712TIP3    H1 2142   4.502   2.634   2.215  1.8791 -0.0210 -1.4372
  712TIP3    H2 2143   4.469   2.659   2.360 -0.4514  1.4914 -2.1638
  713TIP3   OH2 2144   1.468   5.786   2.290  0.6313  0.6064 -0.7352
  713TIP3    H1 2145   1.462   5.691   2.290  2.0138  0.4681 -2.6034
  713TIP3    H2 2146   1.481   5.810   2.382 -2.0194 -0.7715  0.1017
  714TIP3   OH2 2147   2.300   3.394   1.229  0.2909 -0.1850  0.2804
  714TIP3    H1 2148   2.342   3.424   1.309  0.5244 -1.7137  0.7738
  714TIP3    H2 2149   2.310   3.466   1.167  2.1432  0.1476  0.9234
  715TIP3   OH2 2150   3.370   4.695   1.800 -0.6432  0.0899  0.2375
  715TIP3    H1 2151   3.346   4.727   1.888  2.5616  3.7989  0.0046
  715TIP3    H2 2152   3.369   4.773   1.745 -0.2149 -1.7235 -2.5253
  716TIP3   OH2 2153   5.084   5.774   3.756  0.9522 -0.1001 -0.2523
  716TIP3    H1 2154   5.031   5.843   3.795  0.7473  0.2954 -1.1864
  716TIP3    H2 2155   5.166   5.818   3.732  0.8700 -0.2026 -0.7323
  717TIP3   OH2 2156   2.638   4.397   0.405  0.1920  0.1181  0.3832
  717TIP3    H1 2157   2.652   4.468   0.343  1.0147 -0.5034 -0.1540
  717TIP3    H2 2158   2.562   4.350   0.371  0.1977  0.2033  0.2519
  718TIP3   OH2 2159   4.159   0.114   4.370 -0.1873 -0.4054  0.0682
  718TIP3    H1 2160   4.172   0.209   4.361 -0.6162 -0.4252 -0.9797
  718TIP3    H2 2161   4.185   0.094   4.460  0.8168  0.5594  0.0184
  719TIP3   OH2 2162   0.353   0.585   1.539  0.4778 -0.2280  0.5385
  719TIP3    H1 2163   0.302   0.607   1.617  1.3329  0.8139  0.8283
  719TIP3    H2 2164   0.335   0.493   1.523  1.7233 -0.9894  3.0875
  720TIP3   OH2 2165   3.313   5.043   1.412 -0.1335 -0.3336  0.3851
  720TIP3    H1 2166   3.393   5.044   1.360 -0.6454 -0.1661 -0.4199
  720TIP3    H2 2167   3.306   5.132   1.448 -0.9098  0.2404 -1.0770
  721TIP3   OH2 2168   3.671   4.334   3.592  0.5640 -0.0082  0.1185
  721TIP3    H1 2169   3.751   4.359   3.637  0.6879  1.3237 -0.7597
  721TIP3    H2 2170   3.639   4.257   3.639  2.0621 -0.2442  0.8076
  722TIP3   OH2 2171   6.166   2.825   1.990 -0.1118 -0.0661 -0.0814
  722TIP3    H1 2172   6.195   2.747   1.943  0.2300  0.2731 -0.4507
  722TIP3    H2 2173   6.117   2.875   1.924 -1.0383 -0.3529  0.3755
  723TIP3   OH2 2174   2.544   5.231   3.045  0.0013 -0.7009  0.5353
  723TIP3    H1 2175   2.487   5.267   3.113 -0.2533 -0.9562  0.4591
  723TIP3    H2 2176   2.610   5.181   3.094  0.0938 -0.5010  0.6174
  724TIP3   OH2 2177   0.121   2.885   4.341  0.1584 -0.1892  0.2512
  724TIP3    H1 2178   0.157   2.799   4.363 -0.7230 -0.7055 -0.2829
  724TIP3    H2 2179   0.088   2.875   4.252  0.5072  0.8618 -0.0136
  725TIP3   OH2 2180   2.035   0.455   1.726 -0.5299  0.2388  0.1262
  725TIP3    H1 2181   1.984   0.451   1.645  1.0446  0.4811 -0.9228
  725TIP3    H2 2182   2.114   0.405   1.708  0.1063  0.7489  1.3307
  726TIP3   OH2 2183   3.073   2.656   1.662  0.3962  0.0847 -0.5263
  726TIP3    H1 2184   3.136   2.718   1.627 -1.0440  2.1496  0.3904
  726TIP3    H2 2185   3.055   2.686   1.751 -0.8034 -1.2946 -0.2523
  727TIP3   OH2 2186   1.745   3.989   3.417 -0.0503  0.4696  0.4338
  727TIP3    H1 2187   1.672   3.928   3.412 -0.0360  0.4634  0.3014
  727TIP3    H2 2188   1.720   4.062   3.361  0.0141  0.4997  0.4431
  728TIP3   OH2 2189   0.622   1.466   0.864 -0.0275  0.3730 -0.1492
  728TIP3    H1 2190   0.624   1.545   0.809  0.3595 -0.4231 -1.3042
  728TIP3    H2 2191   0.660   1.495   0.947  1.7874  1.0030 -1.1297
  729TIP3   OH2 2192   4.321   3.912   1.921 -0.0251  0.1865 -0.2604
  729TIP3    H1 2193   4.375   3.935   1.997 -0.0433 -0.7184  0.0434
  729TIP3    H2 2194   4.333   3.984   1.860  0.8636  0.4053  0.1565
  730TIP3   OH2 2195   1.383   0.508   2.485  0.2464 -0.3173 -0.2240
  730TIP3    H1 2196   1.454   0.504   2.549  2.0985 -2.1783 -2.2058
  730TIP3    H2 2197   1.427   0.528   2.402 -1.6795 -0.4723 -1.3491
  731TIP3   OH2 2198   3.186   2.807   0.799 -1.2766  0.4312 -0.0465
  731TIP3    H1 2199   3.224   2.852   0.875  0.6984 -0.6151 -0.3636
  731TIP3    H2 2200   3.249   2.822   0.728 -0.0281 -3.4507  0.0339
  732TIP3   OH2 2201   0.828   1.687   4.350 -0.2335 -0.3510  0.3104
  732TIP3    H1 2202   0.911   1.672   4.394  0.8359  0.1549 -1.4611
  732TIP3    H2 2203   0.810   1.780   4.363 -0.3889 -0.3953  0.4273
  733TIP3   OH2 2204   4.396   4.533   0.613 -0.0098  0.2732 -0.0924
  733TIP3    H1 2205   4.454   4.476   0.562  0.2306 -2.8656  3.3222
  733TIP3    H2 2206   4.308   4.508   0.585  0.1353 -0.8101  0.3799
  734TIP3   OH2 2207   0.950   1.120   0.660  0.3039 -0.2541  0.6500
  734TIP3    H1 2208   0.970   1.157   0.574 -2.1742  0.2502  0.1941
  734TIP3    H2 2209   0.989   1.182   0.722 -0.7721  1.2792 -0.1345
  735TIP3   OH2 2210   3.768   1.068   0.230  0.2600  0.5306 -0.4370
  735TIP3    H1 2211   3.820   1.104   0.158  3.1799 -0.6361  0.9442
  735TIP3    H2 2212   3.806   0.982   0.248  0.0466  0.9601  2.7872
  736TIP3   OH2 2213   2.629   5.591   0.587 -0.3286 -0.2396 -0.2081
  736TIP3    H1 2214   2.552   5.538   0.611 -0.4974 -0.1695 -0.5905
  736TIP3    H2 2215   2.682   5.532   0.533  0.4093 -0.6423  0.9130
  737TIP3   OH2 2216   0.638   3.850   3.731 -0.2916 -0.3560 -0.6937
  737TIP3    H1 2217   0.610   3.887   3.814 -3.3837 -0.5446 -1.5232
  737TIP3    H2 2218   0.609   3.913   3.665  0.7944 -0.9004 -1.7411
  738TIP3   OH2 2219   1.582   4.293   3.530  0.0127  0.0089  0.1209
  738TIP3    H1 2220   1.585   4.382   3.565  0.6452  0.1285 -0.2069
  738TIP3    H2 2221   1.600   4.237   3.605  1.1124  0.2505  0.0626
  739TIP3   OH2 2222   5.141   1.046   4.599 -0.3143  0.1916 -0.3712
  739TIP3    H1 2223   5.161   1.063   4.507  0.8179  0.1197 -0.1502
  739TIP3    H2 2224   5.195   1.108   4.647 -1.7871  1.0513  0.2327
  740TIP3   OH2 2225   3.112   2.844   4.144  0.6284  0.5708 -0.4142
  740TIP3    H1 2226   3.115   2.770   4.204  2.2399  0.8104 -0.1503
  740TIP3    H2 2227   3.019   2.854   4.123 -0.0165  0.5680  2.1357
  741TIP3   OH2 2228   4.340   4.736   2.160  0.2367  0.1168  0.0837
  741TIP3    H1 2229   4.334   4.719   2.254 -0.5178  0.9098  0.1979
  741TIP3    H2 2230   4.286   4.815   2.147 -0.3886 -0.4908 -1.1356
  742TIP3   OH2 2231   4.536   2.844   4.981 -0.3070 -0.1672  0.3122
  742TIP3    H1 2232   4.492   2.855   4.896 -0.5283  1.1253  0.5683
  742TIP3    H2 2233   4.585   2.925   4.993  0.9005 -0.9412  0.7659
  743TIP3   OH2 2234   2.689   5.627   1.561 -0.5082 -0.3751 -0.2032
  743TIP3    H1 2235   2.739   5.575   1.625  1.2496  1.6389  0.1845
  743TIP3    H2 2236   2.686   5.572   1.483 -0.2021 -1.7301  0.6989
  744TIP3   OH2 2237   2.762   2.474   2.433 -0.3896  0.5285 -0.2271
  744TIP3    H1 2238   2.799   2.530   2.500  0.5865  0.6102 -0.8169
  744TIP3    H2 2239   2.767   2.526   2.353 -0.6459  0.0692 -0.5466
  745TIP3   OH2 2240   0.226   5.316   4.732 -0.0046  0.2047  0.2237
  745TIP3    H1 2241   0.284   5.257   4.683  1.4807 -1.0178  3.2063
  745TIP3    H2 2242   0.269   5.402   4.727  0.8110 -0.1818  0.4128
  746TIP3   OH2 2243   5.188   3.794   2.933 -0.1491 -0.3216 -0.3204
  746TIP3    H1 2244   5.282   3.809   2.930 -0.1294 -0.5176 -0.7639
  746TIP3    H2 2245   5.152   3.868   2.982  0.4074 -1.0326  1.2289
  747TIP3   OH2 2246   0.230   3.807   3.170  0.0671  0.0014 -0.6162
  747TIP3    H1 2247   0.167   3.786   3.239  1.0465  1.9126  0.9508
  747TIP3    H2 2248   0.183   3.868   3.113  0.6671  2.0552  0.9925
  748TIP3   OH2 2249   4.349   4.191   3.871  0.6456  0.4727  0.1775
  748TIP3    H1 2250   4.283   4.234   3.924  0.2510 -0.6733  0.6577
  748TIP3    H2 2251   4.433   4.226   3.902  0.3868  0.2327  1.1649
  749TIP3   OH2 2252   1.551   4.808   3.421  0.1136  0.8142 -0.7441
  749TIP3    H1 2253   1.621   4.831   3.482 -0.1439  0.0024 -0.1214
  749TIP3    H2 2254   1.583   4.728   3.378 -0.2165  0.7174 -0.8114
  750TIP3   OH2 2255   0.029   1.104   1.680  0.1883 -0.5880 -0.6533
  750TIP3    H1 2256   0.008   1.015   1.653  0.5287 -0.3529 -1.7477
  750TIP3    H2 2257   0.072   1.143   1.604 -0.6800  0.7759 -0.4873
  751TIP3   OH2 2258   2.878   2.560   4.986 -0.6616 -0.1555 -0.2379
  751TIP3    H1 2259   2.813   2.567   5.056  0.6050 -0.5220  1.0045
  751TIP3    H2 2260   2.929   2.482   5.007 -0.3240 -0.3492 -1.6470
  752TIP3   OH2 2261   4.391   5.060   2.209 -0.0292 -0.5115  0.2044
  752TIP3    H1 2262   4.368   5.051   2.302 -0.5550 -1.6707 -0.0315
  752TIP3    H2 2263   4.483   5.089   2.211 -1.0510  3.1981  1.1202
  753TIP3   OH2 2264   5.038   0.325   3.828  0.5143 -0.7645  0.3155
  753TIP3    H1 2265   5.117   0.294   3.872  0.5510 -1.8007 -0.4317
  753TIP3    H2 2266   4.966   0.281   3.873  0.3928 -0.2340  0.6507
  754TIP3   OH2 2267   1.159   1.460   0.052 -0.0090  0.4905  0.5277
  754TIP3    H1 2268   1.199   1.546   0.041 -0.8147  0.7671 -0.3874
  754TIP3    H2 2269   1.152   1.425  -0.037  0.4104 -0.5799  0.8898
  755TIP3   OH2 2270   2.405   3.594   0.478  0.6649  0.5615 -0.0589
  755TIP3    H1 2271   2.373   3.587   0.568  0.8665 -0.7018 -0.0663
  755TIP3    H2 2272   2.333   3.633   0.429  0.5137  1.1540  0.6226
  756TIP3   OH2 2273   2.289   5.400   2.648 -0.1303  0.2828  0.1478
  756TIP3    H1 2274   2.320   5.345   2.720  0.0586 -0.6735 -0.6380
  756TIP3    H2 2275   2.366   5.412   2.592 -1.3045 -3.8401 -2.9524
  757TIP3   OH2 2276   5.198   1.761   3.421 -0.5696  0.7315 -0.0113
  757TIP3    H1 2277   5.266   1.719   3.472 -0.8820  1.0052  0.6457
  757TIP3    H2 2278   5.216   1.855   3.429 -1.5929  0.8662  1.0134
  758TIP3   OH2 2279   5.765   1.844   1.558 -0.6767 -0.0460  0.2552
  758TIP3    H1 2280   5.819   1.868   1.634 -1.7968 -0.4473  1.1982
  758TIP3    H2 2281   5.754   1.926   1.510 -1.1687  0.5205  1.3104
  759TIP3   OH2 2282   5.387   5.301   4.998  0.7300 -0.2341  0.0445
  759TIP3    H1 2283   5.441   5.362   4.947 -0.3497  0.9418  0.2519
  759TIP3    H2 2284   5.412   5.316   5.089  1.3539 -1.0212  0.0118
  760TIP3   OH2 2285   4.187   0.146   1.198  0.2872  0.3536 -0.0812
  760TIP3    H1 2286   4.272   0.184   1.181  0.4843 -0.0843 -0.0943
  760TIP3    H2 2287   4.126   0.220   1.198  0.7817  0.7719  0.7681
  761TIP3   OH2 2288   0.282   2.376   2.798  0.2422 -0.3297 -0.1348
  761TIP3    H1 2289   0.309   2.396   2.709 -0.4071 -0.7557 -0.4371
  761TIP3    H2 2290   0.313   2.449   2.850 -0.5444  0.5949 -0.9260
  762TIP3   OH2 2291   4.194   4.203   4.467  0.3413  0.1270  0.8187
  762TIP3    H1 2292   4.211   4.159   4.384 -0.3897 -1.1421  1.3064
  762TIP3    H2 2293   4.099   4.205   4.474  0.3382  2.0835  0.6932
  763TIP3   OH2 2294   3.661   3.025   4.321  0.1175 -0.2046  0.8762
  763TIP3    H1 2295   3.633   3.113   4.346  0.0396  0.0553 -0.0518
  763TIP3    H2 2296   3.752   3.035   4.295  0.7054 -0.7933  2.6358
  764TIP3   OH2 2297   2.084   5.285   4.557  0.1520 -0.0044  0.4805
  764TIP3    H1 2298   2.159   5.280   4.615  0.8960  1.1092 -0.3378
  764TIP3    H2 2299   2.121   5.291   4.469 -0.9367 -1.0696 -0.0843
  765TIP3   OH2 2300   4.836   0.261   4.476 -0.4610 -0.6029 -0.1531
  765TIP3    H1 2301   4.741   0.254   4.486 -0.6436 -0.1242 -1.3466
  765TIP3    H2 2302   4.871   0.182   4.517 -1.0930  0.8639  3.5937
  766TIP3   OH2 2303   2.115   1.655   4.798 -0.3919  0.3233  0.5213
  766TIP3    H1 2304   2.186   1.590   4.796 -0.7783 -0.1093  0.5941
  766TIP3    H2 2305   2.144   1.719   4.863  1.7092  2.2599 -2.1360
  767TIP3   OH2 2306   4.941   0.447   2.710 -0.1787  0.2155  0.4727
  767TIP3    H1 2307   5.024   0.472   2.752  0.0073  1.0389 -0.3545
  767TIP3    H2 2308   4.929   0.511   2.640 -0.8399 -0.7018 -0.2815
  768TIP3   OH2 2309   0.717   3.895   4.632 -0.4370 -0.4423 -0.1292
  768TIP3    H1 2310   0.660   3.842   4.577  0.0645 -0.5094 -0.5897
  768TIP3    H2 2311   0.658   3.933   4.698 -0.7699 -1.7763  0.3814
  769TIP3   OH2 2312   4.641   3.117   0.698  0.0912  0.6942  0.0645
  769TIP3    H1 2313   4.652   3.022   0.697 -0.3574  0.6400 -0.9270
  769TIP3    H2 2314   4.660   3.145   0.608  0.2130  1.5439  0.3400
  770TIP3   OH2 2315   0.114   4.803   2.654  0.0569 -0.3051 -0.1321
  770TIP3    H1 2316   0.087   4.891   2.680  0.5440  0.8430 -3.0928
  770TIP3    H2 2317   0.184   4.780   2.714  1.5396  2.3749 -0.7064
  771TIP3   OH2 2318   4.629   3.203   0.075  0.3077  0.4174  0.2469
  771TIP3    H1 2319   4.655   3.295   0.074 -2.7524  1.4103 -0.0277
  771TIP3    H2 2320   4.558   3.199   0.139 -0.7696 -1.3680 -0.9469
  772TIP3   OH2 2321   3.103   1.127   2.389  0.3837 -0.0271  0.6930
  772TIP3    H1 2322   3.165   1.156   2.322 -1.1583  1.1231 -0.3135
  772TIP3    H2 2323   3.070   1.043   2.358  2.1422 -1.1510  1.7493
  773TIP3   OH2 2324   0.312   0.345   4.120  0.4302 -0.4590  0.4807
  773TIP3    H1 2325   0.357   0.416   4.074  0.1011  0.2064  1.1514
  773TIP3    H2 2326   0.379   0.309   4.178  0.7157 -0.9875 -0.1693
  774TIP3   OH2 2327   1.592   0.680   3.842 -0.3825  0.3115 -0.1255
  774TIP3    H1 2328   1.499   0.660   3.851 -0.3083  0.0880  0.1435
  774TIP3    H2 2329   1.625   0.686   3.932  0.2826 -1.6188 -0.1761
  775TIP3   OH2 2330   2.373   0.296   0.237 -0.4000  0.2843  0.2242
  775TIP3    H1 2331   2.283   0.315   0.263 -0.3335  0.8361  0.0577
  775TIP3    H2 2332   2.391   0.210   0.276 -0.5303  0.7757  1.4171
  776TIP3   OH2 2333   6.250   1.318   4.941  0.2387  0.0912  0.3553
  776TIP3    H1 2334   6.307   1.241   4.937  0.0928 -0.1809  2.5149
  776TIP3    H2 2335   6.206   1.311   5.025 -0.6479  1.9518  0.0944
  777TIP3   OH2 2336   2.326   4.298   2.959  0.0981  0.1043  0.3024
  777TIP3    H1 2337   2.301   4.205   2.963 -0.4982  0.2460  0.0381
  777TIP3    H2 2338   2.389   4.303   2.887  0.7609 -0.2264  0.8468
  778TIP3   OH2 2339   2.659   1.331   5.160 -0.0679 -0.1690 -0.3431
  778TIP3    H1 2340   2.731   1.361   5.104 -0.7648 -0.2643 -1.3168
  778TIP3    H2 2341   2.703   1.296   5.237  0.9199  0.0688 -0.7710
  779TIP3   OH2 2342   3.944   2.770   0.721  0.3167  0.1672 -0.0710
  779TIP3    H1 2343   3.884   2.751   0.793  1.5253 -0.1688  0.8794
  779TIP3    H2 2344   4.029   2.740   0.752  1.0279  0.8254 -1.2999
  780TIP3   OH2 2345   3.212   2.507   4.819  0.0239 -0.3462  0.2534
  780TIP3    H1 2346   3.172   2.581   4.773  1.7627  0.1369 -0.5805
  780TIP3    H2 2347   3.221   2.440   4.752  1.2780 -0.1616  0.2216
  781TIP3   OH2 2348   5.676   1.729   3.435  0.0073  0.1385  0.5219
  781TIP3    H1 2349   5.618   1.693   3.368 -0.9680  0.9824  0.8764
  781TIP3    H2 2350   5.756   1.750   3.388 -1.2338  2.2903 -0.8116
  782TIP3   OH2 2351   2.162   1.314   2.970  0.0252 -0.2442 -0.0386
  782TIP3    H1 2352   2.198   1.337   2.884 -1.6745  0.1627 -0.6796
  782TIP3    H2 2353   2.190   1.223   2.985  1.0418 -0.0380 -0.6199
  783TIP3   OH2 2354   4.150   5.919   0.555  0.6599  0.1855  0.1231
  783TIP3    H1 2355   4.203   5.949   0.481 -0.5981  1.0285 -0.4737
  783TIP3    H2 2356   4.188   5.834   0.579  1.9992  0.5691 -0.5392
  784TIP3   OH2 2357   4.500   3.642   1.325  0.0597  0.2552 -0.5307
  784TIP3    H1 2358   4.464   3.641   1.413 -1.8014 -1.0616 -1.2315
  784TIP3    H2 2359   4.591   3.669   1.336  0.6653 -2.2836  2.1195
  785TIP3   OH2 2360   2.765   3.050   1.784 -0.1392 -0.1196 -0.0292
  785TIP3    H1 2361   2.816   3.103   1.845 -0.6450  0.2098  0.1157
  785TIP3    H2 2362   2.754   2.966   1.828 -1.7646  0.5954  1.0092
  786TIP3   OH2 2363   5.562   3.028   2.003 -0.0768 -0.3961 -0.5298
  786TIP3    H1 2364   5.613   2.965   2.055 -0.5598 -0.9178 -0.6741
  786TIP3    H2 2365   5.623   3.058   1.936 -0.1864 -1.6543 -1.2191
  787TIP3   OH2 2366   4.853   5.077   2.505  0.4603  0.2225 -0.4937
  787TIP3    H1 2367   4.788   5.051   2.440  1.2978  0.5091 -1.4787
  787TIP3    H2 2368   4.890   5.158   2.471 -0.9613  1.8870  1.7111
  788TIP3   OH2 2369   0.593   0.427   0.948 -0.3570 -0.3096 -0.0205
  788TIP3    H1 2370   0.568   0.336   0.937  0.5040 -0.3739 -1.7109
  788TIP3    H2 2371   0.615   0.435   1.041 -0.9343 -1.6812  0.2487
  789TIP3   OH2 2372   5.722   5.487   2.861 -0.0753 -0.4848  0.0358
  789TIP3    H1 2373   5.660   5.422   2.895 -0.2287 -0.0792  0.5353
  789TIP3    H2 2374   5.738   5.459   2.771 -1.5933 -0.1576 -0.3652
  790TIP3   OH2 2375   2.372   2.220   1.306 -0.1345 -0.1035  0.5832
  790TIP3    H1 2376   2.452   2.168   1.311 -0.5451 -0.7288  0.8387
  790TIP3    H2 2377   2.340   2.206   1.217 -0.2629 -0.3246  0.6624
  791TIP3   OH2 2378   5.066   4.035   3.046 -0.0173  0.5598  0.0709
  791TIP3    H1 2379   4.976   4.024   3.016 -0.4514  0.5775  1.2976
  791TIP3    H2 2380   5.063   4.115   3.099  0.4496 -0.0748  1.0816
  792TIP3   OH2 2381   3.305   5.510   5.010  0.2464 -0.2559  0.0368
  792TIP3    H1 2382   3.241   5.485   5.076  1.6826 -0.5094  1.4129
  792TIP3    H2 2383   3.388   5.515   5.058  1.2173  0.3179 -1.6068
  793TIP3   OH2 2384   2.665   5.626   4.529  0.5169  0.0872  0.0648
  793TIP3    H1 2385   2.683   5.719   4.518 -1.6732  0.4762 -0.7362
  793TIP3    H2 2386   2.600   5.623   4.600 -0.3362 -0.6933 -0.7252
  794TIP3   OH2 2387   0.649   3.564   4.074 -0.0783 -0.1017  0.1061
  794TIP3    H1 2388   0.642   3.512   3.993  1.7467 -0.0141 -0.1655
  794TIP3    H2 2389   0.559   3.585   4.097 -0.6891  2.6538 -3.7168
  795TIP3   OH2 2390   5.501   4.128   4.733 -0.2764  0.1825 -0.6825
  795TIP3    H1 2391   5.587   4.135   4.774 -0.2444  0.4926 -0.8017
  795TIP3    H2 2392   5.516   4.154   4.642 -0.1054 -1.6099 -1.2174
  796TIP3   OH2 2393   4.168   0.086   2.961 -0.1333 -0.2043  0.4984
  796TIP3    H1 2394   4.170   0.077   3.056  0.4593 -0.8983  0.4276
  796TIP3    H2 2395   4.260   0.087   2.935 -0.2907 -0.0738 -0.0739
  797TIP3   OH2 2396   2.688   2.928   4.238  0.5723  0.5592 -0.2868
  797TIP3    H1 2397   2.695   3.019   4.266  1.9779  0.5308 -0.4988
  797TIP3    H2 2398   2.594   2.914   4.229  0.3369  2.0564 -0.4903
  798TIP3   OH2 2399   4.813   0.123   1.114 -0.0602 -0.4856  0.1714
  798TIP3    H1 2400   4.720   0.106   1.125 -0.5525  1.1366 -1.0802
  798TIP3    H2 2401   4.849   0.122   1.202 -1.0380 -2.1221  0.6050
  799TIP3   OH2 2402   0.212   0.034   4.971  0.4110 -0.0151 -0.3534
  799TIP3    H1 2403   0.200   0.055   4.878 -1.3669 -0.1464 -0.1895
  799TIP3    H2 2404   0.294  -0.016   4.974  1.1126  0.9774 -1.6766
  800TIP3   OH2 2405   5.303   5.628   4.807  0.4535 -0.7116  0.2236
  800TIP3    H1 2406   5.371   5.561   4.814  1.1922  0.0190  0.2010
  800TIP3    H2 2407   5.304   5.672   4.892 -0.5536 -1.2234  0.5022
  801TIP3   OH2 2408   5.522   1.192   3.557  0.1753 -0.0251 -0.1364
  801TIP3    H1 2409   5.555   1.253   3.624 -1.0500 -0.0318  0.5068
  801TIP3    H2 2410   5.431   1.219   3.543  0.2635 -0.3534 -1.4529
  802TIP3   OH2 2411   4.237   3.628   2.716 -0.4470  0.5797  0.2138
  802TIP3    H1 2412   4.245   3.715   2.678  0.4746 -0.0710 -1.1821
  802TIP3    H2 2413   4.327   3.599   2.730 -0.6144 -1.1582 -1.8307
  803TIP3   OH2 2414   5.351   4.338   2.099 -0.6676  0.4861  0.4095
  803TIP3    H1 2415   5.438   4.364   2.131 -0.3871  0.1163 -0.0382
  803TIP3    H2 2416   5.362   4.330   2.005 -0.8400 -0.8635  0.4832
  804TIP3   OH2 2417   6.321   1.017   2.780  0.5265 -1.1538  0.4060
  804TIP3    H1 2418   6.339   0.934   2.736 -1.4741 -1.4503  0.0491
  804TIP3    H2 2419   6.243   1.052   2.736  0.0909 -0.1135  1.9022
  805TIP3   OH2 2420   3.351   4.960   4.740 -0.1629  0.2270  0.1026
  805TIP3    H1 2421   3.426   5.009   4.705 -0.4566 -0.4143 -1.4906
  805TIP3    H2 2422   3.349   4.879   4.689 -0.9129 -0.5441  1.3068
  806TIP3   OH2 2423   2.918   2.192   4.699  0.1657  0.0477  0.5096
  806TIP3    H1 2424   2.829   2.163   4.677  0.8824 -0.3640 -2.2748
  806TIP3    H2 2425   2.921   2.284   4.671  0.4738  0.1973  1.0283
  807TIP3   OH2 2426   5.983   0.327   4.897  0.8412 -0.1585 -0.6026
  807TIP3    H1 2427   6.039   0.285   4.962  0.7707  1.3722  0.5104
  807TIP3    H2 2428   5.998   0.421   4.910  0.5029  0.2021 -2.5391
  808TIP3   OH2 2429   1.891   5.148   2.042 -0.1847 -0.2931 -0.7517
  808TIP3    H1 2430   1.952   5.167   2.113 -0.0211  0.7047 -1.1383
  808TIP3    H2 2431   1.942   5.099   1.978 -0.6901 -2.4357  0.3955
  809TIP3   OH2 2432   0.051   5.385   2.030 -0.6632 -0.5639 -0.1751
  809TIP3    H1 2433   0.138   5.346   2.019 -0.4571 -0.5505  1.3007
  809TIP3    H2 2434   0.010   5.333   2.100 -1.4021  0.1721 -0.0515
  810TIP3   OH2 2435   3.365   5.506   0.192 -0.4902 -0.5295  0.0754
  810TIP3    H1 2436   3.387   5.509   0.285 -2.2085 -1.1700  0.5365
  810TIP3    H2 2437   3.269   5.514   0.189 -0.3551  1.8806 -1.7866
  811TIP3   OH2 2438   4.142   1.309   0.740 -0.3174 -0.3775  0.3751
  811TIP3    H1 2439   4.173   1.367   0.670 -3.1892  1.0229  0.0740
  811TIP3    H2 2440   4.164   1.356   0.821  2.3112 -1.6255  0.4527
  812TIP3   OH2 2441   5.479   4.635   4.425 -0.3723  0.0288  0.3820
  812TIP3    H1 2442   5.386   4.629   4.447 -0.3955 -2.2780 -0.1345
  812TIP3    H2 2443   5.480   4.649   4.330 -0.1731  1.9731  0.6347
  813TIP3   OH2 2444   3.339   3.880   0.577  0.0858  0.5191  0.2404
  813TIP3    H1 2445   3.402   3.811   0.556  0.0962  0.6517 -0.1600
  813TIP3    H2 2446   3.254   3.844   0.555  0.1646  0.9695 -0.8690
  814TIP3   OH2 2447   6.027   0.933   4.051 -0.5930 -0.3830  0.4007
  814TIP3    H1 2448   6.045   0.980   3.969 -0.5473  1.6895  1.5354
  814TIP3    H2 2449   6.104   0.950   4.106 -1.4638 -0.1167  1.5692
  815TIP3   OH2 2450   5.227   3.491   0.748 -0.2561  0.0928 -0.4200
  815TIP3    H1 2451   5.252   3.402   0.771  1.2119  0.4081 -0.6441
  815TIP3    H2 2452   5.284   3.546   0.802 -0.1885  0.8693 -1.2533
  816TIP3   OH2 2453   1.982   1.376   1.505 -0.9982 -0.1979  0.2501
  816TIP3    H1 2454   1.999   1.371   1.599 -0.1254  0.4332  0.1383
  816TIP3    H2 2455   1.965   1.286   1.479  0.1385 -0.5885  0.7795
  817TIP3   OH2 2456   1.590   0.087   3.582 -0.2094  0.0527 -0.0018
  817TIP3    H1 2457   1.631   0.011   3.622  0.5017  0.1151 -0.5680
  817TIP3    H2 2458   1.576   0.062   3.490 -1.1912  0.1392  0.1132
  818TIP3   OH2 2459   5.826   4.373   5.053 -0.1348  0.3712 -0.1256
  818TIP3    H1 2460   5.744   4.422   5.043 -1.7672 -2.3151 -1.1794
  818TIP3    H2 2461   5.844   4.377   5.147 -0.5445  2.3358 -0.0768
  819TIP3   OH2 2462   5.363   5.478   4.252 -0.2333  0.2642 -0.4914
  819TIP3    H1 2463   5.433   5.538   4.228 -0.5642  0.9639  0.2195
  819TIP3    H2 2464   5.342   5.431   4.171  1.1943 -0.1281 -0.6566
  820TIP3   OH2 2465   0.944   2.900   3.141 -0.1876 -0.1595 -0.4170
  820TIP3    H1 2466   0.886   2.844   3.089 -2.0894  0.1003  1.3227
  820TIP3    H2 2467   0.974   2.845   3.213  0.8430  0.0545 -0.6577
  821TIP3   OH2 2468   4.604   4.106   2.365  0.0287  0.3046  0.4337
  821TIP3    H1 2469   4.551   4.118   2.444 -1.6897  0.0204 -0.6170
  821TIP3    H2 2470   4.664   4.035   2.387 -0.6872 -0.0394  1.3600
  822TIP3   OH2 2471   2.467   4.284   1.875 -0.3681  0.2836  0.1949
  822TIP3    H1 2472   2.499   4.374   1.884  2.0751 -0.6421  2.0857
  822TIP3    H2 2473   2.489   4.259   1.785  0.6608  0.9889  0.2352
  823TIP3   OH2 2474   5.909   0.625   1.969  0.1721  0.0276 -0.4300
  823TIP3    H1 2475   5.920   0.579   2.052 -1.1018  0.5774  0.0615
  823TIP3    H2 2476   5.823   0.598   1.937  0.1256  0.7666 -0.9630
  824TIP3   OH2 2477   0.173   2.706   3.190 -0.2983  0.0342  0.3839
  824TIP3    H1 2478   0.184   2.773   3.123  0.8399  1.2175  1.6917
  824TIP3    H2 2479   0.191   2.751   3.273  1.4002 -2.0340  1.2594
  825TIP3   OH2 2480   2.318   4.886   3.786 -0.8830  0.1800  0.1915
  825TIP3    H1 2481   2.358   4.802   3.762 -0.2997  0.3226  0.6518
  825TIP3    H2 2482   2.390   4.949   3.781 -1.0162  0.4182  1.1707
  826TIP3   OH2 2483   3.493   5.052   2.383  0.2102 -0.1828 -0.4540
  826TIP3    H1 2484   3.475   4.959   2.365  1.2379 -0.3768 -0.5578
  826TIP3    H2 2485   3.407   5.094   2.378 -0.7122 -1.5100  2.1886
  827TIP3   OH2 2486   1.544   5.280   4.295  0.2222 -0.2365 -0.1248
  827TIP3    H1 2487   1.580   5.360   4.332 -2.5923  1.1499 -0.0854
  827TIP3    H2 2488   1.524   5.225   4.371  0.1267 -0.0328 -0.0019
  828TIP3   OH2 2489   2.250   2.779   0.934 -0.0049  0.2347  0.8346
  828TIP3    H1 2490   2.334   2.753   0.896  0.0346  1.8769 -0.3052
  828TIP3    H2 2491   2.184   2.737   0.879  0.0750  0.8598  0.2440
  829TIP3   OH2 2492   3.274   4.330   4.653 -0.3816  0.1967  0.4000
  829TIP3    H1 2493   3.303   4.396   4.716  2.0892 -2.0498  1.8290
  829TIP3    H2 2494   3.190   4.299   4.687  1.5876 -2.0710  3.7571
  830TIP3   OH2 2495   5.303   3.204   4.836  0.7931  0.8027  0.1628
  830TIP3    H1 2496   5.235   3.265   4.866 -1.2084 -0.5952 -1.2571
  830TIP3    H2 2497   5.309   3.221   4.742  1.1005 -0.3360 -0.0301
  831TIP3   OH2 2498   3.123   0.438   3.163  0.2944 -0.4569  0.2710
  831TIP3    H1 2499   3.037   0.435   3.203  0.2546  1.9002  0.4831
  831TIP3    H2 2500   3.114   0.502   3.092  2.1242  0.6540  0.9909
  832TIP3   OH2 2501   5.933   3.255   4.509  0.3242 -0.2611 -0.1058
  832TIP3    H1 2502   5.922   3.258   4.414  0.4797 -0.6622 -0.1380
  832TIP3    H2 2503   6.002   3.190   4.523  1.7740  1.2650  0.1618
  833TIP3   OH2 2504   1.176   0.185   4.590  0.5634 -0.0033 -0.5622
  833TIP3    H1 2505   1.196   0.156   4.501 -0.8186 -1.3124 -0.4848
  833TIP3    H2 2506   1.158   0.104   4.638 -0.2997  0.7838  0.5009
  834TIP3   OH2 2507   1.819   4.504   2.351  0.0966  0.2121 -0.6718
  834TIP3    H1 2508   1.882   4.534   2.285 -1.1611 -1.0340 -2.5397
  834TIP3    H2 2509   1.760   4.578   2.365  0.9325  0.8029 -0.1982
  835TIP3   OH2 2510   4.307   4.148   0.445 -0.1295  0.1967 -0.2089
  835TIP3    H1 2511   4.362   4.175   0.519 -1.3537 -0.0913  0.8378
  835TIP3    H2 2512   4.293   4.229   0.395  0.5606  0.4308 -0.0348
  836TIP3   OH2 2513   0.114   5.075   2.434  0.0202 -0.2033 -0.1918
  836TIP3    H1 2514   0.128   4.986   2.403  0.9335 -0.3172  0.5131
  836TIP3    H2 2515   0.122   5.070   2.529  1.4442  0.8388 -0.2175
  837TIP3   OH2 2516   2.190   1.996   4.250  0.0381  0.1677  0.3170
  837TIP3    H1 2517   2.264   1.969   4.305 -0.4493  0.3925  1.1081
  837TIP3    H2 2518   2.217   2.081   4.215  1.5056 -1.1649 -2.0432
  838TIP3   OH2 2519   0.373   4.590   2.745 -0.2969 -0.1849  0.2618
  838TIP3    H1 2520   0.332   4.560   2.664  1.1054  0.6101 -0.7830
  838TIP3    H2 2521   0.355   4.520   2.808 -0.7547 -1.2002 -0.9435
  839TIP3   OH2 2522   5.708   0.313   0.934 -0.0015  0.7719 -0.1365
  839TIP3    H1 2523   5.634   0.332   0.877 -0.9874  0.0850  0.8760
  839TIP3    H2 2524   5.785   0.322   0.878 -0.9208  0.2938 -1.5139
  840TIP3   OH2 2525   3.072   2.341   4.175 -0.9982  0.5348  0.0088
  840TIP3    H1 2526   3.014   2.410   4.206  1.1845  1.1724  3.0916
  840TIP3    H2 2527   3.037   2.261   4.216 -2.0176  0.1597 -1.4960
  841TIP3   OH2 2528   1.816   4.834   4.833 -0.1635  0.3861  0.5767
  841TIP3    H1 2529   1.795   4.777   4.906 -1.4330 -0.7414 -0.6102
  841TIP3    H2 2530   1.909   4.821   4.818 -0.4858 -1.7642  0.0714
  842TIP3   OH2 2531   2.267   0.313   1.103 -0.1958  0.6545  0.9379
  842TIP3    H1 2532   2.316   0.385   1.144 -1.4779  0.7199  2.4506
  842TIP3    H2 2533   2.178   0.347   1.095 -0.3623 -0.0337 -0.2977
  843TIP3   OH2 2534   2.341   2.646   3.384 -0.3488  0.3731  0.2029
  843TIP3    H1 2535   2.250   2.622   3.403  0.2354 -0.9197  1.5503
  843TIP3    H2 2536   2.364   2.708   3.453  0.3110 -0.6864  0.9745
  844TIP3   OH2 2537   2.090   4.990   4.704  0.1209  0.1759 -1.1052
  844TIP3    H1 2538   2.050   4.996   4.617  0.3052 -1.8293 -1.3593
  844TIP3    H2 2539   2.150   5.065   4.708 -1.0262  1.1740 -2.0871
  845TIP3   OH2 2540   3.426   3.508   3.797  0.1029 -0.2088 -0.1082
  845TIP3    H1 2541   3.471   3.526   3.880 -0.0897  0.0726 -0.0649
  845TIP3    H2 2542   3.388   3.421   3.810  2.2013 -1.2965 -0.8278
  846TIP3   OH2 2543   0.438   3.684   3.074 -0.2664  0.2707 -0.1902
  846TIP3    H1 2544   0.364   3.720   3.123 -0.1481 -2.1319  1.9100
  846TIP3    H2 2545   0.515   3.726   3.112 -0.3320  0.1740  0.0519
  847TIP3   OH2 2546   4.571   5.100   0.373  0.1784 -0.5032  0.0746
  847TIP3    H1 2547   4.576   5.016   0.328  1.0010 -0.8010  0.6988
  847TIP3    H2 2548   4.478   5.118   0.381  0.0101 -0.3388 -1.9214
  848TIP3   OH2 2549   1.844   2.568   3.725 -0.1571  0.1663  0.9136
  848TIP3    H1 2550   1.883   2.489   3.688  0.5647  0.7539  0.3821
  848TIP3    H2 2551   1.757   2.573   3.684 -1.3080 -1.7220  2.9008
  849TIP3   OH2 2552   0.807   2.153   1.182  0.2042  0.1816 -0.0258
  849TIP3    H1 2553   0.855   2.106   1.251 -1.8003 -1.2775  0.4714
  849TIP3    H2 2554   0.752   2.215   1.230  0.5101  0.8254 -0.4950
  850TIP3   OH2 2555   4.075   3.435   4.059  0.1010  0.7022 -0.1535
  850TIP3    H1 2556   4.044   3.525   4.050 -0.2707  0.5299 -0.6401
  850TIP3    H2 2557   4.112   3.431   4.147  0.6762  1.4986 -0.3473
  851TIP3   OH2 2558   0.252   1.419   0.147  0.2815 -0.1165 -0.4263
  851TIP3    H1 2559   0.236   1.512   0.163  1.2140  0.4779 -2.5683
  851TIP3    H2 2560   0.339   1.416   0.108  0.2556 -1.9042 -0.4291
  852TIP3   OH2 2561   2.880   0.502   2.454  0.1662  0.0946  0.4481
  852TIP3    H1 2562   2.861   0.413   2.484 -1.2707  0.1991 -0.0987
  852TIP3    H2 2563   2.846   0.506   2.365 -0.4192  1.3939  0.7044
  853TIP3   OH2 2564   3.833   1.250   4.563 -0.2039  0.2228 -0.0976
  853TIP3    H1 2565   3.835   1.217   4.473 -1.8502 -0.7206  0.1698
  853TIP3    H2 2566   3.895   1.196   4.610  2.1656  1.9869 -0.9967
  854TIP3   OH2 2567   0.900   2.313   2.284  0.0695 -0.0815  0.8481
  854TIP3    H1 2568   0.860   2.337   2.200 -0.1610  0.1178  1.0142
  854TIP3    H2 2569   0.987   2.281   2.260  0.4406  1.0376  0.6257
  855TIP3   OH2 2570   0.955   0.530   2.586 -0.0169  0.1967 -0.1281
  855TIP3    H1 2571   0.960   0.442   2.622 -1.1484 -0.2974 -1.1003
  855TIP3    H2 2572   1.029   0.577   2.625  1.2899 -1.5023 -0.4709
  856TIP3   OH2 2573   0.046   1.871   2.055 -0.2148 -0.1439  0.1834
  856TIP3    H1 2574  -0.035   1.921   2.059 -0.7160 -0.9822  0.8761
  856TIP3    H2 2575   0.026   1.795   2.000  0.5183  0.3510 -0.8035
  857TIP3   OH2 2576   1.694   3.549   2.806 -0.3504  0.0818 -0.5269
  857TIP3    H1 2577   1.609   3.536   2.763 -0.7566  1.4077 -0.1598
  857TIP3    H2 2578   1.672   3.562   2.898  0.2103  0.8969 -0.5039
  858TIP3   OH2 2579   2.326   4.556   0.682 -0.3781 -0.3771  0.5406
  858TIP3    H1 2580   2.320   4.576   0.775 -0.9884  0.0986  0.4047
  858TIP3    H2 2581   2.238   4.530   0.657  0.0559 -1.7837  0.3634
  859TIP3   OH2 2582   5.089   3.323   3.669 -0.0358 -0.4682 -0.2623
  859TIP3    H1 2583   5.082   3.362   3.582 -0.9507  0.7357  0.3197
  859TIP3    H2 2584   5.009   3.271   3.679 -0.8795  0.9270  0.5551
  860TIP3   OH2 2585   1.474   3.765   3.491  0.4608 -0.1069 -0.2054
  860TIP3    H1 2586   1.399   3.722   3.534  1.0764 -0.4220  0.5705
  860TIP3    H2 2587   1.490   3.712   3.414  1.0639 -1.1719  0.6219
  861TIP3   OH2 2588   1.656   0.641   4.109  0.0539 -0.1073  0.1801
  861TIP3    H1 2589   1.717   0.574   4.141  1.2886  0.2932 -1.2272
  861TIP3    H2 2590   1.660   0.709   4.176 -1.4386 -1.4914  1.7790
  862TIP3   OH2 2591   4.008   3.089   0.260  0.2503  0.2560  0.2913
  862TIP3    H1 2592   3.993   3.127   0.173  1.8663  0.3302  0.0194
  862TIP3    H2 2593   3.969   3.002   0.255 -1.8158  1.0984  0.3143
  863TIP3   OH2 2594   4.348   3.448   4.701  0.0617 -0.2019  0.3821
  863TIP3    H1 2595   4.369   3.427   4.792  1.7825  0.6193  0.2221
  863TIP3    H2 2596   4.268   3.499   4.705 -0.3581 -0.9146  1.3476
  864TIP3   OH2 2597   3.479   0.939   0.836 -0.3616  0.0250  0.2994
  864TIP3    H1 2598   3.573   0.923   0.836 -0.3345  0.1741  0.5394
  864TIP3    H2 2599   3.462   0.987   0.755 -0.1825  0.2784  0.4103
  865TIP3   OH2 2600   4.286   4.125   2.330 -0.3040  0.4582  0.1741
  865TIP3    H1 2601   4.208   4.069   2.338  0.0439 -0.0089  0.3494
  865TIP3    H2 2602   4.340   4.080   2.265 -1.6390  2.4895 -2.5065
  866TIP3   OH2 2603   3.250   0.680   1.708 -0.0975 -0.4627 -0.1755
  866TIP3    H1 2604   3.205   0.721   1.634 -1.1012 -1.3899 -0.1035
  866TIP3    H2 2605   3.266   0.590   1.679  0.9737 -0.3867  0.1334
  867TIP3   OH2 2606   3.891   3.460   1.444  0.2359 -0.1733  0.5600
  867TIP3    H1 2607   3.947   3.479   1.519 -0.6155  1.4920  0.8102
  867TIP3    H2 2608   3.817   3.412   1.481 -0.3760  0.9850  0.8765
  868TIP3   OH2 2609   0.151   4.178   2.900  0.1523 -0.2219 -0.6451
  868TIP3    H1 2610   0.124   4.133   2.981 -0.9184 -1.9162 -1.8678
  868TIP3    H2 2611   0.085   4.246   2.887 -0.8361 -1.2313 -1.0936
  869TIP3   OH2 2612   6.309   1.262   4.487 -1.2235 -0.6022 -0.2785
  869TIP3    H1 2613   6.263   1.216   4.416 -1.1526 -1.2427  0.0817
  869TIP3    H2 2614   6.321   1.195   4.554 -1.4083  0.0358  0.3996
  870TIP3   OH2 2615   2.999   0.154   2.885  0.7693  0.5286 -0.1079
  870TIP3    H1 2616   2.940   0.085   2.855 -0.1410  1.3510 -0.2441
  870TIP3    H2 2617   3.027   0.126   2.972 -2.0794  1.4644  1.2054
  871TIP3   OH2 2618   6.124   3.747   4.548 -0.0672  0.5015 -0.5587
  871TIP3    H1 2619   6.113   3.659   4.582  1.8892  0.0417 -0.9909
  871TIP3    H2 2620   6.090   3.804   4.617 -0.9254 -0.5616 -0.0791
  872TIP3   OH2 2621   5.867   1.713   0.101 -0.2761  0.0556 -0.2959
  872TIP3    H1 2622   5.855   1.705   0.006 -1.0650 -0.5409 -0.1553
  872TIP3    H2 2623   5.804   1.779   0.128  0.8686  1.2098 -0.3568
  873TIP3   OH2 2624   4.900   1.862   1.065  0.0892 -0.0397 -0.2670
  873TIP3    H1 2625   4.940   1.823   0.987 -1.3965 -1.0010 -0.5962
  873TIP3    H2 2626   4.962   1.845   1.136 -0.2272 -2.5818 -0.5177
  874TIP3   OH2 2627   4.182   1.278   0.366  0.3920 -0.1984 -0.0026
  874TIP3    H1 2628   4.117   1.345   0.343  0.1717 -0.4257 -0.0457
  874TIP3    H2 2629   4.259   1.328   0.395  0.2757  0.0731 -0.1619
  875TIP3   OH2 2630   4.662   0.277   2.477  1.1151 -0.1424  0.6222
  875TIP3    H1 2631   4.721   0.236   2.540  3.1337  1.1436 -0.3510
  875TIP3    H2 2632   4.655   0.368   2.506 -0.4985 -0.2855  0.7623
  876TIP3   OH2 2633   6.097   5.569   3.593 -0.0803 -0.5529 -0.2953
  876TIP3    H1 2634   6.107   5.660   3.566  0.4545 -0.5929 -0.2434
  876TIP3    H2 2635   6.140   5.564   3.678  3.9871 -1.8038 -2.1708
  877TIP3   OH2 2636   0.963   4.684   2.111  0.7013  0.1023 -0.0105
  877TIP3    H1 2637   0.962   4.667   2.205  1.2030  1.7181  0.3158
  877TIP3    H2 2638   0.881   4.647   2.079  1.2889 -2.0208  0.7345
  878TIP3   OH2 2639   2.627   1.641   0.267  0.2135 -0.1915 -0.2541
  878TIP3    H1 2640   2.651   1.557   0.229 -0.3797 -0.0831 -0.8801
  878TIP3    H2 2641   2.538   1.630   0.298  0.2138  0.1357 -0.1245
  879TIP3   OH2 2642   2.327   5.346   4.163  0.5188 -0.6327 -0.4498
  879TIP3    H1 2643   2.373   5.348   4.080  1.7376 -0.9424  0.1930
  879TIP3    H2 2644   2.387   5.386   4.225 -0.0998 -0.9872  0.4050
  880TIP3   OH2 2645   5.576   3.880   5.011  0.1318  0.0504 -0.2346
  880TIP3    H1 2646   5.579   3.845   5.100  2.1012 -0.4701 -0.4652
  880TIP3    H2 2647   5.661   3.857   4.973  0.0608  1.8929 -1.6372
  881TIP3   OH2 2648   6.282   4.846   2.225  0.1890 -0.0271  0.2824
  881TIP3    H1 2649   6.359   4.854   2.281  0.1294  0.7167  0.2607
  881TIP3    H2 2650   6.258   4.753   2.230  1.0532 -0.2531  0.3306
  882TIP3   OH2 2651   1.423   2.572   3.669 -0.3086  0.6602  0.3311
  882TIP3    H1 2652   1.353   2.531   3.619 -0.6402 -1.1308  2.1312
  882TIP3    H2 2653   1.404   2.666   3.664 -0.8174  0.4897 -2.0506
  883TIP3   OH2 2654   6.104   3.478   4.603 -0.3590  0.0189  0.5613
  883TIP3    H1 2655   6.174   3.442   4.658  1.0394 -0.5673 -1.4786
  883TIP3    H2 2656   6.025   3.434   4.632  0.3607 -0.4411  1.9136
  884TIP3   OH2 2657   4.002   5.567   0.564  0.6148 -0.2546  0.1726
  884TIP3    H1 2658   3.970   5.488   0.520  1.9470 -0.6105 -0.1972
  884TIP3    H2 2659   4.085   5.587   0.521 -0.5366  2.4647 -1.0661
  885TIP3   OH2 2660   2.568   1.977   2.843  0.0334 -0.2930 -0.3353
  885TIP3    H1 2661   2.620   1.917   2.896 -0.0698 -1.7318 -1.7788
  885TIP3    H2 2662   2.493   1.925   2.814 -1.1429  1.1497  0.0119
  886TIP3   OH2 2663   2.653   4.945   3.441 -0.1214  0.3556  0.3003
  886TIP3    H1 2664   2.665   4.881   3.511  1.8735  0.9577  0.5769
  886TIP3    H2 2665   2.595   5.011   3.478 -0.6249 -0.3030  0.6993
  887TIP3   OH2 2666   4.878   1.136   0.658 -0.1840 -0.1892 -0.5720
  887TIP3    H1 2667   4.795   1.121   0.613 -1.3065  0.5324  1.1290
  887TIP3    H2 2668   4.910   1.048   0.680 -0.4476 -0.4756 -1.3184
  888TIP3   OH2 2669   4.113   4.821   2.503 -0.5915  0.0150 -0.4433
  888TIP3    H1 2670   4.084   4.848   2.590 -1.2471 -1.4914 -0.1503
  888TIP3    H2 2671   4.203   4.851   2.496 -0.3323 -0.3874  1.0167
  889TIP3   OH2 2672   2.518   1.431   4.202 -0.1056 -0.2103  0.0466
  889TIP3    H1 2673   2.609   1.444   4.226 -0.0970 -2.5671  1.5876
  889TIP3    H2 2674   2.478   1.518   4.211  1.5276  0.4427  1.4412
  890TIP3   OH2 2675   0.811   0.071   4.427  0.3988  0.4413 -0.0306
  890TIP3    H1 2676   0.740   0.124   4.464 -0.4530 -0.4726 -0.2981
  890TIP3    H2 2677   0.852   0.129   4.362 -0.0725  1.0021  0.1563
  891TIP3   OH2 2678   1.958   4.569   4.659 -0.1195 -0.8742 -0.4259
  891TIP3    H1 2679   2.023   4.630   4.695  0.3372 -0.2380 -2.2121
  891TIP3    H2 2680   2.003   4.528   4.584 -1.2211 -1.6767 -0.6769
  892TIP3   OH2 2681   0.023   1.852   4.003  0.2206  0.0468 -0.2420
  892TIP3    H1 2682  -0.020   1.936   3.985  0.0338 -0.3027 -1.5061
  892TIP3    H2 2683   0.073   1.868   4.083 -1.6755  0.6743  0.9130
  893TIP3   OH2 2684   4.967   5.307   1.152 -0.0066  0.2007 -0.1536
  893TIP3    H1 2685   4.934   5.245   1.088  0.4943 -1.0792  0.7920
  893TIP3    H2 2686   5.061   5.292   1.154 -0.0069  0.2726  0.8332
  894TIP3   OH2 2687   4.896   4.002   4.539  0.1088  0.6665 -0.1393
  894TIP3    H1 2688   4.879   4.082   4.488  0.0049  1.7532  1.5104
  894TIP3    H2 2689   4.990   3.986   4.527  0.1235  1.0060 -0.5232
  895TIP3   OH2 2690   4.704   0.651   0.662 -0.5808 -0.9139  0.4333
  895TIP3    H1 2691   4.771   0.687   0.721 -0.9147 -0.5166  0.5784
  895TIP3    H2 2692   4.643   0.724   0.650 -1.6833 -1.6626  1.3374
  896TIP3   OH2 2693   0.987   5.258   3.508 -0.4509 -0.1718  0.3963
  896TIP3    H1 2694   1.038   5.273   3.428  2.9058 -0.6925  2.2634
  896TIP3    H2 2695   0.942   5.175   3.492  3.8992 -2.8728  0.5480
  897TIP3   OH2 2696   0.880   5.423   3.744  0.3425  0.6715  0.1962
  897TIP3    H1 2697   0.900   5.360   3.674  0.8446  0.4460  0.5363
  897TIP3    H2 2698   0.858   5.368   3.819 -2.0896  0.8892 -0.2742
  898TIP3   OH2 2699   0.349   2.210   1.677  0.2099 -0.0048 -0.3385
  898TIP3    H1 2700   0.280   2.228   1.613 -0.4921 -1.4729 -0.0460
  898TIP3    H2 2701   0.322   2.256   1.756 -0.5110 -0.6500 -0.1961
  899TIP3   OH2 2702   1.021   3.064   0.016 -0.6418 -0.0512 -0.1214
  899TIP3    H1 2703   1.110   3.098   0.010 -0.1335 -1.5218 -1.4577
  899TIP3    H2 2704   1.022   3.008   0.093 -0.1754 -0.6628 -0.5612
  900TIP3   OH2 2705   0.124   1.338   1.837 -0.9520  0.3234  0.2959
  900TIP3    H1 2706   0.203   1.321   1.785 -1.2459 -0.1194 -0.0143
  900TIP3    H2 2707   0.052   1.325   1.775 -1.2151  2.8627 -0.0192
  901TIP3   OH2 2708   1.793   5.267   1.612 -0.3165  0.4504  0.2763
  901TIP3    H1 2709   1.752   5.348   1.643  1.8295  0.5619  3.1752
  901TIP3    H2 2710   1.853   5.296   1.543 -0.1630  1.2504  0.7330
  902TIP3   OH2 2711   3.632   1.517   0.382  0.6209  0.2294  0.3320
  902TIP3    H1 2712   3.551   1.489   0.338  1.6514 -1.4583 -0.5729
  902TIP3    H2 2713   3.678   1.567   0.315  1.2894 -0.6503  0.1220
  903TIP3   OH2 2714   5.227   5.763   0.746  0.1509 -1.1407  0.1193
  903TIP3    H1 2715   5.264   5.849   0.767  1.1314 -1.8584  1.4461
  903TIP3    H2 2716   5.134   5.780   0.733  0.1956  0.0126  1.1204
  904TIP3   OH2 2717   2.440   0.973   0.406 -0.6346  0.5185  0.7714
  904TIP3    H1 2718   2.432   0.984   0.501 -0.3196 -0.3853  0.9106
  904TIP3    H2 2719   2.353   0.992   0.372 -0.8087  0.6157  1.2635
  905TIP3   OH2 2720   5.988   2.993   0.396 -0.0712 -0.2578  0.1600
  905TIP3    H1 2721   6.053   2.987   0.326  0.3415 -1.1364  0.6092
  905TIP3    H2 2722   6.035   2.966   0.475 -0.7222  0.0384  0.6568
  906TIP3   OH2 2723   5.729   3.866   2.038  0.3315  0.4388 -0.0566
  906TIP3    H1 2724   5.717   3.831   1.949 -0.0299 -0.7607  0.4456
  906TIP3    H2 2725   5.777   3.948   2.025 -0.0129  0.4551 -1.3861
  907TIP3   OH2 2726   2.246   3.531   2.251 -0.1817 -0.3926  0.0514
  907TIP3    H1 2727   2.232   3.582   2.331  0.3907 -0.2660  0.0717
  907TIP3    H2 2728   2.226   3.441   2.275 -1.4368 -0.1590 -0.0424
  908TIP3   OH2 2729   2.450   5.494   4.357 -0.0088 -0.7136 -0.7979
  908TIP3    H1 2730   2.533   5.500   4.405 -1.0094  0.7440  0.8862
  908TIP3    H2 2731   2.386   5.535   4.415 -2.0201 -2.1986 -1.8486
  909TIP3   OH2 2732   2.294   2.288   0.398  0.3080 -0.0376 -0.4115
  909TIP3    H1 2733   2.304   2.334   0.315  0.7444  0.7512  0.0672
  909TIP3    H2 2734   2.382   2.290   0.437 -0.0658  0.3183  0.4296
  910TIP3   OH2 2735   2.635   0.620   0.999  0.4889 -0.4786 -0.6222
  910TIP3    H1 2736   2.544   0.610   0.972 -0.1854 -0.1234  1.3177
  910TIP3    H2 2737   2.636   0.703   1.047  1.7393 -0.6752 -0.2919
  911TIP3   OH2 2738   5.177   0.371   3.545  0.2711 -0.4296 -0.1538
  911TIP3    H1 2739   5.128   0.337   3.620 -0.1207  0.3036 -0.0645
  911TIP3    H2 2740   5.118   0.360   3.471  1.3570 -2.8887 -0.7412
  912TIP3   OH2 2741   3.011   3.234   2.161 -0.3659  0.1344  0.4038
  912TIP3    H1 2742   3.001   3.191   2.076 -0.1765 -0.2376  0.5629
  912TIP3    H2 2743   2.933   3.209   2.210 -1.1486  1.4579 -0.1124
  913TIP3   OH2 2744   0.148   3.754   1.303 -0.0835  0.1988  0.6032
  913TIP3    H1 2745   0.222   3.745   1.243  0.3355  0.9491  0.9925
  913TIP3    H2 2746   0.187   3.780   1.386 -0.5642 -1.5945  1.4600
  914TIP3   OH2 2747   1.047   3.661   5.039  0.3272 -0.5776 -0.0844
  914TIP3    H1 2748   1.118   3.685   5.098 -1.0645  1.5512  0.8617
  914TIP3    H2 2749   0.979   3.627   5.097 -0.7183  0.6787 -0.5287
  915TIP3   OH2 2750   1.385   5.765   1.345 -0.2084  0.1177  0.1255
  915TIP3    H1 2751   1.427   5.798   1.265  0.3462 -0.2090  0.2812
  915TIP3    H2 2752   1.294   5.747   1.318  0.1384 -0.5947 -0.5955
  916TIP3   OH2 2753   4.867   4.018   0.798  0.0731 -0.2617  0.1766
  916TIP3    H1 2754   4.957   4.013   0.831 -0.5305 -0.3480  1.9335
  916TIP3    H2 2755   4.828   3.935   0.825 -0.5378 -0.2436 -0.6199
  917TIP3   OH2 2756   1.477   3.119   0.343 -0.1468  0.4325 -0.4217
  917TIP3    H1 2757   1.441   3.048   0.290  0.2976  0.1301 -0.3260
  917TIP3    H2 2758   1.481   3.082   0.431 -0.0872  0.6439 -0.3366
  918TIP3   OH2 2759   3.609   4.740   4.912  0.0252  0.1957 -0.1360
  918TIP3    H1 2760   3.565   4.824   4.923  0.5763  0.6469 -1.1942
  918TIP3    H2 2761   3.688   4.761   4.861 -0.6674 -1.1812 -1.8861
  919TIP3   OH2 2762   4.244   4.802   0.890 -0.7827 -0.4076  0.4095
  919TIP3    H1 2763   4.170   4.803   0.830  0.9348 -1.9697 -1.8897
  919TIP3    H2 2764   4.263   4.709   0.902 -0.1649 -0.0818  2.2732
  920TIP3   OH2 2765   1.495   1.032   1.954 -0.3910 -0.6958 -0.1716
  920TIP3    H1 2766   1.453   1.034   1.867 -0.9599 -0.3097  0.1078
  920TIP3    H2 2767   1.436   0.979   2.008 -0.3554 -0.4195  0.1406
  921TIP3   OH2 2768   3.008   2.375   3.760  0.0188 -0.3084  0.1684
  921TIP3    H1 2769   2.950   2.448   3.742 -0.1815 -0.7086 -0.8839
  921TIP3    H2 2770   2.949   2.300   3.773  0.2489 -1.2214 -3.1516
  922TIP3   OH2 2771   1.383   0.325   4.966  0.4308  0.4394  0.0033
  922TIP3    H1 2772   1.292   0.351   4.956  1.0395  2.8876  0.0069
  922TIP3    H2 2773   1.419   0.327   4.877  0.3615 -1.1029 -0.0747
  923TIP3   OH2 2774   2.558   0.567   0.174 -0.1582 -0.1801 -0.7158
  923TIP3    H1 2775   2.470   0.604   0.176 -0.0798  0.0598  1.5516
  923TIP3    H2 2776   2.547   0.476   0.199  0.2294 -0.1090 -0.2552
  924TIP3   OH2 2777   3.310   5.924   2.911  0.4742 -0.0704 -0.0355
  924TIP3    H1 2778   3.319   5.935   3.006  1.8279 -2.5994  0.2340
  924TIP3    H2 2779   3.400   5.928   2.878  0.4067 -2.3940 -0.7055
  925TIP3   OH2 2780   4.482   2.741   1.309 -0.1900  0.4687  0.8826
  925TIP3    H1 2781   4.441   2.656   1.326 -1.9807  0.9545 -0.6431
  925TIP3    H2 2782   4.414   2.805   1.327  0.6984  1.5011  0.6917
  926TIP3   OH2 2783   3.826   2.781   4.100  0.5879 -0.1933  0.2081
  926TIP3    H1 2784   3.735   2.793   4.071  0.8045  1.6743  0.2006
  926TIP3    H2 2785   3.826   2.694   4.140 -1.2446 -0.1926  0.3302
  927TIP3   OH2 2786   0.160   4.476   0.772 -0.4598  0.0573 -0.4069
  927TIP3    H1 2787   0.162   4.380   0.777  0.5552  0.0860  0.1345
  927TIP3    H2 2788   0.078   4.501   0.814 -1.6006 -0.6346 -2.1057
  928TIP3   OH2 2789   0.465   3.213   2.438 -0.1972  0.8740 -0.3510
  928TIP3    H1 2790   0.434   3.123   2.431 -0.2563  0.6922  1.6495
  928TIP3    H2 2791   0.388   3.266   2.417 -1.1054  0.4184  1.6066
  929TIP3   OH2 2792   3.886   2.724   0.440 -0.6919 -0.6547 -0.1040
  929TIP3    H1 2793   3.892   2.715   0.536 -0.0917  0.4203 -0.0228
  929TIP3    H2 2794   3.795   2.705   0.420 -1.1006  0.2327  0.8215
  930TIP3   OH2 2795   4.616   1.757   3.218  0.3061  0.2950  0.5052
  930TIP3    H1 2796   4.691   1.782   3.164  0.0008  1.5944  0.6644
  930TIP3    H2 2797   4.652   1.744   3.305  0.3224  1.1368  0.6308
  931TIP3   OH2 2798   1.341   3.798   2.424  0.2046  0.5576  0.1951
  931TIP3    H1 2799   1.395   3.832   2.353  1.1326  1.6695  1.3856
  931TIP3    H2 2800   1.253   3.833   2.406  0.2331  0.1672 -0.8050
  932TIP3   OH2 2801   3.877   3.960   3.235 -0.3055 -0.3309 -0.2524
  932TIP3    H1 2802   3.900   3.888   3.176  0.8951 -0.8741  0.8314
  932TIP3    H2 2803   3.822   4.018   3.182 -1.6553 -2.2252 -1.0461
  933TIP3   OH2 2804   4.604   1.506   5.124  0.0983  0.3669  0.2281
  933TIP3    H1 2805   4.564   1.501   5.211  0.1342  1.8902  0.3607
  933TIP3    H2 2806   4.658   1.427   5.119  0.4534  0.4630  1.7803
  934TIP3   OH2 2807   4.525   4.775   0.861 -0.1017  0.5110 -0.1707
  934TIP3    H1 2808   4.536   4.681   0.846  0.1065  0.6633 -1.0754
  934TIP3    H2 2809   4.431   4.790   0.846 -0.3870  0.2489  1.2440
  935TIP3   OH2 2810   4.088   2.609   0.911  0.3700  0.6384 -0.0996
  935TIP3    H1 2811   4.177   2.630   0.884  1.2154 -1.1348  1.1239
  935TIP3    H2 2812   4.067   2.529   0.863 -0.0466  0.3161  0.6047
  936TIP3   OH2 2813   5.913   5.665   3.247  0.2643 -0.2750 -0.0488
  936TIP3    H1 2814   5.947   5.629   3.165  0.1305  0.7391 -0.5709
  936TIP3    H2 2815   5.886   5.588   3.298  2.6604 -1.0810  0.1105
  937TIP3   OH2 2816   2.596   1.499   2.690  0.8081 -0.0281  0.1497
  937TIP3    H1 2817   2.556   1.560   2.628 -0.1860 -0.5119  0.2908
  937TIP3    H2 2818   2.646   1.438   2.635  1.3018  0.5404 -0.0383
  938TIP3   OH2 2819   3.077   5.781   0.025 -0.0516 -0.8198  0.6094
  938TIP3    H1 2820   3.138   5.735  -0.032  0.7895 -0.0533  0.8673
  938TIP3    H2 2821   3.043   5.714   0.083  0.2992 -1.3174  0.2516
  939TIP3   OH2 2822   0.266   0.707   3.922  0.5166  0.6313 -0.0882
  939TIP3    H1 2823   0.173   0.692   3.910  1.0182 -2.4992 -0.9243
  939TIP3    H2 2824   0.290   0.770   3.854 -0.6346 -0.1857 -1.2877
  940TIP3   OH2 2825   0.046   1.268   1.468  0.1140 -0.0562  0.3576
  940TIP3    H1 2826   0.011   1.307   1.387  0.0134 -2.0624 -0.6175
  940TIP3    H2 2827  -0.013   1.299   1.536 -0.6145  0.5904 -0.5296
  941TIP3   OH2 2828   2.606   3.112   2.464  0.1356  0.0888 -0.1939
  941TIP3    H1 2829   2.571   3.200   2.479 -0.2308 -0.1973  0.7391
  941TIP3    H2 2830   2.529   3.058   2.447  0.1951 -0.3530  0.8661
  942TIP3   OH2 2831   1.049   4.911   2.996  0.1350 -0.8681  0.7064
  942TIP3    H1 2832   1.071   4.861   2.917 -2.5654 -0.3883 -0.4727
  942TIP3    H2 2833   1.093   4.996   2.984  0.4274 -1.0939  0.1388
  943TIP3   OH2 2834   5.135   1.173   5.112 -0.4587 -0.0588 -0.2898
  943TIP3    H1 2835   5.220   1.213   5.095  0.4175 -1.2878  0.9778
  943TIP3    H2 2836   5.142   1.086   5.074 -1.3098 -0.0342 -0.5180
  944TIP3   OH2 2837   5.977   3.550   1.674  0.2178  0.6745 -0.7840
  944TIP3    H1 2838   5.992   3.606   1.751 -0.1832  0.5889 -0.6429
  944TIP3    H2 2839   6.026   3.470   1.693 -1.1072  0.0321  0.0869
  945TIP3   OH2 2840   1.126   5.334   0.877  0.1557  0.1585  0.6596
  945TIP3    H1 2841   1.054   5.394   0.898 -0.0050  0.3274 -0.3223
  945TIP3    H2 2842   1.113   5.313   0.784  1.7724  0.7512  0.2644
  946TIP3   OH2 2843   6.256   5.541   1.404  0.2111 -0.2344 -0.0322
  946TIP3    H1 2844   6.336   5.529   1.352  0.2024 -0.5443  0.0258
  946TIP3    H2 2845   6.201   5.467   1.381  0.3664 -0.5939  0.7121
  947TIP3   OH2 2846   1.800   0.427   0.870 -0.2947  0.2226 -0.8356
  947TIP3    H1 2847   1.783   0.451   0.961  1.6585 -1.5672  0.0914
  947TIP3    H2 2848   1.844   0.503   0.833 -0.5317  0.7353 -0.0899
  948TIP3   OH2 2849   4.878   0.516   4.523  0.4979 -0.1635  0.1840
  948TIP3    H1 2850   4.967   0.497   4.554  0.5471 -0.4110 -0.1120
  948TIP3    H2 2851   4.845   0.433   4.491  0.4076  0.0718 -0.3381
  949TIP3   OH2 2852   0.915   0.269   2.464  0.5893 -0.3295 -0.1487
  949TIP3    H1 2853   0.992   0.322   2.442  0.3486  0.4092  0.7436
  949TIP3    H2 2854   0.950   0.191   2.507  0.9223 -0.7320 -1.1230
  950TIP3   OH2 2855   1.961   5.707   4.074  0.0178 -0.5786  0.2289
  950TIP3    H1 2856   2.023   5.669   4.136  1.6248 -1.5811 -1.8478
  950TIP3    H2 2857   1.987   5.799   4.067  0.6302 -0.7468  0.1780
  951TIP3   OH2 2858   1.146   3.629   1.409  0.0529  0.4693  0.0460
  951TIP3    H1 2859   1.183   3.660   1.327  0.0854  2.1168  0.6456
  951TIP3    H2 2860   1.136   3.534   1.397  1.0978  0.5162 -1.4264
  952TIP3   OH2 2861   4.074   0.987   1.796 -0.2845  0.0712 -0.1869
  952TIP3    H1 2862   3.996   1.037   1.771  0.6940  1.4022 -0.6983
  952TIP3    H2 2863   4.096   0.936   1.719 -0.5958 -0.2365 -0.0727
  953TIP3   OH2 2864   0.140   0.111   0.972 -0.4463  0.0313 -0.4662
  953TIP3    H1 2865   0.172   0.052   0.904 -0.5719  0.3967 -0.8457
  953TIP3    H2 2866   0.045   0.099   0.970 -0.5672  1.0074 -1.2630
  954TIP3   OH2 2867   3.312   5.100   0.317  0.3701 -0.8193 -0.0522
  954TIP3    H1 2868   3.235   5.117   0.263  1.3584 -1.9486 -1.9278
  954TIP3    H2 2869   3.316   5.004   0.322  0.3008 -0.7469  2.1031
  955TIP3   OH2 2870   2.166   3.907   3.527  0.1805 -0.5580 -0.3245
  955TIP3    H1 2871   2.171   3.990   3.480  0.1430 -0.6250 -0.4460
  955TIP3    H2 2872   2.236   3.854   3.489  1.7596  0.2172  1.3223
  956TIP3   OH2 2873   2.899   1.910   3.081 -0.4706  0.6123  0.2750
  956TIP3    H1 2874   2.846   1.844   3.036  1.0891  0.7478 -1.9861
  956TIP3    H2 2875   2.840   1.983   3.096 -1.1786  0.4223 -1.3565
  957TIP3   OH2 2876   4.920   2.333   2.379  0.2519 -0.1016 -0.0713
  957TIP3    H1 2877   4.881   2.420   2.373  0.4570  0.1655  1.8537
  957TIP3    H2 2878   5.015   2.350   2.378  0.2923 -0.3069  0.2829
  958TIP3   OH2 2879   1.823   2.723   0.537 -0.1331 -0.4449  0.0358
  958TIP3    H1 2880   1.795   2.761   0.454  2.2855  1.5335  0.0030
  958TIP3    H2 2881   1.853   2.635   0.515  0.7761  0.1637 -1.2644
  959TIP3   OH2 2882   0.012   1.602   3.076  0.2323 -0.1396 -0.5336
  959TIP3    H1 2883   0.090   1.573   3.124 -0.2722 -2.8163 -1.1960
  959TIP3    H2 2884   0.041   1.610   2.985  0.7959  3.4464 -0.2050
  960TIP3   OH2 2885   4.199   2.632   3.308 -0.6820 -0.2117 -0.0300
  960TIP3    H1 2886   4.242   2.715   3.287 -0.1939 -0.3297  0.4671
  960TIP3    H2 2887   4.117   2.657   3.350 -0.5340  0.0282  0.1196
  961TIP3   OH2 2888   1.604   2.727   0.078  1.1337  0.0795  0.6780
  961TIP3    H1 2889   1.578   2.717   0.170 -0.7880  2.5732  0.5231
  961TIP3    H2 2890   1.547   2.668   0.030 -0.4631  1.4316  0.8357
  962TIP3   OH2 2891   1.035   1.033   3.895 -0.1219 -0.1861 -0.4227
  962TIP3    H1 2892   1.045   0.959   3.836  2.7905 -1.8329  1.8176
  962TIP3    H2 2893   0.969   1.005   3.958  0.6324 -0.7455  0.1427
  963TIP3   OH2 2894   0.290   1.907   3.919 -0.2230  0.5320 -0.2837
  963TIP3    H1 2895   0.315   1.946   4.003 -0.0512  0.4902 -0.3164
  963TIP3    H2 2896   0.217   1.849   3.940 -0.3293  0.6946 -0.1983
  964TIP3   OH2 2897   3.939   2.190   4.066 -0.4715 -0.7375  1.0333
  964TIP3    H1 2898   3.862   2.247   4.067  0.1388  0.2219 -1.1239
  964TIP3    H2 2899   3.904   2.102   4.076 -2.0220 -0.4173 -1.0317
  965TIP3   OH2 2900   3.424   4.381   3.019 -0.1572 -0.1691 -0.8011
  965TIP3    H1 2901   3.367   4.354   2.947  0.5306  0.3958 -1.5793
  965TIP3    H2 2902   3.490   4.312   3.024  0.8417  0.6592 -1.9293
  966TIP3   OH2 2903   0.852   0.433   0.122  0.1757  0.8298  1.0035
  966TIP3    H1 2904   0.850   0.355   0.068 -0.9086  1.2747  0.3702
  966TIP3    H2 2905   0.943   0.441   0.150  0.1929 -0.9497  1.5408
  967TIP3   OH2 2906   4.480   4.878   0.180  0.0859  0.0921 -0.0105
  967TIP3    H1 2907   4.465   4.784   0.194 -1.9135  0.4731  0.8004
  967TIP3    H2 2908   4.465   4.891   0.086  0.0538 -0.3593 -0.0691
  968TIP3   OH2 2909   2.312   3.955   4.830 -0.7081 -0.0002 -0.4946
  968TIP3    H1 2910   2.391   3.909   4.802 -1.2466 -1.3021 -0.0012
  968TIP3    H2 2911   2.243   3.920   4.774 -1.3677 -0.8506  0.7947
  969TIP3   OH2 2912   5.135   2.069   4.645 -0.0004 -0.3878  0.1067
  969TIP3    H1 2913   5.226   2.095   4.661  0.2071  0.7328 -2.3321
  969TIP3    H2 2914   5.088   2.099   4.722  1.5214  0.0845  0.9038
  970TIP3   OH2 2915   1.188   5.800   3.376  0.6959  0.3782 -0.2351
  970TIP3    H1 2916   1.150   5.722   3.335  1.7474 -0.8210  0.9760
  970TIP3    H2 2917   1.150   5.802   3.464  1.9361  0.2287  0.3328
  971TIP3   OH2 2918   4.900   5.460   4.309 -0.2909  0.4617  0.0426
  971TIP3    H1 2919   4.905   5.476   4.214  1.2375 -2.0967 -0.4017
  971TIP3    H2 2920   4.960   5.524   4.347 -0.5199  1.1683 -0.7434
  972TIP3   OH2 2921   0.757   0.671   0.158  0.3400 -0.3316  0.1455
  972TIP3    H1 2922   0.786   0.580   0.144  1.3165 -0.1759  0.9775
  972TIP3    H2 2923   0.753   0.709   0.071  2.5484 -0.4377 -0.0738
  973TIP3   OH2 2924   5.181   3.782   1.431  0.5221 -0.1969 -0.1694
  973TIP3    H1 2925   5.223   3.866   1.447 -1.1673  0.5613  0.5157
  973TIP3    H2 2926   5.241   3.717   1.469  0.8706  0.8674  1.1672
  974TIP3   OH2 2927   6.286   3.006   0.705  0.2627  0.0734 -0.5321
  974TIP3    H1 2928   6.239   3.081   0.670  2.7851  2.3480  0.5864
  974TIP3    H2 2929   6.376   3.018   0.675  1.4432 -0.6854  2.3446
  975TIP3   OH2 2930   4.692   4.156   2.106 -0.2785  0.2551 -0.2954
  975TIP3    H1 2931   4.784   4.129   2.110 -0.1099  0.7578 -0.6810
  975TIP3    H2 2932   4.664   4.159   2.197 -0.0828 -0.4783 -0.2058
  976TIP3   OH2 2933   1.631   4.163   3.775  0.0112 -0.4600  0.3313
  976TIP3    H1 2934   1.575   4.212   3.835 -0.3860 -0.6832  0.1525
  976TIP3    H2 2935   1.590   4.076   3.771  0.6438 -0.7731  0.5647
  977TIP3   OH2 2936   5.983   1.812   2.198 -0.5214 -0.1235 -0.3635
  977TIP3    H1 2937   5.895   1.830   2.232 -0.1727  0.9011  0.0503
  977TIP3    H2 2938   6.031   1.776   2.273 -0.7422 -1.2539 -0.7483
  978TIP3   OH2 2939   2.728   4.698   4.633  0.0241 -0.6855  0.7588
  978TIP3    H1 2940   2.661   4.699   4.701 -2.2484  2.6547 -1.2530
  978TIP3    H2 2941   2.698   4.631   4.571 -1.3035  0.4692  0.1014
  979TIP3   OH2 2942   6.188   0.746   4.917  0.2249  1.1255 -0.6921
  979TIP3    H1 2943   6.252   0.755   4.988 -0.9172 -0.6776  0.6411
  979TIP3    H2 2944   6.179   0.834   4.882  0.9829  2.0403  1.2691
  980TIP3   OH2 2945   1.434   1.904   2.313 -0.4408  0.0647  0.6174
  980TIP3    H1 2946   1.463   1.978   2.366 -1.1398  0.1746  0.8611
  980TIP3    H2 2947   1.386   1.848   2.375 -0.3764 -0.3240  0.3209
  981TIP3   OH2 2948   1.916   2.416   4.709  0.2129 -0.5837  0.4112
  981TIP3    H1 2949   1.822   2.434   4.704  0.0097 -1.6779 -0.0551
  981TIP3    H2 2950   1.923   2.320   4.705  1.3948 -0.4916 -0.6636
  982TIP3   OH2 2951   5.229   5.386   0.233 -0.2986  0.6203 -0.1672
  982TIP3    H1 2952   5.159   5.353   0.290  0.5433  0.8451  1.0393
  982TIP3    H2 2953   5.285   5.311   0.218 -0.0279  0.7745  0.0626
  983TIP3   OH2 2954   0.735   0.361   1.185 -0.2548  0.1546 -0.5593
  983TIP3    H1 2955   0.699   0.288   1.133 -0.2619 -0.1059 -0.1913
  983TIP3    H2 2956   0.660   0.396   1.232  0.1851 -1.4832  1.5576
  984TIP3   OH2 2957   1.756   2.447   0.221  0.0898  0.5483 -0.0120
  984TIP3    H1 2958   1.668   2.483   0.212 -0.4984 -0.9962 -0.7834
  984TIP3    H2 2959   1.782   2.469   0.310 -1.1277  0.9361  0.2678
  985TIP3   OH2 2960   3.345   5.071   4.448 -0.0603 -0.6451  0.4556
  985TIP3    H1 2961   3.262   5.068   4.497 -0.8700 -0.5183 -0.8603
  985TIP3    H2 2962   3.388   5.151   4.479  0.5901 -1.7731  2.6885
  986TIP3   OH2 2963   4.083   1.159   4.685 -0.6922  0.1797  0.3215
  986TIP3    H1 2964   4.116   1.201   4.764 -3.1926  0.1046  1.4898
  986TIP3    H2 2965   4.061   1.070   4.713 -1.2656  0.0363 -0.5485
  987TIP3   OH2 2966   2.115   1.158   2.267  0.3092  0.1425  0.1253
  987TIP3    H1 2967   2.172   1.163   2.344 -0.1534  2.2220  0.4111
  987TIP3    H2 2968   2.154   1.219   2.204 -0.8167  0.5505 -0.2007
  988TIP3   OH2 2969   0.702   1.357   0.175  0.0195  0.8166  0.1075
  988TIP3    H1 2970   0.777   1.411   0.148  0.7395 -1.0238 -1.8377
  988TIP3    H2 2971   0.630   1.388   0.120 -0.3735  1.7388  1.0988
  989TIP3   OH2 2972   1.256   4.587   2.568 -0.0970 -0.8276  0.5657
  989TIP3    H1 2973   1.331   4.641   2.543  0.6187 -1.8869  0.3407
  989TIP3    H2 2974   1.259   4.513   2.508 -2.4607  0.0173 -0.7225
  990TIP3   OH2 2975   5.164   3.787   2.129  0.3249  0.1778  0.1776
  990TIP3    H1 2976   5.232   3.762   2.191  1.1224  1.2023 -0.2616
  990TIP3    H2 2977   5.170   3.723   2.059  0.7669  0.1906  0.2008
  991TIP3   OH2 2978   2.131   1.163   4.189  0.0381  1.1694 -0.1670
  991TIP3    H1 2979   2.080   1.234   4.229 -0.6701  0.2133  0.6726
  991TIP3    H2 2980   2.202   1.208   4.143  0.1946  2.3911  1.1919
  992TIP3   OH2 2981   4.081   3.148   3.489 -0.4702 -0.4397 -0.4084
  992TIP3    H1 2982   4.100   3.055   3.475  0.2384 -0.3185 -0.2771
  992TIP3    H2 2983   4.158   3.193   3.455  0.9013 -0.0665  2.8076
  993TIP3   OH2 2984   5.753   3.170   1.803 -0.1684  0.0018 -0.1134
  993TIP3    H1 2985   5.679   3.155   1.744  0.2606  1.5881 -1.1424
  993TIP3    H2 2986   5.765   3.265   1.802  0.5398 -0.0339  1.7368
  994TIP3   OH2 2987   2.164   0.537   3.586  0.4246  0.3123  0.0413
  994TIP3    H1 2988   2.156   0.601   3.657 -2.1655  0.6804 -0.4682
  994TIP3    H2 2989   2.127   0.582   3.509 -1.5128 -1.7538 -0.3305
  995TIP3   OH2 2990   6.164   1.714   2.377  0.0130  0.4796  0.3153
  995TIP3    H1 2991   6.202   1.790   2.422 -2.4124  3.0970 -1.7146
  995TIP3    H2 2992   6.236   1.681   2.322  0.6969  2.4336 -0.0517
  996TIP3   OH2 2993   4.662   2.415   1.107 -0.1740  0.3008 -0.4038
  996TIP3    H1 2994   4.717   2.368   1.169  0.8692  1.4826 -0.4032
  996TIP3    H2 2995   4.685   2.507   1.119 -2.6466  0.9532  0.1084
  997TIP3   OH2 2996   1.399   5.734   1.634 -0.0397 -0.2614  0.1070
  997TIP3    H1 2997   1.408   5.697   1.545  1.0795  0.0357  0.0772
  997TIP3    H2 2998   1.316   5.781   1.632 -0.3077 -0.7406 -0.6100
  998TIP3   OH2 2999   0.368   4.136   3.989 -0.1217 -0.1495 -0.0315
  998TIP3    H1 3000   0.404   4.180   4.066 -2.0242  0.7349  0.4144
  998TIP3    H2 3001   0.341   4.207   3.931  0.0754 -0.7956 -0.9318
  999TIP3   OH2 3002   1.682   3.225   3.219 -1.1233 -0.6295  0.0187
  999TIP3    H1 3003   1.697   3.150   3.277 -2.7814 -0.5124  0.6528
  999TIP3    H2 3004   1.757   3.282   3.233  0.2784 -2.2455 -0.6292
 1000TIP3   OH2 3005   2.573   3.926   2.875  0.0663 -0.2190  0.3506
 1000TIP3    H1 3006   2.540   3.992   2.815  0.1763 -0.5035 -0.0294
 1000TIP3    H2 3007   2.499   3.904   2.930 -0.1086 -0.1373  0.1488
 1001TIP3   OH2 3008   2.460   0.345   2.361 -0.3115 -0.1080 -0.0348
 1001TIP3    H1 3009   2.433   0.366   2.272 -0.8667  3.1375  0.7822
 1001TIP3    H2 3010   2.534   0.403   2.378 -0.1316 -0.7524  1.5679
 1002TIP3   OH2 3011   3.758   1.634   1.434 -0.1727  0.3504  0.0343
 1002TIP3    H1 3012   3.764   1.651   1.528 -1.2908  0.9473  0.0157
 1002TIP3    H2 3013   3.681   1.578   1.425 -0.5252  0.9214 -0.5900
 1003TIP3   OH2 3014   1.992   2.597   4.433 -0.6370  0.1056  0.4749
 1003TIP3    H1 3015   1.975   2.602   4.527  1.3538  0.7645  0.8546
 1003TIP3    H2 3016   2.005   2.504   4.415 -0.8961 -0.0089  0.8826
 1004TIP3   OH2 3017   2.307   4.923   5.162  0.1074  0.3146 -0.3542
 1004TIP3    H1 3018   2.224   4.920   5.209 -0.5030  4.1114 -0.8953
 1004TIP3    H2 3019   2.282   4.917   5.069  0.5365  0.5525 -0.4861
 1005TIP3   OH2 3020   0.464   3.000   2.763  0.0325 -0.3751  0.1064
 1005TIP3    H1 3021   0.421   2.949   2.831  0.2432  0.1981  0.6785
 1005TIP3    H2 3022   0.556   2.976   2.769  0.0391 -0.3831 -0.0253
 1006TIP3   OH2 3023   3.326   2.468   0.968 -0.5310 -0.0797  0.2847
 1006TIP3    H1 3024   3.339   2.523   1.045 -4.0886 -0.1707  1.1264
 1006TIP3    H2 3025   3.245   2.501   0.929  0.4880 -0.8348 -2.7883
 1007TIP3   OH2 3026   4.939   1.174   2.741 -0.5925  0.1923  0.1225
 1007TIP3    H1 3027   4.870   1.126   2.786  0.4197 -0.0868  1.4287
 1007TIP3    H2 3028   4.932   1.146   2.650 -1.5199 -0.6363  0.4302
 1008TIP3   OH2 3029   3.408   5.905   4.355  0.8858  0.4934  0.0494
 1008TIP3    H1 3030   3.488   5.926   4.403  0.3421  1.8536  0.3994
 1008TIP3    H2 3031   3.408   5.809   4.349  1.9746  0.4163  0.9990
 1009TIP3   OH2 3032   0.200   2.592   4.087  0.2090  0.2238 -0.4814
 1009TIP3    H1 3033   0.120   2.544   4.067  0.0256 -0.1306  0.9997
 1009TIP3    H2 3034   0.219   2.641   4.006 -0.4424 -1.1231 -1.4978
 1010TIP3   OH2 3035   0.884   4.400   3.589 -0.3277 -0.3876 -0.2088
 1010TIP3    H1 3036   0.867   4.320   3.639 -0.5102 -1.4704 -1.9245
 1010TIP3    H2 3037   0.801   4.448   3.594 -1.3776 -1.8904 -1.8708
 1011TIP3   OH2 3038   1.085   2.104   2.796 -0.1798 -0.6150  0.0581
 1011TIP3    H1 3039   1.074   2.185   2.747 -0.5219 -0.7336 -0.0645
 1011TIP3    H2 3040   1.006   2.099   2.851  0.5992 -0.0288  1.2860
 1012TIP3   OH2 3041   2.962   2.618   0.443 -0.3928 -0.0198 -0.0527
 1012TIP3    H1 3042   2.976   2.709   0.466 -1.5759 -0.1005  1.0768
 1012TIP3    H2 3043   2.981   2.569   0.523 -0.4600 -0.7078 -0.4441
 1013TIP3   OH2 3044   0.014   4.296   2.537 -0.0739  0.3509  0.1985
 1013TIP3    H1 3045   0.044   4.214   2.498  0.2134  0.3151  0.4935
 1013TIP3    H2 3046  -0.012   4.272   2.626 -0.9016  0.3955 -0.0253
 1014TIP3   OH2 3047   3.965   1.557   0.973 -0.1364  0.1308 -0.1640
 1014TIP3    H1 3048   3.996   1.636   0.929  1.4277  0.4881  1.4821
 1014TIP3    H2 3049   3.939   1.587   1.060  0.9973 -1.2278  0.6788
 1015TIP3   OH2 3050   5.462   4.990   0.378 -0.0649  0.3711 -0.1001
 1015TIP3    H1 3051   5.534   5.032   0.425  1.3807 -1.5840 -0.4328
 1015TIP3    H2 3052   5.419   4.934   0.444  0.0511 -0.0533 -0.3787
 1016TIP3   OH2 3053   1.683   0.969   4.672  0.1911 -0.2908 -0.0684
 1016TIP3    H1 3054   1.767   1.002   4.638 -0.1273  1.9411  1.1106
 1016TIP3    H2 3055   1.633   1.048   4.691 -0.8061 -1.4634  2.6970
 1017TIP3   OH2 3056   1.722   3.899   4.471  0.1782  0.3334 -0.0230
 1017TIP3    H1 3057   1.649   3.852   4.430 -0.5274  0.9500  0.5043
 1017TIP3    H2 3058   1.736   3.854   4.555 -0.7006  1.2346  0.6199
 1018TIP3   OH2 3059   5.638   0.830   1.128 -0.1854 -0.4690 -0.3985
 1018TIP3    H1 3060   5.578   0.756   1.140  0.1604 -0.9552 -1.5619
 1018TIP3    H2 3061   5.712   0.810   1.186 -0.7500 -0.2840  0.4031
 1019TIP3   OH2 3062   1.591   2.937   0.956  0.0314 -0.0574 -0.1942
 1019TIP3    H1 3063   1.594   2.900   0.868 -0.9161  0.0057 -0.2667
 1019TIP3    H2 3064   1.511   2.901   0.994  0.3614  0.0293  0.5944
 1020TIP3   OH2 3065   5.154   4.630   4.215  0.1250  0.0224  0.1761
 1020TIP3    H1 3066   5.146   4.616   4.310  0.1499 -2.3374 -0.1162
 1020TIP3    H2 3067   5.095   4.703   4.197 -1.5877 -0.9031  1.7037
 1021TIP3   OH2 3068   2.512   1.604   1.412  0.8777  0.1262 -0.1423
 1021TIP3    H1 3069   2.512   1.629   1.320  0.5488  0.1963 -0.1226
 1021TIP3    H2 3070   2.531   1.510   1.411 -1.3326 -0.3589 -0.4162
 1022TIP3   OH2 3071   1.580   5.710   0.833 -0.5294 -0.5044 -0.1349
 1022TIP3    H1 3072   1.489   5.685   0.818 -0.1590 -2.0929  0.1224
 1022TIP3    H2 3073   1.631   5.646   0.784  0.4582  0.3005 -0.1835
 1023TIP3   OH2 3074   1.845   2.530   3.360 -0.2753 -0.1457 -0.1888
 1023TIP3    H1 3075   1.765   2.506   3.407 -0.8098  1.0862 -0.4287
 1023TIP3    H2 3076   1.816   2.547   3.270  0.0811  1.2052 -0.0686
 1024TIP3   OH2 3077   0.988   5.120   4.057  0.3909  0.5134 -0.3467
 1024TIP3    H1 3078   0.916   5.096   3.998 -0.2039  1.2730  0.0400
 1024TIP3    H2 3079   1.035   5.038   4.073 -0.1287  0.0853 -0.9627
 1025TIP3   OH2 3080   1.305   0.573   1.815 -0.4065 -0.0494  0.1160
 1025TIP3    H1 3081   1.247   0.627   1.761 -0.4676  1.3930  1.5361
 1025TIP3    H2 3082   1.269   0.582   1.904 -0.2685 -2.2648  0.4513
 1026TIP3   OH2 3083   2.901   0.392   0.066 -0.2770  0.3758  0.6661
 1026TIP3    H1 3084   2.971   0.331   0.086  0.4440  1.1277  0.5163
 1026TIP3    H2 3085   2.834   0.375   0.132 -0.6846 -1.4591 -0.1670
 1027TIP3   OH2 3086   4.342   4.103   4.839  0.0229 -0.5651  0.4092
 1027TIP3    H1 3087   4.430   4.141   4.844 -0.0826 -0.2677  0.0779
 1027TIP3    H2 3088   4.320   4.081   4.929  0.1874 -0.0637  0.5774
 1028TIP3   OH2 3089   0.038   1.641   2.231 -0.3561  0.5346 -0.1512
 1028TIP3    H1 3090   0.089   1.721   2.234 -0.4866  0.6962 -1.4869
 1028TIP3    H2 3091   0.096   1.577   2.190 -0.1310 -0.1717  1.2102
 1029TIP3   OH2 3092   5.833   2.578   4.345  0.0203 -0.2486  0.3036
 1029TIP3    H1 3093   5.867   2.608   4.260  1.2248 -1.0404  0.4764
 1029TIP3    H2 3094   5.744   2.548   4.326  0.1691 -0.1419 -0.6261
 1030TIP3   OH2 3095   5.278   4.603   2.604  0.4607  0.1743  0.0944
 1030TIP3    H1 3096   5.219   4.610   2.679  0.5061 -0.3870  0.1840
 1030TIP3    H2 3097   5.230   4.642   2.531 -0.8493 -2.1092 -0.3239
 1031TIP3   OH2 3098   0.114   0.406   2.625  0.1290  0.0741 -0.3357
 1031TIP3    H1 3099   0.169   0.330   2.608  0.2981  0.1024  0.0863
 1031TIP3    H2 3100   0.059   0.380   2.699 -0.3037  0.1110 -0.6346
 1032TIP3   OH2 3101   2.666   3.014   2.855 -0.2125  0.7764 -0.0211
 1032TIP3    H1 3102   2.615   3.093   2.871  0.6948  1.7568 -1.7108
 1032TIP3    H2 3103   2.752   3.034   2.892 -0.0657  0.4671 -0.1959
 1033TIP3   OH2 3104   0.432   4.895   2.716  0.1239 -0.0093 -0.1670
 1033TIP3    H1 3105   0.385   4.812   2.725  1.3058 -0.7534 -0.7582
 1033TIP3    H2 3106   0.444   4.925   2.807 -1.1052 -0.0024  0.0130
 1034TIP3   OH2 3107   3.793   0.515   1.101  0.4010  0.6317 -1.0072
 1034TIP3    H1 3108   3.774   0.602   1.136  0.5654  0.9062 -1.5733
 1034TIP3    H2 3109   3.710   0.468   1.107  0.3244  0.8100 -0.6507
 1035TIP3   OH2 3110   3.836   3.041   2.145  0.0590  0.6142 -0.5566
 1035TIP3    H1 3111   3.912   3.062   2.199 -0.8501  0.8418  0.6786
 1035TIP3    H2 3112   3.872   3.023   2.058  1.4359  1.4991 -0.1962
 1036TIP3   OH2 3113   0.336   0.326   1.476  0.2749 -0.2648 -0.3591
 1036TIP3    H1 3114   0.354   0.237   1.443  0.0862 -0.2120 -0.6073
 1036TIP3    H2 3115   0.245   0.342   1.452  0.1091 -0.2498  0.2545
 1037TIP3   OH2 3116   4.796   4.447   4.858  0.2857  0.0747  0.0230
 1037TIP3    H1 3117   4.880   4.410   4.883 -0.7746 -2.4943  0.0619
 1037TIP3    H2 3118   4.777   4.512   4.926  1.2224 -0.8959  1.2480
 1038TIP3   OH2 3119   0.844   0.944   2.031 -0.4104  0.1557 -0.4271
 1038TIP3    H1 3120   0.932   0.967   2.062 -0.6074  2.0116 -1.1187
 1038TIP3    H2 3121   0.856   0.858   1.989  0.7343 -0.3406  0.8118
 1039TIP3   OH2 3122   3.737   4.588   1.165  0.2483  0.1634  0.2500
 1039TIP3    H1 3123   3.758   4.536   1.243  0.9576  1.9742  1.3254
 1039TIP3    H2 3124   3.811   4.574   1.107  0.1868 -0.4091  0.2965
 1040TIP3   OH2 3125   1.214   5.241   1.204 -0.0426  0.3250 -0.1354
 1040TIP3    H1 3126   1.215   5.220   1.297 -0.8264  1.6593  0.1956
 1040TIP3    H2 3127   1.282   5.308   1.194 -0.5476  0.8055 -0.3653
 1041TIP3   OH2 3128   1.417   3.515   5.149 -0.0090 -0.0375  0.2370
 1041TIP3    H1 3129   1.427   3.494   5.242  0.4424  1.9046  0.6765
 1041TIP3    H2 3130   1.398   3.431   5.107 -1.2889 -0.8011  2.2205
 1042TIP3   OH2 3131   2.506   4.732   5.132  0.0684 -0.5581 -0.2353
 1042TIP3    H1 3132   2.449   4.686   5.071  0.8094  0.3417 -1.6766
 1042TIP3    H2 3133   2.450   4.797   5.174 -0.4238 -1.1219 -0.0031
 1043TIP3   OH2 3134   1.968   1.230   0.177 -0.0573 -0.1631  0.1274
 1043TIP3    H1 3135   1.953   1.205   0.268  0.2794 -2.7912 -0.4646
 1043TIP3    H2 3136   2.051   1.278   0.179 -0.0006 -0.2791  1.2080
 1044TIP3   OH2 3137   4.708   2.009   2.524  0.4484 -0.2932  0.0787
 1044TIP3    H1 3138   4.625   1.991   2.480  0.9302 -1.7438 -0.2927
 1044TIP3    H2 3139   4.766   1.939   2.495  1.9054  0.8453  0.1070
 1045TIP3   OH2 3140   2.879   3.745   0.425  0.3178 -0.7543 -0.0336
 1045TIP3    H1 3141   2.852   3.760   0.516 -1.3178  1.9600 -0.8859
 1045TIP3    H2 3142   2.865   3.651   0.412 -1.2614 -0.8666  1.9381
 1046TIP3   OH2 3143   5.197   5.027   3.252  0.4660  0.4107  0.4123
 1046TIP3    H1 3144   5.166   5.092   3.189 -0.8073 -1.0628 -0.5444
 1046TIP3    H2 3145   5.150   5.048   3.333  0.3085  0.8549  0.2088
 1047TIP3   OH2 3146   0.851   1.979   0.958  0.2444  0.1633 -0.7644
 1047TIP3    H1 3147   0.943   1.962   0.981  0.0642  1.8596  1.6942
 1047TIP3    H2 3148   0.801   1.922   1.016 -0.2210  1.6315  0.3571
 1048TIP3   OH2 3149   3.191   1.317   5.143 -0.1944 -0.1717  0.4790
 1048TIP3    H1 3150   3.279   1.340   5.172 -0.5036  0.5555  0.8683
 1048TIP3    H2 3151   3.183   1.356   5.056 -0.3950  0.4359  0.7621
 1049TIP3   OH2 3152   4.076   0.766   0.042  0.1167  0.3875 -0.3367
 1049TIP3    H1 3153   4.170   0.745   0.041  0.8386  3.0105  1.0820
 1049TIP3    H2 3154   4.032   0.682   0.033  2.6108 -1.1059  0.3884
 1050TIP3   OH2 3155   6.324   5.175   3.898  0.0792  0.6305  0.5135
 1050TIP3    H1 3156   6.275   5.154   3.978  0.3471  1.0006  0.7770
 1050TIP3    H2 3157   6.371   5.255   3.919  0.9294  0.1872  0.3168
 1051TIP3   OH2 3158   2.572   5.044   1.995  0.3577 -0.6072 -0.0816
 1051TIP3    H1 3159   2.634   5.068   2.064  0.5615  0.6836 -0.7017
 1051TIP3    H2 3160   2.608   4.963   1.958 -1.0107 -2.7817  2.8661
 1052TIP3   OH2 3161   5.541   1.295   1.229  0.0269 -0.1960 -0.0671
 1052TIP3    H1 3162   5.479   1.367   1.214 -0.1495 -0.4413 -0.5274
 1052TIP3    H2 3163   5.505   1.221   1.180  0.1671 -0.6230  0.4679
 1053TIP3   OH2 3164   3.748   5.742   4.613  0.2486  0.0247  0.0361
 1053TIP3    H1 3165   3.672   5.760   4.668 -0.1519  0.1689 -0.5500
 1053TIP3    H2 3166   3.814   5.806   4.640 -0.4237  1.0174 -0.5859
 1054TIP3   OH2 3167   0.384   0.272   0.434 -0.0910 -0.4678  0.5580
 1054TIP3    H1 3168   0.407   0.179   0.443  1.8416 -0.0398  0.3304
 1054TIP3    H2 3169   0.467   0.317   0.422 -1.1451  1.0693 -1.5809
 1055TIP3   OH2 3170   1.825   4.732   4.418  0.4898  0.5043 -0.0152
 1055TIP3    H1 3171   1.878   4.700   4.490  0.9642  2.1692  0.4165
 1055TIP3    H2 3172   1.794   4.818   4.447 -1.0614  0.2984 -0.9447
 1056TIP3   OH2 3173   3.045   5.418   3.514 -0.1279  0.4444 -0.5129
 1056TIP3    H1 3174   2.978   5.357   3.482  0.1477 -0.9464  1.3753
 1056TIP3    H2 3175   2.997   5.481   3.568 -0.3268  1.5698 -1.9517
 1057TIP3   OH2 3176   3.829   5.189   2.332 -0.1609 -0.2622  0.6664
 1057TIP3    H1 3177   3.871   5.183   2.418 -2.0006 -2.2409  1.5280
 1057TIP3    H2 3178   3.749   5.238   2.348  0.0946  0.4492 -0.1983
 1058TIP3   OH2 3179   2.044   0.407   4.920  0.1952 -0.1388  0.5731
 1058TIP3    H1 3180   1.964   0.458   4.931  2.1439  3.4604 -0.2395
 1058TIP3    H2 3181   2.028   0.353   4.843 -1.6466 -0.0458  0.8356
 1059TIP3   OH2 3182   1.221   2.003   0.560 -0.2137 -0.1734  0.1173
 1059TIP3    H1 3183   1.225   2.076   0.499 -1.9964 -0.4781 -0.4316
 1059TIP3    H2 3184   1.189   2.042   0.642  0.5527 -0.0518  0.3654
 1060TIP3   OH2 3185   3.594   5.015   4.996  0.1439  0.2442 -0.1091
 1060TIP3    H1 3186   3.640   5.096   5.018  1.0655 -0.4701  0.7063
 1060TIP3    H2 3187   3.516   5.043   4.949  0.0854  1.6503  0.7725
 1061TIP3   OH2 3188   4.981   3.927   4.047  0.1559 -0.3231  0.3550
 1061TIP3    H1 3189   4.975   3.896   4.137 -0.4431  0.4342  0.5806
 1061TIP3    H2 3190   4.983   3.847   3.994 -0.8530 -0.7595  0.9536
 1062TIP3   OH2 3191   3.678   1.505   3.315 -0.0915  0.3046  0.1363
 1062TIP3    H1 3192   3.595   1.549   3.332 -1.1770 -1.6060  0.0738
 1062TIP3    H2 3193   3.691   1.514   3.221  0.9806  2.5181  0.4158
 1063TIP3   OH2 3194   3.906   0.419   2.523 -0.4859  0.1548 -0.0740
 1063TIP3    H1 3195   3.944   0.335   2.550  0.0774  0.8142  1.2691
 1063TIP3    H2 3196   3.933   0.429   2.432  1.9440  0.2387  0.6030
 1064TIP3   OH2 3197   0.675   3.548   2.588  0.1908 -0.6350  0.1178
 1064TIP3    H1 3198   0.736   3.562   2.661  2.0773 -2.5411 -0.9646
 1064TIP3    H2 3199   0.652   3.455   2.593  0.5867 -0.8855 -1.8325
 1065TIP3   OH2 3200   5.102   2.821   1.846 -0.2822 -0.2871  0.2076
 1065TIP3    H1 3201   5.159   2.886   1.887  1.1189 -0.5978 -1.1673
 1065TIP3    H2 3202   5.051   2.785   1.918  0.6937  0.5852  1.3699
 1066TIP3   OH2 3203   4.960   2.836   0.805  0.3082 -0.1158  0.0887
 1066TIP3    H1 3204   5.025   2.769   0.827 -0.7459 -0.7974  1.2779
 1066TIP3    H2 3205   5.011   2.916   0.797  1.1342 -0.2021  3.1127
 1067TIP3   OH2 3206   2.517   1.562   3.071  0.4083 -0.0024  0.8969
 1067TIP3    H1 3207   2.435   1.609   3.056  0.3039 -0.2843  0.5878
 1067TIP3    H2 3208   2.495   1.497   3.138  0.6194  0.5559  1.5314
 1068TIP3   OH2 3209   5.816   1.303   1.078  0.1938 -0.5113  0.2664
 1068TIP3    H1 3210   5.761   1.309   1.156 -0.9078 -0.0663 -0.5200
 1068TIP3    H2 3211   5.802   1.214   1.046 -0.9587 -0.0575 -0.5465
 1069TIP3   OH2 3212   4.302   5.686   0.530  0.0402 -0.9239  0.3300
 1069TIP3    H1 3213   4.305   5.636   0.449 -0.3136 -1.2085  0.4912
 1069TIP3    H2 3214   4.366   5.643   0.588 -0.4582 -1.3659  0.5640
 1070TIP3   OH2 3215   2.827   0.603   0.554 -0.1476  0.0804 -0.8008
 1070TIP3    H1 3216   2.899   0.658   0.526 -0.2125 -0.4053 -1.9651
 1070TIP3    H2 3217   2.846   0.584   0.646 -0.1487  2.0398 -0.3489
 1071TIP3   OH2 3218   0.944   4.921   4.732 -0.5420  0.0308  0.2791
 1071TIP3    H1 3219   0.947   4.990   4.798  1.6172 -1.5752  2.0105
 1071TIP3    H2 3220   0.942   4.968   4.648  1.2173  2.2142  1.3580
 1072TIP3   OH2 3221   4.422   5.279   4.014 -0.1814 -0.0679 -0.0153
 1072TIP3    H1 3222   4.512   5.305   3.993  0.2600 -1.0377  0.5709
 1072TIP3    H2 3223   4.369   5.355   3.991  0.5991  0.0020 -1.7592
 1073TIP3   OH2 3224   4.559   3.472   1.759  0.3605  0.2106 -0.4929
 1073TIP3    H1 3225   4.591   3.492   1.671  0.4852  0.3426 -0.4176
 1073TIP3    H2 3226   4.504   3.546   1.782  2.5755  1.5973  0.6700
 1074TIP3   OH2 3227   3.270   0.065   1.855  0.5202  0.1339 -0.1689
 1074TIP3    H1 3228   3.178   0.082   1.875  0.6490  0.3465  0.2604
 1074TIP3    H2 3229   3.318   0.131   1.905  1.0565 -1.6023  1.7428
 1075TIP3   OH2 3230   3.221   4.471   1.753 -0.1334 -0.2605  0.4760
 1075TIP3    H1 3231   3.284   4.528   1.795 -2.7888  1.5841  2.2691
 1075TIP3    H2 3232   3.240   4.479   1.659  1.4774  1.1549  0.8794
 1076TIP3   OH2 3233   0.085   2.317   1.514 -0.3713  0.4315  0.0075
 1076TIP3    H1 3234   0.062   2.283   1.600  0.1064  0.0531 -0.0110
 1076TIP3    H2 3235   0.052   2.250   1.453 -0.6869  0.6857 -0.1082
 1077TIP3   OH2 3236   2.992   0.522   4.795 -0.0322 -0.0746  0.9254
 1077TIP3    H1 3237   2.957   0.611   4.800 -1.5513 -0.6318  0.5244
 1077TIP3    H2 3238   3.067   0.529   4.736 -0.8263  0.7425 -0.0113
 1078TIP3   OH2 3239   0.858   4.741   0.765 -0.1701  0.7545  0.1975
 1078TIP3    H1 3240   0.767   4.758   0.740 -0.6681 -1.9143 -0.1334
 1078TIP3    H2 3241   0.907   4.750   0.684 -0.2995  1.1398  0.1591
 1079TIP3   OH2 3242   2.412   5.003   3.201  0.1037 -0.3340  0.0134
 1079TIP3    H1 3243   2.358   4.938   3.245 -0.0469 -0.6664 -0.6539
 1079TIP3    H2 3244   2.422   5.073   3.265 -0.1104 -0.8111  0.5733
 1080TIP3   OH2 3245   5.658   1.676   1.347 -0.0256 -0.1373 -0.1470
 1080TIP3    H1 3246   5.712   1.725   1.408  1.6031  0.6979 -2.1317
 1080TIP3    H2 3247   5.587   1.736   1.325 -0.5951 -0.4259  0.8450
 1081TIP3   OH2 3248   3.499   1.133   0.643 -0.4005  0.0395 -0.2380
 1081TIP3    H1 3249   3.581   1.183   0.638 -0.5692  0.2358 -1.4718
 1081TIP3    H2 3250   3.431   1.201   0.645 -0.5664 -0.1337  0.0798
 1082TIP3   OH2 3251   5.924   2.251   4.183 -0.4561 -0.1859 -0.3701
 1082TIP3    H1 3252   5.901   2.312   4.113  1.0686 -0.6317 -1.2918
 1082TIP3    H2 3253   5.958   2.307   4.253 -0.5811  0.1363 -0.5635
 1083TIP3   OH2 3254   4.564   0.477   1.669 -0.3856  0.0350  0.7460
 1083TIP3    H1 3255   4.500   0.434   1.725  1.7395 -1.7375  1.9991
 1083TIP3    H2 3256   4.544   0.447   1.581 -0.2280 -1.9913  1.3511
 1084TIP3   OH2 3257   1.324   4.473   0.680 -0.0669  0.4184  0.1018
 1084TIP3    H1 3258   1.323   4.487   0.775 -1.3042 -1.0400  0.3559
 1084TIP3    H2 3259   1.388   4.536   0.646  1.4404  0.0230  2.0470
 1085TIP3   OH2 3260   1.960   2.896   3.294 -0.0251  0.4011  0.1208
 1085TIP3    H1 3261   2.020   2.824   3.272  1.6816  1.6790  0.4006
 1085TIP3    H2 3262   1.923   2.922   3.210  0.3485  0.0569 -0.1557
 1086TIP3   OH2 3263   0.864   3.302   1.395 -0.3428  0.0737 -0.0231
 1086TIP3    H1 3264   0.771   3.318   1.381 -0.3285  0.1144 -0.0737
 1086TIP3    H2 3265   0.874   3.207   1.387  0.1989  0.2685 -3.6736
 1087TIP3   OH2 3266   3.116   4.257   1.526 -0.1295 -0.0099 -0.0415
 1087TIP3    H1 3267   3.199   4.305   1.526 -0.3790  0.4559 -1.2693
 1087TIP3    H2 3268   3.095   4.245   1.434 -2.7811  2.2802  0.1372
 1088TIP3   OH2 3269   3.514   1.779   1.023 -0.0844 -0.5709 -0.2417
 1088TIP3    H1 3270   3.435   1.730   1.045 -0.0861 -0.3045  0.3520
 1088TIP3    H2 3271   3.496   1.818   0.938 -0.9171  0.1742  0.2628
 1089TIP3   OH2 3272   6.275   2.237   3.743 -0.1929 -0.0499  0.2639
 1089TIP3    H1 3273   6.253   2.199   3.658  1.5338  0.6097 -0.5288
 1089TIP3    H2 3274   6.357   2.193   3.768 -1.3625 -1.2607  2.3042
 1090TIP3   OH2 3275   4.993   2.730   2.854 -0.4952  0.1504 -0.4562
 1090TIP3    H1 3276   5.057   2.661   2.874  0.5562  1.4049  0.7275
 1090TIP3    H2 3277   4.952   2.702   2.773 -0.5764 -2.1980  0.3202
 1091TIP3   OH2 3278   1.992   4.916   0.201  0.3712  0.4779 -0.1911
 1091TIP3    H1 3279   1.953   4.829   0.204  2.2584 -0.3724  0.4217
 1091TIP3    H2 3280   1.956   4.962   0.277 -0.6665  0.2900 -0.5477
 1092TIP3   OH2 3281   0.179   4.801   2.388 -0.1526 -0.0285 -0.3543
 1092TIP3    H1 3282   0.249   4.740   2.365  1.5556  1.2634  1.1115
 1092TIP3    H2 3283   0.149   4.772   2.474 -0.7629 -0.0005 -0.5527
 1093TIP3   OH2 3284   3.203   3.387   2.029  0.2059 -0.1310  0.0113
 1093TIP3    H1 3285   3.149   3.342   2.095  1.2703 -1.0132  0.2982
 1093TIP3    H2 3286   3.260   3.319   1.994  1.3043  0.8363 -0.1235
 1094TIP3   OH2 3287   3.738   0.222   1.114  0.1827  0.2970 -0.0004
 1094TIP3    H1 3288   3.766   0.193   1.201 -0.6818  0.9759  0.5279
 1094TIP3    H2 3289   3.819   0.229   1.063  0.5102 -2.1801  0.0812
 1095TIP3   OH2 3290   2.309   5.221   1.887 -0.2794  0.0185 -0.3031
 1095TIP3    H1 3291   2.402   5.205   1.870 -0.3601 -0.4508 -0.2995
 1095TIP3    H2 3292   2.296   5.196   1.978 -0.3481  0.3659 -0.2151
 1096TIP3   OH2 3293   3.942   4.593   4.730 -0.4214 -0.0601  0.1807
 1096TIP3    H1 3294   4.006   4.525   4.713 -0.9411 -0.2571 -1.1181
 1096TIP3    H2 3295   3.993   4.674   4.737  0.0503 -0.3561  0.1390
 1097TIP3   OH2 3296   0.541   4.782   2.294 -0.3897  0.1130  0.1500
 1097TIP3    H1 3297   0.492   4.860   2.317  0.3593  0.4489  0.6450
 1097TIP3    H2 3298   0.566   4.743   2.378 -0.0144 -0.1782 -0.0905
 1098TIP3   OH2 3299   1.690   4.833   0.329  0.0757 -0.0005 -0.1831
 1098TIP3    H1 3300   1.623   4.902   0.324 -0.2534 -0.3725 -1.0898
 1098TIP3    H2 3301   1.753   4.866   0.393  0.2370  1.4211 -1.0303
 1099TIP3   OH2 3302   3.241   2.017   3.530  0.2704  0.5757 -0.1774
 1099TIP3    H1 3303   3.249   1.931   3.489  0.2489  0.0518  0.8949
 1099TIP3    H2 3304   3.327   2.033   3.569  0.1725  0.8878 -0.0884
 1100TIP3   OH2 3305   2.372   5.300   3.637 -0.0393 -0.0475  0.2164
 1100TIP3    H1 3306   2.348   5.392   3.623  0.2327 -0.3128 -2.5402
 1100TIP3    H2 3307   2.294   5.260   3.675 -0.8048  0.9381 -0.2840
 1101TIP3   OH2 3308   3.278   4.408   2.448  0.1755  0.1784  0.1611
 1101TIP3    H1 3309   3.216   4.351   2.494  0.7533 -0.2900  0.3729
 1101TIP3    H2 3310   3.358   4.402   2.499  0.3838  0.8180 -0.0879
 1102TIP3   OH2 3311   3.651   1.689   4.550 -0.1480  0.1650 -0.0377
 1102TIP3    H1 3312   3.653   1.701   4.455 -0.1712  1.4461  0.1094
 1102TIP3    H2 3313   3.735   1.723   4.580 -0.2832  0.0826  0.4331
 1103TIP3   OH2 3314   5.996   3.773   3.716 -0.1534  0.3546 -0.2740
 1103TIP3    H1 3315   6.080   3.766   3.670 -0.5069 -0.2844 -0.8434
 1103TIP3    H2 3316   6.013   3.732   3.801 -0.1158 -0.6074 -0.7251
 1104TIP3   OH2 3317   5.178   2.441   0.241  0.1974 -0.4935 -0.1944
 1104TIP3    H1 3318   5.145   2.517   0.289  1.2906 -0.2583  0.2340
 1104TIP3    H2 3319   5.138   2.448   0.155 -1.9276 -0.9977  0.6842
 1105TIP3   OH2 3320   1.029   1.949   4.117  0.4857 -0.2981  0.1626
 1105TIP3    H1 3321   1.032   2.042   4.140 -2.8397 -0.0217 -0.0719
 1105TIP3    H2 3322   1.025   1.903   4.200  0.2557 -0.0947  0.2642
 1106TIP3   OH2 3323   3.459   3.729   3.365 -0.5039 -0.4654  0.1500
 1106TIP3    H1 3324   3.503   3.729   3.450  1.3594  0.1987 -0.7616
 1106TIP3    H2 3325   3.521   3.689   3.305 -1.0096  0.7302 -1.2430
 1107TIP3   OH2 3326   5.471   1.715   3.973 -0.1989 -0.1264  0.8145
 1107TIP3    H1 3327   5.464   1.785   4.039 -0.0962 -0.9387  1.7130
 1107TIP3    H2 3328   5.512   1.758   3.898 -1.5847  1.1614  0.7537
 1108TIP3   OH2 3329   2.953   0.187   3.603  0.3922  0.1338  0.1827
 1108TIP3    H1 3330   3.003   0.224   3.676 -1.1729  0.3455  1.1857
 1108TIP3    H2 3331   2.868   0.164   3.641 -0.4913  0.3153 -1.6009
 1109TIP3   OH2 3332   1.433   1.163   1.446 -0.2266 -0.1870 -0.0322
 1109TIP3    H1 3333   1.413   1.142   1.537  0.9258 -1.6895 -0.0801
 1109TIP3    H2 3334   1.359   1.128   1.397  0.6251 -2.3084  0.0967
 1110TIP3   OH2 3335   3.460   2.168   1.388  0.3196  0.2185 -0.2422
 1110TIP3    H1 3336   3.405   2.245   1.397  2.0276  1.3218  1.6927
 1110TIP3    H2 3337   3.509   2.182   1.307 -0.6639  0.2733 -0.8336
 1111TIP3   OH2 3338   1.028   3.252   4.631 -0.3330 -0.1275  0.1400
 1111TIP3    H1 3339   1.036   3.243   4.726  0.9874 -1.0144 -0.0114
 1111TIP3    H2 3340   0.954   3.310   4.618 -0.7960 -0.3153  1.7044
 1112TIP3   OH2 3341   6.154   2.255   2.278 -0.2697  0.6379  0.2533
 1112TIP3    H1 3342   6.082   2.305   2.239 -0.7142  1.5467  2.1534
 1112TIP3    H2 3343   6.152   2.170   2.233 -1.7410  1.0831 -0.5725
 1113TIP3   OH2 3344   6.076   5.054   0.658  0.1889  0.0769 -0.1472
 1113TIP3    H1 3345   6.131   5.130   0.674  0.0513 -0.1039  1.2867
 1113TIP3    H2 3346   6.137   4.981   0.653  0.3407  0.2692 -1.7171
 1114TIP3   OH2 3347   0.662   1.722   0.820  0.3408 -0.5227  0.3548
 1114TIP3    H1 3348   0.737   1.742   0.764 -1.0622 -0.8271 -1.7161
 1114TIP3    H2 3349   0.605   1.799   0.813 -0.3655 -1.0249  0.4599
 1115TIP3   OH2 3350   5.283   2.877   0.216  0.5660  0.1491 -0.3153
 1115TIP3    H1 3351   5.347   2.942   0.245  2.1214 -0.8253 -1.3562
 1115TIP3    H2 3352   5.199   2.910   0.246  1.5912  1.2757  1.5147
 1116TIP3   OH2 3353   1.270   4.421   1.691  0.1646  0.1050 -0.0923
 1116TIP3    H1 3354   1.295   4.336   1.654  1.3775  0.1786  0.5131
 1116TIP3    H2 3355   1.200   4.452   1.634 -0.0485 -1.1382 -0.5375
 1117TIP3   OH2 3356   0.697   3.749   0.238 -0.5170 -0.8121  0.0485
 1117TIP3    H1 3357   0.750   3.745   0.317 -0.0914  0.4301 -0.1472
 1117TIP3    H2 3358   0.739   3.689   0.177 -0.2015 -0.9423  0.3967
 1118TIP3   OH2 3359   2.765   3.254   2.294 -0.0368  0.2630 -0.1624
 1118TIP3    H1 3360   2.743   3.182   2.353  0.1095 -1.0629 -1.6502
 1118TIP3    H2 3361   2.683   3.275   2.251 -0.0982  1.0703  0.3442
 1119TIP3   OH2 3362   5.067   0.473   0.724  0.5361  0.0330  0.1766
 1119TIP3    H1 3363   5.089   0.551   0.672 -0.1914 -0.4820 -0.9404
 1119TIP3    H2 3364   5.084   0.500   0.815  0.6046  1.3871 -0.2068
 1120TIP3   OH2 3365   4.690   5.415   2.133  0.6192  0.1702  0.1725
 1120TIP3    H1 3366   4.636   5.489   2.107  1.3255  0.6432  0.0122
 1120TIP3    H2 3367   4.739   5.392   2.054 -1.9789 -2.6699 -0.8172
 1121TIP3   OH2 3368   1.282   0.041   4.303 -0.0775  0.5998  0.2169
 1121TIP3    H1 3369   1.350   0.013   4.364 -1.1885 -1.7130  0.4974
 1121TIP3    H2 3370   1.326   0.045   4.218  1.0612  2.1292  0.8236
 1122TIP3   OH2 3371   2.215   4.688   0.897  0.5440 -0.0343 -0.1864
 1122TIP3    H1 3372   2.250   4.764   0.943 -0.9319 -0.3500  1.5701
 1122TIP3    H2 3373   2.174   4.635   0.965  1.8739 -2.6641 -1.2837
 1123TIP3   OH2 3374   4.574   5.084   3.633  0.6354  0.2481 -0.2423
 1123TIP3    H1 3375   4.613   5.171   3.646  0.3141  0.3345  0.1361
 1123TIP3    H2 3376   4.527   5.066   3.714  2.7845 -1.3825  0.7359
 1124TIP3   OH2 3377   5.480   4.371   4.197  0.0403 -0.5467 -0.1238
 1124TIP3    H1 3378   5.561   4.339   4.235  0.2174 -0.9939 -0.8529
 1124TIP3    H2 3379   5.423   4.294   4.192 -0.3255 -0.2984  0.1047
 1125TIP3   OH2 3380   0.647   2.108   3.109 -0.1884  0.0016  0.7657
 1125TIP3    H1 3381   0.586   2.158   3.164 -1.4956  0.6603 -1.1645
 1125TIP3    H2 3382   0.597   2.032   3.081  0.0316  0.2752 -0.4182
 1126TIP3   OH2 3383   5.603   1.173   5.146 -0.4607  0.2022 -0.0724
 1126TIP3    H1 3384   5.579   1.089   5.185 -0.5483 -0.4189 -1.3999
 1126TIP3    H2 3385   5.685   1.155   5.100 -0.7849  0.6766 -0.8600
 1127TIP3   OH2 3386   3.620   1.761   4.277 -0.1124  0.6517  0.0469
 1127TIP3    H1 3387   3.693   1.705   4.252 -0.8045 -0.3850  0.2970
 1127TIP3    H2 3388   3.654   1.850   4.268  0.6920  0.2320 -1.3219
 1128TIP3   OH2 3389   5.087   3.655   4.936  0.0505 -0.1104  0.1283
 1128TIP3    H1 3390   5.112   3.674   5.026 -2.0605 -0.0945  0.7658
 1128TIP3    H2 3391   4.992   3.664   4.935 -0.0260 -0.5928 -1.9956
 1129TIP3   OH2 3392   4.401   2.364   4.274 -0.3449  0.6519 -0.0835
 1129TIP3    H1 3393   4.360   2.329   4.353  0.3747 -0.6469 -0.2556
 1129TIP3    H2 3394   4.331   2.364   4.209 -0.4196 -0.3048 -0.0168
 1130TIP3   OH2 3395   1.451   4.894   1.295  0.1109  0.2720 -0.4291
 1130TIP3    H1 3396   1.508   4.877   1.370  0.7557  1.0253 -0.7362
 1130TIP3    H2 3397   1.366   4.858   1.321  0.5871 -0.3937  0.2488
 1131TIP3   OH2 3398   4.477   1.917   2.416  0.2663  0.3280  0.1999
 1131TIP3    H1 3399   4.461   1.858   2.490 -0.7778 -0.5740 -0.7106
 1131TIP3    H2 3400   4.405   1.980   2.420 -1.5787 -1.4865 -1.7036
 1132TIP3   OH2 3401   6.181   4.248   3.205 -0.5897 -0.0033 -0.5187
 1132TIP3    H1 3402   6.236   4.247   3.127  4.1591 -2.4223  2.4108
 1132TIP3    H2 3403   6.163   4.156   3.223 -2.0924  0.5228  0.9520
 1133TIP3   OH2 3404   5.601   3.082   3.947 -0.1825 -0.2615  0.0289
 1133TIP3    H1 3405   5.557   3.006   3.909  0.1480 -0.6747  0.4555
 1133TIP3    H2 3406   5.596   3.150   3.880 -0.0768 -0.8063 -0.5296
 1134TIP3   OH2 3407   2.080   0.272   5.173 -0.3974 -0.7044 -0.2819
 1134TIP3    H1 3408   2.088   0.329   5.097 -1.6738 -0.1553 -0.0303
 1134TIP3    H2 3409   2.056   0.187   5.136  0.3669 -0.7997 -0.5784
 1135TIP3   OH2 3410   4.237   1.445   3.671  0.0155  0.3417  0.0389
 1135TIP3    H1 3411   4.208   1.357   3.644  2.0985  0.0051 -1.3185
 1135TIP3    H2 3412   4.332   1.440   3.670  0.2220  2.9198 -1.1877
 1136TIP3   OH2 3413   2.155   5.570   4.216 -0.3141  0.3371  0.3341
 1136TIP3    H1 3414   2.202   5.488   4.229 -0.5291  0.4273  1.7601
 1136TIP3    H2 3415   2.138   5.603   4.304 -0.8106  1.5881 -0.2025
 1137TIP3   OH2 3416   2.728   0.313   0.256 -0.4689 -0.4514 -0.0713
 1137TIP3    H1 3417   2.705   0.377   0.323 -1.5512 -1.3415  0.4407
 1137TIP3    H2 3418   2.654   0.251   0.255  0.5035 -1.6572 -0.5828
 1138TIP3   OH2 3419   1.002   5.752   1.523 -0.4902 -0.3538  0.0318
 1138TIP3    H1 3420   1.078   5.802   1.552 -0.6634  0.1032 -0.2929
 1138TIP3    H2 3421   0.996   5.771   1.429 -0.0783 -1.6159 -0.2674
 1139TIP3   OH2 3422   2.730   3.402   3.585  0.0436 -0.1803  0.1488
 1139TIP3    H1 3423   2.818   3.397   3.623 -0.2056 -0.1109  0.7525
 1139TIP3    H2 3424   2.712   3.313   3.555  1.1123  0.2285 -1.8438
 1140TIP3   OH2 3425   4.432   0.711   4.051  0.5926 -0.0394 -0.1471
 1140TIP3    H1 3426   4.349   0.739   4.013  1.4512  1.4455 -0.9886
 1140TIP3    H2 3427   4.485   0.683   3.976  1.1215 -0.2855  0.3110
 1141TIP3   OH2 3428   5.513   0.621   5.148 -0.2920  0.4154  0.1079
 1141TIP3    H1 3429   5.572   0.597   5.077 -0.3299 -0.8691  0.4894
 1141TIP3    H2 3430   5.434   0.569   5.133 -0.6796  0.8597  0.5518
 1142TIP3   OH2 3431   5.832   3.649   2.685 -0.0333 -0.3994  0.3860
 1142TIP3    H1 3432   5.866   3.564   2.655  0.6160  0.2946 -0.9266
 1142TIP3    H2 3433   5.894   3.677   2.752  1.1406  0.1259 -0.8796
 1143TIP3   OH2 3434   3.957   4.895   0.872 -0.0039  0.1644  0.2082
 1143TIP3    H1 3435   3.966   4.805   0.841 -0.3743  0.3688 -0.5353
 1143TIP3    H2 3436   3.952   4.947   0.791  0.6889  0.9010  0.6325
 1144TIP3   OH2 3437   0.414   3.845   4.618  1.0047 -0.3681  0.0760
 1144TIP3    H1 3438   0.447   3.915   4.675  1.1556 -1.3923  1.2904
 1144TIP3    H2 3439   0.412   3.768   4.674 -2.6404 -0.5947 -0.1626
 1145TIP3   OH2 3440   2.643   3.187   1.589 -0.0566  0.1249  0.3715
 1145TIP3    H1 3441   2.662   3.139   1.670 -0.4686 -0.3771  0.1708
 1145TIP3    H2 3442   2.584   3.130   1.540  2.2249 -0.8106 -1.5004
 1146TIP3   OH2 3443   3.300   4.471   0.725 -0.4883  0.5412 -0.4336
 1146TIP3    H1 3444   3.339   4.431   0.803 -1.7940 -1.8259 -0.9112
 1146TIP3    H2 3445   3.308   4.405   0.657 -0.8811  1.9234 -1.8882
 1147TIP3   OH2 3446   1.815   4.211   4.079  0.2065 -0.4283  0.7543
 1147TIP3    H1 3447   1.795   4.292   4.033  0.2589 -1.2988 -0.8829
 1147TIP3    H2 3448   1.820   4.145   4.010  0.9292 -1.6866  1.9594
 1148TIP3   OH2 3449   0.603   4.278   0.327 -0.8482  0.2428 -0.0947
 1148TIP3    H1 3450   0.629   4.203   0.273  1.6126  1.2555 -0.4644
 1148TIP3    H2 3451   0.684   4.329   0.337 -1.7425  1.3006  2.6593
 1149TIP3   OH2 3452   3.193   0.532   0.706 -0.4222 -0.5989 -0.2097
 1149TIP3    H1 3453   3.133   0.463   0.676 -1.9652  0.3345  0.6236
 1149TIP3    H2 3454   3.161   0.612   0.665  0.6940 -0.1640 -0.2872
 1150TIP3   OH2 3455   5.513   2.652   0.713 -0.5039  0.4262  0.1054
 1150TIP3    H1 3456   5.558   2.591   0.655  0.5623  0.5621  0.7484
 1150TIP3    H2 3457   5.561   2.734   0.704 -0.2597  0.4231  1.2310
 1151TIP3   OH2 3458   5.154   5.132   1.428  0.3205 -0.5408  0.1933
 1151TIP3    H1 3459   5.163   5.154   1.335  0.1483 -1.0638  0.0490
 1151TIP3    H2 3460   5.128   5.214   1.469 -0.4562 -0.4956 -0.3556
 1152TIP3   OH2 3461   0.499   3.061   1.058 -0.2692  0.0477 -0.2649
 1152TIP3    H1 3462   0.504   2.966   1.056  0.1813  0.0397  0.6847
 1152TIP3    H2 3463   0.413   3.081   1.095  0.5807 -0.0402  1.8909
 1153TIP3   OH2 3464   5.697   3.676   1.084  0.3809  0.0687  0.2082
 1153TIP3    H1 3465   5.673   3.746   1.145 -1.0477 -0.1429 -0.0786
 1153TIP3    H2 3466   5.755   3.719   1.020 -0.4119  0.9867  0.0794
 1154TIP3   OH2 3467   0.592   5.395   2.329  0.4097  0.3109  0.3369
 1154TIP3    H1 3468   0.632   5.308   2.327 -0.8718 -0.3134 -2.0990
 1154TIP3    H2 3469   0.504   5.381   2.362 -0.9812 -0.0061 -3.1192
 1155TIP3   OH2 3470   5.916   0.714   4.843  0.4897  0.5368 -0.3849
 1155TIP3    H1 3471   5.926   0.756   4.757 -1.3657 -1.9808 -1.9955
 1155TIP3    H2 3472   5.990   0.654   4.849 -0.6751 -1.1192 -1.5052
 1156TIP3   OH2 3473   5.624   2.200   4.228  0.7833  0.5985 -0.5696
 1156TIP3    H1 3474   5.563   2.158   4.289 -1.7034  2.9611 -1.2043
 1156TIP3    H2 3475   5.677   2.258   4.282  0.2015  0.9308 -0.3424
 1157TIP3   OH2 3476   3.531   4.000   4.943 -0.1750  0.1346  0.5615
 1157TIP3    H1 3477   3.591   4.074   4.953  0.8604 -0.9091  2.7532
 1157TIP3    H2 3478   3.584   3.933   4.900  0.2129 -0.6851  2.2305
 1158TIP3   OH2 3479   6.279   5.408   5.141  0.2553  0.1123  0.6518
 1158TIP3    H1 3480   6.335   5.421   5.217  1.6358  0.9981 -0.4705
 1158TIP3    H2 3481   6.227   5.489   5.136  1.1449  0.6474 -0.1191
 1159TIP3   OH2 3482   0.728   0.956   2.286  0.8315 -0.6976 -0.0997
 1159TIP3    H1 3483   0.734   0.946   2.191 -0.3797 -0.5164 -0.2173
 1159TIP3    H2 3484   0.708   1.049   2.298 -0.8741 -1.0527  0.1898
 1160TIP3   OH2 3485   4.532   4.722   1.598 -0.2508  0.2192 -0.1072
 1160TIP3    H1 3486   4.549   4.816   1.599  1.7177 -0.1043 -0.3695
 1160TIP3    H2 3487   4.569   4.689   1.680  1.0642 -0.6224 -1.0059
 1161TIP3   OH2 3488   2.718   0.877   2.093 -0.0190  0.2108  0.3944
 1161TIP3    H1 3489   2.802   0.894   2.134 -0.7381  2.0712  1.2031
 1161TIP3    H2 3490   2.659   0.943   2.130 -2.3221 -2.1656  1.3249
 1162TIP3   OH2 3491   4.930   5.683   3.310  0.1630  0.9263 -0.2516
 1162TIP3    H1 3492   4.908   5.685   3.403 -0.1335  0.0627 -0.2880
 1162TIP3    H2 3493   4.845   5.681   3.265  0.3024  1.6843 -0.5582
 1163TIP3   OH2 3494   2.397   5.078   1.086  0.0966  0.3644 -0.5264
 1163TIP3    H1 3495   2.315   5.126   1.078  0.2055  0.2987 -2.4263
 1163TIP3    H2 3496   2.449   5.105   1.011  0.5911 -1.9000 -1.0749
 1164TIP3   OH2 3497   2.612   1.021   2.553 -0.0555  0.2164  0.0531
 1164TIP3    H1 3498   2.611   0.929   2.526  1.5641  0.2482 -0.2302
 1164TIP3    H2 3499   2.624   1.017   2.648 -2.1979  0.1448  0.3653
 1165TIP3   OH2 3500   0.024   1.792   0.905  0.1894 -0.1484  0.2578
 1165TIP3    H1 3501  -0.023   1.749   0.833 -0.0046  0.1528  0.2012
 1165TIP3    H2 3502   0.116   1.781   0.883  0.1352 -0.2291  0.0652
 1166TIP3   OH2 3503   3.862   3.854   2.223 -0.0686 -0.6146 -0.0108
 1166TIP3    H1 3504   3.946   3.844   2.178 -0.1673 -0.0666 -0.3237
 1166TIP3    H2 3505   3.814   3.774   2.202  0.3912 -0.9463  0.2014
 1167TIP3   OH2 3506   6.046   5.240   1.666 -0.0688 -0.1616  0.5203
 1167TIP3    H1 3507   5.972   5.192   1.705 -0.6466 -0.5426 -0.9883
 1167TIP3    H2 3508   6.122   5.186   1.685 -0.5308 -1.0163  0.0009
 1168TIP3   OH2 3509   5.829   2.544   4.879 -0.0819 -0.2995 -0.5107
 1168TIP3    H1 3510   5.788   2.460   4.900 -1.3687  0.7286  1.3511
 1168TIP3    H2 3511   5.757   2.606   4.873  1.0001  1.1984  0.9169
 1169TIP3   OH2 3512   1.829   3.120   0.526 -0.1605 -0.2368  0.2965
 1169TIP3    H1 3513   1.900   3.123   0.460  0.3455  2.0622  0.8246
 1169TIP3    H2 3514   1.861   3.061   0.594  0.1934 -1.0628 -0.5626
 1170TIP3   OH2 3515   2.590   1.406   1.730  1.1302 -0.1200  0.5820
 1170TIP3    H1 3516   2.615   1.479   1.787 -2.1869  0.7864  1.0824
 1170TIP3    H2 3517   2.540   1.446   1.659  0.8263 -1.7366 -0.1590
 1171TIP3   OH2 3518   2.252   3.283   3.890 -0.1155  0.1418 -0.1785
 1171TIP3    H1 3519   2.228   3.296   3.982 -0.7004  0.2740 -0.3452
 1171TIP3    H2 3520   2.181   3.325   3.840 -1.1684 -2.1116 -0.7133
 1172TIP3   OH2 3521   1.234   5.754   3.938  0.1972  0.0454 -0.2918
 1172TIP3    H1 3522   1.286   5.673   3.943 -1.2250 -0.8450  1.8036
 1172TIP3    H2 3523   1.281   5.816   3.994  0.0955 -0.0895 -0.0550
 1173TIP3   OH2 3524   5.825   2.902   4.327 -0.0895  0.5987 -0.2293
 1173TIP3    H1 3525   5.752   2.938   4.379 -0.7836  0.0318 -0.7872
 1173TIP3    H2 3526   5.834   2.961   4.253  2.4930  2.8213  1.6581
 1174TIP3   OH2 3527   6.250   3.313   3.423 -0.3819  0.4378 -0.6611
 1174TIP3    H1 3528   6.318   3.300   3.357 -0.3908  0.6539 -0.7170
 1174TIP3    H2 3529   6.291   3.371   3.488 -0.2047 -0.1811 -0.2137
 1175TIP3   OH2 3530   3.947   0.837   3.574  0.2171 -0.3568  0.0826
 1175TIP3    H1 3531   3.979   0.893   3.504 -1.7365 -0.9429 -1.3838
 1175TIP3    H2 3532   3.862   0.875   3.598  0.2656 -0.9258  1.2369
 1176TIP3   OH2 3533   5.390   0.334   4.351 -0.4315  0.6657 -0.3007
 1176TIP3    H1 3534   5.454   0.384   4.401 -1.1112  0.9468  0.3010
 1176TIP3    H2 3535   5.420   0.340   4.260  0.9579 -0.0762  0.0835
 1177TIP3   OH2 3536   3.906   5.558   1.222  0.0041  0.3575  0.2901
 1177TIP3    H1 3537   3.907   5.462   1.220  0.7055  0.3766 -0.9057
 1177TIP3    H2 3538   3.948   5.580   1.305  0.0382 -0.3567  0.4748
 1178TIP3   OH2 3539   4.070   1.598   3.126  0.2493 -0.1977 -0.4044
 1178TIP3    H1 3540   4.159   1.564   3.130  0.2501 -0.0817  1.0633
 1178TIP3    H2 3541   4.073   1.679   3.178 -0.9648 -0.8232  0.6971
 1179TIP3   OH2 3542   3.324   2.920   3.975 -0.5076  0.1702  0.5811
 1179TIP3    H1 3543   3.318   2.843   3.918  2.2851 -0.2086  0.6486
 1179TIP3    H2 3544   3.259   2.905   4.043  0.0518 -2.2202  0.6588
 1180TIP3   OH2 3545   1.159   3.134   2.762  0.0531 -0.6475  0.7093
 1180TIP3    H1 3546   1.131   3.060   2.815  2.2095 -1.3755  0.9020
 1180TIP3    H2 3547   1.245   3.157   2.796  1.1351 -0.5870 -1.8577
 1181TIP3   OH2 3548   0.772   4.014   3.426  0.1054  0.2337  0.0235
 1181TIP3    H1 3549   0.699   4.016   3.486 -0.3556 -2.1976 -0.3445
 1181TIP3    H2 3550   0.848   3.990   3.480 -0.0897 -0.7841 -0.1228
 1182TIP3   OH2 3551   4.527   1.424   3.705 -0.2796 -0.3492  0.1256
 1182TIP3    H1 3552   4.581   1.379   3.769 -1.2813 -0.4247  0.9564
 1182TIP3    H2 3553   4.509   1.510   3.745  0.4369  0.2489 -0.7988
 1183TIP3   OH2 3554   5.734   3.430   1.708  0.0305  0.1441 -0.1868
 1183TIP3    H1 3555   5.808   3.483   1.678 -0.7221  0.9687 -0.6625
 1183TIP3    H2 3556   5.706   3.382   1.630  1.4764 -1.9766  0.5181
 1184TIP3   OH2 3557   0.144   4.903   3.953 -0.1570 -0.1311  0.2321
 1184TIP3    H1 3558   0.145   4.952   3.871 -4.6393 -0.0666 -0.0202
 1184TIP3    H2 3559   0.234   4.870   3.963  1.1922  1.9427 -3.3177
 1185TIP3   OH2 3560   4.435   1.134   4.350 -0.0638  0.2984  0.3774
 1185TIP3    H1 3561   4.417   1.047   4.385  0.8611  0.2777  0.8454
 1185TIP3    H2 3562   4.361   1.153   4.293  0.2013 -1.2082 -0.5351
 1186TIP3   OH2 3563   3.489   3.904   2.333  0.3640  0.2762  0.2068
 1186TIP3    H1 3564   3.533   3.988   2.348 -0.7321  1.0078 -0.4920
 1186TIP3    H2 3565   3.473   3.901   2.239  0.8205 -0.9531  0.1552
 1187TIP3   OH2 3566   3.417   5.379   1.689  0.5490  0.3212 -0.1791
 1187TIP3    H1 3567   3.353   5.347   1.753  2.3078 -1.1428  0.9415
 1187TIP3    H2 3568   3.429   5.471   1.710  0.1862  0.1521  0.8010
 1188TIP3   OH2 3569   2.158   4.202   0.777  0.0441 -0.0567  0.1679
 1188TIP3    H1 3570   2.168   4.210   0.872 -0.6617 -0.3890  0.2768
 1188TIP3    H2 3571   2.150   4.292   0.746 -1.2999 -0.0112  0.6122
 1189TIP3   OH2 3572   6.260   0.338   0.751  0.3915 -0.1744 -0.2668
 1189TIP3    H1 3573   6.351   0.315   0.769 -0.0729 -1.8890  0.0099
 1189TIP3    H2 3574   6.210   0.259   0.770 -1.0829  0.4903 -1.1592
 1190TIP3   OH2 3575   5.045   5.278   3.947  0.1266  0.2438  0.0424
 1190TIP3    H1 3576   5.119   5.256   4.004 -0.2973 -1.7376 -0.0992
 1190TIP3    H2 3577   5.043   5.208   3.882 -3.1661 -1.0690  1.3466
 1191TIP3   OH2 3578   3.672   0.784   3.945  0.1787 -0.3820  0.0640
 1191TIP3    H1 3579   3.609   0.733   3.894  1.1004 -0.2522 -1.2522
 1191TIP3    H2 3580   3.755   0.738   3.933  0.6084  0.2189  0.6609
 1192TIP3   OH2 3581   2.239   2.663   2.933  0.2057 -0.6989  0.0633
 1192TIP3    H1 3582   2.305   2.593   2.931 -0.2793 -1.2074  1.1495
 1192TIP3    H2 3583   2.289   2.743   2.920  0.7226 -1.2524 -1.6890
 1193TIP3   OH2 3584   0.927   2.454   4.784 -0.1039  0.2247 -0.0826
 1193TIP3    H1 3585   0.948   2.402   4.706  0.5284  0.4125 -0.0399
 1193TIP3    H2 3586   0.895   2.389   4.847 -0.2905  0.0264 -0.3765
 1194TIP3   OH2 3587   4.319   3.296   3.402  0.2944 -0.0518  0.2532
 1194TIP3    H1 3588   4.402   3.318   3.444  0.7540  0.8913 -1.0681
 1194TIP3    H2 3589   4.339   3.298   3.308 -1.0213 -0.6713 -0.0688
 1195TIP3   OH2 3590   4.541   5.562   1.294  0.5292  0.1230 -0.0772
 1195TIP3    H1 3591   4.530   5.481   1.245  1.6302 -0.0614 -0.0302
 1195TIP3    H2 3592   4.456   5.575   1.337  0.4166 -1.1471  0.1247
 1196TIP3   OH2 3593   4.305   4.883   3.300  0.3283 -0.1306 -0.0533
 1196TIP3    H1 3594   4.298   4.946   3.228  0.6362 -1.0364 -0.9006
 1196TIP3    H2 3595   4.215   4.853   3.314  0.3693 -0.5291 -0.6033
 1197TIP3   OH2 3596   0.198   5.791   1.381  0.4787 -0.2339 -0.0808
 1197TIP3    H1 3597   0.132   5.758   1.442  1.0380  2.2281  2.0264
 1197TIP3    H2 3598   0.281   5.758   1.415  0.5578 -3.1231 -2.5864
 1198TIP3   OH2 3599   0.334   5.436   3.446 -0.1957  0.4018  0.0284
 1198TIP3    H1 3600   0.408   5.494   3.465  0.5565  0.1551 -1.8967
 1198TIP3    H2 3601   0.265   5.495   3.413 -0.7465  0.5794  1.4218
 1199TIP3   OH2 3602   3.065   3.661   4.832  0.4403 -0.6000 -0.2450
 1199TIP3    H1 3603   3.147   3.688   4.874  0.1159 -0.0770  0.0650
 1199TIP3    H2 3604   3.030   3.592   4.889  0.0185  0.0836  0.3434
 1200TIP3   OH2 3605   6.202   2.908   0.991 -0.7663 -0.1281  0.3839
 1200TIP3    H1 3606   6.247   2.930   0.910 -1.3611  0.5571  0.2221
 1200TIP3    H2 3607   6.222   2.981   1.050 -2.8814  1.0215 -0.2038
 1201TIP3   OH2 3608   1.601   2.943   2.848 -0.4050 -0.2135 -0.1052
 1201TIP3    H1 3609   1.595   2.916   2.756  1.2255 -4.5428  0.8070
 1201TIP3    H2 3610   1.667   3.013   2.848 -0.4087 -0.1397 -2.1842
 1202TIP3   OH2 3611   4.620   4.092   1.679  0.1413 -0.0009  0.3820
 1202TIP3    H1 3612   4.640   4.182   1.656  0.4396 -0.0934  0.2664
 1202TIP3    H2 3613   4.534   4.095   1.720 -0.3175  0.1923 -0.5917
 1203TIP3   OH2 3614   2.611   4.501   4.483  0.2692 -0.0578 -0.0161
 1203TIP3    H1 3615   2.530   4.502   4.431  0.7244  0.6304 -0.7483
 1203TIP3    H2 3616   2.604   4.422   4.537 -0.2581 -0.7680 -1.0794
 1204TIP3   OH2 3617   2.316   1.529   0.566  0.6592  0.2988  0.1074
 1204TIP3    H1 3618   2.259   1.598   0.532  2.5618  1.4701 -0.8292
 1204TIP3    H2 3619   2.346   1.482   0.489 -0.5283 -1.5773  0.7295
 1205TIP3   OH2 3620   0.889   5.933   3.401  0.0499 -0.1233 -0.1411
 1205TIP3    H1 3621   0.916   5.844   3.424  1.2825 -0.3590 -2.2322
 1205TIP3    H2 3622   0.971   5.977   3.375 -0.6043  1.4730  0.3498
 1206TIP3   OH2 3623   0.918   0.343   2.818 -0.4804 -0.2177 -0.1369
 1206TIP3    H1 3624   0.985   0.292   2.863 -0.7914  0.8039  1.5805
 1206TIP3    H2 3625   0.851   0.279   2.794  0.0873 -0.9118  0.0993
 1207TIP3   OH2 3626   3.596   5.514   3.962  0.3449  0.3613 -0.0863
 1207TIP3    H1 3627   3.664   5.462   3.920 -0.4836 -0.9714  0.1428
 1207TIP3    H2 3628   3.591   5.479   4.051 -0.9118  0.1291 -0.2274
 1208TIP3   OH2 3629   0.471   5.684   3.432  0.0631  0.0745  0.1933
 1208TIP3    H1 3630   0.546   5.701   3.489 -0.2260 -0.3574  0.7108
 1208TIP3    H2 3631   0.509   5.676   3.344  0.5478  0.4426  0.3640
 1209TIP3   OH2 3632   3.461   5.148   1.970 -0.5450 -0.5494 -0.2810
 1209TIP3    H1 3633   3.521   5.119   2.039 -1.2151  0.0789  0.5908
 1209TIP3    H2 3634   3.506   5.125   1.888  0.9947  0.1145  0.3319
 1210TIP3   OH2 3635   1.680   2.380   3.102 -0.3650  0.0937  0.0329
 1210TIP3    H1 3636   1.693   2.469   3.069 -4.2571  0.9801  0.4613
 1210TIP3    H2 3637   1.676   2.326   3.023 -0.0535  0.6147 -0.3475
 1211TIP3   OH2 3638   2.653   4.820   1.832 -0.3915 -0.2086  0.1220
 1211TIP3    H1 3639   2.747   4.808   1.818 -0.5831 -0.9389 -0.6072
 1211TIP3    H2 3640   2.613   4.791   1.750 -1.2584  0.0060  0.4654
 1212TIP3   OH2 3641   0.808   0.972   4.026  0.0883 -0.4350 -0.1156
 1212TIP3    H1 3642   0.746   0.933   4.087  1.5902 -1.2634  0.9366
 1212TIP3    H2 3643   0.768   0.960   3.940 -0.9689 -1.3826  0.4858
 1213TIP3   OH2 3644   3.133   6.005   1.999  0.1866  0.5886 -0.1336
 1213TIP3    H1 3645   3.044   5.974   1.980  0.0312 -0.4341  1.9592
 1213TIP3    H2 3646   3.187   5.926   1.994  0.7319  0.9487  0.0032
 1214TIP3   OH2 3647   3.329   2.585   1.213 -0.0730  0.2261  0.4485
 1214TIP3    H1 3648   3.269   2.526   1.259 -0.2866  0.3447  0.3212
 1214TIP3    H2 3649   3.412   2.577   1.261  0.4910 -1.6795 -0.7235
 1215TIP3   OH2 3650   5.451   4.772   0.214 -0.6441 -0.1846  0.5947
 1215TIP3    H1 3651   5.453   4.836   0.286  0.0150  1.0541 -0.4745
 1215TIP3    H2 3652   5.422   4.691   0.254 -0.7519  0.6015  2.1658
 1216TIP3   OH2 3653   1.016   4.286   0.880  0.3080  0.5013  0.3993
 1216TIP3    H1 3654   1.044   4.328   0.961 -2.2546  1.9159  0.6630
 1216TIP3    H2 3655   0.923   4.269   0.894  0.1644 -0.6619 -1.6822
 1217TIP3   OH2 3656   3.257   2.833   1.375  0.1520 -0.2353 -0.4424
 1217TIP3    H1 3657   3.318   2.883   1.320 -0.6804 -0.1096 -1.2903
 1217TIP3    H2 3658   3.270   2.742   1.347  0.2048 -0.2480 -0.3751
 1218TIP3   OH2 3659   3.690   5.576   0.826  0.1965  0.6017 -0.6653
 1218TIP3    H1 3660   3.710   5.632   0.751  0.6070  0.3608 -0.7395
 1218TIP3    H2 3661   3.599   5.597   0.848 -0.6188 -0.7136 -2.4699
 1219TIP3   OH2 3662   1.046   0.804   3.730  0.2531 -0.0395 -0.0927
 1219TIP3    H1 3663   0.960   0.781   3.766 -1.5828  2.7160 -2.3616
 1219TIP3    H2 3664   1.043   0.774   3.639  2.4411 -1.4256  0.2097
 1220TIP3   OH2 3665   0.784   0.575   2.847 -0.9182  0.1082 -0.5176
 1220TIP3    H1 3666   0.829   0.492   2.828 -1.1154 -0.1064 -0.0641
 1220TIP3    H2 3667   0.732   0.592   2.768 -0.5771  0.0008 -0.7683
 1221TIP3   OH2 3668   2.136   3.260   3.207 -0.4791 -0.5262  0.0819
 1221TIP3    H1 3669   2.136   3.169   3.178 -2.0510 -0.1516 -1.2364
 1221TIP3    H2 3670   2.180   3.308   3.136 -1.3877 -0.0378 -0.1779
 1222TIP3   OH2 3671   1.973   1.998   2.591  0.0725  0.7188  0.0021
 1222TIP3    H1 3672   1.936   2.081   2.622  0.6036  0.7522  0.5758
 1222TIP3    H2 3673   2.062   2.020   2.562  1.1090 -0.0101  2.3490
 1223TIP3   OH2 3674   1.503   5.045   0.382  0.0311 -0.2934  0.3152
 1223TIP3    H1 3675   1.537   5.134   0.382  0.4130 -0.4190  1.4441
 1223TIP3    H2 3676   1.412   5.054   0.411  0.0859 -0.2704  0.4814
 1224TIP3   OH2 3677   0.462   2.431   5.168  0.2205  0.0852  0.3313
 1224TIP3    H1 3678   0.389   2.397   5.220  0.7175 -0.6376  0.5773
 1224TIP3    H2 3679   0.444   2.402   5.079 -0.2324  0.6540  0.2338
 1225TIP3   OH2 3680   4.220   2.355   4.087  0.1414  0.0610  0.2129
 1225TIP3    H1 3681   4.147   2.300   4.114 -0.1286  0.9217  1.3107
 1225TIP3    H2 3682   4.188   2.445   4.094  0.1550  0.4066 -2.7762
 1226TIP3   OH2 3683   0.262   3.856   1.529 -0.3010  0.1426  0.0829
 1226TIP3    H1 3684   0.347   3.816   1.507 -0.3749  0.1542 -0.2259
 1226TIP3    H2 3685   0.282   3.919   1.597  0.0575  0.6789 -0.5085
 1227TIP3   OH2 3686   1.254   4.004   1.926 -0.0663 -0.1036 -0.5638
 1227TIP3    H1 3687   1.321   4.073   1.918 -0.2876  0.1506 -0.2532
 1227TIP3    H2 3688   1.273   3.944   1.854  2.6747 -1.9173  1.4599
 1228TIP3   OH2 3689   3.386   5.246   3.787 -0.2764  0.0250  0.2139
 1228TIP3    H1 3690   3.414   5.184   3.720 -0.9743 -0.3238  0.2372
 1228TIP3    H2 3691   3.438   5.325   3.769  0.1289 -0.3328 -0.2312
 1229TIP3   OH2 3692   4.338   4.102   1.684  0.2253  0.3604  0.0109
 1229TIP3    H1 3693   4.343   4.128   1.592  2.8102 -1.0924 -0.3718
 1229TIP3    H2 3694   4.292   4.173   1.727  0.5980  1.9839 -2.1265
 1230TIP3   OH2 3695   2.936   5.257   2.988 -0.0181  0.2601 -0.4340
 1230TIP3    H1 3696   3.011   5.216   3.030 -0.3987  0.7805  0.8121
 1230TIP3    H2 3697   2.932   5.345   3.027 -0.8032  0.5100 -1.0573
 1231TIP3   OH2 3698   4.642   0.529   5.012 -0.0920  0.2985 -0.3000
 1231TIP3    H1 3699   4.583   0.457   5.035  1.1146 -0.6373 -0.0453
 1231TIP3    H2 3700   4.692   0.546   5.092  0.5239  0.5483 -0.7281
 1232TIP3   OH2 3701   6.280   1.403   0.581 -0.2918  0.4867 -0.4055
 1232TIP3    H1 3702   6.202   1.364   0.621 -0.3993  0.3849 -0.7151
 1232TIP3    H2 3703   6.313   1.336   0.522  1.0526 -0.1845  1.0158
 1233TIP3   OH2 3704   1.628   1.937   2.565  0.1224  0.3816 -0.3751
 1233TIP3    H1 3705   1.570   1.867   2.535 -0.5511  0.2879  1.0526
 1233TIP3    H2 3706   1.715   1.896   2.569 -0.3779 -0.6041  1.1020
 1234TIP3   OH2 3707   5.145   1.588   4.340  0.3882  0.2386 -0.2581
 1234TIP3    H1 3708   5.211   1.529   4.377 -1.1479 -0.1729  2.0417
 1234TIP3    H2 3709   5.117   1.642   4.414  0.9936  3.2386 -2.0557
 1235TIP3   OH2 3710   1.237   4.414   0.106  0.7803  0.3885 -0.2578
 1235TIP3    H1 3711   1.223   4.456   0.191 -2.0515  0.1744 -0.5282
 1235TIP3    H2 3712   1.278   4.330   0.126  2.3094  1.2948  0.6424
 1236TIP3   OH2 3713   3.251   2.916   5.131 -0.5162 -0.2272 -0.1656
 1236TIP3    H1 3714   3.323   2.945   5.187  0.3616  1.9739 -2.2824
 1236TIP3    H2 3715   3.174   2.920   5.188  0.6166 -0.0798  1.4180
 1237TIP3   OH2 3716   1.617   1.272   0.825  0.0688  0.3267  0.3139
 1237TIP3    H1 3717   1.691   1.332   0.839  0.0890  0.4634 -0.3545
 1237TIP3    H2 3718   1.575   1.266   0.911  1.4176 -0.5003  0.9424
 1238TIP3   OH2 3719   3.161   3.649   4.497 -0.6910 -0.3273 -0.3218
 1238TIP3    H1 3720   3.252   3.674   4.479 -0.9177 -0.5465 -1.9902
 1238TIP3    H2 3721   3.120   3.729   4.529  0.2032 -0.3610  0.9645
 1239TIP3   OH2 3722   4.426   0.073   0.221 -0.5789 -0.1360 -0.3187
 1239TIP3    H1 3723   4.494   0.039   0.279 -1.8020 -1.4523  0.4192
 1239TIP3    H2 3724   4.379   0.137   0.274 -0.4966  0.0924 -0.5185
 1240TIP3   OH2 3725   2.223   0.882   2.200 -0.4845  0.1309  0.3768
 1240TIP3    H1 3726   2.221   0.975   2.226  1.8060  0.5131 -0.5343
 1240TIP3    H2 3727   2.286   0.842   2.259  0.8779 -0.1170 -1.1668
 1241TIP3   OH2 3728   6.283   1.823   0.130 -0.5990  0.3286 -0.4716
 1241TIP3    H1 3729   6.293   1.744   0.077  3.1824  0.4334 -0.1906
 1241TIP3    H2 3730   6.297   1.793   0.220  0.2806  1.1874 -0.3067
 1242TIP3   OH2 3731   5.044   0.095   2.495 -0.1452  0.5191 -0.1967
 1242TIP3    H1 3732   5.136   0.096   2.522  0.0143  2.4558 -0.6342
 1242TIP3    H2 3733   5.045   0.058   2.406  0.0236 -0.7143  0.3101
 1243TIP3   OH2 3734   0.518   1.504   1.268  0.8139 -0.1778 -0.7622
 1243TIP3    H1 3735   0.532   1.550   1.185 -2.1594  2.2788 -0.0733
 1243TIP3    H2 3736   0.424   1.484   1.269  1.5756 -5.1052 -0.2393
 1244TIP3   OH2 3737   3.957   3.206   3.719 -0.1423  0.3641 -0.1327
 1244TIP3    H1 3738   4.010   3.175   3.645 -0.2705 -1.4975  0.5102
 1244TIP3    H2 3739   3.879   3.242   3.679  0.7541  1.4121 -1.0045
 1245TIP3   OH2 3740   4.834   0.923   1.025 -0.2680 -0.5819  0.1627
 1245TIP3    H1 3741   4.771   0.933   0.954  0.3487 -0.1854 -0.3316
 1245TIP3    H2 3742   4.796   0.855   1.081 -0.7593 -0.8902 -0.5371
 1246TIP3   OH2 3743   4.830   3.455   0.048 -0.5597 -0.0314  0.1333
 1246TIP3    H1 3744   4.749   3.499   0.075 -0.1133  0.5168  0.5799
 1246TIP3    H2 3745   4.892   3.526   0.031 -0.3756 -0.4249 -0.8817
 1247TIP3   OH2 3746   5.646   3.053   4.965 -0.1735  0.1211  0.0537
 1247TIP3    H1 3747   5.699   2.993   4.913  0.2072  0.1752  0.3687
 1247TIP3    H2 3748   5.635   3.130   4.909 -0.4387 -0.1359 -0.2481
 1248TIP3   OH2 3749   3.701   2.537   5.046  0.1161 -0.2200 -0.0403
 1248TIP3    H1 3750   3.636   2.508   4.982 -0.7114 -0.7972  1.0242
 1248TIP3    H2 3751   3.742   2.456   5.076  0.4994  0.0429  0.1539
 1249TIP3   OH2 3752   4.162   1.918   1.666  0.2298 -0.1063  0.0701
 1249TIP3    H1 3753   4.123   1.901   1.752  1.4596  0.2550  0.7280
 1249TIP3    H2 3754   4.256   1.912   1.681  0.7355  3.8677 -0.3207
 1250TIP3   OH2 3755   1.588   3.224   1.652  0.0221 -0.0197  0.0337
 1250TIP3    H1 3756   1.566   3.295   1.713 -1.0800  0.8423 -1.2972
 1250TIP3    H2 3757   1.528   3.236   1.579  0.9649 -1.3260 -1.0079
 1251TIP3   OH2 3758   1.518   1.183   4.693 -0.0720 -0.6251  0.1073
 1251TIP3    H1 3759   1.440   1.188   4.748  0.5663  1.4011  0.9415
 1251TIP3    H2 3760   1.487   1.206   4.605 -0.8468 -2.4671 -0.1340
 1252TIP3   OH2 3761   2.112   0.742   3.109  0.0474 -0.1931  0.4306
 1252TIP3    H1 3762   2.033   0.795   3.099  0.0141 -0.3978 -0.4108
 1252TIP3    H2 3763   2.105   0.707   3.198 -0.7355 -0.0885  0.4193
 1253TIP3   OH2 3764   3.347   4.962   3.418  0.5064  0.2060  0.2091
 1253TIP3    H1 3765   3.358   5.050   3.381  0.6190 -0.5116 -1.6037
 1253TIP3    H2 3766   3.258   4.961   3.453  0.0538  0.6873 -0.8796
 1254TIP3   OH2 3767   2.138   0.152   3.991  0.2523 -0.1008 -0.2877
 1254TIP3    H1 3768   2.109   0.228   3.940  0.8902 -0.1336 -0.7021
 1254TIP3    H2 3769   2.233   0.158   3.991  0.2608  0.3522  1.5815
 1255TIP3   OH2 3770   2.700   0.430   3.568  0.1481 -0.3943  0.5532
 1255TIP3    H1 3771   2.686   0.345   3.526 -0.6431 -0.2553  0.5259
 1255TIP3    H2 3772   2.616   0.451   3.609 -0.5936  1.6274 -1.7575
 1256TIP3   OH2 3773   1.055   4.625   3.680 -0.0241 -0.4557 -0.5823
 1256TIP3    H1 3774   1.024   4.548   3.633 -1.3775 -0.0328 -0.4239
 1256TIP3    H2 3775   0.997   4.695   3.653 -1.1106 -0.2711  1.9509
 1257TIP3   OH2 3776   2.690   2.165   1.772  0.3801 -0.0820 -0.0832
 1257TIP3    H1 3777   2.621   2.119   1.724 -0.1782  0.2693  0.3611
 1257TIP3    H2 3778   2.644   2.238   1.815  1.1431  0.5250 -0.2930
 1258TIP3   OH2 3779   4.709   3.473   1.477  0.0746 -0.2822  0.2490
 1258TIP3    H1 3780   4.753   3.388   1.480 -0.2795 -0.4887 -0.2004
 1258TIP3    H2 3781   4.779   3.537   1.486  0.3117 -0.6268  0.8801
 1259TIP3   OH2 3782   2.261   5.705   2.937  0.3432  0.0862  0.0231
 1259TIP3    H1 3783   2.302   5.790   2.920  0.7814 -0.1524 -0.1368
 1259TIP3    H2 3784   2.167   5.721   2.930  0.4619  0.2868 -1.3098
 1260TIP3   OH2 3785   0.740   0.514   3.678 -0.1574 -0.1054 -0.3046
 1260TIP3    H1 3786   0.663   0.564   3.651 -0.8864 -1.7613 -1.4910
 1260TIP3    H2 3787   0.776   0.480   3.597  1.0910 -0.4152  0.3570
 1261TIP3   OH2 3788   2.064   2.647   3.138  0.4163 -0.3839 -0.0910
 1261TIP3    H1 3789   2.137   2.646   3.075  0.0136 -3.2783 -0.6448
 1261TIP3    H2 3790   2.085   2.577   3.200 -0.8355  0.2267  1.0596
 1262TIP3   OH2 3791   1.683   2.439   4.526  0.0763  0.1903  0.1660
 1262TIP3    H1 3792   1.690   2.451   4.432  2.3325 -1.3698  0.0585
 1262TIP3    H2 3793   1.642   2.354   4.537  2.0523 -0.7809  0.4782
 1263TIP3   OH2 3794   3.944   2.989   0.560 -0.4278  0.1170 -0.4897
 1263TIP3    H1 3795   3.926   2.910   0.610 -0.1941  0.8232  0.7752
 1263TIP3    H2 3796   3.904   2.974   0.475 -2.1939 -0.5394  0.4018
 1264TIP3   OH2 3797   4.080   4.086   3.441 -0.6820  0.1608  0.0969
 1264TIP3    H1 3798   4.008   4.047   3.392  1.2080 -1.1502 -1.8382
 1264TIP3    H2 3799   4.137   4.124   3.374  0.1272  1.7636  1.6002
 1265TIP3   OH2 3800   1.915   3.965   3.635  0.0268  0.3642  0.4316
 1265TIP3    H1 3801   1.992   3.985   3.583 -0.5822  2.2860  0.2164
 1265TIP3    H2 3802   1.841   3.972   3.574 -0.4067 -0.9073  0.7612
 1266TIP3   OH2 3803   3.184   3.867   1.828 -0.1211  0.3277  0.9937
 1266TIP3    H1 3804   3.195   3.940   1.768  0.6015 -0.8910 -0.4386
 1266TIP3    H2 3805   3.089   3.850   1.827 -0.3278  1.3859  1.5456
 1267TIP3   OH2 3806   2.479   5.188   2.764 -0.2006  0.1548  0.2234
 1267TIP3    H1 3807   2.441   5.146   2.841  0.4998  0.1986  0.6058
 1267TIP3    H2 3808   2.571   5.204   2.788 -0.1074  0.6572 -0.4210
 1268TIP3   OH2 3809   5.981   1.815   3.981 -0.2763  0.4832 -0.2794
 1268TIP3    H1 3810   6.013   1.881   3.920 -0.0262  1.1253  0.5348
 1268TIP3    H2 3811   5.989   1.856   4.067  2.2907 -1.4542  0.5384
 1269TIP3   OH2 3812   2.718   0.547   4.926 -0.4783  0.1604  0.1111
 1269TIP3    H1 3813   2.727   0.625   4.872  0.8550 -0.1242 -0.1139
 1269TIP3    H2 3814   2.755   0.572   5.011 -1.9330  0.3922  0.7007
 1270TIP3   OH2 3815   0.811   4.225   4.847 -0.4260 -0.1757 -0.0060
 1270TIP3    H1 3816   0.890   4.173   4.863  1.0007  1.9747  0.4279
 1270TIP3    H2 3817   0.749   4.196   4.913  0.0728 -1.7489 -0.1961
 1271TIP3   OH2 3818   3.852   0.731   3.272 -0.0704  0.2024 -0.0257
 1271TIP3    H1 3819   3.857   0.654   3.329  2.7570  0.3428  0.0540
 1271TIP3    H2 3820   3.761   0.761   3.280 -0.9835 -2.4992  0.7272
 1272TIP3   OH2 3821   1.422   3.780   4.740 -0.7391 -0.2043  0.3041
 1272TIP3    H1 3822   1.381   3.726   4.807 -2.1384  0.5889  0.1344
 1272TIP3    H2 3823   1.389   3.745   4.657 -1.9048  1.0323  0.2036
 1273TIP3   OH2 3824   1.661   4.711   2.303 -0.3849 -0.0935 -0.1283
 1273TIP3    H1 3825   1.576   4.720   2.346 -1.7133 -1.6381 -2.2544
 1273TIP3    H2 3826   1.666   4.786   2.244  0.1338  0.4333  0.5613
 1274TIP3   OH2 3827   5.551   2.473   4.309 -0.5393  0.1006  0.6631
 1274TIP3    H1 3828   5.488   2.401   4.313  1.0768 -1.7941 -2.8536
 1274TIP3    H2 3829   5.514   2.534   4.245  0.3064 -0.1025 -0.0397
 1275TIP3   OH2 3830   1.695   0.672   2.521 -0.2361 -0.2450 -0.4561
 1275TIP3    H1 3831   1.743   0.662   2.604 -1.4033  2.0247  0.5747
 1275TIP3    H2 3832   1.756   0.717   2.463  0.0037 -0.3486 -0.2885
 1276TIP3   OH2 3833   1.249   1.498   2.994  0.1195 -0.0929 -0.0943
 1276TIP3    H1 3834   1.195   1.527   3.069 -0.7757 -2.5985  0.3237
 1276TIP3    H2 3835   1.306   1.430   3.030  2.4397  1.2910 -0.9316
 1277TIP3   OH2 3836   2.805   0.582   3.165 -0.5814  0.1780  0.8818
 1277TIP3    H1 3837   2.837   0.575   3.075  0.9350  0.7603  1.3585
 1277TIP3    H2 3838   2.710   0.571   3.157 -0.4745  0.2426 -0.7918
 1278TIP3   OH2 3839   0.547   5.104   4.142  0.3980 -0.1269 -0.1267
 1278TIP3    H1 3840   0.583   5.167   4.204 -0.2806  0.3904 -0.2502
 1278TIP3    H2 3841   0.457   5.090   4.171  0.4349 -0.7776 -0.3043
 1279TIP3   OH2 3842   5.664   4.935   2.846  0.2455  0.0525 -0.1858
 1279TIP3    H1 3843   5.728   4.953   2.778  1.5688 -0.4127  0.8805
 1279TIP3    H2 3844   5.682   5.000   2.914 -0.0632 -0.4071  0.3483
 1280TIP3   OH2 3845   4.392   5.907   4.289 -0.0418  0.0350 -0.0669
 1280TIP3    H1 3846   4.355   5.860   4.215  0.5222  0.1975 -0.4658
 1280TIP3    H2 3847   4.485   5.915   4.268 -0.2083  1.8299 -0.2941
 1281TIP3   OH2 3848   1.850   3.964   3.036 -0.2472  0.2688 -0.6389
 1281TIP3    H1 3849   1.825   3.894   2.977  1.2397 -0.1528 -0.8190
 1281TIP3    H2 3850   1.770   4.015   3.048 -1.0899 -0.8325 -1.3462
 1282TIP3   OH2 3851   2.684   3.167   4.362  0.0830  0.1363 -0.0025
 1282TIP3    H1 3852   2.691   3.262   4.350 -1.0551  0.0857 -1.4966
 1282TIP3    H2 3853   2.644   3.157   4.448  0.4291  1.0126  0.2725
 1283TIP3   OH2 3854   3.717   2.380   4.569  0.5454 -0.3455 -0.4228
 1283TIP3    H1 3855   3.707   2.332   4.652  1.6948 -0.5931 -0.4154
 1283TIP3    H2 3856   3.650   2.448   4.574  1.8042  0.8604  1.5891
 1284TIP3   OH2 3857   3.643   3.810   4.478 -0.2377 -0.1749  0.0569
 1284TIP3    H1 3858   3.646   3.733   4.422 -0.6142 -0.3976  0.3364
 1284TIP3    H2 3859   3.723   3.858   4.458 -0.0818 -0.5576 -0.2361
 1285TIP3   OH2 3860   0.648   4.551   2.774  0.5240 -0.0937  0.0477
 1285TIP3    H1 3861   0.665   4.458   2.792  1.5690  0.3152  1.2999
 1285TIP3    H2 3862   0.554   4.555   2.760  0.6303 -1.5705 -1.5738
 1286TIP3   OH2 3863   4.884   3.270   2.317  0.3518 -0.2226  0.0252
 1286TIP3    H1 3864   4.906   3.363   2.313 -0.9099  0.0830 -0.5828
 1286TIP3    H2 3865   4.788   3.269   2.327  0.5375 -1.4564  2.2037
 1287TIP3   OH2 3866   1.738   3.462   5.159 -0.1643  0.0211  0.4733
 1287TIP3    H1 3867   1.773   3.551   5.162 -1.3474  0.5584 -0.5633
 1287TIP3    H2 3868   1.666   3.467   5.097 -0.4189 -1.6192  0.5904
 1288TIP3   OH2 3869   2.170   5.288   3.315 -0.1136  0.1151 -0.1016
 1288TIP3    H1 3870   2.218   5.305   3.234 -0.0258 -0.4178 -0.1627
 1288TIP3    H2 3871   2.168   5.372   3.360 -0.9359  0.6423 -1.0688
 1289TIP3   OH2 3872   0.179   4.071   1.045 -0.2688 -0.3026  0.4104
 1289TIP3    H1 3873   0.188   4.115   1.130  0.2960 -1.2456  0.8618
 1289TIP3    H2 3874   0.228   3.989   1.056  0.0687 -0.2944 -0.9361
 1290TIP3   OH2 3875   5.606   3.418   2.636  0.3510  0.3447 -0.1891
 1290TIP3    H1 3876   5.626   3.378   2.551 -0.5935  0.3658 -0.4292
 1290TIP3    H2 3877   5.649   3.504   2.632  0.7967  0.1151 -0.4182
 1291TIP3   OH2 3878   0.689   2.229   4.741  0.2964 -0.1696  0.0231
 1291TIP3    H1 3879   0.734   2.183   4.812 -0.5759 -1.3084 -0.1358
 1291TIP3    H2 3880   0.596   2.210   4.755 -0.0015  0.7289 -0.6348
 1292TIP3   OH2 3881   3.189   1.644   3.396  0.9014 -0.1668 -0.2756
 1292TIP3    H1 3882   3.146   1.567   3.358  0.8623 -0.3695  0.1673
 1292TIP3    H2 3883   3.130   1.717   3.377  1.0534 -0.2073 -0.9047
 1293TIP3   OH2 3884   4.621   4.906   5.120  0.0505  0.5745  0.6818
 1293TIP3    H1 3885   4.540   4.884   5.075  0.5097  0.6945 -0.2192
 1293TIP3    H2 3886   4.592   4.949   5.201 -0.7865  1.7587 -0.2090
 1294TIP3   OH2 3887   3.900   2.000   2.535 -0.2565  0.1069  0.2504
 1294TIP3    H1 3888   3.901   2.062   2.608 -0.4342  0.9106 -0.4255
 1294TIP3    H2 3889   3.917   1.915   2.576 -1.0487  0.4482  1.3314
 1295TIP3   OH2 3890   4.256   2.339   4.960 -0.1637 -0.0487 -0.2827
 1295TIP3    H1 3891   4.172   2.297   4.977 -0.4067  1.0694  1.6273
 1295TIP3    H2 3892   4.296   2.347   5.047 -0.7101  4.7012 -0.2021
 1296TIP3   OH2 3893   3.445   0.177   4.517 -0.5437  0.0769  0.1352
 1296TIP3    H1 3894   3.386   0.134   4.578 -0.1477 -0.1928  0.3269
 1296TIP3    H2 3895   3.529   0.134   4.530 -0.0540  1.1259  0.5805
 1297TIP3   OH2 3896   2.366   1.747   3.636 -0.1531  0.0845  0.7135
 1297TIP3    H1 3897   2.365   1.653   3.621  0.2336  0.2632 -0.5306
 1297TIP3    H2 3898   2.275   1.775   3.628 -0.3266 -0.2353  1.5044
 1298TIP3   OH2 3899   4.458   1.993   3.624 -0.2529 -0.0809  0.0484
 1298TIP3    H1 3900   4.366   1.967   3.632  0.1015 -1.9059 -1.1895
 1298TIP3    H2 3901   4.457   2.065   3.561 -0.8063 -0.3351 -0.2396
 1299TIP3   OH2 3902   3.560   5.116   1.691 -0.2443  0.0982  0.6588
 1299TIP3    H1 3903   3.645   5.099   1.650 -1.4817 -1.1532 -1.6114
 1299TIP3    H2 3904   3.535   5.203   1.658 -0.9001 -0.5870 -0.7324
 1300TIP3   OH2 3905   4.999   1.173   3.122  0.1005  0.3134 -0.2299
 1300TIP3    H1 3906   5.002   1.258   3.166 -0.0665 -0.1908  0.7965
 1300TIP3    H2 3907   4.949   1.117   3.182  0.7723 -0.6822 -0.5708
 1301TIP3   OH2 3908   6.237   4.490   3.602 -0.2781 -0.2001  0.6109
 1301TIP3    H1 3909   6.223   4.506   3.696  2.1998  0.6419  0.9191
 1301TIP3    H2 3910   6.193   4.564   3.559  0.0621  0.3832  1.2382
 1302TIP3   OH2 3911   3.979   0.079   4.712  0.3247 -0.2470 -0.2805
 1302TIP3    H1 3912   3.961  -0.006   4.671 -0.4674 -0.6756  0.9053
 1302TIP3    H2 3913   4.031   0.059   4.789 -0.4247  0.2591  0.3755
 1303TIP3   OH2 3914   1.912   1.334   3.058  0.5970  0.0618 -0.2982
 1303TIP3    H1 3915   1.992   1.328   3.005 -0.2564 -0.6922 -1.5490
 1303TIP3    H2 3916   1.911   1.252   3.108  0.3832 -0.1337 -0.6200
 1304TIP3   OH2 3917   2.408   1.955   1.897  0.1957 -0.2398 -0.2824
 1304TIP3    H1 3918   2.493   1.959   1.853  0.1297  2.1816 -0.3259
 1304TIP3    H2 3919   2.428   1.960   1.990  0.1072  1.7499 -0.3313
 1305TIP3   OH2 3920   4.038   4.998   1.564  0.3466  0.6528  0.3005
 1305TIP3    H1 3921   4.130   4.980   1.583  0.1350  0.1492  0.8802
 1305TIP3    H2 3922   4.001   5.021   1.649 -0.1816  0.3407  0.1518
 1306TIP3   OH2 3923   2.298   1.782   3.030  0.1149  0.7489  0.1099
 1306TIP3    H1 3924   2.223   1.722   3.034 -0.0523  0.9499  0.0244
 1306TIP3    H2 3925   2.325   1.780   2.938 -0.0323  0.9766  0.0619
 1307TIP3   OH2 3926   5.068   3.286   4.104  0.7687 -0.4788 -0.1649
 1307TIP3    H1 3927   5.068   3.376   4.135  2.0966 -0.7111  0.5896
 1307TIP3    H2 3928   4.982   3.252   4.129  0.1322  0.6504 -0.7377
 1308TIP3   OH2 3929   6.105   1.073   3.630 -0.1984  0.4843 -0.0910
 1308TIP3    H1 3930   6.061   1.152   3.662 -1.5237 -0.7816  1.3934
 1308TIP3    H2 3931   6.100   1.012   3.704  2.6719 -0.2972 -0.4324
 1309TIP3   OH2 3932   4.078   0.881   4.309  0.4240 -0.4781 -0.0609
 1309TIP3    H1 3933   4.050   0.968   4.279  1.0814 -0.1016  0.3920
 1309TIP3    H2 3934   4.003   0.824   4.291  0.0347  0.1551 -0.4870
 1310TIP3   OH2 3935   1.026   1.605   3.850 -0.4225  0.2240  0.4077
 1310TIP3    H1 3936   1.091   1.619   3.780  1.0560 -0.7311  1.5281
 1310TIP3    H2 3937   0.954   1.559   3.807  0.6555 -0.7467 -0.4349
 1311TIP3   OH2 3938   1.499   4.512   3.706  0.6432 -0.1852  0.3382
 1311TIP3    H1 3939   1.490   4.585   3.644 -0.6441 -2.4780 -2.4740
 1311TIP3    H2 3940   1.439   4.534   3.777 -0.0841  1.2841 -0.6624
 1312TIP3   OH2 3941   1.640   2.713   4.008 -0.3715  0.2608  0.2645
 1312TIP3    H1 3942   1.552   2.715   4.045 -1.3869 -1.2009 -1.8414
 1312TIP3    H2 3943   1.635   2.769   3.931  0.1830 -0.7562 -0.5322
 1313TIP3   OH2 3944   2.489   3.015   1.439  0.0306 -0.4437  0.3180
 1313TIP3    H1 3945   2.511   2.932   1.396  0.0707 -0.3457  0.1469
 1313TIP3    H2 3946   2.400   3.034   1.409 -0.2826 -0.8266  0.9878
 1314TIP3   OH2 3947   4.527   3.162   4.372 -0.6792 -0.7718  0.1595
 1314TIP3    H1 3948   4.541   3.071   4.399 -0.0638 -0.8725 -0.4734
 1314TIP3    H2 3949   4.478   3.156   4.290  1.4952 -0.6382 -1.2122
 1315TIP3   OH2 3950   1.041   4.002   3.814 -0.4493  0.0494  0.0480
 1315TIP3    H1 3951   1.064   4.006   3.907 -0.5129 -0.0089  0.0675
 1315TIP3    H2 3952   1.120   3.970   3.771 -0.6495 -0.6531  0.1819
 1316TIP3   OH2 3953   1.015   3.087   3.333  0.2501 -0.1541 -0.0678
 1316TIP3    H1 3954   0.996   3.028   3.260  0.0300 -0.6689  0.3980
 1316TIP3    H2 3955   0.938   3.143   3.339  0.8201  0.7732 -1.0622
 1317TIP3   OH2 3956   5.131   3.941   3.652 -0.0437  0.4065  0.0117
 1317TIP3    H1 3957   5.181   3.966   3.574 -0.9780 -2.5034 -1.6502
 1317TIP3    H2 3958   5.173   3.861   3.684 -2.7134 -1.4210 -0.6899
 1318TIP3   OH2 3959   6.154   3.866   0.946 -0.0583 -0.5848 -0.7692
 1318TIP3    H1 3960   6.082   3.928   0.947  0.9244  0.6067 -0.5953
 1318TIP3    H2 3961   6.161   3.836   1.037 -0.4654 -0.8603 -0.8294
 1319TIP3   OH2 3962   4.180   0.414   2.993 -0.3394  0.2113 -0.0539
 1319TIP3    H1 3963   4.085   0.409   2.997 -0.4180  0.8492 -0.7501
 1319TIP3    H2 3964   4.199   0.508   2.999  0.2702  0.0539  0.5355
 1320TIP3   OH2 3965   4.735   4.093   2.770  0.5302 -0.0409  0.2899
 1320TIP3    H1 3966   4.730   4.030   2.841  0.0067 -0.4316 -0.0876
 1320TIP3    H2 3967   4.810   4.065   2.718  0.3370 -0.3177  0.1582
 1321TIP3   OH2 3968   0.923   3.023   1.332 -0.0631 -0.2456  0.1691
 1321TIP3    H1 3969   1.001   2.976   1.359 -0.1510 -1.0255 -0.8820
 1321TIP3    H2 3970   0.871   2.959   1.284  0.8318  1.3707 -3.3096
 1322TIP3   OH2 3971   5.457   1.806   0.762  0.6013 -0.3830 -0.1539
 1322TIP3    H1 3972   5.403   1.773   0.691  3.5043  2.0539 -3.8969
 1322TIP3    H2 3973   5.404   1.876   0.801 -1.4412 -2.4146  0.9644
 1323TIP3   OH2 3974   1.581   2.796   3.077  0.1925  0.2278  0.3197
 1323TIP3    H1 3975   1.565   2.868   3.016 -1.2065 -0.1121  0.2683
 1323TIP3    H2 3976   1.665   2.759   3.048 -0.1086  0.5014 -0.9750
 1324TIP3   OH2 3977   4.106   4.142   3.698 -0.0266 -0.7097  0.0785
 1324TIP3    H1 3978   4.192   4.109   3.724  1.2824  2.2259 -0.1155
 1324TIP3    H2 3979   4.109   4.142   3.602 -0.7792 -1.7644  0.0375
 1325TIP3   OH2 3980   4.851   0.344   0.216 -0.2672 -0.0554  0.2043
 1325TIP3    H1 3981   4.831   0.388   0.134  0.8488 -0.3922 -0.2653
 1325TIP3    H2 3982   4.875   0.255   0.190 -0.3462 -0.2988  0.9350
 1326TIP3   OH2 3983   5.762   5.098   2.442 -0.4522 -0.1613 -0.4014
 1326TIP3    H1 3984   5.798   5.018   2.480 -1.7881 -0.0796  1.1337
 1326TIP3    H2 3985   5.673   5.103   2.476  0.1953  3.0324  1.2461
 1327TIP3   OH2 3986   5.713   5.901   0.439  0.0561  0.6969 -0.1637
 1327TIP3    H1 3987   5.698   5.977   0.383 -0.7095  0.6997  0.0338
 1327TIP3    H2 3988   5.692   5.826   0.384  1.7435  0.5511 -0.6708
 1328TIP3   OH2 3989   2.944   1.230   5.100  0.1235  0.4804  1.0238
 1328TIP3    H1 3990   2.907   1.201   5.183  0.1190  2.3399  1.7272
 1328TIP3    H2 3991   3.039   1.223   5.113  0.1181 -0.9812  0.4788
 1329TIP3   OH2 3992   0.315   5.274   2.871 -0.1694 -0.2503 -0.1262
 1329TIP3    H1 3993   0.408   5.280   2.848  0.1889 -0.0017  1.2994
 1329TIP3    H2 3994   0.309   5.316   2.957 -1.7087  0.2514 -0.4566
 1330TIP3   OH2 3995   3.621   5.616   0.479 -0.0850  0.0255  0.1283
 1330TIP3    H1 3996   3.631   5.681   0.548 -0.6202 -2.0992  2.3474
 1330TIP3    H2 3997   3.527   5.601   0.472 -0.1652  1.1338 -2.0779
 1331TIP3   OH2 3998   4.442   2.186   0.629 -0.0890 -0.0853 -0.1235
 1331TIP3    H1 3999   4.455   2.262   0.684  0.3282  0.0749 -0.4304
 1331TIP3    H2 4000   4.530   2.164   0.598 -0.3001 -0.2473 -0.6205
 1332TIP3   OH2 4001   2.942   4.978   3.502 -0.0516  0.2365 -0.0979
 1332TIP3    H1 4002   3.001   4.917   3.547 -1.3138 -0.1624  1.1027
 1332TIP3    H2 4003   2.975   4.982   3.412  1.2946 -0.5957  0.3263
 1333TIP3   OH2 4004   3.179   2.321   4.619  0.2478 -0.0505  0.2904
 1333TIP3    H1 4005   3.253   2.352   4.567  0.0532 -1.8210 -1.1572
 1333TIP3    H2 4006   3.102   2.360   4.577  0.2278  0.0477  0.4214
 1334TIP3   OH2 4007   0.857   2.470   3.502 -0.3563  0.2730  0.1770
 1334TIP3    H1 4008   0.825   2.533   3.566 -0.2661  0.1580  0.3348
 1334TIP3    H2 4009   0.919   2.520   3.449 -1.3202  0.6834 -0.5832
 1335TIP3   OH2 4010   1.795   0.122   2.495  0.0517  0.0480 -0.2245
 1335TIP3    H1 4011   1.822   0.087   2.410 -1.1111 -0.5665 -0.3592
 1335TIP3    H2 4012   1.851   0.198   2.508 -0.9608  1.2937 -2.4308
 1336TIP3   OH2 4013   4.219   1.787   3.291 -0.6322  0.1967 -0.2398
 1336TIP3    H1 4014   4.279   1.811   3.221 -0.4895  0.0247 -0.1768
 1336TIP3    H2 4015   4.180   1.870   3.320  1.9607  0.7850  1.9299
 1337TIP3   OH2 4016   2.458   1.318   1.461  0.4986  0.3038  0.4248
 1337TIP3    H1 4017   2.435   1.292   1.550  1.0153  2.2285  1.1578
 1337TIP3    H2 4018   2.436   1.241   1.408  3.4144 -2.2799  2.5870
 1338TIP3   OH2 4019   0.410   3.728   4.172  0.1383 -0.8547 -0.1685
 1338TIP3    H1 4020   0.357   3.753   4.095 -0.1462 -4.0371 -1.1465
 1338TIP3    H2 4021   0.348   3.684   4.230  0.6900  0.1395  1.2314
 1339TIP3   OH2 4022   4.786   5.953   0.560 -0.0028  0.2947 -0.0532
 1339TIP3    H1 4023   4.776   6.021   0.628 -2.1634 -0.5131  0.5223
 1339TIP3    H2 4024   4.739   5.877   0.595  1.0266 -1.0053 -1.3681
 1340TIP3   OH2 4025   3.947   5.788   4.040 -0.2911 -0.1209 -0.6070
 1340TIP3    H1 4026   3.911   5.849   4.104 -0.8932 -0.4606 -0.6148
 1340TIP3    H2 4027   3.990   5.843   3.975 -0.2753  0.2608 -0.2749
 1341TIP3   OH2 4028   0.666   4.342   1.746 -0.3974 -0.3990  0.3210
 1341TIP3    H1 4029   0.666   4.373   1.655  0.8749 -2.1742 -0.3529
 1341TIP3    H2 4030   0.588   4.287   1.752  0.4713 -1.7695 -0.3167
 1342TIP3   OH2 4031   1.190   5.207   2.282  0.2198  0.3880 -0.1280
 1342TIP3    H1 4032   1.121   5.167   2.229 -1.8244  0.0810  2.5275
 1342TIP3    H2 4033   1.171   5.301   2.278  0.8412  0.4926 -0.8898
 1343TIP3   OH2 4034   1.953   3.635   2.754  0.2356 -0.1718  0.1685
 1343TIP3    H1 4035   1.927   3.717   2.712  0.7753  1.0690  2.1337
 1343TIP3    H2 4036   1.870   3.587   2.766 -0.1902  0.4400 -0.2587
 1344TIP3   OH2 4037   6.270   0.962   3.298 -0.0746 -0.3204 -0.0155
 1344TIP3    H1 4038   6.348   1.013   3.275 -0.7677  0.9404  0.3015
 1344TIP3    H2 4039   6.211   0.976   3.224 -0.3135 -0.5996  0.1240
 1345TIP3   OH2 4040   3.051   1.643   3.707  0.1912  0.3119 -0.3233
 1345TIP3    H1 4041   3.014   1.727   3.736  1.6686  1.2384 -0.9911
 1345TIP3    H2 4042   2.990   1.613   3.639 -0.3248  0.8698 -0.1171
 1346TIP3   OH2 4043   0.571   4.679   3.286 -0.1573 -0.0227  0.2381
 1346TIP3    H1 4044   0.658   4.705   3.313 -0.2902  0.0630  0.5849
 1346TIP3    H2 4045   0.581   4.651   3.195  0.1957  0.1559  0.2233
 1347TIP3   OH2 4046   0.893   4.094   4.544 -0.5771 -0.5929 -0.2394
 1347TIP3    H1 4047   0.812   4.133   4.512 -1.1688 -1.8687 -0.3786
 1347TIP3    H2 4048   0.869   4.003   4.564  0.6664 -0.8114  0.3320
 1348TIP3   OH2 4049   2.142   4.889   2.175 -0.6618  0.5832 -0.4305
 1348TIP3    H1 4050   2.065   4.871   2.229 -0.8970  1.6271 -0.3906
 1348TIP3    H2 4051   2.216   4.860   2.229 -0.9167  1.2583  0.3102
 1349TIP3   OH2 4052   3.474   2.256   2.285  0.7582 -0.1708  0.5359
 1349TIP3    H1 4053   3.560   2.220   2.263  0.8365  0.1562  0.3003
 1349TIP3    H2 4054   3.490   2.348   2.302  0.1129  0.4420 -1.8585
 1350TIP3   OH2 4055  -0.011   2.647   0.571 -0.1094  0.0266  0.3892
 1350TIP3    H1 4056   0.075   2.689   0.566  0.0183 -0.1301  1.0941
 1350TIP3    H2 4057  -0.002   2.567   0.520 -0.0053  0.2770  0.0095
 1351TIP3   OH2 4058   5.123   0.947   2.285  0.1721  0.1881  0.2808
 1351TIP3    H1 4059   5.106   0.951   2.191  1.5268 -2.5077 -0.1891
 1351TIP3    H2 4060   5.218   0.946   2.293  0.0907 -0.5168  1.6047
 1352TIP3   OH2 4061   0.686   4.589   0.988  0.5432 -0.2996  0.1601
 1352TIP3    H1 4062   0.674   4.519   0.923  0.4453 -0.7807  0.6920
 1352TIP3    H2 4063   0.763   4.636   0.956  0.4724 -0.5040 -0.3339
 1353TIP3   OH2 4064   1.556   1.127   4.167  0.2429  0.0656  0.1582
 1353TIP3    H1 4065   1.542   1.052   4.109 -1.5883  1.1138 -0.8778
 1353TIP3    H2 4066   1.531   1.203   4.113 -1.2916  1.1138  2.2321
 1354TIP3   OH2 4067   5.005   5.758   2.132  0.0496  0.1272  0.2501
 1354TIP3    H1 4068   5.064   5.694   2.171  1.3261  1.1708  0.1093
 1354TIP3    H2 4069   5.063   5.823   2.092 -1.2007  1.1486  0.0313
 1355TIP3   OH2 4070   3.737   0.430   3.387  0.0189  0.6829 -0.4484
 1355TIP3    H1 4071   3.807   0.392   3.441 -1.1713  0.6494  1.1494
 1355TIP3    H2 4072   3.730   0.372   3.311  1.0068  0.0958 -0.1069
 1356TIP3   OH2 4073   4.036   1.168   1.155  0.2606 -0.2043 -0.0632
 1356TIP3    H1 4074   4.070   1.126   1.076  0.4629  0.6575 -0.4385
 1356TIP3    H2 4075   4.096   1.240   1.172 -0.5126  0.4034  0.1349
 1357TIP3   OH2 4076   5.750   2.365   0.031  0.2211 -0.1609 -0.0353
 1357TIP3    H1 4077   5.740   2.408   0.116  0.6249 -0.8901  0.3826
 1357TIP3    H2 4078   5.783   2.434  -0.026  0.0975  0.2942  0.4333
 1358TIP3   OH2 4079   5.568   2.433   4.574 -0.0345  0.2948  0.0492
 1358TIP3    H1 4080   5.585   2.511   4.627 -3.2195  0.9864  0.2945
 1358TIP3    H2 4081   5.553   2.468   4.486  0.8068 -0.3313 -0.3501
 1359TIP3   OH2 4082   2.589   2.503   4.309 -0.2055 -0.2738 -0.1474
 1359TIP3    H1 4083   2.565   2.540   4.393  0.0732 -0.9992  0.2611
 1359TIP3    H2 4084   2.506   2.494   4.262 -0.9991 -3.4902  1.5391
 1360TIP3   OH2 4085   5.014   5.431   2.518 -0.2605 -0.2803  0.0487
 1360TIP3    H1 4086   5.066   5.510   2.504 -0.7427 -0.3924 -3.3909
 1360TIP3    H2 4087   4.927   5.463   2.543 -0.3485  0.3372 -0.9639
 1361TIP3   OH2 4088   3.698   2.994   3.075  0.0186 -0.3212 -0.0286
 1361TIP3    H1 4089   3.706   2.968   2.983 -2.4832 -1.4148 -0.0150
 1361TIP3    H2 4090   3.675   3.087   3.071 -0.5128 -0.4706 -0.5421
 1362TIP3   OH2 4091   3.981   3.460   3.357 -0.1611  0.4643 -0.2627
 1362TIP3    H1 4092   3.917   3.473   3.427  0.6421  2.7635  0.1302
 1362TIP3    H2 4093   4.049   3.405   3.396 -0.3719  0.6291  0.3402
 1363TIP3   OH2 4094   3.662   2.338   3.647 -0.5422 -0.4497 -0.2207
 1363TIP3    H1 4095   3.623   2.261   3.688 -0.9445 -1.2044 -1.8908
 1363TIP3    H2 4096   3.757   2.323   3.653 -0.5713 -0.1134  1.1657
 1364TIP3   OH2 4097   0.586   1.511   4.342  0.4788  0.9489 -0.4297
 1364TIP3    H1 4098   0.667   1.562   4.348  1.1652 -0.2100  0.8258
 1364TIP3    H2 4099   0.615   1.425   4.313 -0.4909  0.8972 -1.2609
 1365TIP3   OH2 4100   4.692   5.772   3.139 -0.0765 -0.0512 -0.3179
 1365TIP3    H1 4101   4.690   5.676   3.129 -2.3657 -0.0512 -0.4835
 1365TIP3    H2 4102   4.606   5.793   3.176  1.0137  1.8085  1.3079
 1366TIP3   OH2 4103   2.612   4.605   0.211 -0.5464 -0.5826  1.0846
 1366TIP3    H1 4104   2.562   4.679   0.244 -0.1367  0.1442  0.1251
 1366TIP3    H2 4105   2.562   4.574   0.135 -0.6042 -1.1642  1.3521
 1367TIP3   OH2 4106   1.485   5.589   0.449  0.1757  0.2904 -0.2066
 1367TIP3    H1 4107   1.502   5.536   0.527 -0.7137  0.1325 -0.1098
 1367TIP3    H2 4108   1.456   5.673   0.484 -0.2553  0.2079 -0.3647
 1368TIP3   OH2 4109   1.500   0.519   2.238  0.0859  0.0217 -0.6651
 1368TIP3    H1 4110   1.595   0.532   2.240  0.0015  0.7595 -1.1065
 1368TIP3    H2 4111   1.489   0.425   2.225  0.7489 -0.1962  0.2020
 1369TIP3   OH2 4112   0.262   3.636   4.379  0.5522  0.6595 -0.2844
 1369TIP3    H1 4113   0.298   3.551   4.401  0.1261  0.3430 -0.7988
 1369TIP3    H2 4114   0.209   3.660   4.456 -0.6675 -0.2962 -0.7997
 1370TIP3   OH2 4115   1.456   4.282   3.951  0.0886 -0.3056 -0.3092
 1370TIP3    H1 4116   1.486   4.365   3.986  0.6710  0.5947 -2.7184
 1370TIP3    H2 4117   1.396   4.306   3.880  0.6050 -1.8924 -1.3397
 1371TIP3   OH2 4118   1.803   2.247   1.819  0.5501  0.5498 -0.1786
 1371TIP3    H1 4119   1.853   2.194   1.757 -0.1466 -0.5146  0.1321
 1371TIP3    H2 4120   1.761   2.183   1.877  1.4637  1.5165  1.6421
 1372TIP3   OH2 4121   1.003   1.393   4.520 -0.5890 -0.5498  0.4813
 1372TIP3    H1 4122   1.049   1.476   4.531 -1.5317 -0.1366  1.5439
 1372TIP3    H2 4123   1.050   1.348   4.450  0.5587  0.4400  0.5871
 1373TIP3   OH2 4124   3.930   2.426   2.087  0.0542  0.0494 -0.0522
 1373TIP3    H1 4125   3.837   2.434   2.066  0.4692 -0.7396 -2.5761
 1373TIP3    H2 4126   3.933   2.374   2.167 -1.6682 -1.7706 -1.1015
 1374TIP3   OH2 4127   2.970   1.950   2.515 -0.2078  0.1929 -0.2201
 1374TIP3    H1 4128   2.996   1.890   2.585 -2.7763 -2.0750 -1.0231
 1374TIP3    H2 4129   2.883   1.981   2.542  0.2316  2.0826 -0.7956
 1375TIP3   OH2 4130   5.490   1.223   3.962 -0.0301  0.1651 -0.1911
 1375TIP3    H1 4131   5.568   1.191   3.917  0.4733  0.4292  0.4656
 1375TIP3    H2 4132   5.419   1.170   3.927  0.4898 -0.2982 -0.5758
 1376TIP3   OH2 4133   3.857   2.072   3.347  0.3841 -0.3325 -0.2203
 1376TIP3    H1 4134   3.841   2.154   3.300  0.8758 -0.7507 -1.1586
 1376TIP3    H2 4135   3.953   2.068   3.356  0.4215 -1.1709 -0.8863
 1377TIP3   OH2 4136   3.729   3.089   1.774 -0.3594 -0.0119  0.1664
 1377TIP3    H1 4137   3.759   3.112   1.686 -0.0314  1.1713  0.5781
 1377TIP3    H2 4138   3.730   2.993   1.774  0.9213 -0.0314 -0.6851
 1378TIP3   OH2 4139   5.278   3.505   0.128  0.3844 -0.7719  0.2262
 1378TIP3    H1 4140   5.366   3.473   0.107  0.8851  0.2323  0.6772
 1378TIP3    H2 4141   5.281   3.525   0.221 -0.1758 -0.3125  0.1561
 1379TIP3   OH2 4142   3.031   4.451   2.846  0.4459  0.1565 -0.2000
 1379TIP3    H1 4143   3.018   4.392   2.920 -1.3778  0.7971  0.0581
 1379TIP3    H2 4144   3.044   4.394   2.771  0.2912 -0.5448  0.3006
 1380TIP3   OH2 4145   4.639   1.730   3.879  0.4466 -0.3978  0.5322
 1380TIP3    H1 4146   4.661   1.817   3.844 -0.0115 -0.6541 -0.4239
 1380TIP3    H2 4147   4.720   1.700   3.920  1.5328 -0.7338 -1.6946
 1381TIP3   OH2 4148   1.163   5.868   2.879  0.4020 -0.1297 -0.6410
 1381TIP3    H1 4149   1.200   5.830   2.959  0.5636 -0.1347 -0.7179
 1381TIP3    H2 4150   1.074   5.893   2.903  0.6496  0.4206 -0.2920
 1382TIP3   OH2 4151   6.055   1.888   0.373 -0.3112  0.3466 -0.5634
 1382TIP3    H1 4152   5.997   1.821   0.408  3.6342 -3.0630  0.1947
 1382TIP3    H2 4153   6.064   1.866   0.280  0.5543  0.1240 -0.4389
 1383TIP3   OH2 4154   3.830   2.528   4.256  0.5099  0.3108  0.1224
 1383TIP3    H1 4155   3.847   2.567   4.342  1.2420  0.2782 -0.0016
 1383TIP3    H2 4156   3.786   2.446   4.275  1.7583 -0.2932  0.5464
 1384TIP3   OH2 4157   5.348   0.055   1.024 -0.1757 -0.1982 -0.5973
 1384TIP3    H1 4158   5.325  -0.027   0.981 -1.6185 -1.0131  1.5174
 1384TIP3    H2 4159   5.412   0.031   1.091 -1.6025  0.0601  0.9580
 1385TIP3   OH2 4160   2.815   5.454   1.753  0.3527  0.2035  0.1222
 1385TIP3    H1 4161   2.901   5.412   1.754  0.4311  0.3254 -0.6272
 1385TIP3    H2 4162   2.753   5.381   1.761  0.5200  0.1698  1.3737
 1386TIP3   OH2 4163   2.444   3.287   0.511 -0.0481  0.2776  0.0127
 1386TIP3    H1 4164   2.419   3.374   0.478 -0.2027 -0.3763 -1.6301
 1386TIP3    H2 4165   2.362   3.249   0.542  0.0416  0.7496  0.8698
 1387TIP3   OH2 4166   4.985   5.057   3.760  0.1373  0.5056  0.4325
 1387TIP3    H1 4167   5.020   5.003   3.689 -0.1692  0.1270  0.5625
 1387TIP3    H2 4168   4.942   4.994   3.818 -0.6855  0.9559  0.3181
 1388TIP3   OH2 4169   5.685   2.395   1.903 -0.5186  0.0387  0.1918
 1388TIP3    H1 4170   5.631   2.430   1.832  0.1217  1.9847  0.6196
 1388TIP3    H2 4171   5.745   2.466   1.925  2.8055 -2.2149 -0.7703
 1389TIP3   OH2 4172   5.986   3.642   3.116 -0.0442  0.0064  0.0938
 1389TIP3    H1 4173   6.038   3.613   3.191 -1.0498 -0.3992  0.6603
 1389TIP3    H2 4174   5.898   3.655   3.152 -0.5151 -0.0640 -0.9931
 1390TIP3   OH2 4175   3.804   0.367   1.521  0.3717 -0.0217  0.2898
 1390TIP3    H1 4176   3.814   0.287   1.470  2.9884  0.7248 -0.5141
 1390TIP3    H2 4177   3.738   0.345   1.586 -1.2844 -1.7979 -1.8403
 1391TIP3   OH2 4178   1.969   5.144   2.310  0.0744  0.0896  0.1947
 1391TIP3    H1 4179   2.024   5.176   2.381  4.4722 -0.8715 -2.3776
 1391TIP3    H2 4180   1.967   5.049   2.323  0.6787 -0.0637 -0.7688
 1392TIP3   OH2 4181   4.622   4.006   4.916  0.8725  0.2203  0.4725
 1392TIP3    H1 4182   4.632   4.101   4.910 -0.9253  0.4417  0.2100
 1392TIP3    H2 4183   4.592   3.979   4.829 -1.2900 -0.1501  1.2655
 1393TIP3   OH2 4184   5.589   3.054   1.061 -0.1173 -0.1012  0.1595
 1393TIP3    H1 4185   5.539   3.099   0.993 -1.7161  1.3892  2.2309
 1393TIP3    H2 4186   5.636   3.124   1.107  0.5701 -1.0200  0.9055
 1394TIP3   OH2 4187   5.784   5.245   0.355  0.4807 -0.0563  0.0174
 1394TIP3    H1 4188   5.801   5.329   0.396  0.1434  0.0485 -0.0573
 1394TIP3    H2 4189   5.749   5.267   0.268 -0.5703 -0.2597  0.3748
 1395TIP3   OH2 4190   4.961   1.658   0.305  0.3531  0.1351 -0.0642
 1395TIP3    H1 4191   4.956   1.677   0.212 -0.1504  0.7608  0.0852
 1395TIP3    H2 4192   4.961   1.744   0.348  0.1468 -0.1513  0.5252
 1396TIP3   OH2 4193   0.496   2.174   0.473  0.1003 -0.2963  0.1267
 1396TIP3    H1 4194   0.421   2.194   0.530  0.3379 -0.0436  0.3507
 1396TIP3    H2 4195   0.483   2.082   0.449 -0.1708 -0.3163  0.3341
 1397TIP3   OH2 4196   5.877   1.479   1.564  0.4899 -0.2331  0.1063
 1397TIP3    H1 4197   5.928   1.399   1.550 -1.0040 -1.1591 -0.2713
 1397TIP3    H2 4198   5.822   1.459   1.640 -1.6569 -0.5182 -1.4550
 1398TIP3   OH2 4199   5.607   2.445   1.575 -0.2265 -0.5177 -0.1732
 1398TIP3    H1 4200   5.580   2.535   1.593 -0.4155 -0.5407 -0.3390
 1398TIP3    H2 4201   5.553   2.392   1.633 -0.3568 -0.5456 -0.3182
 1399TIP3   OH2 4202   1.905   0.076   0.523 -0.7749 -0.1130  0.3103
 1399TIP3    H1 4203   1.986   0.030   0.548 -0.0466  0.5633 -0.7316
 1399TIP3    H2 4204   1.835   0.027   0.567  0.0603 -1.6071  0.0361
 1400TIP3   OH2 4205   4.426   1.139   3.670  0.5785 -0.5699 -0.1573
 1400TIP3    H1 4206   4.466   1.208   3.723  0.1948  0.7573 -1.5353
 1400TIP3    H2 4207   4.492   1.070   3.667  1.1664 -0.0805  0.8409
 1401TIP3   OH2 4208   5.343   0.476   1.463  0.1748  0.1162 -0.4293
 1401TIP3    H1 4209   5.421   0.523   1.494  0.4207 -1.1552  1.0502
 1401TIP3    H2 4210   5.272   0.511   1.516  0.2487 -0.6863  0.2182
 1402TIP3   OH2 4211   2.404   4.470   4.285 -0.5774  0.3925 -0.1435
 1402TIP3    H1 4212   2.458   4.395   4.258 -1.3826 -0.6551  1.0890
 1402TIP3    H2 4213   2.361   4.498   4.204  0.6281  0.2991 -0.8536
 1403TIP3   OH2 4214   2.374   2.830   3.193 -0.3597  0.0624 -0.0271
 1403TIP3    H1 4215   2.356   2.755   3.250 -0.0674  0.4870  0.6243
 1403TIP3    H2 4216   2.367   2.906   3.250 -2.1302  0.6815 -0.9690
 1404TIP3   OH2 4217   4.026   0.706   0.928  0.1306  0.6080  0.2637
 1404TIP3    H1 4218   4.066   0.639   0.983 -2.4266 -1.6797 -0.4529
 1404TIP3    H2 4219   4.059   0.789   0.964  2.0299 -0.9176  2.3368
 1405TIP3   OH2 4220   4.347   2.409   0.874  0.1722 -0.8420 -0.0053
 1405TIP3    H1 4221   4.401   2.464   0.930 -0.6888 -0.6620  0.6645
 1405TIP3    H2 4222   4.369   2.319   0.900 -0.0553 -0.7631  0.4768
 1406TIP3   OH2 4223   3.273   2.969   0.990 -0.5662  0.0530 -0.2563
 1406TIP3    H1 4224   3.322   3.051   0.991  1.0615 -0.8743  1.2961
 1406TIP3    H2 4225   3.293   2.927   1.074 -1.5594 -1.8314 -0.8851
 1407TIP3   OH2 4226   5.336   5.343   0.932 -0.1750  0.0377 -0.5142
 1407TIP3    H1 4227   5.397   5.299   0.873 -0.0136 -1.7817  0.9336
 1407TIP3    H2 4228   5.388   5.413   0.972  0.2620  0.0344 -1.0580
 1408TIP3   OH2 4229   3.458   5.195   0.619 -0.0474 -0.2133  0.2773
 1408TIP3    H1 4230   3.538   5.226   0.576  0.6748 -0.5833  1.3021
 1408TIP3    H2 4231   3.389   5.250   0.583  0.7736  0.6007 -0.1157
 1409TIP3   OH2 4232   2.077   1.903   4.949  0.2099  0.1373  0.4062
 1409TIP3    H1 4233   2.033   1.984   4.976 -0.8934 -0.6789  1.1566
 1409TIP3    H2 4234   2.020   1.867   4.882  1.3553  0.5948 -0.8415
 1410TIP3   OH2 4235   6.080   2.303   1.700 -0.4253  0.1496  0.3422
 1410TIP3    H1 4236   6.024   2.314   1.623  0.0283 -0.3458 -0.0604
 1410TIP3    H2 4237   6.079   2.389   1.742  1.6989  1.3576 -1.8416
 1411TIP3   OH2 4238   0.650   5.941   3.227  0.3992 -0.0449 -0.0752
 1411TIP3    H1 4239   0.650   5.860   3.175  0.2675 -0.0695 -0.0389
 1411TIP3    H2 4240   0.735   5.941   3.271 -0.4182 -1.3036  1.6621
 1412TIP3   OH2 4241   2.109   1.336   4.463 -0.1281  0.5278  0.3103
 1412TIP3    H1 4242   2.092   1.411   4.405 -1.1122  0.2499  0.2230
 1412TIP3    H2 4243   2.203   1.339   4.478  0.0181  1.1183 -0.6054
 1413TIP3   OH2 4244   1.233   3.291   1.040  0.1706  0.4452  0.2076
 1413TIP3    H1 4245   1.322   3.291   1.076  0.3866  1.2994 -0.2901
 1413TIP3    H2 4246   1.243   3.260   0.950 -0.2535 -0.8736  0.5880
 1414TIP3   OH2 4247   4.033   0.677   2.820 -0.0136 -0.0958 -0.0974
 1414TIP3    H1 4248   4.011   0.639   2.905  1.3004 -0.9929 -0.1222
 1414TIP3    H2 4249   4.124   0.707   2.830 -0.2967  1.0372 -0.7755
 1415TIP3   OH2 4250   3.803   4.071   4.762  0.0297 -0.1095 -0.3760
 1415TIP3    H1 4251   3.876   4.031   4.810 -0.6911  1.0131  1.8376
 1415TIP3    H2 4252   3.845   4.127   4.697  1.1406 -0.0765  0.3416
 1416TIP3   OH2 4253   5.195   3.224   4.379 -0.7325 -0.3609 -0.1692
 1416TIP3    H1 4254   5.122   3.285   4.390 -0.8681 -0.7214  1.0560
 1416TIP3    H2 4255   5.213   3.224   4.285 -1.5120  0.6541 -0.3268
 1417TIP3   OH2 4256   1.382   3.780   3.112  0.4253 -0.8330 -0.0714
 1417TIP3    H1 4257   1.345   3.705   3.065 -2.2516  0.1954  0.1998
 1417TIP3    H2 4258   1.430   3.829   3.045 -2.0941 -0.1603 -1.5136
 1418TIP3   OH2 4259   6.302   4.973   2.996  0.1173  0.5224  0.0943
 1418TIP3    H1 4260   6.248   4.973   3.076 -1.8022 -0.4524 -1.1130
 1418TIP3    H2 4261   6.383   5.016   3.022 -0.0541 -0.5543  2.8283
 1419TIP3   OH2 4262   1.947   2.127   3.118 -0.3233  0.1721 -0.3517
 1419TIP3    H1 4263   1.879   2.161   3.175  0.1584 -0.1102  0.4017
 1419TIP3    H2 4264   1.987   2.205   3.078  0.6769  0.5122  1.2420
 1420TIP3   OH2 4265   5.833   3.430   4.751  0.0874 -0.5434 -0.1022
 1420TIP3    H1 4266   5.811   3.409   4.842  2.5082 -0.3442  0.6056
 1420TIP3    H2 4267   5.854   3.346   4.711  2.2418 -0.3720  0.5310
 1421TIP3   OH2 4268   5.723   5.631   0.932 -0.4381  0.3285  0.4408
 1421TIP3    H1 4269   5.795   5.598   0.878 -0.1742  0.5490  0.6508
 1421TIP3    H2 4270   5.764   5.650   1.016 -0.8908 -0.1921  0.7767
 1422TIP3   OH2 4271   1.526   1.405   1.305 -0.7490 -0.0425  0.6183
 1422TIP3    H1 4272   1.484   1.349   1.370 -1.4962  1.9465  1.9448
 1422TIP3    H2 4273   1.471   1.483   1.301  0.9890  1.2073 -0.1065
 1423TIP3   OH2 4274   4.817   0.818   3.512  0.3167  0.6301 -0.3964
 1423TIP3    H1 4275   4.789   0.889   3.570 -0.8123  2.8152 -3.3356
 1423TIP3    H2 4276   4.854   0.864   3.436  0.0705 -1.9593 -2.1919
 1424TIP3   OH2 4277   1.274   2.379   4.718 -0.0301 -0.3269 -0.0906
 1424TIP3    H1 4278   1.275   2.448   4.785  0.8363 -1.2754  0.9005
 1424TIP3    H2 4279   1.326   2.416   4.646  2.4766 -0.7934  1.3734
 1425TIP3   OH2 4280   0.939   4.896   0.384 -0.1009  0.0087 -0.3692
 1425TIP3    H1 4281   0.982   4.813   0.364  2.2360  1.2801 -0.8637
 1425TIP3    H2 4282   0.971   4.957   0.318 -1.8126  1.3269 -0.0608
 1426TIP3   OH2 4283   3.461   2.222   3.303  0.1909  0.3708  0.0682
 1426TIP3    H1 4284   3.487   2.297   3.356 -0.3710 -0.3318  1.3825
 1426TIP3    H2 4285   3.492   2.146   3.352 -1.1284 -0.3397 -0.1539
 1427TIP3   OH2 4286   5.902   3.288   4.229 -0.0015  0.1550  0.7365
 1427TIP3    H1 4287   5.895   3.201   4.189  0.2668  1.2239 -1.8249
 1427TIP3    H2 4288   5.996   3.307   4.227 -0.2016  1.0914 -0.0892
 1428TIP3   OH2 4289   1.434   4.268   0.937 -0.1402  0.4449 -0.3219
 1428TIP3    H1 4290   1.396   4.355   0.949 -0.4323  0.3751 -0.7097
 1428TIP3    H2 4291   1.358   4.210   0.924 -0.1935 -0.4313  3.0350
 1429TIP3   OH2 4292   4.659   0.717   1.114  0.4920  0.5793  0.1850
 1429TIP3    H1 4293   4.591   0.753   1.057  0.6990  0.6009 -0.0527
 1429TIP3    H2 4294   4.669   0.626   1.084  0.4553  0.5284  0.3261
 1430TIP3   OH2 4295   1.395   5.830   0.581  0.3879 -0.4160  0.4152
 1430TIP3    H1 4296   1.335   5.766   0.621 -1.8979  0.3906 -1.5120
 1430TIP3    H2 4297   1.346   5.912   0.580  2.3648  0.8323  0.6670
 1431TIP3   OH2 4298   0.613   3.972   0.512 -0.0749 -0.0531  0.2805
 1431TIP3    H1 4299   0.678   4.024   0.465  0.3799 -3.0932 -2.9173
 1431TIP3    H2 4300   0.530   3.990   0.467 -0.5992  0.3861  1.3790
 1432TIP3   OH2 4301   4.707   0.428   4.170 -1.0188  0.8573  0.7812
 1432TIP3    H1 4302   4.713   0.362   4.101  0.7577 -0.2619  1.9280
 1432TIP3    H2 4303   4.628   0.406   4.219 -1.6532  0.9672 -0.1703
 1433TIP3   OH2 4304   2.934   4.809   1.821 -0.3164 -0.0283 -0.6778
 1433TIP3    H1 4305   3.015   4.839   1.864 -0.9582 -1.0529  1.4168
 1433TIP3    H2 4306   2.964   4.766   1.741  0.9454  2.0714 -1.4166
 1434TIP3   OH2 4307   3.289   5.120   5.113 -0.1543  0.0255  0.8105
 1434TIP3    H1 4308   3.216   5.066   5.141 -0.3900 -0.1066 -0.0375
 1434TIP3    H2 4309   3.367   5.075   5.147 -0.4695  0.2754  1.8825
 1435TIP3   OH2 4310   6.160   4.679   4.545  0.4935  0.2778 -0.1474
 1435TIP3    H1 4311   6.144   4.738   4.471 -0.9919 -0.9182 -0.8257
 1435TIP3    H2 4312   6.188   4.737   4.616  0.4653  1.6232 -1.2021
 1436TIP3   OH2 4313   1.500   4.165   1.877  0.2383 -0.0577 -0.0090
 1436TIP3    H1 4314   1.529   4.134   1.963  1.5910 -0.0118 -0.4274
 1436TIP3    H2 4315   1.578   4.158   1.822 -1.0257 -1.8065 -1.7087
 1437TIP3   OH2 4316   3.791   5.509   4.492  0.1207 -0.3524  0.2373
 1437TIP3    H1 4317   3.882   5.522   4.465 -0.3248  0.8119 -0.7771
 1437TIP3    H2 4318   3.752   5.596   4.490 -1.1496 -0.8968  0.1756
 1438TIP3   OH2 4319   5.872   1.597   3.902  0.8505  0.1504 -0.6656
 1438TIP3    H1 4320   5.839   1.622   3.816  0.5642 -1.2042 -0.9774
 1438TIP3    H2 4321   5.923   1.672   3.931  3.0084 -0.2331 -3.0856
 1439TIP3   OH2 4322   0.645   3.183   3.057 -0.2347  0.1874 -1.0913
 1439TIP3    H1 4323   0.690   3.214   3.136  0.3188  1.6446 -1.9482
 1439TIP3    H2 4324   0.591   3.110   3.088 -0.3031  0.9400  0.6987
 1440TIP3   OH2 4325   2.251   2.702   4.415  0.2707 -0.1837  0.3537
 1440TIP3    H1 4326   2.284   2.678   4.502 -0.0690 -0.7124  0.3441
 1440TIP3    H2 4327   2.163   2.663   4.411  0.4348 -0.4966 -0.3705
 1441TIP3   OH2 4328   2.308   5.847   4.761  0.3653 -0.4306 -0.2036
 1441TIP3    H1 4329   2.371   5.891   4.818  2.2113 -0.7595 -1.9056
 1441TIP3    H2 4330   2.361   5.788   4.707 -1.1725  0.4448 -2.8316
 1442TIP3   OH2 4331   2.703   3.435   4.276 -0.0206  0.0744 -0.1781
 1442TIP3    H1 4332   2.695   3.513   4.331  0.0140 -0.0361 -0.0164
 1442TIP3    H2 4333   2.707   3.469   4.187 -0.1034  0.2527 -0.1147
 1443TIP3   OH2 4334   3.758   3.505   3.500  0.2440  0.2652 -0.3640
 1443TIP3    H1 4335   3.721   3.446   3.566  1.6261 -1.9469 -1.4828
 1443TIP3    H2 4336   3.709   3.587   3.512  0.5874  0.0706  3.5280
 1444TIP3   OH2 4337   0.280   4.288   1.606  0.4037 -0.0235 -0.0606
 1444TIP3    H1 4338   0.331   4.217   1.567  0.9780 -0.0356  0.6909
 1444TIP3    H2 4339   0.214   4.244   1.660 -0.0081  0.0050 -0.5281
 1445TIP3   OH2 4340   1.814   0.760   3.015 -0.5817  0.3237  0.2254
 1445TIP3    H1 4341   1.818   0.741   2.921 -1.6186 -1.1970  0.4531
 1445TIP3    H2 4342   1.811   0.674   3.057  0.8630  0.9596  1.7370
 1446TIP3   OH2 4343   3.267   0.107   1.230 -0.2404  0.0042  0.3652
 1446TIP3    H1 4344   3.213   0.028   1.222 -0.9191  0.4708  0.2979
 1446TIP3    H2 4345   3.351   0.082   1.192 -0.4402 -0.6961  0.3662
 1447TIP3   OH2 4346   5.500   1.788   4.973 -0.1045  0.5315 -0.1026
 1447TIP3    H1 4347   5.505   1.804   5.067 -0.4428 -0.8651  0.1787
 1447TIP3    H2 4348   5.565   1.847   4.935 -0.0909  1.2445  0.9812
 1448TIP3   OH2 4349   1.192   5.031   4.654 -0.2323  0.2069  0.1663
 1448TIP3    H1 4350   1.208   4.937   4.665 -2.2220 -0.0548  1.1799
 1448TIP3    H2 4351   1.256   5.073   4.712 -1.4136 -0.6924  2.2127
 1449TIP3   OH2 4352   6.010   4.786   2.151  0.3247  0.1849  0.5178
 1449TIP3    H1 4353   6.047   4.868   2.117 -0.0351 -0.0271 -0.4114
 1449TIP3    H2 4354   6.086   4.737   2.183  0.7287  0.2466 -0.3072
 1450TIP3   OH2 4355   1.324   3.250   1.494 -0.8017  0.9922  0.4485
 1450TIP3    H1 4356   1.282   3.207   1.569  1.3050 -1.2667  0.4723
 1450TIP3    H2 4357   1.282   3.211   1.418  1.5294 -1.9710  0.4478
 1451TIP3   OH2 4358   0.415   3.713   0.297  0.4531 -0.0488 -0.0339
 1451TIP3    H1 4359   0.511   3.719   0.297  0.5308 -1.0724 -0.2297
 1451TIP3    H2 4360   0.387   3.790   0.246  1.2709 -0.7573 -1.6474
 1452TIP3   OH2 4361   2.776   2.032   3.380  0.3653  0.0453 -0.4671
 1452TIP3    H1 4362   2.733   2.031   3.294 -1.0268  0.3558  0.1901
 1452TIP3    H2 4363   2.811   2.121   3.388 -0.0879  0.2254 -0.4471
 1453TIP3   OH2 4364   2.241   2.821   1.493 -0.5204  0.5406 -0.3718
 1453TIP3    H1 4365   2.150   2.848   1.480  0.4783  3.2426 -2.9382
 1453TIP3    H2 4366   2.266   2.779   1.410  0.9750  1.2606 -0.3209
 1454TIP3   OH2 4367   1.086   2.373   0.020  0.5576  0.3395 -0.0706
 1454TIP3    H1 4368   1.082   2.364   0.115  1.4507 -0.1301 -0.0696
 1454TIP3    H2 4369   1.107   2.285  -0.012  0.8913  0.6271 -0.6590
 1455TIP3   OH2 4370   2.307   2.245   2.963  0.2394 -0.3297 -0.6072
 1455TIP3    H1 4371   2.290   2.168   2.908 -0.0160 -0.4106 -0.4170
 1455TIP3    H2 4372   2.402   2.247   2.972  0.1926 -1.2219  0.2231
 1456TIP3   OH2 4373   1.165   0.353   2.388  0.0899 -0.2137 -0.4229
 1456TIP3    H1 4374   1.192   0.437   2.424 -0.8397 -0.5498  1.1322
 1456TIP3    H2 4375   1.242   0.296   2.399  0.7799  0.4445 -1.6373
 1457TIP3   OH2 4376   0.427   2.960   3.157 -0.4008 -0.0714  0.8746
 1457TIP3    H1 4377   0.388   3.031   3.209  0.1900  0.5079  0.5387
 1457TIP3    H2 4378   0.417   2.882   3.212 -4.8005 -0.6537 -0.3783
 1458TIP3   OH2 4379   2.851   1.563   3.524 -0.7285  0.1560 -0.0634
 1458TIP3    H1 4380   2.857   1.525   3.437  1.2706 -0.0105  0.0930
 1458TIP3    H2 4381   2.785   1.632   3.517 -0.9437 -0.1893 -1.5774
 1459TIP3   OH2 4382   1.334   2.189   4.076 -0.3586 -0.1876 -0.2377
 1459TIP3    H1 4383   1.244   2.202   4.106 -0.0120 -0.6140  1.0528
 1459TIP3    H2 4384   1.356   2.271   4.032 -1.5218 -0.2518 -0.9995
 1460TIP3   OH2 4385   4.041   4.648   2.999  0.4482 -0.0176  0.1123
 1460TIP3    H1 4386   4.051   4.710   3.071  0.9806  0.4671 -0.3772
 1460TIP3    H2 4387   3.951   4.615   3.009  0.7655 -0.5180  1.4344
 1461TIP3   OH2 4388   4.962   2.096   3.747 -0.4182 -0.1410  0.3048
 1461TIP3    H1 4389   5.042   2.086   3.799 -1.2499 -0.1500  1.6385
 1461TIP3    H2 4390   4.981   2.051   3.665  0.5042 -1.2742  1.1013
 1462TIP3   OH2 4391   5.203   0.078   2.844 -0.0384  0.1904  0.0568
 1462TIP3    H1 4392   5.203   0.140   2.771  0.5355  1.2100  0.9052
 1462TIP3    H2 4393   5.293   0.045   2.848  0.2824  1.1452  1.1216
 1463TIP3   OH2 4394   4.220   2.896   3.209  0.8231  0.3881 -0.9683
 1463TIP3    H1 4395   4.256   2.953   3.141  3.9761 -1.4914 -1.0343
 1463TIP3    H2 4396   4.257   2.930   3.291  0.8520 -0.1880 -0.7410
 1464TIP3   OH2 4397   0.752   1.622   2.793 -0.5236  0.0624 -0.0537
 1464TIP3    H1 4398   0.829   1.626   2.851  0.4365  1.1540 -1.3412
 1464TIP3    H2 4399   0.787   1.592   2.709 -2.1368 -2.9341  0.2312
 1465TIP3   OH2 4400   4.229   5.151   4.642  0.2070  0.0481  0.0521
 1465TIP3    H1 4401   4.134   5.147   4.640  0.2158  0.1701 -0.6836
 1465TIP3    H2 4402   4.250   5.169   4.734 -0.5560  1.8928 -0.0919
 1466TIP3   OH2 4403   4.164   5.459   4.187 -0.4173  0.3410 -0.0663
 1466TIP3    H1 4404   4.205   5.457   4.274  0.2509  0.3867 -0.3700
 1466TIP3    H2 4405   4.229   5.503   4.132  0.0207 -1.4538 -1.0337
 1467TIP3   OH2 4406   2.898   1.650   4.041 -0.4578 -0.0736  0.0621
 1467TIP3    H1 4407   2.940   1.566   4.023  1.2642  0.2656  1.9992
 1467TIP3    H2 4408   2.863   1.679   3.957  0.7094 -1.7692 -1.0668
 1468TIP3   OH2 4409   1.583   1.255   3.379  0.1584 -0.2770  0.8703
 1468TIP3    H1 4410   1.566   1.244   3.472 -0.3411 -0.9829  0.7068
 1468TIP3    H2 4411   1.522   1.195   3.336 -1.9968  2.3838 -0.0900
 1469TIP3   OH2 4412   3.738   4.896   2.542 -0.0319  0.2615  0.0401
 1469TIP3    H1 4413   3.681   4.944   2.481 -1.0275 -1.7586 -0.7097
 1469TIP3    H2 4414   3.686   4.821   2.570  1.7250 -0.8577  0.4929
 1470TIP3   OH2 4415   0.092   1.083   1.031 -0.7549  0.3465  0.6361
 1470TIP3    H1 4416   0.128   1.002   1.066 -0.7015 -0.7672 -1.8075
 1470TIP3    H2 4417   0.114   1.150   1.096  2.2209 -0.9759  1.1393
 1471TIP3   OH2 4418   0.441   0.884   1.261 -0.2214  0.1460  0.0094
 1471TIP3    H1 4419   0.374   0.867   1.195  1.2074  1.9239 -2.0170
 1471TIP3    H2 4420   0.393   0.926   1.333 -1.6936 -1.2397 -0.0833
 1472TIP3   OH2 4421   0.844   4.402   0.379 -0.2531 -0.5498  0.1562
 1472TIP3    H1 4422   0.902   4.428   0.450  1.6454 -0.3323 -1.4071
 1472TIP3    H2 4423   0.816   4.484   0.338  0.1315 -0.7121 -0.4513
 1473TIP3   OH2 4424   0.985   0.524   2.106 -0.2000  0.1050 -0.7300
 1473TIP3    H1 4425   0.903   0.560   2.141 -0.3739 -0.9945  0.0272
 1473TIP3    H2 4426   0.965   0.432   2.088  0.5661  0.0895 -1.5709
 1474TIP3   OH2 4427   3.349   4.187   0.136 -0.0138  0.1652 -0.2387
 1474TIP3    H1 4428   3.313   4.271   0.108 -1.5470 -0.3151  0.1973
 1474TIP3    H2 4429   3.276   4.142   0.180  1.2811 -0.6105  1.2544
 1475TIP3   OH2 4430   1.862   1.344   1.985 -0.0827 -0.0732 -0.1994
 1475TIP3    H1 4431   1.824   1.288   2.052  0.7435  0.2515  0.5791
 1475TIP3    H2 4432   1.894   1.421   2.033 -1.0265  0.9930 -1.2063
 1476TIP3   OH2 4433   4.536   0.114   0.834  0.3679 -0.1229  0.4068
 1476TIP3    H1 4434   4.528   0.061   0.755  1.6552  0.1972  0.0238
 1476TIP3    H2 4435   4.582   0.058   0.896  1.0562  0.2627  0.2583
 1477TIP3   OH2 4436   1.134   3.302   4.221 -0.4861 -0.3020 -0.0381
 1477TIP3    H1 4437   1.045   3.316   4.189 -0.9417 -2.4943  0.1079
 1477TIP3    H2 4438   1.190   3.327   4.148 -1.2267  0.6990 -0.2801
 1478TIP3   OH2 4439   5.810   1.973   3.737  0.1272 -0.1204  0.2112
 1478TIP3    H1 4440   5.898   1.936   3.724 -0.0870 -0.2268 -1.1824
 1478TIP3    H2 4441   5.752   1.897   3.742  0.1492 -0.0612  1.5462
 1479TIP3   OH2 4442   3.100   4.127   0.429  0.1454  0.1973 -0.5487
 1479TIP3    H1 4443   3.116   4.053   0.487 -1.5347 -2.0100 -2.6634
 1479TIP3    H2 4444   3.009   4.151   0.445 -0.6982 -1.1520 -2.8362
 1480TIP3   OH2 4445   4.723   1.287   5.045  0.0860  0.3281  0.4842
 1480TIP3    H1 4446   4.694   1.330   4.964 -0.2875 -1.1169 -0.1758
 1480TIP3    H2 4447   4.725   1.194   5.023  0.7530 -0.0139  1.9175
 1481TIP3   OH2 4448   3.294   4.209   3.900  0.6748 -0.2672  0.2404
 1481TIP3    H1 4449   3.314   4.300   3.923 -1.0248  0.1304  0.2988
 1481TIP3    H2 4450   3.246   4.175   3.975 -0.2019 -0.6583 -0.4682
 1482TIP3   OH2 4451   4.923   5.964   3.862 -0.2543  0.3525 -0.0906
 1482TIP3    H1 4452   4.864   5.889   3.876  0.2812  0.0887  0.9263
 1482TIP3    H2 4453   4.887   6.009   3.786 -1.8002  0.2339  0.5173
 1483TIP3   OH2 4454   4.608   4.189   0.367  0.3563 -0.4659 -0.1539
 1483TIP3    H1 4455   4.561   4.119   0.322  0.2781 -0.4679 -0.0682
 1483TIP3    H2 4456   4.678   4.144   0.414  1.0745 -0.3678 -1.0945
 1484TIP3   OH2 4457   2.001   3.151   2.197 -0.7477  0.3451  0.7337
 1484TIP3    H1 4458   1.949   3.096   2.138  0.0556  0.6667 -0.3103
 1484TIP3    H2 4459   1.945   3.226   2.215 -0.5608  0.8659 -0.6701
 1485TIP3   OH2 4460   2.597   3.742   0.910 -0.2849  0.2206  0.2390
 1485TIP3    H1 4461   2.574   3.710   0.996 -1.5164  1.0354  0.2418
 1485TIP3    H2 4462   2.574   3.835   0.912  1.4152  0.6925 -0.3614
 1486TIP3   OH2 4463   5.285   2.084   2.562  0.0160 -0.2178 -1.0898
 1486TIP3    H1 4464   5.232   2.142   2.617 -0.7016 -0.7936 -1.1670
 1486TIP3    H2 4465   5.353   2.051   2.620 -0.0762  0.0459 -0.8313
 1487TIP3   OH2 4466   0.741   1.730   4.780 -0.5998  0.3021  0.3490
 1487TIP3    H1 4467   0.740   1.643   4.819  0.4858  1.1145  2.3405
 1487TIP3    H2 4468   0.832   1.758   4.786 -1.1036  1.9702  0.7054
 1488TIP3   OH2 4469   0.977   2.660   0.266 -0.0637  0.1591 -0.0031
 1488TIP3    H1 4470   0.911   2.634   0.330  0.5958  0.4290  0.8007
 1488TIP3    H2 4471   0.927   2.678   0.186 -1.0705  1.2484  0.8361
 1489TIP3   OH2 4472   2.022   5.720   3.801 -0.3735 -0.2970 -0.0516
 1489TIP3    H1 4473   1.977   5.753   3.878  1.2990  1.2672  0.3144
 1489TIP3    H2 4474   2.108   5.693   3.833  0.0113 -0.4958 -1.2064
 1490TIP3   OH2 4475   1.589   5.920   5.124 -0.4941 -0.2102  0.0656
 1490TIP3    H1 4476   1.630   5.994   5.078  0.6588 -0.2027  1.0716
 1490TIP3    H2 4477   1.520   5.960   5.177 -0.3773  0.0370  0.0317
 1491TIP3   OH2 4478   1.105   0.337   4.935 -0.1426  0.2084  0.0668
 1491TIP3    H1 4479   1.053   0.380   5.003  0.7416 -0.0047  0.9006
 1491TIP3    H2 4480   1.090   0.390   4.856 -1.9930 -0.1331  0.1398
 1492TIP3   OH2 4481   2.924   2.182   1.497 -0.3014  0.2218 -0.2583
 1492TIP3    H1 4482   2.847   2.131   1.473 -1.3536  0.7987  1.7214
 1492TIP3    H2 4483   2.996   2.139   1.451 -1.7793 -0.2726 -2.2594
 1493TIP3   OH2 4484   4.754   4.855   2.779 -0.4774  0.0798 -0.3358
 1493TIP3    H1 4485   4.729   4.946   2.763  0.0856  0.0403 -1.5056
 1493TIP3    H2 4486   4.749   4.813   2.693 -0.6176 -0.9763  0.1675
 1494TIP3   OH2 4487   5.957   0.830   4.611 -0.0961  0.3066  0.2856
 1494TIP3    H1 4488   5.953   0.926   4.616  0.9211  0.3023  1.7691
 1494TIP3    H2 4489   6.039   0.811   4.566 -0.3134  0.1226 -0.0387
 1495TIP3   OH2 4490   0.246   3.308   0.479  0.5450  0.3667 -0.0947
 1495TIP3    H1 4491   0.184   3.252   0.432 -0.5403  0.9024  0.6799
 1495TIP3    H2 4492   0.267   3.378   0.417 -1.4505  1.4807  0.4093
 1496TIP3   OH2 4493   6.054   2.765   0.145 -0.7680 -0.0050 -0.2780
 1496TIP3    H1 4494   6.062   2.857   0.120 -1.3498  0.1704  0.1597
 1496TIP3    H2 4495   6.009   2.767   0.229 -1.1219 -0.7051 -0.4419
 1497TIP3   OH2 4496   4.734   0.684   0.374 -0.3878  0.2389 -0.0433
 1497TIP3    H1 4497   4.814   0.735   0.361  0.0981 -0.4413  0.2407
 1497TIP3    H2 4498   4.731   0.668   0.468  0.5088 -1.8708 -0.3026
 1498TIP3   OH2 4499   4.421   2.909   2.421  0.2221 -0.2352 -0.3473
 1498TIP3    H1 4500   4.403   2.829   2.470 -1.2252  0.4919  0.3708
 1498TIP3    H2 4501   4.359   2.907   2.348  0.0817  0.2891 -0.2452
 1499TIP3   OH2 4502   3.409   5.587   0.930 -0.5746 -0.3454 -0.3613
 1499TIP3    H1 4503   3.417   5.497   0.897  3.2441 -0.3252  0.0395
 1499TIP3    H2 4504   3.436   5.581   1.022 -0.0713  1.2011 -0.3843
 1500TIP3   OH2 4505   2.503   5.398   2.438 -0.4171  0.2941 -0.2775
 1500TIP3    H1 4506   2.487   5.460   2.368  0.3093 -0.6834 -1.3526
 1500TIP3    H2 4507   2.503   5.312   2.395  2.3867 -0.1833  0.4607
 1501TIP3   OH2 4508   2.266   0.904   4.608 -0.0493 -0.2716  0.0638
 1501TIP3    H1 4509   2.220   0.946   4.536  0.0284  0.1477  0.2559
 1501TIP3    H2 4510   2.349   0.874   4.570  0.6389  1.2394  0.3038
 1502TIP3   OH2 4511   5.436   0.313   1.128 -0.8186  0.4439 -0.4703
 1502TIP3    H1 4512   5.341   0.316   1.141 -1.1766 -0.2865 -2.5509
 1502TIP3    H2 4513   5.450   0.238   1.071  1.3145 -0.9755  1.7336
 1503TIP3   OH2 4514  -0.028   3.827   3.712  0.4155 -0.0067  0.3688
 1503TIP3    H1 4515  -0.028   3.791   3.801 -0.1833 -0.1348  0.3241
 1503TIP3    H2 4516   0.064   3.829   3.686  0.4880 -1.2525  0.4857
 1504TIP3   OH2 4517   2.624   5.925   3.687  0.0742 -0.0697 -0.3020
 1504TIP3    H1 4518   2.671   5.849   3.651 -0.0485 -0.0302 -0.5510
 1504TIP3    H2 4519   2.610   5.982   3.611 -3.2254 -1.5305 -0.9683
 1505TIP3   OH2 4520   2.745   3.832   4.001 -0.1795 -0.0685 -0.0103
 1505TIP3    H1 4521   2.668   3.831   4.058  0.7370 -1.8080  1.2834
 1505TIP3    H2 4522   2.763   3.740   3.982  0.6001  0.3857 -1.7028
 1506TIP3   OH2 4523   2.398   2.496   1.390  0.3607 -0.1327 -0.4849
 1506TIP3    H1 4524   2.352   2.577   1.368  0.8148  0.1286 -0.4832
 1506TIP3    H2 4525   2.376   2.436   1.319  0.8353  0.3189 -1.0188
 1507TIP3   OH2 4526   2.076   0.738   1.581 -0.0105 -0.2071 -0.6779
 1507TIP3    H1 4527   2.108   0.650   1.564  0.4794 -0.2902  0.5682
 1507TIP3    H2 4528   2.028   0.730   1.664  2.5608  1.2434  1.0656
 1508TIP3   OH2 4529   6.342   1.072   4.670 -0.5399 -0.7607 -0.2930
 1508TIP3    H1 4530   6.395   1.107   4.741 -1.8378  0.0432  0.3139
 1508TIP3    H2 4531   6.263   1.039   4.713 -1.5798  0.1949 -1.3975
 1509TIP3   OH2 4532   0.660   0.157   2.794 -0.0441  0.1403 -0.2394
 1509TIP3    H1 4533   0.572   0.183   2.767  0.3375  0.8894 -0.8287
 1509TIP3    H2 4534   0.649   0.119   2.880 -1.2335 -1.7067 -1.1556
 1510TIP3   OH2 4535   1.352   2.779   4.696  0.1225 -0.4431  0.6029
 1510TIP3    H1 4536   1.265   2.740   4.682 -0.0662  0.3532 -0.5973
 1510TIP3    H2 4537   1.334   2.872   4.707  0.8567 -0.2003 -0.1527
 1511TIP3   OH2 4538   0.673   3.073   0.260  0.4915 -0.2527  0.4483
 1511TIP3    H1 4539   0.701   2.997   0.311  0.5814 -0.5732 -0.0703
 1511TIP3    H2 4540   0.750   3.130   0.259  0.6394 -0.4512  0.2964
 1512TIP3   OH2 4541   3.046   5.257   3.790 -0.3499 -0.3468 -0.1763
 1512TIP3    H1 4542   3.116   5.191   3.787  0.0912  0.1445 -0.9685
 1512TIP3    H2 4543   3.092   5.341   3.788 -0.9204 -0.0084  0.5660
 1513TIP3   OH2 4544   3.310   0.343   3.690 -0.6844  0.1205 -0.0563
 1513TIP3    H1 4545   3.274   0.383   3.611 -0.5724  0.0768 -0.1291
 1513TIP3    H2 4546   3.233   0.311   3.737 -0.7335 -0.0727 -0.2663
 1514TIP3   OH2 4547   5.775   4.764   3.474 -0.4411  0.2214 -0.4807
 1514TIP3    H1 4548   5.784   4.857   3.497  0.5075 -0.1097  0.5528
 1514TIP3    H2 4549   5.782   4.763   3.379 -1.8540  1.3538 -0.6332
 1515TIP3   OH2 4550   1.417   2.606   3.324  0.1350  0.2203 -0.0678
 1515TIP3    H1 4551   1.391   2.553   3.399  1.1718 -0.6075 -0.2590
 1515TIP3    H2 4552   1.468   2.678   3.362  1.0367 -0.4394  0.0245
 1516TIP3   OH2 4553   4.894   0.357   3.464  0.0168  0.2114  0.2265
 1516TIP3    H1 4554   4.881   0.429   3.526  0.5095  1.2711 -0.8716
 1516TIP3    H2 4555   4.893   0.398   3.378 -0.7380 -1.2445 -0.5032
 1517TIP3   OH2 4556   4.724   0.538   2.254  0.7117  0.3878 -0.3546
 1517TIP3    H1 4557   4.662   0.520   2.184  0.1386  1.5427 -0.1742
 1517TIP3    H2 4558   4.709   0.630   2.276  2.6946  0.8037 -0.5124
 1518TIP3   OH2 4559   5.811   2.003   4.410 -0.0394 -0.1313  0.2048
 1518TIP3    H1 4560   5.830   2.096   4.416  1.3391 -0.1974 -1.8975
 1518TIP3    H2 4561   5.761   1.994   4.329 -1.2459 -1.0924  1.0208
 1519TIP3   OH2 4562   5.619   1.638   2.507  0.3916 -0.5837 -0.1686
 1519TIP3    H1 4563   5.668   1.562   2.537  1.4382 -0.3054 -1.1062
 1519TIP3    H2 4564   5.668   1.714   2.540  0.4877 -0.2990 -0.9533
 1520TIP3   OH2 4565   1.033   2.017   1.270  0.1097  0.6477  0.5717
 1520TIP3    H1 4566   1.054   1.937   1.223 -1.5336 -0.8844  2.2498
 1520TIP3    H2 4567   1.117   2.056   1.291  1.1030 -1.8424  1.5993
 1521TIP3   OH2 4568   3.997   2.427   2.861  0.3428 -0.0231  0.1122
 1521TIP3    H1 4569   4.011   2.334   2.881 -0.9384  0.0733  1.6498
 1521TIP3    H2 4570   3.980   2.468   2.946 -0.9196  1.2834 -0.7175
 1522TIP3   OH2 4571   0.646   2.983   0.758 -0.4935  0.1230 -0.0996
 1522TIP3    H1 4572   0.700   2.970   0.836 -0.2393  1.7848  0.0410
 1522TIP3    H2 4573   0.587   2.908   0.756  0.8540 -1.0036  0.5464
 1523TIP3   OH2 4574   0.365   5.173   3.400  0.1336 -0.5081  0.6454
 1523TIP3    H1 4575   0.350   5.146   3.491  0.3897  1.3265  1.2669
 1523TIP3    H2 4576   0.360   5.268   3.402  0.1110 -0.4347 -1.2928
 1524TIP3   OH2 4577   1.432   0.710   3.346 -0.4219  0.6806  0.2557
 1524TIP3    H1 4578   1.499   0.769   3.381  1.6752 -1.2154 -0.2792
 1524TIP3    H2 4579   1.407   0.749   3.263  0.7850  0.9481 -0.0020
 1525TIP3   OH2 4580   0.223   1.343   2.402 -0.6006 -0.1309 -0.2735
 1525TIP3    H1 4581   0.231   1.281   2.475  1.2075  0.4582  0.0707
 1525TIP3    H2 4582   0.153   1.306   2.348 -2.6174 -0.1754  2.1242
 1526TIP3   OH2 4583   3.604   1.709   1.944 -0.3817  0.2894  0.0640
 1526TIP3    H1 4584   3.516   1.684   1.917 -0.0729  1.4514 -2.2280
 1526TIP3    H2 4585   3.591   1.764   2.021 -1.6886  0.7146 -0.4459
 1527TIP3   OH2 4586   2.618   4.975   5.092  0.1209  0.1725  0.2422
 1527TIP3    H1 4587   2.617   4.977   5.187  1.1860  1.0712  0.2483
 1527TIP3    H2 4588   2.597   4.884   5.070  2.1519 -0.6309  1.3914
 1528TIP3   OH2 4589   1.664   2.035   1.902  0.7789 -0.4572  0.5774
 1528TIP3    H1 4590   1.659   1.965   1.837  0.5452  0.0474  0.0539
 1528TIP3    H2 4591   1.606   2.005   1.973 -0.4489 -0.1344 -0.2734
 1529TIP3   OH2 4592   2.563   3.550   1.091  0.1745  0.6163 -0.3026
 1529TIP3    H1 4593   2.575   3.458   1.118 -0.2713  0.3420 -1.0109
 1529TIP3    H2 4594   2.560   3.599   1.174  0.9644  0.0632  0.0644
 1530TIP3   OH2 4595   3.420   4.947   0.749  0.0053  0.1668 -0.3328
 1530TIP3    H1 4596   3.453   5.021   0.699 -0.6859  0.4139 -0.4175
 1530TIP3    H2 4597   3.385   4.986   0.829  0.1840 -0.1311 -0.1052
 1531TIP3   OH2 4598   4.977   2.080   4.893 -0.6982  0.3096 -0.5518
 1531TIP3    H1 4599   5.062   2.070   4.936 -1.4746  0.3686  1.0385
 1531TIP3    H2 4600   4.964   1.998   4.846 -1.2066 -1.1047  1.8856
 1532TIP3   OH2 4601   5.531   4.290   4.525  0.3033  0.1492  0.3701
 1532TIP3    H1 4602   5.580   4.349   4.468  0.6362  0.2112  0.7130
 1532TIP3    H2 4603   5.474   4.348   4.576 -1.1273 -0.0377 -0.9743
 1533TIP3   OH2 4604   0.831   2.249   2.547 -0.1024 -0.1732 -0.2955
 1533TIP3    H1 4605   0.767   2.178   2.542  0.0234 -0.2549 -0.8209
 1533TIP3    H2 4606   0.881   2.242   2.466 -0.8086  1.2065 -0.8894
 1534TIP3   OH2 4607   2.372   1.909   1.367 -0.5791 -0.2368  0.0813
 1534TIP3    H1 4608   2.434   1.946   1.303 -0.0243 -1.6122 -0.2040
 1534TIP3    H2 4609   2.330   1.837   1.321 -0.5022 -0.9680  1.1239
 1535TIP3   OH2 4610   4.899   2.432   4.965 -0.8070 -0.2685  0.3358
 1535TIP3    H1 4611   4.948   2.366   5.015  1.2955 -0.9269 -2.3542
 1535TIP3    H2 4612   4.934   2.515   4.996  0.7236 -0.6727 -0.1914
 1536TIP3   OH2 4613   1.732   0.840   4.295 -0.0632  0.2152  0.1880
 1536TIP3    H1 4614   1.717   0.927   4.259 -0.3382  0.8469  1.7586
 1536TIP3    H2 4615   1.659   0.826   4.356  0.3920 -0.7969  0.5237
 1537TIP3   OH2 4616   1.645   2.138   1.061 -0.0864  0.6489  0.0163
 1537TIP3    H1 4617   1.736   2.166   1.048  0.6457 -2.1080 -1.6468
 1537TIP3    H2 4618   1.650   2.071   1.129 -0.9338  0.6473  0.0867
 1538TIP3   OH2 4619   5.461   4.639   1.231  0.4688  0.3503 -0.4604
 1538TIP3    H1 4620   5.505   4.556   1.211  1.0275  0.9421 -1.8086
 1538TIP3    H2 4621   5.434   4.631   1.323 -3.1180 -2.9987 -1.5084
 1539TIP3   OH2 4622   5.922   4.828   2.517  0.0963 -0.2102  0.4934
 1539TIP3    H1 4623   5.870   4.751   2.491 -1.1247  0.4873  0.7664
 1539TIP3    H2 4624   6.011   4.807   2.490 -0.1249 -1.8970  0.9261
 1540TIP3   OH2 4625   2.469   5.833   2.584  0.1726 -0.2465  0.3160
 1540TIP3    H1 4626   2.548   5.786   2.556  0.2830 -0.9869  1.7533
 1540TIP3    H2 4627   2.407   5.764   2.606 -0.5807  0.3300  0.0328
 1541TIP3   OH2 4628   0.858   5.509   1.965  0.3511 -1.0138  0.5779
 1541TIP3    H1 4629   0.781   5.536   1.913  0.6662  0.6412  0.9389
 1541TIP3    H2 4630   0.891   5.590   2.003  0.0127 -2.1898  3.5897
 1542TIP3   OH2 4631   0.498   2.897   4.316 -0.0180 -0.1374 -0.2905
 1542TIP3    H1 4632   0.521   2.853   4.234  1.2319  1.7697 -1.0249
 1542TIP3    H2 4633   0.498   2.826   4.381 -3.0048 -2.0824 -2.1400
 1543TIP3   OH2 4634   3.018   2.982   0.092 -0.4415 -0.5963  0.7841
 1543TIP3    H1 4635   3.110   3.009   0.102  0.0008 -1.9838  0.6242
 1543TIP3    H2 4636   2.976   3.057   0.049  0.8726 -0.3747 -0.1770
 1544TIP3   OH2 4637   2.777   4.056   3.038  0.0841 -0.1940 -0.1518
 1544TIP3    H1 4638   2.736   4.042   2.952 -1.3864  0.9208  0.3417
 1544TIP3    H2 4639   2.723   4.007   3.099  0.6071 -0.2574  0.2685
 1545TIP3   OH2 4640   0.013   3.396   0.964  0.2941  0.1922 -0.3517
 1545TIP3    H1 4641   0.077   3.331   0.933 -0.5560 -1.1381  0.5867
 1545TIP3    H2 4642  -0.034   3.422   0.885  0.2383 -0.8117 -0.6622
 1546TIP3   OH2 4643   0.556   3.612   3.784  0.1510 -0.5387  0.0345
 1546TIP3    H1 4644   0.605   3.693   3.776 -1.2330  0.4074  0.7471
 1546TIP3    H2 4645   0.622   3.545   3.799  1.2788  0.5372 -0.0086
 1547TIP3   OH2 4646   0.586   3.273   2.689 -0.0270 -0.3775  0.1725
 1547TIP3    H1 4647   0.653   3.205   2.701 -0.1313 -0.7765 -1.2829
 1547TIP3    H2 4648   0.527   3.237   2.622 -1.0136  0.4804  0.5491
 1548TIP3   OH2 4649   3.955   0.819   5.015 -0.0876  0.2170 -0.2047
 1548TIP3    H1 4650   3.985   0.829   5.106  0.5634 -0.8485 -0.2878
 1548TIP3    H2 4651   3.864   0.848   5.017  0.4319  1.9200  0.4107
 1549TIP3   OH2 4652   4.335   2.222   3.481 -0.1050  0.0553  0.3908
 1549TIP3    H1 4653   4.336   2.299   3.425 -1.7441 -0.1437  0.0377
 1549TIP3    H2 4654   4.362   2.254   3.567 -1.7686  1.2748  0.5142
 1550TIP3   OH2 4655   0.622   5.208   1.137 -0.0592  0.6978  0.0256
 1550TIP3    H1 4656   0.606   5.291   1.091 -0.8479 -0.2444 -1.4994
 1550TIP3    H2 4657   0.697   5.170   1.092 -0.2080  0.2283  0.1674
 1551TIP3   OH2 4658   1.431   5.299   0.563 -0.3134  0.6000  0.1114
 1551TIP3    H1 4659   1.340   5.284   0.590 -0.2862 -0.1160 -0.1731
 1551TIP3    H2 4660   1.479   5.222   0.595 -0.0167  0.4352 -0.7124
 1552TIP3   OH2 4661   4.842   6.000   3.096 -0.0864 -0.7512  0.2113
 1552TIP3    H1 4662   4.798   5.925   3.055 -0.3363  0.2222 -1.4097
 1552TIP3    H2 4663   4.934   5.987   3.076 -0.0607 -0.9405  0.4560
 1553TIP3   OH2 4664   4.887   2.550   1.906  0.0302  0.2900 -0.0801
 1553TIP3    H1 4665   4.862   2.461   1.881 -0.7893  0.3344  0.5272
 1553TIP3    H2 4666   4.976   2.561   1.871  0.7483 -1.2911  1.1366
 1554TIP3   OH2 4667   3.221   3.811   2.340 -0.2524 -0.3009 -0.1887
 1554TIP3    H1 4668   3.314   3.834   2.348 -0.0478 -1.3297  0.6879
 1554TIP3    H2 4669   3.178   3.892   2.312  0.7426  0.4947  0.5130
 1555TIP3   OH2 4670   0.557   4.603   3.817 -0.0099 -0.3679 -0.9947
 1555TIP3    H1 4671   0.599   4.546   3.882 -1.5493 -0.5834 -0.1453
 1555TIP3    H2 4672   0.487   4.646   3.865  0.1937  1.1523 -1.9984
 1556TIP3   OH2 4673   4.452   1.219   2.204  0.6198 -0.1726  0.8092
 1556TIP3    H1 4674   4.485   1.254   2.287  1.8993  0.2678  0.1503
 1556TIP3    H2 4675   4.529   1.177   2.164 -0.2251 -1.2897  0.3192
 1557TIP3   OH2 4676   3.252   3.544   1.486  0.5949 -0.0642 -0.7187
 1557TIP3    H1 4677   3.283   3.595   1.560  1.5200 -0.5608 -0.7458
 1557TIP3    H2 4678   3.300   3.578   1.411  0.3017 -0.1385 -0.9404
 1558TIP3   OH2 4679   4.185   1.400   2.539  0.3750 -0.1226 -0.0861
 1558TIP3    H1 4680   4.200   1.416   2.632  2.0365 -2.6399  0.1900
 1558TIP3    H2 4681   4.266   1.360   2.508 -0.4785 -0.2412 -2.4241
 1559TIP3   OH2 4682   4.726   0.346   3.707  0.2327  0.2412  0.5794
 1559TIP3    H1 4683   4.773   0.425   3.679 -3.6608  2.0212 -1.9117
 1559TIP3    H2 4684   4.740   0.283   3.636 -0.2161  0.3541  0.3895
 1560TIP3   OH2 4685   1.059   2.254   1.083  0.4745  0.5060  0.5838
 1560TIP3    H1 4686   0.967   2.242   1.107 -0.2423 -0.3379 -2.2095
 1560TIP3    H2 4687   1.104   2.179   1.120 -0.2487  0.0950  0.6459
 1561TIP3   OH2 4688   5.489   0.611   1.118 -0.9771  0.7868  0.1374
 1561TIP3    H1 4689   5.477   0.517   1.130 -2.0289  1.0352  1.2293
 1561TIP3    H2 4690   5.421   0.637   1.056  1.0556  0.4144 -2.4047
 1562TIP3   OH2 4691   3.307   2.040   1.136  0.0124  0.2594 -0.0140
 1562TIP3    H1 4692   3.398   2.041   1.166 -0.3255  1.9577  1.1451
 1562TIP3    H2 4693   3.286   1.947   1.126  1.9658 -0.1581 -0.6821
 1563TIP3   OH2 4694   4.374   2.490   1.349 -0.0953 -0.5798  0.0272
 1563TIP3    H1 4695   4.424   2.434   1.408  1.7858  0.4180 -0.5401
 1563TIP3    H2 4696   4.333   2.429   1.288  2.2094 -1.3856 -0.8119
 1564TIP3   OH2 4697   0.781   0.835   2.977  0.6241  0.0712 -0.0552
 1564TIP3    H1 4698   0.822   0.749   2.983  0.7593  0.1873  0.7194
 1564TIP3    H2 4699   0.749   0.839   2.887  0.5348 -0.8259 -0.0770
 1565TIP3   OH2 4700   5.490   1.474   3.823 -0.1748 -0.0893  0.3131
 1565TIP3    H1 4701   5.483   1.566   3.848 -0.0785 -0.2709  1.0137
 1565TIP3    H2 4702   5.495   1.426   3.905  4.8848 -0.3681  0.1969
 1566TIP3   OH2 4703   0.112   3.141   2.205 -0.0583  0.2931 -0.1926
 1566TIP3    H1 4704   0.112   3.233   2.181 -0.8504  0.2868 -0.2559
 1566TIP3    H2 4705   0.201   3.111   2.187 -0.0076  0.8496 -0.9289
 1567TIP3   OH2 4706   1.734   2.459   4.027  0.0127 -0.2327  0.6299
 1567TIP3    H1 4707   1.673   2.420   3.965  2.1798 -0.2503 -1.6351
 1567TIP3    H2 4708   1.719   2.554   4.021  0.7278 -0.1808 -0.5499
 1568TIP3   OH2 4709   4.757   4.191   4.364  0.0959  0.3816  0.0789
 1568TIP3    H1 4710   4.664   4.167   4.362  0.2316 -0.1448 -0.7217
 1568TIP3    H2 4711   4.759   4.277   4.404 -1.0433  1.5970 -2.2451
 1569TIP3   OH2 4712   0.421   4.632   1.775  0.4329 -0.7643  0.2195
 1569TIP3    H1 4713   0.390   4.707   1.826  0.4241  0.1951 -1.1425
 1569TIP3    H2 4714   0.486   4.668   1.715  2.1692 -2.2649  1.0942
 1570TIP3   OH2 4715   0.284   1.537   4.424  1.0184 -0.3076 -0.2655
 1570TIP3    H1 4716   0.375   1.507   4.430  1.1698  0.1989 -0.0073
 1570TIP3    H2 4717   0.291   1.630   4.401  0.6304  0.4244  2.2729
 1571TIP3   OH2 4718   5.189   3.909   0.924 -0.7942 -0.0798  0.5752
 1571TIP3    H1 4719   5.196   3.925   0.830 -0.4238  0.2448  0.6534
 1571TIP3    H2 4720   5.146   3.987   0.958 -2.0337 -0.7175  0.5234
 1572TIP3   OH2 4721   2.127   3.220   5.013 -0.3865  0.2840 -0.1602
 1572TIP3    H1 4722   2.033   3.233   5.024 -0.7878 -0.4238 -2.2418
 1572TIP3    H2 4723   2.135   3.174   4.929  1.7282 -0.9795  0.6511
 1573TIP3   OH2 4724   3.348   5.567   0.480 -0.5255  0.2257  0.3997
 1573TIP3    H1 4725   3.299   5.645   0.504 -2.0099 -0.0663 -1.4173
 1573TIP3    H2 4726   3.292   5.494   0.509 -0.4672 -0.1244 -0.3507
 1574TIP3   OH2 4727   2.130   1.702   4.421  0.1738  0.1417  0.6022
 1574TIP3    H1 4728   2.040   1.714   4.453 -0.4834 -3.8635  0.7456
 1574TIP3    H2 4729   2.119   1.676   4.330  1.1310 -0.8749  0.7603
 1575TIP3   OH2 4730   3.003   1.209   1.653 -0.0339  0.0578 -0.6495
 1575TIP3    H1 4731   3.054   1.288   1.635 -1.9451  1.5706  0.3276
 1575TIP3    H2 4732   3.018   1.191   1.746 -0.5393 -0.0499 -0.5875
 1576TIP3   OH2 4733   4.917   3.440   1.937  0.3627  0.4807 -0.1770
 1576TIP3    H1 4734   4.936   3.479   1.851  0.9134 -0.6184 -0.5820
 1576TIP3    H2 4735   4.837   3.483   1.966  1.1351  2.1466 -0.4244
 1577TIP3   OH2 4736   5.038   5.348   2.900  0.1844  0.0793 -0.1060
 1577TIP3    H1 4737   5.108   5.286   2.880  0.6051  0.5090  0.0116
 1577TIP3    H2 4738   4.971   5.330   2.835  0.4879 -0.2088 -0.3431
 1578TIP3   OH2 4739   3.359   0.652   0.106 -0.2607  0.4133  0.0940
 1578TIP3    H1 4740   3.401   0.613   0.029 -3.0375  2.3206 -2.6210
 1578TIP3    H2 4741   3.404   0.735   0.119  0.1538  0.1292  0.4785
 1579TIP3   OH2 4742   2.011   1.326   5.126  0.2242 -0.0525 -0.2609
 1579TIP3    H1 4743   2.011   1.377   5.045 -0.4321  0.8171  0.2640
 1579TIP3    H2 4744   1.954   1.252   5.108  1.7281 -1.0300 -1.2610
 1580TIP3   OH2 4745   3.254   2.372   1.628 -0.0111 -0.2224  0.2040
 1580TIP3    H1 4746   3.270   2.415   1.712 -0.5142  0.7971 -0.2153
 1580TIP3    H2 4747   3.262   2.279   1.648 -0.3598 -0.0113  1.4392
 1581TIP3   OH2 4748   3.529   0.659   2.200  0.5481 -0.3894  0.0883
 1581TIP3    H1 4749   3.584   0.681   2.274  0.3086 -1.2348  0.5295
 1581TIP3    H2 4750   3.530   0.563   2.196 -1.4979 -0.4884  0.5946
 1582TIP3   OH2 4751   3.478   1.252   2.765 -0.1518  0.7110  0.3579
 1582TIP3    H1 4752   3.469   1.157   2.772  0.4431  0.6988  1.0266
 1582TIP3    H2 4753   3.388   1.284   2.755 -0.3049  0.0379 -0.4803
 1583TIP3   OH2 4754   0.210   0.202   0.184 -0.3387  0.2195 -0.6098
 1583TIP3    H1 4755   0.139   0.150   0.221 -1.1690  0.4589 -1.8403
 1583TIP3    H2 4756   0.287   0.176   0.235 -1.4478  0.7195  1.4778
 1584TIP3   OH2 4757   3.976   0.292   3.486 -0.0086 -0.4580 -0.0075
 1584TIP3    H1 4758   4.040   0.298   3.414 -0.8808  0.2731 -0.7411
 1584TIP3    H2 4759   4.004   0.358   3.548 -0.5119  0.4439 -0.7190
 1585TIP3   OH2 4760   4.020   2.113   0.297  0.2367 -0.0593 -0.0389
 1585TIP3    H1 4761   3.999   2.191   0.245 -0.2367 -2.2049 -3.4314
 1585TIP3    H2 4762   3.939   2.094   0.344 -0.7988 -0.2875 -1.8148
 1586TIP3   OH2 4763   6.125   2.070   1.839  0.1584  0.5995 -0.5412
 1586TIP3    H1 4764   6.092   2.154   1.807 -0.2683  0.9265  0.6914
 1586TIP3    H2 4765   6.157   2.025   1.761  4.3231  3.5575 -0.8863
 1587TIP3   OH2 4766   3.851   3.975   0.661 -0.0091  0.6609 -0.5121
 1587TIP3    H1 4767   3.755   3.972   0.662 -0.0105 -1.3701  1.5587
 1587TIP3    H2 4768   3.877   3.892   0.622  0.9200  1.0201 -0.6814
 1588TIP3   OH2 4769   0.220   1.675   0.264 -0.7289 -0.0658  0.0092
 1588TIP3    H1 4770   0.192   1.758   0.225 -1.0444  1.8525  3.8155
 1588TIP3    H2 4771   0.149   1.651   0.323  0.6770 -1.3802  1.2472
 1589TIP3   OH2 4772   5.181   1.729   0.555  0.5071  0.2141 -0.2119
 1589TIP3    H1 4773   5.086   1.716   0.558  0.4135  0.8243 -0.3581
 1589TIP3    H2 4774   5.192   1.824   0.554  1.1016  0.1468 -0.6457
 1590TIP3   OH2 4775   4.980   3.416   2.710 -0.1926 -0.0912  0.0504
 1590TIP3    H1 4776   4.918   3.343   2.700 -0.6250  0.4292 -1.2665
 1590TIP3    H2 4777   5.060   3.385   2.666  0.3104 -0.5226  1.2198
 1591TIP3   OH2 4778   4.255   4.412   5.035 -0.1353 -0.5440 -0.2900
 1591TIP3    H1 4779   4.287   4.449   5.117  0.9073 -1.6027 -0.1850
 1591TIP3    H2 4780   4.281   4.476   4.968 -1.1044  0.3811  0.1934
 1592TIP3   OH2 4781   6.071   1.257   1.203 -0.0327 -0.2358 -0.1507
 1592TIP3    H1 4782   6.027   1.282   1.284 -0.1986 -2.0587  0.3751
 1592TIP3    H2 4783   6.000   1.236   1.142  0.0868  1.2679 -0.8648
 1593TIP3   OH2 4784   1.979   1.979   4.485  0.4916 -0.4961  0.5832
 1593TIP3    H1 4785   1.938   2.059   4.452  0.8318  0.2395  1.8391
 1593TIP3    H2 4786   2.037   1.951   4.414 -1.0826 -0.7696 -0.6555
 1594TIP3   OH2 4787   3.260   0.199   2.506 -0.4260  0.1074 -0.7022
 1594TIP3    H1 4788   3.217   0.284   2.512  1.6197  1.0800  2.1523
 1594TIP3    H2 4789   3.220   0.146   2.575  0.5512 -0.1042 -0.2811
 1595TIP3   OH2 4790   1.963   0.913   5.121  0.3057 -0.3371  0.6407
 1595TIP3    H1 4791   1.979   0.820   5.135 -0.2971 -0.2574  2.0633
 1595TIP3    H2 4792   1.879   0.929   5.164 -0.4591  0.5225 -1.0688
 1596TIP3   OH2 4793   4.034   1.193   2.015  0.1770  0.0070 -0.4455
 1596TIP3    H1 4794   4.092   1.185   2.091 -2.0505  0.5888  1.4126
 1596TIP3    H2 4795   4.017   1.103   1.988 -0.2014 -0.2918  0.7269
 1597TIP3   OH2 4796   4.221   5.495   4.802  0.1134 -0.1710  0.0132
 1597TIP3    H1 4797   4.165   5.427   4.839  0.0204 -0.3936 -0.5283
 1597TIP3    H2 4798   4.276   5.524   4.875 -0.4655 -0.1941  0.4619
 1598TIP3   OH2 4799   6.287   5.140   3.241  0.3992 -0.5042  0.1133
 1598TIP3    H1 4800   6.382   5.137   3.229  0.4789 -1.5772  0.8381
 1598TIP3    H2 4801   6.273   5.211   3.304  0.6981 -0.1806 -0.1854
 1599TIP3   OH2 4802   5.012   0.419   2.046 -0.5644 -0.5299 -0.6471
 1599TIP3    H1 4803   4.973   0.363   2.113  0.6848  0.1342  0.6853
 1599TIP3    H2 4804   4.987   0.507   2.072  3.3561  0.1789  1.5465
 1600TIP3   OH2 4805   0.053   5.942   0.579  0.0910 -0.1132 -0.6168
 1600TIP3    H1 4806   0.026   5.909   0.494  0.3683 -0.8494 -0.4281
 1600TIP3    H2 4807   0.147   5.922   0.584  0.3998  1.1746 -0.7030
 1601TIP3   OH2 4808   1.010   1.486   1.971 -0.0480  0.3898  0.1510
 1601TIP3    H1 4809   0.998   1.438   2.053  0.6660 -0.0459  0.0032
 1601TIP3    H2 4810   1.051   1.423   1.912 -1.0103  0.5402 -0.7080
 1602TIP3   OH2 4811   5.969   1.328   2.588  0.2402  0.1196  0.3436
 1602TIP3    H1 4812   6.016   1.321   2.671  1.2583  0.3335 -0.2068
 1602TIP3    H2 4813   5.879   1.349   2.614  0.2236 -1.1934  1.4371
 1603TIP3   OH2 4814   3.017   3.005   1.278  0.1222 -0.2022 -0.0552
 1603TIP3    H1 4815   2.990   3.054   1.356  0.5588 -0.2028  0.0986
 1603TIP3    H2 4816   3.099   2.963   1.303 -1.1644 -2.5950  0.4852
 1604TIP3   OH2 4817   2.226   5.927   1.036 -0.5285 -0.6006  0.1792
 1604TIP3    H1 4818   2.208   5.846   0.987 -0.4962 -0.1650 -0.5705
 1604TIP3    H2 4819   2.177   5.994   0.989 -0.5154 -0.1708  0.7725
 1605TIP3   OH2 4820   2.677   1.761   2.160 -0.1766 -0.3250  0.0340
 1605TIP3    H1 4821   2.725   1.742   2.240 -0.8562  0.1909  0.5703
 1605TIP3    H2 4822   2.708   1.847   2.133 -2.1610  0.9091  1.4528
 1606TIP3   OH2 4823   0.203   1.349   4.224 -0.4675 -0.7556 -0.6487
 1606TIP3    H1 4824   0.220   1.279   4.287 -2.3824 -1.5006 -0.8938
 1606TIP3    H2 4825   0.199   1.428   4.277 -0.6977 -1.1803 -0.0154
 1607TIP3   OH2 4826   0.399   5.563   3.783 -0.2504  0.4224 -0.2419
 1607TIP3    H1 4827   0.434   5.592   3.867  0.8942 -2.3725  0.3567
 1607TIP3    H2 4828   0.471   5.578   3.721 -0.5438  1.0690 -0.4345
 1608TIP3   OH2 4829   3.304   2.091   1.634 -0.1502  0.5428 -0.2777
 1608TIP3    H1 4830   3.384   2.091   1.583  0.4410 -0.1228  0.6385
 1608TIP3    H2 4831   3.284   1.999   1.649  1.2431  0.6389  3.0206
 1609TIP3   OH2 4832   1.036   4.484   5.066  0.2403 -0.3581  0.7923
 1609TIP3    H1 4833   1.035   4.536   4.986 -1.0934 -1.3689  0.1146
 1609TIP3    H2 4834   1.122   4.500   5.104  1.0021 -0.0702 -0.9832
 1610TIP3   OH2 4835   0.059   3.175   2.891  0.4789 -0.4270 -0.0587
 1610TIP3    H1 4836   0.033   3.106   2.952  1.0818  0.6212  1.4470
 1610TIP3    H2 4837   0.154   3.172   2.889  0.4880 -0.0347 -0.4412
 1611TIP3   OH2 4838   3.142   2.187   1.850  0.3719  0.0958  0.1103
 1611TIP3    H1 4839   3.206   2.132   1.805 -0.7054 -0.8537 -0.3193
 1611TIP3    H2 4840   3.173   2.192   1.940  1.2345 -0.0524 -0.1746
 1612TIP3   OH2 4841   0.156   4.301   4.140 -0.6410  0.0971  0.3572
 1612TIP3    H1 4842   0.088   4.309   4.207 -0.4083  0.9162  0.5119
 1612TIP3    H2 4843   0.118   4.243   4.074 -1.1163 -0.2223  0.8995
 1613TIP3   OH2 4844   2.718   3.624  -0.006  0.3904  0.1329  0.1685
 1613TIP3    H1 4845   2.800   3.579   0.012  0.1486 -1.3365 -1.9503
 1613TIP3    H2 4846   2.704   3.681   0.069  2.1798 -1.2630  1.6410
 1614TIP3   OH2 4847   0.849   2.070   2.949 -0.6008  0.4815  0.3729
 1614TIP3    H1 4848   0.802   2.007   2.894 -0.4450  1.1329 -0.5207
 1614TIP3    H2 4849   0.782   2.107   3.007 -1.0373  0.8165 -0.3379
 1615TIP3   OH2 4850   2.764   2.900   3.420  0.2749 -0.5725  0.1906
 1615TIP3    H1 4851   2.822   2.921   3.346  2.9042 -0.4757  2.1452
 1615TIP3    H2 4852   2.744   2.807   3.409 -0.9600 -0.1463 -1.6173
 1616TIP3   OH2 4853   3.644   4.735   4.543  0.2033  0.1733  0.4641
 1616TIP3    H1 4854   3.625   4.793   4.469  0.1062 -0.6948 -0.2148
 1616TIP3    H2 4855   3.733   4.758   4.570  0.3833  0.2452 -0.1811
 1617TIP3   OH2 4856   5.627   5.999   4.695 -0.2731 -0.4877  0.9134
 1617TIP3    H1 4857   5.541   5.961   4.676 -0.7845  1.2764 -0.6377
 1617TIP3    H2 4858   5.687   5.951   4.638 -0.8782  0.7098 -0.8564
 1618TIP3   OH2 4859   4.562   4.485   4.540 -0.9092  0.1964 -0.0887
 1618TIP3    H1 4860   4.543   4.520   4.453 -1.7012 -0.8732 -0.3596
 1618TIP3    H2 4861   4.492   4.423   4.557  1.1028 -2.3036 -0.2205
 1619TIP3   OH2 4862   0.320   4.475   0.496  0.0995  0.0394  0.6711
 1619TIP3    H1 4863   0.403   4.428   0.498  0.0228 -0.0925  0.7987
 1619TIP3    H2 4864   0.292   4.479   0.588  0.6197  1.2597  0.7876
 1620TIP3   OH2 4865   5.732   2.107   1.466 -0.4368  0.4686 -0.0012
 1620TIP3    H1 4866   5.772   2.124   1.381  1.1339 -0.7209  0.4742
 1620TIP3    H2 4867   5.777   2.166   1.526 -1.2852  1.0360  0.1078
 1621TIP3   OH2 4868   5.016   0.770   0.285  0.4954  0.2636  0.2563
 1621TIP3    H1 4869   5.085   0.829   0.253 -0.5124  1.1207 -0.4074
 1621TIP3    H2 4870   5.026   0.691   0.233 -0.2476  1.1262 -1.2752
 1622TIP3   OH2 4871   0.348   4.391   1.850  0.1371 -0.3806 -0.3330
 1622TIP3    H1 4872   0.312   4.374   1.763 -0.8424  0.6184 -0.1452
 1622TIP3    H2 4873   0.408   4.464   1.836  0.8396 -0.9524 -0.3523
 1623TIP3   OH2 4874   3.837   0.451   4.922 -0.0848  0.5581  0.4954
 1623TIP3    H1 4875   3.933   0.452   4.925 -0.0747 -0.2352  0.6217
 1623TIP3    H2 4876   3.816   0.484   4.835  0.3190  0.3709  0.3204
 1624TIP3   OH2 4877   1.814   1.902   3.024  0.0169 -0.3570  0.8406
 1624TIP3    H1 4878   1.862   1.976   3.061  0.9052 -1.6832  2.5174
 1624TIP3    H2 4879   1.745   1.941   2.971  1.5453  1.6472  0.2043
 1625TIP3   OH2 4880   0.292   0.093   0.680  0.7624  0.1442 -0.0341
 1625TIP3    H1 4881   0.258   0.008   0.709  0.9362  0.1205  0.1024
 1625TIP3    H2 4882   0.325   0.076   0.592 -1.0496  0.5439 -0.8220
 1626TIP3   OH2 4883   2.528   3.860   3.462 -0.4079 -0.0691 -0.2833
 1626TIP3    H1 4884   2.578   3.929   3.506  0.6696 -1.2146  0.3408
 1626TIP3    H2 4885   2.496   3.805   3.534  0.4950 -1.3830 -0.8764
 1627TIP3   OH2 4886   3.595   4.569   1.515 -0.1486  0.6309 -0.2925
 1627TIP3    H1 4887   3.621   4.648   1.561  0.0785 -0.3163  1.2747
 1627TIP3    H2 4888   3.664   4.556   1.449  0.6887  0.8590  0.5175
 1628TIP3   OH2 4889   5.557   4.129   1.086 -0.1314 -0.1924  0.6045
 1628TIP3    H1 4890   5.487   4.183   1.047  1.2227  1.6054  0.5621
 1628TIP3    H2 4891   5.627   4.131   1.021 -0.1865 -2.4539  0.3948
 1629TIP3   OH2 4892   4.441   4.781   3.522 -0.0395 -0.0660 -0.1827
 1629TIP3    H1 4893   4.410   4.788   3.432 -1.8770  0.2563  0.4226
 1629TIP3    H2 4894   4.373   4.824   3.574 -0.4110 -2.5280  1.5887
 1630TIP3   OH2 4895   0.805   5.419   4.433  0.3556  0.2305  0.1850
 1630TIP3    H1 4896   0.804   5.513   4.451  1.4472  0.0825  1.1260
 1630TIP3    H2 4897   0.892   5.403   4.395 -0.4827 -0.1256 -1.7003
 1631TIP3   OH2 4898   1.716   3.263   0.091  0.4057 -0.1974  0.3929
 1631TIP3    H1 4899   1.698   3.289   0.181 -1.1980 -0.2455  0.1203
 1631TIP3    H2 4900   1.691   3.171   0.086  0.9506 -0.3357  0.0066
 1632TIP3   OH2 4901   1.522   5.985   0.811 -0.1489 -0.4112  0.3872
 1632TIP3    H1 4902   1.548   5.894   0.826  0.0753 -0.2033  1.3090
 1632TIP3    H2 4903   1.483   5.985   0.723  0.1324 -1.3322  0.2570
 1633TIP3   OH2 4904   1.313   1.317   0.232  0.2296  0.1709  0.1797
 1633TIP3    H1 4905   1.258   1.339   0.157 -0.1294  0.0044  0.3935
 1633TIP3    H2 4906   1.288   1.228   0.255  1.2500 -0.2567 -0.3002
 1634TIP3   OH2 4907   4.013   2.815   4.992  0.1940 -0.3638 -0.6549
 1634TIP3    H1 4908   4.060   2.732   4.982 -0.5106 -0.6625 -1.5245
 1634TIP3    H2 4909   4.072   2.881   4.954  0.4246 -0.5652 -0.6499
 1635TIP3   OH2 4910   5.404   3.867   4.720  0.0744  0.8092 -0.4966
 1635TIP3    H1 4911   5.439   3.825   4.799 -1.7382  1.3420  0.6331
 1635TIP3    H2 4912   5.431   3.959   4.727 -0.3135  0.9138 -0.3579
 1636TIP3   OH2 4913   4.906   0.888   2.627  0.4629  0.2476  0.5063
 1636TIP3    H1 4914   4.844   0.836   2.677  0.9574 -0.8600 -0.0165
 1636TIP3    H2 4915   4.959   0.825   2.579  1.5633  1.1864  0.4203
 1637TIP3   OH2 4916   6.044   1.361   3.692 -0.3279  0.6164 -0.4952
 1637TIP3    H1 4917   5.997   1.422   3.748 -1.2013  0.3134 -0.8808
 1637TIP3    H2 4918   6.126   1.406   3.671  0.1233  0.6488  1.1694
 1638TIP3   OH2 4919   0.127   4.035   2.498  0.5282 -0.1452 -0.2143
 1638TIP3    H1 4920   0.193   4.035   2.568 -0.4898  1.5471  0.8070
 1638TIP3    H2 4921   0.082   3.951   2.507  1.0916 -0.3817  0.4949
 1639TIP3   OH2 4922   0.004   5.641   2.560  0.0408 -0.0832 -0.3159
 1639TIP3    H1 4923   0.061   5.597   2.497 -1.0424  0.2371 -1.5555
 1639TIP3    H2 4924   0.029   5.733   2.555  0.7167 -0.2054  0.5707
 1640TIP3   OH2 4925   5.332   0.068   4.494  0.1417  0.5681  0.7356
 1640TIP3    H1 4926   5.360   0.144   4.444  0.6184 -1.0002 -1.5107
 1640TIP3    H2 4927   5.393  -0.001   4.469 -2.1068 -1.3725  0.2914
 1641TIP3   OH2 4928   2.726   4.244   1.430  0.6314 -0.2874 -0.1580
 1641TIP3    H1 4929   2.772   4.324   1.457  0.3782 -0.2335  0.1144
 1641TIP3    H2 4930   2.761   4.226   1.343  1.7884 -0.7153  0.3643
 1642TIP3   OH2 4931   0.378   5.151   0.093 -0.3045 -0.0569  0.1164
 1642TIP3    H1 4932   0.341   5.073   0.136 -1.1174  0.1521 -0.1719
 1642TIP3    H2 4933   0.456   5.119   0.049 -0.8701 -0.8183 -0.3692
 1643TIP3   OH2 4934   0.918   5.428   2.711  0.2493  0.1944 -0.2385
 1643TIP3    H1 4935   0.967   5.423   2.629  0.0704 -2.2811 -0.2863
 1643TIP3    H2 4936   0.852   5.495   2.697  0.5567  0.1679 -1.9388
 1644TIP3   OH2 4937   0.397   4.972   4.441 -0.0322 -0.1428  0.4048
 1644TIP3    H1 4938   0.408   4.877   4.427  1.1562 -0.0194  0.3832
 1644TIP3    H2 4939   0.484   5.002   4.465 -0.3153  1.0294 -0.0037
 1645TIP3   OH2 4940   1.981   2.049   5.173 -0.3635  0.0522 -0.1828
 1645TIP3    H1 4941   2.016   1.962   5.156  0.1239  0.1919  0.0688
 1645TIP3    H2 4942   1.886   2.039   5.169 -0.4261 -1.0486  2.4423
 1646TIP3   OH2 4943   0.035   5.806   0.342  0.1314 -0.0507 -0.3020
 1646TIP3    H1 4944   0.111   5.836   0.292 -1.1408  1.0371 -1.6689
 1646TIP3    H2 4945   0.047   5.711   0.348  1.3934  0.0519 -0.8018
 1647TIP3   OH2 4946   4.772   4.913   1.875  0.1167 -0.5192 -0.0652
 1647TIP3    H1 4947   4.704   4.845   1.874  0.1375 -0.5410 -0.0194
 1647TIP3    H2 4948   4.802   4.918   1.784  0.0880 -0.5439 -0.0762
 1648TIP3   OH2 4949   4.171   3.606   3.239 -0.4913  0.0224 -0.3850
 1648TIP3    H1 4950   4.195   3.687   3.283 -4.9076  0.9338  0.7883
 1648TIP3    H2 4951   4.129   3.553   3.307  1.2556 -2.8645 -1.3956
 1649TIP3   OH2 4952   4.160   2.672   1.426  0.0532  0.1486  0.1996
 1649TIP3    H1 4953   4.239   2.618   1.434  1.7325  2.1677 -1.5960
 1649TIP3    H2 4954   4.101   2.621   1.370  0.2007 -1.2085  1.2240
 1650TIP3   OH2 4955   3.005   4.340   0.066 -0.2914 -0.1869 -0.1597
 1650TIP3    H1 4956   2.928   4.283   0.061 -1.6068  1.4012  0.8539
 1650TIP3    H2 4957   2.968   4.429   0.072  1.6246  0.5963  0.5920
 1651TIP3   OH2 4958   2.766   4.143   4.993  0.2438 -0.2175  0.3950
 1651TIP3    H1 4959   2.790   4.121   5.083  1.1449 -0.6672  0.0649
 1651TIP3    H2 4960   2.800   4.232   4.980 -1.4530  0.5738  1.0336
 1652TIP3   OH2 4961   1.915   1.127   1.451  0.8206  0.3251  0.1925
 1652TIP3    H1 4962   1.950   1.043   1.479  0.9895  0.8580  1.6675
 1652TIP3    H2 4963   1.830   1.133   1.493  0.8230  0.8990  0.1267
 1653TIP3   OH2 4964   5.254   3.605   3.619 -0.1726 -0.2208  0.1802
 1653TIP3    H1 4965   5.331   3.639   3.573  1.1210 -0.0153  2.3514
 1653TIP3    H2 4966   5.283   3.521   3.655 -0.5757  0.3214  1.8919
 1654TIP3   OH2 4967   1.223   1.159   2.808 -0.2269 -0.1449 -0.3702
 1654TIP3    H1 4968   1.265   1.180   2.891 -0.1676  1.6991 -0.8371
 1654TIP3    H2 4969   1.145   1.214   2.805  0.1058  0.3080 -1.8108
 1655TIP3   OH2 4970   0.860   2.241   4.047  0.2579 -0.1479 -0.1597
 1655TIP3    H1 4971   0.765   2.239   4.062 -0.0411  2.4509 -1.1721
 1655TIP3    H2 4972   0.870   2.225   3.954  0.8393 -0.6768 -0.0095
 1656TIP3   OH2 4973   4.701   2.616   0.054 -0.2632  0.1802 -0.2846
 1656TIP3    H1 4974   4.744   2.683   0.001 -1.2480  1.8956  1.0109
 1656TIP3    H2 4975   4.721   2.534   0.009  3.4252  0.9569 -0.3754
 1657TIP3   OH2 4976   2.063   1.098   1.179  0.3113  0.0433 -0.2783
 1657TIP3    H1 4977   2.048   1.034   1.248  0.3064  0.4683  0.1188
 1657TIP3    H2 4978   2.094   1.046   1.104 -2.6265 -0.8233 -1.0001
 1658TIP3   OH2 4979   5.685   1.949   1.158  0.1313  0.2465  0.0724
 1658TIP3    H1 4980   5.680   1.985   1.069 -0.4996 -0.3926 -0.1529
 1658TIP3    H2 4981   5.779   1.939   1.174  0.2338 -0.2172 -0.7625
 1659TIP3   OH2 4982   4.441   4.027   0.243  0.2409  0.4448  0.2290
 1659TIP3    H1 4983   4.424   4.061   0.156 -0.7422  0.6660  0.4974
 1659TIP3    H2 4984   4.368   4.058   0.296  0.7386  0.1812  1.0978
 1660TIP3   OH2 4985   4.769   0.028   3.965 -0.3551  0.3343 -0.6849
 1660TIP3    H1 4986   4.860   0.011   3.989 -0.7277 -0.4610  0.2264
 1660TIP3    H2 4987   4.752  -0.028   3.890  0.3586  1.6724 -1.8937
 1661TIP3   OH2 4988   3.720   3.628   2.193 -0.5086  0.4623  0.2555
 1661TIP3    H1 4989   3.641   3.649   2.145  0.3598 -0.6147 -1.7518
 1661TIP3    H2 4990   3.708   3.536   2.220  0.4888 -0.0965 -1.0824
 1662TIP3   OH2 4991   6.274   0.521   2.128 -0.0384 -0.0653 -0.5245
 1662TIP3    H1 4992   6.281   0.607   2.170 -0.3535 -1.2613  2.2064
 1662TIP3    H2 4993   6.364   0.498   2.107  0.1642  0.4896 -0.2971
 1663TIP3   OH2 4994   2.624   0.127   1.937  0.1325 -0.0376  0.1672
 1663TIP3    H1 4995   2.615   0.222   1.935 -0.8190 -0.1160 -0.0027
 1663TIP3    H2 4996   2.624   0.105   2.030 -1.8136 -0.0174  0.2213
 1664TIP3   OH2 4997   4.719   0.682   1.758 -0.1545 -0.0683  0.4157
 1664TIP3    H1 4998   4.653   0.625   1.720  0.5307 -1.6708  1.5490
 1664TIP3    H2 4999   4.716   0.761   1.704 -1.7266 -0.8166 -0.6562
 1665TIP3   OH2 5000   1.263   3.992   4.719  0.3282  0.2816  0.0020
 1665TIP3    H1 5001   1.335   3.934   4.744  0.5984  0.9581  0.8087
 1665TIP3    H2 5002   1.185   3.947   4.749  0.4786 -0.0046 -0.0276
 1666TIP3   OH2 5003   2.419   2.979   1.864  0.0103 -0.0970 -0.3609
 1666TIP3    H1 5004   2.337   2.941   1.894 -0.0410  0.2342 -0.0754
 1666TIP3    H2 5005   2.438   2.934   1.782 -0.3677 -0.2963 -0.3399
 1667TIP3   OH2 5006   1.223   0.984   4.785  0.2982  0.0721 -0.5014
 1667TIP3    H1 5007   1.250   1.058   4.840  0.3505  0.8270 -1.5137
 1667TIP3    H2 5008   1.167   1.023   4.718  1.6964 -0.5219 -2.0859
 1668TIP3   OH2 5009   5.210   3.095   3.886  0.2535  0.3517 -0.2185
 1668TIP3    H1 5010   5.125   3.134   3.905 -0.0715 -0.9977  1.2972
 1668TIP3    H2 5011   5.266   3.123   3.958  0.7414  0.2110 -0.5365
 1669TIP3   OH2 5012   0.270   2.129   4.579 -0.4923 -0.3123  0.3451
 1669TIP3    H1 5013   0.235   2.169   4.499 -0.3290  0.5235  0.6884
 1669TIP3    H2 5014   0.196   2.124   4.638 -0.0176  1.7148  1.1748
 1670TIP3   OH2 5015   1.942   5.749   0.016 -0.1207  0.3206  0.0755
 1670TIP3    H1 5016   1.974   5.834   0.047 -0.4972  0.5685 -0.2067
 1670TIP3    H2 5017   2.021   5.696   0.008 -0.0006  0.2618  1.3822
 1671TIP3   OH2 5018   4.338   3.989   1.193 -0.0567  0.1144  0.1797
 1671TIP3    H1 5019   4.368   3.999   1.284 -2.2288  1.0097  0.8628
 1671TIP3    H2 5020   4.253   3.945   1.201  0.5251 -1.4438 -1.5778
 1672TIP3   OH2 5021   4.607   3.980   4.631  0.4453  0.0979 -0.3727
 1672TIP3    H1 5022   4.560   3.983   4.548  1.5312  0.2308 -1.0079
 1672TIP3    H2 5023   4.699   3.993   4.607  0.9216 -0.9513  0.7290
 1673TIP3   OH2 5024   5.147   2.493   2.823  0.0692 -0.1229 -0.3180
 1673TIP3    H1 5025   5.157   2.539   2.739  0.3668  0.7233  0.1665
 1673TIP3    H2 5026   5.233   2.501   2.865 -0.5106  0.8239  0.7298
 1674TIP3   OH2 5027   0.529   0.301   4.287 -0.1411 -0.1008  0.6456
 1674TIP3    H1 5028   0.603   0.352   4.321  1.2067 -2.0595  0.8403
 1674TIP3    H2 5029   0.510   0.237   4.356 -0.7586 -0.8263 -0.1699
 1675TIP3   OH2 5030   3.986   4.213   1.042  0.3221 -0.2474  0.0688
 1675TIP3    H1 5031   4.010   4.142   0.983 -0.0483  0.3300 -0.8114
 1675TIP3    H2 5032   3.902   4.186   1.080  0.0953 -0.2179 -0.3957
 1676TIP3   OH2 5033   1.162   4.079   4.446  0.0546 -0.1983  0.0765
 1676TIP3    H1 5034   1.077   4.101   4.482 -0.4877 -1.5127 -0.3287
 1676TIP3    H2 5035   1.210   4.039   4.519  0.5497  1.0434  0.4541
 1677TIP3   OH2 5036   2.370   1.756   4.523 -0.2002 -0.5873 -0.2167
 1677TIP3    H1 5037   2.290   1.732   4.476  0.2477  0.0162 -1.3352
 1677TIP3    H2 5038   2.388   1.846   4.495  0.4501 -0.4453  0.6156
 1678TIP3   OH2 5039   5.562   5.010   1.933 -0.1573 -0.0808  0.0697
 1678TIP3    H1 5040   5.584   5.028   2.024  0.0255 -0.3584  0.0811
 1678TIP3    H2 5041   5.639   4.964   1.899 -0.1784  0.1183 -0.2535
 1679TIP3   OH2 5042   3.670   3.820   1.076 -0.2948 -0.0179  0.2655
 1679TIP3    H1 5043   3.586   3.821   1.123 -0.4843 -0.7922 -0.0595
 1679TIP3    H2 5044   3.647   3.841   0.986  0.0533  1.3032  0.4559
 1680TIP3   OH2 5045   1.691   1.272   3.748  0.6769  0.3898 -0.0170
 1680TIP3    H1 5046   1.655   1.183   3.742  1.0798  0.2720 -0.9177
 1680TIP3    H2 5047   1.623   1.322   3.792  0.8911 -0.5960  1.4894
 1681TIP3   OH2 5048   2.600   1.894   4.827  0.2133 -0.2769  0.1780
 1681TIP3    H1 5049   2.624   1.900   4.919  0.6578 -1.7724  0.1933
 1681TIP3    H2 5050   2.681   1.870   4.782 -0.1427 -0.2322 -0.5027
 1682TIP3   OH2 5051   6.001   0.225   3.345 -0.7387  0.6656  0.1788
 1682TIP3    H1 5052   6.040   0.152   3.298 -1.4580 -0.0805  0.7056
 1682TIP3    H2 5053   5.965   0.281   3.276 -0.2864  0.4594 -0.2287
 1683TIP3   OH2 5054   1.703   1.479   0.316  0.0667  0.1822  0.3615
 1683TIP3    H1 5055   1.635   1.525   0.268  1.1936  2.6110  0.9467
 1683TIP3    H2 5056   1.659   1.446   0.394 -0.3321  2.5369  1.2128
 1684TIP3   OH2 5057   5.262   4.273   0.380  0.5398  0.6314 -0.0192
 1684TIP3    H1 5058   5.286   4.208   0.446  0.1857 -0.7181 -1.1974
 1684TIP3    H2 5059   5.297   4.240   0.298 -0.5795  1.3835 -0.8316
 1685TIP3   OH2 5060   3.401   1.853   0.787 -0.1119  0.1499  0.3258
 1685TIP3    H1 5061   3.423   1.804   0.709  1.0381 -0.7858  1.2067
 1685TIP3    H2 5062   3.305   1.851   0.791 -0.1598 -0.0809 -0.8495
 1686TIP3   OH2 5063   2.930   3.239   3.363  0.6546  0.1822 -0.2557
 1686TIP3    H1 5064   2.886   3.227   3.448  2.0713 -0.5696  0.4124
 1686TIP3    H2 5065   2.885   3.179   3.304 -0.0484  0.3697  0.0801
 1687TIP3   OH2 5066   5.661   1.133   2.514  0.1597  0.2682  0.1694
 1687TIP3    H1 5067   5.731   1.074   2.489  0.4679 -0.2746  2.1395
 1687TIP3    H2 5068   5.666   1.138   2.609  0.6055  4.0554  0.1197
 1688TIP3   OH2 5069   0.314   5.730   1.621 -0.8753 -0.5534 -0.1247
 1688TIP3    H1 5070   0.236   5.757   1.670 -0.2491 -0.5261  0.8947
 1688TIP3    H2 5071   0.384   5.786   1.655  0.1583 -2.4045  1.0072
 1689TIP3   OH2 5072   0.546   4.686   4.199 -0.6623 -0.1353 -0.3681
 1689TIP3    H1 5073   0.482   4.688   4.271  0.2640  0.8427  0.4701
 1689TIP3    H2 5074   0.526   4.605   4.152 -1.0196 -1.0567  1.2604
 1690TIP3   OH2 5075   0.518   4.053   1.781  0.9764  0.0176 -0.6522
 1690TIP3    H1 5076   0.543   3.982   1.841  1.0553  0.2186 -0.4485
 1690TIP3    H2 5077   0.422   4.049   1.778  0.9463  0.2978 -0.1565
 1691TIP3   OH2 5078   0.018   4.993   0.639  0.5599 -0.3808  0.8257
 1691TIP3    H1 5079   0.002   4.941   0.560  0.4532 -0.7345  1.0786
 1691TIP3    H2 5080   0.088   5.053   0.614  0.9741 -0.9290  0.6622
 1692TIP3   OH2 5081   0.560   1.532   3.551  0.2605 -0.1673  0.0207
 1692TIP3    H1 5082   0.633   1.575   3.507 -0.1287  0.7460  0.2589
 1692TIP3    H2 5083   0.576   1.545   3.644 -0.5037  0.5508  0.0622
 1693TIP3   OH2 5084   3.535   0.625   1.899  0.0034 -0.0326 -0.1752
 1693TIP3    H1 5085   3.463   0.587   1.849 -0.0135 -1.1071  0.6258
 1693TIP3    H2 5086   3.492   0.665   1.975 -0.2083  3.4211 -1.9128
 1694TIP3   OH2 5087   4.116   5.540   3.271  0.0476  0.3360 -0.0877
 1694TIP3    H1 5088   4.128   5.628   3.305  1.9990  0.6740 -1.4542
 1694TIP3    H2 5089   4.030   5.541   3.229  0.5350  1.9838 -1.1209
 1695TIP3   OH2 5090   0.084   2.395   1.133  0.9580  0.1716 -0.4412
 1695TIP3    H1 5091   0.057   2.341   1.059 -0.4175 -1.2571  1.0365
 1695TIP3    H2 5092   0.040   2.479   1.119 -2.5387 -1.2925  0.6170
 1696TIP3   OH2 5093   4.802   1.532   3.323 -0.1996 -0.4653  0.1880
 1696TIP3    H1 5094   4.781   1.595   3.391 -0.4592  1.1990 -1.3435
 1696TIP3    H2 5095   4.736   1.464   3.332  1.5879 -1.9971  3.5096
 1697TIP3   OH2 5096   3.897   2.866   0.134 -0.2933 -0.0870 -0.2290
 1697TIP3    H1 5097   3.843   2.912   0.070 -2.0634 -0.3572  1.0157
 1697TIP3    H2 5098   3.835   2.828   0.196  1.3411  2.0000  2.9630
 1698TIP3   OH2 5099   0.017   3.579   2.203  0.5708  0.1442  0.2495
 1698TIP3    H1 5100   0.076   3.655   2.211  1.9565 -1.0067  1.7239
 1698TIP3    H2 5101   0.061   3.521   2.142 -0.6556  0.6359 -1.1343
 1699TIP3   OH2 5102   3.190   2.558   2.236 -0.1904  0.5801 -0.0386
 1699TIP3    H1 5103   3.187   2.544   2.331  0.7935  1.8385  0.1965
 1699TIP3    H2 5104   3.103   2.592   2.215  0.5016  3.1709  0.9372
 1700TIP3   OH2 5105   2.996   4.627   2.121 -0.0012  0.0102  0.2078
 1700TIP3    H1 5106   2.936   4.562   2.084  0.2882  0.2747 -0.7554
 1700TIP3    H2 5107   3.067   4.633   2.057 -0.6462  2.2264 -0.3668
 1701TIP3   OH2 5108   6.093   5.235   2.131  0.3259 -0.5378  0.2182
 1701TIP3    H1 5109   6.117   5.296   2.062  2.8483 -3.3118 -1.5805
 1701TIP3    H2 5110   6.056   5.160   2.085 -0.4045 -1.4012  2.1217
 1702TIP3   OH2 5111   2.154   3.930   2.622  0.3821  0.9561  0.3261
 1702TIP3    H1 5112   2.067   3.963   2.597  0.0389 -0.8924 -1.1730
 1702TIP3    H2 5113   2.149   3.918   2.717 -1.5899 -0.5745  0.1031
 1703TIP3   OH2 5114   2.840   2.262   2.844  0.4319 -0.2125 -0.8378
 1703TIP3    H1 5115   2.914   2.235   2.789  0.7002 -0.5618 -0.3098
 1703TIP3    H2 5116   2.881   2.296   2.923  0.0147 -2.1461  0.2722
 1704TIP3   OH2 5117   2.841   5.242   1.991  0.0317 -0.4123 -0.2524
 1704TIP3    H1 5118   2.895   5.170   1.957  0.3457 -1.1885  1.7669
 1704TIP3    H2 5119   2.883   5.267   2.073 -1.9687 -0.1848  0.7600
 1705TIP3   OH2 5120   1.439   2.087   3.723  0.3060  0.0375  0.4183
 1705TIP3    H1 5121   1.433   1.992   3.717  2.2398 -0.4056  3.1333
 1705TIP3    H2 5122   1.531   2.106   3.704 -0.0128  1.3531  0.0878
 1706TIP3   OH2 5123   6.263   0.613   1.555 -0.0384  0.1727 -0.0858
 1706TIP3    H1 5124   6.288   0.527   1.590  1.0708  1.4699  2.7085
 1706TIP3    H2 5125   6.195   0.644   1.615 -0.2281  1.3646 -0.8870
 1707TIP3   OH2 5126   4.079   3.613   2.309  0.7819  0.3022 -0.4908
 1707TIP3    H1 5127   4.002   3.562   2.334 -0.4950  1.3004 -2.1528
 1707TIP3    H2 5128   4.117   3.565   2.236  0.2185  1.1072 -1.3380
 1708TIP3   OH2 5129   0.840   3.139   2.612 -0.0899  0.3155 -0.1316
 1708TIP3    H1 5130   0.804   3.080   2.545  1.5528 -0.3056 -0.5019
 1708TIP3    H2 5131   0.881   3.210   2.562 -3.4636  2.8449  0.2812
 1709TIP3   OH2 5132   1.577   4.336   0.691  0.2012 -0.2189  0.2061
 1709TIP3    H1 5133   1.582   4.343   0.786 -2.0453 -1.1044  0.4382
 1709TIP3    H2 5134   1.526   4.257   0.675 -1.6145  1.2365 -1.6758
 1710TIP3   OH2 5135   3.742   5.732   1.414  0.4349  0.0254  0.0266
 1710TIP3    H1 5136   3.681   5.683   1.360 -0.7958 -0.4886  1.7903
 1710TIP3    H2 5137   3.700   5.816   1.429  0.7538  0.1624  0.1679
 1711TIP3   OH2 5138   3.475   3.524   0.114 -0.0527 -0.0848 -0.0998
 1711TIP3    H1 5139   3.404   3.568   0.067 -1.0585 -1.4221  0.1231
 1711TIP3    H2 5140   3.497   3.584   0.186 -0.9349  0.3657 -0.1957
 1712TIP3   OH2 5141   1.931   0.918   2.105 -0.0247 -0.1028  0.4451
 1712TIP3    H1 5142   1.879   0.998   2.106  0.3273  0.1574 -0.8895
 1712TIP3    H2 5143   2.018   0.945   2.133  0.0120 -0.0697  0.3019
 1713TIP3   OH2 5144   1.357   2.909   2.505 -0.1696 -0.0231  0.2530
 1713TIP3    H1 5145   1.294   2.980   2.518 -1.8871 -0.9969 -2.1423
 1713TIP3    H2 5146   1.347   2.854   2.582 -0.4506  1.0988  1.0524
 1714TIP3   OH2 5147   5.558   3.412   4.587  0.6831  0.2862 -0.2606
 1714TIP3    H1 5148   5.638   3.461   4.606 -0.1138  1.2980  0.6292
 1714TIP3    H2 5149   5.494   3.479   4.563 -0.7477 -0.1387  2.0390
 1715TIP3   OH2 5150   6.090   4.811   4.882 -0.2857 -0.5804 -0.3341
 1715TIP3    H1 5151   6.099   4.859   4.799 -0.7498 -0.9354 -0.5968
 1715TIP3    H2 5152   6.007   4.765   4.873  0.9983 -2.9502 -0.8626
 1716TIP3   OH2 5153   6.065   5.605   0.096  0.0219  0.2742  0.2985
 1716TIP3    H1 5154   6.102   5.525   0.133 -1.4268 -0.8650 -0.6267
 1716TIP3    H2 5155   6.086   5.601   0.003 -0.0539  0.9942  0.2413
 1717TIP3   OH2 5156   4.620   4.786   4.073  0.2913  0.4299  0.5498
 1717TIP3    H1 5157   4.660   4.793   3.987  2.1231  1.3486  1.4126
 1717TIP3    H2 5158   4.572   4.868   4.084 -1.6269 -0.5202 -0.3404
 1718TIP3   OH2 5159   2.193   5.231   0.671  0.1870 -0.9480  0.3492
 1718TIP3    H1 5160   2.279   5.195   0.694 -0.5032 -3.3490 -0.5279
 1718TIP3    H2 5161   2.130   5.176   0.718 -0.8941  0.5657  0.7205
 1719TIP3   OH2 5162   0.500   4.211   4.233  0.0818  0.3319 -0.2223
 1719TIP3    H1 5163   0.475   4.125   4.266  0.5745 -0.3098 -1.4591
 1719TIP3    H2 5164   0.444   4.273   4.280  1.2305 -0.4397  2.3001
 1720TIP3   OH2 5165   6.051   3.095   3.897 -0.2775  0.5517  0.4238
 1720TIP3    H1 5166   6.044   3.000   3.883 -0.5507  0.7424 -0.7880
 1720TIP3    H2 5167   5.989   3.133   3.836  0.9457  1.6042 -0.2043
 1721TIP3   OH2 5168   2.375   2.919   2.429 -0.1120  0.4586  0.1501
 1721TIP3    H1 5169   2.445   2.862   2.395  2.2768  3.3267 -0.1216
 1721TIP3    H2 5170   2.305   2.913   2.364  0.4083 -1.3868 -0.3200
 1722TIP3   OH2 5171   0.754   2.599   4.373 -0.3551  0.1182  0.0644
 1722TIP3    H1 5172   0.749   2.600   4.277  1.5220  1.9213 -0.0993
 1722TIP3    H2 5173   0.820   2.666   4.394  0.0753 -0.9835  2.5799
 1723TIP3   OH2 5174   2.015   2.417   1.647  0.2910  0.2784 -0.0183
 1723TIP3    H1 5175   2.078   2.362   1.599  0.4107  2.1087 -2.1398
 1723TIP3    H2 5176   1.937   2.416   1.592  0.0057  1.4907  0.3495
 1724TIP3   OH2 5177   5.513   0.910   1.410  0.6136 -0.2723  0.3570
 1724TIP3    H1 5178   5.478   0.924   1.322  0.1452 -0.3921  0.5183
 1724TIP3    H2 5179   5.588   0.969   1.417 -0.3146  0.9390  0.4435
 1725TIP3   OH2 5180   5.902   3.986   2.978  0.1901 -0.2788 -0.5059
 1725TIP3    H1 5181   5.893   3.943   2.893  0.8956  1.0683 -1.2942
 1725TIP3    H2 5182   5.887   4.079   2.960  0.9278  0.1074  0.7278
 1726TIP3   OH2 5183   3.626   3.358   4.571  0.3948 -0.1513  0.9207
 1726TIP3    H1 5184   3.603   3.409   4.649 -0.8965  3.1442 -1.3510
 1726TIP3    H2 5185   3.546   3.310   4.550  0.1762  0.2843  0.7369
 1727TIP3   OH2 5186   3.398   5.597   3.415 -0.4009  0.2161 -0.1377
 1727TIP3    H1 5187   3.385   5.633   3.327  1.3736  0.2830 -0.4040
 1727TIP3    H2 5188   3.348   5.656   3.472 -1.5235  0.2134 -1.0621
 1728TIP3   OH2 5189   2.786   2.970   2.599  0.0780 -0.0298 -0.0891
 1728TIP3    H1 5190   2.719   3.031   2.569  1.0741  1.1306 -0.0644
 1728TIP3    H2 5191   2.793   2.987   2.693 -0.5379 -1.1187  0.1653
 1729TIP3   OH2 5192   4.416   1.843   0.585 -0.1322  0.1372 -0.1737
 1729TIP3    H1 5193   4.399   1.750   0.600  0.5258  0.1617  0.9095
 1729TIP3    H2 5194   4.505   1.856   0.619 -0.7597  1.4493  1.0587
 1730TIP3   OH2 5195   1.425   3.231   0.068 -0.5611 -0.3687  0.3373
 1730TIP3    H1 5196   1.508   3.278   0.056 -0.7418  0.1875  1.1525
 1730TIP3    H2 5197   1.452   3.141   0.087 -0.2037 -0.5620 -0.9977
 1731TIP3   OH2 5198   5.926   2.844   3.922 -0.3497 -0.4135  0.1974
 1731TIP3    H1 5199   5.850   2.802   3.962 -0.1134 -2.3862 -1.3006
 1731TIP3    H2 5200   5.936   2.800   3.838  2.2108  0.0973  0.1741
 1732TIP3   OH2 5201   3.885   2.102   0.555  0.4610  0.4099  0.1923
 1732TIP3    H1 5202   3.813   2.069   0.501  0.0918 -0.5198  1.2101
 1732TIP3    H2 5203   3.877   2.197   0.550 -0.4352  0.3232 -0.2477
 1733TIP3   OH2 5204   2.170   4.719   4.748 -0.3544  0.1287 -0.2199
 1733TIP3    H1 5205   2.151   4.812   4.737 -0.2972  0.0802 -0.7756
 1733TIP3    H2 5206   2.233   4.699   4.679 -0.4933 -0.3610 -0.2101
 1734TIP3   OH2 5207   1.591   4.860   1.517  0.0611 -0.3124 -0.3388
 1734TIP3    H1 5208   1.613   4.909   1.596  1.3434 -0.2487 -0.7122
 1734TIP3    H2 5209   1.530   4.792   1.547  0.3130 -0.1168  0.6487
 1735TIP3   OH2 5210   4.552   2.392   3.758  0.5125 -0.2918  0.1884
 1735TIP3    H1 5211   4.519   2.474   3.794 -0.8791 -1.0814  0.7805
 1735TIP3    H2 5212   4.514   2.324   3.814  2.8661 -1.3064  0.7107
 1736TIP3   OH2 5213   4.574   0.476   2.003 -0.5313  0.6040  0.6940
 1736TIP3    H1 5214   4.601   0.391   2.038  0.2983  0.9689  0.9748
 1736TIP3    H2 5215   4.491   0.458   1.958  0.4665 -0.7124 -0.7638
 1737TIP3   OH2 5216   6.034   2.789   3.666  0.2277 -0.6524 -0.5077
 1737TIP3    H1 5217   6.100   2.821   3.605  1.2320 -0.3408  0.6964
 1737TIP3    H2 5218   6.057   2.697   3.680 -0.1564 -0.7924 -0.8050
 1738TIP3   OH2 5219   6.008   5.064   4.537  0.2057 -0.6336  0.1034
 1738TIP3    H1 5220   6.076   5.017   4.489  0.4004  0.1936 -0.4686
 1738TIP3    H2 5221   5.928   5.046   4.489 -0.0374 -1.8083  0.9206
 1739TIP3   OH2 5222   4.923   1.441   3.855 -0.8237  0.1383  0.2775
 1739TIP3    H1 5223   4.991   1.386   3.893  0.4388  1.0598 -0.5343
 1739TIP3    H2 5224   4.898   1.501   3.926 -0.0776  0.4120  0.3267
 1740TIP3   OH2 5225   0.641   5.701   0.196  0.2891 -0.1610  0.3556
 1740TIP3    H1 5226   0.582   5.665   0.129  2.0326  0.6404 -1.7629
 1740TIP3    H2 5227   0.592   5.694   0.278 -2.2026 -0.7083 -1.0637
 1741TIP3   OH2 5228   6.264   5.931   5.130  0.2138  0.1639  0.0922
 1741TIP3    H1 5229   6.344   5.896   5.170 -0.4073 -2.0431 -0.4817
 1741TIP3    H2 5230   6.194   5.899   5.187 -0.3316  1.8960  0.4608
 1742TIP3   OH2 5231   2.861   2.137   1.158 -0.2050 -0.1804  0.6340
 1742TIP3    H1 5232   2.854   2.044   1.136 -0.5958 -0.3517  1.4421
 1742TIP3    H2 5233   2.953   2.159   1.140 -0.3431 -0.4697 -0.4835
 1743TIP3   OH2 5234   0.589   4.944   3.924 -0.2145 -0.2571  0.7051
 1743TIP3    H1 5235   0.682   4.962   3.905 -0.0552  0.3913  1.9592
 1743TIP3    H2 5236   0.571   4.995   4.003 -2.3080  1.5627 -0.8231
 1744TIP3   OH2 5237   6.138   1.460   2.252  0.1927 -0.1688 -0.0294
 1744TIP3    H1 5238   6.206   1.507   2.204  1.1566 -1.2634  0.2271
 1744TIP3    H2 5239   6.117   1.386   2.196  0.4985 -0.8181  0.7049
 1745TIP3   OH2 5240   5.504   1.724   0.360 -0.0099  0.4189  0.1240
 1745TIP3    H1 5241   5.537   1.814   0.367  0.7572  0.2367 -0.8424
 1745TIP3    H2 5242   5.422   1.732   0.312 -0.6525  0.7381  1.2646
 1746TIP3   OH2 5243   0.218   4.221   1.278 -0.3091  0.0470 -0.1834
 1746TIP3    H1 5244   0.202   4.252   1.367 -0.8124 -0.2402 -0.1685
 1746TIP3    H2 5245   0.285   4.281   1.244  1.1318 -0.8469  0.9471
 1747TIP3   OH2 5246   5.531   0.128   4.017 -0.4164  0.4962  0.1206
 1747TIP3    H1 5247   5.616   0.125   3.973 -0.6374  1.6266 -0.4227
 1747TIP3    H2 5248   5.537   0.202   4.076 -1.1759  0.8905 -0.2755
 1748TIP3   OH2 5249   5.469   4.111   4.143 -0.0794 -0.2807 -0.0045
 1748TIP3    H1 5250   5.479   4.032   4.090 -0.6735  0.7265 -1.7031
 1748TIP3    H2 5251   5.554   4.121   4.187  0.2028 -1.5282 -0.2411
 1749TIP3   OH2 5252   0.619   3.431   1.282  0.5441 -0.0342  0.4538
 1749TIP3    H1 5253   0.647   3.514   1.243 -2.0133 -0.0185 -1.7012
 1749TIP3    H2 5254   0.538   3.453   1.328 -1.5178 -1.5892 -2.1552
 1750TIP3   OH2 5255   5.280   4.979   3.947 -0.3637  0.0803 -0.1896
 1750TIP3    H1 5256   5.285   5.042   4.018 -0.8432  0.6883 -0.6835
 1750TIP3    H2 5257   5.370   4.948   3.936 -0.6336 -1.8433  2.2561
 1751TIP3   OH2 5258   5.180   2.592   0.649 -0.3108 -0.7213 -0.5966
 1751TIP3    H1 5259   5.241   2.628   0.585  0.1205 -0.1358  0.1190
 1751TIP3    H2 5260   5.205   2.634   0.732  0.0800 -2.5153  0.2418
 1752TIP3   OH2 5261   2.819   2.702   1.474 -0.6041 -0.3405  0.0597
 1752TIP3    H1 5262   2.739   2.667   1.513 -1.1135  1.2088  0.4706
 1752TIP3    H2 5263   2.885   2.694   1.544 -0.5401 -1.0374 -0.0688
 1753TIP3   OH2 5264   2.389   3.767   3.064 -0.0005 -0.1168  0.1237
 1753TIP3    H1 5265   2.407   3.703   2.995  0.2160 -0.4158  0.4566
 1753TIP3    H2 5266   2.399   3.718   3.146  0.0641  0.3149  0.3780
 1754TIP3   OH2 5267   4.153   1.206   3.049  0.5960  0.4291 -0.1715
 1754TIP3    H1 5268   4.220   1.177   2.988  0.9508 -0.5668  0.6674
 1754TIP3    H2 5269   4.119   1.126   3.088 -0.1317  1.0014  0.4103
 1755TIP3   OH2 5270   1.276   2.475   1.249  0.3577  0.5195 -0.1585
 1755TIP3    H1 5271   1.213   2.419   1.295 -2.1918  1.9638 -1.6370
 1755TIP3    H2 5272   1.280   2.554   1.302  0.6958  0.5635 -0.2513
 1756TIP3   OH2 5273   4.256   0.104   3.524  0.1558  0.2110 -0.0507
 1756TIP3    H1 5274   4.297   0.024   3.559 -1.5161 -0.6789 -0.0269
 1756TIP3    H2 5275   4.297   0.175   3.574  1.5852 -0.6204  0.0334
 1757TIP3   OH2 5276   2.281   5.125   2.142 -0.0689 -0.5864 -0.4688
 1757TIP3    H1 5277   2.354   5.139   2.203  0.5544  0.4014 -1.3928
 1757TIP3    H2 5278   2.231   5.053   2.180  0.3119 -0.0154  1.1780
 1758TIP3   OH2 5279   3.474   3.626   0.783 -0.8343 -0.1496 -0.3285
 1758TIP3    H1 5280   3.422   3.554   0.747 -1.7419 -0.2873  1.1301
 1758TIP3    H2 5281   3.552   3.584   0.819 -1.2982 -0.4075  0.3983
 1759TIP3   OH2 5282   4.094   4.260   4.008  0.3822 -0.2977 -0.3159
 1759TIP3    H1 5283   4.041   4.281   3.932 -0.6711  0.4583  0.6088
 1759TIP3    H2 5284   4.037   4.274   4.083  1.2203 -1.5533  0.6152
 1760TIP3   OH2 5285   3.433   4.266   0.869  0.2157  0.4154  0.0715
 1760TIP3    H1 5286   3.519   4.226   0.857  0.4076  1.0931 -0.9135
 1760TIP3    H2 5287   3.372   4.193   0.860  0.6476  0.0531  0.0333
 1761TIP3   OH2 5288   4.467   5.532   0.702 -0.1834 -0.1788  0.0900
 1761TIP3    H1 5289   4.451   5.438   0.696 -3.2452  0.2143  0.7332
 1761TIP3    H2 5290   4.500   5.546   0.791  0.4128 -0.6327 -0.0553
 1762TIP3   OH2 5291   0.310   4.062   2.714  0.4530  0.1590  0.5475
 1762TIP3    H1 5292   0.385   4.022   2.759  0.0568 -0.1291  0.9577
 1762TIP3    H2 5293   0.261   4.105   2.783  0.1724  0.2465  0.2960
 1763TIP3   OH2 5294   0.498   5.740   4.532  0.3678 -0.1386 -0.5866
 1763TIP3    H1 5295   0.440   5.726   4.607  0.1073 -0.7080 -0.8885
 1763TIP3    H2 5296   0.486   5.833   4.510 -0.4616 -0.2590 -0.6715
 1764TIP3   OH2 5297   2.263   2.827   5.126 -0.0030 -0.2697  0.1851
 1764TIP3    H1 5298   2.262   2.922   5.140 -1.8682 -0.2047 -0.1226
 1764TIP3    H2 5299   2.282   2.817   5.032 -2.0510 -0.0484 -0.3106
 1765TIP3   OH2 5300   5.634   5.993   1.625 -0.3137  0.2391 -0.0373
 1765TIP3    H1 5301   5.681   5.911   1.615 -1.5751 -0.4456 -0.6306
 1765TIP3    H2 5302   5.581   5.981   1.704 -0.5645  0.4449 -0.1719
 1766TIP3   OH2 5303   0.073   0.136   3.279 -0.1144  0.3598 -0.4591
 1766TIP3    H1 5304   0.102   0.177   3.361 -1.2331  0.6325 -0.1851
 1766TIP3    H2 5305   0.141   0.158   3.216  0.4638  0.6605  0.2487
 1767TIP3   OH2 5306   2.280   0.171   1.934 -0.0659  0.3937 -0.3189
 1767TIP3    H1 5307   2.346   0.145   1.997  0.5037  0.6450 -0.8020
 1767TIP3    H2 5308   2.200   0.182   1.985 -0.8106 -3.7692 -0.2293
 1768TIP3   OH2 5309   0.920   4.162   1.258  0.2405  0.4354  0.3079
 1768TIP3    H1 5310   0.908   4.180   1.352 -1.5369  0.8532  0.0419
 1768TIP3    H2 5311   0.949   4.071   1.255 -1.3357 -0.1543  1.2435
 1769TIP3   OH2 5312   0.695   3.584   1.833  0.0940  0.9931  0.1616
 1769TIP3    H1 5313   0.707   3.558   1.924 -0.3247  1.3752  0.3321
 1769TIP3    H2 5314   0.781   3.613   1.804  0.3873  0.2143  0.2157
 1770TIP3   OH2 5315  -0.011   2.944   3.644  0.2511  0.7154 -0.2334
 1770TIP3    H1 5316   0.060   2.995   3.682  0.0791 -0.1134  1.2528
 1770TIP3    H2 5317  -0.038   2.883   3.713 -1.4724  0.5612 -0.9790
 1771TIP3   OH2 5318   4.452   0.474   1.426 -0.2159 -0.0613  0.0946
 1771TIP3    H1 5319   4.389   0.499   1.358  0.9366  0.9229 -0.6504
 1771TIP3    H2 5320   4.459   0.551   1.482  3.3338  1.6022 -2.2033
 1772TIP3   OH2 5321   1.251   0.235   1.577  0.0716  0.0472  0.1286
 1772TIP3    H1 5322   1.291   0.159   1.620  0.7843  1.3449  1.8959
 1772TIP3    H2 5323   1.325   0.285   1.544 -0.3373  0.4436 -0.1966
 1773TIP3   OH2 5324   3.751   4.810   4.148 -0.1441  0.4971  0.1266
 1773TIP3    H1 5325   3.767   4.775   4.235  1.8740  1.5526  0.2300
 1773TIP3    H2 5326   3.732   4.903   4.163 -1.2159  0.3987 -0.4778
 1774TIP3   OH2 5327   6.266   4.891   1.051  0.0197 -0.4020  0.3938
 1774TIP3    H1 5328   6.341   4.879   0.993  0.2006 -0.4554  0.6368
 1774TIP3    H2 5329   6.191   4.899   0.992 -0.0753 -2.3658  0.1917
 1775TIP3   OH2 5330   2.293   3.242   2.759  0.2005  0.4787 -0.1343
 1775TIP3    H1 5331   2.266   3.192   2.681 -3.3573  0.7088  0.8091
 1775TIP3    H2 5332   2.217   3.294   2.782  1.3507  0.9213  3.1737
 1776TIP3   OH2 5333   1.927   3.431   4.382 -0.2033  0.3167  0.0662
 1776TIP3    H1 5334   1.847   3.467   4.345  0.1200 -0.6173 -1.6169
 1776TIP3    H2 5335   1.994   3.496   4.361  0.0592 -0.4014 -1.4570
 1777TIP3   OH2 5336   1.225   0.026   1.827  0.2172 -0.0832  0.6576
 1777TIP3    H1 5337   1.169   0.103   1.830 -1.0589 -0.9558 -0.0637
 1777TIP3    H2 5338   1.197  -0.028   1.901 -1.0021 -1.2157 -0.5541
 1778TIP3   OH2 5339   5.181   1.420   0.283  0.2309  0.6064 -0.6783
 1778TIP3    H1 5340   5.179   1.513   0.306  0.5295  0.3831  0.2726
 1778TIP3    H2 5341   5.126   1.414   0.205 -1.4899  1.2587  0.4367
 1779TIP3   OH2 5342   2.587   0.325   4.592 -0.5844 -0.2014 -0.2128
 1779TIP3    H1 5343   2.573   0.313   4.686 -1.2185 -0.5831 -0.3502
 1779TIP3    H2 5344   2.623   0.413   4.585  4.2422 -1.7800  0.8372
 1780TIP3   OH2 5345   4.153   3.790   0.893 -0.0869  0.0357  0.2106
 1780TIP3    H1 5346   4.171   3.714   0.838  0.0796  0.6604 -0.6307
 1780TIP3    H2 5347   4.231   3.800   0.947 -0.1692 -0.4753  0.4233
 1781TIP3   OH2 5348   3.674   5.624   2.857 -0.2920 -0.1026 -0.0298
 1781TIP3    H1 5349   3.665   5.697   2.796 -1.7658 -1.8977 -2.1257
 1781TIP3    H2 5350   3.749   5.574   2.824 -0.8677 -0.8803 -0.2010
 1782TIP3   OH2 5351   6.345   2.556   1.381 -0.3268  0.6938 -0.2559
 1782TIP3    H1 5352   6.372   2.482   1.435  0.7771  1.9354  0.9930
 1782TIP3    H2 5353   6.250   2.546   1.372 -0.7654  1.0301  2.9629
 1783TIP3   OH2 5354   3.817   4.304   4.049  0.7413 -0.7050  0.2074
 1783TIP3    H1 5355   3.757   4.375   4.072  2.0537  0.2487  0.7928
 1783TIP3    H2 5356   3.794   4.234   4.110 -0.6878 -0.8881 -0.5001
 1784TIP3   OH2 5357   3.715   3.539   0.915 -0.1960 -0.0361 -0.0855
 1784TIP3    H1 5358   3.739   3.466   0.972  1.9270  0.7288  0.1309
 1784TIP3    H2 5359   3.709   3.614   0.975  0.2457  0.4323 -0.6180
 1785TIP3   OH2 5360   4.364   2.436   4.693  0.3308  0.5838 -0.1407
 1785TIP3    H1 5361   4.358   2.359   4.636 -0.4809 -0.1196  0.8594
 1785TIP3    H2 5362   4.321   2.409   4.774 -0.2503  2.2104  0.1272
 1786TIP3   OH2 5363   5.723   1.354   3.705  0.1670  0.7519 -1.0374
 1786TIP3    H1 5364   5.643   1.395   3.738 -0.5260 -1.3576  0.0959
 1786TIP3    H2 5365   5.789   1.423   3.709 -0.9403  1.7912  0.6566
 1787TIP3   OH2 5366   5.912   5.329   2.997 -0.5890 -0.1177 -0.3736
 1787TIP3    H1 5367   5.927   5.316   2.904 -2.1184 -0.7398 -0.5607
 1787TIP3    H2 5368   5.828   5.375   3.002 -0.8666 -0.7049  0.7213
 1788TIP3   OH2 5369   0.803   3.777   4.060 -0.0350 -0.0719  0.0134
 1788TIP3    H1 5370   0.769   3.688   4.053  1.0118 -0.3755 -2.1521
 1788TIP3    H2 5371   0.725   3.833   4.062 -0.6890 -0.9820  0.8788
 1789TIP3   OH2 5372   5.449   2.674   4.135  0.2494  0.2340 -0.4015
 1789TIP3    H1 5373   5.472   2.724   4.057 -1.3282  1.3222 -0.2018
 1789TIP3    H2 5374   5.383   2.726   4.179  0.2552 -0.9244  1.0683
 1790TIP3   OH2 5375   4.569   4.977   1.586  0.3228 -0.4068 -0.0150
 1790TIP3    H1 5376   4.536   5.056   1.629 -0.8417 -0.5471 -0.6095
 1790TIP3    H2 5377   4.594   5.006   1.498  0.8941 -0.4975  0.1134
 1791TIP3   OH2 5378   0.092   4.720   2.021  0.2853 -0.4864  0.0005
 1791TIP3    H1 5379   0.026   4.744   2.087  1.6613 -2.1001  2.1098
 1791TIP3    H2 5380   0.070   4.630   1.998  1.1921 -0.7155  0.0190
 1792TIP3   OH2 5381   2.318   1.441   2.375 -0.1741 -0.3920  0.0078
 1792TIP3    H1 5382   2.226   1.466   2.360 -0.2986 -0.3067  0.8595
 1792TIP3    H2 5383   2.315   1.348   2.396 -0.2312 -0.0975  1.3811
 1793TIP3   OH2 5384   1.369   0.645   3.062  0.1585  0.1551 -0.1706
 1793TIP3    H1 5385   1.400   0.555   3.071 -0.7753  0.0015  2.3520
 1793TIP3    H2 5386   1.401   0.673   2.976  1.7422 -2.0633 -0.3936
 1794TIP3   OH2 5387   4.901   1.854   3.569  0.3017  0.0296  0.2060
 1794TIP3    H1 5388   4.912   1.860   3.475  3.0295  2.1945  0.5494
 1794TIP3    H2 5389   4.956   1.780   3.595 -1.1450 -1.1425  0.0926
 1795TIP3   OH2 5390   0.112   1.074   0.210  0.5288 -0.1318 -0.8615
 1795TIP3    H1 5391   0.129   1.062   0.303 -0.1682 -1.9787 -0.9407
 1795TIP3    H2 5392   0.198   1.089   0.172  0.6832  2.5566  0.2586
 1796TIP3   OH2 5393   3.352   1.334   3.402 -0.1049 -0.1238  0.3591
 1796TIP3    H1 5394   3.428   1.359   3.348  1.2539  1.2763  2.7401
 1796TIP3    H2 5395   3.277   1.346   3.344  1.1293  2.6679 -0.8848
 1797TIP3   OH2 5396   3.628   3.855   3.088 -0.1015 -0.1719 -0.2730
 1797TIP3    H1 5397   3.626   3.767   3.127  2.0334 -0.5718 -0.9326
 1797TIP3    H2 5398   3.685   3.846   3.012 -1.1330  1.4579 -1.2863
 1798TIP3   OH2 5399   0.251   1.691   3.631 -0.3647 -0.2862  0.3616
 1798TIP3    H1 5400   0.272   1.726   3.544 -2.5430 -2.2681 -1.1034
 1798TIP3    H2 5401   0.159   1.716   3.645 -0.2947 -0.7125  1.7295
 1799TIP3   OH2 5402   2.738   1.942   4.488 -0.1468 -0.9496 -0.0719
 1799TIP3    H1 5403   2.645   1.940   4.510  0.0620  2.9888  1.9634
 1799TIP3    H2 5404   2.744   2.000   4.413  0.6848 -1.5681 -0.5026
 1800TIP3   OH2 5405   2.015   4.565   1.075 -0.1676 -0.4829 -0.0123
 1800TIP3    H1 5406   1.936   4.518   1.050 -0.8026  0.3860  0.2843
 1800TIP3    H2 5407   1.983   4.641   1.125  0.7715  0.5207 -0.8636
 1801TIP3   OH2 5408   6.113   4.025   4.250  0.1620 -0.8014  0.2546
 1801TIP3    H1 5409   6.060   3.958   4.294 -0.1417  0.2125  1.4818
 1801TIP3    H2 5410   6.203   3.996   4.262  0.0719 -0.6095  1.4568
 1802TIP3   OH2 5411   4.149   5.213   3.735 -0.0158  0.4721  0.2292
 1802TIP3    H1 5412   4.118   5.276   3.669  0.0950 -0.8805 -1.1639
 1802TIP3    H2 5413   4.238   5.192   3.708 -0.0690 -0.3190  0.6531
 1803TIP3   OH2 5414   0.267   5.330   0.745  0.2849 -0.5663  0.3611
 1803TIP3    H1 5415   0.341   5.269   0.751 -1.7564 -3.3734 -0.7883
 1803TIP3    H2 5416   0.215   5.297   0.672 -1.6647  1.8379  0.5380
 1804TIP3   OH2 5417   3.987   0.343   4.650  0.3348  0.2742  0.1504
 1804TIP3    H1 5418   3.986   0.247   4.655  1.0095  0.2837  0.6927
 1804TIP3    H2 5419   4.031   0.370   4.731  0.1473  1.0428 -0.0029
 1805TIP3   OH2 5420   0.727   1.382   1.949  0.1248  0.1291  0.2333
 1805TIP3    H1 5421   0.688   1.470   1.955 -1.5527 -0.6718  2.6458
 1805TIP3    H2 5422   0.804   1.387   2.007 -0.7904 -0.3272  1.5342
 1806TIP3   OH2 5423   2.714   5.856   4.777 -0.0328  0.1596 -0.0090
 1806TIP3    H1 5424   2.700   5.762   4.790  0.7245 -0.4796 -3.0065
 1806TIP3    H2 5425   2.806   5.870   4.801 -0.3123  0.3091  1.0360
 1807TIP3   OH2 5426   3.596   4.322   2.143  0.3012 -0.4686  0.0260
 1807TIP3    H1 5427   3.562   4.368   2.219  1.2260  0.0916  0.1216
 1807TIP3    H2 5428   3.584   4.382   2.070 -1.0516 -1.2047 -0.3907
 1808TIP3   OH2 5429   3.058   0.881   3.105 -0.5632  0.2019 -0.2413
 1808TIP3    H1 5430   3.122   0.940   3.146  0.1706  0.3488 -1.5473
 1808TIP3    H2 5431   3.043   0.813   3.170  2.5645 -1.0300 -0.6567
 1809TIP3   OH2 5432   1.568   2.532   4.266  0.5987 -0.0003  0.1250
 1809TIP3    H1 5433   1.511   2.605   4.240  0.7093  0.1794  0.3910
 1809TIP3    H2 5434   1.646   2.542   4.211  0.3468 -0.2886 -0.2911
 1810TIP3   OH2 5435   1.558   3.657   1.943  0.7908 -0.2756 -0.3422
 1810TIP3    H1 5436   1.542   3.646   1.849  2.3025 -0.1000 -0.6388
 1810TIP3    H2 5437   1.472   3.647   1.983  0.2812 -1.4137 -1.6524
 1811TIP3   OH2 5438   1.438   0.926   0.096  0.4835 -0.4434  0.1109
 1811TIP3    H1 5439   1.474   1.000   0.144 -1.8586  0.7466  0.1727
 1811TIP3    H2 5440   1.478   0.931   0.009 -0.8030  1.9556 -0.4349
 1812TIP3   OH2 5441   2.978   3.515   1.299  0.1249 -0.1312 -0.2188
 1812TIP3    H1 5442   3.063   3.471   1.303 -0.2232 -0.7559  2.0096
 1812TIP3    H2 5443   2.926   3.472   1.367 -1.0773  2.0193  0.3066
 1813TIP3   OH2 5444   3.349   5.804   2.485 -0.1229  0.5684 -1.0798
 1813TIP3    H1 5445   3.313   5.778   2.570 -0.2337 -2.2655 -1.8846
 1813TIP3    H2 5446   3.425   5.858   2.507 -0.3749  0.2359  0.8103
 1814TIP3   OH2 5447   0.356   5.238   4.497  0.0240  0.2342 -0.5011
 1814TIP3    H1 5448   0.414   5.279   4.432 -0.7951 -0.4483 -1.6911
 1814TIP3    H2 5449   0.344   5.149   4.466  0.6462 -0.5226  1.3102
 1815TIP3   OH2 5450   6.019   0.055   4.171 -0.5367  0.0325 -0.1180
 1815TIP3    H1 5451   6.071   0.128   4.140  0.4364 -0.6882 -0.2219
 1815TIP3    H2 5452   6.008   0.071   4.265  1.1985 -0.5837  0.2193
 1816TIP3   OH2 5453   4.633   0.718   0.064  0.4159 -0.0326 -0.4251
 1816TIP3    H1 5454   4.582   0.668   0.127  0.3746 -0.1382 -0.5428
 1816TIP3    H2 5455   4.716   0.736   0.109  0.6630 -0.7215 -0.6028
 1817TIP3   OH2 5456   5.377   2.799   2.902  0.1960 -0.5448 -0.2510
 1817TIP3    H1 5457   5.384   2.713   2.943 -2.0083 -0.9671 -0.6711
 1817TIP3    H2 5458   5.283   2.813   2.890  0.5748  1.3312 -1.4408
 1818TIP3   OH2 5459   5.332   3.330   1.525  0.0820  0.1091 -0.5482
 1818TIP3    H1 5460   5.270   3.261   1.545  0.3458 -0.3459 -1.2527
 1818TIP3    H2 5461   5.375   3.301   1.444  0.6235  0.8032 -0.5211
 1819TIP3   OH2 5462   4.383   5.775   4.535  0.4407 -0.3023 -0.8018
 1819TIP3    H1 5463   4.362   5.833   4.461  0.1606 -0.6003 -0.9617
 1819TIP3    H2 5464   4.327   5.698   4.521 -2.9187  1.3307  1.9975
 1820TIP3   OH2 5465   1.025   2.343   0.278 -0.3059 -0.1797  0.3285
 1820TIP3    H1 5466   0.930   2.349   0.264 -0.4552  0.4531  1.4764
 1820TIP3    H2 5467   1.042   2.402   0.352  0.7258 -1.6089  1.2785
 1821TIP3   OH2 5468   3.490   0.137   0.596  0.6097 -0.3338  0.4454
 1821TIP3    H1 5469   3.454   0.180   0.518  1.2146 -0.1863  0.2404
 1821TIP3    H2 5470   3.440   0.174   0.669 -1.1314 -1.7262  0.0134
 1822TIP3   OH2 5471   1.540   5.067   2.932 -0.1098  0.0542 -0.2272
 1822TIP3    H1 5472   1.467   5.051   2.872  0.5812  1.0032 -1.3764
 1822TIP3    H2 5473   1.588   5.140   2.893  0.0457  1.1223  1.8110
 1823TIP3   OH2 5474   4.900   1.674   4.747  0.6450 -0.2424 -0.7891
 1823TIP3    H1 5475   4.958   1.622   4.802 -0.6483  1.1409  2.1066
 1823TIP3    H2 5476   4.812   1.653   4.779 -0.0862  1.4125 -1.6165
 1824TIP3   OH2 5477   6.063   4.673   3.537 -0.1527  0.1813  0.2812
 1824TIP3    H1 5478   5.979   4.701   3.573 -1.6544 -1.8863 -1.3677
 1824TIP3    H2 5479   6.073   4.726   3.458 -0.7883 -0.7310 -0.4330
 1825TIP3   OH2 5480   1.952   0.820   0.249  0.1155  0.1359  0.1467
 1825TIP3    H1 5481   2.006   0.786   0.177  1.8867  1.3546  0.8411
 1825TIP3    H2 5482   1.909   0.742   0.285 -0.5372 -0.5621 -1.9435
 1826TIP3   OH2 5483   2.005   5.838   3.521 -0.4149  0.1790 -0.4660
 1826TIP3    H1 5484   1.980   5.930   3.523  1.9284  0.9307 -1.5639
 1826TIP3    H2 5485   1.986   5.806   3.609 -0.4033  1.9888  0.2490
 1827TIP3   OH2 5486   3.780   4.870   1.931  0.1489  0.1768  0.0119
 1827TIP3    H1 5487   3.820   4.785   1.948  0.5838  0.4069  0.1520
 1827TIP3    H2 5488   3.737   4.894   2.013  0.3098  0.2446  0.0762
 1828TIP3   OH2 5489   5.196   2.726   2.649  0.2828  0.4465 -0.2614
 1828TIP3    H1 5490   5.200   2.821   2.658  0.0525  0.3704  0.6927
 1828TIP3    H2 5491   5.287   2.698   2.654  0.2988  0.5604  0.0605
 1829TIP3   OH2 5492   0.489   3.089   3.743 -0.5520  0.0654 -0.1976
 1829TIP3    H1 5493   0.394   3.091   3.736 -0.6531 -1.0752  0.5552
 1829TIP3    H2 5494   0.509   3.149   3.814 -0.7192  0.2418 -0.3007
 1830TIP3   OH2 5495   1.634   2.071   4.780 -0.6245 -0.2782  0.3570
 1830TIP3    H1 5496   1.571   2.002   4.759 -0.8790  0.0520  0.0049
 1830TIP3    H2 5497   1.601   2.147   4.733 -0.1963  0.0107  0.5243
 1831TIP3   OH2 5498   3.910   1.216   3.609 -0.1007 -0.2759  0.2614
 1831TIP3    H1 5499   3.895   1.298   3.561  1.4691  0.1909  0.4785
 1831TIP3    H2 5500   3.987   1.178   3.566 -1.2261 -2.0158 -0.2779
 1832TIP3   OH2 5501   0.419   3.144   0.571  0.2922  0.0319  0.1707
 1832TIP3    H1 5502   0.496   3.187   0.608  0.0720  2.2465 -1.7611
 1832TIP3    H2 5503   0.381   3.208   0.511 -1.3907 -2.0545 -1.1701
 1833TIP3   OH2 5504   2.491   0.276   2.929  0.8870  0.0930 -0.4379
 1833TIP3    H1 5505   2.530   0.198   2.968  3.3133  2.6336  2.7635
 1833TIP3    H2 5506   2.549   0.298   2.856  0.2242 -1.0302 -1.3158
 1834TIP3   OH2 5507   5.845   0.644   0.604  0.0530  0.4461 -0.1614
 1834TIP3    H1 5508   5.917   0.706   0.616 -1.0511  1.5217  1.1673
 1834TIP3    H2 5509   5.822   0.615   0.692  0.2900 -1.6305 -0.7110
 1835TIP3   OH2 5510   2.744   5.923   4.384 -0.4204 -0.1042 -0.2842
 1835TIP3    H1 5511   2.820   5.949   4.436 -0.3769  0.5328 -0.6629
 1835TIP3    H2 5512   2.773   5.928   4.293 -0.8733  0.0014 -0.4251
 1836TIP3   OH2 5513   6.315   1.450   3.655  0.0561  0.0684  0.0112
 1836TIP3    H1 5514   6.340   1.490   3.572 -2.8025 -1.1815 -1.5848
 1836TIP3    H2 5515   6.330   1.356   3.641 -0.2433 -0.1342  0.9850
 1837TIP3   OH2 5516   1.184   0.571   0.316 -0.1376 -0.4623  0.0461
 1837TIP3    H1 5517   1.223   0.511   0.380  2.1867  3.0302  2.2717
 1837TIP3    H2 5518   1.258   0.602   0.264 -1.2758  0.3458 -1.1465
 1838TIP3   OH2 5519   5.533   3.919   2.209 -0.0404  0.2181  0.4237
 1838TIP3    H1 5520   5.569   3.948   2.293 -0.5606  0.1316  0.6766
 1838TIP3    H2 5521   5.610   3.891   2.159  0.4835  1.9129  0.2062
 1839TIP3   OH2 5522   1.128   2.028   3.363  0.1758 -0.0783 -0.3047
 1839TIP3    H1 5523   1.118   2.043   3.457 -1.0989  0.1225 -0.4569
 1839TIP3    H2 5524   1.050   2.068   3.324  0.2738 -0.8861 -1.3679
 1840TIP3   OH2 5525   0.553   2.338   2.023  0.2309 -0.2979 -0.0974
 1840TIP3    H1 5526   0.617   2.343   1.952  3.0240 -0.9717  2.1844
 1840TIP3    H2 5527   0.548   2.427   2.058  0.3213 -0.3509  0.0511
 1841TIP3   OH2 5528   1.317   0.082   4.033  0.8550  0.2237  0.9333
 1841TIP3    H1 5529   1.247   0.018   4.043  0.4335  0.6684  0.8292
 1841TIP3    H2 5530   1.327   0.093   3.939  0.8799  0.3616  0.9519
 1842TIP3   OH2 5531   1.713   3.708   1.358 -0.1305 -0.0545 -0.2375
 1842TIP3    H1 5532   1.635   3.688   1.306 -0.3230 -1.7424  0.6365
 1842TIP3    H2 5533   1.786   3.685   1.301 -0.2615  0.9308 -0.8249
 1843TIP3   OH2 5534   1.158   5.470   2.527 -0.3770 -0.1514  0.0621
 1843TIP3    H1 5535   1.197   5.547   2.569  0.3478 -0.1187 -0.6325
 1843TIP3    H2 5536   1.096   5.506   2.464 -0.5661 -0.1566  0.2468
 1844TIP3   OH2 5537   2.993   2.845   1.852  0.1311  0.2256 -0.2096
 1844TIP3    H1 5538   2.969   2.898   1.928 -0.0969 -0.4975  0.2231
 1844TIP3    H2 5539   2.911   2.831   1.806  0.1697  0.1263 -0.2477
 1845TIP3   OH2 5540   3.165   2.078   0.086 -0.2377 -0.2194  0.1308
 1845TIP3    H1 5541   3.148   2.141   0.157 -0.6846  0.5048 -0.5941
 1845TIP3    H2 5542   3.083   2.030   0.077 -1.1249  1.4509 -1.5772
 1846TIP3   OH2 5543   1.314   0.691   1.236  0.6802 -0.9997 -0.3962
 1846TIP3    H1 5544   1.397   0.706   1.282 -0.8558 -0.6079  2.5374
 1846TIP3    H2 5545   1.271   0.624   1.289 -1.3066 -0.4154 -1.2189
 1847TIP3   OH2 5546   5.111   3.883   1.748 -0.4439 -0.2685  0.2326
 1847TIP3    H1 5547   5.169   3.912   1.818 -1.2941 -0.0455  0.8511
 1847TIP3    H2 5548   5.128   3.789   1.741 -0.0147 -0.2081  0.4113
 1848TIP3   OH2 5549   4.555   1.581   1.141 -0.6402  0.1726  0.0666
 1848TIP3    H1 5550   4.608   1.620   1.211 -1.4483 -0.6094  1.1455
 1848TIP3    H2 5551   4.619   1.533   1.088 -0.0672  0.4078  0.5229
 1849TIP3   OH2 5552   4.871   2.838   2.313  0.2455  0.0511  0.2435
 1849TIP3    H1 5553   4.837   2.841   2.224 -2.4744 -0.2042  1.1820
 1849TIP3    H2 5554   4.808   2.888   2.365  1.7182  0.1456  2.0474
 1850TIP3   OH2 5555   5.512   1.611   1.980 -0.1007  0.5991  0.0303
 1850TIP3    H1 5556   5.499   1.538   1.919  1.1037 -0.5614  1.0887
 1850TIP3    H2 5557   5.424   1.631   2.012 -0.8378  1.5429 -2.3440
 1851TIP3   OH2 5558   1.646   0.966   0.474 -0.2546 -0.4100  0.1513
 1851TIP3    H1 5559   1.643   1.012   0.557 -0.1200  0.6201 -0.3992
 1851TIP3    H2 5560   1.555   0.941   0.457 -0.1942 -1.2162  0.9041
 1852TIP3   OH2 5561   1.967   4.033   4.619  0.0517  0.1687  0.2138
 1852TIP3    H1 5562   2.038   3.975   4.593  0.6843  0.9171  0.2133
 1852TIP3    H2 5563   1.905   4.028   4.546  0.7376  0.5091 -0.4160
 1853TIP3   OH2 5564   6.268   2.087   0.751 -0.2976  0.4087 -0.3394
 1853TIP3    H1 5565   6.335   2.019   0.759 -0.4291  0.3199  0.0367
 1853TIP3    H2 5566   6.236   2.079   0.661 -0.0017  0.2645 -0.4333
 1854TIP3   OH2 5567   3.490   2.130   4.935 -0.1044 -0.2730 -0.0859
 1854TIP3    H1 5568   3.482   2.084   5.019  3.5525 -0.3945  0.3745
 1854TIP3    H2 5569   3.488   2.223   4.958 -0.4584 -0.2863 -0.0584
 1855TIP3   OH2 5570   4.053   2.894   2.795  0.0261 -0.2080  0.0448
 1855TIP3    H1 5571   3.967   2.853   2.785 -0.3091  0.6816 -0.8490
 1855TIP3    H2 5572   4.078   2.920   2.707  1.2297 -0.4535  0.2905
 1856TIP3   OH2 5573   3.844   2.346   3.282 -0.0521  0.0695 -0.6583
 1856TIP3    H1 5574   3.859   2.381   3.370 -0.9420 -0.5775 -0.2333
 1856TIP3    H2 5575   3.843   2.423   3.225  1.3968  0.4243 -0.2380
 1857TIP3   OH2 5576   5.247   4.563   0.118 -0.3812 -0.0849  0.1576
 1857TIP3    H1 5577   5.262   4.500   0.048 -0.4859 -0.5508  0.5526
 1857TIP3    H2 5578   5.220   4.643   0.073  2.3564  0.5550 -0.5608
 1858TIP3   OH2 5579   0.293   3.056   0.125  0.5231  0.3199 -0.1378
 1858TIP3    H1 5580   0.233   3.129   0.142  0.5463  0.2411  0.2905
 1858TIP3    H2 5581   0.300   3.011   0.209 -1.8281 -1.9356 -1.0192
 1859TIP3   OH2 5582   5.635   0.670   4.878  0.0013 -0.0038  0.5227
 1859TIP3    H1 5583   5.730   0.686   4.871  0.2665 -1.3282  0.7804
 1859TIP3    H2 5584   5.612   0.624   4.798 -0.0790 -1.1663  1.1956
 1860TIP3   OH2 5585   4.415   4.574   4.010  0.4653  0.0370  0.5779
 1860TIP3    H1 5586   4.327   4.586   4.047 -1.2379  0.5079 -3.1626
 1860TIP3    H2 5587   4.452   4.663   4.008  1.1290 -0.1669  2.1915
 1861TIP3   OH2 5588   0.047   0.391   1.403  0.3034  0.1015  0.0458
 1861TIP3    H1 5589   0.029   0.326   1.471 -1.3714  0.1094 -0.3424
 1861TIP3    H2 5590  -0.040   0.413   1.367  1.0276  1.0418 -1.2139
 1862TIP3   OH2 5591   4.294   4.312   0.157 -0.6869 -0.5152  0.2170
 1862TIP3    H1 5592   4.381   4.350   0.148 -1.0137  0.8359  2.1846
 1862TIP3    H2 5593   4.265   4.298   0.066  0.0859  2.6270 -0.6353
 1863TIP3   OH2 5594   1.345   5.038   1.719 -0.2951  0.3800 -0.4296
 1863TIP3    H1 5595   1.284   5.096   1.672  0.9172 -0.1312 -2.8066
 1863TIP3    H2 5596   1.322   4.950   1.688  0.2372 -0.0478  0.3565
 1864TIP3   OH2 5597   0.545   3.149   1.808  0.0572 -0.2727  0.8757
 1864TIP3    H1 5598   0.513   3.227   1.763 -0.1452 -0.6228  0.4044
 1864TIP3    H2 5599   0.601   3.106   1.744 -0.1847 -0.7447  0.9784
 1865TIP3   OH2 5600   5.693   1.466   3.224 -0.1373  0.3387 -0.1522
 1865TIP3    H1 5601   5.699   1.462   3.128  1.4976  0.2147 -0.0782
 1865TIP3    H2 5602   5.604   1.437   3.243  0.0350 -1.3259 -1.5611
 1866TIP3   OH2 5603   4.705   3.023   2.119 -0.6036 -0.0452 -0.1131
 1866TIP3    H1 5604   4.765   3.087   2.081 -0.9889  0.8762  0.7915
 1866TIP3    H2 5605   4.698   2.954   2.052  1.1729 -0.0115 -0.3803
 1867TIP3   OH2 5606   4.338   5.302   1.749 -0.2724 -0.0906  0.0418
 1867TIP3    H1 5607   4.383   5.226   1.788 -0.3122 -1.0453 -1.6826
 1867TIP3    H2 5608   4.401   5.374   1.759 -0.8763  0.1668  3.2224
 1868TIP3   OH2 5609   3.449   3.822   1.244 -0.8664 -0.0920  0.0436
 1868TIP3    H1 5610   3.520   3.808   1.307 -1.3060 -1.8561  0.1840
 1868TIP3    H2 5611   3.450   3.916   1.228  0.6845  0.0903  1.0068
 1869TIP3   OH2 5612   4.081   1.974   4.916 -0.2797  0.3771  0.3863
 1869TIP3    H1 5613   4.175   1.988   4.925 -0.6871  2.7293  2.0167
 1869TIP3    H2 5614   4.059   2.007   4.829  0.3826 -0.1250  0.0256
 1870TIP3   OH2 5615   1.518   1.899   1.246 -0.4381 -0.2503 -0.2954
 1870TIP3    H1 5616   1.473   1.928   1.167  0.5933  1.3213 -0.3532
 1870TIP3    H2 5617   1.448   1.885   1.310 -1.0573  1.9456 -0.4331
 1871TIP3   OH2 5618   2.645   2.083   0.443  0.4219 -0.1837 -0.1558
 1871TIP3    H1 5619   2.599   2.165   0.461  0.4723  0.0867 -1.2124
 1871TIP3    H2 5620   2.611   2.022   0.509  0.5659  0.7343  0.8039
 1872TIP3   OH2 5621   3.309   3.739   3.110 -0.1766  0.2055  0.3988
 1872TIP3    H1 5622   3.260   3.663   3.140  0.8662 -0.6491  0.0158
 1872TIP3    H2 5623   3.334   3.785   3.191 -0.0884 -0.3324  0.6804
 1873TIP3   OH2 5624   3.361   5.735   3.187  0.7340  0.5428 -0.2613
 1873TIP3    H1 5625   3.278   5.702   3.151  0.9297  0.5315 -0.7061
 1873TIP3    H2 5626   3.344   5.828   3.203  0.0716  0.1869  1.3232
 1874TIP3   OH2 5627   1.157   1.032   2.045 -0.3137  0.6292  0.2257
 1874TIP3    H1 5628   1.134   0.969   2.114  0.4370  0.3970  0.2775
 1874TIP3    H2 5629   1.138   0.986   1.964 -1.6665  1.0828  0.2659
 1875TIP3   OH2 5630   5.446   4.137   0.561 -0.2526  0.0030 -0.3476
 1875TIP3    H1 5631   5.519   4.173   0.611  0.1769  0.8912 -1.5938
 1875TIP3    H2 5632   5.486   4.101   0.482 -1.3997  3.3232 -2.6132
 1876TIP3   OH2 5633   0.084   3.274   0.096  0.0505 -0.1967 -0.0876
 1876TIP3    H1 5634   0.016   3.338   0.077  0.0940  0.3373  1.4082
 1876TIP3    H2 5635   0.063   3.241   0.183  0.2066 -2.0173 -0.7061
 1877TIP3   OH2 5636   3.711   5.320   2.626 -0.0474 -0.3126  0.0395
 1877TIP3    H1 5637   3.696   5.259   2.698 -4.1015  0.1101 -0.1830
 1877TIP3    H2 5638   3.625   5.327   2.584  1.2990  2.2918 -2.5636
 1878TIP3   OH2 5639   5.387   2.938   3.453  0.1310 -0.0918 -0.0030
 1878TIP3    H1 5640   5.357   3.019   3.495  2.0734  0.7178 -0.0576
 1878TIP3    H2 5641   5.350   2.868   3.507 -0.1999  0.8744  1.0626
 1879TIP3   OH2 5642   2.553   2.328   3.406  0.1575 -0.0866 -0.3033
 1879TIP3    H1 5643   2.553   2.378   3.324  1.3838  2.5807  1.1711
 1879TIP3    H2 5644   2.463   2.297   3.415 -0.7353  2.0000 -1.3010
 1880TIP3   OH2 5645   0.168   3.396   3.520 -0.1035 -0.1565  0.0802
 1880TIP3    H1 5646   0.262   3.409   3.508 -0.5459  1.0059 -3.0746
 1880TIP3    H2 5647   0.147   3.448   3.598  2.0030 -1.5502  1.6921
 1881TIP3   OH2 5648   1.639   2.775   1.598 -0.4100 -0.7005 -0.0608
 1881TIP3    H1 5649   1.639   2.730   1.683  1.3453  1.5087  1.2352
 1881TIP3    H2 5650   1.704   2.845   1.608  1.4358 -1.5892 -3.9178
 1882TIP3   OH2 5651   4.675   5.310   4.763  0.0966 -0.4270  0.1843
 1882TIP3    H1 5652   4.696   5.325   4.855  0.1449  0.2128  0.0738
 1882TIP3    H2 5653   4.713   5.385   4.717  0.9161 -1.2149 -0.4811
 1883TIP3   OH2 5654   2.795   4.162   0.119  0.6384 -0.1029 -0.4926
 1883TIP3    H1 5655   2.801   4.120   0.205  0.2517  0.3846 -0.2207
 1883TIP3    H2 5656   2.772   4.091   0.059 -1.8436 -0.0370  0.2405
 1884TIP3   OH2 5657   0.598   2.786   0.238  0.5072  0.0326 -0.1636
 1884TIP3    H1 5658   0.594   2.716   0.303  0.3308  0.5690  0.4091
 1884TIP3    H2 5659   0.686   2.779   0.201  0.5975 -0.2932  0.1059
 1885TIP3   OH2 5660   3.938   5.977   1.938 -0.6745 -0.5514 -0.3435
 1885TIP3    H1 5661   4.026   6.010   1.919 -0.9625 -0.1844 -1.0713
 1885TIP3    H2 5662   3.953   5.903   1.998 -0.0317  0.9284  1.3974
 1886TIP3   OH2 5663   6.126   0.811   3.760  0.4536  0.2242 -0.4752
 1886TIP3    H1 5664   6.180   0.770   3.828  0.3396  0.6188 -0.1425
 1886TIP3    H2 5665   6.095   0.738   3.706 -0.0782 -0.1692  0.3449
 1887TIP3   OH2 5666   5.617   5.749   3.926  0.2833  0.4152  0.1811
 1887TIP3    H1 5667   5.705   5.729   3.957  0.4149  1.9166  0.8375
 1887TIP3    H2 5668   5.600   5.683   3.859  1.3694 -0.7253  0.9847
 1888TIP3   OH2 5669   0.732   1.952   4.581 -0.6146 -0.0135  0.0047
 1888TIP3    H1 5670   0.732   1.873   4.634  0.9806 -0.0701 -0.0085
 1888TIP3    H2 5671   0.741   2.023   4.645  0.9232 -0.0591 -0.1144
 1889TIP3   OH2 5672   5.977   3.147   4.844  0.5093  0.6756 -0.2583
 1889TIP3    H1 5673   6.034   3.149   4.767  0.1832 -1.8913 -0.6854
 1889TIP3    H2 5674   5.929   3.064   4.835 -1.6855  1.6942  1.2188
 1890TIP3   OH2 5675   5.834   2.242   1.239  0.5019 -0.2828  0.2748
 1890TIP3    H1 5676   5.891   2.241   1.162  0.1971 -0.3525  0.0463
 1890TIP3    H2 5677   5.747   2.262   1.204  0.7887  2.5126  0.8960
 1891TIP3   OH2 5678   5.757   3.091   0.267  0.6151 -0.1516 -0.1816
 1891TIP3    H1 5679   5.684   3.032   0.286  0.7704  0.0415  1.1076
 1891TIP3    H2 5680   5.835   3.039   0.289  0.7980  0.1451 -0.1338
 1892TIP3   OH2 5681   2.279   3.105   1.287  0.5156 -0.4599  0.0725
 1892TIP3    H1 5682   2.300   3.196   1.264  0.6562 -0.8156 -1.3101
 1892TIP3    H2 5683   2.191   3.091   1.253  0.6932 -0.9812 -0.1953
 1893TIP3   OH2 5684   0.873   4.891   1.122 -0.5234  0.3023 -0.1740
 1893TIP3    H1 5685   0.898   4.982   1.142 -0.4946  0.2608 -0.0179
 1893TIP3    H2 5686   0.781   4.886   1.148 -1.0265  0.7651 -1.7759
 1894TIP3   OH2 5687   2.326   3.987   1.243  0.5415  0.1735 -0.5758
 1894TIP3    H1 5688   2.242   3.942   1.237  1.0367 -0.6909 -1.2604
 1894TIP3    H2 5689   2.327   4.025   1.331 -0.3782 -0.1702 -0.4076
 1895TIP3   OH2 5690   1.956   2.933   0.728 -0.5613  0.0207 -0.3332
 1895TIP3    H1 5691   2.040   2.907   0.690 -0.8891 -1.8778  0.1263
 1895TIP3    H2 5692   1.899   2.856   0.716 -1.8643  0.8199  0.4339
 1896TIP3   OH2 5693   0.090   4.825   3.321 -0.1369 -0.1330 -0.6440
 1896TIP3    H1 5694   0.131   4.821   3.407 -0.4363  0.9420 -0.4407
 1896TIP3    H2 5695   0.148   4.882   3.270 -0.0404 -0.6417 -1.1150
 1897TIP3   OH2 5696   5.119   5.886   3.281 -0.4180  0.1154 -0.3344
 1897TIP3    H1 5697   5.198   5.850   3.321 -0.6990 -0.1218  0.0302
 1897TIP3    H2 5698   5.063   5.809   3.267 -0.4504  0.2408 -0.8924
 1898TIP3   OH2 5699   4.704   2.791   0.752 -0.3433 -0.3855  0.0242
 1898TIP3    H1 5700   4.797   2.809   0.769 -0.4299  1.0075 -0.8083
 1898TIP3    H2 5701   4.705   2.741   0.670 -0.3302 -0.2169 -0.0798
 1899TIP3   OH2 5702   4.482   3.415   0.312 -0.2168 -0.0004 -0.0933
 1899TIP3    H1 5703   4.486   3.471   0.390  0.7267 -0.5878  0.2968
 1899TIP3    H2 5704   4.489   3.476   0.239 -0.8725  0.5386  0.2720
 1900TIP3   OH2 5705   5.687   0.413   4.401  0.0263  0.7151 -0.5170
 1900TIP3    H1 5706   5.713   0.439   4.489 -2.4093  1.2498  0.1274
 1900TIP3    H2 5707   5.763   0.366   4.366  1.1297  0.6661  1.7796
 1901TIP3   OH2 5708   4.861   1.047   3.333 -0.2203 -0.3377 -0.3793
 1901TIP3    H1 5709   4.787   0.987   3.342  0.2855 -1.0425 -0.8098
 1901TIP3    H2 5710   4.835   1.125   3.384 -1.0932 -0.7136 -0.2257
 1902TIP3   OH2 5711   2.142   1.046   2.971 -0.0294 -0.0868 -0.1049
 1902TIP3    H1 5712   2.223   0.998   2.986  0.1894  0.4339  0.4220
 1902TIP3    H2 5713   2.106   1.008   2.891  2.3553  1.8444 -2.2707
 1903TIP3   OH2 5714   6.135   3.060   3.447  0.1416 -0.3854  0.6871
 1903TIP3    H1 5715   6.194   3.024   3.513 -0.9632  0.8601  2.4207
 1903TIP3    H2 5716   6.168   3.148   3.430  0.6474 -0.8176 -0.7772
 1904TIP3   OH2 5717   4.019   2.917   3.820 -0.2852 -0.1065  0.8531
 1904TIP3    H1 5718   3.977   2.867   3.750  1.0220 -0.7028  0.4609
 1904TIP3    H2 5719   3.986   3.006   3.808  0.3775 -0.0524 -0.9547
 1905TIP3   OH2 5720   1.745   2.831   0.307  0.5199 -0.3335  0.3472
 1905TIP3    H1 5721   1.685   2.901   0.283  0.5110 -0.6379 -0.5778
 1905TIP3    H2 5722   1.747   2.774   0.230  0.3043 -1.5086  1.1751
 1906TIP3   OH2 5723   0.420   4.938   3.650 -0.3589  1.0524  0.2882
 1906TIP3    H1 5724   0.361   4.994   3.701 -0.4958  1.9037 -0.7765
 1906TIP3    H2 5725   0.507   4.975   3.665 -0.3102  0.8867  0.4261
 1907TIP3   OH2 5726   1.204   0.620   2.735  0.0205  0.2954  0.0157
 1907TIP3    H1 5727   1.295   0.646   2.723 -0.2355  0.9626 -0.5837
 1907TIP3    H2 5728   1.204   0.525   2.721  1.1991 -0.3655  3.5954
 1908TIP3   OH2 5729  -0.019   4.273   1.147  0.2069  0.2856  0.1714
 1908TIP3    H1 5730   0.056   4.236   1.195  0.3156  0.4232  0.1100
 1908TIP3    H2 5731  -0.015   4.233   1.060 -0.9406 -1.2231  0.7603
 1909TIP3   OH2 5732   3.116   4.495   3.436 -0.0965  0.2141 -0.6471
 1909TIP3    H1 5733   3.140   4.463   3.523  1.4695  4.1092  0.5839
 1909TIP3    H2 5734   3.046   4.558   3.451  1.1898  2.0676 -1.9069
 1910TIP3   OH2 5735   4.346   2.051   2.097 -0.2893 -0.5473  0.1820
 1910TIP3    H1 5736   4.367   2.126   2.153  1.1567  0.1233 -1.1836
 1910TIP3    H2 5737   4.386   1.976   2.140 -0.5454 -0.3213  0.8321
 1911TIP3   OH2 5738   3.139   0.965   4.912  0.1326 -0.3014  0.1177
 1911TIP3    H1 5739   3.193   0.891   4.882 -1.3375 -0.8855 -1.2591
 1911TIP3    H2 5740   3.202   1.029   4.945  1.6962 -0.8685 -1.5702
 1912TIP3   OH2 5741   3.952   1.831   0.544 -0.4697  0.8518  0.4232
 1912TIP3    H1 5742   3.989   1.919   0.538 -1.0208  1.1144  0.7518
 1912TIP3    H2 5743   3.870   1.843   0.591  1.0514 -0.3005  3.6684
 1913TIP3   OH2 5744   4.623   5.834   3.607 -0.0514 -0.4051 -0.4737
 1913TIP3    H1 5745   4.627   5.928   3.621 -0.2904 -0.4304 -0.2358
 1913TIP3    H2 5746   4.712   5.803   3.626  0.4266 -0.0353 -2.0072
 1914TIP3   OH2 5747   0.799   4.912   0.092  0.0819 -0.1314  0.3658
 1914TIP3    H1 5748   0.870   4.855   0.062  0.2254  1.0194 -1.7006
 1914TIP3    H2 5749   0.840   4.970   0.157  0.9464  0.2148 -0.4629
 1915TIP3   OH2 5750   5.138   4.802   1.401  0.2226  0.6352 -0.2706
 1915TIP3    H1 5751   5.193   4.818   1.478  2.3730  1.2834 -1.8591
 1915TIP3    H2 5752   5.150   4.879   1.346 -1.6312  0.3945 -1.0998
 1916TIP3   OH2 5753   1.373   2.913   0.184 -0.1904 -0.0903 -0.1302
 1916TIP3    H1 5754   1.281   2.935   0.199  0.1333  0.4139  1.3018
 1916TIP3    H2 5755   1.373   2.867   0.100 -1.4675  1.8165 -1.2649
 1917TIP3   OH2 5756   3.247   3.536   2.350 -0.0883 -0.6508  0.1307
 1917TIP3    H1 5757   3.342   3.527   2.334 -0.2066 -0.3264 -0.7996
 1917TIP3    H2 5758   3.228   3.627   2.330 -0.5486 -0.6208  0.6760
 1918TIP3   OH2 5759   4.780   3.494   0.493  0.3029 -0.1933 -0.2627
 1918TIP3    H1 5760   4.706   3.554   0.506  1.2729  0.8499  0.5685
 1918TIP3    H2 5761   4.847   3.548   0.450  0.1850 -1.4415 -2.1437
 1919TIP3   OH2 5762   4.497   0.715   4.686  0.2893  0.3453  0.3556
 1919TIP3    H1 5763   4.543   0.688   4.766  0.5406  1.0050  0.4411
 1919TIP3    H2 5764   4.478   0.808   4.700 -1.7024 -0.0581  0.6409
 1920TIP3   OH2 5765   3.933   4.301   4.568  0.1721 -0.2445  0.8196
 1920TIP3    H1 5766   4.003   4.350   4.612 -0.4324  0.5335  0.9567
 1920TIP3    H2 5767   3.864   4.367   4.553  0.5076 -0.3789 -1.6755
 1921TIP3   OH2 5768   1.542   4.031   0.647  0.5188 -0.0582  0.0310
 1921TIP3    H1 5769   1.539   3.946   0.603 -0.9720 -0.7131  1.2948
 1921TIP3    H2 5770   1.471   4.081   0.605  0.2640 -0.0600  0.4515
 1922TIP3   OH2 5771   4.820   3.247   4.190  0.1007 -0.5270 -0.5752
 1922TIP3    H1 5772   4.805   3.270   4.282  0.1325  0.2435 -0.7529
 1922TIP3    H2 5773   4.736   3.214   4.159 -0.3611  0.6882 -0.6820
 1923TIP3   OH2 5774   6.295   2.908   2.237  0.0202 -0.0232 -0.1589
 1923TIP3    H1 5775   6.237   2.906   2.162  0.1403  1.6988 -0.3336
 1923TIP3    H2 5776   6.343   2.991   2.229 -0.6781  0.7145  2.3333
 1924TIP3   OH2 5777   1.066   3.667   3.971  0.4052  0.1174  0.2789
 1924TIP3    H1 5778   1.050   3.628   3.886 -1.5010 -3.3844  2.0286
 1924TIP3    H2 5779   0.991   3.725   3.986  0.1506 -0.1580  0.0580
 1925TIP3   OH2 5780   5.586   2.639   4.804  0.1058 -0.3852 -0.4579
 1925TIP3    H1 5781   5.511   2.616   4.860 -0.0494 -0.4355 -0.6848
 1925TIP3    H2 5782   5.546   2.683   4.729  0.3495  0.0437 -0.3360
 1926TIP3   OH2 5783   2.032   4.237   4.793 -0.1675  0.1232 -0.1874
 1926TIP3    H1 5784   1.969   4.308   4.807  0.9407  1.5571 -1.8829
 1926TIP3    H2 5785   1.980   4.166   4.754 -0.7689  1.2802 -1.5857
 1927TIP3   OH2 5786   2.803   3.723   2.577 -0.6097 -0.2515  0.3390
 1927TIP3    H1 5787   2.748   3.647   2.593  0.4212 -1.3577 -1.1338
 1927TIP3    H2 5788   2.889   3.687   2.556  0.1440  1.3587  0.4792
 1928TIP3   OH2 5789   1.237   2.571   0.230  0.6447  0.9277 -0.8516
 1928TIP3    H1 5790   1.213   2.525   0.310  0.3233  1.6602 -0.5226
 1928TIP3    H2 5791   1.155   2.607   0.197  0.4335 -0.9053 -2.5239
 1929TIP3   OH2 5792   1.397   5.851   4.325 -0.0215  0.4755 -0.0972
 1929TIP3    H1 5793   1.461   5.902   4.374  1.6052 -0.0812 -1.5211
 1929TIP3    H2 5794   1.345   5.807   4.392  1.5897  0.3462  1.1352
 1930TIP3   OH2 5795   4.982   3.604   0.764  0.7111 -0.1125 -0.2540
 1930TIP3    H1 5796   4.922   3.530   0.761  0.6960 -0.0755 -1.0774
 1930TIP3    H2 5797   5.069   3.564   0.776  0.6066 -0.2020  0.2448
 1931TIP3   OH2 5798   3.111   0.079   0.396 -0.3766 -0.0383  0.5401
 1931TIP3    H1 5799   3.148   0.057   0.311 -1.5017 -0.5703  0.1647
 1931TIP3    H2 5800   3.114   0.174   0.401 -1.9654  0.1443 -0.9084
 1932TIP3   OH2 5801   4.430   2.753   2.077  0.6886  0.3156  0.8911
 1932TIP3    H1 5802   4.469   2.816   2.017 -0.3242  0.0887 -0.0274
 1932TIP3    H2 5803   4.412   2.676   2.023  0.3248 -0.1234  1.6204
 1933TIP3   OH2 5804   5.128   1.552   0.800  0.0404 -0.0711 -0.0240
 1933TIP3    H1 5805   5.147   1.495   0.874 -0.3127  0.8287  0.7762
 1933TIP3    H2 5806   5.145   1.497   0.723 -0.2310 -1.2354  0.7121
 1934TIP3   OH2 5807   3.057   4.942   3.266 -0.2928 -0.1918  0.5777
 1934TIP3    H1 5808   3.119   4.875   3.238 -0.1012  0.7594 -1.4208
 1934TIP3    H2 5809   2.990   4.942   3.198 -0.0267  1.9631  0.2716
 1935TIP3   OH2 5810   3.053   5.800   3.343  0.1857 -0.4041 -0.5869
 1935TIP3    H1 5811   3.078   5.745   3.269 -1.0131 -0.1774 -1.1856
 1935TIP3    H2 5812   2.959   5.785   3.353  0.2069  0.0828  0.4672
 1936TIP3   OH2 5813   1.926   0.672   2.321 -0.4092 -0.7608 -0.3039
 1936TIP3    H1 5814   1.975   0.742   2.279 -0.4558 -1.1400 -1.0039
 1936TIP3    H2 5815   1.872   0.635   2.251  0.5680 -2.3532 -0.2644
 1937TIP3   OH2 5816   5.074   3.362   0.266  0.7322 -0.5087  0.5022
 1937TIP3    H1 5817   5.024   3.292   0.225 -0.9586  0.2368  1.1889
 1937TIP3    H2 5818   5.093   3.423   0.195 -0.3964 -0.2130  0.4452
 1938TIP3   OH2 5819   2.543   1.606   1.098 -0.6297 -0.2738  0.5484
 1938TIP3    H1 5820   2.538   1.564   1.012 -0.5851  1.7101 -0.4582
 1938TIP3    H2 5821   2.602   1.680   1.086  0.5071 -0.7591  2.6631
 1939TIP3   OH2 5822   5.801   2.637   3.437 -0.3745 -0.8466  0.4813
 1939TIP3    H1 5823   5.881   2.584   3.435 -1.1417 -2.0253 -1.4548
 1939TIP3    H2 5824   5.799   2.683   3.353 -0.1723  1.6852  1.7757
 1940TIP3   OH2 5825   3.166   4.531   0.297 -0.8025  0.5674 -0.1711
 1940TIP3    H1 5826   3.204   4.485   0.222 -0.4938 -0.3674  0.5454
 1940TIP3    H2 5827   3.072   4.532   0.279 -0.8258 -0.4726 -0.1368
 1941TIP3   OH2 5828   2.610   2.831   2.309 -0.3336  0.2080 -0.6754
 1941TIP3    H1 5829   2.667   2.763   2.272  0.5582  0.3360  0.4213
 1941TIP3    H2 5830   2.620   2.906   2.249  1.9682  0.8025  0.3632
 1942TIP3   OH2 5831   4.684   2.052   2.217  0.1947  0.7516 -0.4253
 1942TIP3    H1 5832   4.603   2.096   2.240  1.1799  1.0293  3.0407
 1942TIP3    H2 5833   4.723   2.107   2.149 -1.4136  1.8247 -0.5284
 1943TIP3   OH2 5834   3.841   0.193   2.710 -0.6903 -0.0118 -0.4751
 1943TIP3    H1 5835   3.931   0.224   2.719 -0.2245 -1.7182  1.5351
 1943TIP3    H2 5836   3.789   0.258   2.756 -0.1826 -0.2036  0.3987
 1944TIP3   OH2 5837   5.006   0.372   4.881  0.0203 -0.3201 -0.2566
 1944TIP3    H1 5838   4.996   0.417   4.797  1.3781 -0.3733 -0.4765
 1944TIP3    H2 5839   5.071   0.304   4.864 -2.2228 -2.6520 -0.0195
 1945TIP3   OH2 5840   4.281   2.107   2.434 -0.0669  0.1991  0.2878
 1945TIP3    H1 5841   4.260   2.198   2.410  0.2244  0.1124 -0.3168
 1945TIP3    H2 5842   4.206   2.056   2.403  0.9785 -0.1180 -1.9260
 1946TIP3   OH2 5843   4.127   4.841   4.607 -0.0432 -0.0984  0.3946
 1946TIP3    H1 5844   4.161   4.777   4.545 -0.6875 -0.9173  0.8703
 1946TIP3    H2 5845   4.204   4.890   4.636  0.5819 -1.1900  0.6209
 1947TIP3   OH2 5846   0.318   0.883   0.379  0.1442 -0.5074 -0.8621
 1947TIP3    H1 5847   0.389   0.890   0.314  0.4861  2.5491 -0.3120
 1947TIP3    H2 5848   0.358   0.911   0.461 -1.3393 -0.1206 -0.2385
 1948TIP3   OH2 5849   1.290   2.182   4.948 -0.3861 -0.0009 -0.4244
 1948TIP3    H1 5850   1.303   2.231   5.029 -1.9768  0.2536 -0.2926
 1948TIP3    H2 5851   1.289   2.249   4.880 -0.0521 -0.1128 -0.5395
 1949TIP3   OH2 5852   5.427   0.037   3.160 -0.2620 -0.3494 -0.3851
 1949TIP3    H1 5853   5.394   0.063   3.246 -1.4382 -0.0791 -0.8868
 1949TIP3    H2 5854   5.513   0.079   3.153  0.1314 -0.9097  0.9051
 1950TIP3   OH2 5855   2.737   1.975   1.448 -0.0710 -0.3846 -0.3440
 1950TIP3    H1 5856   2.681   1.983   1.370  2.5845  1.3287 -2.2589
 1950TIP3    H2 5857   2.819   1.940   1.415  0.9595 -0.1439  1.8097
 1951TIP3   OH2 5858   0.750   1.399   1.638  0.2262 -0.4167  0.1333
 1951TIP3    H1 5859   0.680   1.462   1.655  0.2976  0.0103 -1.0167
 1951TIP3    H2 5860   0.769   1.360   1.723 -0.4142  0.5003  0.7209
 1952TIP3   OH2 5861   3.417   1.618   2.558 -0.1709  0.0612 -0.1038
 1952TIP3    H1 5862   3.400   1.609   2.652 -1.9922  0.8982 -0.3170
 1952TIP3    H2 5863   3.433   1.529   2.528 -0.1181 -0.2863  0.9009
 1953TIP3   OH2 5864   1.670   4.218   3.285 -0.0354 -0.4124  0.4892
 1953TIP3    H1 5865   1.650   4.226   3.379 -0.7008 -2.4114  0.5656
 1953TIP3    H2 5866   1.753   4.264   3.275 -0.2950  0.4381  1.9218
 1954TIP3   OH2 5867   3.882   5.674   2.035  0.0392  0.4988  0.5656
 1954TIP3    H1 5868   3.929   5.614   1.976  1.5494  0.2981  1.8877
 1954TIP3    H2 5869   3.941   5.683   2.110 -0.0147  3.8151  0.3474
 1955TIP3   OH2 5870   1.170   5.421   3.633  0.6315  0.0281 -0.2328
 1955TIP3    H1 5871   1.105   5.363   3.593 -0.7552  1.2133  0.2256
 1955TIP3    H2 5872   1.152   5.417   3.727  0.9431  0.6980 -0.1386
 1956TIP3   OH2 5873   3.399   5.536   2.895  0.1813 -0.5277 -0.8706
 1956TIP3    H1 5874   3.491   5.560   2.903 -0.1355  0.4513  0.0276
 1956TIP3    H2 5875   3.364   5.597   2.830 -0.0930 -0.0881 -0.3229
 1957TIP3   OH2 5876   4.420   5.143   1.407  0.2813  0.1764 -0.4856
 1957TIP3    H1 5877   4.501   5.153   1.358  1.0332  0.2792  0.7330
 1957TIP3    H2 5878   4.408   5.049   1.417  0.5756  0.1766 -0.1410
 1958TIP3   OH2 5879   1.338   3.145   0.809 -0.0307 -0.4206  0.2944
 1958TIP3    H1 5880   1.375   3.112   0.727  0.4015 -1.5531  0.9311
 1958TIP3    H2 5881   1.257   3.095   0.821  0.4853 -1.0895  1.1208
 1959TIP3   OH2 5882   2.324   3.934   2.273  0.5496 -0.3719  0.1176
 1959TIP3    H1 5883   2.386   3.868   2.304  0.0304 -0.2862  1.4225
 1959TIP3    H2 5884   2.341   3.941   2.179  1.7008 -1.1961  0.2393
 1960TIP3   OH2 5885   1.669   3.985   0.879  0.1326 -0.4160 -0.1093
 1960TIP3    H1 5886   1.669   4.011   0.786  1.2109 -1.5934 -0.4720
 1960TIP3    H2 5887   1.689   4.066   0.926 -2.3502  0.6212 -0.7187
 1961TIP3   OH2 5888   5.083   0.176   0.857  0.0735  0.4316  0.2692
 1961TIP3    H1 5889   5.139   0.190   0.933 -2.2733  0.3398  2.1227
 1961TIP3    H2 5890   5.144   0.170   0.783  2.3838  1.4364  1.9760
 1962TIP3   OH2 5891   4.924   3.959   2.590 -0.2033 -0.1631  0.1017
 1962TIP3    H1 5892   4.859   3.940   2.521 -0.4429  0.4196  0.1650
 1962TIP3    H2 5893   4.911   3.888   2.654 -1.6899  0.6594  0.7564
 1963TIP3   OH2 5894   5.544   5.074   2.189 -0.1989  0.6771  0.2020
 1963TIP3    H1 5895   5.601   5.024   2.247 -0.9013  1.2624  1.4267
 1963TIP3    H2 5896   5.466   5.020   2.179 -0.9654  1.4879  1.5392
 1964TIP3   OH2 5897   0.512   1.173   1.984  0.3043  0.7700  0.1855
 1964TIP3    H1 5898   0.603   1.190   1.960  0.5254  1.1341  1.2267
 1964TIP3    H2 5899   0.502   1.213   2.070 -1.1443  1.6781 -0.3619
 1965TIP3   OH2 5900   5.024   4.157   1.017 -0.5511 -0.1800  0.7261
 1965TIP3    H1 5901   5.008   4.132   1.108 -0.3733  2.0236  1.4164
 1965TIP3    H2 5902   4.992   4.246   1.010  0.0920 -0.0427 -1.1963
 1966TIP3   OH2 5903   3.675   0.720   2.713  0.0696 -0.2447  1.1835
 1966TIP3    H1 5904   3.581   0.717   2.734 -0.3411 -0.2658 -0.4929
 1966TIP3    H2 5905   3.698   0.813   2.718 -0.3971 -0.0663  0.2498
 1967TIP3   OH2 5906   6.067   1.650   1.651  0.2861 -1.0047  0.2772
 1967TIP3    H1 5907   6.035   1.668   1.739 -1.9038  0.6205 -0.7683
 1967TIP3    H2 5908   5.989   1.625   1.601  0.8829  1.0835 -1.9017
 1968TIP3   OH2 5909   1.316   4.535   1.946  0.5887 -0.3146 -0.3265
 1968TIP3    H1 5910   1.348   4.474   2.013 -2.4142 -0.3719  1.2135
 1968TIP3    H2 5911   1.294   4.479   1.871  0.2496 -0.7982  0.1304
 1969TIP3   OH2 5912   4.262   4.191   2.589 -0.0464 -0.5927  0.5981
 1969TIP3    H1 5913   4.351   4.220   2.610  0.3055  0.6997 -2.1487
 1969TIP3    H2 5914   4.256   4.200   2.494 -2.7420 -1.8366  0.5471
 1970TIP3   OH2 5915   3.141   3.907   3.669  0.0687  0.1845  0.3830
 1970TIP3    H1 5916   3.077   3.841   3.694  0.4181 -0.5594 -0.6242
 1970TIP3    H2 5917   3.104   3.990   3.699 -0.6811 -0.3944  1.0839
 1971TIP3   OH2 5918   4.263   2.346   1.160 -0.0685 -0.8022 -0.6794
 1971TIP3    H1 5919   4.312   2.270   1.127 -1.5842 -1.4772 -1.5054
 1971TIP3    H2 5920   4.171   2.321   1.149 -0.6527 -0.0353  1.8088
 1972TIP3   OH2 5921   4.527   3.805   3.147 -0.0694  0.3498  0.4013
 1972TIP3    H1 5922   4.502   3.761   3.229 -1.8446  0.2180 -0.1684
 1972TIP3    H2 5923   4.483   3.754   3.079  0.3625  1.2138 -0.5410
 1973TIP3   OH2 5924   3.086   0.163   4.986 -0.9910  0.4729 -0.4746
 1973TIP3    H1 5925   3.143   0.240   4.994  0.5590 -0.8073  2.5480
 1973TIP3    H2 5926   3.000   0.199   4.966 -0.2718  2.9972  0.5483
 1974TIP3   OH2 5927   0.548   4.324   3.703  0.0901  0.4459 -0.7130
 1974TIP3    H1 5928   0.614   4.260   3.729 -1.7084 -1.9959 -1.8224
 1974TIP3    H2 5929   0.599   4.401   3.679  2.2814 -0.0658  1.7790
 1975TIP3   OH2 5930   3.382   5.299   2.994 -0.1674 -0.0434 -0.1234
 1975TIP3    H1 5931   3.401   5.389   2.966  3.1459 -0.0089  1.7623
 1975TIP3    H2 5932   3.310   5.308   3.057  1.2096  1.5848  1.3192
 1976TIP3   OH2 5933   1.951   5.050   1.664 -0.2278  0.0711 -0.1367
 1976TIP3    H1 5934   1.894   5.119   1.629 -0.0177 -0.8332 -2.4785
 1976TIP3    H2 5935   2.036   5.093   1.674 -0.4536  0.5243 -0.1442
 1977TIP3   OH2 5936   2.619   2.566   1.568 -0.1036  0.5016  0.6854
 1977TIP3    H1 5937   2.602   2.529   1.655 -1.5738  2.8342  1.4765
 1977TIP3    H2 5938   2.553   2.525   1.512  1.5731 -1.9034  0.2797
 1978TIP3   OH2 5939   3.066   1.629   0.652 -0.1795  0.3075  0.1956
 1978TIP3    H1 5940   3.058   1.573   0.729  0.4471 -1.2121 -0.8111
 1978TIP3    H2 5941   2.980   1.627   0.612 -0.5866  1.3228  0.9717
 1979TIP3   OH2 5942   4.749   4.729   0.200  0.2691  0.1981  0.0387
 1979TIP3    H1 5943   4.691   4.727   0.276 -1.3526 -1.7025 -1.1543
 1979TIP3    H2 5944   4.820   4.669   0.221 -0.5260 -0.8386 -0.1601
 1980TIP3   OH2 5945   1.069   0.271   0.257  0.2428 -0.1258  0.5440
 1980TIP3    H1 5946   1.092   0.179   0.265  1.0840  0.0964  0.8163
 1980TIP3    H2 5947   1.139   0.309   0.203  0.2390  0.4688  0.9465
 1981TIP3   OH2 5948   2.309   5.178   4.656 -0.1583 -0.2165 -0.0283
 1981TIP3    H1 5949   2.357   5.176   4.574 -1.2234  1.9000 -0.7804
 1981TIP3    H2 5950   2.376   5.172   4.724  0.8941 -0.1445 -1.0463
 1982TIP3   OH2 5951   1.393   2.593   3.072  0.2024  0.0419  0.0988
 1982TIP3    H1 5952   1.443   2.666   3.034 -0.9905  0.7600 -0.1531
 1982TIP3    H2 5953   1.414   2.595   3.165  1.3310 -0.2484 -0.1332
 1983TIP3   OH2 5954   4.106   0.234   2.722  0.9633 -0.3270 -0.2050
 1983TIP3    H1 5955   4.173   0.299   2.697  1.9332 -1.5497 -0.8879
 1983TIP3    H2 5956   4.137   0.197   2.804  1.2810 -1.0843 -0.6561
 1984TIP3   OH2 5957   1.007   4.356   4.602 -0.3947 -0.4756  0.2750
 1984TIP3    H1 5958   0.949   4.279   4.604  1.6856 -2.1183  0.4387
 1984TIP3    H2 5959   1.041   4.359   4.513  1.2268 -1.1102  0.8399
 1985TIP3   OH2 5960   0.726   5.018   3.352 -0.2000 -0.2201 -0.2984
 1985TIP3    H1 5961   0.663   5.069   3.301  0.1579  0.2803 -0.2521
 1985TIP3    H2 5962   0.780   4.973   3.288 -0.5275 -0.5631 -0.3394
 1986TIP3   OH2 5963   1.284   5.760   0.079  0.1052 -0.4866  0.5275
 1986TIP3    H1 5964   1.250   5.828   0.020 -0.6729 -1.0578  0.3010
 1986TIP3    H2 5965   1.302   5.686   0.022  0.3163 -0.7047  0.8742
 1987TIP3   OH2 5966   3.034   4.238   4.731 -0.3884  0.1576  0.3829
 1987TIP3    H1 5967   3.025   4.144   4.749 -1.7892  0.1351 -0.2877
 1987TIP3    H2 5968   2.944   4.270   4.727  0.0397  1.2944 -0.6159
 1988TIP3   OH2 5969   3.575   4.059   3.315  0.4824  0.2775 -0.4617
 1988TIP3    H1 5970   3.641   4.099   3.258  1.2116 -0.8752 -0.4589
 1988TIP3    H2 5971   3.565   3.971   3.281  1.6809 -0.7945  1.7605
 1989TIP3   OH2 5972   4.110   0.958   3.776  0.1456  0.0581  0.0672
 1989TIP3    H1 5973   4.050   0.913   3.716 -0.5938  0.3595  0.5716
 1989TIP3    H2 5974   4.113   1.048   3.744  0.0184  0.1373  0.2772
 1990TIP3   OH2 5975   2.809   5.222   3.957 -0.1821 -0.2857  1.0327
 1990TIP3    H1 5976   2.831   5.130   3.972 -0.1780 -0.7095 -1.1426
 1990TIP3    H2 5977   2.879   5.254   3.899 -2.6348 -0.3793 -2.2966
 1991TIP3   OH2 5978   1.671   4.224   0.175 -0.8035 -0.5265  0.1960
 1991TIP3    H1 5979   1.717   4.246   0.257  0.4854 -0.8237 -0.4172
 1991TIP3    H2 5980   1.579   4.224   0.199 -0.5556  0.8797  1.3030
 1992TIP3   OH2 5981   0.261   3.841   3.970 -0.0279 -0.8854  0.3615
 1992TIP3    H1 5982   0.217   3.924   3.985 -1.9713 -1.4630 -1.5452
 1992TIP3    H2 5983   0.290   3.845   3.879  1.1484 -1.7459  0.6674
 1993TIP3   OH2 5984   4.158   1.387   1.036  0.2324 -0.7476  0.3233
 1993TIP3    H1 5985   4.091   1.451   1.012  1.5945  0.8914  0.6931
 1993TIP3    H2 5986   4.214   1.434   1.098  0.0497 -3.0200  2.3610
 1994TIP3   OH2 5987   6.131   2.921   1.624 -0.4078  0.4275 -0.1713
 1994TIP3    H1 5988   6.224   2.936   1.641 -0.1008 -0.6421 -0.8008
 1994TIP3    H2 5989   6.108   2.846   1.679 -0.9800  0.8537  0.1890
 1995TIP3   OH2 5990   4.030   4.142   1.387  0.0329  0.0389  0.3098
 1995TIP3    H1 5991   4.105   4.201   1.389  0.6654 -0.7819  1.1875
 1995TIP3    H2 5992   3.967   4.187   1.330  1.3470  0.5240 -0.8343
 1996TIP3   OH2 5993   5.129   5.691   1.832 -0.0078 -0.9713 -0.1464
 1996TIP3    H1 5994   5.084   5.633   1.772  0.6460 -1.2526 -0.3663
 1996TIP3    H2 5995   5.218   5.657   1.838 -0.3857 -1.7509  2.0051
 1997TIP3   OH2 5996   1.961   2.825   1.407 -0.7688 -0.3159 -0.3809
 1997TIP3    H1 5997   1.959   2.791   1.496 -0.7256  1.3941  0.3214
 1997TIP3    H2 5998   1.880   2.793   1.367 -1.3019 -0.2662  0.6227
 1998TIP3   OH2 5999   4.004   2.620   1.175 -0.2229  0.3010 -0.2281
 1998TIP3    H1 6000   3.957   2.703   1.173  0.6126  0.7818 -0.3127
 1998TIP3    H2 6001   4.033   2.606   1.085  0.8706  0.6554  0.0492
 1999TIP3   OH2 6002   1.912   4.424   0.307  0.2947  0.5099 -0.1148
 1999TIP3    H1 6003   1.992   4.380   0.280  0.3761  0.0093  0.8798
 1999TIP3    H2 6004   1.914   4.508   0.261  2.3569  1.3287  1.2867
 2000TIP3   OH2 6005   5.287   0.257   4.858  0.2764  0.1108 -0.2597
 2000TIP3    H1 6006   5.340   0.187   4.894  0.9264  0.4936 -0.4506
 2000TIP3    H2 6007   5.345   0.303   4.797  0.5981  2.1950  1.5092
 2001TIP3   OH2 6008   3.749   4.108   1.127  0.2712 -0.2664 -0.2853
 2001TIP3    H1 6009   3.755   4.020   1.088  0.5674 -0.3157 -0.1333
 2001TIP3    H2 6010   3.706   4.093   1.211  0.2146 -0.2504 -0.3116
 2002TIP3   OH2 6011   4.174   2.589   4.973 -0.0769  0.0847 -0.4132
 2002TIP3    H1 6012   4.180   2.493   4.979 -0.0261  0.0542 -0.8878
 2002TIP3    H2 6013   4.236   2.621   5.039 -0.4733 -0.2064  0.1089
 2003TIP3   OH2 6014   2.258   1.155   4.895 -0.3455  0.2449  0.2879
 2003TIP3    H1 6015   2.172   1.118   4.873  0.3564 -1.6735  0.5828
 2003TIP3    H2 6016   2.318   1.081   4.890  1.6042  1.8109 -1.4413
 2004TIP3   OH2 6017   3.076   0.835   0.984  0.3017  0.4716  0.3164
 2004TIP3    H1 6018   3.082   0.930   0.981  0.9819  0.4196 -0.7445
 2004TIP3    H2 6019   3.166   0.805   0.995  0.6815 -0.0904 -3.0763
 2005TIP3   OH2 6020   3.971   5.212   3.280 -0.2683  0.5043 -0.5133
 2005TIP3    H1 6021   3.888   5.235   3.239  0.4747 -0.3252 -2.6059
 2005TIP3    H2 6022   4.038   5.254   3.226  0.7260  0.7108  0.8075
 2006TIP3   OH2 6023   3.258   0.848   2.212  0.4107  0.6254  0.1156
 2006TIP3    H1 6024   3.247   0.786   2.140  1.3112  1.9262 -1.1808
 2006TIP3    H2 6025   3.345   0.885   2.199  0.2756  1.4652  1.4334
 2007TIP3   OH2 6026   2.859   1.051   4.584 -0.0240 -0.2479  0.3361
 2007TIP3    H1 6027   2.852   0.966   4.542 -0.1562  0.4079 -1.0170
 2007TIP3    H2 6028   2.840   1.114   4.515 -1.5890  0.8472  1.6805
 2008TIP3   OH2 6029   1.565   0.257   2.314 -0.5673 -0.3383  0.1630
 2008TIP3    H1 6030   1.659   0.263   2.330 -0.6140  0.9182  0.0199
 2008TIP3    H2 6031   1.529   0.229   2.398 -0.2278  0.7647  0.6980
 2009TIP3   OH2 6032   1.065   3.438   2.345 -0.4176  0.1921 -0.2427
 2009TIP3    H1 6033   1.004   3.475   2.410 -1.1165 -0.8621 -0.2683
 2009TIP3    H2 6034   1.149   3.477   2.366 -0.9624  1.1268  0.2677
 2010TIP3   OH2 6035   2.194   2.984   4.454  0.0873  0.0418 -0.1027
 2010TIP3    H1 6036   2.101   2.964   4.446 -0.1508  0.9451  0.1924
 2010TIP3    H2 6037   2.236   2.900   4.469 -0.5250 -0.5309 -1.4698
 2011TIP3   OH2 6038   4.601   0.741   3.348 -0.5395  0.0575 -0.5900
 2011TIP3    H1 6039   4.670   0.730   3.414  0.6177 -0.7162 -1.8607
 2011TIP3    H2 6040   4.537   0.798   3.390 -1.1099 -2.3398  2.1444
 2012TIP3   OH2 6041   0.024   2.896   4.979  0.4136 -0.3021 -0.8480
 2012TIP3    H1 6042   0.098   2.933   5.026  0.0059 -1.2012  0.5591
 2012TIP3    H2 6043   0.053   2.809   4.952  0.5744  0.1240 -2.1573
 2013TIP3   OH2 6044   1.784   3.522   3.573  0.2294  0.1416  0.6019
 2013TIP3    H1 6045   1.848   3.455   3.549 -0.2706 -0.1842  0.1614
 2013TIP3    H2 6046   1.837   3.601   3.587  0.6708  0.0498 -0.4367
 2014TIP3   OH2 6047   1.218   4.350   3.798 -0.8805 -0.6183  0.1699
 2014TIP3    H1 6048   1.228   4.284   3.729 -1.1668 -0.2649 -0.2180
 2014TIP3    H2 6049   1.176   4.425   3.754 -0.3854 -0.1034  0.5590
 2015TIP3   OH2 6050   0.464   1.729   3.784  0.5415 -0.7844  0.0390
 2015TIP3    H1 6051   0.406   1.717   3.708  0.5517 -0.9787  0.0619
 2015TIP3    H2 6052   0.406   1.754   3.855  0.6326  0.3369 -0.2546
 2016TIP3   OH2 6053   4.526   2.880   4.416  0.3045  0.0825 -0.1739
 2016TIP3    H1 6054   4.493   2.794   4.441 -0.4596  0.2252 -0.6569
 2016TIP3    H2 6055   4.604   2.862   4.365 -0.0916 -0.3505 -0.6359
 2017TIP3   OH2 6056   1.412   1.176   5.078  0.1722 -0.3001 -0.4040
 2017TIP3    H1 6057   1.352   1.172   5.153  1.1542  0.7411  0.4663
 2017TIP3    H2 6058   1.358   1.208   5.006 -0.5820 -0.4749  0.0694
 2018TIP3   OH2 6059   2.010   3.494   0.349  0.2114  0.0379 -0.5228
 2018TIP3    H1 6060   1.958   3.471   0.272 -0.4867 -0.3695  0.0563
 2018TIP3    H2 6061   1.995   3.588   0.361 -0.9099 -0.1767 -0.0167
 2019TIP3   OH2 6062   2.751   0.574   4.529  0.1747 -0.8952 -0.6567
 2019TIP3    H1 6063   2.722   0.578   4.437 -0.9435 -1.4898 -0.3564
 2019TIP3    H2 6064   2.808   0.650   4.539 -2.1741  1.0832 -1.0369
 2020TIP3   OH2 6065   5.293   1.215   4.735 -0.5457 -0.0282  0.0660
 2020TIP3    H1 6066   5.372   1.212   4.788 -0.2864  0.4658 -0.2908
 2020TIP3    H2 6067   5.258   1.303   4.747 -0.2894  0.2105 -0.8631
 2021TIP3   OH2 6068   0.959   5.731   2.097  0.0804 -0.1519 -0.3237
 2021TIP3    H1 6069   1.048   5.738   2.062 -0.3857  1.0738 -1.3230
 2021TIP3    H2 6070   0.932   5.821   2.112 -0.6513 -0.5575  0.9154
 2022TIP3   OH2 6071   5.770   4.128   0.638 -0.8206 -0.0755 -0.6429
 2022TIP3    H1 6072   5.752   4.123   0.732  0.6687 -2.2311 -0.4171
 2022TIP3    H2 6073   5.727   4.209   0.610 -1.1016  0.7462  1.9224
 2023TIP3   OH2 6074   5.960   5.149   4.808  0.1104 -0.4553  0.3561
 2023TIP3    H1 6075   5.970   5.094   4.731 -0.0408 -0.8489  0.6157
 2023TIP3    H2 6076   6.019   5.223   4.793  0.0715 -0.5226 -0.1382
 2024TIP3   OH2 6077   4.998   2.494   3.452  0.2709  0.8848 -0.4745
 2024TIP3    H1 6078   5.081   2.464   3.416  0.2757  0.7387 -0.3419
 2024TIP3    H2 6079   4.932   2.438   3.412  0.2010  1.2093 -0.8279
 2025TIP3   OH2 6080   5.485   5.853   0.653 -1.0128 -0.9325  0.5332
 2025TIP3    H1 6081   5.569   5.887   0.621 -0.3606 -2.5164  0.4768
 2025TIP3    H2 6082   5.478   5.887   0.742 -0.8853  0.1660  0.1459
 2026TIP3   OH2 6083   3.995   4.317   4.258 -0.4807 -0.0142  0.5445
 2026TIP3    H1 6084   3.925   4.324   4.192  0.1009  0.6380 -0.0225
 2026TIP3    H2 6085   4.028   4.406   4.267 -1.2231  0.1070  2.4928
 2027TIP3   OH2 6086   1.092   0.986   1.770 -0.3576 -0.4060  0.2258
 2027TIP3    H1 6087   1.095   0.895   1.799  0.4057 -0.0720  1.2629
 2027TIP3    H2 6088   1.031   0.986   1.697  1.0495 -2.1000 -1.0372
 2028TIP3   OH2 6089   1.094   3.772   0.910 -0.1590  0.4151 -0.1881
 2028TIP3    H1 6090   1.028   3.706   0.890  0.0849  0.3913 -0.9439
 2028TIP3    H2 6091   1.088   3.835   0.838  0.0405  0.8849  0.1957
 2029TIP3   OH2 6092   0.798   3.047   4.686  0.3417  0.0479  0.3173
 2029TIP3    H1 6093   0.784   3.094   4.603 -0.0040  0.1108  0.4107
 2029TIP3    H2 6094   0.830   3.114   4.746  0.1600  0.0968  0.3599
 2030TIP3   OH2 6095   6.263   1.143   0.828 -0.1534  0.1574  0.2087
 2030TIP3    H1 6096   6.247   1.237   0.837 -0.8342  0.0149  0.5609
 2030TIP3    H2 6097   6.322   1.122   0.899  1.2904  0.6050 -0.8192
 2031TIP3   OH2 6098   2.264   1.082   3.405 -0.4688 -0.3693  0.0199
 2031TIP3    H1 6099   2.256   0.987   3.402 -0.9001 -0.3728  0.9678
 2031TIP3    H2 6100   2.322   1.104   3.332 -0.8038 -1.3080 -0.5418
 2032TIP3   OH2 6101   1.852   3.057   3.791  0.1953  0.5237 -0.6259
 2032TIP3    H1 6102   1.910   3.036   3.717 -0.4124  0.3800 -1.0653
 2032TIP3    H2 6103   1.837   3.151   3.783  0.4094  0.5704 -0.4806
 2033TIP3   OH2 6104   6.260   1.467   1.620 -0.7824  0.0838 -0.2181
 2033TIP3    H1 6105   6.334   1.527   1.619 -1.9030  1.5188 -0.0122
 2033TIP3    H2 6106   6.183   1.523   1.624 -1.8724 -1.3761  0.3632
 2034TIP3   OH2 6107   5.360   3.432   5.036 -0.2847  0.0695 -0.5297
 2034TIP3    H1 6108   5.322   3.439   4.949 -1.2754  2.3353  0.0124
 2034TIP3    H2 6109   5.446   3.474   5.029 -0.6691  0.9134 -0.2666
 2035TIP3   OH2 6110   3.759   3.123   0.764 -0.0019  0.0472 -0.4066
 2035TIP3    H1 6111   3.837   3.095   0.716  0.2910  0.1579  0.0020
 2035TIP3    H2 6112   3.754   3.217   0.750  0.1306  0.0920 -0.1500
 2036TIP3   OH2 6113   4.086   5.384   0.217 -0.2916  0.2722 -0.3011
 2036TIP3    H1 6114   3.990   5.380   0.218 -0.2585 -1.0368  0.5485
 2036TIP3    H2 6115   4.110   5.352   0.130 -0.5951 -2.3464  0.4889
 2037TIP3   OH2 6116   4.091   4.717   3.265 -0.0599  0.3833  0.0180
 2037TIP3    H1 6117   4.011   4.678   3.301 -1.5262  2.7271 -0.5483
 2037TIP3    H2 6118   4.154   4.645   3.267 -2.7572 -2.2747 -1.6716
 2038TIP3   OH2 6119   2.531   0.840   1.514 -0.2630 -0.0946  0.3026
 2038TIP3    H1 6120   2.593   0.906   1.483 -0.6440 -0.6880 -1.8649
 2038TIP3    H2 6121   2.579   0.757   1.506 -0.3492 -0.2876  1.4875
 2039TIP3   OH2 6122   4.963   3.746   0.097  0.1266 -0.3992  0.5212
 2039TIP3    H1 6123   5.032   3.805   0.128  0.6913 -0.4432 -0.6041
 2039TIP3    H2 6124   5.007   3.687   0.035 -0.8370 -0.6661  0.0677
 2040TIP3   OH2 6125   2.152   2.312   4.575  0.6818 -0.1591 -0.5220
 2040TIP3    H1 6126   2.119   2.302   4.486  1.0357  1.1983 -0.8258
 2040TIP3    H2 6127   2.089   2.371   4.617  2.2972  2.0036 -0.9326
 2041TIP3   OH2 6128   6.070   3.974   3.213  0.9690 -0.2190  0.0528
 2041TIP3    H1 6129   6.032   3.925   3.286  0.6016 -0.7022 -0.4482
 2041TIP3    H2 6130   5.998   3.980   3.149  1.2049  0.4296 -0.1536
 2042TIP3   OH2 6131   4.154   1.739   3.866 -0.0390  0.0438 -0.0453
 2042TIP3    H1 6132   4.079   1.685   3.840  0.3284 -0.7172  0.4385
 2042TIP3    H2 6133   4.184   1.700   3.948  1.0314  0.2015 -0.3509
 2043TIP3   OH2 6134   3.831   5.807   2.361  0.1019 -0.1858  0.2074
 2043TIP3    H1 6135   3.827   5.717   2.395 -0.7889 -1.1298 -2.1746
 2043TIP3    H2 6136   3.745   5.821   2.320  0.0201  1.9877  0.9750
 2044TIP3   OH2 6137   0.237   2.648   4.370  0.2878  0.0192  0.0861
 2044TIP3    H1 6138   0.258   2.629   4.279 -0.6249  1.8571 -0.5477
 2044TIP3    H2 6139   0.316   2.623   4.418  1.7941  1.3764 -1.5234
 2045TIP3   OH2 6140   2.910   2.563   1.128  0.4394 -0.0037 -0.3565
 2045TIP3    H1 6141   2.940   2.508   1.200 -0.0223  0.1989  0.0051
 2045TIP3    H2 6142   2.859   2.632   1.172 -1.2869 -0.8249 -0.9839
 2046TIP3   OH2 6143   4.694   5.068   0.820 -0.4708  0.1126 -0.3400
 2046TIP3    H1 6144   4.785   5.093   0.839 -0.0926 -0.2240 -1.6213
 2046TIP3    H2 6145   4.700   4.978   0.790 -1.0109  0.5669 -1.9191
 2047TIP3   OH2 6146   3.293   0.468   1.386 -0.4910 -0.2977  0.4705
 2047TIP3    H1 6147   3.240   0.548   1.389  1.0434  0.8017 -0.3093
 2047TIP3    H2 6148   3.380   0.498   1.359  0.3313 -2.1415  0.9124
 2048TIP3   OH2 6149   0.692   1.108   1.628  0.8798 -0.4446  0.5198
 2048TIP3    H1 6150   0.714   1.201   1.616 -0.7220  0.2450  2.3309
 2048TIP3    H2 6151   0.602   1.101   1.597  1.0159 -1.4094  0.3396
 2049TIP3   OH2 6152   2.410   0.800   4.160  0.6394  0.0608 -0.2745
 2049TIP3    H1 6153   2.378   0.755   4.238  0.2482  1.5466  0.4554
 2049TIP3    H2 6154   2.494   0.837   4.187 -0.0247  1.5397 -0.1922
 2050TIP3   OH2 6155   5.819   3.041   4.107 -0.5918 -0.6453  0.3707
 2050TIP3    H1 6156   5.861   2.990   4.039 -1.3089  1.0667 -1.4726
 2050TIP3    H2 6157   5.739   3.075   4.066 -0.0876  2.0254  1.3869
 2051TIP3   OH2 6158   4.549   5.720   0.333  0.6929  0.4916 -0.0410
 2051TIP3    H1 6159   4.590   5.748   0.251  1.4208  0.4733  0.3011
 2051TIP3    H2 6160   4.479   5.661   0.307 -0.1755  1.7879 -0.7219
 2052TIP3   OH2 6161   4.837   5.702   1.891  0.2261 -0.7467  0.0511
 2052TIP3    H1 6162   4.917   5.727   1.937  1.2058 -1.5217 -1.1950
 2052TIP3    H2 6163   4.847   5.737   1.803 -0.4673 -1.4867 -0.3414
 2053TIP3   OH2 6164   2.773   4.313   4.340  0.1455  0.1339 -0.1379
 2053TIP3    H1 6165   2.839   4.323   4.408  0.1054  0.1960 -0.1077
 2053TIP3    H2 6166   2.728   4.231   4.363 -0.7576  0.8283  0.6878
 2054TIP3   OH2 6167   0.338   0.845   4.420  0.3616  0.5687  0.6325
 2054TIP3    H1 6168   0.247   0.842   4.449 -0.3456  0.8936 -1.3991
 2054TIP3    H2 6169   0.360   0.755   4.398  0.0261  0.6982 -0.2705
 2055TIP3   OH2 6170   1.223   1.181   1.055 -0.0851 -0.1973  0.4717
 2055TIP3    H1 6171   1.189   1.189   1.143 -0.5118  1.1378  0.2102
 2055TIP3    H2 6172   1.154   1.216   0.999  1.0047  0.9392 -0.2063
 2056TIP3   OH2 6173   5.322   2.301   4.057 -0.3598  0.1915 -0.4623
 2056TIP3    H1 6174   5.343   2.270   4.145 -2.4498 -0.2855 -0.0574
 2056TIP3    H2 6175   5.406   2.327   4.019  0.8301 -1.3190  0.9979
 2057TIP3   OH2 6176   0.029   3.452   3.011  0.4814  0.0367 -0.0988
 2057TIP3    H1 6177  -0.003   3.504   2.937  3.0174 -0.0058 -1.3154
 2057TIP3    H2 6178   0.038   3.364   2.976 -0.2333 -0.4601  0.8986
 2058TIP3   OH2 6179   4.187   1.189   3.549  0.2781  0.2077  0.7272
 2058TIP3    H1 6180   4.179   1.216   3.457 -0.5317  0.9624  0.9999
 2058TIP3    H2 6181   4.281   1.181   3.564  0.5055  1.8066  0.3121
 2059TIP3   OH2 6182   6.091   1.918   3.235  0.3994  0.3568  0.1155
 2059TIP3    H1 6183   6.021   1.858   3.261  0.6350  0.3487  0.7295
 2059TIP3    H2 6184   6.100   1.978   3.309  0.5048  0.8493 -0.2896
 2060TIP3   OH2 6185   2.421   3.261   1.959  0.0458  0.2898 -0.3418
 2060TIP3    H1 6186   2.326   3.249   1.965 -0.2342  2.5142  0.5983
 2060TIP3    H2 6187   2.453   3.180   1.919 -2.0837 -1.0809  0.5361
 2061TIP3   OH2 6188   2.104   4.129   3.359  0.0468 -0.4279 -0.6309
 2061TIP3    H1 6189   2.032   4.191   3.365  0.4581  0.2115 -1.9607
 2061TIP3    H2 6190   2.181   4.183   3.341  0.5370 -1.2597 -1.0822
 2062TIP3   OH2 6191   1.372   4.834   4.367  0.5438 -0.0674 -0.5061
 2062TIP3    H1 6192   1.351   4.742   4.351 -0.6087  0.3883 -1.8361
 2062TIP3    H2 6193   1.428   4.859   4.293  1.1623  0.2219  0.0464
 2063TIP3   OH2 6194   2.653   4.010   0.758  0.3645 -0.5447 -0.5865
 2063TIP3    H1 6195   2.591   4.032   0.827 -0.9267 -2.3466 -1.1116
 2063TIP3    H2 6196   2.732   4.060   0.780 -1.2139  1.8512  0.0877
 2064TIP3   OH2 6197   1.239   3.337   3.962 -0.0768 -0.1287  0.0689
 2064TIP3    H1 6198   1.165   3.333   3.901  0.9071 -0.6435 -1.1403
 2064TIP3    H2 6199   1.312   3.299   3.913  0.8597 -0.1487  1.4319
 2065TIP3   OH2 6200   4.506   2.228   2.568 -0.6830  0.1617  0.2920
 2065TIP3    H1 6201   4.419   2.215   2.531  0.1764  0.9008 -2.1498
 2065TIP3    H2 6202   4.553   2.147   2.546  0.1552  1.0424 -1.2505
 2066TIP3   OH2 6203   3.050   3.926   0.617  0.2123  0.0847 -0.7470
 2066TIP3    H1 6204   2.986   3.979   0.663  0.7376 -0.2717  0.4386
 2066TIP3    H2 6205   3.017   3.836   0.625  1.1373 -0.1773  0.4123
 2067TIP3   OH2 6206   6.199   1.130   3.916  0.4155  0.3997 -0.3602
 2067TIP3    H1 6207   6.184   1.224   3.927  2.1876  0.6371  0.4669
 2067TIP3    H2 6208   6.291   1.125   3.888  0.2488 -1.0758 -0.6916
 2068TIP3   OH2 6209   3.786   3.797   1.630  0.5249  0.3371  0.6532
 2068TIP3    H1 6210   3.857   3.837   1.581 -0.8134  1.0183 -0.8118
 2068TIP3    H2 6211   3.754   3.866   1.688  1.6691 -0.2717  2.0858
 2069TIP3   OH2 6212   0.794   2.789   1.532  0.3370 -0.2000 -0.3543
 2069TIP3    H1 6213   0.879   2.761   1.567  1.1173  2.2431 -0.1407
 2069TIP3    H2 6214   0.808   2.793   1.437  0.8107  1.1589 -0.2470
 2070TIP3   OH2 6215   6.232   3.892   2.823  0.2037 -0.4664  0.0697
 2070TIP3    H1 6216   6.327   3.885   2.810  0.1237 -1.5838 -0.0650
 2070TIP3    H2 6217   6.209   3.977   2.786  1.2420  0.1118  0.6926
 2071TIP3   OH2 6218   3.270   5.340   3.387  0.3938  0.2751 -0.0805
 2071TIP3    H1 6219   3.337   5.409   3.396  0.1885  0.6789 -1.3525
 2071TIP3    H2 6220   3.190   5.380   3.420  0.5904  0.1026  0.6149
 2072TIP3   OH2 6221   4.254   4.095   3.238 -0.6754  0.4528 -0.0710
 2072TIP3    H1 6222   4.333   4.093   3.293 -1.3011 -0.5098  0.8319
 2072TIP3    H2 6223   4.287   4.113   3.150  0.5529  0.0627  0.2869
 2073TIP3   OH2 6224   5.941   0.051   1.701  0.1802 -1.0032 -0.0535
 2073TIP3    H1 6225   5.934   0.146   1.710  0.9554 -0.9406 -0.0141
 2073TIP3    H2 6226   5.950   0.018   1.790  1.3234 -0.9777 -0.1490
 2074TIP3   OH2 6227   4.858   4.434   3.098  0.3026 -0.2674  0.4177
 2074TIP3    H1 6228   4.860   4.521   3.058  0.8966 -0.1220  0.7417
 2074TIP3    H2 6229   4.771   4.400   3.079  0.1875  0.2584 -0.0119
 2075TIP3   OH2 6230   3.245   3.956   4.881  0.2148 -0.0789 -0.3853
 2075TIP3    H1 6231   3.332   3.993   4.868  1.4506 -2.2855  0.8707
 2075TIP3    H2 6232   3.204   4.013   4.945  1.4087  0.0886  0.2649
 2076TIP3   OH2 6233   2.397   1.937   0.529 -0.2223  0.3930 -0.5163
 2076TIP3    H1 6234   2.356   2.020   0.504  0.6581  1.3730  1.0811
 2076TIP3    H2 6235   2.354   1.914   0.611  0.8130  0.2544 -0.0002
 2077TIP3   OH2 6236   4.326   5.137   3.515 -0.1779  0.3766  0.4446
 2077TIP3    H1 6237   4.272   5.077   3.464  2.9896 -1.0397 -1.5197
 2077TIP3    H2 6238   4.382   5.080   3.568  1.1885  1.6447  0.4426
 2078TIP3   OH2 6239   0.643   1.539   2.398  0.9589 -0.0480 -0.1624
 2078TIP3    H1 6240   0.593   1.487   2.460  0.5977  0.1560 -0.2788
 2078TIP3    H2 6241   0.577   1.577   2.340  1.2015  0.6874  0.0313
 2079TIP3   OH2 6242   3.719   0.217   3.184 -0.0131 -0.4800 -0.2451
 2079TIP3    H1 6243   3.626   0.213   3.206 -0.6014  2.0499 -1.7921
 2079TIP3    H2 6244   3.727   0.166   3.103 -0.6372  1.2645 -1.4761
 2080TIP3   OH2 6245   3.488   2.572   0.070  0.3308  0.5818 -0.5293
 2080TIP3    H1 6246   3.493   2.484   0.033  1.1032 -0.6701  2.3219
 2080TIP3    H2 6247   3.397   2.581   0.098  0.1697  0.8683 -1.1118
 2081TIP3   OH2 6248   4.584   5.168   4.541  0.7185 -0.5535 -0.3901
 2081TIP3    H1 6249   4.662   5.112   4.542  3.9208  3.4855 -0.9229
 2081TIP3    H2 6250   4.588   5.217   4.624 -1.0864  0.0546 -0.6064
 2082TIP3   OH2 6251   3.662   2.671   0.794 -0.4934 -0.0682  0.0477
 2082TIP3    H1 6252   3.697   2.588   0.826  1.3298  0.4858 -0.4460
 2082TIP3    H2 6253   3.650   2.724   0.873 -1.1298 -0.5690  0.3032
 2083TIP3   OH2 6254   5.815   2.912   4.796  0.4983 -0.1072  0.2790
 2083TIP3    H1 6255   5.782   2.964   4.723  1.2262 -1.0074 -0.7266
 2083TIP3    H2 6256   5.812   2.822   4.765  1.3641 -0.4590  1.1440
 2084TIP3   OH2 6257   0.092   4.664   5.131 -0.1658 -0.1463  0.2136
 2084TIP3    H1 6258   0.054   4.577   5.140  0.8385 -0.5266  1.0325
 2084TIP3    H2 6259   0.185   4.648   5.113  0.1472  0.7523  0.9603
 2085TIP3   OH2 6260   1.916   5.490   3.670 -0.5376  0.1818 -0.3353
 2085TIP3    H1 6261   1.930   5.564   3.730  1.7019 -0.9724  0.6573
 2085TIP3    H2 6262   1.984   5.500   3.603 -0.7248 -0.5629 -0.6423
 2086TIP3   OH2 6263   1.914   5.721   3.241  0.1267 -0.1721 -0.5705
 2086TIP3    H1 6264   1.923   5.733   3.336 -2.9392  0.9114 -0.3081
 2086TIP3    H2 6265   1.952   5.801   3.203  1.0005 -0.4316 -0.2814
 2087TIP3   OH2 6266   3.791   0.422   1.889  0.0232  0.7991 -0.1475
 2087TIP3    H1 6267   3.709   0.435   1.841 -0.1506  1.4490  0.2996
 2087TIP3    H2 6268   3.771   0.452   1.978  0.7319  0.9142 -0.0224
 2088TIP3   OH2 6269   6.018   5.838   2.794 -0.2779 -0.1838  0.6862
 2088TIP3    H1 6270   6.080   5.906   2.766 -1.8688  1.3379  0.6867
 2088TIP3    H2 6271   6.056   5.756   2.762  0.2121  1.0197 -2.0699
 2089TIP3   OH2 6272   5.742   5.274   5.152  0.3163 -0.5035 -0.5321
 2089TIP3    H1 6273   5.780   5.234   5.230 -0.6901 -0.9947 -0.2836
 2089TIP3    H2 6274   5.685   5.207   5.116 -0.6651  0.3720 -0.6389
 2090TIP3   OH2 6275   0.181   3.769   4.969 -0.0242 -0.0079 -0.0819
 2090TIP3    H1 6276   0.194   3.708   5.041 -1.7412 -1.6199 -1.0553
 2090TIP3    H2 6277   0.172   3.855   5.011  2.0934 -0.4197  1.3374
 2091TIP3   OH2 6278   1.370   3.432   3.349 -0.2837 -0.1299  0.0055
 2091TIP3    H1 6279   1.396   3.416   3.258 -2.1490  0.6571 -0.7284
 2091TIP3    H2 6280   1.277   3.455   3.343 -1.0095 -1.9899  2.3141
 2092TIP3   OH2 6281   2.517   3.990   0.982  0.3224  0.2874 -0.2099
 2092TIP3    H1 6282   2.506   4.077   1.020 -1.2871  0.0231  0.0082
 2092TIP3    H2 6283   2.439   3.941   1.011  0.0121 -0.5103 -2.2548
 2093TIP3   OH2 6284   3.261   0.379   4.998 -0.6353  0.1666 -0.1880
 2093TIP3    H1 6285   3.314   0.385   5.077  0.3360 -1.1390 -0.7087
 2093TIP3    H2 6286   3.302   0.442   4.938  1.3477 -1.8618 -1.1053
 2094TIP3   OH2 6287   6.206   5.624   2.303 -0.1676 -0.3654  0.1394
 2094TIP3    H1 6288   6.249   5.606   2.387 -0.1820 -2.4487 -0.2648
 2094TIP3    H2 6289   6.277   5.626   2.239 -0.2104  0.7486  0.0994
 2095TIP3   OH2 6290   0.887   0.550   4.977 -0.6306  0.0844  0.4507
 2095TIP3    H1 6291   0.834   0.517   4.904 -1.5875  0.5627  0.9198
 2095TIP3    H2 6292   0.919   0.635   4.947 -1.4068  0.4934  0.7512
 2096TIP3   OH2 6293   4.451   5.333   1.173  0.5030  0.0822 -0.1257
 2096TIP3    H1 6294   4.497   5.274   1.113  0.5141 -2.4167  2.1672
 2096TIP3    H2 6295   4.358   5.314   1.157  0.4924 -0.1421  0.1910
 2097TIP3   OH2 6296   0.355   2.297   1.128 -0.4528 -0.5429  0.1062
 2097TIP3    H1 6297   0.265   2.330   1.124 -0.3317  0.0558  1.5746
 2097TIP3    H2 6298   0.399   2.338   1.053 -0.8992  0.8490  0.5672
 2098TIP3   OH2 6299   3.105   2.926   3.236  0.3775 -0.1551  0.4440
 2098TIP3    H1 6300   3.115   2.884   3.322  0.9857 -1.0951 -0.0691
 2098TIP3    H2 6301   3.176   2.990   3.234  0.3394 -0.1027  0.6558
 2099TIP3   OH2 6302   0.848   5.040   2.484 -0.4096  0.1399  0.4232
 2099TIP3    H1 6303   0.762   5.070   2.454 -1.3323 -2.5483  0.0375
 2099TIP3    H2 6304   0.887   5.000   2.406  1.5651  1.9247  0.4093
 2100TIP3   OH2 6305   2.957   4.522   3.761 -0.0850 -1.0323  0.0130
 2100TIP3    H1 6306   2.883   4.476   3.721 -0.6300 -0.7703  0.6974
 2100TIP3    H2 6307   3.032   4.466   3.744 -0.5372 -1.5911 -0.1937
 2101TIP3   OH2 6308   3.151   5.831   0.358 -0.4950 -0.0296  0.2099
 2101TIP3    H1 6309   3.169   5.877   0.440  0.8981  0.8076 -0.5169
 2101TIP3    H2 6310   3.060   5.851   0.338 -0.9796 -0.6090  1.7581
 2102TIP3   OH2 6311   2.544   2.858   1.157 -0.6909 -0.1056 -0.9408
 2102TIP3    H1 6312   2.628   2.814   1.147 -0.2468  0.4827  0.0303
 2102TIP3    H2 6313   2.531   2.904   1.074  0.0336 -0.0628 -1.0362
 2103TIP3   OH2 6314   2.460   2.040   4.407 -0.4865  0.4831 -0.4754
 2103TIP3    H1 6315   2.484   2.058   4.317  0.3756 -1.2862 -0.6414
 2103TIP3    H2 6316   2.444   2.127   4.446  1.8337  1.4823 -1.5753
 2104TIP3   OH2 6317   4.142   0.891   4.637  0.2796  0.7533  0.0173
 2104TIP3    H1 6318   4.209   0.873   4.572  0.2107  0.0156  0.1422
 2104TIP3    H2 6319   4.059   0.871   4.593  0.1785  1.1071  0.0468
 2105TIP3   OH2 6320   5.282   1.753   0.236 -0.3171 -0.1166  0.3598
 2105TIP3    H1 6321   5.266   1.771   0.143 -2.0432 -1.1427  0.4214
 2105TIP3    H2 6322   5.235   1.822   0.282  1.5206  1.1050  0.5105
 2106TIP3   OH2 6323   0.997   2.529   1.027 -0.3457  0.7744 -0.5079
 2106TIP3    H1 6324   1.007   2.599   1.091 -1.9623 -1.0293  1.8857
 2106TIP3    H2 6325   1.034   2.451   1.070  0.0706 -0.1793 -2.4800
 2107TIP3   OH2 6326   5.770   5.520   0.486  0.2681  0.2959 -0.2650
 2107TIP3    H1 6327   5.778   5.474   0.570 -0.2772 -1.6484 -1.2138
 2107TIP3    H2 6328   5.676   5.525   0.470  0.3759 -0.2369 -1.1818
 2108TIP3   OH2 6329   6.029   5.480   0.485 -0.8664  0.1389  0.6120
 2108TIP3    H1 6330   5.933   5.486   0.478 -0.9052 -0.5691  0.5392
 2108TIP3    H2 6331   6.051   5.543   0.554 -1.5945 -1.1653  2.1199
 2109TIP3   OH2 6332   0.504   5.609   2.200 -0.2795 -0.3081  0.3650
 2109TIP3    H1 6333   0.554   5.557   2.264  0.2108 -0.5184 -0.1883
 2109TIP3    H2 6334   0.475   5.545   2.135 -1.4992 -0.2353  0.8048
 2110TIP3   OH2 6335   3.347   4.466   2.189 -0.2929 -0.0113  0.0983
 2110TIP3    H1 6336   3.299   4.386   2.168  1.6885 -1.0591 -0.7422
 2110TIP3    H2 6337   3.357   4.463   2.284 -1.9984  0.3218  0.3043
 2111TIP3   OH2 6338   5.710   0.716   4.557 -0.5062  0.3998 -0.7514
 2111TIP3    H1 6339   5.676   0.804   4.540 -0.4340  0.7591  0.8270
 2111TIP3    H2 6340   5.802   0.730   4.580 -0.9912  0.1587  1.4895
 2112TIP3   OH2 6341   3.470   2.277   1.123  0.2497  0.6422  0.7678
 2112TIP3    H1 6342   3.468   2.207   1.057 -0.8781 -1.3228  2.7454
 2112TIP3    H2 6343   3.418   2.347   1.084 -0.5445 -0.5241 -0.3770
 2113TIP3   OH2 6344   1.371   1.155   3.566  0.0982 -0.2977 -0.1249
 2113TIP3    H1 6345   1.345   1.159   3.658  0.5314 -0.8940  0.0326
 2113TIP3    H2 6346   1.372   1.061   3.546  0.7486 -0.2132 -0.5156
 2114TIP3   OH2 6347   3.624   0.114   3.603  0.7721 -0.2787  0.1352
 2114TIP3    H1 6348   3.713   0.080   3.603  0.4043 -1.2648  0.1806
 2114TIP3    H2 6349   3.568   0.038   3.619 -0.2756 -0.2343 -2.6212
 2115TIP3   OH2 6350   0.950   4.793   5.129 -0.2225 -0.2759  0.7932
 2115TIP3    H1 6351   0.862   4.826   5.114  0.0620  0.2470  0.2332
 2115TIP3    H2 6352   0.974   4.748   5.048  0.7447  1.2605  0.1682
 2116TIP3   OH2 6353   3.985   5.167   2.832  0.1215 -0.0237 -0.0304
 2116TIP3    H1 6354   3.905   5.160   2.780  2.0255 -1.7782 -2.9957
 2116TIP3    H2 6355   3.967   5.114   2.910 -1.5990 -0.3853 -0.6189
 2117TIP3   OH2 6356   3.867   3.084   4.919 -0.1814  0.2558 -0.5934
 2117TIP3    H1 6357   3.870   3.046   4.832  0.8534 -0.8962 -0.0901
 2117TIP3    H2 6358   3.817   3.020   4.971 -0.7077  0.8851 -0.3083
 2118TIP3   OH2 6359   5.916   2.939   1.875 -0.3408 -0.1054  0.4139
 2118TIP3    H1 6360   5.879   2.861   1.835 -0.2348 -1.5971  3.0005
 2118TIP3    H2 6361   5.874   3.012   1.830 -1.0793 -1.6411 -1.5016
 2119TIP3   OH2 6362   3.490   1.376   2.436 -0.3409  0.1996  0.8950
 2119TIP3    H1 6363   3.428   1.389   2.364 -1.2924 -1.2747  1.3871
 2119TIP3    H2 6364   3.564   1.331   2.397  0.2421  1.5363  0.3972
 2120TIP3   OH2 6365   2.996   5.737   0.740 -0.2073  0.1554 -0.0211
 2120TIP3    H1 6366   2.973   5.722   0.832 -0.8899  1.0194 -0.0376
 2120TIP3    H2 6367   2.945   5.814   0.715  0.7710  0.5592 -0.8281
 2121TIP3   OH2 6368   1.832   5.317   4.170 -0.0695 -0.3661 -0.0633
 2121TIP3    H1 6369   1.755   5.322   4.226 -1.1668 -2.4810 -1.2202
 2121TIP3    H2 6370   1.814   5.379   4.099 -1.4980 -1.8960 -1.1168
 2122TIP3   OH2 6371   0.728   3.003   2.862  0.3907 -0.1465 -0.2890
 2122TIP3    H1 6372   0.777   3.044   2.790 -0.5515 -0.4357 -1.1104
 2122TIP3    H2 6373   0.744   3.061   2.937  0.9911  0.4294 -0.8420
 2123TIP3   OH2 6374   4.811   5.541   4.659 -0.3820  0.6551  0.8474
 2123TIP3    H1 6375   4.806   5.629   4.621 -0.7984  0.0225 -0.6304
 2123TIP3    H2 6376   4.904   5.517   4.652 -0.8510 -0.5925 -2.5997
 2124TIP3   OH2 6377   4.324   1.571   3.413  0.0248 -0.2241  0.6003
 2124TIP3    H1 6378   4.284   1.651   3.379  1.9955  0.3405 -0.5199
 2124TIP3    H2 6379   4.288   1.562   3.501 -2.5264  0.2198 -0.3082
 2125TIP3   OH2 6380   2.603   0.429   4.104  0.1062 -0.3477  0.7000
 2125TIP3    H1 6381   2.629   0.372   4.176 -3.8166 -3.0932  0.2506
 2125TIP3    H2 6382   2.651   0.395   4.029  2.7990  1.3550  1.5057
 2126TIP3   OH2 6383   3.544   0.245   0.886  0.1615 -0.3422  0.3192
 2126TIP3    H1 6384   3.576   0.160   0.856  0.2483 -0.3473  0.4239
 2126TIP3    H2 6385   3.592   0.261   0.968  0.8134  0.2138 -0.1549
 2127TIP3   OH2 6386   4.001   5.154   2.551  0.0401  0.6486  0.2900
 2127TIP3    H1 6387   4.086   5.190   2.529  0.5844 -0.5263  0.3781
 2127TIP3    H2 6388   3.988   5.177   2.643  0.5667  0.2559  0.4629
 2128TIP3   OH2 6389   1.485   4.934   1.020 -0.3291  0.4449 -0.0036
 2128TIP3    H1 6390   1.472   4.956   1.113 -0.7338 -0.5352  0.1820
 2128TIP3    H2 6391   1.402   4.893   0.994  0.9208 -2.4524  0.1589
 2129TIP3   OH2 6392   3.435   1.778   0.163  0.2269  0.3771 -0.1123
 2129TIP3    H1 6393   3.373   1.731   0.108  0.2657  0.1344  0.0485
 2129TIP3    H2 6394   3.392   1.782   0.249  0.4841  0.1009  0.0322
 2130TIP3   OH2 6395   1.964   2.764   1.701  0.1307 -0.4106 -0.2143
 2130TIP3    H1 6396   1.923   2.707   1.767 -1.0541 -1.1966 -1.5499
 2130TIP3    H2 6397   2.051   2.726   1.687  1.1538  0.8627  2.1623
 2131TIP3   OH2 6398   4.763   4.098   3.966  0.1971 -0.2164 -0.0511
 2131TIP3    H1 6399   4.813   4.044   4.027  0.6772 -0.5142 -0.7048
 2131TIP3    H2 6400   4.775   4.056   3.881 -0.5480  0.1420 -0.3402
 2132TIP3   OH2 6401   1.792   0.628   4.525  0.1724 -0.0110  0.2191
 2132TIP3    H1 6402   1.712   0.578   4.508 -1.2750  1.5577  2.0723
 2132TIP3    H2 6403   1.762   0.716   4.548  2.3747  0.4194  1.8214
 2133TIP3   OH2 6404   3.650   0.518   4.425  0.2321 -0.1953 -0.7734
 2133TIP3    H1 6405   3.644   0.530   4.330  1.8271 -0.1091 -0.8853
 2133TIP3    H2 6406   3.683   0.428   4.436 -1.7447 -0.9105 -0.2176
 2134TIP3   OH2 6407   4.655   3.417   4.576  0.4404  0.2348 -0.1902
 2134TIP3    H1 6408   4.683   3.487   4.518 -0.8802  0.9705  0.0165
 2134TIP3    H2 6409   4.676   3.449   4.664 -0.5569  0.5841 -0.0668
 2135TIP3   OH2 6410   1.119   0.722   1.597  0.4291 -0.7081  0.5007
 2135TIP3    H1 6411   1.112   0.813   1.567 -0.9737 -0.5956  1.0928
 2135TIP3    H2 6412   1.155   0.675   1.523  2.3075  0.5212  0.5581
 2136TIP3   OH2 6413   0.470   3.862   2.847 -0.4024 -0.6408  0.0043
 2136TIP3    H1 6414   0.485   3.787   2.904  1.7366 -0.0273  0.3305
 2136TIP3    H2 6415   0.504   3.834   2.762 -1.8418 -0.8654 -0.5373
 2137TIP3   OH2 6416   3.520   5.737   3.835 -0.2401  0.1586  0.0426
 2137TIP3    H1 6417   3.572   5.660   3.857  1.1526 -0.1019 -3.4933
 2137TIP3    H2 6418   3.582   5.810   3.842 -0.7186  0.5409  0.3861
 2138TIP3   OH2 6419   0.574   0.230   4.555  0.5903  0.3283  0.4335
 2138TIP3    H1 6420   0.590   0.156   4.613  1.4507  0.9003  0.9422
 2138TIP3    H2 6421   0.527   0.293   4.610  0.1067  0.2812  0.0800
 2139TIP3   OH2 6422   5.732   5.364   2.626  0.2014  0.1857 -0.4429
 2139TIP3    H1 6423   5.793   5.362   2.552  0.1500 -1.0989 -0.4740
 2139TIP3    H2 6424   5.704   5.273   2.636  0.2427  0.3300  1.1973
 2140TIP3   OH2 6425   2.144   4.789   3.979 -0.6322 -1.0299 -0.1248
 2140TIP3    H1 6426   2.187   4.816   3.898 -3.1246 -0.2868 -1.2835
 2140TIP3    H2 6427   2.174   4.852   4.044  0.9163 -1.2519 -0.5726
 2141TIP3   OH2 6428   6.210   5.099   2.763  0.1755 -0.4639 -0.2959
 2141TIP3    H1 6429   6.233   5.053   2.844  1.4435 -1.2134 -1.0499
 2141TIP3    H2 6430   6.290   5.098   2.711  0.1674  2.3531 -0.4954
 2142TIP3   OH2 6431   4.971   4.999   1.693 -0.4947  0.6532  0.0979
 2142TIP3    H1 6432   4.936   5.087   1.679 -1.8479  0.1853  0.3486
 2142TIP3    H2 6433   5.015   5.004   1.778 -2.1305  0.6678  0.9858
 2143TIP3   OH2 6434   5.873   3.252   3.461  0.3322 -0.1599  0.3412
 2143TIP3    H1 6435   5.944   3.208   3.415  0.3441 -0.4102  0.5971
 2143TIP3    H2 6436   5.796   3.237   3.406  0.8867  2.1344 -1.1995
 2144TIP3   OH2 6437   2.560   2.076   2.441  0.2883  0.1056 -0.0691
 2144TIP3    H1 6438   2.647   2.077   2.480  0.0979  0.0883  0.3647
 2144TIP3    H2 6439   2.528   2.165   2.449  0.4244  0.2018 -0.5935
 2145TIP3   OH2 6440   5.748   3.767   1.775  0.0280  0.5722 -0.5491
 2145TIP3    H1 6441   5.671   3.786   1.721 -1.3733  0.7204  1.3931
 2145TIP3    H2 6442   5.773   3.678   1.751 -0.8724  0.4477 -1.0613
 2146TIP3   OH2 6443   5.146   0.486   4.378  0.1374 -0.2494 -0.2931
 2146TIP3    H1 6444   5.074   0.445   4.331 -0.9526  0.5329  0.6548
 2146TIP3    H2 6445   5.224   0.437   4.351 -1.0078 -2.4786  0.2584
 2147TIP3   OH2 6446   3.628   5.046   4.126  0.0805 -0.0500 -0.2386
 2147TIP3    H1 6447   3.597   5.019   4.040  1.4659 -0.3406 -0.6663
 2147TIP3    H2 6448   3.660   5.135   4.113 -1.3608  0.5911  0.4043
 2148TIP3   OH2 6449   0.256   5.768   4.180 -0.2184  0.4295 -0.2517
 2148TIP3    H1 6450   0.249   5.776   4.084  1.5066  1.5839 -0.3219
 2148TIP3    H2 6451   0.179   5.814   4.213 -0.3853  0.7617 -1.0668
 2149TIP3   OH2 6452   5.701   3.425   3.112  0.1779 -0.1967  0.2412
 2149TIP3    H1 6453   5.627   3.372   3.142 -0.5638  0.0196 -1.1382
 2149TIP3    H2 6454   5.760   3.362   3.070  0.0904 -0.1808  0.0904
 2150TIP3   OH2 6455   2.798   0.134   4.597 -0.0777 -0.1321  0.1263
 2150TIP3    H1 6456   2.839   0.161   4.679 -0.7006 -1.8172  1.0521
 2150TIP3    H2 6457   2.707   0.164   4.604 -0.4592 -1.3624  0.6326
 2151TIP3   OH2 6458   1.893   4.239   3.693  0.1209 -0.3177 -0.4868
 2151TIP3    H1 6459   1.973   4.196   3.724 -0.5675 -1.0130  0.3714
 2151TIP3    H2 6460   1.822   4.181   3.721 -0.8501  1.3288  0.6403
 2152TIP3   OH2 6461   4.390   3.130   1.469  0.3456 -0.2143 -0.2688
 2152TIP3    H1 6462   4.430   3.206   1.426  1.0661 -1.1849 -1.3566
 2152TIP3    H2 6463   4.408   3.144   1.562  0.1201  1.1422 -0.4028
 2153TIP3   OH2 6464   1.756   5.336   2.260  0.0312 -0.0151  0.2076
 2153TIP3    H1 6465   1.809   5.278   2.314 -0.4686  0.6855  1.4898
 2153TIP3    H2 6466   1.712   5.278   2.197  2.4973 -0.5967 -1.1214
 2154TIP3   OH2 6467   5.313   2.044   3.654  0.0263  0.6352 -0.1349
 2154TIP3    H1 6468   5.277   2.069   3.739 -1.2212 -2.8837  0.5405
 2154TIP3    H2 6469   5.237   2.041   3.596  0.4191  0.3593 -0.6439
 2155TIP3   OH2 6470   5.428   4.357   3.012  0.4518 -0.5223  0.8160
 2155TIP3    H1 6471   5.425   4.267   2.979 -0.4545  0.1460 -1.0414
 2155TIP3    H2 6472   5.340   4.391   2.998  1.2239  1.2085 -0.1929
 2156TIP3   OH2 6473   3.346   1.294   1.912  0.1999 -0.3955 -0.0718
 2156TIP3    H1 6474   3.300   1.325   1.834  2.0710  1.6015 -0.4595
 2156TIP3    H2 6475   3.428   1.257   1.878  0.3511 -0.9382  0.8431
 2157TIP3   OH2 6476   0.299   5.621   0.714  0.1370  0.2695  0.3476
 2157TIP3    H1 6477   0.263   5.533   0.702  0.7500  0.0142  0.3903
 2157TIP3    H2 6478   0.222   5.676   0.733 -0.0803 -0.5632  2.0379
 2158TIP3   OH2 6479   3.600   0.105   1.899 -0.2336 -0.4416  0.0499
 2158TIP3    H1 6480   3.640   0.027   1.861  4.0619  0.9676  1.0843
 2158TIP3    H2 6481   3.577   0.079   1.988  0.2752 -0.8238  0.0776
 2159TIP3   OH2 6482   5.595   1.514   4.860  0.5737 -0.1301 -0.0446
 2159TIP3    H1 6483   5.573   1.585   4.921  0.0168  0.3354 -0.7751
 2159TIP3    H2 6484   5.636   1.558   4.786 -0.5599 -0.4533 -0.8910
 2160TIP3   OH2 6485   3.908   0.276   0.430  0.5415  0.4168  0.0542
 2160TIP3    H1 6486   3.962   0.291   0.507  0.6685  0.5639 -0.0621
 2160TIP3    H2 6487   3.881   0.184   0.437  0.5035  0.4467  0.3024
 2161TIP3   OH2 6488   3.152   0.269   2.230 -0.2951  0.5170 -0.3501
 2161TIP3    H1 6489   3.177   0.346   2.281 -0.7141  0.4228  0.0010
 2161TIP3    H2 6490   3.224   0.208   2.242 -0.1169  0.7244 -0.3579
 2162TIP3   OH2 6491   4.330   5.536   3.962 -0.2281  0.4593 -0.2586
 2162TIP3    H1 6492   4.287   5.571   3.884  0.2357 -1.6986 -1.5524
 2162TIP3    H2 6493   4.413   5.584   3.967 -0.0186  0.2289 -1.4199
 2163TIP3   OH2 6494   4.600   0.234   2.211 -0.4484 -0.7836 -0.1703
 2163TIP3    H1 6495   4.593   0.240   2.306 -0.1809 -0.3716 -0.1704
 2163TIP3    H2 6496   4.653   0.156   2.196  1.1027  0.1484  0.1112
 2164TIP3   OH2 6497   1.976   5.953   5.164  0.9234  0.5159  0.1549
 2164TIP3    H1 6498   2.045   6.016   5.142  1.5274  0.5298  1.9117
 2164TIP3    H2 6499   1.978   5.889   5.093  0.5622  2.2146 -1.4842
 2165TIP3   OH2 6500   4.110   0.472   0.078  0.2366  0.7336 -0.2425
 2165TIP3    H1 6501   4.133   0.511   0.162  2.0798 -0.7452  0.0071
 2165TIP3    H2 6502   4.091   0.380   0.099  0.0596  0.4977 -1.3543
 2166TIP3   OH2 6503   5.867   0.873   1.302  0.7350 -0.4304 -0.0182
 2166TIP3    H1 6504   5.899   0.806   1.363  0.9652  0.4685  0.8643
 2166TIP3    H2 6505   5.911   0.852   1.219 -1.4408 -3.1468 -0.6235
 2167TIP3   OH2 6506   3.255   0.560   0.363 -0.1499  0.1019  0.4477
 2167TIP3    H1 6507   3.214   0.642   0.390 -0.3950 -0.0316  0.4851
 2167TIP3    H2 6508   3.277   0.572   0.271  0.1876  0.3592  0.5606
 2168TIP3   OH2 6509   1.410   1.751   2.586  0.5020  0.4970 -0.6679
 2168TIP3    H1 6510   1.322   1.785   2.598  0.6689  0.9046 -0.5850
 2168TIP3    H2 6511   1.431   1.709   2.670 -0.2909 -1.2033 -1.2679
 2169TIP3   OH2 6512   1.277   5.757   1.037  0.1947  0.3782 -0.4388
 2169TIP3    H1 6513   1.302   5.700   0.964 -0.6985  0.3241 -0.7121
 2169TIP3    H2 6514   1.290   5.846   1.004  0.4777  0.3459 -0.4146
 2170TIP3   OH2 6515   3.844   0.707   0.676 -0.4986  0.1373  0.3031
 2170TIP3    H1 6516   3.797   0.627   0.699 -0.0055 -0.2700 -0.0537
 2170TIP3    H2 6517   3.908   0.718   0.747  1.1023 -1.1852 -0.8670
 2171TIP3   OH2 6518   2.305   1.112   1.332 -0.3899 -0.6215  0.2288
 2171TIP3    H1 6519   2.259   1.153   1.259  0.8238  1.2093  0.4329
 2171TIP3    H2 6520   2.253   1.134   1.409 -0.9146 -1.3701  0.1032
 2172TIP3   OH2 6521   2.801   2.289   3.535  0.3213 -0.1344  0.0531
 2172TIP3    H1 6522   2.714   2.271   3.499  0.5111  0.4115 -0.6771
 2172TIP3    H2 6523   2.790   2.369   3.587  0.2452 -0.4417  0.5241
 2173TIP3   OH2 6524   4.877   2.838   0.064  0.0515 -0.2994 -0.3283
 2173TIP3    H1 6525   4.932   2.814  -0.010  0.8558  0.3770  0.0207
 2173TIP3    H2 6526   4.835   2.920   0.037  0.1553 -0.1828 -0.1428
 2174TIP3   OH2 6527   4.590   2.499   4.928 -0.0647 -0.0291 -0.1056
 2174TIP3    H1 6528   4.660   2.441   4.901 -0.7896  0.2024 -2.6918
 2174TIP3    H2 6529   4.510   2.457   4.897 -0.7472  1.4569 -0.4668
 2175TIP3   OH2 6530   1.925   1.840   0.312  0.0688  0.2845 -0.1186
 2175TIP3    H1 6531   1.863   1.856   0.384  0.0951  1.1302 -0.2745
 2175TIP3    H2 6532   1.869   1.820   0.237  0.0184  0.0453 -0.0179
 2176TIP3   OH2 6533   0.561   1.570   1.716  0.5064  0.4099  0.4304
 2176TIP3    H1 6534   0.565   1.628   1.640 -0.5397  0.2918  0.2717
 2176TIP3    H2 6535   0.506   1.616   1.780 -0.2476 -0.3377  0.3430
 2177TIP3   OH2 6536   2.633   0.806   1.824  0.4902  0.0936  0.2039
 2177TIP3    H1 6537   2.610   0.839   1.912 -3.9622 -0.2487 -0.5853
 2177TIP3    H2 6538   2.615   0.880   1.766  2.7096  0.0780 -0.6037
 2178TIP3   OH2 6539   5.571   0.733   2.877  0.5546 -0.0909 -0.3726
 2178TIP3    H1 6540   5.531   0.810   2.917  1.8798 -0.1103  1.0541
 2178TIP3    H2 6541   5.557   0.746   2.783  0.3087  1.6256 -0.1387
 2179TIP3   OH2 6542   4.549   0.623   3.110 -0.0966 -0.2911  0.1979
 2179TIP3    H1 6543   4.565   0.635   3.204 -0.2702 -1.1432  0.3525
 2179TIP3    H2 6544   4.461   0.658   3.096  0.3146  0.7406  0.1496
 2180TIP3   OH2 6545   5.469   2.281   0.833  0.2343  0.1815  0.2922
 2180TIP3    H1 6546   5.457   2.322   0.748 -0.7202  1.1428  0.8502
 2180TIP3    H2 6547   5.382   2.285   0.874  1.1161  1.8895  2.2148
 2181TIP3   OH2 6548   0.788   0.433   3.934  0.3100  0.3759 -0.2915
 2181TIP3    H1 6549   0.720   0.471   3.989 -1.7217 -1.1130 -1.6372
 2181TIP3    H2 6550   0.757   0.445   3.844  2.0138 -0.0251 -0.9940
 2182TIP3   OH2 6551   1.161   2.063   3.634 -0.2398 -0.0116 -0.7291
 2182TIP3    H1 6552   1.104   2.140   3.633 -0.4611 -0.1756 -1.0207
 2182TIP3    H2 6553   1.245   2.095   3.667  0.1672  0.7137 -2.3904
 2183TIP3   OH2 6554   1.933   3.580   0.723  0.2300 -0.2614  0.1001
 2183TIP3    H1 6555   2.028   3.584   0.733  0.3769  0.8280 -1.3977
 2183TIP3    H2 6556   1.900   3.624   0.801  0.9657 -0.3056  0.4500
 2184TIP3   OH2 6557   4.091   0.169   2.037  0.1111  0.2348  0.3237
 2184TIP3    H1 6558   4.106   0.264   2.030 -1.0112  0.3649 -0.5643
 2184TIP3    H2 6559   4.067   0.156   2.129  0.4617  0.7810  0.5024
 2185TIP3   OH2 6560   0.367   1.029   4.980 -0.2357 -0.0929 -0.5956
 2185TIP3    H1 6561   0.352   0.974   5.057  0.9100 -0.1427 -0.3938
 2185TIP3    H2 6562   0.294   1.091   4.980  0.1346  0.3748  0.9445
 2186TIP3   OH2 6563   5.267   1.363   4.495 -0.6659  0.4007 -0.4427
 2186TIP3    H1 6564   5.313   1.435   4.539  0.9612 -0.2628 -0.9723
 2186TIP3    H2 6565   5.268   1.292   4.560 -2.3083  0.8313  0.0970
 2187TIP3   OH2 6566   0.872   2.267   0.541 -0.7120 -0.1148  0.2650
 2187TIP3    H1 6567   0.815   2.191   0.532 -0.0945 -0.5424 -0.0963
 2187TIP3    H2 6568   0.913   2.256   0.627  1.2097 -1.4886 -0.7751
 2188TIP3   OH2 6569   4.114   0.011   4.103  0.2748 -0.3678 -0.0921
 2188TIP3    H1 6570   4.136   0.028   4.195 -1.0111  0.0173  0.1581
 2188TIP3    H2 6571   4.023   0.039   4.094 -0.2279 -2.1206 -1.0167
 2189TIP3   OH2 6572   5.014   0.034   3.049  0.2039  0.3354 -0.1265
 2189TIP3    H1 6573   5.061   0.061   3.128 -1.1199  1.8530  0.1689
 2189TIP3    H2 6574   5.076   0.052   2.977  0.9738  0.0254  0.4407
 2190TIP3   OH2 6575   4.894   1.932   3.975 -0.1054  0.2246  0.8476
 2190TIP3    H1 6576   4.884   1.975   3.890  0.8894 -0.2921  0.4536
 2190TIP3    H2 6577   4.839   1.984   4.034  0.6688  1.7609  0.2940
 2191TIP3   OH2 6578   0.311   1.969   4.995 -0.2887 -0.7274  0.1798
 2191TIP3    H1 6579   0.317   1.983   5.089  2.3403 -1.7280  0.2495
 2191TIP3    H2 6580   0.231   1.918   4.983 -0.6786 -0.5584  1.8558
 2192TIP3   OH2 6581   2.521   3.703   4.178 -0.1050 -0.8472  0.0336
 2192TIP3    H1 6582   2.497   3.656   4.258 -0.2575 -2.8278 -1.1095
 2192TIP3    H2 6583   2.449   3.764   4.164 -0.4478 -1.0053  0.9895
 2193TIP3   OH2 6584   2.985   2.920   4.474 -0.4949  0.1688 -0.0325
 2193TIP3    H1 6585   2.996   2.987   4.407  0.9649  0.1011  0.1185
 2193TIP3    H2 6586   3.048   2.942   4.542  0.6810 -1.8282 -0.3935
 2194TIP3   OH2 6587   5.770   5.646   4.743 -0.0949 -0.4379 -0.0169
 2194TIP3    H1 6588   5.692   5.598   4.715 -0.2876  0.5603 -1.2312
 2194TIP3    H2 6589   5.762   5.650   4.839 -1.5958 -0.2497 -0.1209
 2195TIP3   OH2 6590   5.413   0.678   0.507 -0.4732 -0.9287 -0.1294
 2195TIP3    H1 6591   5.386   0.769   0.496  0.3497 -0.8435 -1.6467
 2195TIP3    H2 6592   5.502   0.683   0.543 -1.3781 -1.1896  2.3352
 2196TIP3   OH2 6593   3.188   1.135   4.643 -0.1094 -0.3639 -0.0454
 2196TIP3    H1 6594   3.120   1.075   4.615 -0.5242 -0.2473  0.6836
 2196TIP3    H2 6595   3.245   1.083   4.701 -0.5444 -0.0366  0.6919
 2197TIP3   OH2 6596   5.903   3.298   0.392 -0.1098 -0.0678 -0.2148
 2197TIP3    H1 6597   5.872   3.217   0.351 -0.3830  0.7448 -1.6751
 2197TIP3    H2 6598   5.937   3.270   0.477  2.2285 -2.1345 -1.7093
 2198TIP3   OH2 6599   2.569   4.638   4.838 -0.0631 -0.2570 -0.0402
 2198TIP3    H1 6600   2.477   4.626   4.861 -0.0743 -0.5323 -0.2255
 2198TIP3    H2 6601   2.617   4.587   4.903 -0.1859 -3.2823 -2.0820
 2199TIP3   OH2 6602   3.662   1.902   2.369  0.1329  0.0557  0.2805
 2199TIP3    H1 6603   3.744   1.920   2.414 -0.3811 -1.6775  2.0411
 2199TIP3    H2 6604   3.667   1.953   2.288  2.6176  0.5420  0.6692
 2200TIP3   OH2 6605   1.444   4.131   0.294  0.3487  0.4477 -0.3711
 2200TIP3    H1 6606   1.355   4.116   0.326  0.4839  0.7659  0.1631
 2200TIP3    H2 6607   1.494   4.056   0.326  1.0441  1.9716  2.3755
 2201TIP3   OH2 6608   0.795   0.073   1.581 -0.1496  0.3264 -0.4257
 2201TIP3    H1 6609   0.847   0.153   1.579  0.7714 -0.2713 -0.9847
 2201TIP3    H2 6610   0.761   0.064   1.492  0.0456 -0.0830 -0.4613
 2202TIP3   OH2 6611   2.893   4.381   4.973 -0.6237  0.3049 -0.2941
 2202TIP3    H1 6612   2.921   4.426   4.893 -0.0783  0.5116  0.0074
 2202TIP3    H2 6613   2.858   4.451   5.028 -2.1672 -0.0068 -0.8355
 2203TIP3   OH2 6614   4.900   0.302   2.245 -0.7036  0.8599 -0.4507
 2203TIP3    H1 6615   4.827   0.356   2.275 -0.3520  0.1281  1.9196
 2203TIP3    H2 6616   4.871   0.212   2.257  0.8027  0.5430  1.3480
 2204TIP3   OH2 6617   5.566   4.764   2.409 -0.1281 -0.3656 -0.1058
 2204TIP3    H1 6618   5.519   4.718   2.339  0.4263 -1.3714  0.1774
 2204TIP3    H2 6619   5.635   4.704   2.436 -1.0223 -0.5051  2.1026
 2205TIP3   OH2 6620   5.164   4.478   1.650  0.0192  0.3190  0.8473
 2205TIP3    H1 6621   5.207   4.425   1.717  0.8721 -0.4890 -0.3068
 2205TIP3    H2 6622   5.236   4.525   1.607 -0.6317  1.7672  1.2535
 2206TIP3   OH2 6623   4.857   0.658   3.039  0.3552  0.6320  0.3066
 2206TIP3    H1 6624   4.775   0.694   3.071 -0.3074 -0.1693 -0.4272
 2206TIP3    H2 6625   4.890   0.604   3.111 -1.4960 -1.7672 -0.5057
 2207TIP3   OH2 6626   3.036   2.896   3.886 -0.3858  0.0751  0.2284
 2207TIP3    H1 6627   3.108   2.919   3.827 -0.5963  0.2500  0.0375
 2207TIP3    H2 6628   3.079   2.868   3.967 -0.1004  0.0310  0.0620
 2208TIP3   OH2 6629   4.731   2.681   1.220  0.0092  0.1933  0.0653
 2208TIP3    H1 6630   4.645   2.691   1.262  1.1063  0.6411  2.3526
 2208TIP3    H2 6631   4.737   2.757   1.161 -0.7718  0.7262  0.6430
 2209TIP3   OH2 6632   1.717   4.225   4.479  0.9998  0.0013  0.0927
 2209TIP3    H1 6633   1.785   4.168   4.442 -0.6962 -3.7790  2.2867
 2209TIP3    H2 6634   1.741   4.234   4.571 -0.6097 -0.0628  0.5366
 2210TIP3   OH2 6635   4.010   4.313   4.993 -0.5891  0.1040  0.5970
 2210TIP3    H1 6636   4.103   4.333   5.001 -0.5576  0.3600 -0.3442
 2210TIP3    H2 6637   3.966   4.398   4.997 -0.5029  0.4008 -2.6679
 2211TIP3   OH2 6638   2.899   5.618   4.869 -0.2631 -0.4890 -0.0004
 2211TIP3    H1 6639   2.933   5.532   4.895 -0.4664 -0.8879 -1.0155
 2211TIP3    H2 6640   2.814   5.623   4.912 -0.2271 -0.7725  0.1088
 2212TIP3   OH2 6641   5.674   3.175   2.779 -0.1525  0.4610  0.1748
 2212TIP3    H1 6642   5.579   3.164   2.788 -0.3814  1.6116 -0.5702
 2212TIP3    H2 6643   5.684   3.260   2.736  1.1926  0.0071 -0.4791
 2213TIP3   OH2 6644   1.938   1.296   3.684 -0.1288  0.1028  0.0538
 2213TIP3    H1 6645   1.848   1.283   3.716  0.6258 -0.7928  1.8992
 2213TIP3    H2 6646   1.950   1.391   3.684 -0.1671  0.1648  2.5604
 2214TIP3   OH2 6647   6.256   2.117   3.997  0.1527  0.3269 -0.2050
 2214TIP3    H1 6648   6.244   2.139   3.904 -0.1569  1.7858  0.1690
 2214TIP3    H2 6649   6.167   2.102   4.030  0.3259 -1.3147 -0.3737
 2215TIP3   OH2 6650   2.664   0.050   2.956 -0.2944  0.3226 -0.8155
 2215TIP3    H1 6651   2.708   0.063   3.040 -0.3007  1.5599 -0.9935
 2215TIP3    H2 6652   2.732   0.013   2.900 -0.0140  0.4396 -0.5587
 2216TIP3   OH2 6653   0.026   4.475   0.539 -0.3036 -0.6958 -0.2254
 2216TIP3    H1 6654   0.087   4.473   0.613 -1.0429 -2.4003  0.3714
 2216TIP3    H2 6655   0.007   4.384   0.520 -0.8360 -0.2635 -1.9616
 2217TIP3   OH2 6656   5.704   4.410   4.342  0.5758 -0.4546 -0.3117
 2217TIP3    H1 6657   5.779   4.386   4.396 -0.3247 -2.0100  0.3190
 2217TIP3    H2 6658   5.719   4.502   4.320  1.3555  0.0318  1.9620
 2218TIP3   OH2 6659   4.941   4.747   4.059  0.0995  0.1578  0.5005
 2218TIP3    H1 6660   5.017   4.740   4.002  0.1298  1.6810  0.2995
 2218TIP3    H2 6661   4.897   4.662   4.052 -0.0085  0.3402 -1.9637
 2219TIP3   OH2 6662   2.946   1.969   1.750  0.4083  0.0102  0.0388
 2219TIP3    H1 6663   3.034   1.936   1.735  0.4191 -0.7480  1.6394
 2219TIP3    H2 6664   2.888   1.894   1.734  0.2664 -0.2126  1.4615
 2220TIP3   OH2 6665   6.035   2.113   2.982 -0.5178  0.2786 -0.4491
 2220TIP3    H1 6666   6.042   2.023   2.951 -1.7186 -0.8928  2.3476
 2220TIP3    H2 6667   6.101   2.121   3.050 -2.6767  0.2657  1.7928
 2221TIP3   OH2 6668   0.133   0.654   2.873  0.1497 -0.2206 -0.1398
 2221TIP3    H1 6669   0.069   0.598   2.918 -2.9911  3.4633  0.4684
 2221TIP3    H2 6670   0.102   0.656   2.783  0.3781  0.3420 -0.2041
 2222TIP3   OH2 6671   0.905   4.391   1.876 -0.4643 -0.1008 -0.5847
 2222TIP3    H1 6672   0.976   4.405   1.813  0.8091 -1.2912  0.5284
 2222TIP3    H2 6673   0.833   4.356   1.824 -0.0230  0.4779 -1.6246
 2223TIP3   OH2 6674   0.423   0.269   2.346  0.3370  0.0919  0.2667
 2223TIP3    H1 6675   0.398   0.341   2.288 -1.1064 -1.6944 -1.5108
 2223TIP3    H2 6676   0.516   0.282   2.363  0.6571  1.0975 -1.9320
 2224TIP3   OH2 6677   4.314   5.890   3.465 -0.0199 -0.1934 -0.1189
 2224TIP3    H1 6678   4.347   5.962   3.411  1.2010  0.7819  1.8244
 2224TIP3    H2 6679   4.388   5.831   3.474  0.3270  0.4571  1.7271
 2225TIP3   OH2 6680   0.940   5.132   1.245  0.4331 -0.1411  0.3323
 2225TIP3    H1 6681   0.871   5.173   1.297 -0.2579 -0.1696 -0.5273
 2225TIP3    H2 6682   1.016   5.187   1.257  0.3029 -0.1849  1.4124
 2226TIP3   OH2 6683   2.875   4.907   1.432 -0.0447 -0.1444  0.3388
 2226TIP3    H1 6684   2.907   4.821   1.457  0.8411  0.2974  0.7897
 2226TIP3    H2 6685   2.782   4.906   1.454  0.3607 -0.3160  2.2102
 2227TIP3   OH2 6686   0.925   0.216   2.140  0.4699  0.2787 -0.1269
 2227TIP3    H1 6687   0.931   0.246   2.231  0.7718  1.0465 -0.3948
 2227TIP3    H2 6688   0.956   0.125   2.143  0.2912  0.2333  0.5670
 2228TIP3   OH2 6689   4.102   1.734   1.470  1.2940  0.2722 -0.1104
 2228TIP3    H1 6690   4.092   1.789   1.547  0.2571  0.7005 -0.5285
 2228TIP3    H2 6691   4.189   1.696   1.478  0.8793 -0.3809  1.7231
 2229TIP3   OH2 6692   5.209   2.566   4.093  0.1606  0.2761  0.2244
 2229TIP3    H1 6693   5.215   2.482   4.048 -0.7404  0.7470 -0.8017
 2229TIP3    H2 6694   5.300   2.592   4.108  0.5766  0.7914 -2.6513
 2230TIP3   OH2 6695   0.409   0.528   2.769 -0.4821 -0.6416 -0.8971
 2230TIP3    H1 6696   0.317   0.548   2.785 -0.3202 -0.2558 -0.4213
 2230TIP3    H2 6697   0.430   0.573   2.688  0.4239  3.0182  1.1547
 2231TIP3   OH2 6698   3.850   1.036   4.849 -0.0569 -0.1259  0.2398
 2231TIP3    H1 6699   3.781   1.102   4.856 -0.4533 -0.6608  2.0664
 2231TIP3    H2 6700   3.804   0.957   4.822  0.5323  0.4276 -2.7324
 2232TIP3   OH2 6701   5.445   1.634   3.315  0.1468 -0.0864 -0.5854
 2232TIP3    H1 6702   5.441   1.602   3.405 -1.2130 -0.6340 -0.8212
 2232TIP3    H2 6703   5.390   1.574   3.265  1.1894 -0.0340 -1.8699
 2233TIP3   OH2 6704   5.082   1.824   2.482 -0.2125 -0.0470  0.0446
 2233TIP3    H1 6705   5.013   1.849   2.422 -0.9509  1.8483  1.5897
 2233TIP3    H2 6706   5.160   1.870   2.452 -0.6097  0.9923  0.5740
 2234TIP3   OH2 6707   3.089   1.466   1.533  0.6301  0.0186 -0.0111
 2234TIP3    H1 6708   3.004   1.510   1.546  0.5040 -0.1289 -0.3264
 2234TIP3    H2 6709   3.080   1.423   1.448  1.0970  0.1733 -0.1400
 2235TIP3   OH2 6710   3.226   1.728   4.877 -0.1676 -0.0328  0.4066
 2235TIP3    H1 6711   3.283   1.692   4.946  0.2861  0.7669  0.4591
 2235TIP3    H2 6712   3.255   1.819   4.868 -1.5894  0.4497  0.5735
 2236TIP3   OH2 6713   2.390   0.120   4.353  0.6136  0.1032  0.1813
 2236TIP3    H1 6714   2.320   0.054   4.356  0.5138  0.2177  2.6497
 2236TIP3    H2 6715   2.369   0.181   4.425  1.8125  1.6773 -0.7252
 2237TIP3   OH2 6716   2.786   3.137   3.575 -0.0191 -0.0157 -0.1573
 2237TIP3    H1 6717   2.781   3.049   3.539  0.3398  0.2619 -0.9101
 2237TIP3    H2 6718   2.799   3.124   3.669  0.3565 -0.7719 -0.3060
 2238TIP3   OH2 6719   0.932   1.863   3.852  0.2917  0.8775  0.6353
 2238TIP3    H1 6720   0.979   1.916   3.917 -0.2950 -0.0859  1.8873
 2238TIP3    H2 6721   0.973   1.777   3.858  1.3387  1.1699 -1.4903
 2239TIP3   OH2 6722   4.188   3.195   4.213  0.2204  0.1381 -0.1048
 2239TIP3    H1 6723   4.129   3.126   4.182  1.0658  0.3747 -2.4941
 2239TIP3    H2 6724   4.179   3.194   4.308 -3.2389 -0.1552 -0.3057
 2240TIP3   OH2 6725   3.268   0.153   0.807 -0.1328  0.1002 -0.0886
 2240TIP3    H1 6726   3.184   0.199   0.819 -1.7145 -2.5737 -0.0873
 2240TIP3    H2 6727   3.312   0.162   0.891 -0.9416  0.5959  0.2987
 2241TIP3   OH2 6728   1.168   3.113   0.452  0.1730 -0.0977 -0.4005
 2241TIP3    H1 6729   1.108   3.158   0.511 -0.5295 -0.4350 -0.8302
 2241TIP3    H2 6730   1.193   3.179   0.388  0.1583  0.0181 -0.2863
 2242TIP3   OH2 6731   4.840   0.175   2.656  0.5785 -0.2781  0.8260
 2242TIP3    H1 6732   4.916   0.130   2.620  0.1006  0.0009 -0.5803
 2242TIP3    H2 6733   4.870   0.265   2.669  0.4762 -0.1570  0.2272
 2243TIP3   OH2 6734   5.315   0.628   3.012  0.0131 -0.4713 -0.2767
 2243TIP3    H1 6735   5.382   0.653   2.949  0.5478  1.7136  1.0383
 2243TIP3    H2 6736   5.240   0.601   2.959 -0.0426  2.5335 -1.9621
 2244TIP3   OH2 6737   3.559   3.220   3.056  0.2299  0.0658  0.2360
 2244TIP3    H1 6738   3.499   3.233   3.129  0.8849  3.0261  0.3989
 2244TIP3    H2 6739   3.509   3.249   2.979  0.4800 -0.3170 -0.0722
 2245TIP3   OH2 6740   1.068   5.813   4.193 -0.0974 -0.0073 -0.3555
 2245TIP3    H1 6741   1.085   5.906   4.207  1.7232 -0.4373  0.6449
 2245TIP3    H2 6742   0.986   5.797   4.239 -0.6582  1.1684 -0.8903
 2246TIP3   OH2 6743   4.800   4.678   2.977  0.3159  0.4846 -0.3301
 2246TIP3    H1 6744   4.796   4.736   3.053 -2.0348 -0.3985  0.3122
 2246TIP3    H2 6745   4.779   4.734   2.902 -0.4061  0.7891  0.0878
 2247TIP3   OH2 6746   6.051   5.090   5.047 -0.1885 -0.0724  0.2915
 2247TIP3    H1 6747   6.013   5.114   4.963 -1.7580  1.8603  1.4550
 2247TIP3    H2 6748   6.142   5.067   5.027  0.3259  2.9768 -1.6563
 2248TIP3   OH2 6749   5.115   0.820   3.856 -0.0611  0.3120  0.1584
 2248TIP3    H1 6750   5.152   0.740   3.892 -1.9688 -0.9611 -0.5606
 2248TIP3    H2 6751   5.107   0.803   3.763 -0.2509  1.4582 -0.0482
 2249TIP3   OH2 6752   0.711   0.940   5.168  0.1321  0.0508 -0.4118
 2249TIP3    H1 6753   0.801   0.915   5.185  0.3653  0.5266 -0.9460
 2249TIP3    H2 6754   0.693   0.910   5.079  0.0499  0.7619 -0.6373
 2250TIP3   OH2 6755   2.878   0.239   2.225  0.8834  0.1825  0.0608
 2250TIP3    H1 6756   2.972   0.245   2.239  1.0839 -2.3830  0.3506
 2250TIP3    H2 6757   2.866   0.248   2.131  1.6165 -0.8679 -0.1537
 2251TIP3   OH2 6758   4.897   2.165   0.218 -0.0019 -0.0036 -0.1415
 2251TIP3    H1 6759   4.823   2.107   0.201  0.6963 -1.5437  1.6416
 2251TIP3    H2 6760   4.858   2.252   0.229 -1.3308 -0.4813 -0.8394
 2252TIP3   OH2 6761   2.989   3.971   4.287 -0.2771  0.3824  0.5300
 2252TIP3    H1 6762   3.025   3.940   4.370 -1.2540  1.5468  1.4243
 2252TIP3    H2 6763   2.898   3.943   4.288 -0.1916  0.0112 -0.3824
 2253TIP3   OH2 6764   3.231   1.595   0.051  0.0258 -0.0034 -0.4464
 2253TIP3    H1 6765   3.163   1.655   0.020 -0.7988 -0.8032 -0.2400
 2253TIP3    H2 6766   3.192   1.508   0.042  0.9574 -0.4704 -0.1374
 2254TIP3   OH2 6767   1.655   0.759   4.856 -0.4020 -0.1179 -0.0607
 2254TIP3    H1 6768   1.638   0.809   4.776 -1.5504 -0.7276 -0.2224
 2254TIP3    H2 6769   1.601   0.802   4.923  0.7474  0.5473  0.4731
 2255TIP3   OH2 6770   3.294   1.305   0.714 -0.2253 -0.2167 -0.7305
 2255TIP3    H1 6771   3.211   1.342   0.744 -0.2255  0.6204 -1.7473
 2255TIP3    H2 6772   3.354   1.320   0.787 -0.4493  1.0103 -0.7761
 2256TIP3   OH2 6773   2.000   2.401   4.069  0.1339 -0.7914 -0.0411
 2256TIP3    H1 6774   1.914   2.413   4.029 -0.6542 -2.0667  1.1823
 2256TIP3    H2 6775   2.044   2.485   4.057 -0.8295 -0.4776 -1.7013
 2257TIP3   OH2 6776   3.909   5.918   2.622  0.1083 -0.4067 -0.0270
 2257TIP3    H1 6777   3.822   5.919   2.662  0.4702 -1.7082  0.8601
 2257TIP3    H2 6778   3.892   5.907   2.529 -0.6829 -0.0335  0.0646
 2258TIP3   OH2 6779   2.836   3.398   1.771 -0.0816  0.1651 -0.0956
 2258TIP3    H1 6780   2.875   3.452   1.840 -0.2298  0.3947 -0.1859
 2258TIP3    H2 6781   2.893   3.322   1.763  2.2829  1.9693 -2.4577
 2259TIP3   OH2 6782   0.271   1.575   4.910 -0.8277  0.0933 -0.1181
 2259TIP3    H1 6783   0.336   1.606   4.974 -0.2998 -3.2533  1.1962
 2259TIP3    H2 6784   0.220   1.510   4.958 -3.3190  0.5268 -1.9844
 2260TIP3   OH2 6785   3.457   4.756   3.643  0.4876 -0.1180  0.4506
 2260TIP3    H1 6786   3.442   4.666   3.616  0.2488 -0.0881  0.4841
 2260TIP3    H2 6787   3.370   4.794   3.653  0.5907  0.2532 -0.0249
 2261TIP3   OH2 6788   2.493   5.152   3.441 -0.0946  0.1928  0.6099
 2261TIP3    H1 6789   2.453   5.164   3.527  0.5043  0.7381  0.8188
 2261TIP3    H2 6790   2.494   5.239   3.402  1.3006  0.2859  0.8039
 2262TIP3   OH2 6791   3.177   4.778   3.652 -0.1391  0.0325  0.3003
 2262TIP3    H1 6792   3.165   4.779   3.747 -0.2556  0.1236  0.2850
 2262TIP3    H2 6793   3.095   4.741   3.618  0.4661 -1.3709  0.3143
 2263TIP3   OH2 6794   2.611   0.091   2.227 -0.5247  0.0506 -0.3141
 2263TIP3    H1 6795   2.690   0.140   2.251  0.4039 -1.1874 -0.7243
 2263TIP3    H2 6796   2.544   0.123   2.287 -0.1795  2.3613 -1.0806
 2264TIP3   OH2 6797   4.635   1.553   4.763 -0.3147  0.3910 -0.4522
 2264TIP3    H1 6798   4.620   1.459   4.776  0.5345  0.1838 -0.9202
 2264TIP3    H2 6799   4.547   1.589   4.748 -0.5257 -0.5867 -1.8230
 2265TIP3   OH2 6800   5.230   1.548   4.049  0.2566 -0.3533  0.0055
 2265TIP3    H1 6801   5.268   1.628   4.013  1.6967 -1.3043 -0.6531
 2265TIP3    H2 6802   5.202   1.573   4.137 -1.4292  1.4580 -0.9520
 2266TIP3   OH2 6803   2.733   4.974   2.355  0.1810  0.7116 -0.1938
 2266TIP3    H1 6804   2.797   4.970   2.284 -2.0348  2.3663 -2.4606
 2266TIP3    H2 6805   2.706   4.883   2.367  0.0862  0.4580 -2.0232
 2267TIP3   OH2 6806   1.496   5.591   2.704 -0.1540 -0.8079  0.3522
 2267TIP3    H1 6807   1.511   5.520   2.642  0.5909  1.0168 -1.6905
 2267TIP3    H2 6808   1.559   5.575   2.774  0.7721 -1.5639 -0.6215
 2268TIP3   OH2 6809   2.209   4.620   2.979 -0.4087  0.3826 -0.0905
 2268TIP3    H1 6810   2.261   4.547   3.013 -1.0263  0.0892  0.2644
 2268TIP3    H2 6811   2.135   4.627   3.041 -1.1144  0.3743 -0.9135
 2269TIP3   OH2 6812   2.919   0.888   0.754 -0.3321  0.4970  0.0810
 2269TIP3    H1 6813   2.890   0.959   0.811 -2.0843 -0.1231  0.0163
 2269TIP3    H2 6814   2.927   0.812   0.812  0.9660  0.5933  0.0477
 2270TIP3   OH2 6815   2.318   1.479   4.893  0.2430  0.4081  0.0878
 2270TIP3    H1 6816   2.293   1.388   4.882 -1.5905  0.9444 -0.6267
 2270TIP3    H2 6817   2.384   1.495   4.826  2.6051 -1.0133  1.9050
 2271TIP3   OH2 6818   3.106   1.793   1.420  0.0325 -0.6943 -0.7858
 2271TIP3    H1 6819   3.033   1.748   1.377  0.6729 -0.3515 -2.3147
 2271TIP3    H2 6820   3.168   1.810   1.349  1.9002 -1.5307  0.5475
 2272TIP3   OH2 6821   2.390   2.047   0.131  0.1843  0.0494  0.1567
 2272TIP3    H1 6822   2.428   2.128   0.164  0.6234  0.2601 -0.8267
 2272TIP3    H2 6823   2.296   2.066   0.123  0.2788  0.4429 -0.0149
 2273TIP3   OH2 6824   4.724   1.979   0.070 -0.2684 -0.0293 -0.4831
 2273TIP3    H1 6825   4.637   1.965   0.032  0.1267  0.7009 -1.7548
 2273TIP3    H2 6826   4.764   2.043   0.011  0.9278  0.0497  0.4015
 2274TIP3   OH2 6827   2.767   0.938   3.346 -0.1113 -0.4106 -0.1965
 2274TIP3    H1 6828   2.808   0.980   3.422 -0.4401  1.6334 -1.0832
 2274TIP3    H2 6829   2.812   0.854   3.338  2.9423  1.0965 -0.2598
 2275TIP3   OH2 6830   0.379   1.162   1.118 -0.0275  0.4227 -0.0878
 2275TIP3    H1 6831   0.441   1.096   1.086  0.8755  1.5803 -0.7743
 2275TIP3    H2 6832   0.362   1.217   1.042 -0.9922  0.8310  0.4128
 2276TIP3   OH2 6833   3.548   4.843   3.272 -0.0006  0.2363  0.9175
 2276TIP3    H1 6834   3.551   4.749   3.251 -2.3001  0.0366  1.2746
 2276TIP3    H2 6835   3.489   4.849   3.348 -1.1207  2.1110 -0.0399
 2277TIP3   OH2 6836   4.075  -0.011   1.793  0.1394 -0.2349  0.2234
 2277TIP3    H1 6837   4.007   0.005   1.727  0.1536 -0.2815  0.1979
 2277TIP3    H2 6838   4.070   0.066   1.851 -0.8408 -0.8561  0.9999
 2278TIP3   OH2 6839   0.487   1.120   3.001 -0.1352  0.4678  0.6825
 2278TIP3    H1 6840   0.517   1.039   3.040  0.9282  0.1293 -0.7295
 2278TIP3    H2 6841   0.527   1.189   3.054  0.1545  0.0513  1.0081
 2279TIP3   OH2 6842   3.590   4.959   4.373 -0.1335 -0.9382 -0.2136
 2279TIP3    H1 6843   3.516   5.001   4.416  0.3992 -0.1843 -0.0093
 2279TIP3    H2 6844   3.592   4.998   4.285 -0.4293 -1.5184 -0.4895
 2280TIP3   OH2 6845   2.110   2.743   2.547 -0.2288  0.1096 -0.3849
 2280TIP3    H1 6846   2.134   2.776   2.461  1.5216  0.8253  0.3261
 2280TIP3    H2 6847   2.131   2.649   2.543  0.8372  0.3431 -0.4180
 2281TIP3   OH2 6848   2.111   2.271   5.085 -0.3909 -0.0227 -0.4630
 2281TIP3    H1 6849   2.142   2.247   4.997  2.1388 -0.9219  0.5881
 2281TIP3    H2 6850   2.062   2.195   5.114 -0.6287 -0.0070 -0.8128
 2282TIP3   OH2 6851   5.660   5.397   3.913 -0.6957 -0.0852  0.4673
 2282TIP3    H1 6852   5.687   5.467   3.854 -1.0804  1.1560  1.7177
 2282TIP3    H2 6853   5.565   5.392   3.902 -0.8587  0.6219  1.4558
 2283TIP3   OH2 6854   4.341   0.105   1.635 -0.3959  0.4559  0.1826
 2283TIP3    H1 6855   4.408   0.107   1.703 -0.1188  2.4689 -0.0910
 2283TIP3    H2 6856   4.390   0.087   1.554  0.1295  3.3408 -0.2432
 2284TIP3   OH2 6857   4.595   2.804   3.719  0.4282  0.1787  0.2516
 2284TIP3    H1 6858   4.568   2.735   3.658  0.8672  0.0815  0.1610
 2284TIP3    H2 6859   4.541   2.789   3.797  0.6073 -0.3520  0.2824
 2285TIP3   OH2 6860   4.609   3.072   3.710  0.7372 -0.0457  0.3257
 2285TIP3    H1 6861   4.603   2.977   3.706  0.8322 -0.0054 -1.7855
 2285TIP3    H2 6862   4.542   3.098   3.773  0.2380 -1.4519  0.3966
 2286TIP3   OH2 6863   1.999   2.661   0.834  0.4626 -0.0563 -0.6843
 2286TIP3    H1 6864   2.027   2.650   0.925 -0.0145  0.1434 -0.5106
 2286TIP3    H2 6865   1.909   2.627   0.832  0.3075  0.3603 -0.9741
 2287TIP3   OH2 6866   5.569   5.665   4.227  0.0658 -0.1222  0.1252
 2287TIP3    H1 6867   5.659   5.652   4.258  0.3263 -0.3715 -0.7079
 2287TIP3    H2 6868   5.561   5.760   4.216 -0.7974  0.2571  3.1375
 2288TIP3   OH2 6869   2.891   4.546   0.261  0.3203  0.2359 -0.5746
 2288TIP3    H1 6870   2.874   4.604   0.335 -0.6880 -2.2874  1.3029
 2288TIP3    H2 6871   2.813   4.554   0.207 -0.0511  0.2260 -0.0482
 2289TIP3   OH2 6872   4.615   1.361   2.757  0.0745 -0.0085 -0.2565
 2289TIP3    H1 6873   4.589   1.377   2.666 -0.2644 -0.1824 -0.1953
 2289TIP3    H2 6874   4.697   1.312   2.750  0.3456  0.4701 -0.4579
 2290TIP3   OH2 6875   4.388   1.266   3.957 -0.1848 -0.4298  0.2873
 2290TIP3    H1 6876   4.366   1.175   3.972  2.2070 -1.3373 -1.1159
 2290TIP3    H2 6877   4.484   1.267   3.952 -0.2164  1.8777 -1.2871
 2291TIP3   OH2 6878   6.044   2.326   3.853 -0.3794  0.2663 -0.1980
 2291TIP3    H1 6879   6.113   2.287   3.800 -1.6976 -1.7229 -0.5202
 2291TIP3    H2 6880   6.090   2.393   3.905  1.7228 -0.7756 -0.6087
 2292TIP3   OH2 6881   1.133   2.823   3.438 -0.5096 -0.5066 -0.4303
 2292TIP3    H1 6882   1.218   2.832   3.482 -0.6367  1.1193 -0.4630
 2292TIP3    H2 6883   1.125   2.901   3.384 -2.6509  0.1169  0.6668
 2293TIP3   OH2 6884   6.114   4.297   2.050  0.4013  0.1049  0.7608
 2293TIP3    H1 6885   6.135   4.322   2.140 -0.3483 -1.8627  1.5254
 2293TIP3    H2 6886   6.040   4.237   2.058  0.6449 -0.5145 -1.1406
 2294TIP3   OH2 6887   3.938   2.631   2.412 -0.2694  0.3085  0.0380
 2294TIP3    H1 6888   3.915   2.545   2.377  0.3488  0.3817 -0.5592
 2294TIP3    H2 6889   3.981   2.676   2.340 -2.8577  2.0991 -0.5227
 2295TIP3   OH2 6890   4.963   3.786   1.010  0.1749  0.0167  0.1337
 2295TIP3    H1 6891   5.050   3.826   1.012 -0.5299  1.6517  0.2990
 2295TIP3    H2 6892   4.970   3.717   0.944  1.2052  1.1369 -0.9934
 2296TIP3   OH2 6893   3.880   3.151   3.979  0.2018 -0.7921 -0.1392
 2296TIP3    H1 6894   3.966   3.120   4.005  0.3315 -0.7290 -0.4842
 2296TIP3    H2 6895   3.897   3.219   3.914  0.0618  2.0040  2.4842
 2297TIP3   OH2 6896   0.322   5.188   4.971  0.3274  0.4150 -0.3027
 2297TIP3    H1 6897   0.319   5.094   4.953  0.2621 -0.0608  1.9573
 2297TIP3    H2 6898   0.270   5.227   4.901 -1.2462 -1.4122 -0.2281
 2298TIP3   OH2 6899   3.960   0.754   2.448  0.3709  0.0071  0.2665
 2298TIP3    H1 6900   4.036   0.717   2.404 -0.7938 -0.6417 -1.2879
 2298TIP3    H2 6901   3.975   0.849   2.445  0.4899 -0.0327 -1.2813
 2299TIP3   OH2 6902   3.867   3.726   1.346  0.2599  0.0821 -0.0206
 2299TIP3    H1 6903   3.878   3.641   1.389 -1.5848  0.2368  0.8116
 2299TIP3    H2 6904   3.802   3.710   1.278 -0.6030  0.9650  0.5812
 2300TIP3   OH2 6905   2.897   0.091   0.542 -0.5627  0.1616 -0.3528
 2300TIP3    H1 6906   2.927   0.034   0.613 -1.1164 -0.6669 -0.7724
 2300TIP3    H2 6907   2.959   0.077   0.471 -0.3639  0.5240 -0.2514
 2301TIP3   OH2 6908   1.945   2.481   2.322  0.6459 -0.2764 -0.4030
 2301TIP3    H1 6909   1.940   2.460   2.415 -0.8956  0.2353 -0.3434
 2301TIP3    H2 6910   1.902   2.408   2.279  0.7349 -0.1789 -0.6591
 2302TIP3   OH2 6911   1.619   4.120   3.022 -0.0621  0.6872  0.0857
 2302TIP3    H1 6912   1.611   4.148   3.114  1.1965  0.2653  0.3363
 2302TIP3    H2 6913   1.600   4.199   2.972  0.8908  1.3618  0.7453
 2303TIP3   OH2 6914   5.280   4.175   4.898  0.5036  0.6600 -0.6932
 2303TIP3    H1 6915   5.208   4.157   4.837  0.8587 -1.0385 -0.6840
 2303TIP3    H2 6916   5.359   4.159   4.846  0.8154 -0.1618  0.0024
 2304TIP3   OH2 6917   6.046   1.244   2.094  0.3896 -0.1544 -0.3317
 2304TIP3    H1 6918   6.050   1.258   1.999 -1.2366  1.6433 -0.1967
 2304TIP3    H2 6919   5.954   1.254   2.116  1.0428  2.1549  1.7763
 2305TIP3   OH2 6920   2.814   1.465   2.294  0.1146 -0.1994 -0.2514
 2305TIP3    H1 6921   2.897   1.491   2.333  0.6059 -1.9938 -0.0321
 2305TIP3    H2 6922   2.834   1.384   2.247 -1.3807 -0.3325 -0.7061
 2306TIP3   OH2 6923   5.283   3.041   1.942 -0.5734  0.2957 -0.5898
 2306TIP3    H1 6924   5.302   3.134   1.942  0.7210  0.0557 -0.1764
 2306TIP3    H2 6925   5.368   2.999   1.924 -0.6690 -0.8538  1.3245
 2307TIP3   OH2 6926   6.051   1.694   4.810 -0.2420  0.0092  0.0945
 2307TIP3    H1 6927   6.032   1.616   4.757 -0.6069  0.4690 -0.4641
 2307TIP3    H2 6928   6.134   1.674   4.853 -0.9740 -1.2192  0.9965
 2308TIP3   OH2 6929   3.134   3.488   2.608 -0.0724  0.1901  0.1676
 2308TIP3    H1 6930   3.155   3.511   2.517  0.2770 -1.4307 -0.1928
 2308TIP3    H2 6931   3.116   3.572   2.650 -1.5882  0.8843 -1.7250
 2309TIP3   OH2 6932   3.468   5.947   3.593 -0.4768 -0.3978  0.0680
 2309TIP3    H1 6933   3.456   5.879   3.660 -0.9228 -0.8697 -0.4758
 2309TIP3    H2 6934   3.542   5.917   3.541  0.3167  0.3233  0.7713
 2310TIP3   OH2 6935   3.721   4.924   3.041 -0.6469 -0.7611 -0.5498
 2310TIP3    H1 6936   3.651   4.919   2.976 -0.9763 -1.1529 -0.1756
 2310TIP3    H2 6937   3.681   4.892   3.122 -0.6738  1.0645  0.2143
 2311TIP3   OH2 6938   6.086   2.339   2.790  0.2439  0.0367 -0.8237
 2311TIP3    H1 6939   6.042   2.255   2.801  0.1555  0.1983  0.1536
 2311TIP3    H2 6940   6.179   2.318   2.787  0.1972 -0.1379 -1.0445
 2312TIP3   OH2 6941   2.906   4.298   1.704 -0.1829 -0.5733  0.1996
 2312TIP3    H1 6942   2.907   4.205   1.726  0.3538 -0.0850  2.5555
 2312TIP3    H2 6943   2.984   4.312   1.652 -0.2805 -1.4397 -0.1908
 2313TIP3   OH2 6944   0.838   2.770   0.073 -0.5960  0.1030  0.3171
 2313TIP3    H1 6945   0.851   2.851   0.023 -0.6499  1.2100  2.0382
 2313TIP3    H2 6946   0.760   2.731   0.034 -0.8104  1.0700 -0.2800
 2314TIP3   OH2 6947   3.572   0.098   1.485 -0.4718  0.5745  0.5522
 2314TIP3    H1 6948   3.552   0.013   1.525  2.4666 -1.6225 -2.1140
 2314TIP3    H2 6949   3.488   0.132   1.457 -1.6061 -2.7285 -0.5060
 2315TIP3   OH2 6950   2.334   0.720   0.213 -0.0299  0.2548 -0.3256
 2315TIP3    H1 6951   2.339   0.812   0.188 -2.6569  0.8126  0.9262
 2315TIP3    H2 6952   2.255   0.687   0.170 -1.4912 -0.2325  2.4977
 2316TIP3   OH2 6953   4.143   5.196   4.209 -0.2091  0.0229 -0.3007
 2316TIP3    H1 6954   4.149   5.284   4.173 -1.0910  0.2511  0.0884
 2316TIP3    H2 6955   4.223   5.186   4.260  0.8069 -0.1149 -1.8645
 2317TIP3   OH2 6956   0.836   4.198   3.762 -0.1221  0.2529  0.0178
 2317TIP3    H1 6957   0.919   4.153   3.755  1.2441  2.7736 -1.5029
 2317TIP3    H2 6958   0.832   4.228   3.853  2.0102  2.3897 -0.5099
 2318TIP3   OH2 6959   4.374   4.492   3.583  0.1101 -0.1400  0.2588
 2318TIP3    H1 6960   4.291   4.516   3.625  1.0313  0.0473  2.0561
 2318TIP3    H2 6961   4.409   4.574   3.551 -0.1520 -0.1502 -0.0645
 2319TIP3   OH2 6962   1.312   2.278   0.437  0.7731 -0.1947  0.2071
 2319TIP3    H1 6963   1.258   2.356   0.428  0.6279 -0.3216 -0.0392
 2319TIP3    H2 6964   1.388   2.306   0.487 -0.1865 -0.3290  1.8289
 2320TIP3   OH2 6965   2.397   4.805   0.205 -0.0072 -0.9305 -0.3034
 2320TIP3    H1 6966   2.329   4.815   0.138  1.0596 -1.5001 -1.5138
 2320TIP3    H2 6967   2.366   4.734   0.260 -2.6840  1.8610  2.1469
 2321TIP3   OH2 6968   2.575   5.483   2.884  0.1973  0.0602 -0.8447
 2321TIP3    H1 6969   2.619   5.435   2.814  1.7478 -0.7728  0.5971
 2321TIP3    H2 6970   2.577   5.423   2.958  0.3021  1.5744  0.4401
 2322TIP3   OH2 6971   1.767   2.158   0.319 -0.1235  0.0586 -0.6284
 2322TIP3    H1 6972   1.785   2.090   0.254 -1.4768  1.1135 -2.1816
 2322TIP3    H2 6973   1.815   2.234   0.289 -0.2314  0.3759 -0.0158
 2323TIP3   OH2 6974   4.701   5.336   3.960  0.0174  0.0018 -0.2856
 2323TIP3    H1 6975   4.733   5.257   4.003  0.0426  0.1407 -0.0501
 2323TIP3    H2 6976   4.724   5.407   4.019  0.3744  0.2332 -0.6922
 2324TIP3   OH2 6977   2.375   1.122   3.158 -0.8764  0.1408 -0.1461
 2324TIP3    H1 6978   2.404   1.050   3.102 -2.6957  0.3738 -1.4563
 2324TIP3    H2 6979   2.437   1.193   3.139 -0.0902 -0.5211 -0.1150
 2325TIP3   OH2 6980   5.924   2.085   0.647  0.2679 -0.0808 -0.4385
 2325TIP3    H1 6981   5.973   2.031   0.709 -0.6501 -0.2002  0.1973
 2325TIP3    H2 6982   5.912   2.169   0.692  0.2310  0.0809 -0.7493
 2326TIP3   OH2 6983   3.696   0.723   2.416 -0.3506 -0.4746 -0.2197
 2326TIP3    H1 6984   3.673   0.786   2.484 -0.3771  1.1559 -1.6883
 2326TIP3    H2 6985   3.792   0.726   2.413 -0.3067 -1.1444  0.2697
 2327TIP3   OH2 6986   4.557   0.271   3.915 -0.3431  0.4741  0.4201
 2327TIP3    H1 6987   4.616   0.307   3.849 -0.2818 -0.1324  0.1417
 2327TIP3    H2 6988   4.492   0.340   3.929  1.0857  1.6538  1.6079
 2328TIP3   OH2 6989   3.191   0.185   3.277  0.2541  0.0568 -0.6511
 2328TIP3    H1 6990   3.194   0.267   3.227  0.7971  0.2569 -0.2939
 2328TIP3    H2 6991   3.125   0.200   3.344 -0.0432  0.0013 -0.9262
 2329TIP3   OH2 6992   4.711   3.605   4.757 -0.4200 -0.2619  0.2583
 2329TIP3    H1 6993   4.743   3.574   4.842 -0.4968 -1.1097 -0.0127
 2329TIP3    H2 6994   4.628   3.649   4.778  0.4574  1.1824  0.8458
 2330TIP3   OH2 6995   3.473   4.824   2.662 -0.6597  0.7690  0.2212
 2330TIP3    H1 6996   3.392   4.835   2.611 -0.6169 -0.2426 -0.0807
 2330TIP3    H2 6997   3.450   4.759   2.730  0.6640 -1.8736 -1.6833
 2331TIP3   OH2 6998   1.597   0.175   1.225 -0.8785 -0.4815  0.8218
 2331TIP3    H1 6999   1.624   0.104   1.167 -2.1104  1.4902 -2.4737
 2331TIP3    H2 7000   1.679   0.215   1.254 -0.2067 -2.2511  1.4637
 2332TIP3   OH2 7001   1.371   0.170   2.500 -0.2888 -1.0427 -0.1225
 2332TIP3    H1 7002   1.289   0.168   2.551 -0.7118  0.4896 -0.6878
 2332TIP3    H2 7003   1.436   0.207   2.560 -0.7337  0.5439 -0.5645
 2333TIP3   OH2 7004   3.654   3.941   3.592 -0.0435  0.0182  0.4127
 2333TIP3    H1 7005   3.636   4.010   3.529  1.0652  2.5031  2.5945
 2333TIP3    H2 7006   3.721   3.887   3.550  0.4642  1.4343 -0.6848
 2334TIP3   OH2 7007   3.563   2.761   0.518  0.4014 -0.2541 -0.0646
 2334TIP3    H1 7008   3.597   2.719   0.597  0.1829 -0.8653 -0.2886
 2334TIP3    H2 7009   3.542   2.688   0.459 -3.4233 -0.1347  0.8587
 2335TIP3   OH2 7010   5.377   3.574   3.120  0.4128  0.4435  0.5532
 2335TIP3    H1 7011   5.363   3.564   3.025  0.2919  2.8576  0.2560
 2335TIP3    H2 7012   5.312   3.638   3.147  2.4785  2.2416  1.6092
 2336TIP3   OH2 7013   4.410   2.269   1.503 -0.1244  0.2581  0.3526
 2336TIP3    H1 7014   4.441   2.300   1.588 -0.7246 -0.3119  0.7949
 2336TIP3    H2 7015   4.451   2.184   1.491 -0.3081  0.1854  0.2255
 2337TIP3   OH2 7016   3.061   1.128   2.798 -0.1997  0.2915 -0.3309
 2337TIP3    H1 7017   3.152   1.109   2.775 -0.0084  0.5401  0.2270
 2337TIP3    H2 7018   3.019   1.146   2.714  0.0916 -0.5569 -0.6683
 2338TIP3   OH2 7019   0.752   3.802   4.979 -0.4848  0.0793  0.6193
 2338TIP3    H1 7020   0.840   3.778   5.009 -0.5499 -1.6523 -0.4544
 2338TIP3    H2 7021   0.759   3.894   4.952  1.5410 -0.5766 -1.3557
 2339TIP3   OH2 7022   4.384   3.666   1.827 -0.0148  0.0150 -0.5266
 2339TIP3    H1 7023   4.378   3.747   1.877  0.1204 -1.5508  2.1971
 2339TIP3    H2 7024   4.293   3.639   1.814 -0.0343  0.2247 -0.8698
 2340TIP3   OH2 7025   2.755   3.506   0.790  0.3005  0.1681 -0.2845
 2340TIP3    H1 7026   2.723   3.563   0.860 -0.2022 -0.5675  0.0990
 2340TIP3    H2 7027   2.775   3.423   0.834 -0.0130 -0.2991 -1.0109
 2341TIP3   OH2 7028   0.593   3.223   4.950  0.4464 -0.0231  0.1792
 2341TIP3    H1 7029   0.625   3.300   4.997 -2.1206  0.4124  1.3881
 2341TIP3    H2 7030   0.669   3.165   4.945  2.3810  2.4273 -0.5461
 2342TIP3   OH2 7031   0.354   5.480   0.361 -0.0664 -0.0812  0.1834
 2342TIP3    H1 7032   0.384   5.481   0.452  0.4419 -0.4458  0.0268
 2342TIP3    H2 7033   0.263   5.508   0.365  0.1264  0.4798  0.7402
 2343TIP3   OH2 7034   2.441   1.040   2.346  0.7137 -0.2728 -0.1431
 2343TIP3    H1 7035   2.483   1.009   2.266  1.0070 -1.0528  0.2980
 2343TIP3    H2 7036   2.514   1.051   2.408  0.3182 -1.3470  0.5399
 2344TIP3   OH2 7037   3.099   4.943   4.856  0.0281  0.4603  0.2314
 2344TIP3    H1 7038   3.189   4.965   4.832 -0.5012  0.4176 -2.0490
 2344TIP3    H2 7039   3.107   4.880   4.927  1.7962  0.5584  0.1517
 2345TIP3   OH2 7040   6.153   2.693   4.459  0.1643 -0.4195  0.0816
 2345TIP3    H1 7041   6.149   2.782   4.493 -1.6953 -0.0681 -0.9523
 2345TIP3    H2 7042   6.215   2.648   4.517 -0.3563  1.0235  1.8318
 2346TIP3   OH2 7043   6.042   2.724   4.194 -1.1545 -0.3706 -0.0937
 2346TIP3    H1 7044   6.076   2.711   4.283  0.1730 -1.2875 -0.6948
 2346TIP3    H2 7045   5.999   2.809   4.197 -0.7895 -0.2055  1.3303
 2347TIP3   OH2 7046   2.348   0.325   3.304 -0.1844 -0.2306 -0.1599
 2347TIP3    H1 7047   2.437   0.301   3.330  0.0309 -0.0642 -0.7258
 2347TIP3    H2 7048   2.296   0.246   3.320  0.1864 -0.5241 -0.3981
 2348TIP3   OH2 7049   1.361   2.653   4.126 -0.2170 -0.4654  0.0781
 2348TIP3    H1 7050   1.302   2.670   4.052  0.8225  0.6874 -0.5176
 2348TIP3    H2 7051   1.319   2.698   4.200 -0.9394 -1.0894  0.0615
 2349TIP3   OH2 7052   2.362   5.496   3.118 -0.6700  0.6188 -0.0140
 2349TIP3    H1 7053   2.350   5.420   3.061  0.5941  1.3736 -1.3400
 2349TIP3    H2 7054   2.341   5.571   3.064 -0.7864  1.2909  0.9398
 2350TIP3   OH2 7055   3.296   0.841   0.436 -0.1239  0.4902  0.2260
 2350TIP3    H1 7056   3.388   0.814   0.432 -0.0945  0.6902 -0.8218
 2350TIP3    H2 7057   3.294   0.927   0.392 -0.5620  1.2281  1.6208
 2351TIP3   OH2 7058   4.158   4.682   4.179  0.5959 -0.2831 -0.0715
 2351TIP3    H1 7059   4.201   4.768   4.183 -0.0680  0.0387  0.2985
 2351TIP3    H2 7060   4.078   4.693   4.231 -1.0802 -0.2353 -2.5143
 2352TIP3   OH2 7061   3.795   3.773   3.427 -0.1343  0.0603  0.4515
 2352TIP3    H1 7062   3.818   3.825   3.350  1.6788 -1.6853 -0.2838
 2352TIP3    H2 7063   3.877   3.731   3.452 -0.7121  0.4584  3.2903
 2353TIP3   OH2 7064   2.435   1.489   3.855  0.4787  0.1729 -0.4257
 2353TIP3    H1 7065   2.440   1.448   3.768  0.4222  0.6201 -0.6462
 2353TIP3    H2 7066   2.471   1.423   3.915  0.5106 -0.1440 -0.7879
 2354TIP3   OH2 7067   5.158   1.795   0.945 -0.3613  0.0213 -0.2664
 2354TIP3    H1 7068   5.197   1.756   1.023  3.6114  1.7088 -1.1642
 2354TIP3    H2 7069   5.157   1.725   0.881 -0.7512 -0.5535  0.3454
 2355TIP3   OH2 7070   1.506   4.773   2.776  0.4200  0.0844 -0.2138
 2355TIP3    H1 7071   1.436   4.714   2.804 -0.5227  1.5533  0.6848
 2355TIP3    H2 7072   1.464   4.860   2.772  2.4587  1.2637  1.6652
 2356TIP3   OH2 7073   0.290   2.726   0.131 -0.2383  0.1221  0.5620
 2356TIP3    H1 7074   0.355   2.747   0.199 -1.6068 -0.0724  1.9722
 2356TIP3    H2 7075   0.325   2.648   0.088 -0.0797 -0.6908  2.0891
 2357TIP3   OH2 7076   2.738   2.848   3.827  0.4465 -0.1959 -0.4817
 2357TIP3    H1 7077   2.718   2.926   3.878 -0.8311  0.6536 -2.1716
 2357TIP3    H2 7078   2.654   2.802   3.819  1.0923 -1.5413  0.1229
 2358TIP3   OH2 7079   2.939   0.354   0.607 -0.6970  0.0776  0.0434
 2358TIP3    H1 7080   2.893   0.270   0.604 -0.9581  0.2040  0.5396
 2358TIP3    H2 7081   2.963   0.365   0.699  1.7937 -0.7894 -0.4240
 2359TIP3   OH2 7082   3.945   4.646   4.345  0.2056  0.1331  0.2160
 2359TIP3    H1 7083   3.901   4.579   4.397 -1.4323 -0.2495 -1.5746
 2359TIP3    H2 7084   3.924   4.729   4.389 -2.2978 -0.0447 -0.4966
 2360TIP3   OH2 7085   3.418   5.810   0.022  0.6452 -0.2399  0.0817
 2360TIP3    H1 7086   3.379   5.735   0.066 -0.6113 -0.6037 -1.5229
 2360TIP3    H2 7087   3.401   5.884   0.081 -0.6152 -0.7689  0.4273
 2361TIP3   OH2 7088   2.959   3.300   0.516  0.0212 -0.4405 -0.3495
 2361TIP3    H1 7089   2.909   3.241   0.572  0.4437  1.1103  1.7916
 2361TIP3    H2 7090   2.895   3.365   0.487 -0.3766 -1.6759 -2.4491
 2362TIP3   OH2 7091   0.997   0.454   4.253  0.8023  0.0089  0.3783
 2362TIP3    H1 7092   0.992   0.359   4.246  0.8684 -0.1079  1.6333
 2362TIP3    H2 7093   0.926   0.477   4.313  0.1360  0.8690 -0.6999
 2363TIP3   OH2 7094   3.652   5.194   3.403 -0.1036 -0.1702  0.5955
 2363TIP3    H1 7095   3.631   5.284   3.429  0.3366 -0.0027  0.3744
 2363TIP3    H2 7096   3.597   5.178   3.326 -0.0816 -0.0407  0.5518
 2364TIP3   OH2 7097   2.078   0.247   3.563 -0.5640  0.1595 -0.5915
 2364TIP3    H1 7098   2.026   0.251   3.643 -0.3307 -0.4021 -0.4063
 2364TIP3    H2 7099   2.102   0.338   3.545 -0.7022  0.2999 -0.0814
 2365TIP3   OH2 7100   0.756   0.408   4.761  0.3992  0.3633 -0.0159
 2365TIP3    H1 7101   0.771   0.315   4.781  0.3514 -0.2392 -2.3965
 2365TIP3    H2 7102   0.795   0.420   4.674 -0.7715  2.2432 -0.3381
 2366TIP3   OH2 7103   6.089   4.448   0.671  0.5461 -0.2773  0.0691
 2366TIP3    H1 7104   6.091   4.381   0.739  0.2192 -0.8073 -0.4345
 2366TIP3    H2 7105   6.181   4.468   0.654  0.6274 -0.1163  0.6810
 2367TIP3   OH2 7106   1.900   3.908   2.108  0.3952  0.0069  0.1928
 2367TIP3    H1 7107   1.978   3.862   2.075  0.3146  0.0209 -0.0185
 2367TIP3    H2 7108   1.863   3.849   2.173 -0.3476 -0.7532 -0.8732
 2368TIP3   OH2 7109   5.404   4.915   2.566  0.3675  0.0367 -0.2933
 2368TIP3    H1 7110   5.382   4.885   2.654  1.2496  2.3210  0.7883
 2368TIP3    H2 7111   5.450   4.841   2.526 -0.1680 -1.0855  1.1015
 2369TIP3   OH2 7112   3.851   2.016   4.390  0.5857  0.0821  0.3533
 2369TIP3    H1 7113   3.889   1.947   4.445 -0.2198 -0.9068 -0.2997
 2369TIP3    H2 7114   3.887   1.999   4.303 -1.2757 -0.8999 -0.2934
 2370TIP3   OH2 7115   1.812   5.732   0.282 -0.1606  0.4014  0.3607
 2370TIP3    H1 7116   1.747   5.663   0.268 -0.1658  0.3308  0.7278
 2370TIP3    H2 7117   1.865   5.732   0.202 -1.9037  1.8627 -0.8977
 2371TIP3   OH2 7118   1.587   5.470   1.687  0.5332 -0.1666 -0.0759
 2371TIP3    H1 7119   1.502   5.486   1.729  1.0606  2.0852  0.2612
 2371TIP3    H2 7120   1.587   5.529   1.611  1.0579 -1.5416 -1.1750
 2372TIP3   OH2 7121   5.866   2.248   4.909  0.0308  0.3994  0.5328
 2372TIP3    H1 7122   5.862   2.158   4.942 -1.2056  0.9468  1.9921
 2372TIP3    H2 7123   5.928   2.292   4.967  0.4289  0.5632 -0.0116
 2373TIP3   OH2 7124   2.677   4.806   1.249 -0.3523 -0.3040 -0.0063
 2373TIP3    H1 7125   2.643   4.896   1.250  1.5997  0.4991 -1.2981
 2373TIP3    H2 7126   2.698   4.789   1.158  0.2993 -1.6949  0.3767
 2374TIP3   OH2 7127   4.806   4.470   3.708  0.0727  0.3719 -0.3168
 2374TIP3    H1 7128   4.730   4.412   3.706  0.4262 -0.0748 -1.0203
 2374TIP3    H2 7129   4.815   4.494   3.800 -1.1378  0.7237 -0.2722
 2375TIP3   OH2 7130   2.548   0.487   3.168  1.0351  0.3670  0.6268
 2375TIP3    H1 7131   2.519   0.395   3.167  2.0696  0.0162 -0.4772
 2375TIP3    H2 7132   2.550   0.511   3.260  0.0028 -0.4721  0.8867
 2376TIP3   OH2 7133   0.180   4.714   1.103  0.7939 -0.1061 -0.1409
 2376TIP3    H1 7134   0.137   4.695   1.187 -0.0039 -0.1384 -0.5485
 2376TIP3    H2 7135   0.127   4.668   1.038  1.2440  0.1577 -0.7017
 2377TIP3   OH2 7136   0.798   2.681   4.995 -0.7269  0.4872  0.0036
 2377TIP3    H1 7137   0.732   2.636   4.942  0.6614 -1.2395 -0.3710
 2377TIP3    H2 7138   0.843   2.611   5.042  2.0172  1.3434 -1.1404
 2378TIP3   OH2 7139   5.941   3.400   1.092  0.2513  0.2735 -0.2554
 2378TIP3    H1 7140   5.912   3.490   1.078 -0.0583  0.1583 -0.3661
 2378TIP3    H2 7141   5.950   3.393   1.187 -0.2297  0.2715 -0.2058
 2379TIP3   OH2 7142   5.415   5.825   2.399  0.3002 -0.1951 -0.2507
 2379TIP3    H1 7143   5.497   5.856   2.436  0.1491  0.0257 -0.1031
 2379TIP3    H2 7144   5.438   5.740   2.360  0.7677  0.2006 -0.8629
 2380TIP3   OH2 7145   0.368   3.884   0.069  0.0617 -0.0733  0.2510
 2380TIP3    H1 7146   0.397   3.865  -0.021  0.8726 -1.3404  0.7537
 2380TIP3    H2 7147   0.279   3.849   0.073 -0.3003  0.7581 -0.2979
 2381TIP3   OH2 7148   6.334   4.474   1.944 -0.0058  0.0942  0.2592
 2381TIP3    H1 7149   6.374   4.429   2.019 -0.1478 -0.9108 -0.2524
 2381TIP3    H2 7150   6.307   4.403   1.886  1.2579  0.8803 -1.3362
 2382TIP3   OH2 7151   4.127   2.145   1.458 -0.0992 -0.2628 -0.1117
 2382TIP3    H1 7152   4.213   2.182   1.477 -0.8499  0.7315  1.6745
 2382TIP3    H2 7153   4.118   2.073   1.520 -1.7983  1.7314  2.1562
 2383TIP3   OH2 7154   1.587   5.255   2.679  0.2450  0.5793 -0.0829
 2383TIP3    H1 7155   1.679   5.238   2.698 -0.2687 -0.0490  2.0995
 2383TIP3    H2 7156   1.576   5.226   2.589  2.4164  1.7462 -0.7981
 2384TIP3   OH2 7157   4.569   1.604   0.685  0.2333  0.4751  0.1713
 2384TIP3    H1 7158   4.569   1.550   0.763  0.6420  0.2035 -0.0143
 2384TIP3    H2 7159   4.603   1.689   0.714 -1.6615  1.0892  0.7558
 2385TIP3   OH2 7160   3.368   4.093   4.500 -0.1790 -0.0715 -0.2464
 2385TIP3    H1 7161   3.434   4.090   4.568 -1.6103 -1.6628  1.1635
 2385TIP3    H2 7162   3.302   4.154   4.532 -0.1918  0.2464 -0.8611
 2386TIP3   OH2 7163   0.632   4.781   1.228  0.4735  0.2173 -0.1702
 2386TIP3    H1 7164   0.696   4.711   1.217 -1.2544 -1.4010 -0.5584
 2386TIP3    H2 7165   0.574   4.750   1.297 -2.1905 -0.2792 -2.4455
 2387TIP3   OH2 7166   0.142   2.851   1.846  0.2479 -0.2300 -0.5190
 2387TIP3    H1 7167   0.095   2.909   1.788  0.0232 -0.9095 -1.0303
 2387TIP3    H2 7168   0.117   2.763   1.818 -2.3302 -0.6776  2.5036
 2388TIP3   OH2 7169   0.199   1.507   0.636  0.2778  0.0892  0.2596
 2388TIP3    H1 7170   0.235   1.421   0.657  1.9335  0.3429 -1.3240
 2388TIP3    H2 7171   0.105   1.492   0.625  0.7819 -2.0075 -2.1172
 2389TIP3   OH2 7172   2.219   2.850   0.653  0.1071 -0.2005  0.4899
 2389TIP3    H1 7173   2.248   2.782   0.592  0.6926 -0.3065  0.8704
 2389TIP3    H2 7174   2.300   2.894   0.680 -0.0941 -0.3663  1.4220
 2390TIP3   OH2 7175   0.570   1.869   3.014 -0.2182  0.1006 -0.2981
 2390TIP3    H1 7176   0.649   1.891   2.964 -0.4291  0.1727 -0.6065
 2390TIP3    H2 7177   0.517   1.817   2.953 -0.9611  1.0893 -0.5282
 2391TIP3   OH2 7178   5.032   3.925   0.421 -0.5017 -0.8697  0.2771
 2391TIP3    H1 7179   4.965   3.972   0.471 -1.8346 -3.7208  1.4546
 2391TIP3    H2 7180   5.099   3.903   0.485  0.7097  0.3623 -0.5113
 2392TIP3   OH2 7181   5.023   0.740   1.791  0.1828 -0.1066  0.4509
 2392TIP3    H1 7182   4.994   0.806   1.728 -1.2198 -0.6513  0.4799
 2392TIP3    H2 7183   4.947   0.683   1.802  0.8090 -0.7430  1.7008
 2393TIP3   OH2 7184   0.808   0.442   1.769 -0.1360  0.0766 -0.3317
 2393TIP3    H1 7185   0.792   0.522   1.719 -0.4185 -1.0111 -2.0834
 2393TIP3    H2 7186   0.875   0.396   1.719  0.7997 -0.3112  1.2272
 2394TIP3   OH2 7187   1.984   1.696   3.002  0.4796 -0.0545  0.2835
 2394TIP3    H1 7188   2.015   1.703   2.912  0.6546 -0.2192  0.3302
 2394TIP3    H2 7189   1.933   1.776   3.017  2.8504  1.4222  0.9688
 2395TIP3   OH2 7190   4.126   2.655   0.320 -0.6502  0.1044  0.2446
 2395TIP3    H1 7191   4.060   2.718   0.349 -0.5917  0.7754 -1.0291
 2395TIP3    H2 7192   4.099   2.572   0.361 -2.1235  0.4188 -0.0362
 2396TIP3   OH2 7193   3.738   5.989   5.196  0.4593 -0.1312  0.2484
 2396TIP3    H1 7194   3.786   6.005   5.115 -0.2629  0.3921 -0.0906
 2396TIP3    H2 7195   3.736   5.894   5.205  1.9037 -0.1504  0.4875
 2397TIP3   OH2 7196   4.445   5.713   1.057 -0.1294  0.1128 -0.4351
 2397TIP3    H1 7197   4.408   5.778   1.117 -3.6345 -2.0936  0.0817
 2397TIP3    H2 7198   4.498   5.657   1.113 -1.6319 -0.6680  0.2511
 2398TIP3   OH2 7199   0.255   2.200  -0.020 -0.0351  0.2712  0.0979
 2398TIP3    H1 7200   0.238   2.106  -0.014  0.7961  0.0784 -0.3787
 2398TIP3    H2 7201   0.189   2.240   0.036 -1.3177 -0.4922 -0.8053
 2399TIP3   OH2 7202   5.607   0.244   1.341  0.2606  0.1304  0.1086
 2399TIP3    H1 7203   5.548   0.276   1.273  0.9195 -0.2707 -0.6779
 2399TIP3    H2 7204   5.695   0.264   1.308  0.5736  0.5465  1.1666
 2400TIP3   OH2 7205   4.049   2.382   0.781  0.1976 -0.3272  0.4854
 2400TIP3    H1 7206   4.142   2.367   0.798  0.1344 -2.0406 -0.4910
 2400TIP3    H2 7207   4.040   2.369   0.686 -1.0178 -0.0516  0.5538
 2401TIP3   OH2 7208   0.850   5.158   3.014 -0.0792 -0.4463 -0.3875
 2401TIP3    H1 7209   0.862   5.074   2.968 -0.0589 -0.8375  0.3079
 2401TIP3    H2 7210   0.937   5.198   3.012 -0.5773  0.6537 -2.7437
 2402TIP3   OH2 7211   4.109   2.628   3.596  0.1408  0.1400  0.5665
 2402TIP3    H1 7212   4.060   2.710   3.591  2.1885  1.3721 -1.0805
 2402TIP3    H2 7213   4.131   2.619   3.688  0.3354  1.7679  0.7176
 2403TIP3   OH2 7214   5.365   4.450   3.934  0.0224  0.4120  0.3000
 2403TIP3    H1 7215   5.391   4.396   3.859  1.0375  2.6866 -1.1131
 2403TIP3    H2 7216   5.410   4.412   4.009  2.4574  0.5382 -1.0166
 2404TIP3   OH2 7217   6.314   1.540   4.541  0.1347 -0.2235  0.0817
 2404TIP3    H1 7218   6.345   1.525   4.630  0.1911 -0.4841  0.0186
 2404TIP3    H2 7219   6.309   1.453   4.502 -2.3718 -0.4146  0.6586
 2405TIP3   OH2 7220   1.662   0.390   1.909  0.4576  0.0111 -0.0069
 2405TIP3    H1 7221   1.657   0.364   1.817 -0.2727  2.0822 -0.6119
 2405TIP3    H2 7222   1.571   0.404   1.936  0.7475  0.9610  0.5335
 2406TIP3   OH2 7223   5.774   3.885   0.502  0.6942  0.4205  0.2576
 2406TIP3    H1 7224   5.859   3.843   0.487  0.2183 -0.4459 -0.0977
 2406TIP3    H2 7225   5.794   3.960   0.558  1.3922 -1.1313  2.2014
 2407TIP3   OH2 7226   3.647   1.452   3.595 -0.3217  0.0384 -0.1496
 2407TIP3    H1 7227   3.617   1.361   3.597 -0.4308  0.0758 -0.1127
 2407TIP3    H2 7228   3.651   1.474   3.501 -1.2738  0.3223 -0.1314
 2408TIP3   OH2 7229   2.114   3.981   4.080 -0.2595  0.2269 -0.2082
 2408TIP3    H1 7230   2.027   4.016   4.057 -0.2007  1.1364  0.8422
 2408TIP3    H2 7231   2.111   3.971   4.176  0.1627 -1.5472 -0.3456
 2409TIP3   OH2 7232   2.018   5.382   4.881 -0.4002  0.2300  0.1671
 2409TIP3    H1 7233   1.977   5.349   4.960 -1.0691  1.9169  0.5666
 2409TIP3    H2 7234   2.109   5.400   4.907 -0.8337  1.6005  0.8426
 2410TIP3   OH2 7235   4.464   5.755   1.787  0.2840 -0.2902 -0.0346
 2410TIP3    H1 7236   4.526   5.827   1.801 -0.6964  0.4330  0.6989
 2410TIP3    H2 7237   4.381   5.799   1.769  0.2085 -1.2342 -2.2858
 2411TIP3   OH2 7238   5.256   1.101   3.895 -0.3182  0.8162  0.1332
 2411TIP3    H1 7239   5.189   1.037   3.870 -0.3193  0.4075  1.1031
 2411TIP3    H2 7240   5.206   1.176   3.929 -0.3024  0.6338  0.5731
 2412TIP3   OH2 7241   5.126   1.381   1.034  0.7459 -0.3475  0.0394
 2412TIP3    H1 7242   5.064   1.371   1.106 -0.1467  1.2415 -0.4514
 2412TIP3    H2 7243   5.115   1.302   0.981  1.3638 -1.4997  1.5775
 2413TIP3   OH2 7244   1.599   4.698   5.013 -0.1736 -0.5056 -0.0579
 2413TIP3    H1 7245   1.588   4.619   4.961 -2.1540  0.5349 -1.3642
 2413TIP3    H2 7246   1.516   4.746   5.001  1.2623  2.1716 -0.0183
 2414TIP3   OH2 7247   2.494   5.871   1.127 -0.0382  0.0350 -0.3479
 2414TIP3    H1 7248   2.491   5.787   1.173  1.2227  0.3966  0.4600
 2414TIP3    H2 7249   2.404   5.888   1.101 -0.1866 -1.9480 -1.2420
 2415TIP3   OH2 7250   3.252   1.237   2.183 -0.4890 -0.0286 -0.4601
 2415TIP3    H1 7251   3.267   1.158   2.132  2.4953 -0.5785  1.0512
 2415TIP3    H2 7252   3.318   1.299   2.152 -1.1437  1.0016  0.1122
 2416TIP3   OH2 7253   2.248   3.713   4.338 -0.5749  0.6213  0.2269
 2416TIP3    H1 7254   2.248   3.622   4.368  2.0051 -0.1244 -1.7161
 2416TIP3    H2 7255   2.173   3.718   4.279 -1.3138  0.0595  1.0799
 2417TIP3   OH2 7256   0.268   1.427   1.194 -0.7306 -0.2445 -0.5792
 2417TIP3    H1 7257   0.274   1.368   1.119  0.5468 -0.8578 -0.0108
 2417TIP3    H2 7258   0.194   1.393   1.245 -3.4075  1.7266 -2.8103
 2418TIP3   OH2 7259   5.725   5.066   3.176 -0.0742 -0.3208  0.8554
 2418TIP3    H1 7260   5.818   5.085   3.185  0.3629 -0.4565 -2.2072
 2418TIP3    H2 7261   5.722   4.977   3.140 -1.1168  0.7498 -1.9985
 2419TIP3   OH2 7262   1.299   5.189   2.562 -0.4712  1.0534 -0.3915
 2419TIP3    H1 7263   1.290   5.281   2.587 -1.1580  1.3488 -1.6490
 2419TIP3    H2 7264   1.297   5.190   2.466  0.3448 -0.1970 -0.4385
 2420TIP3   OH2 7265   2.619   4.112   4.398 -0.0813 -1.1360 -0.0085
 2420TIP3    H1 7266   2.601   4.079   4.310 -1.0195  2.1450 -1.1566
 2420TIP3    H2 7267   2.536   4.148   4.428  0.7142 -0.3884  1.4076
 2421TIP3   OH2 7268   5.762   4.116   4.833 -0.4606 -0.0909  0.9605
 2421TIP3    H1 7269   5.817   4.090   4.906  0.4184  0.1584  0.4022
 2421TIP3    H2 7270   5.823   4.152   4.769 -1.0815 -1.1824 -0.3003
 2422TIP3   OH2 7271   0.145   2.235   4.073 -0.0734  0.2074 -0.2892
 2422TIP3    H1 7272   0.059   2.215   4.034 -0.6353  0.6940  0.6557
 2422TIP3    H2 7273   0.196   2.271   4.000 -0.5937 -0.3011 -0.9227
 2423TIP3   OH2 7274   4.040   4.987   3.422 -0.2286 -1.0307 -0.4062
 2423TIP3    H1 7275   3.952   4.953   3.407 -0.6856  0.1978 -0.6579
 2423TIP3    H2 7276   4.036   5.077   3.389  0.5194 -0.2798  1.4315
 2424TIP3   OH2 7277   2.123   4.317   1.774  0.1410 -0.1615 -0.1553
 2424TIP3    H1 7278   2.027   4.315   1.767 -0.1118 -1.1111  2.4363
 2424TIP3    H2 7279   2.144   4.411   1.774 -1.0846  0.1695  1.6494
 2425TIP3   OH2 7280   2.885   4.896   0.766 -0.7677  0.6354  0.8917
 2425TIP3    H1 7281   2.817   4.932   0.823 -2.4345  0.3794 -0.8394
 2425TIP3    H2 7282   2.846   4.897   0.678  1.2288 -0.1502 -0.0646
 2426TIP3   OH2 7283   5.463   3.375   3.336  0.1661 -0.2816  0.0709
 2426TIP3    H1 7284   5.437   3.288   3.305  0.4682 -0.5119  0.4585
 2426TIP3    H2 7285   5.440   3.434   3.264 -1.6880 -0.4277  0.5003
 2427TIP3   OH2 7286   0.405   0.127   3.711  0.7846  0.6703  0.6812
 2427TIP3    H1 7287   0.402   0.221   3.725 -0.0595  0.5609  1.3441
 2427TIP3    H2 7288   0.366   0.090   3.790  0.0922 -0.1859 -0.0377
 2428TIP3   OH2 7289   0.401   2.919   0.380  0.3937  0.0020  0.0554
 2428TIP3    H1 7290   0.453   2.903   0.301  1.1638 -1.1612  0.7705
 2428TIP3    H2 7291   0.431   3.005   0.411  1.8421 -0.5922  0.3841
 2429TIP3   OH2 7292   3.786   2.246   1.118 -0.3428  0.2980 -0.0134
 2429TIP3    H1 7293   3.705   2.194   1.112 -0.1946 -0.2449  2.0123
 2429TIP3    H2 7294   3.812   2.239   1.210  1.0188  1.9951 -0.2265
 2430TIP3   OH2 7295   1.553   2.362   0.577  0.2394  0.3613 -0.4249
 2430TIP3    H1 7296   1.624   2.300   0.593 -0.4887 -0.1602  0.8687
 2430TIP3    H2 7297   1.535   2.402   0.662 -1.7589 -0.3313 -0.4777
 2431TIP3   OH2 7298   1.191   0.944   5.135 -0.7111 -0.1530  0.4796
 2431TIP3    H1 7299   1.230   0.955   5.222  0.0440  0.0889  0.1233
 2431TIP3    H2 7300   1.118   1.005   5.133 -1.3906 -0.9181  1.3189
 2432TIP3   OH2 7301   4.067   4.851   5.014  0.4261 -0.3537  0.5197
 2432TIP3    H1 7302   4.048   4.757   5.016  0.0759 -0.2880  0.3176
 2432TIP3    H2 7303   4.017   4.884   4.939  3.0887 -0.5858 -1.5211
 2433TIP3   OH2 7304   4.610   5.270   3.132 -0.0392  0.2459  0.5260
 2433TIP3    H1 7305   4.583   5.282   3.223  1.1739  0.8274  0.8282
 2433TIP3    H2 7306   4.635   5.178   3.126 -0.5340  0.0977  0.6507
 2434TIP3   OH2 7307   2.600   4.642   0.687 -0.2237  0.0493 -0.2775
 2434TIP3    H1 7308   2.593   4.735   0.668 -2.5423  0.0235  0.1649
 2434TIP3    H2 7309   2.511   4.608   0.676  0.5988 -2.1776 -0.6877
 2435TIP3   OH2 7310   1.946   3.534   1.261  0.3004  0.5535  0.5545
 2435TIP3    H1 7311   1.976   3.509   1.173 -1.0565  0.4159  0.1017
 2435TIP3    H2 7312   1.940   3.451   1.309 -0.3555  0.4431  0.3011
 2436TIP3   OH2 7313   1.110   1.311   2.513  0.2782 -0.2370 -0.3819
 2436TIP3    H1 7314   1.144   1.373   2.577  0.7171  0.0027 -0.8422
 2436TIP3    H2 7315   1.054   1.363   2.456 -0.7029 -0.5885  0.2381
 2437TIP3   OH2 7316   5.967   0.330   1.771 -0.4865  0.2722  0.4257
 2437TIP3    H1 7317   6.036   0.333   1.837 -1.2295  1.3541  1.1908
 2437TIP3    H2 7318   5.955   0.421   1.745 -1.3632  0.0554  0.0327
 2438TIP3   OH2 7319   3.121   3.580   3.559 -0.2703  0.2378 -0.3541
 2438TIP3    H1 7320   3.209   3.567   3.522 -0.3277 -2.9242  0.3545
 2438TIP3    H2 7321   3.062   3.565   3.485 -0.2486 -0.4988 -0.2318
 2439TIP3   OH2 7322   2.756   5.413   2.577  0.0379  0.6462 -0.3714
 2439TIP3    H1 7323   2.750   5.341   2.640  0.1874  0.2325 -0.8208
 2439TIP3    H2 7324   2.669   5.417   2.537  0.7497 -1.0970 -2.2813
 2440TIP3   OH2 7325   4.589   3.348   2.436 -0.2739  0.6235  0.2884
 2440TIP3    H1 7326   4.505   3.394   2.433 -1.6894 -1.8499 -0.9628
 2440TIP3    H2 7327   4.609   3.327   2.345  1.4943  0.7178  0.6092
 2441TIP3   OH2 7328   5.213   1.760   2.880  0.4424 -0.2076 -0.8409
 2441TIP3    H1 7329   5.155   1.695   2.840 -0.6333  0.5165 -0.4822
 2441TIP3    H2 7330   5.234   1.723   2.966  1.3358 -0.9334 -1.3523
 2442TIP3   OH2 7331   3.830   1.901   1.418  0.0762 -0.0231 -0.2208
 2442TIP3    H1 7332   3.900   1.903   1.353  0.9917 -0.5594  0.7168
 2442TIP3    H2 7333   3.865   1.847   1.489 -0.4699  1.3772  1.1793
 2443TIP3   OH2 7334   1.064   2.592   4.082  0.4488  0.2080  0.1712
 2443TIP3    H1 7335   1.060   2.509   4.035  0.8543  0.5758 -0.5290
 2443TIP3    H2 7336   1.079   2.568   4.173 -2.4825 -0.6422  0.5312
 2444TIP3   OH2 7337   0.655   2.957   3.579  0.1360 -0.2702 -0.5979
 2444TIP3    H1 7338   0.603   3.017   3.632  0.5211 -0.5361  0.0861
 2444TIP3    H2 7339   0.688   3.011   3.507  3.9142  1.4740  2.1219
 2445TIP3   OH2 7340   3.451   4.109   0.405 -0.0777 -0.8128  0.0580
 2445TIP3    H1 7341   3.391   4.120   0.331  1.1750 -0.0595 -0.8911
 2445TIP3    H2 7342   3.430   4.023   0.440 -0.7874 -1.1436 -1.0999
 2446TIP3   OH2 7343   0.329   4.386   2.903  0.0619 -0.0879 -0.2930
 2446TIP3    H1 7344   0.379   4.311   2.937 -0.1840 -0.9647 -1.7418
 2446TIP3    H2 7345   0.248   4.347   2.869  1.0610  0.3214 -3.5673
 2447TIP3   OH2 7346   5.728   3.134   3.255  0.1231  0.1830 -0.2188
 2447TIP3    H1 7347   5.644   3.158   3.216  0.4211  2.0123  0.1931
 2447TIP3    H2 7348   5.715   3.045   3.286 -2.2304  0.9728  1.3033
 2448TIP3   OH2 7349   1.225   1.798   3.659  0.6510 -0.5801 -0.1293
 2448TIP3    H1 7350   1.200   1.805   3.752 -0.9828  0.4437 -0.5942
 2448TIP3    H2 7351   1.199   1.882   3.621  0.5847 -1.2590 -1.6679
 2449TIP3   OH2 7352   0.355   4.781   0.693  0.2164 -0.0606  0.5108
 2449TIP3    H1 7353   0.305   4.789   0.611  1.1217 -0.8814 -0.1517
 2449TIP3    H2 7354   0.325   4.698   0.730 -3.7020  2.3600  3.5399
 2450TIP3   OH2 7355   0.591   2.144   1.015 -0.1598  0.0730  0.0934
 2450TIP3    H1 7356   0.546   2.175   1.094 -0.5584 -1.4957  0.5190
 2450TIP3    H2 7357   0.679   2.122   1.046  0.0756  0.6373 -0.1729
 2451TIP3   OH2 7358   2.457   5.727   4.088  0.0318  0.2725 -0.0815
 2451TIP3    H1 7359   2.416   5.711   4.173  1.3995 -0.0284  0.5394
 2451TIP3    H2 7360   2.534   5.671   4.087  1.5703  2.2826 -0.3625
 2452TIP3   OH2 7361   1.696   5.730   4.382  0.0880  0.2474 -0.0405
 2452TIP3    H1 7362   1.690   5.700   4.291  1.0528 -1.2771  0.3718
 2452TIP3    H2 7363   1.739   5.815   4.377  2.6474 -1.0207 -0.8374
 2453TIP3   OH2 7364   3.300   1.999   4.785 -0.8922 -0.7294  0.2459
 2453TIP3    H1 7365   3.343   1.937   4.726  1.0118  0.6659  0.0768
 2453TIP3    H2 7366   3.371   2.053   4.819 -2.2000 -0.1768  2.2758
 2454TIP3   OH2 7367   3.225   3.637   2.865  0.1579  0.3833  0.2452
 2454TIP3    H1 7368   3.299   3.636   2.804 -0.9593  1.6199 -1.2175
 2454TIP3    H2 7369   3.264   3.653   2.951  1.7646 -1.2285 -0.1104
 2455TIP3   OH2 7370   2.502   1.614   0.813 -0.2116  0.4129 -0.2946
 2455TIP3    H1 7371   2.456   1.678   0.868  0.2781  0.3943  0.1358
 2455TIP3    H2 7372   2.432   1.567   0.768 -0.5861  1.1370 -0.4837
 2456TIP3   OH2 7373   0.754   2.799   1.239  0.3754  0.3862  0.1119
 2456TIP3    H1 7374   0.742   2.704   1.244  1.7361  0.1597 -0.6428
 2456TIP3    H2 7375   0.665   2.834   1.248 -0.3551 -1.0266 -1.1763
 2457TIP3   OH2 7376   6.045   2.933   2.600 -0.0837 -0.2653 -0.3947
 2457TIP3    H1 7377   6.129   2.914   2.642  0.5011 -1.3916 -1.9820
 2457TIP3    H2 7378   6.048   2.885   2.517 -1.5220  1.2105 -1.3623
 2458TIP3   OH2 7379   0.326   0.694   0.008  0.0086  0.2805  0.2375
 2458TIP3    H1 7380   0.274   0.616  -0.009  0.4522 -0.8987  3.5523
 2458TIP3    H2 7381   0.273   0.744   0.071  1.7052  0.2902  1.7228
 2459TIP3   OH2 7382   4.272   3.800   4.700 -0.4787 -0.4157  0.2819
 2459TIP3    H1 7383   4.349   3.772   4.651  0.1749  1.2140  0.3223
 2459TIP3    H2 7384   4.271   3.895   4.692 -1.0479 -0.1860  2.3869
 2460TIP3   OH2 7385   6.194   2.005   1.418 -0.5050 -0.0190  0.0944
 2460TIP3    H1 7386   6.151   1.947   1.355 -0.0003  0.5484 -0.7870
 2460TIP3    H2 7387   6.212   2.085   1.369 -0.9570  0.7998  1.2211
 2461TIP3   OH2 7388   5.517   0.851   2.632  0.3183  0.6114  0.6129
 2461TIP3    H1 7389   5.435   0.898   2.618  0.3358  0.7263  0.8905
 2461TIP3    H2 7390   5.526   0.794   2.555  2.3016  3.9235 -1.8645
 2462TIP3   OH2 7391   3.820  -0.001   3.322  0.2904 -0.0153  0.0704
 2462TIP3    H1 7392   3.791   0.074   3.269  0.7028  0.6745  0.8039
 2462TIP3    H2 7393   3.743  -0.058   3.326  0.3728 -0.3164 -1.6386
 2463TIP3   OH2 7394   1.164   5.485   1.527  0.3719  0.6435  0.2174
 2463TIP3    H1 7395   1.113   5.527   1.457 -0.6916  0.9225  1.1325
 2463TIP3    H2 7396   1.192   5.558   1.582  1.6876  0.4794 -0.2116
 2464TIP3   OH2 7397   6.276   0.474   0.502  0.7593  0.2497  0.5225
 2464TIP3    H1 7398   6.284   0.563   0.536  0.0252  0.8432 -0.8188
 2464TIP3    H2 7399   6.262   0.420   0.581  1.6850  1.2228  1.3909
 2465TIP3   OH2 7400   0.418   0.019   1.756 -0.4452  0.3061  0.0150
 2465TIP3    H1 7401   0.443   0.112   1.755 -1.3225  0.5494 -0.7025
 2465TIP3    H2 7402   0.489  -0.025   1.710 -0.0063  0.6064  0.3843
 2466TIP3   OH2 7403   2.194   0.876   0.680 -0.3092 -0.3687 -0.9116
 2466TIP3    H1 7404   2.120   0.862   0.740  0.7956 -0.4025  0.4740
 2466TIP3    H2 7405   2.173   0.821   0.605 -0.8071 -1.8730  0.2615
 2467TIP3   OH2 7406   2.118   5.720   2.236  0.0983 -0.4200 -0.2709
 2467TIP3    H1 7407   2.113   5.646   2.175  1.2974 -0.3514 -0.4664
 2467TIP3    H2 7408   2.028   5.753   2.240 -0.3507 -1.5317 -0.6136
 2468TIP3   OH2 7409   3.353   4.463   4.183 -0.0924 -0.4174  0.1724
 2468TIP3    H1 7410   3.274   4.412   4.166 -0.5001  0.3122 -0.1376
 2468TIP3    H2 7411   3.330   4.519   4.257  0.3330 -0.6222  0.4674
 2469TIP3   OH2 7412   6.203   3.344   3.889 -0.3598 -0.4357 -0.1667
 2469TIP3    H1 7413   6.127   3.285   3.893  1.0242 -2.7978 -3.9045
 2469TIP3    H2 7414   6.275   3.293   3.926  0.0701  0.6899  0.6297
 2470TIP3   OH2 7415   4.804   5.354   5.005  0.1273 -0.0530  0.2002
 2470TIP3    H1 7416   4.809   5.445   4.975  0.9363  0.7752  2.6368
 2470TIP3    H2 7417   4.871   5.347   5.073 -2.8684 -1.1153  3.3285
 2471TIP3   OH2 7418   4.193   0.835   1.570  0.2018 -0.0734  0.2306
 2471TIP3    H1 7419   4.288   0.845   1.556  0.1473 -1.6080 -1.7136
 2471TIP3    H2 7420   4.180   0.741   1.582 -1.1438  0.0028 -0.3944
 2472TIP3   OH2 7421   3.498   1.253   0.164  0.4069 -0.5211 -0.1309
 2472TIP3    H1 7422   3.586   1.238   0.197  0.1257 -2.5681 -0.1900
 2472TIP3    H2 7423   3.478   1.343   0.190  3.0329  0.5362 -1.4112
 2473TIP3   OH2 7424   5.969   2.819   1.139  0.6973  0.6038  0.4573
 2473TIP3    H1 7425   6.055   2.856   1.158  0.6497  1.9365 -1.6051
 2473TIP3    H2 7426   5.936   2.871   1.065 -0.9729 -1.2234 -0.1720
 2474TIP3   OH2 7427   6.283   5.108   1.293 -0.4015  0.0483  0.1440
 2474TIP3    H1 7428   6.305   5.046   1.224  0.0666  0.1420  0.2025
 2474TIP3    H2 7429   6.190   5.093   1.311 -0.1230 -1.1423  0.6745
 2475TIP3   OH2 7430   4.159   1.886   1.969  0.4071 -0.1859  0.3589
 2475TIP3    H1 7431   4.234   1.934   2.004  1.6013 -0.1585 -2.0501
 2475TIP3    H2 7432   4.172   1.796   1.999 -0.5006  0.4302  2.7997
 2476TIP3   OH2 7433   1.118   0.433   0.788 -0.1585  0.4368  0.4514
 2476TIP3    H1 7434   1.126   0.366   0.856 -0.1966  0.4691  0.4880
 2476TIP3    H2 7435   1.151   0.513   0.828  1.0887  0.1685 -0.0172
 2477TIP3   OH2 7436   1.828   4.974   5.110  0.1180  0.2081 -0.7142
 2477TIP3    H1 7437   1.799   4.888   5.140  1.8952  0.6357  2.7439
 2477TIP3    H2 7438   1.749   5.015   5.075 -1.3367 -1.8937 -0.0889
 2478TIP3   OH2 7439   4.721   2.846   3.963 -0.6960 -0.0038  0.0383
 2478TIP3    H1 7440   4.712   2.809   3.875 -0.5027  2.0512 -0.8944
 2478TIP3    H2 7441   4.813   2.874   3.968 -0.4310 -0.9751  1.2989
 2479TIP3   OH2 7442   0.457   5.696   4.918 -0.3521  0.2324 -0.1367
 2479TIP3    H1 7443   0.523   5.629   4.935 -2.2678 -1.6450  0.3291
 2479TIP3    H2 7444   0.390   5.651   4.866 -0.8657  2.3087 -1.3770
 2480TIP3   OH2 7445   3.372   3.219   4.585  0.1926  0.4938  0.0727
 2480TIP3    H1 7446   3.320   3.216   4.665  1.4380  1.1491  0.9516
 2480TIP3    H2 7447   3.309   3.230   4.515 -0.7786  3.0306  1.2421
 2481TIP3   OH2 7448   2.662   4.527   3.884 -0.0566 -0.1532 -0.3229
 2481TIP3    H1 7449   2.693   4.510   3.973  0.0992  4.9007  0.9072
 2481TIP3    H2 7450   2.713   4.467   3.829  2.6399 -0.9262  2.6877
 2482TIP3   OH2 7451   0.488   4.307   4.599  0.3804 -0.3100 -0.5595
 2482TIP3    H1 7452   0.410   4.306   4.544  0.6818 -1.3042 -0.9963
 2482TIP3    H2 7453   0.554   4.260   4.547  0.4731 -1.9221  0.9175
 2483TIP3   OH2 7454   6.082   1.774   1.293  0.3564  0.0546 -0.2730
 2483TIP3    H1 7455   6.029   1.694   1.286  0.8912 -0.4605  1.2766
 2483TIP3    H2 7456   6.051   1.829   1.220 -2.5656 -0.0681  0.7235
 2484TIP3   OH2 7457   0.662   2.051   2.498 -0.5337  0.1712 -0.1131
 2484TIP3    H1 7458   0.626   1.971   2.461  0.9805 -0.6234  0.0601
 2484TIP3    H2 7459   0.585   2.102   2.525 -1.5194 -1.2541 -0.1193
 2485TIP3   OH2 7460   4.746   5.348   2.778 -0.0031  0.1629  0.1863
 2485TIP3    H1 7461   4.701   5.264   2.765 -0.9964  0.7117  0.0556
 2485TIP3    H2 7462   4.747   5.389   2.692  2.2360 -0.5426 -0.1876
 2486TIP3   OH2 7463   0.501   2.194   4.288  0.2447 -0.2172 -0.4851
 2486TIP3    H1 7464   0.576   2.215   4.343  0.5719 -1.0660 -0.5899
 2486TIP3    H2 7465   0.426   2.230   4.334  0.4939 -1.0158  0.5847
 2487TIP3   OH2 7466   4.522   0.765   3.818  0.4181 -0.1191  0.2217
 2487TIP3    H1 7467   4.613   0.795   3.815  0.5713 -0.0789  2.9606
 2487TIP3    H2 7468   4.470   0.844   3.802  0.8378  0.1345  0.0798
 2488TIP3   OH2 7469   4.658   2.297   4.300  0.3404 -0.1013 -0.0629
 2488TIP3    H1 7470   4.565   2.319   4.290  0.1538 -0.8175  0.0098
 2488TIP3    H2 7471   4.685   2.341   4.381 -0.7576 -2.3157  1.6389
 2489TIP3   OH2 7472   0.362   1.144   4.367 -0.1143  0.0166 -0.2036
 2489TIP3    H1 7473   0.337   1.057   4.400  1.5319  0.1841  1.6689
 2489TIP3    H2 7474   0.429   1.126   4.301 -0.1569 -0.1450 -0.2050
 2490TIP3   OH2 7475   0.428   1.713   3.342  0.2284 -0.7335 -0.4150
 2490TIP3    H1 7476   0.510   1.701   3.295  0.3526  1.0506 -0.7348
 2490TIP3    H2 7477   0.440   1.664   3.423  2.2522  0.6872  0.2329
 2491TIP3   OH2 7478   4.711   3.267   2.665  0.2804  0.2102  0.0153
 2491TIP3    H1 7479   4.696   3.174   2.647  0.3351  0.1688  0.1817
 2491TIP3    H2 7480   4.683   3.312   2.586 -1.5363  0.2125  0.6190
 2492TIP3   OH2 7481   4.069   3.225   2.471  0.1551  0.1037 -0.2047
 2492TIP3    H1 7482   4.074   3.291   2.540 -0.6215 -0.9657  0.9456
 2492TIP3    H2 7483   4.065   3.274   2.389 -2.0106  1.5626  0.6838
 2493TIP3   OH2 7484   2.845   0.597   0.837 -0.9860  0.1610  0.6806
 2493TIP3    H1 7485   2.896   0.582   0.916 -1.2725 -1.2370  0.6178
 2493TIP3    H2 7486   2.756   0.613   0.870 -0.6516  2.1142  0.7609
 2494TIP3   OH2 7487   3.038   4.677   1.614  0.2863  0.2907  0.0554
 2494TIP3    H1 7488   3.111   4.654   1.671  1.0499  1.0069 -0.6285
 2494TIP3    H2 7489   3.072   4.667   1.525 -1.2149 -1.8993 -0.3662
 2495TIP3   OH2 7490   2.535   0.132   2.661  0.3452  0.1370 -0.4139
 2495TIP3    H1 7491   2.479   0.141   2.737 -0.6960  0.4992 -1.2085
 2495TIP3    H2 7492   2.481   0.087   2.596  0.8605  0.7805 -1.3097
 2496TIP3   OH2 7493   4.477   5.992   0.418 -0.3624  0.2613 -0.6748
 2496TIP3    H1 7494   4.392   5.996   0.375 -0.5738 -0.5118 -0.3443
 2496TIP3    H2 7495   4.521   5.916   0.379  0.3003  0.8262 -1.0559
 2497TIP3   OH2 7496   1.306   1.559   4.281  0.4515  0.2855  0.1903
 2497TIP3    H1 7497   1.378   1.613   4.247  1.0539 -1.6316 -1.8041
 2497TIP3    H2 7498   1.238   1.566   4.215  0.0714 -0.4379  0.5008
 2498TIP3   OH2 7499   2.837   1.569   1.523 -0.4940  0.2679 -0.3463
 2498TIP3    H1 7500   2.781   1.635   1.563  2.0765  2.0269  0.6163
 2498TIP3    H2 7501   2.843   1.596   1.431 -1.8994 -0.5027 -0.7011
 2499TIP3   OH2 7502   0.913   3.721   4.555 -0.4773  0.2557  0.6776
 2499TIP3    H1 7503   0.922   3.758   4.467  0.7616 -1.7128 -0.1100
 2499TIP3    H2 7504   0.844   3.772   4.597 -0.0671  2.2050 -0.9124
 2500TIP3   OH2 7505   3.080   1.225   3.910 -0.1908 -0.2557 -0.0006
 2500TIP3    H1 7506   3.137   1.177   3.849  1.1837  1.2011  0.0839
 2500TIP3    H2 7507   3.022   1.158   3.946 -0.1479 -1.3895 -1.8929
 2501TIP3   OH2 7508   1.289   5.311   0.294  0.4039 -0.3030  1.0945
 2501TIP3    H1 7509   1.357   5.313   0.362  0.4796 -0.0181  1.0115
 2501TIP3    H2 7510   1.217   5.361   0.331 -0.0767 -1.2637  1.5069
 2502TIP3   OH2 7511   0.339   0.635   5.138 -0.2205  0.2244  0.1202
 2502TIP3    H1 7512   0.358   0.709   5.195 -1.3463  1.4925 -1.0618
 2502TIP3    H2 7513   0.425   0.602   5.111  0.3024  0.1949  1.7491
 2503TIP3   OH2 7514   5.043   3.440   4.452 -0.0498  0.1822  0.0884
 2503TIP3    H1 7515   5.003   3.491   4.523 -1.2349  1.2424 -1.2859
 2503TIP3    H2 7516   5.101   3.502   4.409  0.4850 -0.3908 -0.0255
 2504TIP3   OH2 7517   0.450   2.017   0.209  0.9057 -0.1249  0.8392
 2504TIP3    H1 7518   0.436   1.945   0.271  1.4584 -0.9755  0.0128
 2504TIP3    H2 7519   0.421   2.095   0.255  0.2850 -0.8840  1.7643
 2505TIP3   OH2 7520   3.655   2.403   2.065  0.3211 -0.7641  0.1391
 2505TIP3    H1 7521   3.615   2.450   2.138  1.5986 -1.8530  1.6052
 2505TIP3    H2 7522   3.630   2.453   1.987 -0.8357  0.5985  1.3376
 2506TIP3   OH2 7523   0.633   1.160   3.447 -0.3880  0.2101  0.1049
 2506TIP3    H1 7524   0.716   1.207   3.452 -0.6494  0.6481  0.4623
 2506TIP3    H2 7525   0.579   1.201   3.515 -0.3643 -1.1275  0.9681
 2507TIP3   OH2 7526   3.015   4.285   4.058 -0.4438  0.3644  0.3658
 2507TIP3    H1 7527   3.008   4.190   4.046 -0.0328  0.3853 -0.0622
 2507TIP3    H2 7528   3.061   4.295   4.142  0.9892  0.1545 -0.3571
 2508TIP3   OH2 7529   3.262   1.761   0.394 -0.0617 -0.1584  0.0287
 2508TIP3    H1 7530   3.244   1.670   0.419 -0.5229 -0.5468 -1.6422
 2508TIP3    H2 7531   3.183   1.809   0.421  0.0544 -0.2883  0.6303
 2509TIP3   OH2 7532   5.591   5.341   2.214 -0.1323  0.6555 -0.3737
 2509TIP3    H1 7533   5.550   5.258   2.190  0.7034  0.4199 -1.0211
 2509TIP3    H2 7534   5.683   5.319   2.230 -0.2171  1.1759  1.0219
 2510TIP3   OH2 7535   5.950   1.198   3.126 -0.2345 -0.5202  0.0656
 2510TIP3    H1 7536   5.872   1.145   3.141  0.6386 -1.4194  1.8638
 2510TIP3    H2 7537   5.969   1.236   3.212  1.7580 -1.0217 -0.1041
 2511TIP3   OH2 7538   5.068   3.011   3.207  0.4352  0.4948 -0.4669
 2511TIP3    H1 7539   5.067   2.930   3.156 -2.7147 -0.0452  0.2444
 2511TIP3    H2 7540   5.077   2.981   3.298 -0.8400  0.8664 -0.1947
 2512TIP3   OH2 7541   0.313   3.606   2.176  0.1503  0.3367 -0.1486
 2512TIP3    H1 7542   0.309   3.526   2.123 -0.0468  0.3240 -0.1175
 2512TIP3    H2 7543   0.363   3.581   2.253  0.4437  0.3570 -0.3304
 2513TIP3   OH2 7544   5.355   5.532   1.911  0.1364 -0.4433  0.6324
 2513TIP3    H1 7545   5.401   5.449   1.901  0.1658 -0.4111  0.4874
 2513TIP3    H2 7546   5.410   5.595   1.863  0.6693 -0.1325  1.6155
 2514TIP3   OH2 7547   3.150   0.819   3.497  0.3580  0.4623  0.2885
 2514TIP3    H1 7548   3.080   0.793   3.437 -0.4159  0.5628  1.1223
 2514TIP3    H2 7549   3.110   0.813   3.584  2.4405 -3.0473  1.1709
 2515TIP3   OH2 7550   3.241   5.475   1.173  0.7420  0.2883 -0.0358
 2515TIP3    H1 7551   3.155   5.434   1.165 -0.8039  3.1763  0.7479
 2515TIP3    H2 7552   3.244   5.509   1.262  1.5653  2.5704 -0.8608
 2516TIP3   OH2 7553   1.935   2.556   1.902 -0.2953  0.2344 -0.1724
 2516TIP3    H1 7554   1.897   2.480   1.946 -1.1687 -0.2021 -1.6182
 2516TIP3    H2 7555   1.986   2.519   1.830  0.0686  0.9794 -0.3093
 2517TIP3   OH2 7556   0.501   0.782   2.335 -1.0433  0.5030 -0.3363
 2517TIP3    H1 7557   0.586   0.827   2.337 -0.6611 -0.2256  1.1303
 2517TIP3    H2 7558   0.440   0.846   2.372 -0.8899  0.5715 -0.1998
 2518TIP3   OH2 7559   4.089   3.917   2.396  0.2259  0.0208 -0.9678
 2518TIP3    H1 7560   4.003   3.957   2.409  0.1280  0.3601 -2.5413
 2518TIP3    H2 7561   4.070   3.831   2.358  0.5675 -0.1281 -0.8076
 2519TIP3   OH2 7562   3.682   3.028   3.803 -0.0547  0.4250 -0.1585
 2519TIP3    H1 7563   3.643   2.946   3.833  2.5058 -0.9743 -0.3242
 2519TIP3    H2 7564   3.734   3.059   3.878 -1.2565  2.1385  0.0285
 2520TIP3   OH2 7565   0.127   2.655   2.127  0.2939 -0.7316  0.0891
 2520TIP3    H1 7566   0.087   2.734   2.163  1.3107 -0.2992  0.3108
 2520TIP3    H2 7567   0.213   2.684   2.095  0.8096 -1.8079  0.4473
 2521TIP3   OH2 7568   0.277   1.237   0.632 -0.1521  0.4425  0.5757
 2521TIP3    H1 7569   0.196   1.192   0.607  1.6026 -1.7968 -1.5125
 2521TIP3    H2 7570   0.337   1.222   0.559  2.8516  0.1243  2.9135
 2522TIP3   OH2 7571   1.190   3.977   5.114  0.1382 -0.1912 -0.3551
 2522TIP3    H1 7572   1.229   3.918   5.049 -1.4185  0.0610 -1.5856
 2522TIP3    H2 7573   1.235   4.060   5.101  2.0126 -0.9008  1.0683
 2523TIP3   OH2 7574   0.528   1.961   0.821  0.1045 -0.2695  0.0196
 2523TIP3    H1 7575   0.433   1.960   0.805  0.1310 -1.1412 -0.1328
 2523TIP3    H2 7576   0.538   2.011   0.902 -0.3590  0.9916 -0.6719
 2524TIP3   OH2 7577   2.718   5.575   4.083 -0.7350 -0.1890  0.3671
 2524TIP3    H1 7578   2.800   5.591   4.037 -0.3155 -1.6243  0.5492
 2524TIP3    H2 7579   2.743   5.558   4.173 -1.4492  1.4330  0.8973
 2525TIP3   OH2 7580   3.012   5.478   0.604  0.2877  0.1443 -0.5169
 2525TIP3    H1 7581   2.983   5.413   0.669  0.9255  0.2641 -0.1031
 2525TIP3    H2 7582   3.021   5.559   0.654 -0.8679  0.6552 -1.1096
 2526TIP3   OH2 7583   3.159   5.349   1.492 -0.6098 -0.2912  0.7436
 2526TIP3    H1 7584   3.094   5.339   1.422 -1.6748  1.7040  1.3481
 2526TIP3    H2 7585   3.207   5.429   1.468  1.5564 -1.6284  0.4098
 2527TIP3   OH2 7586   4.997   4.742   3.635  0.2963  0.5042  0.3054
 2527TIP3    H1 7587   5.040   4.813   3.588  2.5057 -0.8243  0.2006
 2527TIP3    H2 7588   5.043   4.738   3.719 -1.7317  1.0046  1.5212
 2528TIP3   OH2 7589   0.693   5.836   3.560  0.4738 -0.2165 -0.3072
 2528TIP3    H1 7590   0.626   5.895   3.594 -1.0895 -2.1883  0.2514
 2528TIP3    H2 7591   0.747   5.891   3.504 -2.4356  1.2520 -1.9181
 2529TIP3   OH2 7592   3.234   2.896   4.875  0.2480  0.1471  0.1005
 2529TIP3    H1 7593   3.159   2.839   4.854 -0.2734  0.9411 -0.2334
 2529TIP3    H2 7594   3.237   2.898   4.970 -1.3947  1.6692  0.1636
 2530TIP3   OH2 7595   1.599   3.467   4.289  0.9703  0.2554  0.0028
 2530TIP3    H1 7596   1.526   3.405   4.296  1.6590 -0.4903  0.7271
 2530TIP3    H2 7597   1.587   3.525   4.364  1.9064 -0.7525  0.9747
 2531TIP3   OH2 7598   5.144   2.468   4.774  0.7095  0.6755  0.4088
 2531TIP3    H1 7599   5.080   2.439   4.840  0.3706  2.8215  1.0936
 2531TIP3    H2 7600   5.094   2.526   4.716  1.8941  1.9145  0.5955
 2532TIP3   OH2 7601   2.332   5.691   0.343  0.2970 -0.1667 -0.1868
 2532TIP3    H1 7602   2.374   5.775   0.361  2.8226 -0.7339 -2.8021
 2532TIP3    H2 7603   2.282   5.705   0.263 -0.8513 -0.7095  0.4057
 2533TIP3   OH2 7604   1.804   4.137   2.237  0.1044  0.4877  0.8713
 2533TIP3    H1 7605   1.875   4.082   2.204  0.6343  1.8796 -0.4341
 2533TIP3    H2 7606   1.837   4.173   2.320  0.7645  0.7703  0.4949
 2534TIP3   OH2 7607   1.000   0.637   4.026 -0.0148 -0.3706 -0.0181
 2534TIP3    H1 7608   1.006   0.561   4.083  2.2548 -1.6652 -1.8114
 2534TIP3    H2 7609   0.908   0.640   4.000 -0.4085 -1.7240  1.0866
 2535TIP3   OH2 7610   4.217   0.931   4.912 -0.0322  0.3427  0.2019
 2535TIP3    H1 7611   4.216   0.951   4.818  1.8707  3.9772  0.7961
 2535TIP3    H2 7612   4.125   0.929   4.937 -0.5341  0.6377 -1.4866
 2536TIP3   OH2 7613   3.652   5.485   3.487 -0.0260  0.3594 -0.1261
 2536TIP3    H1 7614   3.563   5.520   3.488 -0.2823 -0.2389 -0.9651
 2536TIP3    H2 7615   3.708   5.561   3.502 -0.6823  0.7000  0.7119
 2537TIP3   OH2 7616   3.653   4.005   1.796  0.7437 -0.3587  0.1155
 2537TIP3    H1 7617   3.712   4.032   1.867 -0.4796 -1.5323  1.6633
 2537TIP3    H2 7618   3.567   4.035   1.824  0.3377 -0.1376 -1.2953
 2538TIP3   OH2 7619   6.219   4.781   1.316  0.8008  0.2112 -0.8369
 2538TIP3    H1 7620   6.137   4.818   1.348  0.6176 -0.1985 -0.8282
 2538TIP3    H2 7621   6.213   4.788   1.221  0.5121 -0.3305 -0.8600
 2539TIP3   OH2 7622   5.159   3.242   3.370 -0.5801 -0.0090 -0.2278
 2539TIP3    H1 7623   5.095   3.301   3.328 -2.0295 -0.2163  1.5522
 2539TIP3    H2 7624   5.150   3.160   3.322 -0.9895  0.2408 -0.5966
 2540TIP3   OH2 7625   3.737   3.741   2.857 -0.3636 -0.1739 -0.4354
 2540TIP3    H1 7626   3.806   3.734   2.791  1.2976 -1.4533  1.3302
 2540TIP3    H2 7627   3.680   3.666   2.841  0.2739 -0.7200 -0.1954
 2541TIP3   OH2 7628   0.330   5.357   1.050 -0.0001  0.2414 -0.1041
 2541TIP3    H1 7629   0.319   5.263   1.062  0.8181  0.2297  0.6559
 2541TIP3    H2 7630   0.279   5.377   0.971  1.0213 -1.0880 -1.1463
 2542TIP3   OH2 7631   0.699   3.933   0.774 -0.1435  0.5455  0.2400
 2542TIP3    H1 7632   0.651   3.971   0.700 -1.8116 -2.4646 -0.3724
 2542TIP3    H2 7633   0.642   3.948   0.849 -0.2804  0.2245  0.2003
 2543TIP3   OH2 7634   3.738   4.369   3.316  0.3044 -0.2104  0.2022
 2543TIP3    H1 7635   3.798   4.436   3.349  1.4247  0.0694 -2.2066
 2543TIP3    H2 7636   3.692   4.338   3.394  0.0206  3.0391  1.4892
 2544TIP3   OH2 7637   4.494   0.584   3.610  0.8719  0.6078 -0.0005
 2544TIP3    H1 7638   4.520   0.652   3.547  0.5327  1.5548  0.8489
 2544TIP3    H2 7639   4.523   0.619   3.695 -1.1066  0.6413  0.6948
 2545TIP3   OH2 7640   2.789   3.999   1.577  0.3866  0.4946 -0.5121
 2545TIP3    H1 7641   2.740   3.991   1.659 -2.1602  0.0813 -1.9614
 2545TIP3    H2 7642   2.771   4.089   1.548 -0.4323  0.0163 -1.5643
 2546TIP3   OH2 7643   1.402   1.550   5.094 -0.0103 -0.1664 -0.3570
 2546TIP3    H1 7644   1.386   1.597   5.013 -0.5913  1.2843  0.5584
 2546TIP3    H2 7645   1.497   1.536   5.096  0.4076  2.3662  0.0472
 2547TIP3   OH2 7646   4.099   3.140   1.446  0.5396  0.3308  0.2126
 2547TIP3    H1 7647   4.192   3.150   1.425  0.2074  1.7032 -0.7487
 2547TIP3    H2 7648   4.091   3.050   1.478  2.3640  0.4922  1.2673
 2548TIP3   OH2 7649   4.773   1.736   2.406 -0.2951 -0.0062 -0.1668
 2548TIP3    H1 7650   4.691   1.707   2.445 -0.5441  0.2403 -0.5000
 2548TIP3    H2 7651   4.760   1.725   2.312  0.2049 -0.3509 -0.1968
 2549TIP3   OH2 7652   4.723   0.895   1.592 -0.5498  0.2688 -0.4372
 2549TIP3    H1 7653   4.721   0.990   1.602  0.9536  0.2873 -0.0839
 2549TIP3    H2 7654   4.725   0.880   1.497  0.2291  0.6436 -0.4883
 2550TIP3   OH2 7655   2.239   4.260   2.667  0.5969  0.2310 -0.0365
 2550TIP3    H1 7656   2.219   4.350   2.695  0.8208  0.3696 -0.3179
 2550TIP3    H2 7657   2.180   4.205   2.719  0.1220  0.5697 -0.2066
 2551TIP3   OH2 7658   2.486   2.852   3.506 -0.1122 -0.4682  0.2330
 2551TIP3    H1 7659   2.435   2.932   3.517 -1.0430 -0.7236 -1.8067
 2551TIP3    H2 7660   2.575   2.883   3.488 -0.5720  0.1691 -1.0873
 2552TIP3   OH2 7661   0.293   5.328   3.819  0.0003 -0.4164  0.1393
 2552TIP3    H1 7662   0.303   5.331   3.914  0.5777 -0.4932  0.0822
 2552TIP3    H2 7663   0.309   5.417   3.790  2.5369 -0.8764 -0.1326
 2553TIP3   OH2 7664   0.264   1.580   2.502  0.1864  0.6621 -0.0619
 2553TIP3    H1 7665   0.342   1.548   2.548  1.3099  2.2749 -0.7802
 2553TIP3    H2 7666   0.253   1.520   2.429  0.3144  0.0106  0.4428
 2554TIP3   OH2 7667   0.829   0.700   1.666 -0.6813 -0.0725  0.4625
 2554TIP3    H1 7668   0.757   0.723   1.607 -0.0454  1.8640  0.4062
 2554TIP3    H2 7669   0.908   0.707   1.612 -0.2370  0.1896  1.1362
 2555TIP3   OH2 7670   3.516   2.858   3.271 -0.2911  0.2705 -0.6198
 2555TIP3    H1 7671   3.423   2.878   3.277  0.0192  1.6281 -0.0412
 2555TIP3    H2 7672   3.549   2.916   3.202  0.1543 -0.1184 -0.7409
 2556TIP3   OH2 7673   2.495   0.311   1.559  0.0176 -0.1667  0.7254
 2556TIP3    H1 7674   2.589   0.299   1.568  0.4599 -0.5554 -3.0423
 2556TIP3    H2 7675   2.466   0.236   1.508 -1.9431  1.0735 -0.1001
 2557TIP3   OH2 7676   1.750   1.934   5.005  0.3306  0.6875 -0.3545
 2557TIP3    H1 7677   1.698   2.007   4.971 -0.5706 -0.0361 -0.5820
 2557TIP3    H2 7678   1.712   1.856   4.964 -2.4974 -0.5643  3.8988
 2558TIP3   OH2 7679   0.514   0.951   0.573  0.5388 -0.0051  0.3982
 2558TIP3    H1 7680   0.468   0.962   0.656  0.6418 -2.5273  0.8724
 2558TIP3    H2 7681   0.599   0.915   0.597 -0.1125 -2.5980 -0.8092
 2559TIP3   OH2 7682   3.729   2.921   0.957 -0.3742  0.0853  1.1414
 2559TIP3    H1 7683   3.658   2.978   0.988  0.2068  0.5313  1.6863
 2559TIP3    H2 7684   3.765   2.967   0.882 -0.9443 -0.3635  0.5816
 2560TIP3   OH2 7685   1.863   5.499   2.849 -0.4291  0.3307  0.2507
 2560TIP3    H1 7686   1.929   5.494   2.918  2.0608  0.1677 -1.9772
 2560TIP3    H2 7687   1.897   5.564   2.787 -3.1426  1.3667 -0.3236
 2561TIP3   OH2 7688   3.576   0.339   0.146  0.3578 -0.3235  0.2049
 2561TIP3    H1 7689   3.582   0.246   0.126 -1.4772 -0.2560 -0.8802
 2561TIP3    H2 7690   3.507   0.345   0.213 -0.0849  0.3049 -0.2944
 2562TIP3   OH2 7691   5.163   4.416   4.983 -0.3922 -0.2571 -0.6016
 2562TIP3    H1 7692   5.214   4.336   4.972 -0.7689 -0.4292 -1.1535
 2562TIP3    H2 7693   5.143   4.444   4.894  1.1790  1.4138 -0.4873
 2563TIP3   OH2 7694   5.339   0.068   1.632 -0.5268 -0.3198 -0.3923
 2563TIP3    H1 7695   5.245   0.081   1.614 -0.3983  1.0342 -0.2237
 2563TIP3    H2 7696   5.378   0.154   1.617  0.7646 -0.9477 -0.8126
 2564TIP3   OH2 7697   6.176   0.330   1.927  0.3774  0.0359  0.5952
 2564TIP3    H1 7698   6.202   0.239   1.938  1.1601 -0.1221 -1.9321
 2564TIP3    H2 7699   6.211   0.374   2.005  0.5377 -1.6867  1.5449
 2565TIP3   OH2 7700   1.384   0.722   4.651  0.2364  0.1574  0.7644
 2565TIP3    H1 7701   1.400   0.726   4.745  0.2187  1.1237  0.7372
 2565TIP3    H2 7702   1.293   0.750   4.641  0.1471 -0.2218  0.4771
 2566TIP3   OH2 7703   5.956   5.477   0.910  0.0083  0.5119 -0.2920
 2566TIP3    H1 7704   5.975   5.384   0.920 -0.8246  0.3145 -0.4218
 2566TIP3    H2 7705   6.026   5.522   0.956 -0.6887 -0.2241  1.5761
 2567TIP3   OH2 7706   3.828   5.753   0.639  0.5431 -0.2014 -0.1006
 2567TIP3    H1 7707   3.887   5.685   0.609  0.0188  0.5626 -3.1214
 2567TIP3    H2 7708   3.845   5.828   0.581 -2.4005  0.5000 -0.2305
 2568TIP3   OH2 7709   1.708   2.988   4.625  0.2105 -0.1842  0.4290
 2568TIP3    H1 7710   1.699   3.021   4.714  0.4054 -0.2220  0.4623
 2568TIP3    H2 7711   1.707   2.893   4.634  1.4629 -0.2044  0.5241
 2569TIP3   OH2 7712   5.984   1.223   1.478  0.2086  0.5717 -0.1606
 2569TIP3    H1 7713   5.894   1.192   1.470  0.5962 -1.0265  1.2947
 2569TIP3    H2 7714   5.995   1.241   1.571  1.3948  0.8070 -0.3349
 2570TIP3   OH2 7715   5.948   2.317   0.761 -0.0261 -0.3478  0.3180
 2570TIP3    H1 7716   5.874   2.359   0.806  0.9050 -0.5740  2.1432
 2570TIP3    H2 7717   6.018   2.381   0.766  0.4573 -0.8700  0.3093
 2571TIP3   OH2 7718   1.985   3.053   4.019 -0.5895  0.0334 -0.1638
 2571TIP3    H1 7719   1.924   3.060   3.945 -1.2303 -0.8922  0.2501
 2571TIP3    H2 7720   1.946   3.107   4.087 -1.0436 -0.6650  0.1468
 2572TIP3   OH2 7721   0.048   1.904   4.910 -0.1982 -0.2770 -0.6255
 2572TIP3    H1 7722   0.022   1.849   4.984 -0.0392 -0.1420 -0.4681
 2572TIP3    H2 7723   0.075   1.842   4.842 -2.7179 -0.5169 -1.5090
 2573TIP3   OH2 7724   3.655   3.810   4.781  0.0172 -0.0772 -0.0824
 2573TIP3    H1 7725   3.724   3.867   4.746  0.6868 -1.2946 -0.8097
 2573TIP3    H2 7726   3.627   3.757   4.706  0.2577 -1.5459  0.8267
 2574TIP3   OH2 7727   5.537   4.958   4.609  0.0107 -0.0813  0.0210
 2574TIP3    H1 7728   5.476   4.981   4.679 -0.8571 -1.1514 -0.3641
 2574TIP3    H2 7729   5.583   4.881   4.640  1.2221  0.7375  0.3211
 2575TIP3   OH2 7730   2.199   1.061   5.164  0.0905  0.3593 -0.2877
 2575TIP3    H1 7731   2.127   1.002   5.142  1.9296 -1.3020 -2.3566
 2575TIP3    H2 7732   2.195   1.129   5.097  1.1091 -0.4089 -1.1559
 2576TIP3   OH2 7733   0.020   1.863   1.167 -0.4461  0.5641  0.3545
 2576TIP3    H1 7734   0.023   1.824   1.080  1.6871  0.7933  0.2790
 2576TIP3    H2 7735  -0.011   1.952   1.152 -2.5237 -0.1398  0.1779
 2577TIP3   OH2 7736   3.495   5.392   1.208  0.0929 -0.3124 -0.5918
 2577TIP3    H1 7737   3.405   5.415   1.186 -0.1347  1.1321  1.5308
 2577TIP3    H2 7738   3.543   5.475   1.208  1.5717 -1.0979 -2.0830
 2578TIP3   OH2 7739   1.093   1.782   2.823 -0.3200  0.6168 -0.2274
 2578TIP3    H1 7740   1.081   1.829   2.906 -1.6983 -2.4656  1.4603
 2578TIP3    H2 7741   1.181   1.744   2.830 -0.6523 -0.1094  0.1171
 2579TIP3   OH2 7742   1.979   3.764   0.270 -0.1073  0.8279  0.0019
 2579TIP3    H1 7743   2.022   3.827   0.328 -0.5778  0.1799  1.0744
 2579TIP3    H2 7744   1.935   3.818   0.204 -0.5523  1.6313  0.9322
 2580TIP3   OH2 7745   4.222   0.744   1.950 -0.0327 -0.3228 -0.0699
 2580TIP3    H1 7746   4.279   0.820   1.936  1.4384 -1.3464  0.1491
 2580TIP3    H2 7747   4.218   0.701   1.864 -1.1070  0.1479 -0.2671
 2581TIP3   OH2 7748   1.300   5.832   3.130  0.2670 -0.2688  0.5619
 2581TIP3    H1 7749   1.281   5.841   3.223  1.5790  2.7953  0.6269
 2581TIP3    H2 7750   1.381   5.881   3.116  1.4402 -2.6064 -1.8367
 2582TIP3   OH2 7751   3.460   4.216   4.277  0.2488  0.3417 -0.1260
 2582TIP3    H1 7752   3.448   4.195   4.370  2.7012  1.7395  0.5836
 2582TIP3    H2 7753   3.429   4.306   4.269  0.4997  0.3943 -0.5474
 2583TIP3   OH2 7754   1.359   1.728   3.306  0.4353  0.0001  0.1240
 2583TIP3    H1 7755   1.428   1.734   3.240  1.2342  0.8323  0.9965
 2583TIP3    H2 7756   1.333   1.818   3.322  1.4408 -0.0052  2.1143
 2584TIP3   OH2 7757   2.346   0.308   3.754  0.4910  0.0322 -0.1052
 2584TIP3    H1 7758   2.292   0.294   3.676  0.7108 -0.4971 -0.1622
 2584TIP3    H2 7759   2.434   0.282   3.728  1.2079  2.6331 -0.6054
 2585TIP3   OH2 7760   1.711   1.054   1.620  0.0721 -0.2391 -0.5103
 2585TIP3    H1 7761   1.645   1.036   1.553  0.1097  1.9611 -1.2331
 2585TIP3    H2 7762   1.704   0.982   1.681 -3.0522 -0.0729 -0.5361
 2586TIP3   OH2 7763   6.138   0.668   1.802  0.4207 -0.3127 -0.0483
 2586TIP3    H1 7764   6.223   0.681   1.845  0.2827  2.5242 -0.4236
 2586TIP3    H2 7765   6.077   0.651   1.875  0.8935  0.2172  0.4836
 2587TIP3   OH2 7766   6.153   4.141   2.714  0.1572  0.0138  0.3325
 2587TIP3    H1 7767   6.143   4.163   2.621 -0.9396 -0.0790  0.4113
 2587TIP3    H2 7768   6.122   4.219   2.760 -0.6234 -0.4566  0.6159
 2588TIP3   OH2 7769   3.713   5.555   4.833  0.3547  0.9715 -0.7243
 2588TIP3    H1 7770   3.703   5.553   4.738 -0.1073  0.3130 -0.6695
 2588TIP3    H2 7771   3.628   5.586   4.865  0.9168  2.4254 -0.5760
 2589TIP3   OH2 7772   4.728   2.203   4.911  0.2284 -0.2858  0.4165
 2589TIP3    H1 7773   4.717   2.234   5.001  1.3048 -1.7045  1.0623
 2589TIP3    H2 7774   4.811   2.156   4.911  0.1811 -0.4343 -1.2991
 2590TIP3   OH2 7775   3.696   4.610   0.426 -0.4468  0.0388 -0.0664
 2590TIP3    H1 7776   3.610   4.627   0.464 -0.3138  0.5043  0.0254
 2590TIP3    H2 7777   3.685   4.628   0.332 -0.2668  0.8183  0.0515
 2591TIP3   OH2 7778   1.994   1.133   3.224 -0.1386 -0.5098 -0.2558
 2591TIP3    H1 7779   1.938   1.058   3.241  1.2804 -1.3256  1.1042
 2591TIP3    H2 7780   2.067   1.098   3.174 -0.0705  0.2182 -0.6854
 2592TIP3   OH2 7781   3.774   1.667   5.124  0.2787 -0.0352 -0.3345
 2592TIP3    H1 7782   3.728   1.723   5.061  1.1196  0.7414 -0.2781
 2592TIP3    H2 7783   3.727   1.681   5.207 -0.3827 -0.5047 -0.6232
 2593TIP3   OH2 7784   1.474   3.872   2.191  0.4767  0.3212 -0.2555
 2593TIP3    H1 7785   1.550   3.814   2.198  0.5660  0.4118 -0.4475
 2593TIP3    H2 7786   1.511   3.957   2.165  0.0893 -0.3088 -3.1894
 2594TIP3   OH2 7787   4.025   3.400   0.232 -0.1654 -0.0251  0.0625
 2594TIP3    H1 7788   3.966   3.338   0.275  0.5673 -0.5011  0.4098
 2594TIP3    H2 7789   4.070   3.348   0.165  1.7216 -0.3601  1.4941
 2595TIP3   OH2 7790   1.161   4.316   3.327  0.2067 -0.0836  0.3089
 2595TIP3    H1 7791   1.182   4.407   3.344 -3.1839  1.2732 -1.6238
 2595TIP3    H2 7792   1.193   4.300   3.238  2.0063 -1.3150  1.1186
 2596TIP3   OH2 7793   6.122   2.508   2.568 -0.8249  0.4161 -0.0125
 2596TIP3    H1 7794   6.035   2.490   2.532 -1.0906 -0.3294  0.9642
 2596TIP3    H2 7795   6.126   2.456   2.648  0.3381  0.8336  0.2168
 2597TIP3   OH2 7796   1.435   1.368   1.949 -0.1273  0.4055 -0.4581
 2597TIP3    H1 7797   1.469   1.286   1.986  0.5419  0.7316 -0.3434
 2597TIP3    H2 7798   1.483   1.379   1.868  0.5025  1.2002  0.0166
 2598TIP3   OH2 7799   0.829   0.034   0.357 -0.0549 -0.3166 -0.3569
 2598TIP3    H1 7800   0.810   0.124   0.382 -2.0489 -0.7865  0.0354
 2598TIP3    H2 7801   0.886   0.001   0.427 -0.3596  0.2733  0.1773
 2599TIP3   OH2 7802   1.894   2.050   0.025 -0.4121  0.0922  0.1172
 2599TIP3    H1 7803   1.822   2.000   0.063 -1.2892  0.3761 -1.1188
 2599TIP3    H2 7804   1.933   1.990  -0.039  0.9873 -0.3477  1.3280
 2600TIP3   OH2 7805   5.397   3.592   4.473  0.4412 -0.1934 -0.6912
 2600TIP3    H1 7806   5.448   3.655   4.524 -0.2417  0.8607 -1.2778
 2600TIP3    H2 7807   5.410   3.618   4.382  0.6044 -1.2592 -0.9852
 2601TIP3   OH2 7808   1.169   0.312   1.272 -0.2156  0.0658  0.9772
 2601TIP3    H1 7809   1.241   0.312   1.209 -1.2992  0.3926 -0.3041
 2601TIP3    H2 7810   1.193   0.245   1.336  0.7111 -0.5733 -0.0157
 2602TIP3   OH2 7811   3.023   4.305   2.508 -0.3270 -0.2634 -0.0358
 2602TIP3    H1 7812   2.987   4.253   2.436 -1.3354 -0.3926  0.5499
 2602TIP3    H2 7813   2.975   4.388   2.504  1.6616  0.9143 -1.3234
 2603TIP3   OH2 7814   4.031   3.629   1.099  0.5082  0.3324  0.6725
 2603TIP3    H1 7815   4.049   3.616   1.006  0.7936 -0.3263  0.8115
 2603TIP3    H2 7816   4.006   3.721   1.106  1.9601  0.7967  0.1621
 2604TIP3   OH2 7817   2.959   5.619   3.960 -0.2316  0.1188 -0.3895
 2604TIP3    H1 7818   3.027   5.576   4.013 -1.6473 -1.4377  0.2541
 2604TIP3    H2 7819   2.974   5.587   3.871  0.0171 -0.0380 -0.2924
 2605TIP3   OH2 7820   1.400   1.640   1.244 -0.3002 -0.6863 -0.0511
 2605TIP3    H1 7821   1.438   1.713   1.195 -0.9174 -0.7510 -0.6478
 2605TIP3    H2 7822   1.332   1.680   1.298 -0.6311 -0.8071 -0.3696
 2606TIP3   OH2 7823   3.312   3.036   3.375 -0.3665  0.1666  0.0711
 2606TIP3    H1 7824   3.377   3.093   3.335 -1.1792  0.9020 -0.2326
 2606TIP3    H2 7825   3.355   3.003   3.454  0.6390  0.0409 -0.5078
 2607TIP3   OH2 7826   4.763   5.740   3.921  0.5464  0.0759 -0.2439
 2607TIP3    H1 7827   4.672   5.721   3.944  0.5293 -0.3112 -0.6143
 2607TIP3    H2 7828   4.814   5.685   3.980  0.6487  2.2312  1.8374
 2608TIP3   OH2 7829   1.410   5.136   4.819 -0.1465 -0.3542  0.2294
 2608TIP3    H1 7830   1.408   5.133   4.915  0.6248 -2.7474  0.2379
 2608TIP3    H2 7831   1.501   5.121   4.796 -0.6620 -2.1461 -0.8708
 2609TIP3   OH2 7832   0.692   3.235   4.501  0.0402 -0.4995  0.1968
 2609TIP3    H1 7833   0.720   3.304   4.441  1.4703 -1.7868 -0.6764
 2609TIP3    H2 7834   0.619   3.274   4.550 -1.8538  0.2782 -3.0095
 2610TIP3   OH2 7835   4.403   0.849   3.484  0.0860  1.0108 -0.2735
 2610TIP3    H1 7836   4.381   0.941   3.497  1.4897  1.2656  0.4378
 2610TIP3    H2 7837   4.330   0.814   3.432 -0.6878  2.4003 -0.1636
 2611TIP3   OH2 7838   3.464   3.547   4.084  0.2493  0.1654 -0.3029
 2611TIP3    H1 7839   3.376   3.513   4.104  0.3729 -0.3838 -0.6961
 2611TIP3    H2 7840   3.510   3.544   4.168  0.0679 -0.0685 -0.2099
 2612TIP3   OH2 7841   0.811   0.876   4.690  0.0456 -0.5046 -0.0972
 2612TIP3    H1 7842   0.736   0.867   4.631 -0.6220 -1.9476  0.9078
 2612TIP3    H2 7843   0.773   0.868   4.777  0.9883  1.7587  0.5749
 2613TIP3   OH2 7844   2.867   1.073   0.284  0.0701  0.1599 -0.1223
 2613TIP3    H1 7845   2.907   1.087   0.370  0.9803  0.7108 -0.6131
 2613TIP3    H2 7846   2.928   1.017   0.237 -0.1152  0.3670 -0.6235
 2614TIP3   OH2 7847   2.309   0.984   0.119  0.1628 -0.0599 -0.1062
 2614TIP3    H1 7848   2.253   1.010   0.192 -1.5943  1.0550 -1.7269
 2614TIP3    H2 7849   2.273   1.033   0.044  3.2055  0.5242 -1.3057
 2615TIP3   OH2 7850   1.874   1.957   1.169 -0.1064 -0.3321  0.3823
 2615TIP3    H1 7851   1.844   1.867   1.160 -0.8150  0.0303 -1.2980
 2615TIP3    H2 7852   1.953   1.951   1.223  0.3779 -2.0549 -0.4484
 2616TIP3   OH2 7853   2.929   2.819   0.743  0.3252 -0.0934  0.3867
 2616TIP3    H1 7854   3.016   2.807   0.782  1.2661 -0.2247 -1.6284
 2616TIP3    H2 7855   2.946   2.859   0.658 -1.5278 -0.9177 -0.4252
 2617TIP3   OH2 7856   1.455   2.216   2.196 -0.0560 -0.1960 -0.1642
 2617TIP3    H1 7857   1.467   2.210   2.291  0.2940 -0.4948 -0.2261
 2617TIP3    H2 7858   1.396   2.143   2.175 -1.6983  1.0027  0.0783
 2618TIP3   OH2 7859   2.309   3.745   1.531  0.0896  0.0772  0.0438
 2618TIP3    H1 7860   2.275   3.812   1.472  0.0381 -0.5918 -0.6954
 2618TIP3    H2 7861   2.236   3.683   1.542  0.1857  0.0517  0.5995
 2619TIP3   OH2 7862   4.771   4.802   0.953 -0.2735  0.4989 -0.2788
 2619TIP3    H1 7863   4.678   4.798   0.930 -0.4921  2.1144  0.2208
 2619TIP3    H2 7864   4.784   4.727   1.011 -0.5699 -1.4135 -2.5072
 2620TIP3   OH2 7865   2.129   5.152   1.049  0.2360  0.5147 -0.0441
 2620TIP3    H1 7866   2.085   5.104   0.979  1.9854 -0.7053 -0.3758
 2620TIP3    H2 7867   2.079   5.132   1.128 -0.2051 -0.2498 -0.5099
 2621TIP3   OH2 7868   5.760   0.053   0.394 -0.2286 -0.0509 -0.3313
 2621TIP3    H1 7869   5.795   0.141   0.409 -0.5780  0.2037 -0.9633
 2621TIP3    H2 7870   5.830  -0.006   0.422  0.2863  0.4334 -0.5728
 2622TIP3   OH2 7871   4.062   0.433   1.056 -0.2199 -0.1790 -0.0910
 2622TIP3    H1 7872   3.981   0.455   1.104  0.4907 -2.8096  2.6244
 2622TIP3    H2 7873   4.038   0.359   1.001  0.4595 -1.6621  1.5125
 2623TIP3   OH2 7874   0.949   2.775   4.418  0.3705 -0.1042  0.7732
 2623TIP3    H1 7875   0.875   2.834   4.409  0.6121 -0.0485 -1.2739
 2623TIP3    H2 7876   1.023   2.831   4.437  0.2280  0.0282  0.9399
 2624TIP3   OH2 7877   2.667   4.538   2.674  0.5030  0.7300 -0.3439
 2624TIP3    H1 7878   2.687   4.460   2.620  1.8187  0.3842  0.5848
 2624TIP3    H2 7879   2.673   4.506   2.764 -0.2838  1.6186  0.0254
 2625TIP3   OH2 7880   1.439   1.812   0.969  0.1764  1.0561  0.4000
 2625TIP3    H1 7881   1.437   1.885   0.906  0.8323  1.8396  1.2560
 2625TIP3    H2 7882   1.521   1.767   0.952 -0.5075  0.1089 -0.5403
 2626TIP3   OH2 7883   5.241   3.766   0.565 -0.2978  0.1862  0.0762
 2626TIP3    H1 7884   5.324   3.812   0.578  0.5596 -0.8799 -1.2804
 2626TIP3    H2 7885   5.215   3.739   0.653  0.7112  0.7092  0.5521
 2627TIP3   OH2 7886   5.775   4.594   2.429  0.0795  0.3483 -0.2086
 2627TIP3    H1 7887   5.744   4.508   2.455 -0.0639  0.5403  0.2579
 2627TIP3    H2 7888   5.816   4.580   2.343 -0.4049 -0.0842 -0.3710
 2628TIP3   OH2 7889   0.238   0.377   0.675  0.6427  0.0077  0.4276
 2628TIP3    H1 7890   0.287   0.401   0.596 -0.5070  0.9024 -0.0383
 2628TIP3    H2 7891   0.243   0.281   0.678  1.4452  0.0153 -0.2336
 2629TIP3   OH2 7892   3.673   1.230   4.873  0.1241  0.2482 -0.4443
 2629TIP3    H1 7893   3.646   1.301   4.815 -1.9794 -0.3064 -0.2272
 2629TIP3    H2 7894   3.718   1.275   4.946 -0.1815  1.2369 -0.8414
 2630TIP3   OH2 7895   4.692   1.956   3.749  0.3407  0.6809  0.1671
 2630TIP3    H1 7896   4.610   1.984   3.706  0.0895  0.7866  0.7059
 2630TIP3    H2 7897   4.752   1.939   3.676  0.3618  2.1961 -0.2117
 2631TIP3   OH2 7898   3.184   2.983   2.479  0.4744 -0.1362 -0.8276
 2631TIP3    H1 7899   3.184   2.929   2.557  2.4636 -0.2168 -0.8398
 2631TIP3    H2 7900   3.230   2.931   2.413  1.3180  1.0431 -1.2074
 2632TIP3   OH2 7901   5.258   2.000   1.205 -0.0114  0.2496 -0.3499
 2632TIP3    H1 7902   5.301   2.011   1.290 -1.8722 -2.2639  1.0870
 2632TIP3    H2 7903   5.268   1.907   1.185 -1.1638  0.4310 -1.9957
 2633TIP3   OH2 7904   1.840   5.907   1.246 -0.2170  0.3755  0.1033
 2633TIP3    H1 7905   1.897   5.918   1.170 -1.3348 -0.9978 -0.9916
 2633TIP3    H2 7906   1.898   5.883   1.318  0.9570  2.4442 -0.0821
 2634TIP3   OH2 7907   0.991   3.616   2.550  0.2922  0.0527 -0.1336
 2634TIP3    H1 7908   0.979   3.704   2.514  2.9975  0.6095  0.1167
 2634TIP3    H2 7909   0.952   3.620   2.637  1.0811  1.2948  0.1896
 2635TIP3   OH2 7910   5.589   2.248   1.096  0.2530  0.0187  0.0973
 2635TIP3    H1 7911   5.502   2.232   1.134 -0.3830  2.3659 -0.2248
 2635TIP3    H2 7912   5.579   2.228   1.003 -0.4567  1.8043 -0.2525
 2636TIP3   OH2 7913   6.022   0.489   2.206  0.1281 -0.1945  0.5605
 2636TIP3    H1 7914   6.111   0.477   2.173 -0.0447  0.5503 -0.2323
 2636TIP3    H2 7915   5.987   0.401   2.214  0.5924 -0.4537 -0.1421
 2637TIP3   OH2 7916   1.559   0.038   0.861  0.0248 -0.5998 -0.4527
 2637TIP3    H1 7917   1.566   0.132   0.849  2.0666 -0.5408  0.7928
 2637TIP3    H2 7918   1.494   0.028   0.931  0.4871 -0.0549  0.0633
 2638TIP3   OH2 7919   0.758   1.804   2.397 -0.0422  0.8959  0.1704
 2638TIP3    H1 7920   0.703   1.725   2.399 -1.2023  1.6738  0.5035
 2638TIP3    H2 7921   0.830   1.781   2.339  0.5361 -0.9617  1.5055
 2639TIP3   OH2 7922   2.906   3.136   2.948 -0.9111  0.0486 -0.5666
 2639TIP3    H1 7923   2.901   3.167   2.857 -0.9099  3.4900  0.4625
 2639TIP3    H2 7924   2.995   3.101   2.956 -0.8265 -0.0885 -1.8167
 2640TIP3   OH2 7925   2.521   4.776   3.121 -0.0239 -0.2625 -0.1032
 2640TIP3    H1 7926   2.499   4.851   3.176 -0.5037 -0.9562  0.6695
 2640TIP3    H2 7927   2.578   4.812   3.053  0.6587  0.6018  0.9014
 2641TIP3   OH2 7928   5.290   0.042   0.126  0.7125  0.0185 -0.5268
 2641TIP3    H1 7929   5.372   0.035   0.175  0.2510  0.3462  0.3262
 2641TIP3    H2 7930   5.272  -0.047   0.096  0.3066 -0.4898  1.1062
 2642TIP3   OH2 7931   0.100   3.073   4.750  0.1909 -0.0808 -0.0652
 2642TIP3    H1 7932   0.101   2.977   4.744 -0.8169 -0.2384  1.6315
 2642TIP3    H2 7933   0.166   3.093   4.816  0.8651  0.4574 -0.8916
 2643TIP3   OH2 7934   2.500   2.314   0.199 -0.9579 -0.9920 -0.5846
 2643TIP3    H1 7935   2.500   2.294   0.105  0.9030  0.5528 -0.9668
 2643TIP3    H2 7936   2.553   2.393   0.207 -1.0618 -1.0914  1.7964
 2644TIP3   OH2 7937   4.058   3.883   3.920 -0.2272  0.3585 -0.1139
 2644TIP3    H1 7938   4.081   3.975   3.911 -1.5548  0.8305  1.0365
 2644TIP3    H2 7939   4.139   3.836   3.899  0.9480  1.8397  0.9167
 2645TIP3   OH2 7940   0.479   4.355   3.366  0.0550 -0.0921 -0.0290
 2645TIP3    H1 7941   0.561   4.352   3.416 -0.7015  2.1383  1.4926
 2645TIP3    H2 7942   0.507   4.371   3.276  1.3781 -2.6097 -0.1660
 2646TIP3   OH2 7943   1.642   3.725   0.036  0.3238  0.4666  0.3636
 2646TIP3    H1 7944   1.657   3.793  -0.030  0.2674  0.9291  0.8221
 2646TIP3    H2 7945   1.629   3.773   0.117  1.6037 -0.1333  0.9572
 2647TIP3   OH2 7946   2.663   3.918   1.830  0.3345  0.0694  0.0725
 2647TIP3    H1 7947   2.629   3.941   1.917 -0.1922 -1.5541  0.3184
 2647TIP3    H2 7948   2.586   3.916   1.774  0.3504 -1.1195  0.0754
 2648TIP3   OH2 7949   3.821   1.082   4.321 -0.0575 -0.5242  0.2562
 2648TIP3    H1 7950   3.770   1.079   4.240  0.6000 -1.3598 -0.1365
 2648TIP3    H2 7951   3.897   1.135   4.299  2.1294 -3.8242 -0.9128
 2649TIP3   OH2 7952   1.926   3.069   2.706  0.3232  0.4042 -0.1565
 2649TIP3    H1 7953   1.873   3.090   2.783 -3.0174 -2.1632 -1.5063
 2649TIP3    H2 7954   1.922   2.973   2.701  0.2638  0.4874 -3.5588
 2650TIP3   OH2 7955   5.256   2.753   3.616 -0.0301  0.2162 -0.1229
 2650TIP3    H1 7956   5.247   2.784   3.706  1.4306  1.1994 -0.2974
 2650TIP3    H2 7957   5.250   2.657   3.624  1.2383  0.2113  1.1835
 2651TIP3   OH2 7958   4.927   3.683   1.450  0.3502 -0.4010  0.0802
 2651TIP3    H1 7959   5.021   3.701   1.451  0.4354 -0.8361  0.6059
 2651TIP3    H2 7960   4.891   3.742   1.384  0.9828 -0.1765 -0.0646
 2652TIP3   OH2 7961   4.734   5.165   4.207  0.7721 -0.0115  0.3565
 2652TIP3    H1 7962   4.792   5.181   4.282  0.8448  0.1125  0.2749
 2652TIP3    H2 7963   4.753   5.075   4.181  0.2762 -0.2728  0.8907
 2653TIP3   OH2 7964   2.469   3.457   1.441 -0.3428  0.7191  0.4256
 2653TIP3    H1 7965   2.483   3.541   1.483  0.1572  0.9283 -0.1362
 2653TIP3    H2 7966   2.538   3.401   1.476  0.1906  0.9470 -0.2414
 2654TIP3   OH2 7967   1.097   0.213   3.024  0.3839 -0.6011  0.1938
 2654TIP3    H1 7968   1.169   0.178   3.077  1.9497  1.7460 -0.2128
 2654TIP3    H2 7969   1.057   0.280   3.080 -0.9993 -1.2849  0.0836
 2655TIP3   OH2 7970   2.655   4.551   3.405 -0.5693  0.4419 -0.7668
 2655TIP3    H1 7971   2.684   4.639   3.379 -1.0447  0.9338  0.3120
 2655TIP3    H2 7972   2.670   4.497   3.327 -0.3084  1.4840 -1.4624
 2656TIP3   OH2 7973   1.153   1.933   2.602  0.1335 -0.2451 -0.1792
 2656TIP3    H1 7974   1.108   2.014   2.628  0.2548 -0.6582  1.4561
 2656TIP3    H2 7975   1.106   1.864   2.649  0.9157 -0.9660 -0.4291
 2657TIP3   OH2 7976   5.137   4.959   3.549 -0.5361  0.3166 -0.4698
 2657TIP3    H1 7977   5.199   4.886   3.548 -0.1249  0.6491 -2.1086
 2657TIP3    H2 7978   5.192   5.037   3.548 -0.9876  0.6498 -0.0911
 2658TIP3   OH2 7979   1.074   4.631   0.354  0.0468 -0.1704  0.3759
 2658TIP3    H1 7980   1.112   4.553   0.394 -0.6254 -0.2362  0.8894
 2658TIP3    H2 7981   1.148   4.691   0.344  0.6235 -0.9588 -0.2679
 2659TIP3   OH2 7982   5.026   5.296   0.373  0.0513  0.5741  0.0320
 2659TIP3    H1 7983   4.957   5.237   0.401  0.7450  0.5233  1.8012
 2659TIP3    H2 7984   4.991   5.384   0.390 -0.3698  0.6311 -1.0817
 2660TIP3   OH2 7985   3.340   1.475   0.299 -0.2857 -0.0087 -0.6622
 2660TIP3    H1 7986   3.280   1.526   0.245  0.0190  0.6016 -0.4348
 2660TIP3    H2 7987   3.284   1.415   0.348 -0.7250  0.6771 -0.3187
 2661TIP3   OH2 7988   3.516   0.954   2.362 -0.1889 -0.5381  0.2745
 2661TIP3    H1 7989   3.558   1.022   2.414  2.0160 -2.6115  1.4074
 2661TIP3    H2 7990   3.583   0.928   2.298 -2.4152  1.1505 -3.0367
 2662TIP3   OH2 7991   2.736   1.174   3.215 -0.3350 -0.0085 -0.3507
 2662TIP3    H1 7992   2.819   1.220   3.222 -0.9665  1.9052 -3.5641
 2662TIP3    H2 7993   2.759   1.081   3.221  1.9577  0.4885 -0.6338
 2663TIP3   OH2 7994   4.990   0.778   1.364 -0.1855  0.3734  0.1431
 2663TIP3    H1 7995   4.912   0.807   1.411  0.5371  2.0976  0.3464
 2663TIP3    H2 7996   5.060   0.780   1.429 -0.0819 -2.1208  0.2261
 2664TIP3   OH2 7997   6.106   1.288   2.841 -0.0870 -0.2077  0.2744
 2664TIP3    H1 7998   6.079   1.249   2.925  0.8479 -1.4495  0.0385
 2664TIP3    H2 7999   6.193   1.324   2.858 -0.9203  1.8321  0.4718
 2665TIP3   OH2 8000   2.753   3.922   4.548  0.3984  0.2070  0.2091
 2665TIP3    H1 8001   2.694   3.983   4.504  0.1741 -0.1716 -0.0194
 2665TIP3    H2 8002   2.745   3.945   4.641 -0.6130 -0.2605  0.2569
 2666TIP3   OH2 8003   4.486   0.103   2.610 -0.2328  0.3659  0.7378
 2666TIP3    H1 8004   4.517   0.015   2.590 -0.6702  0.2815  0.3926
 2666TIP3    H2 8005   4.550   0.161   2.571 -0.1832  0.1970  0.5672
 2667TIP3   OH2 8006   4.847   4.296   2.445  0.7489 -0.0421 -0.2901
 2667TIP3    H1 8007   4.833   4.348   2.366  0.2334  0.0950 -0.1165
 2667TIP3    H2 8008   4.761   4.294   2.487  0.4789 -1.8988 -0.8139
 2668TIP3   OH2 8009   1.738   1.679   1.811  0.9258  0.6160  0.4663
 2668TIP3    H1 8010   1.827   1.645   1.813  0.4741 -0.7230 -0.4694
 2668TIP3    H2 8011   1.712   1.671   1.719 -0.2575  0.6718  0.7805
 2669TIP3   OH2 8012   6.007   0.435   3.564  0.0878 -0.1420 -0.2395
 2669TIP3    H1 8013   6.063   0.498   3.520  0.7178  0.9772  2.0068
 2669TIP3    H2 8014   6.000   0.361   3.503  1.5210  0.9677 -1.8105
 2670TIP3   OH2 8015   5.721   3.620   0.717  0.2429 -0.2125 -0.1747
 2670TIP3    H1 8016   5.753   3.698   0.763 -1.8374 -0.6846  2.3456
 2670TIP3    H2 8017   5.649   3.653   0.663  0.7882 -0.0888 -0.8355
 2671TIP3   OH2 8018   2.876   4.657   0.523  0.5576  0.6425 -0.1158
 2671TIP3    H1 8019   2.861   4.584   0.583 -0.0672  0.7489 -0.1367
 2671TIP3    H2 8020   2.967   4.681   0.537  0.4482  0.6016  0.7226
 2672TIP3   OH2 8021   5.611   3.739   2.417 -0.1129  0.1866 -0.4167
 2672TIP3    H1 8022   5.568   3.656   2.437 -0.8866  1.3864  3.9709
 2672TIP3    H2 8023   5.538   3.800   2.402  0.4282  0.3827 -2.5576
 2673TIP3   OH2 8024   0.342   4.678   4.783  0.0846  0.0001 -0.2476
 2673TIP3    H1 8025   0.407   4.659   4.716 -0.8223 -0.2612 -1.0605
 2673TIP3    H2 8026   0.362   4.768   4.810  1.1027 -0.2528 -0.0986
 2674TIP3   OH2 8027   1.263   4.793   1.649 -0.3876 -0.1394  0.0036
 2674TIP3    H1 8028   1.343   4.741   1.642  0.5523  0.9635  1.9221
 2674TIP3    H2 8029   1.198   4.732   1.682  0.5038 -0.3199  1.4841
 2675TIP3   OH2 8030   1.074   1.815   4.427 -0.4187 -0.9531 -0.0118
 2675TIP3    H1 8031   1.162   1.831   4.394  0.1137 -1.9822  0.8694
 2675TIP3    H2 8032   1.047   1.899   4.465 -0.6400 -0.0496 -2.0434
 2676TIP3   OH2 8033   2.725   0.881   4.000  0.0528 -0.2934  0.4776
 2676TIP3    H1 8034   2.640   0.900   3.959  0.1742 -1.1273 -0.2040
 2676TIP3    H2 8035   2.756   0.804   3.953  3.3024  2.4868 -2.5828
 2677TIP3   OH2 8036   4.842   2.099   4.449 -0.0799 -0.2962 -0.3205
 2677TIP3    H1 8037   4.776   2.155   4.407  0.8266  0.2205 -1.0959
 2677TIP3    H2 8038   4.918   2.105   4.392  1.4250  0.8858  1.6590
 2678TIP3   OH2 8039   3.502   0.369   4.027  0.1166 -0.1056  0.3059
 2678TIP3    H1 8040   3.540   0.297   3.977  0.2074 -0.4339  0.8406
 2678TIP3    H2 8041   3.415   0.338   4.052  0.3438 -0.2401  0.9644
 2679TIP3   OH2 8042   2.482   0.775   0.631  0.1848 -0.0288  0.1419
 2679TIP3    H1 8043   2.464   0.711   0.562  0.3827  0.9151 -0.8071
 2679TIP3    H2 8044   2.396   0.811   0.653 -0.1047 -1.3876  1.5146
 2680TIP3   OH2 8045   1.309   2.152   4.489 -0.2502  0.0616  0.2357
 2680TIP3    H1 8046   1.237   2.137   4.549 -0.9664  0.8683 -0.4002
 2680TIP3    H2 8047   1.303   2.079   4.426 -0.3414 -0.0247  0.3443
 2681TIP3   OH2 8048   5.012   4.968   4.609 -0.3365  0.5384 -0.1841
 2681TIP3    H1 8049   5.004   5.063   4.612 -0.4354  0.5255 -0.0626
 2681TIP3    H2 8050   5.092   4.948   4.657  0.5995  0.6862 -1.6196
 2682TIP3   OH2 8051   4.039   1.153   4.052 -0.3229 -0.5563 -0.3160
 2682TIP3    H1 8052   4.012   1.221   4.113 -1.0948  0.5782 -1.8561
 2682TIP3    H2 8053   3.961   1.098   4.042 -1.0842  0.7676 -2.1913
 2683TIP3   OH2 8054   5.366   2.928   2.300  0.4031  0.1742 -0.1177
 2683TIP3    H1 8055   5.418   2.900   2.375 -1.2496 -0.6956  0.7693
 2683TIP3    H2 8056   5.417   2.902   2.224  1.7667  0.3784  0.6950
 2684TIP3   OH2 8057   5.945   0.217   2.251 -0.1691 -0.3772 -0.2363
 2684TIP3    H1 8058   6.008   0.145   2.239  0.3878  0.0285  0.1817
 2684TIP3    H2 8059   5.868   0.190   2.201  0.1617 -1.1041 -0.3721
 2685TIP3   OH2 8060   4.136   4.737   1.886  0.1100 -0.1934 -0.0820
 2685TIP3    H1 8061   4.137   4.696   1.973  2.7623 -1.9688 -0.7967
 2685TIP3    H2 8062   4.176   4.823   1.899  0.5268 -0.4645  0.4659
 2686TIP3   OH2 8063   3.060   3.407   0.954  0.2874 -0.0037  0.3205
 2686TIP3    H1 8064   3.023   3.325   0.920 -1.3876  1.2513 -1.1000
 2686TIP3    H2 8065   2.991   3.442   1.012  0.5663  0.8466  0.1550
 2687TIP3   OH2 8066   0.289   2.418   2.185 -0.1244  0.0913 -0.3471
 2687TIP3    H1 8067   0.224   2.358   2.148  1.6303 -1.3590 -1.3126
 2687TIP3    H2 8068   0.296   2.488   2.120 -1.0417  0.5142 -0.0017
 2688TIP3   OH2 8069   1.097   5.270   0.610 -0.7415 -0.0235 -0.9247
 2688TIP3    H1 8070   1.093   5.338   0.542 -0.4639  0.2746 -0.6443
 2688TIP3    H2 8071   1.010   5.229   0.608 -2.1459  2.5265  1.1515
 2689TIP3   OH2 8072   5.521   2.793   3.863  0.4337 -0.1394  0.2813
 2689TIP3    H1 8073   5.435   2.817   3.826  0.8255  1.0490  0.0739
 2689TIP3    H2 8074   5.559   2.734   3.799  0.8088  1.3443 -0.9237
 2690TIP3   OH2 8075   1.271   0.965   1.247 -0.1174  0.5865  0.3790
 2690TIP3    H1 8076   1.277   0.870   1.238  0.0085  0.5551  0.7625
 2690TIP3    H2 8077   1.267   0.998   1.157 -0.4188  0.2022  0.2505
 2691TIP3   OH2 8078   3.214   2.552   5.078  0.2550  0.2162 -0.2523
 2691TIP3    H1 8079   3.239   2.552   4.985  1.6471  1.7635  0.0611
 2691TIP3    H2 8080   3.119   2.545   5.077  0.1923  0.7361 -1.8452
 2692TIP3   OH2 8081   5.907   2.747   4.597  0.2972 -0.0768 -0.2207
 2692TIP3    H1 8082   5.812   2.758   4.588 -0.0609  1.2035  3.4503
 2692TIP3    H2 8083   5.938   2.732   4.507 -3.4136 -1.3474 -1.4798
 2693TIP3   OH2 8084   3.995   3.648   3.592 -0.2330 -0.5495 -0.1629
 2693TIP3    H1 8085   4.084   3.631   3.623 -0.1099  1.4178  0.6803
 2693TIP3    H2 8086   3.939   3.607   3.658  0.0510  0.0946  0.4921
 2694TIP3   OH2 8087   1.697   4.091   1.692  0.5265 -0.0485  0.4539
 2694TIP3    H1 8088   1.721   4.023   1.755 -1.1354  1.2092  2.5776
 2694TIP3    H2 8089   1.624   4.054   1.644  1.5582 -0.8688 -0.5460
 2695TIP3   OH2 8090   6.141   4.809   3.280 -0.4921 -0.1152  0.0323
 2695TIP3    H1 8091   6.234   4.832   3.283  0.1490 -2.4636  0.0990
 2695TIP3    H2 8092   6.096   4.891   3.300  1.4828  1.4406 -1.4383
 2696TIP3   OH2 8093   1.120   0.075   0.497 -0.5218 -0.6971 -0.5937
 2696TIP3    H1 8094   1.060   0.149   0.501 -0.8317 -0.9772  0.1260
 2696TIP3    H2 8095   1.157   0.069   0.585 -1.0499 -1.8280 -0.4247
 2697TIP3   OH2 8096   4.860   1.640   4.038  0.1053  0.3482  0.7795
 2697TIP3    H1 8097   4.814   1.719   4.068  1.2616  1.1076  0.6120
 2697TIP3    H2 8098   4.941   1.639   4.089 -0.0459 -0.9340  1.0287
 2698TIP3   OH2 8099   3.372   4.923   1.657  0.0812  0.3438 -0.5487
 2698TIP3    H1 8100   3.326   4.953   1.579  0.0674 -1.2753 -1.2048
 2698TIP3    H2 8101   3.418   5.000   1.689 -1.8482  1.6533 -0.7433
 2699TIP3   OH2 8102   1.915   4.266   2.447 -0.4160 -0.3640  0.1996
 2699TIP3    H1 8103   1.914   4.277   2.543  1.9117 -0.9557  0.3615
 2699TIP3    H2 8104   1.902   4.354   2.413  0.0138  0.0728  1.1063
 2700TIP3   OH2 8105   5.362   3.472   1.164  0.2257 -0.2413  0.4266
 2700TIP3    H1 8106   5.313   3.413   1.108  2.1984  0.3053 -2.0512
 2700TIP3    H2 8107   5.345   3.559   1.129  0.3205  0.2975  1.6578
 2701TIP3   OH2 8108   0.610   1.997   3.828  0.1393 -0.2261 -0.0968
 2701TIP3    H1 8109   0.519   1.968   3.825  0.0372  0.0934 -0.0881
 2701TIP3    H2 8110   0.632   2.000   3.921  0.6159 -1.7101 -0.1238
 2702TIP3   OH2 8111   1.572   4.478   1.146 -0.6573  0.0388 -0.2663
 2702TIP3    H1 8112   1.631   4.542   1.186  0.7100  0.2859 -2.4871
 2702TIP3    H2 8113   1.529   4.435   1.220  1.6263  0.5069  1.4496
 2703TIP3   OH2 8114   4.988   4.586   0.248 -0.3452  0.4042  0.5704
 2703TIP3    H1 8115   5.075   4.563   0.215 -1.2913 -1.4027 -0.9099
 2703TIP3    H2 8116   4.950   4.502   0.275 -1.8640  1.0389  0.5142
 2704TIP3   OH2 8117   4.388   5.067   3.821 -0.1212 -0.3617 -0.2396
 2704TIP3    H1 8118   4.333   4.992   3.845  4.1780 -3.5863  0.8738
 2704TIP3    H2 8119   4.361   5.137   3.880 -1.9668 -2.2071  1.2620
 2705TIP3   OH2 8120   2.638   2.969   5.153  0.5858  0.2516  0.1443
 2705TIP3    H1 8121   2.726   2.941   5.129  0.6063  0.7183 -0.3607
 2705TIP3    H2 8122   2.646   3.002   5.243  1.2139  1.4936 -0.3417
 2706TIP3   OH2 8123   4.195   5.748   4.711 -0.2945  0.3114  0.0800
 2706TIP3    H1 8124   4.283   5.774   4.683  0.1989  0.8449  1.9948
 2706TIP3    H2 8125   4.202   5.653   4.725 -0.0332  0.3394  0.1526
 2707TIP3   OH2 8126   5.939   0.236   4.644  0.1481  0.3919 -0.9322
 2707TIP3    H1 8127   5.945   0.269   4.734 -0.0978  0.5595 -0.9782
 2707TIP3    H2 8128   5.851   0.198   4.638  1.3703 -3.0051  0.0533
 2708TIP3   OH2 8129   2.987   5.646   1.267  0.9568 -0.3749 -0.1710
 2708TIP3    H1 8130   3.026   5.717   1.317 -0.1016  0.6695 -0.7770
 2708TIP3    H2 8131   2.931   5.600   1.329  1.3024 -0.4067  0.1175
 2709TIP3   OH2 8132   3.883   3.218   2.736  0.6278  0.1718  0.3192
 2709TIP3    H1 8133   3.960   3.259   2.696  0.6183 -0.3472 -0.2427
 2709TIP3    H2 8134   3.899   3.225   2.830  1.9941 -1.0755  0.2133
 2710TIP3   OH2 8135   1.503   3.000   2.309 -0.4179  0.1919 -0.5903
 2710TIP3    H1 8136   1.469   2.964   2.392  0.0224  1.2438  0.0696
 2710TIP3    H2 8137   1.436   3.063   2.281  0.2576  1.1801 -0.0587
 2711TIP3   OH2 8138   5.193   4.312   1.311 -0.1028  0.0825 -0.4455
 2711TIP3    H1 8139   5.140   4.342   1.237  0.2339 -0.7479 -1.0439
 2711TIP3    H2 8140   5.139   4.330   1.388 -0.8230  0.1750 -0.9586
 2712TIP3   OH2 8141   2.012   2.986   3.547 -0.3228 -0.4702 -0.3331
 2712TIP3    H1 8142   2.061   2.921   3.599  0.0556 -0.5415 -0.7702
 2712TIP3    H2 8143   2.006   2.947   3.460  0.9580  0.5927 -0.9310
 2713TIP3   OH2 8144   2.156   2.419   2.797  0.2788 -0.0635  0.0692
 2713TIP3    H1 8145   2.206   2.355   2.848  0.5615  0.2692  0.2107
 2713TIP3    H2 8146   2.163   2.500   2.846 -0.1266  0.0675 -0.0854
 2714TIP3   OH2 8147   1.083   4.523   2.975 -0.4277  0.1183  0.6542
 2714TIP3    H1 8148   0.998   4.533   3.018 -0.2561  2.0545  0.5952
 2714TIP3    H2 8149   1.062   4.482   2.891 -1.6208  2.4737 -0.2806
 2715TIP3   OH2 8150   2.579   3.728   0.212 -0.2933 -0.3714 -0.1197
 2715TIP3    H1 8151   2.506   3.687   0.259 -1.6163  2.0096  0.0516
 2715TIP3    H2 8152   2.594   3.810   0.258 -0.0930  0.9955 -2.4718
 2716TIP3   OH2 8153   0.910   4.444   3.319 -0.5437 -0.5883 -0.0005
 2716TIP3    H1 8154   0.895   4.421   3.411  0.8377  0.9030  0.6610
 2716TIP3    H2 8155   0.956   4.369   3.282  0.6954 -0.4099  1.1083
 2717TIP3   OH2 8156   0.876   4.674   2.685  0.0422 -0.0256  0.6784
 2717TIP3    H1 8157   0.939   4.602   2.681  0.2813  0.1260  1.5550
 2717TIP3    H2 8158   0.794   4.633   2.714  0.0260 -0.0451  0.6041
 2718TIP3   OH2 8159   3.581   1.802   4.928  0.0613  0.2538  0.1466
 2718TIP3    H1 8160   3.633   1.882   4.926  1.3406 -0.5488  0.0662
 2718TIP3    H2 8161   3.509   1.818   4.866  1.2024  0.7390 -1.1019
 2719TIP3   OH2 8162   2.804   4.763   3.307  0.2225 -0.1244 -0.0986
 2719TIP3    H1 8163   2.759   4.847   3.317  0.7119  0.0556  0.6215
 2719TIP3    H2 8164   2.803   4.747   3.212 -0.2060  0.5043 -0.2086
 2720TIP3   OH2 8165   5.799   4.882   4.126 -0.3092 -0.2669 -0.3797
 2720TIP3    H1 8166   5.839   4.902   4.042  0.2325  0.7655  0.0954
 2720TIP3    H2 8167   5.842   4.802   4.156  1.0261  0.5205 -0.1370
 2721TIP3   OH2 8168   6.029   5.120   3.154  0.1509 -0.0093 -0.2585
 2721TIP3    H1 8169   6.008   5.185   3.087  1.8179 -1.7977 -2.6956
 2721TIP3    H2 8170   6.124   5.113   3.152  0.2544 -0.2574  2.2655
 2722TIP3   OH2 8171   2.701   2.564   0.515 -0.6835  0.1020  0.0477
 2722TIP3    H1 8172   2.787   2.580   0.476 -1.0576 -0.1383 -0.9002
 2722TIP3    H2 8173   2.664   2.652   0.528 -0.9774  0.1632 -1.1231
 2723TIP3   OH2 8174   2.336   5.862   5.073  0.5467  0.8890  0.2351
 2723TIP3    H1 8175   2.415   5.910   5.051 -0.2159  1.9550 -0.2505
 2723TIP3    H2 8176   2.326   5.874   5.168  1.0580  0.5854  0.3318
 2724TIP3   OH2 8177   4.784   4.697   5.022 -0.1012  0.1283  0.2042
 2724TIP3    H1 8178   4.874   4.701   5.053 -0.2582 -0.4319  0.7768
 2724TIP3    H2 8179   4.746   4.781   5.048  0.1296  0.1785  0.3847
 2725TIP3   OH2 8180   6.131   5.393   3.159 -0.0032  0.2711 -0.3097
 2725TIP3    H1 8181   6.049   5.383   3.111 -1.2043  1.7636  1.3043
 2725TIP3    H2 8182   6.158   5.483   3.142  0.8183  0.0785 -0.0779
 2726TIP3   OH2 8183   0.517   2.910   5.020  0.1835 -0.2794 -0.3279
 2726TIP3    H1 8184   0.555   2.845   5.079 -1.9239 -1.1162  0.2266
 2726TIP3    H2 8185   0.582   2.980   5.016  0.9933 -0.7979  1.9415
 2727TIP3   OH2 8186   2.165   3.816   2.874  0.2423  0.3950 -0.1273
 2727TIP3    H1 8187   2.218   3.778   2.944 -1.2868 -0.4736  0.6023
 2727TIP3    H2 8188   2.095   3.753   2.860  0.7793  0.2546 -2.8568
 2728TIP3   OH2 8189   3.125   2.815   2.699 -0.4920  0.2233  0.0955
 2728TIP3    H1 8190   3.091   2.833   2.787 -0.5192 -0.0274  0.1372
 2728TIP3    H2 8191   3.184   2.740   2.711 -1.3481 -0.5394 -0.2662
 2729TIP3   OH2 8192   2.717   1.423   1.290  0.2240 -0.1277  0.1555
 2729TIP3    H1 8193   2.662   1.352   1.322  2.3167 -2.7207 -1.5345
 2729TIP3    H2 8194   2.687   1.439   1.201 -0.5410  1.5539  0.6685
 2730TIP3   OH2 8195   2.173   3.497   1.975  0.5430  0.1773 -0.2526
 2730TIP3    H1 8196   2.185   3.510   2.069  0.3993 -0.2683 -0.1712
 2730TIP3    H2 8197   2.172   3.402   1.964  0.8881  0.2254 -0.7454
 2731TIP3   OH2 8198   1.212   1.750   0.731  0.2800 -0.1785  0.2545
 2731TIP3    H1 8199   1.204   1.825   0.672 -1.0233 -1.8783 -1.8925
 2731TIP3    H2 8200   1.303   1.721   0.719  0.1695 -0.2109 -0.5841
 2732TIP3   OH2 8201   5.226   5.131   2.883  0.0469 -0.0256  0.7291
 2732TIP3    H1 8202   5.294   5.088   2.935  1.0255  0.0781 -0.4353
 2732TIP3    H2 8203   5.198   5.064   2.820  0.4613  0.5362 -0.0664
 2733TIP3   OH2 8204   3.288   1.481   1.723  0.6808 -0.3119 -0.2698
 2733TIP3    H1 8205   3.221   1.465   1.656  0.6961 -0.7764 -0.1776
 2733TIP3    H2 8206   3.371   1.480   1.676  0.7936 -1.8311 -0.0772
 2734TIP3   OH2 8207   0.467   2.046   4.772  0.2902 -0.3727  0.1309
 2734TIP3    H1 8208   0.403   2.062   4.703  0.9546  2.4251  0.0183
 2734TIP3    H2 8209   0.414   2.031   4.851 -0.5555  1.3945 -0.0507
 2735TIP3   OH2 8210   3.152   4.316   2.119  0.5360 -0.0399  0.1336
 2735TIP3    H1 8211   3.069   4.351   2.087  0.1967  0.2541  1.2853
 2735TIP3    H2 8212   3.182   4.258   2.049 -0.1328  0.6255 -0.7277
 2736TIP3   OH2 8213   4.548   3.878   2.726  0.3690  0.5391  0.4666
 2736TIP3    H1 8214   4.642   3.867   2.744  0.6651  1.1276 -0.6575
 2736TIP3    H2 8215   4.513   3.920   2.805  1.2666  1.3581  0.4382
 2737TIP3   OH2 8216   2.670   4.729   3.674  0.1681 -0.1854 -0.1671
 2737TIP3    H1 8217   2.697   4.800   3.732 -0.7730  0.3263 -0.3238
 2737TIP3    H2 8218   2.644   4.659   3.733  0.7981 -0.2824 -0.0027
 2738TIP3   OH2 8219   2.474   2.414   5.052 -0.1298  0.5713  0.5011
 2738TIP3    H1 8220   2.484   2.323   5.025  0.6982  1.2630 -1.8203
 2738TIP3    H2 8221   2.557   2.435   5.094 -0.2229  0.3312  0.8080
 2739TIP3   OH2 8222   6.260   0.778   0.084 -0.3867  0.3284  0.7709
 2739TIP3    H1 8223   6.311   0.838   0.029  0.1969 -0.9750 -0.1513
 2739TIP3    H2 8224   6.321   0.748   0.150 -0.2675 -0.3327  0.3704
 2740TIP3   OH2 8225   3.820   5.743   3.461  0.2523 -0.4600 -0.4170
 2740TIP3    H1 8226   3.903   5.773   3.423  0.3189 -1.7129 -1.3053
 2740TIP3    H2 8227   3.754   5.796   3.417  0.5997  1.1733  0.9309
 2741TIP3   OH2 8228   2.008   4.736   3.152 -0.5100 -0.3968  0.0423
 2741TIP3    H1 8229   2.019   4.766   3.062 -0.2556 -0.7329 -0.0412
 2741TIP3    H2 8230   1.940   4.792   3.188  0.7001  1.0101  0.2207
 2742TIP3   OH2 8231   2.100   4.980   4.974  0.2330  0.2437 -0.1663
 2742TIP3    H1 8232   2.012   5.006   5.000  0.1562 -0.4452  0.3020
 2742TIP3    H2 8233   2.097   4.977   4.878 -0.6582 -1.0797 -0.1235
 2743TIP3   OH2 8234   2.082   1.776   2.726 -0.3636  0.4189  0.2488
 2743TIP3    H1 8235   2.111   1.710   2.662  0.6200  1.3779 -0.3265
 2743TIP3    H2 8236   2.033   1.839   2.674 -2.2096 -0.3667  0.9715
 2744TIP3   OH2 8237   5.370   1.745   1.464  0.4372  0.7340  0.2945
 2744TIP3    H1 8238   5.414   1.824   1.431  0.2246  0.1136 -1.6030
 2744TIP3    H2 8239   5.321   1.776   1.540  2.1716  1.9423  0.9913
 2745TIP3   OH2 8240   5.100   2.246   2.717  0.5211  0.4190 -0.4489
 2745TIP3    H1 8241   5.126   2.328   2.760  0.1694 -0.6330  1.9116
 2745TIP3    H2 8242   5.004   2.250   2.714  0.5542  1.3435 -3.0860
 2746TIP3   OH2 8243   3.434   2.401   4.991  0.3101 -0.1741  0.2284
 2746TIP3    H1 8244   3.438   2.430   4.900  1.3529  0.8651  0.5843
 2746TIP3    H2 8245   3.353   2.439   5.024 -1.3032 -2.4406 -0.8357
 2747TIP3   OH2 8246   3.104   2.708   4.682 -0.2256  0.9947  0.4197
 2747TIP3    H1 8247   3.043   2.683   4.612 -0.8979  1.7258  0.7394
 2747TIP3    H2 8248   3.146   2.788   4.650  0.4273  0.6133  0.2943
 2748TIP3   OH2 8249   4.699   0.770   4.897 -0.5115 -0.6078 -0.5597
 2748TIP3    H1 8250   4.792   0.775   4.920 -0.3648 -1.2566 -1.0009
 2748TIP3    H2 8251   4.670   0.687   4.933 -1.2832  0.2103  0.8208
 2749TIP3   OH2 8252   6.004   5.299   2.732  0.6029 -0.2800 -0.7428
 2749TIP3    H1 8253   6.036   5.387   2.715 -0.4184  0.0180 -1.1853
 2749TIP3    H2 8254   6.082   5.243   2.726  0.9870  0.3733 -2.0762
 2750TIP3   OH2 8255   0.306   3.593   3.866 -0.0522 -0.5537  0.0908
 2750TIP3    H1 8256   0.279   3.678   3.899  1.3570 -0.3337  0.7523
 2750TIP3    H2 8257   0.392   3.608   3.827 -0.1802 -1.5022 -0.6123
 2751TIP3   OH2 8258   0.042   5.661   2.074 -0.7459  0.0339  0.1614
 2751TIP3    H1 8259   0.052   5.711   1.993 -2.0356 -0.8101 -0.5349
 2751TIP3    H2 8260   0.070   5.572   2.052 -2.8911 -0.6742  0.0782
 2752TIP3   OH2 8261   3.837   3.976   0.085 -0.6204 -0.2570  0.0026
 2752TIP3    H1 8262   3.801   4.018   0.163  1.6186  2.4681 -0.2404
 2752TIP3    H2 8263   3.798   4.025   0.012 -0.9739 -1.2659 -0.4980
 2753TIP3   OH2 8264   4.227   2.979   4.942  0.0248  0.6480 -0.1865
 2753TIP3    H1 8265   4.282   3.007   5.015 -0.9130 -1.3766  1.4011
 2753TIP3    H2 8266   4.286   2.931   4.884  0.3941  0.4412  0.3483
 2754TIP3   OH2 8267   1.912   1.611   3.971  0.2412 -0.5174 -0.4139
 2754TIP3    H1 8268   1.979   1.562   3.923  2.3250  0.9248  0.8552
 2754TIP3    H2 8269   1.961   1.676   4.021 -2.1758  0.9806  0.1894
 2755TIP3   OH2 8270   0.326   3.595   1.150  0.3730 -0.2973  0.5873
 2755TIP3    H1 8271   0.320   3.509   1.108 -0.7307 -0.6708  1.4477
 2755TIP3    H2 8272   0.371   3.578   1.233 -0.8180 -0.2732  1.2626
 2756TIP3   OH2 8273   0.377   3.660   4.798  0.4693  0.5416 -0.1548
 2756TIP3    H1 8274   0.305   3.708   4.839 -0.1126  0.5170 -1.1232
 2756TIP3    H2 8275   0.334   3.593   4.745  1.0788  1.7919 -2.3794
 2757TIP3   OH2 8276   0.446   0.583   0.206 -0.3054 -0.0975  0.6584
 2757TIP3    H1 8277   0.372   0.564   0.264  0.4868  1.3540  2.2499
 2757TIP3    H2 8278   0.412   0.650   0.146 -1.1251 -1.5984 -0.6489
 2758TIP3   OH2 8279   3.683   1.175   2.413  0.2446  0.1230  0.4283
 2758TIP3    H1 8280   3.700   1.139   2.327  0.8728 -0.3896  0.7557
 2758TIP3    H2 8281   3.761   1.229   2.432 -0.3929  1.1546  0.2087
 2759TIP3   OH2 8282   5.625   4.335   2.450  0.0813  0.4001 -0.2984
 2759TIP3    H1 8283   5.554   4.347   2.512  1.0831  1.5321  0.6867
 2759TIP3    H2 8284   5.655   4.245   2.463 -0.9208  0.0308 -0.4833
 2760TIP3   OH2 8285   5.687   4.645   0.419  0.0083  0.6311  0.0399
 2760TIP3    H1 8286   5.606   4.644   0.368 -0.1812  0.2265  0.3469
 2760TIP3    H2 8287   5.724   4.558   0.408  0.4353  0.8318 -0.1440
 2761TIP3   OH2 8288   1.092   2.297   1.436 -0.1562  0.4506  0.3063
 2761TIP3    H1 8289   1.175   2.266   1.471  0.6735  2.0033 -0.1945
 2761TIP3    H2 8290   1.026   2.261   1.495  0.9725  0.2867  1.5019
 2762TIP3   OH2 8291   3.491   1.015   3.284  0.2069  0.2877  0.0088
 2762TIP3    H1 8292   3.546   1.057   3.218 -0.6678 -0.4780 -1.2367
 2762TIP3    H2 8293   3.518   1.055   3.367  1.4765  1.1058 -0.7751
 2763TIP3   OH2 8294   3.100   4.032   4.038  0.2191  0.6805  0.2921
 2763TIP3    H1 8295   3.117   3.941   4.013  0.8646  0.6751  0.7065
 2763TIP3    H2 8296   3.051   4.026   4.120  0.4491  0.7030  0.4327
 2764TIP3   OH2 8297   3.194   3.765   1.289  0.0317  0.0666 -0.5528
 2764TIP3    H1 8298   3.189   3.681   1.334 -0.0359  0.5929  0.4452
 2764TIP3    H2 8299   3.288   3.780   1.277  0.0314 -0.3346 -1.1048
 2765TIP3   OH2 8300   1.396   5.351   2.839  0.0968  0.2164 -0.6446
 2765TIP3    H1 8301   1.457   5.311   2.777  0.7750  2.2062 -1.3529
 2765TIP3    H2 8302   1.446   5.422   2.880 -1.6400  1.7939 -1.1091
 2766TIP3   OH2 8303   2.270   2.042   2.551  0.2493 -0.2118 -0.0877
 2766TIP3    H1 8304   2.218   1.986   2.493  0.2955 -0.3784  0.0317
 2766TIP3    H2 8305   2.360   2.026   2.525  0.2318  0.1869 -0.3918
 2767TIP3   OH2 8306   3.350   2.060   2.487 -0.3329 -0.1477 -0.1290
 2767TIP3    H1 8307   3.260   2.084   2.467 -0.3573 -1.1945 -1.4572
 2767TIP3    H2 8308   3.402   2.104   2.420 -0.1790 -1.8134 -1.1928
 2768TIP3   OH2 8309   1.458   1.398   2.724  0.5371  0.4013 -0.2406
 2768TIP3    H1 8310   1.386   1.411   2.785 -1.0411  1.8197 -2.2586
 2768TIP3    H2 8311   1.537   1.406   2.777 -0.7386 -0.7368  1.9700
 2769TIP3   OH2 8312   4.945   5.432   3.671 -0.2880  0.5414 -0.5016
 2769TIP3    H1 8313   5.030   5.452   3.630  0.6047  2.1112  1.8979
 2769TIP3    H2 8314   4.968   5.378   3.747 -1.3261  1.6446  0.6309
 2770TIP3   OH2 8315   2.550   3.295   4.720 -0.3609 -0.2508 -0.4222
 2770TIP3    H1 8316   2.584   3.272   4.806  1.6613 -0.8132 -1.3071
 2770TIP3    H2 8317   2.554   3.213   4.670 -0.2703  0.3451 -1.4138
 2771TIP3   OH2 8318   0.888   2.712   0.727  0.2001  0.3338  0.1792
 2771TIP3    H1 8319   0.838   2.632   0.745 -0.1588  0.6179  0.4542
 2771TIP3    H2 8320   0.854   2.776   0.789  0.9896  0.4984  0.4524
 2772TIP3   OH2 8321   2.657   1.771   3.191  0.1929  0.0940  0.1274
 2772TIP3    H1 8322   2.617   1.858   3.191  1.2903  0.6493  1.6658
 2772TIP3    H2 8323   2.594   1.716   3.145 -0.6580  1.6390 -0.6396
 2773TIP3   OH2 8324   5.708   1.030   2.760  0.5763 -0.2573 -0.5870
 2773TIP3    H1 8325   5.669   0.944   2.742 -0.4503  0.2043 -0.6584
 2773TIP3    H2 8326   5.676   1.053   2.848  2.8078 -0.9939  0.4882
 2774TIP3   OH2 8327   2.663   0.014   0.396  0.1180  0.3680  0.0013
 2774TIP3    H1 8328   2.730   0.052   0.454  0.1606  2.2912 -1.2104
 2774TIP3    H2 8329   2.599  -0.025   0.455  1.6655 -0.4125  1.2317
 2775TIP3   OH2 8330   5.098   5.350   0.004 -0.0391  0.2335  0.2443
 2775TIP3    H1 8331   5.021   5.295   0.021 -0.6950  0.8925 -0.4660
 2775TIP3    H2 8332   5.145   5.352   0.087 -0.9643  0.0734  0.7945
 2776TIP3   OH2 8333   0.353   4.059   0.460  0.1500 -0.2880 -0.6325
 2776TIP3    H1 8334   0.344   4.103   0.375 -1.6065 -0.1523 -0.4221
 2776TIP3    H2 8335   0.300   4.112   0.520  0.5116 -0.9787  0.3112
 2777TIP3   OH2 8336   4.241   5.354   1.502 -0.2155 -0.2884 -0.1103
 2777TIP3    H1 8337   4.294   5.299   1.445 -1.2612 -0.5387 -0.8842
 2777TIP3    H2 8338   4.259   5.323   1.590  3.2650  1.6532  0.0413
 2778TIP3   OH2 8339   2.520   2.058   0.904  0.0097  0.1405 -0.1399
 2778TIP3    H1 8340   2.449   2.004   0.869 -0.3462 -0.0005  0.7809
 2778TIP3    H2 8341   2.560   2.003   0.971  1.0346  0.1994 -0.6795
 2779TIP3   OH2 8342   2.893   3.440   4.968 -0.0142  0.2164  0.4052
 2779TIP3    H1 8343   2.865   3.415   5.057 -0.2422 -1.4087 -0.0881
 2779TIP3    H2 8344   2.978   3.397   4.957 -0.5981 -0.7225 -0.6222
 2780TIP3   OH2 8345   4.179   1.908   3.661  1.0902  0.4384  0.1145
 2780TIP3    H1 8346   4.139   1.842   3.604  0.0427  1.2913 -0.1742
 2780TIP3    H2 8347   4.168   1.873   3.750  0.9694  0.0007 -0.0730
 2781TIP3   OH2 8348   2.432   2.301   4.524 -0.2415  0.6888  0.1902
 2781TIP3    H1 8349   2.460   2.385   4.560  2.4036 -0.7620  1.9034
 2781TIP3    H2 8350   2.344   2.288   4.558  0.7079  1.1409  3.1003
 2782TIP3   OH2 8351   5.460   3.841   2.904 -0.3600 -0.0606  0.2070
 2782TIP3    H1 8352   5.525   3.893   2.858 -2.8551  1.7504 -1.5107
 2782TIP3    H2 8353   5.508   3.762   2.931  2.3937  0.9514 -1.2990
 2783TIP3   OH2 8354   1.018   5.762   3.581 -0.3480 -0.8416  0.6194
 2783TIP3    H1 8355   1.041   5.818   3.655 -0.5790 -0.0429  0.0907
 2783TIP3    H2 8356   0.997   5.678   3.621 -0.0478 -0.5449  1.4251
 2784TIP3   OH2 8357   2.944   3.700   1.518  0.2453 -0.1245  0.1495
 2784TIP3    H1 8358   3.014   3.648   1.480  1.3382  0.4342  1.3349
 2784TIP3    H2 8359   2.954   3.786   1.477 -1.0306 -0.5673 -1.1748
 2785TIP3   OH2 8360   1.550   2.367   3.832 -0.4166 -0.0606 -0.0257
 2785TIP3    H1 8361   1.487   2.311   3.787  0.6311 -0.0617 -1.5818
 2785TIP3    H2 8362   1.534   2.454   3.796 -0.7377  0.2797  0.9314
 2786TIP3   OH2 8363   6.257   2.235   1.310 -0.4332 -0.5640  0.2342
 2786TIP3    H1 8364   6.310   2.305   1.274 -0.0338 -1.1988 -0.4387
 2786TIP3    H2 8365   6.173   2.276   1.331 -0.7365 -0.2112 -1.5656
 2787TIP3   OH2 8366   5.781   2.998   2.615 -0.8053 -0.2894  0.1643
 2787TIP3    H1 8367   5.872   3.010   2.643  0.0621 -3.1169 -1.0971
 2787TIP3    H2 8368   5.731   3.059   2.670  1.8195  1.4370  0.8207
 2788TIP3   OH2 8369   3.488   2.985   4.843  1.1393  0.0689  0.2258
 2788TIP3    H1 8370   3.395   2.962   4.837  0.9450  0.8060  0.3043
 2788TIP3    H2 8371   3.529   2.937   4.771  0.6359  0.0215 -0.0374
 2789TIP3   OH2 8372   4.874   5.698   3.611  0.4740 -0.7847  0.2877
 2789TIP3    H1 8373   4.848   5.618   3.659 -3.3788  0.9517  1.5599
 2789TIP3    H2 8374   4.947   5.733   3.661 -0.7004 -1.2690  2.5064
 2790TIP3   OH2 8375   2.947   4.065   1.856  0.3000  0.1974 -0.1276
 2790TIP3    H1 8376   2.929   3.976   1.826  1.2655  0.0979 -0.4368
 2790TIP3    H2 8377   2.875   4.085   1.917  0.0224 -0.7494 -0.1377
 2791TIP3   OH2 8378   4.576   2.494   0.272  0.0239  0.5277  0.2756
 2791TIP3    H1 8379   4.601   2.402   0.266  0.9776  0.8264 -0.6541
 2791TIP3    H2 8380   4.605   2.532   0.188 -1.4418  1.4139  0.1448
 2792TIP3   OH2 8381   4.021   3.698   4.407  0.4970 -0.1001  0.0917
 2792TIP3    H1 8382   3.967   3.774   4.425  0.6641  0.1714 -0.5531
 2792TIP3    H2 8383   4.110   3.732   4.399  0.7360 -0.5040  0.8523
 2793TIP3   OH2 8384   1.893   2.154   4.691  0.1381  0.0063  0.3424
 2793TIP3    H1 8385   1.807   2.125   4.722 -0.1397  0.0411 -0.3899
 2793TIP3    H2 8386   1.932   2.077   4.652  0.1009  0.1857 -0.0578
 2794TIP3   OH2 8387   0.414   2.741   3.340 -0.0066 -0.1817 -0.3417
 2794TIP3    H1 8388   0.386   2.652   3.316 -0.2558 -0.7991  1.9807
 2794TIP3    H2 8389   0.510   2.737   3.335 -0.0271 -0.4871 -0.5526
 2795TIP3   OH2 8390   5.404   5.785   5.047  0.2621  0.5173  0.0467
 2795TIP3    H1 8391   5.488   5.817   5.017 -0.1952  2.6015  0.8368
 2795TIP3    H2 8392   5.354   5.864   5.068 -1.8513 -0.6574 -0.2826
 2796TIP3   OH2 8393   2.896   5.130   1.641  0.1311 -0.0433 -0.1588
 2796TIP3    H1 8394   2.906   5.057   1.580 -1.1220 -0.8157  0.5093
 2796TIP3    H2 8395   2.871   5.204   1.587 -2.8272 -1.1476 -0.4929
 2797TIP3   OH2 8396   5.735   2.405   3.195 -0.1582 -0.0593  0.0242
 2797TIP3    H1 8397   5.764   2.496   3.189  0.5897 -0.3393 -0.7770
 2797TIP3    H2 8398   5.800   2.363   3.250 -1.4907  0.2592  1.9396
 2798TIP3   OH2 8399   4.385   1.155   2.895 -0.6573 -0.0625  0.5820
 2798TIP3    H1 8400   4.422   1.072   2.864  0.1194  1.1473 -2.0960
 2798TIP3    H2 8401   4.456   1.195   2.945  0.5666  0.7218 -1.6274
 2799TIP3   OH2 8402   2.233   5.676   4.498 -0.2904  0.5268  0.0871
 2799TIP3    H1 8403   2.170   5.634   4.556  0.1862 -0.4248 -0.0625
 2799TIP3    H2 8404   2.211   5.769   4.502 -2.5590  0.1127 -0.9766
 2800TIP3   OH2 8405   0.305   5.281   2.237  0.1674 -0.1882 -0.3880
 2800TIP3    H1 8406   0.326   5.286   2.331  1.6771  0.0294 -0.7119
 2800TIP3    H2 8407   0.219   5.239   2.234  0.1737 -0.3678  1.0827
 2801TIP3   OH2 8408   1.506   3.458   3.596  0.6541 -0.1961  0.3166
 2801TIP3    H1 8409   1.600   3.471   3.581  0.6121 -1.2106 -1.0596
 2801TIP3    H2 8410   1.469   3.453   3.508 -0.4527 -1.4366  0.8275
 2802TIP3   OH2 8411   1.358   1.539   2.181  0.5684  0.3208 -0.2799
 2802TIP3    H1 8412   1.367   1.457   2.132  2.2856  0.6668 -0.6284
 2802TIP3    H2 8413   1.339   1.512   2.271  1.1662 -0.4836 -0.3822
 2803TIP3   OH2 8414   5.226   4.688   4.483  0.2033  0.5139  0.2290
 2803TIP3    H1 8415   5.233   4.762   4.543 -0.7931  0.5249  0.3526
 2803TIP3    H2 8416   5.133   4.665   4.484 -0.1233  1.3683 -2.2901
 2804TIP3   OH2 8417   4.135   5.668   2.196  0.5200  0.6097  0.2779
 2804TIP3    H1 8418   4.111   5.577   2.217  2.3468  0.0538  0.0729
 2804TIP3    H2 8419   4.194   5.661   2.121 -0.8045  2.1318 -0.9765
 2805TIP3   OH2 8420   4.713   1.315   4.169 -0.0687  0.0846  0.1849
 2805TIP3    H1 8421   4.802   1.335   4.198  0.9710 -0.5304 -2.3440
 2805TIP3    H2 8422   4.663   1.394   4.188  1.0046  0.4478  1.6248
 2806TIP3   OH2 8423   0.259   0.592   4.887  0.2081 -0.2890  0.1209
 2806TIP3    H1 8424   0.287   0.589   4.979  0.5447 -1.6543 -0.0033
 2806TIP3    H2 8425   0.267   0.684   4.862  1.8434 -0.1837  0.9314
 2807TIP3   OH2 8426   3.068   0.856   3.764 -0.9486  0.2330  0.4355
 2807TIP3    H1 8427   3.069   0.781   3.822  0.1931  0.1314  0.3225
 2807TIP3    H2 8428   3.152   0.900   3.781 -1.6386  1.5420  0.5816
 2808TIP3   OH2 8429   5.812   1.672   3.652 -0.5135 -0.4878  0.3249
 2808TIP3    H1 8430   5.891   1.667   3.599 -0.9982 -1.5179 -0.3217
 2808TIP3    H2 8431   5.742   1.689   3.589 -1.1652 -2.2201  0.5469
 2809TIP3   OH2 8432   4.323   1.029   1.148  0.1608 -0.3186  0.2398
 2809TIP3    H1 8433   4.339   1.119   1.175  1.2865 -0.3918 -0.1075
 2809TIP3    H2 8434   4.409   0.986   1.155 -0.3272 -1.3340  0.2883
 2810TIP3   OH2 8435   2.177   5.944   2.043 -0.0377  0.2482 -0.5435
 2810TIP3    H1 8436   2.155   5.936   2.136  0.2115  1.5109 -0.3575
 2810TIP3    H2 8437   2.109   6.001   2.007 -0.1898 -0.3152 -1.1672
 2811TIP3   OH2 8438   5.816   2.199   2.236 -0.3706  0.5522 -0.0527
 2811TIP3    H1 8439   5.874   2.224   2.163  1.3279  1.1435  1.4076
 2811TIP3    H2 8440   5.736   2.169   2.194 -0.1870  2.6688 -2.1190
 2812TIP3   OH2 8441   2.807   3.768   0.697 -0.2084 -0.4455 -0.2765
 2812TIP3    H1 8442   2.762   3.685   0.713  0.2260 -0.9209 -1.4376
 2812TIP3    H2 8443   2.753   3.833   0.743 -1.3914 -1.1675 -0.5874
 2813TIP3   OH2 8444   2.236   2.262   1.529 -0.3637  0.2653 -0.0817
 2813TIP3    H1 8445   2.294   2.246   1.454  0.8005  1.6893  0.4745
 2813TIP3    H2 8446   2.290   2.310   1.591 -1.8697  0.7607  0.8913
 2814TIP3   OH2 8447   5.868   3.688   4.676  0.4201  0.8611 -0.1007
 2814TIP3    H1 8448   5.902   3.682   4.587 -0.2489  0.1584 -0.3257
 2814TIP3    H2 8449   5.859   3.597   4.704  0.2941  1.0695  0.5584
 2815TIP3   OH2 8450   3.227   5.933   4.748 -0.3951 -0.3132  0.4023
 2815TIP3    H1 8451   3.135   5.907   4.759 -0.0212 -1.2186  1.4538
 2815TIP3    H2 8452   3.231   5.964   4.657 -1.5506 -1.0707  0.0596
 2816TIP3   OH2 8453   4.256   3.720   3.935  0.4773 -0.4219  0.0901
 2816TIP3    H1 8454   4.337   3.766   3.916  1.6660 -2.4414 -0.0015
 2816TIP3    H2 8455   4.242   3.663   3.859 -0.3630 -0.9923  0.6467
 2817TIP3   OH2 8456   4.820   3.464   4.988 -0.1637 -0.0729  0.0840
 2817TIP3    H1 8457   4.759   3.501   5.052  2.5978  0.8658  2.4004
 2817TIP3    H2 8458   4.860   3.389   5.034  1.3694  0.1730 -0.7977
 2818TIP3   OH2 8459   5.627   3.361   2.027 -0.3247  0.1240  0.0398
 2818TIP3    H1 8460   5.665   3.293   2.083 -2.0658 -1.2186 -0.3073
 2818TIP3    H2 8461   5.677   3.440   2.048 -0.2010 -0.5578  2.7097
 2819TIP3   OH2 8462   1.396   3.614   3.810  0.4897  0.7036  1.1111
 2819TIP3    H1 8463   1.331   3.543   3.813 -0.3701  1.4849  1.5386
 2819TIP3    H2 8464   1.464   3.581   3.751  0.3686 -0.6782  1.6966
 2820TIP3   OH2 8465   4.254   3.566   0.769 -0.4698 -0.1454 -0.1732
 2820TIP3    H1 8466   4.283   3.478   0.793 -1.2814 -0.1628  0.7995
 2820TIP3    H2 8467   4.334   3.618   0.769  0.3787 -1.2670 -2.8284
 2821TIP3   OH2 8468   0.366   1.290   3.311 -0.1198  0.0201 -0.4886
 2821TIP3    H1 8469   0.439   1.318   3.255  1.5046 -0.4932  1.2884
 2821TIP3    H2 8470   0.399   1.300   3.400 -2.1856 -0.4026  0.3700
 2822TIP3   OH2 8471   3.048   0.633   2.985  0.4990  0.2455 -0.9499
 2822TIP3    H1 8472   3.053   0.728   2.993  0.8754  0.1466  0.3225
 2822TIP3    H2 8473   3.040   0.617   2.892 -0.8270  1.5781 -1.1015
 2823TIP3   OH2 8474   4.313   4.147   5.115 -0.0644  0.2627  0.3926
 2823TIP3    H1 8475   4.312   4.236   5.080  0.1784 -0.0577 -0.4581
 2823TIP3    H2 8476   4.237   4.143   5.172 -0.6500  0.7273 -0.3291
 2824TIP3   OH2 8477   3.574   4.027   4.046  0.0244 -0.2174  0.3389
 2824TIP3    H1 8478   3.497   4.075   4.076  0.3680  0.3752  0.2941
 2824TIP3    H2 8479   3.599   3.972   4.120  0.4815  0.7540  0.9220
 2825TIP3   OH2 8480   5.386   3.198   4.080  0.0238  0.1543 -0.0840
 2825TIP3    H1 8481   5.474   3.204   4.044  0.0791 -0.1867 -0.0094
 2825TIP3    H2 8482   5.394   3.226   4.171  0.3579 -1.3850  0.3858
 2826TIP3   OH2 8483   1.227   5.508   2.056  0.1864  0.0140 -0.2424
 2826TIP3    H1 8484   1.173   5.477   2.128 -1.3779 -0.7412 -1.6930
 2826TIP3    H2 8485   1.222   5.604   2.062  0.1748 -0.0345  0.6909
 2827TIP3   OH2 8486   0.215   3.109   2.649  0.0782 -0.0572 -0.1619
 2827TIP3    H1 8487   0.307   3.085   2.657  1.5212  4.3369 -1.1921
 2827TIP3    H2 8488   0.184   3.060   2.573  2.6095  0.8321 -1.8943
 2828TIP3   OH2 8489   5.572   4.046   1.722  0.2633  0.0786  0.2681
 2828TIP3    H1 8490   5.565   4.118   1.659 -1.0593 -0.1298  0.1651
 2828TIP3    H2 8491   5.560   3.967   1.671  1.2147 -0.2113  0.4693
 2829TIP3   OH2 8492   1.350   2.073   2.938  0.5071 -0.0935 -0.2226
 2829TIP3    H1 8493   1.355   2.163   2.968 -0.8096 -0.3285  0.8147
 2829TIP3    H2 8494   1.281   2.073   2.872  1.7831 -0.0324 -1.6298
 2830TIP3   OH2 8495   4.581   4.682   4.745  0.8309 -0.2770 -0.2868
 2830TIP3    H1 8496   4.675   4.688   4.765  0.7494  1.8483 -0.2545
 2830TIP3    H2 8497   4.575   4.615   4.677  2.1016 -1.8638  1.0859
 2831TIP3   OH2 8498   3.812   0.662   0.375  0.1536  0.2950 -0.9718
 2831TIP3    H1 8499   3.830   0.587   0.318  0.5708  0.0852 -0.5728
 2831TIP3    H2 8500   3.743   0.632   0.434  1.0272 -0.1479 -0.1338
 2832TIP3   OH2 8501   5.975   1.311   0.033  0.6463  0.0426  0.0153
 2832TIP3    H1 8502   6.063   1.278   0.015  1.1746  0.5340  1.5738
 2832TIP3    H2 8503   5.989   1.392   0.082 -0.6541  1.3966 -1.7371
 2833TIP3   OH2 8504  -0.023   0.461   3.277  0.4462  0.0942 -0.4408
 2833TIP3    H1 8505   0.050   0.518   3.299  1.9632 -1.9546  0.2186
 2833TIP3    H2 8506   0.014   0.397   3.217 -0.3037 -1.9738  1.1564
 2834TIP3   OH2 8507   5.526   0.648   3.679 -0.0675  0.1268 -0.2505
 2834TIP3    H1 8508   5.613   0.635   3.642 -0.1348 -2.6829  0.3219
 2834TIP3    H2 8509   5.540   0.649   3.773 -0.6750 -0.9590 -0.1315
 2835TIP3   OH2 8510   4.131   0.443   2.038 -0.2024  0.7216  0.0638
 2835TIP3    H1 8511   4.181   0.407   2.111 -2.3708 -1.6949  0.4899
 2835TIP3    H2 8512   4.159   0.535   2.032  2.1822  0.2077  1.9756
 2836TIP3   OH2 8513   0.720   0.831   2.704 -0.1365 -0.0132 -0.2625
 2836TIP3    H1 8514   0.628   0.859   2.706 -0.8807 -2.2989  0.2849
 2836TIP3    H2 8515   0.722   0.757   2.644  1.2599 -0.3304  0.1359
 2837TIP3   OH2 8516   0.860   2.069   3.254 -0.1725  0.4019  0.1434
 2837TIP3    H1 8517   0.788   2.088   3.194  0.1785 -0.6515 -0.6541
 2837TIP3    H2 8518   0.832   1.991   3.301  0.6934 -0.3895 -0.6254
 2838TIP3   OH2 8519   0.229   5.949   2.146  0.6633 -0.0697 -0.0039
 2838TIP3    H1 8520   0.287   5.875   2.165  0.4514 -0.2195  0.0500
 2838TIP3    H2 8521   0.141   5.916   2.162  0.3140 -0.6941 -2.6654
 2839TIP3   OH2 8522   0.833   2.982   0.529  0.2477 -0.0060  0.2214
 2839TIP3    H1 8523   0.767   2.967   0.597  2.0033  0.0416  2.0226
 2839TIP3    H2 8524   0.889   3.050   0.565  2.1444 -1.0786 -0.5888
 2840TIP3   OH2 8525   2.002   2.506   1.311  0.3122 -0.3862  0.1306
 2840TIP3    H1 8526   1.912   2.533   1.331  0.1464  0.1360 -1.1677
 2840TIP3    H2 8527   2.056   2.561   1.368 -0.0958  1.6927 -1.3349
 2841TIP3   OH2 8528   4.701   4.478   2.688  0.3146 -0.4162  0.4935
 2841TIP3    H1 8529   4.703   4.561   2.640  0.7266 -0.5669  0.2478
 2841TIP3    H2 8530   4.776   4.483   2.747 -0.1216 -0.2821  1.0474
 2842TIP3   OH2 8531   1.635   3.277   3.945  0.1915 -0.6650  0.5847
 2842TIP3    H1 8532   1.581   3.230   4.008  0.6554 -0.7324  0.9277
 2842TIP3    H2 8533   1.572   3.311   3.881 -0.3021 -0.3888  1.2126
 2843TIP3   OH2 8534   3.479   4.188   1.863 -0.4578 -0.2823  0.3253
 2843TIP3    H1 8535   3.488   4.282   1.875 -0.1469 -0.3080  0.3031
 2843TIP3    H2 8536   3.385   4.173   1.857 -0.5038  0.0356  0.2555
 2844TIP3   OH2 8537   1.953   4.549   4.172 -0.1510  0.7299 -0.3121
 2844TIP3    H1 8538   1.920   4.611   4.107  1.0003  0.7432 -0.9055
 2844TIP3    H2 8539   1.972   4.603   4.249  1.6064  1.3017 -1.0890
 2845TIP3   OH2 8540   4.482   2.473   2.646  0.1743  0.0834  0.9261
 2845TIP3    H1 8541   4.495   2.385   2.611 -0.2355  0.1339  0.6473
 2845TIP3    H2 8542   4.505   2.465   2.739 -0.9571 -0.5889  1.1688
 2846TIP3   OH2 8543   2.088   5.236   3.715 -0.3805 -0.0779  0.2135
 2846TIP3    H1 8544   2.057   5.153   3.751 -0.1793  0.3069  1.3257
 2846TIP3    H2 8545   2.026   5.301   3.749 -0.6459  0.2128 -0.7960
 2847TIP3   OH2 8546   1.856   0.917   3.998 -0.4728  0.2321 -0.2617
 2847TIP3    H1 8547   1.813   0.874   4.071 -1.1079  1.5791  0.1769
 2847TIP3    H2 8548   1.950   0.911   4.019 -0.5469 -0.8244 -0.1719
 2848TIP3   OH2 8549   1.609   2.818   0.706  0.3120  0.7495  0.5700
 2848TIP3    H1 8550   1.670   2.793   0.636 -0.8368 -1.4704  0.2691
 2848TIP3    H2 8551   1.547   2.746   0.710 -1.3115  2.1417  2.0190
 2849TIP3   OH2 8552   5.643   0.813   2.201  0.0601  0.5591 -0.4783
 2849TIP3    H1 8553   5.674   0.766   2.279  3.1311  0.7070 -1.4822
 2849TIP3    H2 8554   5.577   0.755   2.163  0.0282 -0.5002  1.0769
 2850TIP3   OH2 8555   1.787   4.454   0.949  0.0085 -0.6991 -0.5917
 2850TIP3    H1 8556   1.773   4.429   0.858 -2.0925  0.9815 -0.8183
 2850TIP3    H2 8557   1.709   4.421   0.994  0.7833 -1.0678  0.5223
 2851TIP3   OH2 8558   3.062   4.831   4.217  0.3899  0.2106 -0.2128
 2851TIP3    H1 8559   3.011   4.882   4.279  0.5311 -1.6237  1.4817
 2851TIP3    H2 8560   2.997   4.792   4.158 -0.3109 -2.2657  2.0397
 2852TIP3   OH2 8561   2.289   2.240   3.442 -0.3753 -0.2401 -0.0743
 2852TIP3    H1 8562   2.266   2.168   3.384  2.7736  0.1876 -2.0707
 2852TIP3    H2 8563   2.290   2.201   3.529 -1.3407 -1.9243 -0.7641
 2853TIP3   OH2 8564   4.552   4.222   4.148  0.5112  0.3854 -0.0714
 2853TIP3    H1 8565   4.624   4.159   4.142  1.2693  1.3315 -1.5574
 2853TIP3    H2 8566   4.549   4.262   4.062 -1.6421  0.5813  0.0513
 2854TIP3   OH2 8567   3.805   1.932   4.754 -0.0443 -0.1811 -0.1873
 2854TIP3    H1 8568   3.834   1.847   4.788  0.5060 -0.3660 -1.0748
 2854TIP3    H2 8569   3.823   1.927   4.660 -1.3948  0.3609 -0.4940
 2855TIP3   OH2 8570   0.427   3.389   1.992 -1.0292  0.2328  0.3725
 2855TIP3    H1 8571   0.390   3.309   1.954 -1.5249  1.3960 -1.7685
 2855TIP3    H2 8572   0.522   3.378   1.984 -1.1178  0.4729 -1.3888
 2856TIP3   OH2 8573   2.579   3.175   3.271 -0.2798  0.4069 -0.0590
 2856TIP3    H1 8574   2.666   3.135   3.267 -0.4599 -0.1156  0.9792
 2856TIP3    H2 8575   2.595   3.268   3.261  0.3623  0.2733 -0.3022
 2857TIP3   OH2 8576   0.854   0.831   0.345  0.1881 -0.1273  0.0983
 2857TIP3    H1 8577   0.842   0.926   0.336 -1.1592 -0.3357 -0.5785
 2857TIP3    H2 8578   0.820   0.795   0.264  2.7957 -1.1028 -0.6665
 2858TIP3   OH2 8579   2.119   5.404   1.504 -0.5083 -0.8640  0.2821
 2858TIP3    H1 8580   2.070   5.416   1.422 -0.9690 -1.0498  0.5218
 2858TIP3    H2 8581   2.198   5.456   1.493 -0.8702 -0.3745 -0.0278
 2859TIP3   OH2 8582   0.377   5.579   4.342  0.1543  0.1088 -0.1879
 2859TIP3    H1 8583   0.400   5.624   4.423  0.0319 -0.9004  0.4235
 2859TIP3    H2 8584   0.333   5.646   4.290  0.7437  0.9264  0.3376
 2860TIP3   OH2 8585   1.240   2.854   3.818 -0.9958 -0.8321 -0.0254
 2860TIP3    H1 8586   1.234   2.914   3.892  0.0326 -0.8780  0.1041
 2860TIP3    H2 8587   1.286   2.904   3.751  1.1045 -1.8776  0.5482
 2861TIP3   OH2 8588   6.345   2.280   2.503 -0.0503 -0.0624  0.3087
 2861TIP3    H1 8589   6.264   2.270   2.451  0.1291  1.0628 -0.2090
 2861TIP3    H2 8590   6.377   2.367   2.481  3.0038 -1.5420 -1.9215
 2862TIP3   OH2 8591   5.483   5.496   2.586 -0.1614 -1.0779  0.6428
 2862TIP3    H1 8592   5.556   5.435   2.574  1.2270  0.6161  0.0372
 2862TIP3    H2 8593   5.520   5.582   2.566 -2.7512 -0.3051 -1.4126
 2863TIP3   OH2 8594   3.132   0.011   3.099  0.0354 -0.2892  0.0268
 2863TIP3    H1 8595   3.156   0.069   3.172  3.1971 -0.7342 -0.5001
 2863TIP3    H2 8596   3.196  -0.060   3.104 -0.6579 -1.1523 -2.2725
 2864TIP3   OH2 8597   0.505   4.156   1.119 -0.4554 -0.1699 -0.4018
 2864TIP3    H1 8598   0.470   4.245   1.125  2.4348  1.1808 -1.7338
 2864TIP3    H2 8599   0.551   4.143   1.202 -1.8443 -0.9407  0.2800
 2865TIP3   OH2 8600   3.883   2.111   2.784  0.3225 -0.2264  0.3418
 2865TIP3    H1 8601   3.939   2.131   2.859 -0.3835 -1.0518  1.1041
 2865TIP3    H2 8602   3.801   2.081   2.822 -0.6291  0.8597 -0.7536
 2866TIP3   OH2 8603   3.776   4.958   3.411  0.1578  0.2612 -0.2285
 2866TIP3    H1 8604   3.754   5.052   3.411 -0.0957  0.2100 -0.8836
 2866TIP3    H2 8605   3.701   4.916   3.369 -0.1156 -0.3417  0.8380
 2867TIP3   OH2 8606   5.695   3.909   3.158 -0.6713  0.1089 -0.0274
 2867TIP3    H1 8607   5.708   3.815   3.167 -0.6049 -0.0582 -1.5041
 2867TIP3    H2 8608   5.746   3.933   3.080 -0.5290  1.4046  0.4349
 2868TIP3   OH2 8609   1.901   1.400   4.641 -0.1631 -0.0370 -0.5810
 2868TIP3    H1 8610   1.892   1.323   4.696  1.7116  0.0415 -0.1055
 2868TIP3    H2 8611   1.986   1.390   4.598  1.4995  3.0082  1.6216
 2869TIP3   OH2 8612   2.966   3.104   1.527  0.0618 -0.0510  0.0393
 2869TIP3    H1 8613   2.876   3.074   1.542  0.7654 -2.4610 -0.1413
 2869TIP3    H2 8614   2.993   3.141   1.610 -0.2846 -1.6498  0.9014
 2870TIP3   OH2 8615   5.966   0.919   1.618 -0.0182 -0.0015 -0.3034
 2870TIP3    H1 8616   5.943   0.830   1.592 -0.4653  0.2437 -0.7807
 2870TIP3    H2 8617   6.059   0.916   1.638 -0.2593 -0.8371  0.8133
 2871TIP3   OH2 8618   4.019   5.615   2.937 -0.4033  0.6262 -0.3173
 2871TIP3    H1 8619   4.065   5.533   2.948  1.5038  1.7479  0.5490
 2871TIP3    H2 8620   3.967   5.603   2.857  1.5362 -0.6634 -1.4558
 2872TIP3   OH2 8621   4.908   0.946   4.034 -0.0562  0.6949  0.1110
 2872TIP3    H1 8622   4.849   0.975   3.964  1.3127  0.4153 -1.2222
 2872TIP3    H2 8623   4.975   0.894   3.989  1.7141  1.7340  1.4016
 2873TIP3   OH2 8624   4.593   1.030   4.075  0.1367  0.6973  0.3072
 2873TIP3    H1 8625   4.502   1.026   4.046  0.4381  4.8609 -2.0085
 2873TIP3    H2 8626   4.642   0.986   4.005  0.1187  2.0916 -0.6277
 2874TIP3   OH2 8627   5.625   3.739   4.556  0.1770 -0.5340 -0.1571
 2874TIP3    H1 8628   5.710   3.719   4.595  0.8428  1.1081 -0.6909
 2874TIP3    H2 8629   5.575   3.779   4.628  0.7319  0.7221 -0.4401
 2875TIP3   OH2 8630   2.233   4.345   3.833  0.4727  0.1368  0.4804
 2875TIP3    H1 8631   2.210   4.332   3.926  0.7225 -1.1036  0.3812
 2875TIP3    H2 8632   2.230   4.257   3.795  0.7758  0.5833 -0.6062
 2876TIP3   OH2 8633   1.722   5.681   1.850 -0.0558 -0.0061 -0.8987
 2876TIP3    H1 8634   1.801   5.659   1.900  0.0947 -0.2339 -1.2310
 2876TIP3    H2 8635   1.681   5.596   1.832 -0.3744  0.1106 -0.7371
 2877TIP3   OH2 8636   2.184   3.662   4.928 -0.1443 -0.1234 -0.0642
 2877TIP3    H1 8637   2.156   3.630   5.014  1.4388  0.5192  0.7341
 2877TIP3    H2 8638   2.126   3.735   4.909 -0.0456  0.2001  0.8254
 2878TIP3   OH2 8639   6.262   2.063   4.570  0.1768 -0.1903 -0.0592
 2878TIP3    H1 8640   6.185   2.036   4.520  0.8103  0.8470 -1.6820
 2878TIP3    H2 8641   6.301   1.981   4.601 -0.6028 -0.8210 -0.7088
 2879TIP3   OH2 8642   4.565   0.251   4.549 -0.1204 -0.4597 -0.1762
 2879TIP3    H1 8643   4.549   0.345   4.551  2.6031  0.0814  0.8736
 2879TIP3    H2 8644   4.543   0.221   4.637  1.1630 -0.3165  0.2230
 2880TIP3   OH2 8645   3.396   0.940   5.124  0.2415  0.1184 -0.8161
 2880TIP3    H1 8646   3.339   0.863   5.123  0.4519 -0.1112  1.3215
 2880TIP3    H2 8647   3.482   0.906   5.144  0.5393  0.8164 -0.8849
 2881TIP3   OH2 8648   5.656   3.921   1.214 -0.6061 -0.9776  0.2584
 2881TIP3    H1 8649   5.597   3.927   1.289  1.0979  0.2222  1.6000
 2881TIP3    H2 8650   5.637   3.999   1.162 -0.3483 -0.6774  0.6042
 2882TIP3   OH2 8651   3.515   1.732   0.561  0.8858 -0.3636 -0.1486
 2882TIP3    H1 8652   3.439   1.755   0.507  0.9705 -1.7344 -0.8988
 2882TIP3    H2 8653   3.555   1.658   0.515  3.0749  0.7180 -0.1310
 2883TIP3   OH2 8654   2.064   1.238   3.898  0.2766  0.1867  0.1751
 2883TIP3    H1 8655   2.023   1.260   3.814  1.0899  0.3524 -0.1847
 2883TIP3    H2 8656   2.089   1.146   3.890 -0.8210 -0.1810  0.7351
 2884TIP3   OH2 8657   3.380   4.280   5.001 -0.4252 -0.4966  0.1580
 2884TIP3    H1 8658   3.465   4.243   5.023 -0.3194  1.0015  2.6368
 2884TIP3    H2 8659   3.399   4.347   4.935  0.3791  0.1030  0.9873
 2885TIP3   OH2 8660   6.094   5.733   1.509 -1.0359 -0.0400 -0.1949
 2885TIP3    H1 8661   6.156   5.698   1.445 -1.0347 -0.4310  0.0169
 2885TIP3    H2 8662   6.074   5.659   1.566  1.9892  1.0901  2.7537
 2886TIP3   OH2 8663   3.384   2.685   2.100 -0.2094 -0.1226 -0.3104
 2886TIP3    H1 8664   3.341   2.613   2.146  1.1354 -0.4097  0.5586
 2886TIP3    H2 8665   3.320   2.714   2.035 -1.1390 -1.4642 -0.0322
 2887TIP3   OH2 8666   5.648   0.851   1.714 -0.1947 -0.0990 -0.3487
 2887TIP3    H1 8667   5.724   0.909   1.717  0.3711 -0.8689  0.7744
 2887TIP3    H2 8668   5.573   0.911   1.712  0.3722  0.6892  0.7849
 2888TIP3   OH2 8669   5.676   2.000   3.069  0.1622  0.2366  0.1020
 2888TIP3    H1 8670   5.683   2.084   3.025 -0.6396  0.7835  0.9765
 2888TIP3    H2 8671   5.747   2.000   3.133 -0.3738  0.6352  0.7066
 2889TIP3   OH2 8672   5.365   2.282   4.671  0.3153  0.6833  0.1406
 2889TIP3    H1 8673   5.285   2.334   4.681 -0.4623 -0.5180  0.2832
 2889TIP3    H2 8674   5.426   2.342   4.629 -1.1489  1.1734 -1.4208
 2890TIP3   OH2 8675   6.037   5.212   0.944 -0.9226 -0.0113 -0.6901
 2890TIP3    H1 8676   5.967   5.167   0.992 -0.6700  0.2903 -0.0195
 2890TIP3    H2 8677   6.096   5.142   0.916 -0.1235 -0.0831  1.0099
 2891TIP3   OH2 8678   4.375   3.286   0.882  0.4656 -0.0040 -0.2300
 2891TIP3    H1 8679   4.330   3.202   0.879  0.4289  0.0368 -0.9425
 2891TIP3    H2 8680   4.353   3.322   0.968 -0.8299 -0.0060 -0.5390
 2892TIP3   OH2 8681   1.310   2.353   2.971  0.5133 -0.3655  0.2751
 2892TIP3    H1 8682   1.328   2.440   3.007 -0.6162 -0.3925  0.9567
 2892TIP3    H2 8683   1.221   2.333   3.001  0.5973 -1.5730 -0.2392
 2893TIP3   OH2 8684   6.211   1.902   1.661  0.3045  0.2837 -0.5010
 2893TIP3    H1 8685   6.223   1.957   1.584  0.0267 -0.2158 -0.9080
 2893TIP3    H2 8686   6.136   1.847   1.639 -1.0698  1.5032  0.9202
 2894TIP3   OH2 8687   3.932   5.232   0.773  0.2762  0.4189 -0.0083
 2894TIP3    H1 8688   3.862   5.259   0.832 -0.6807 -1.2847 -0.2983
 2894TIP3    H2 8689   4.007   5.217   0.831 -0.4476 -0.5304  0.7287
 2895TIP3   OH2 8690   0.394   3.831   3.409 -0.4838 -0.4155  0.8699
 2895TIP3    H1 8691   0.342   3.825   3.329  0.6249  0.5583  0.0372
 2895TIP3    H2 8692   0.485   3.823   3.379 -0.1278 -2.2519  2.3020
 2896TIP3   OH2 8693   0.316   5.581   2.920  0.4061  0.3060 -0.1126
 2896TIP3    H1 8694   0.274   5.666   2.937  0.3783  0.2125  0.3067
 2896TIP3    H2 8695   0.370   5.596   2.843  1.2431  0.9989  0.5807
 2897TIP3   OH2 8696   3.194   3.214   4.795  0.0653  0.5021  0.8185
 2897TIP3    H1 8697   3.174   3.133   4.843 -1.3352  0.4761  0.2220
 2897TIP3    H2 8698   3.109   3.254   4.779  0.6382  1.3422 -0.2212
 2898TIP3   OH2 8699   2.119   2.132   0.133 -0.5213 -0.1423 -0.7354
 2898TIP3    H1 8700   2.031   2.112   0.102 -0.3605 -1.0005 -0.6823
 2898TIP3    H2 8701   2.125   2.227   0.132 -1.9901  0.0067  0.7856
 2899TIP3   OH2 8702   5.731   0.015   2.556  0.4915  0.4405 -0.0913
 2899TIP3    H1 8703   5.733  -0.004   2.462  1.4576 -0.2950  0.0611
 2899TIP3    H2 8704   5.765   0.104   2.563  1.9950 -0.0848 -0.3274
 2900TIP3   OH2 8705   4.006   2.090   0.804 -0.0034  0.5195  0.1674
 2900TIP3    H1 8706   3.936   2.104   0.740 -0.5729 -1.5770  0.2691
 2900TIP3    H2 8707   4.084   2.073   0.751  0.5541  3.0348  0.0507
 2901TIP3   OH2 8708   0.375   3.519   0.652 -0.0413 -0.5058  0.2440
 2901TIP3    H1 8709   0.410   3.464   0.581 -0.5463  1.4227 -1.6077
 2901TIP3    H2 8710   0.281   3.501   0.652 -0.6880  2.0708 -2.1886
 2902TIP3   OH2 8711   2.537   1.064   3.872 -0.1130  0.6682  0.1353
 2902TIP3    H1 8712   2.524   1.061   3.777  1.3896 -0.8351 -0.0539
 2902TIP3    H2 8713   2.614   1.119   3.884  0.3306 -0.0057  0.4049
 2903TIP3   OH2 8714   1.158   5.605   1.772 -0.0194  0.1012 -0.2239
 2903TIP3    H1 8715   1.077   5.555   1.783 -0.8354  1.4325  0.0324
 2903TIP3    H2 8716   1.219   5.565   1.833 -0.2564 -1.3621 -0.9106
 2904TIP3   OH2 8717   2.251   2.583   0.317  0.5724  0.0220  0.0612
 2904TIP3    H1 8718   2.216   2.560   0.403  0.8803 -2.2999 -0.3581
 2904TIP3    H2 8719   2.301   2.663   0.331 -0.9268  0.7433  1.6277
 2905TIP3   OH2 8720   2.693   2.650   3.364  0.0774  0.3086 -0.8556
 2905TIP3    H1 8721   2.765   2.587   3.372 -0.3682 -0.1778 -0.6170
 2905TIP3    H2 8722   2.622   2.600   3.323 -0.0587  0.8394 -1.2738
 2906TIP3   OH2 8723   5.534   5.160   2.579  0.2185  0.2244  0.0223
 2906TIP3    H1 8724   5.510   5.068   2.580 -0.6890  0.4423 -0.4722
 2906TIP3    H2 8725   5.450   5.206   2.573  0.6674  1.0773  0.1688
 2907TIP3   OH2 8726   2.969   5.451  -0.007 -0.7798  0.9547  0.7282
 2907TIP3    H1 8727   2.907   5.437   0.064 -0.6657  1.5451  0.9418
 2907TIP3    H2 8728   3.046   5.489   0.034 -0.7224  1.3308  0.2821
 2908TIP3   OH2 8729   0.652   4.725   1.613  0.4155 -0.1573 -0.9547
 2908TIP3    H1 8730   0.725   4.740   1.672 -0.1115 -2.0178  0.2609
 2908TIP3    H2 8731   0.637   4.810   1.571  2.7509  0.4494 -0.6904
 2909TIP3   OH2 8732   5.116   1.702   4.584 -0.4247 -0.4199 -0.6904
 2909TIP3    H1 8733   5.051   1.701   4.655  0.3505 -0.8392  0.0311
 2909TIP3    H2 8734   5.195   1.739   4.624 -0.4605  0.9293 -1.7955
 2910TIP3   OH2 8735   4.495   0.514   4.514  0.1395 -0.4899  0.5359
 2910TIP3    H1 8736   4.474   0.563   4.434  1.5932 -0.3091  0.2236
 2910TIP3    H2 8737   4.496   0.579   4.583 -0.7032 -0.5733  0.6317
 2911TIP3   OH2 8738   5.227   5.943   1.378  0.1954  0.3213  0.1085
 2911TIP3    H1 8739   5.134   5.963   1.390  0.4093  1.3135  0.1849
 2911TIP3    H2 8740   5.228   5.874   1.311 -0.5572  0.9214 -0.5468
 2912TIP3   OH2 8741   3.285   3.248   1.061 -0.0551 -0.2493  0.1684
 2912TIP3    H1 8742   3.342   3.242   1.138 -0.1161 -1.2123  0.1449
 2912TIP3    H2 8743   3.249   3.337   1.065  1.1071  0.2405  0.4158
 2913TIP3   OH2 8744   0.146   4.523   4.491  0.0890 -0.4104 -0.1076
 2913TIP3    H1 8745   0.127   4.518   4.585  0.5949  0.3937  0.0512
 2913TIP3    H2 8746   0.101   4.601   4.461  2.5642  1.2548  0.1832
 2914TIP3   OH2 8747   1.325   4.779   0.379 -0.4529  0.5451  0.0587
 2914TIP3    H1 8748   1.285   4.865   0.375  0.3016  1.0629  2.0295
 2914TIP3    H2 8749   1.341   4.765   0.473 -0.5362 -1.7338 -0.2082
 2915TIP3   OH2 8750   3.565   4.470   1.865  0.0524 -0.1363 -0.0447
 2915TIP3    H1 8751   3.508   4.543   1.842 -0.5440 -0.9269 -1.2134
 2915TIP3    H2 8752   3.611   4.449   1.783 -1.5323 -2.5352 -0.4158
 2916TIP3   OH2 8753   1.800   3.747   0.888 -0.4453 -0.0706 -0.4803
 2916TIP3    H1 8754   1.739   3.693   0.939 -1.2305  0.8570 -0.4115
 2916TIP3    H2 8755   1.753   3.829   0.875  0.6684  0.5324 -0.7368
 2917TIP3   OH2 8756   5.157   0.327   3.008 -0.7453 -0.5486  0.4868
 2917TIP3    H1 8757   5.171   0.237   2.978 -2.1675 -0.5081 -0.3975
 2917TIP3    H2 8758   5.211   0.335   3.086 -1.3071 -2.4934  1.1379
 2918TIP3   OH2 8759   3.010   4.441   4.499  0.2334 -0.4565  0.2143
 2918TIP3    H1 8760   3.050   4.508   4.445 -0.9470 -0.3709 -0.5977
 2918TIP3    H2 8761   3.026   4.470   4.589  0.1598  0.6652 -0.1167
 2919TIP3   OH2 8762   3.900   1.574   2.459 -0.3415 -0.2220  0.2818
 2919TIP3    H1 8763   3.876   1.522   2.382 -0.3817  1.6357 -1.0398
 2919TIP3    H2 8764   3.993   1.556   2.472 -0.6443 -1.6349  0.7267
 2920TIP3   OH2 8765   0.725   4.359   0.016  0.0286  0.2742 -0.1215
 2920TIP3    H1 8766   0.785   4.284   0.018  2.0177  1.7534 -0.2342
 2920TIP3    H2 8767   0.649   4.328  -0.033  0.9688 -1.5353 -0.5374
 2921TIP3   OH2 8768   5.758   1.393   5.048 -0.8057  1.0866  0.5406
 2921TIP3    H1 8769   5.688   1.413   4.987 -0.6048 -0.7327 -0.3670
 2921TIP3    H2 8770   5.714   1.355   5.124 -0.9424  1.8402  0.8386
 2922TIP3   OH2 8771   5.790   2.287   4.448 -0.0271  0.5304  0.2840
 2922TIP3    H1 8772   5.745   2.341   4.512  1.5818  1.7538  0.4344
 2922TIP3    H2 8773   5.869   2.336   4.425  1.1057 -1.3735 -0.1762
 2923TIP3   OH2 8774   0.831   1.011   1.271 -0.2380 -0.2873  0.0905
 2923TIP3    H1 8775   0.877   1.046   1.194  0.8343  0.5512  1.0752
 2923TIP3    H2 8776   0.745   1.054   1.269 -0.7929 -1.3577 -1.3924
 2924TIP3   OH2 8777   5.660   0.133   4.708 -0.5321 -0.2225  0.0368
 2924TIP3    H1 8778   5.604   0.193   4.658 -1.5507 -1.9060 -0.9551
 2924TIP3    H2 8779   5.667   0.172   4.795 -0.0674  1.9638 -0.9229
 2925TIP3   OH2 8780   3.971   0.885   3.055 -0.3286 -0.2050  0.7105
 2925TIP3    H1 8781   4.063   0.863   3.041 -0.0333  1.2966  0.1492
 2925TIP3    H2 8782   3.948   0.840   3.137  0.1444 -2.7175 -0.4282
 2926TIP3   OH2 8783   0.894   4.717   4.078  0.3740 -0.1891 -0.2492
 2926TIP3    H1 8784   0.842   4.647   4.118 -0.0823  0.9174  1.2202
 2926TIP3    H2 8785   0.857   4.798   4.116  3.0943  0.6694  0.7990
 2927TIP3   OH2 8786   3.549   5.924   2.814  0.1820 -0.3972 -0.1044
 2927TIP3    H1 8787   3.616   5.962   2.871  0.1769 -1.0532  0.3520
 2927TIP3    H2 8788   3.566   5.962   2.728  2.2371 -1.8050 -0.4112
 2928TIP3   OH2 8789   5.216   2.791   3.888  0.0947 -0.0220  0.1798
 2928TIP3    H1 8790   5.201   2.885   3.899  2.0376  0.2216  1.1412
 2928TIP3    H2 8791   5.185   2.753   3.971 -0.6405 -0.2498 -0.1877
 2929TIP3   OH2 8792   5.829   3.583   4.246 -0.7132 -0.0264 -0.5864
 2929TIP3    H1 8793   5.813   3.586   4.152  1.2804  0.2959 -0.9474
 2929TIP3    H2 8794   5.848   3.490   4.264  0.1659  0.1251 -0.7309
 2930TIP3   OH2 8795   2.966   5.132   0.539  0.0466 -0.0745  0.1552
 2930TIP3    H1 8796   2.956   5.156   0.631  0.0246 -2.2384  0.7631
 2930TIP3    H2 8797   3.030   5.061   0.539  1.7310  1.3204 -1.7685
 2931TIP3   OH2 8798   5.516   3.028   1.698 -0.3163 -0.2657  0.2869
 2931TIP3    H1 8799   5.509   2.967   1.771  0.6067 -2.5446 -1.3834
 2931TIP3    H2 8800   5.438   3.011   1.645 -0.5445  0.7505  0.2678
 2932TIP3   OH2 8801   2.571   2.256   2.894  0.0582 -0.0457  0.3810
 2932TIP3    H1 8802   2.580   2.171   2.851  0.0164 -0.2846  0.8395
 2932TIP3    H2 8803   2.658   2.295   2.888 -0.5487  1.1288 -2.3835
 2933TIP3   OH2 8804   0.787   2.986   4.379  0.1596  0.2915  0.5596
 2933TIP3    H1 8805   0.699   2.964   4.347 -0.0116 -0.0841  1.2659
 2933TIP3    H2 8806   0.781   3.077   4.407 -0.1452  0.1180  1.0697
 2934TIP3   OH2 8807   1.702   5.989   0.394  0.3633  0.1836 -0.4819
 2934TIP3    H1 8808   1.746   5.908   0.371 -0.5730 -0.8925  1.3492
 2934TIP3    H2 8809   1.613   5.979   0.359 -1.1257 -1.5282  3.2420
 2935TIP3   OH2 8810   5.697   2.540   1.138  0.0770 -0.1997  0.1100
 2935TIP3    H1 8811   5.686   2.509   1.228  1.0351 -0.7066  0.0566
 2935TIP3    H2 8812   5.643   2.620   1.135 -0.2469 -0.3608  1.0244
 2936TIP3   OH2 8813   2.513   3.776   1.236 -0.5218  0.3339  0.5440
 2936TIP3    H1 8814   2.455   3.850   1.251 -1.9499 -1.0729  2.5911
 2936TIP3    H2 8815   2.562   3.767   1.318  0.2854 -0.4264 -0.0053
 2937TIP3   OH2 8816   1.524   3.435   1.417 -0.2657  0.0425 -0.1222
 2937TIP3    H1 8817   1.568   3.503   1.467  0.2812 -1.3936  1.4164
 2937TIP3    H2 8818   1.451   3.406   1.472 -0.2596 -0.8891 -0.5747
 2938TIP3   OH2 8819  -0.015   3.738   1.841  0.1795 -0.3485 -0.3301
 2938TIP3    H1 8820   0.059   3.763   1.785  0.4911 -2.2486 -0.8284
 2938TIP3    H2 8821   0.005   3.649   1.869 -2.5342 -1.4427 -1.5512
 2939TIP3   OH2 8822   2.394   0.034   5.102 -0.4598 -0.4120  0.0776
 2939TIP3    H1 8823   2.408   0.114   5.153 -1.3856 -1.7851  2.6752
 2939TIP3    H2 8824   2.334  -0.018   5.155 -2.1059 -1.7142 -2.8183
 2940TIP3   OH2 8825   4.447   5.731   3.814  0.0882  0.7025 -0.0697
 2940TIP3    H1 8826   4.360   5.726   3.775  0.1018 -1.7169  0.0467
 2940TIP3    H2 8827   4.508   5.715   3.742  0.1380 -3.0409  0.5871
 2941TIP3   OH2 8828   1.236   1.717   0.099 -0.0355  0.4250 -0.3072
 2941TIP3    H1 8829   1.295   1.788   0.072 -0.7492  2.0820  2.1759
 2941TIP3    H2 8830   1.248   1.711   0.194 -2.2230 -0.7311 -0.0524
 2942TIP3   OH2 8831   2.433   5.962   1.455 -0.0402  0.0796  0.6852
 2942TIP3    H1 8832   2.439   5.886   1.513 -1.1089  0.6951  1.6448
 2942TIP3    H2 8833   2.522   5.976   1.426  0.3273 -0.9890  1.2162
 2943TIP3   OH2 8834   1.985   4.171   1.986  0.5456 -0.6026 -0.2115
 2943TIP3    H1 8835   2.066   4.175   1.935  1.3968  0.0927  1.1326
 2943TIP3    H2 8836   1.959   4.079   1.983  1.0561 -0.7217 -1.1461
 2944TIP3   OH2 8837   2.896   4.589   0.978  0.0693  0.1699  0.0210
 2944TIP3    H1 8838   2.960   4.655   0.950 -0.5124 -0.1408 -2.2897
 2944TIP3    H2 8839   2.814   4.638   0.989 -0.2731 -0.0386 -1.3295
 2945TIP3   OH2 8840   2.111   3.504   4.717  0.0449 -0.7083 -0.0858
 2945TIP3    H1 8841   2.175   3.565   4.752  1.3878 -2.2134  0.2032
 2945TIP3    H2 8842   2.053   3.484   4.790  0.7283 -1.1742  0.3407
 2946TIP3   OH2 8843   4.114   2.660   2.643 -0.5822 -0.1667 -0.3118
 2946TIP3    H1 8844   4.053   2.649   2.570 -0.4437 -3.1708 -0.1218
 2946TIP3    H2 8845   4.078   2.605   2.713  0.5473  0.7346  1.0235
 2947TIP3   OH2 8846   4.166   1.705   5.122  0.1327  0.3809  0.2893
 2947TIP3    H1 8847   4.114   1.736   5.048 -1.2079  0.4852  1.2518
 2947TIP3    H2 8848   4.224   1.638   5.084 -0.9938 -0.0420 -0.7367
 2948TIP3   OH2 8849   0.402   2.650   0.465 -0.4452  0.2455 -0.0230
 2948TIP3    H1 8850   0.391   2.739   0.431 -0.7633  0.4526  0.6136
 2948TIP3    H2 8851   0.437   2.662   0.553  1.2680 -0.3138 -0.5894
 2949TIP3   OH2 8852   0.842   5.203   0.624  0.3384  0.1998  0.9438
 2949TIP3    H1 8853   0.796   5.225   0.705 -3.3154 -0.4027 -0.7793
 2949TIP3    H2 8854   0.779   5.152   0.574  1.2472  2.8725 -3.4686
 2950TIP3   OH2 8855   3.232   1.759   1.148 -0.1481 -0.4136 -0.0657
 2950TIP3    H1 8856   3.160   1.763   1.085 -0.6419  0.0676  0.5247
 2950TIP3    H2 8857   3.241   1.666   1.167 -0.7833 -0.4554  0.0480
 2951TIP3   OH2 8858   3.634   2.003   1.163 -0.0761  0.5796 -0.5237
 2951TIP3    H1 8859   3.726   1.986   1.187 -0.9410 -0.9073  2.3096
 2951TIP3    H2 8860   3.611   1.931   1.104 -0.1506 -0.8546  1.1553
 2952TIP3   OH2 8861   0.519   5.675   3.990 -0.0681 -0.2429  0.3988
 2952TIP3    H1 8862   0.564   5.665   4.074  0.3308  0.8452  0.3430
 2952TIP3    H2 8863   0.518   5.770   3.976  0.1629 -0.4301 -0.9784
 2953TIP3   OH2 8864   3.737   5.901   3.738 -0.3501  0.3042  0.6329
 2953TIP3    H1 8865   3.795   5.826   3.722 -1.0191 -0.2549  0.8018
 2953TIP3    H2 8866   3.774   5.971   3.684 -0.3925 -0.4774 -0.4336
 2954TIP3   OH2 8867   1.987   3.722   4.544  0.2434  0.0311 -0.2359
 2954TIP3    H1 8868   2.021   3.633   4.549 -1.1553 -0.4723  1.1494
 2954TIP3    H2 8869   1.978   3.750   4.635 -1.4470  0.7174 -0.5729
 2955TIP3   OH2 8870   5.422   1.928   3.214 -0.6936  0.0840 -0.7674
 2955TIP3    H1 8871   5.498   1.964   3.169  1.4452 -0.2810  2.2346
 2955TIP3    H2 8872   5.439   1.834   3.218 -1.1620  0.0284  0.1346
 2956TIP3   OH2 8873   2.479   3.613   2.530  0.3709 -0.2688 -0.4419
 2956TIP3    H1 8874   2.444   3.703   2.531 -0.2105 -0.4558 -1.7897
 2956TIP3    H2 8875   2.559   3.619   2.477 -0.2704 -0.7341 -1.4860
 2957TIP3   OH2 8876   3.975   4.917   2.290 -0.1088  0.0535  0.4309
 2957TIP3    H1 8877   4.020   4.871   2.361 -2.5736 -0.4804  1.8065
 2957TIP3    H2 8878   3.930   4.990   2.334 -1.9012 -0.4410 -0.4687
 2958TIP3   OH2 8879   3.253   5.721   2.751 -0.2920  0.2866  0.5591
 2958TIP3    H1 8880   3.162   5.716   2.780 -0.3198  2.4261  1.0336
 2958TIP3    H2 8881   3.292   5.788   2.808  1.1958  0.4149 -0.5638
 2959TIP3   OH2 8882   2.708   0.851   3.625 -0.3749  0.1757 -0.0892
 2959TIP3    H1 8883   2.790   0.893   3.601  0.6043 -2.2118 -1.1870
 2959TIP3    H2 8884   2.642   0.920   3.614  1.2809  1.7591 -0.5557
 2960TIP3   OH2 8885   0.118   2.511   2.404 -0.4484 -0.7189  1.0847
 2960TIP3    H1 8886   0.074   2.583   2.449 -1.4594 -0.9367  0.4804
 2960TIP3    H2 8887   0.122   2.538   2.312  0.7581 -0.6806  1.1370
 2961TIP3   OH2 8888   1.379   4.538   4.302 -0.4372 -0.1937 -0.4029
 2961TIP3    H1 8889   1.437   4.464   4.282  1.9173  0.8815  1.8994
 2961TIP3    H2 8890   1.291   4.500   4.299  0.5681 -2.7055 -0.8658
 2962TIP3   OH2 8891   6.299   3.543   4.385 -0.6584 -0.2344 -0.8060
 2962TIP3    H1 8892   6.236   3.517   4.453 -0.4727 -0.1261 -0.5931
 2962TIP3    H2 8893   6.351   3.612   4.426 -1.7849  1.2054 -1.6847
 2963TIP3   OH2 8894   1.273   4.853   0.081 -0.1066  0.1491 -0.4163
 2963TIP3    H1 8895   1.340   4.820   0.142 -0.4637 -1.1107 -0.6710
 2963TIP3    H2 8896   1.299   4.943   0.063 -0.4448  0.8398  2.2216
 2964TIP3   OH2 8897   0.543   1.624   4.085 -0.0606 -0.3856  0.2613
 2964TIP3    H1 8898   0.570   1.715   4.089  0.2672 -0.3825 -1.3471
 2964TIP3    H2 8899   0.539   1.595   4.177 -1.3588  1.5590  0.8725
 2965TIP3   OH2 8900   5.683   2.693   2.341  0.1441  0.1330  0.4057
 2965TIP3    H1 8901   5.650   2.748   2.412  0.4566  0.9431 -0.0613
 2965TIP3    H2 8902   5.616   2.626   2.329 -1.1479  1.4745 -0.2217
 2966TIP3   OH2 8903   5.658   3.936   2.702 -0.1539  0.0484 -0.0722
 2966TIP3    H1 8904   5.571   3.945   2.664  0.6019  0.7925 -1.6767
 2966TIP3    H2 8905   5.706   4.013   2.673  1.5842 -1.2074 -0.7231
 2967TIP3   OH2 8906   4.064   4.714   0.698  0.2501 -0.5457  0.4360
 2967TIP3    H1 8907   4.074   4.619   0.693 -0.0751 -0.5280 -1.2846
 2967TIP3    H2 8908   4.066   4.743   0.607 -1.1840  0.9350  0.8185
 2968TIP3   OH2 8909   6.026   0.111   1.171 -0.5158  0.5646 -0.2497
 2968TIP3    H1 8910   6.101   0.062   1.137 -0.8250  1.3235 -2.1834
 2968TIP3    H2 8911   6.041   0.118   1.265  0.6091 -1.3505 -0.2471
 2969TIP3   OH2 8912   4.364   1.942   4.892  0.5186  0.0447  0.2560
 2969TIP3    H1 8913   4.410   1.912   4.970 -0.5920  0.0696  0.9369
 2969TIP3    H2 8914   4.423   2.007   4.853  2.2705 -1.8021 -0.3807
 2970TIP3   OH2 8915   2.090   0.282   0.244  0.0324  0.0415  0.0017
 2970TIP3    H1 8916   2.003   0.267   0.282 -1.1283  0.9581 -2.1287
 2970TIP3    H2 8917   2.112   0.199   0.201  0.0767 -0.0872  0.2697
 2971TIP3   OH2 8918   1.563   0.658   1.399 -1.1143  0.3616 -0.4253
 2971TIP3    H1 8919   1.618   0.603   1.342  1.5161 -0.6596  2.8063
 2971TIP3    H2 8920   1.605   0.743   1.396  1.1653 -0.5278  2.3878
 2972TIP3   OH2 8921   5.335   5.764   1.591 -0.3010 -0.2666  0.0474
 2972TIP3    H1 8922   5.361   5.831   1.655 -1.0127 -0.0798  0.1462
 2972TIP3    H2 8923   5.287   5.812   1.524 -0.4159 -0.6116 -0.1181
 2973TIP3   OH2 8924   3.694   5.435   1.774  0.3162 -0.1380  0.0729
 2973TIP3    H1 8925   3.601   5.444   1.752  0.9690  1.3825 -2.6644
 2973TIP3    H2 8926   3.723   5.524   1.792  1.8588  0.0016 -2.5223
 2974TIP3   OH2 8927   2.085   0.033   0.141  0.0129 -0.1292  0.5099
 2974TIP3    H1 8928   2.106  -0.050   0.185  1.3774  0.2217  0.5540
 2974TIP3    H2 8929   1.995   0.021   0.110 -1.1402 -0.3273  3.5772
 2975TIP3   OH2 8930   5.028   4.239   4.801  0.2335  0.3141 -0.2202
 2975TIP3    H1 8931   4.972   4.168   4.831  0.3109  0.2172 -0.3015
 2975TIP3    H2 8932   5.062   4.208   4.717  1.8431 -0.4082  0.6592
 2976TIP3   OH2 8933   5.514   1.379   2.786 -0.2705 -0.8414 -0.6092
 2976TIP3    H1 8934   5.453   1.369   2.713  0.7792 -0.5465 -1.5424
 2976TIP3    H2 8935   5.460   1.413   2.858 -0.6265  2.8650 -2.4247
 2977TIP3   OH2 8936   2.416   4.209   1.107  0.0796  0.0691  0.3233
 2977TIP3    H1 8937   2.335   4.254   1.084  1.3651  1.5837 -1.5794
 2977TIP3    H2 8938   2.388   4.137   1.164 -2.4135  1.3564  0.8676
 2978TIP3   OH2 8939   3.182   5.838   1.348  0.1019  0.4496  0.5945
 2978TIP3    H1 8940   3.263   5.880   1.321 -0.2993  0.6786 -0.2736
 2978TIP3    H2 8941   3.122   5.910   1.368  0.0600  0.2827  1.0966
 2979TIP3   OH2 8942   4.822   3.157   3.088 -0.1311 -0.2576  0.2754
 2979TIP3    H1 8943   4.789   3.093   3.024  0.2907  0.9246 -1.1737
 2979TIP3    H2 8944   4.901   3.118   3.123  0.9834  0.0748 -1.7346
 2980TIP3   OH2 8945   1.515   3.913   1.219 -0.1201 -0.0962 -0.3581
 2980TIP3    H1 8946   1.520   3.819   1.200  1.0710 -0.0704 -0.2521
 2980TIP3    H2 8947   1.440   3.944   1.168  0.9426 -0.6480 -2.3312
 2981TIP3   OH2 8948   2.447   4.865   4.379  0.8374 -0.0681 -0.3390
 2981TIP3    H1 8949   2.455   4.946   4.429  1.4656 -0.4250  0.1525
 2981TIP3    H2 8950   2.535   4.849   4.345  0.8160 -0.7724 -0.0697
 2982TIP3   OH2 8951   4.337   2.412   3.201  0.9300 -0.4866  0.3783
 2982TIP3    H1 8952   4.267   2.471   3.230  1.1617 -0.0113 -0.0254
 2982TIP3    H2 8953   4.412   2.434   3.256 -0.1301 -3.3095  3.2491
 2983TIP3   OH2 8954   6.221   3.067   1.204  0.3301 -0.2675 -0.3092
 2983TIP3    H1 8955   6.283   3.120   1.256  1.6086 -1.7183 -0.2782
 2983TIP3    H2 8956   6.195   2.997   1.263  0.5384 -1.0249 -1.1008
 2984TIP3   OH2 8957   2.250   2.034   2.817  0.6931  0.2343 -1.1054
 2984TIP3    H1 8958   2.252   2.048   2.723 -0.0331  2.4242 -0.8472
 2984TIP3    H2 8959   2.188   1.963   2.830 -0.8616  1.3318 -2.1686
 2985TIP3   OH2 8960   1.034   3.402   1.165  0.2812  0.2959  0.5376
 2985TIP3    H1 8961   0.984   3.347   1.225  0.4008  0.4162  0.7505
 2985TIP3    H2 8962   1.087   3.341   1.114  0.0929  0.1849  0.4758
 2986TIP3   OH2 8963   1.100   1.902   1.962  0.2535 -0.4351 -0.1901
 2986TIP3    H1 8964   1.012   1.936   1.944 -0.7674 -1.3679  2.5698
 2986TIP3    H2 8965   1.152   1.981   1.980 -0.7608  0.0028  0.9562
 2987TIP3   OH2 8966   5.314   5.326   4.483  0.6104  0.2511 -0.1376
 2987TIP3    H1 8967   5.340   5.367   4.401 -0.1526 -2.2499 -1.7571
 2987TIP3    H2 8968   5.221   5.306   4.472  0.5742 -0.4660  1.1933
 2988TIP3   OH2 8969   1.999   0.548   0.297 -0.4023 -0.3903 -0.4197
 2988TIP3    H1 8970   1.914   0.508   0.275 -0.8590  1.0574 -1.4785
 2988TIP3    H2 8971   2.063   0.492   0.253 -0.8613 -1.0474 -0.2772
 2989TIP3   OH2 8972   4.719   1.485   1.419  0.8043 -0.1494  0.8454
 2989TIP3    H1 8973   4.688   1.395   1.408 -0.4406  0.2083  1.3062
 2989TIP3    H2 8974   4.721   1.499   1.514 -0.0016  0.6238  0.7660
 2990TIP3   OH2 8975   6.324   5.565   0.652  0.7146 -0.7540  0.6431
 2990TIP3    H1 8976   6.341   5.600   0.740 -1.4847  0.3985  0.6723
 2990TIP3    H2 8977   6.236   5.595   0.631  1.1002 -1.1976 -1.8890
 2991TIP3   OH2 8978   3.217   2.319   3.178 -0.1384  0.1699  0.3029
 2991TIP3    H1 8979   3.288   2.264   3.209 -0.4297 -0.9033 -0.8518
 2991TIP3    H2 8980   3.142   2.260   3.170 -0.8194  1.0098  0.3084
 2992TIP3   OH2 8981   5.732   1.022   0.362 -0.4218 -0.3611  0.0966
 2992TIP3    H1 8982   5.766   1.066   0.284 -0.0839  0.2237  0.5694
 2992TIP3    H2 8983   5.642   1.001   0.340 -0.3380 -0.1729 -0.4396
 2993TIP3   OH2 8984   2.176   1.000   3.832  0.5586  0.2880 -0.3173
 2993TIP3    H1 8985   2.179   0.918   3.781 -0.1083 -0.0416  0.1639
 2993TIP3    H2 8986   2.195   0.972   3.922 -0.5350  0.5305 -0.0049
 2994TIP3   OH2 8987   2.223   3.475   1.604  0.2569 -0.2495 -0.3790
 2994TIP3    H1 8988   2.204   3.382   1.592 -0.3370 -0.4473  1.7327
 2994TIP3    H2 8989   2.318   3.481   1.597  0.3281 -1.0701 -0.2205
 2995TIP3   OH2 8990   1.428   3.373   1.856 -0.2473 -0.1797 -0.3242
 2995TIP3    H1 8991   1.343   3.330   1.846 -0.5659  0.7735 -1.9738
 2995TIP3    H2 8992   1.415   3.436   1.927 -1.8551  2.0843 -2.5054
 2996TIP3   OH2 8993   0.791   1.993   4.312 -0.5229  0.0294 -0.0767
 2996TIP3    H1 8994   0.772   1.970   4.403 -1.6469  1.1923  0.0092
 2996TIP3    H2 8995   0.781   2.088   4.309  3.3512  0.5759 -0.5528
 2997TIP3   OH2 8996   1.253   4.239   1.216  0.2289 -0.0929 -0.9448
 2997TIP3    H1 8997   1.277   4.175   1.149 -1.1857 -1.6963  0.0158
 2997TIP3    H2 8998   1.157   4.241   1.215  0.1482 -0.5523  1.3586
 2998TIP3   OH2 8999   3.092   4.756   0.862 -0.1927  0.1129 -0.1974
 2998TIP3    H1 9000   3.134   4.722   0.783 -2.8631 -0.0405 -1.6838
 2998TIP3    H2 9001   3.033   4.824   0.830 -1.1682  0.2146  1.7094
 2999TIP3   OH2 9002   2.057   5.693   1.873  0.0611 -0.1518  0.4687
 2999TIP3    H1 9003   2.023   5.783   1.873  1.3999  0.4253  2.5705
 2999TIP3    H2 9004   2.152   5.704   1.877  0.2058 -1.6313  1.9173
 3000TIP3   OH2 9005   0.369   3.875   0.688 -0.1436 -0.3715  0.1066
 3000TIP3    H1 9006   0.362   3.937   0.616  1.6358 -0.5310 -0.2526
 3000TIP3    H2 9007   0.402   3.927   0.762 -0.5863 -0.4985  0.4018
 3001TIP3   OH2 9008   2.973   1.993   4.911 -0.7621  0.1248 -0.0944
 3001TIP3    H1 9009   2.966   1.934   4.987  0.4718 -2.2469 -1.6921
 3001TIP3    H2 9010   2.925   1.949   4.842 -0.3912  1.3752 -1.1842
 3002TIP3   OH2 9011   2.059   3.786   1.294  0.1968  0.6742 -0.1617
 3002TIP3    H1 9012   2.049   3.695   1.265  0.3298  1.2973 -2.2911
 3002TIP3    H2 9013   1.970   3.822   1.292  0.4096  1.1595 -1.3709
 3003TIP3   OH2 9014   6.079   1.279   1.752 -0.1651  0.4009 -0.0165
 3003TIP3    H1 9015   6.150   1.339   1.728 -1.4045  1.3279 -1.5642
 3003TIP3    H2 9016   6.123   1.203   1.789  1.7083  0.5024 -1.8665
 3004TIP3   OH2 9017   4.682   0.805   2.768 -0.4525  0.4436 -0.3899
 3004TIP3    H1 9018   4.688   0.725   2.821 -1.6704  1.0620  0.7266
 3004TIP3    H2 9019   4.591   0.810   2.741 -0.8808  2.3953  1.1422
 3005TIP3   OH2 9020   2.749   5.376   1.052  0.5862 -0.4009 -0.7160
 3005TIP3    H1 9021   2.724   5.433   0.979 -0.2397  0.5943  0.2934
 3005TIP3    H2 9022   2.722   5.289   1.026  0.1503 -0.0248 -1.5304
 3006TIP3   OH2 9023   3.147   2.238   2.737 -0.1743  0.4672 -0.1552
 3006TIP3    H1 9024   3.196   2.298   2.793 -0.9472  0.8511  0.1174
 3006TIP3    H2 9025   3.127   2.163   2.794 -1.0784  0.9178  0.1398
 3007TIP3   OH2 9026   0.535   4.059   4.771  0.1214  0.0200  0.6553
 3007TIP3    H1 9027   0.557   4.149   4.746 -1.1911  0.1939  0.0350
 3007TIP3    H2 9028   0.451   4.067   4.818 -0.0354 -0.8805  0.5385
 3008TIP3   OH2 9029   1.118   1.654   1.467  0.3265 -0.1579  0.7676
 3008TIP3    H1 9030   1.027   1.670   1.442  0.1845  0.7789  1.8304
 3008TIP3    H2 9031   1.120   1.562   1.493 -0.2641 -0.2439  0.5375
 3009TIP3   OH2 9032   4.662   5.149   2.205  0.1571 -0.3577  0.1557
 3009TIP3    H1 9033   4.742   5.114   2.168  1.2693  1.2532  0.9248
 3009TIP3    H2 9034   4.661   5.241   2.179 -0.4688  0.1156  1.6895
 3010TIP3   OH2 9035   4.257   5.070   1.180  0.6734 -0.0170 -0.0090
 3010TIP3    H1 9036   4.197   5.005   1.216  0.7584  0.2296  0.5955
 3010TIP3    H2 9037   4.318   5.088   1.252 -0.4799  2.1442  0.5175
 3011TIP3   OH2 9038   5.199   5.637   2.431  0.5583 -0.1704 -0.8054
 3011TIP3    H1 9039   5.257   5.701   2.473 -2.0259  1.4236  0.5615
 3011TIP3    H2 9040   5.249   5.555   2.434  3.0344  1.2523 -0.4399
 3012TIP3   OH2 9041   4.373   2.917   0.133  0.0702 -0.3366  0.2239
 3012TIP3    H1 9042   4.389   2.857   0.206  0.1460 -0.3018  0.2358
 3012TIP3    H2 9043   4.367   3.003   0.175 -0.3503 -0.3738  0.2453
 3013TIP3   OH2 9044   5.169   3.126   1.653 -0.0936  0.6214 -0.0250
 3013TIP3    H1 9045   5.193   3.177   1.730  0.9949 -1.7042  1.2811
 3013TIP3    H2 9046   5.074   3.115   1.660  0.1955 -1.2039  2.1713
 3014TIP3   OH2 9047   0.505   0.214   4.911  0.5206  0.4619 -0.0721
 3014TIP3    H1 9048   0.490   0.128   4.950  0.3279  0.2523 -0.5956
 3014TIP3    H2 9049   0.549   0.265   4.979 -0.5571  0.3710  0.7193
 3015TIP3   OH2 9050   5.989   3.161   3.190  0.2418  0.0367  0.1619
 3015TIP3    H1 9051   5.901   3.162   3.228  1.0144  1.0773  2.0117
 3015TIP3    H2 9052   5.989   3.235   3.128 -0.2932 -0.2191 -0.1527
 3016TIP3   OH2 9053   1.563   4.565   4.518 -0.4612  0.0568 -0.4126
 3016TIP3    H1 9054   1.614   4.636   4.479  0.9810 -0.5847  0.2548
 3016TIP3    H2 9055   1.492   4.549   4.455 -0.3866  1.5729 -0.9200
 3017TIP3   OH2 9056   5.376   4.522   0.973  0.5095  0.3864 -0.7936
 3017TIP3    H1 9057   5.294   4.573   0.974 -0.0866 -0.4421 -2.5451
 3017TIP3    H2 9058   5.418   4.543   1.056 -1.9208  0.1390  0.6250
 3018TIP3   OH2 9059   5.854   0.062   2.976 -0.4367 -0.2072 -0.1416
 3018TIP3    H1 9060   5.824   0.153   2.986 -0.1033 -0.1802  0.7283
 3018TIP3    H2 9061   5.824   0.019   3.056  0.7630 -0.4776  0.1792
 3019TIP3   OH2 9062   3.067   0.337   0.353  0.2446  0.6260 -1.1266
 3019TIP3    H1 9063   3.035   0.380   0.433  2.0136 -0.3526  0.1802
 3019TIP3    H2 9064   3.133   0.397   0.318  1.8638 -0.3917  0.0464
 3020TIP3   OH2 9065   2.235   4.025   3.051 -0.1677  0.2962  0.4776
 3020TIP3    H1 9066   2.192   3.997   2.970 -2.5571  2.1664  0.9925
 3020TIP3    H2 9067   2.284   3.947   3.080 -2.3007 -1.6312 -0.7818
 3021TIP3   OH2 9068   0.616   2.314   1.299 -0.0056  0.0269  0.1637
 3021TIP3    H1 9069   0.537   2.358   1.269 -1.0722 -1.1298  1.1610
 3021TIP3    H2 9070   0.593   2.280   1.386  1.4624 -0.6545  0.3147
 3022TIP3   OH2 9071   1.704   3.728   2.199 -0.0062  0.4930  0.7952
 3022TIP3    H1 9072   1.718   3.648   2.250  2.2308  0.9721  1.0435
 3022TIP3    H2 9073   1.702   3.698   2.108  1.1889  0.1385  0.8555
 3023TIP3   OH2 9074   0.895   3.221   0.249  0.0376 -0.0371 -0.4062
 3023TIP3    H1 9075   0.964   3.172   0.204 -1.0588 -0.4809 -1.6822
 3023TIP3    H2 9076   0.942   3.277   0.311  1.4070 -1.9569  0.4112
 3024TIP3   OH2 9077   1.947   4.790   1.201 -0.1925 -0.1383  0.0655
 3024TIP3    H1 9078   1.984   4.869   1.239 -2.1206  1.2048 -0.6993
 3024TIP3    H2 9079   1.870   4.770   1.254 -1.4823  0.3269 -1.5352
 3025TIP3   OH2 9080   4.732   1.822   4.208 -0.1347 -0.5944 -0.3293
 3025TIP3    H1 9081   4.693   1.816   4.296  3.5229  1.6743  1.6924
 3025TIP3    H2 9082   4.696   1.902   4.171  0.1173 -0.2705  0.1233
 3026TIP3   OH2 9083   2.207   5.671   0.087 -0.2175  0.2410  0.2331
 3026TIP3    H1 9084   2.218   5.576   0.091  1.5746  0.4470  1.4637
 3026TIP3    H2 9085   2.254   5.697   0.008 -1.2375  0.0599 -0.4439
 3027TIP3   OH2 9086   3.630   0.565   4.150  0.4506 -0.2504 -0.4069
 3027TIP3    H1 9087   3.604   0.654   4.124  1.4528  1.0816  2.7252
 3027TIP3    H2 9088   3.562   0.509   4.113 -1.3232  2.0166 -0.8071
 3028TIP3   OH2 9089   1.322   4.219   3.546 -0.0335  0.1557  0.3443
 3028TIP3    H1 9090   1.412   4.229   3.517 -0.3381 -0.5516 -0.9475
 3028TIP3    H2 9091   1.270   4.254   3.473 -0.8112  0.5099  1.0488
 3029TIP3   OH2 9092   2.569   3.803   4.963  0.1122 -0.6781  0.1453
 3029TIP3    H1 9093   2.529   3.758   5.038 -0.3782  0.9893  0.9211
 3029TIP3    H2 9094   2.601   3.732   4.907 -0.7604 -1.9886  1.2465
 3030TIP3   OH2 9095   4.893   2.297   1.786  0.4325  0.4281  0.5277
 3030TIP3    H1 9096   4.938   2.295   1.702  0.5257 -0.4442  0.5926
 3030TIP3    H2 9097   4.938   2.232   1.840 -1.2801 -0.9528  0.3855
 3031TIP3   OH2 9098   4.826   0.302   0.610 -0.1631  0.4971 -0.1139
 3031TIP3    H1 9099   4.794   0.321   0.698  0.6151  0.8412  0.0984
 3031TIP3    H2 9100   4.903   0.358   0.599  1.4132 -1.5200  0.0332
 3032TIP3   OH2 9101   0.747   0.441   4.392  0.3311 -0.4017  0.0915
 3032TIP3    H1 9102   0.670   0.464   4.444  0.4825 -2.8990  1.5976
 3032TIP3    H2 9103   0.803   0.392   4.452  1.6386 -1.3758 -1.8190
 3033TIP3   OH2 9104   3.549   2.547   2.279 -0.1022 -0.9642  0.0348
 3033TIP3    H1 9105   3.510   2.624   2.238  1.3708 -0.2787 -0.1273
 3033TIP3    H2 9106   3.587   2.580   2.360  0.9434 -1.4223 -0.2581
 3034TIP3   OH2 9107   5.518   0.284   1.607  0.0087  0.1724 -0.1776
 3034TIP3    H1 9108   5.505   0.332   1.526 -0.2946  5.2833  2.5186
 3034TIP3    H2 9109   5.610   0.259   1.607 -0.1066 -0.4046 -2.1973
 3035TIP3   OH2 9110   1.336   3.802   1.758 -0.5298  0.2013 -0.2290
 3035TIP3    H1 9111   1.292   3.716   1.761 -1.2023  0.5570  0.8988
 3035TIP3    H2 9112   1.424   3.783   1.726 -0.6169 -0.9434  0.1596
 3036TIP3   OH2 9113   1.246   3.595   1.101 -0.6521  0.4501  0.7577
 3036TIP3    H1 9114   1.206   3.510   1.082  2.4669 -0.7823 -0.9888
 3036TIP3    H2 9115   1.217   3.651   1.029 -0.5129  0.0313  0.3679
 3037TIP3   OH2 9116   3.055   3.767   0.222  0.0730 -0.0496  0.0359
 3037TIP3    H1 9117   3.011   3.781   0.306  2.0779  1.8910  0.8751
 3037TIP3    H2 9118   3.069   3.856   0.188  0.2753 -0.7599 -1.8300
 3038TIP3   OH2 9119   3.048   0.335   0.873 -0.5527 -0.2449 -0.1364
 3038TIP3    H1 9120   3.060   0.418   0.920 -0.4521 -0.3633  0.0495
 3038TIP3    H2 9121   2.981   0.289   0.925 -0.3483 -0.4302 -0.0373
 3039TIP3   OH2 9122   1.244   3.349   4.509  0.0450 -0.1792 -0.4649
 3039TIP3    H1 9123   1.187   3.420   4.481 -1.2170 -1.5320 -1.4827
 3039TIP3    H2 9124   1.189   3.294   4.566  1.4518  0.4464  1.6338
 3040TIP3   OH2 9125   6.240   1.927   2.556 -0.1261 -0.3603 -0.3652
 3040TIP3    H1 9126   6.160   1.919   2.608 -0.2094 -0.4775 -0.5122
 3040TIP3    H2 9127   6.272   2.016   2.576 -1.3854  0.4763 -1.8430
 3041TIP3   OH2 9128   2.758   1.771   2.886  0.3237  0.0907 -0.2436
 3041TIP3    H1 9129   2.816   1.781   2.810  0.4454 -0.8179 -0.2792
 3041TIP3    H2 9130   2.785   1.688   2.926 -1.0684 -0.4505 -0.3655
 3042TIP3   OH2 9131   3.248   2.834   1.915 -0.1630 -0.2759  0.1464
 3042TIP3    H1 9132   3.299   2.862   1.839  0.3711  2.7116  1.4580
 3042TIP3    H2 9133   3.157   2.836   1.884 -0.0351  1.8255 -0.2200
 3043TIP3   OH2 9134   3.455   5.632   4.825 -0.7957 -0.0546 -0.1225
 3043TIP3    H1 9135   3.443   5.613   4.733  2.2895 -2.3293 -0.2199
 3043TIP3    H2 9136   3.374   5.602   4.867 -1.8270  0.0535 -1.9530
 3044TIP3   OH2 9137   5.272   0.948   2.596  0.2878 -0.3126 -0.3380
 3044TIP3    H1 9138   5.246   0.967   2.686  0.3851 -3.4292  0.4887
 3044TIP3    H2 9139   5.229   1.015   2.543 -4.7624 -1.6370  1.4979
 3045TIP3   OH2 9140   4.344   0.821   5.168 -0.5170  0.0486  0.3547
 3045TIP3    H1 9141   4.332   0.855   5.079 -1.5509  2.4863  1.3237
 3045TIP3    H2 9142   4.260   0.781   5.189  0.0520 -1.4451 -0.0599
 3046TIP3   OH2 9143   2.572   5.548   3.813  0.3547  1.0884  0.9589
 3046TIP3    H1 9144   2.605   5.591   3.892  2.7156  0.1061  0.6142
 3046TIP3    H2 9145   2.550   5.459   3.842  0.5586  0.9404  0.6678
 3047TIP3   OH2 9146   5.609   1.375   2.371 -0.1775  0.0597 -0.7204
 3047TIP3    H1 9147   5.611   1.294   2.422 -2.4171 -0.8552 -1.9559
 3047TIP3    H2 9148   5.528   1.419   2.398  0.2628  1.1605 -1.1309
 3048TIP3   OH2 9149   1.016   1.284   4.966  0.0105  0.8016 -0.0093
 3048TIP3    H1 9150   0.963   1.206   4.951  0.4028  0.2663  1.2475
 3048TIP3    H2 9151   0.986   1.317   5.051  1.2427  0.8485  0.4189
 3049TIP3   OH2 9152   4.729   2.000   2.932 -0.3835 -0.1036  0.1207
 3049TIP3    H1 9153   4.762   2.089   2.943  0.2493 -0.3627  0.3552
 3049TIP3    H2 9154   4.800   1.944   2.963  0.3212 -0.7937 -2.5161
 3050TIP3   OH2 9155   2.556   1.483   0.041  0.4224 -0.0726  0.5506
 3050TIP3    H1 9156   2.631   1.425   0.052  1.2934  0.5152 -1.7684
 3050TIP3    H2 9157   2.593   1.565   0.009 -1.2469 -0.0041 -1.3672
 3051TIP3   OH2 9158   5.779   3.865   3.841  0.3246  0.2664  0.4210
 3051TIP3    H1 9159   5.851   3.828   3.790  0.4482  1.0320  0.0203
 3051TIP3    H2 9160   5.817   3.882   3.927  0.0237 -1.3468  0.9099
 3052TIP3   OH2 9161   5.703   4.401   0.910 -0.5693  0.0234  0.6111
 3052TIP3    H1 9162   5.748   4.449   0.980  1.2223  0.6063 -0.8578
 3052TIP3    H2 9163   5.739   4.312   0.916 -0.0674  0.1904  0.1728
 3053TIP3   OH2 9164   0.318   2.058   4.153 -0.1000  0.6023 -0.0123
 3053TIP3    H1 9165   0.283   2.129   4.099  0.6574  0.3771 -0.8094
 3053TIP3    H2 9166   0.382   2.101   4.210  0.8054  0.4924 -0.9095
 3054TIP3   OH2 9167   2.238   2.880   4.819 -0.8759  0.1469 -0.2907
 3054TIP3    H1 9168   2.320   2.894   4.866  0.3397 -0.4479 -2.1758
 3054TIP3    H2 9169   2.203   2.969   4.806  0.3742  0.5446 -1.0312
 3055TIP3   OH2 9170   1.640   2.465   3.533  0.0014  0.3683 -0.0626
 3055TIP3    H1 9171   1.563   2.498   3.579 -0.0209 -0.3068  0.3939
 3055TIP3    H2 9172   1.604   2.404   3.468 -0.0236  1.7934 -1.4525
 3056TIP3   OH2 9173   5.198   1.605   3.199  0.4659  0.0347  0.5602
 3056TIP3    H1 9174   5.141   1.543   3.243  0.0896  0.1676  0.2620
 3056TIP3    H2 9175   5.220   1.670   3.266 -0.1593  0.2744  0.5387
 3057TIP3   OH2 9176   3.193   3.489   3.184 -0.1470  0.1301  0.1543
 3057TIP3    H1 9177   3.138   3.490   3.106  0.4408  1.4055 -0.2513
 3057TIP3    H2 9178   3.132   3.509   3.256 -0.3045  1.0901 -0.2375
 3058TIP3   OH2 9179   5.367   0.310   0.335  0.2326  0.5332  0.2451
 3058TIP3    H1 9180   5.282   0.271   0.315  0.5017 -0.0041  0.1202
 3058TIP3    H2 9181   5.365   0.325   0.430  0.1224  0.2153  0.2952
 3059TIP3   OH2 9182   4.976   3.554   1.696  0.0897 -0.1422  0.2226
 3059TIP3    H1 9183   4.938   3.595   1.619  1.3281 -0.3041 -0.4962
 3059TIP3    H2 9184   5.067   3.534   1.671  0.2791 -0.9305  1.4397
 3060TIP3   OH2 9185   2.321   4.288   3.515  0.6202  0.2845 -0.2301
 3060TIP3    H1 9186   2.362   4.295   3.428  0.1994 -0.7463 -0.5321
 3060TIP3    H2 9187   2.258   4.360   3.517  2.0625  1.5763  0.0423
 3061TIP3   OH2 9188   2.023   1.571   3.682 -0.0366  0.0501 -0.1351
 3061TIP3    H1 9189   2.041   1.650   3.632  0.7305 -1.4252 -2.3392
 3061TIP3    H2 9190   2.085   1.574   3.755 -0.3314  1.6618  0.0852
 3062TIP3   OH2 9191   4.675   5.715   0.589  0.1244  0.3942  0.2990
 3062TIP3    H1 9192   4.611   5.651   0.619  0.0171  0.7768  0.9122
 3062TIP3    H2 9193   4.647   5.738   0.501 -0.3724  0.2894  0.4252
 3063TIP3   OH2 9194   2.209   0.958   0.988 -0.7465  0.2340  0.8676
 3063TIP3    H1 9195   2.146   0.888   0.974  1.3880 -1.3297 -1.8798
 3063TIP3    H2 9196   2.196   1.017   0.913  1.0931 -0.2513  0.1024
 3064TIP3   OH2 9197   5.766   1.132   0.744  0.1447 -0.8746  0.3019
 3064TIP3    H1 9198   5.853   1.096   0.759  0.0127 -1.4044 -0.1724
 3064TIP3    H2 9199   5.782   1.222   0.714  0.5705 -1.2383 -0.6073
 3065TIP3   OH2 9200   5.308   1.978   2.324  0.1122 -0.4596  0.2133
 3065TIP3    H1 9201   5.337   1.887   2.319 -1.3078 -1.0124  1.2029
 3065TIP3    H2 9202   5.322   2.002   2.416  3.6843  1.5312 -0.6718
 3066TIP3   OH2 9203   1.967   2.960   3.027  0.4561 -0.0238  0.4116
 3066TIP3    H1 9204   1.952   2.889   2.964 -0.4421  0.3665  0.1692
 3066TIP3    H2 9205   2.062   2.973   3.026  0.5211 -0.4789 -0.3557
 3067TIP3   OH2 9206   2.135   3.320   4.143  0.2859 -0.0790  0.9609
 3067TIP3    H1 9207   2.059   3.281   4.186 -0.4969  1.2770  0.8641
 3067TIP3    H2 9208   2.135   3.411   4.172  1.1010  0.2684 -0.0749
 3068TIP3   OH2 9209   2.529   5.400   3.304 -0.3473  0.0584  0.0095
 3068TIP3    H1 9210   2.549   5.478   3.356 -0.9031  0.4309 -0.3171
 3068TIP3    H2 9211   2.457   5.427   3.247 -2.1734 -1.3629  1.5256
 3069TIP3   OH2 9212   2.222   1.324   0.207 -0.4621 -0.1177  0.4156
 3069TIP3    H1 9213   2.242   1.399   0.151 -1.0007 -0.6363 -0.4855
 3069TIP3    H2 9214   2.288   1.328   0.277  0.9907 -0.1345 -0.8925
 3070TIP3   OH2 9215   0.661   5.629   1.804 -0.1423 -0.0686  0.4457
 3070TIP3    H1 9216   0.611   5.695   1.853  0.4325 -0.6190  1.8224
 3070TIP3    H2 9217   0.608   5.550   1.809 -0.8934  0.2605 -1.3210
 3071TIP3   OH2 9218   5.327   1.425   2.970  0.7778 -0.1335 -0.0060
 3071TIP3    H1 9219   5.269   1.469   3.032  1.1947 -0.2080  0.4525
 3071TIP3    H2 9220   5.280   1.346   2.944  1.3330 -1.0683  1.6524
 3072TIP3   OH2 9221   3.057   4.078   3.276 -0.0368 -0.1400 -0.2615
 3072TIP3    H1 9222   2.973   4.035   3.292  0.6326 -0.9980  1.1310
 3072TIP3    H2 9223   3.122   4.020   3.317  1.3090  0.1980 -1.8059
 3073TIP3   OH2 9224   5.724   4.026   3.609 -0.3901  0.3508 -0.3615
 3073TIP3    H1 9225   5.704   3.985   3.693 -0.6209 -0.8557 -0.9947
 3073TIP3    H2 9226   5.642   4.023   3.560 -0.0924  0.4541 -0.8749
 3074TIP3   OH2 9227   0.713   5.374   4.752  0.2523 -1.0387  0.2196
 3074TIP3    H1 9228   0.801   5.387   4.787  1.1155 -2.1662 -1.4447
 3074TIP3    H2 9229   0.718   5.404   4.662 -1.7012  0.9547  0.6823
 3075TIP3   OH2 9230   1.238   1.896   3.931  0.2848 -0.4065 -0.2214
 3075TIP3    H1 9231   1.166   1.905   3.993 -0.6498 -1.4996 -1.0959
 3075TIP3    H2 9232   1.313   1.934   3.976 -0.6472  0.0180  1.0471
 3076TIP3   OH2 9233   1.311   0.195   0.683 -0.0577 -0.1058  0.1951
 3076TIP3    H1 9234   1.391   0.240   0.707  0.3758 -1.5705  1.7267
 3076TIP3    H2 9235   1.266   0.180   0.766  0.8807 -4.3101  0.1648
 3077TIP3   OH2 9236   1.465   0.975   3.945 -0.3129 -0.1238 -0.1565
 3077TIP3    H1 9237   1.402   1.029   3.897 -1.2225 -1.0271  0.0022
 3077TIP3    H2 9238   1.416   0.897   3.971  0.5860 -0.3721  0.8846
 3078TIP3   OH2 9239   4.735   0.089   2.897 -0.1319 -0.4207  0.1135
 3078TIP3    H1 9240   4.771   0.124   2.815 -0.2568 -0.2761  0.1214
 3078TIP3    H2 9241   4.791   0.014   2.917 -1.2856 -1.6756 -1.1428
 3079TIP3   OH2 9242   5.805   4.252   2.691  0.7464 -0.9029 -0.6190
 3079TIP3    H1 9243   5.781   4.344   2.699  1.3498 -0.8980  2.6046
 3079TIP3    H2 9244   5.805   4.235   2.597 -0.6405  2.0152 -1.2615
 3080TIP3   OH2 9245   4.341   4.510   2.659  0.0324  0.1900 -0.3474
 3080TIP3    H1 9246   4.399   4.434   2.657  2.3404  1.8226 -0.4154
 3080TIP3    H2 9247   4.322   4.524   2.752 -1.4576 -1.1535 -0.4159
 3081TIP3   OH2 9248   3.342   3.212   0.437 -0.4916  0.7288 -0.4593
 3081TIP3    H1 9249   3.414   3.206   0.500 -1.0354  0.5285  0.1572
 3081TIP3    H2 9250   3.348   3.132   0.386 -0.7867  0.3062  0.1560
 3082TIP3   OH2 9251   0.700   2.383   1.773 -0.1259 -0.1391 -0.1881
 3082TIP3    H1 9252   0.794   2.399   1.779 -0.4343  1.8978 -0.0276
 3082TIP3    H2 9253   0.666   2.457   1.722 -1.8327  0.0016  1.0605
 3083TIP3   OH2 9254   3.670   3.826   0.499 -0.5215  0.0847  0.1994
 3083TIP3    H1 9255   3.728   3.778   0.558 -1.7337 -0.2314  1.1918
 3083TIP3    H2 9256   3.728   3.879   0.445  0.7513 -1.2275  0.2359
 3084TIP3   OH2 9257   2.664   4.299   2.529 -0.3316 -0.1644  0.3401
 3084TIP3    H1 9258   2.594   4.268   2.472  0.0088  0.3778 -0.3834
 3084TIP3    H2 9259   2.716   4.221   2.547  2.5166  0.3252 -4.2249
 3085TIP3   OH2 9260   2.235   2.983   3.013  0.8938 -0.0349 -0.1864
 3085TIP3    H1 9261   2.271   2.978   2.925  1.5944 -0.5396  0.1224
 3085TIP3    H2 9262   2.301   2.942   3.069 -1.0926 -3.1581  0.1240
 3086TIP3   OH2 9263   2.299   0.539   4.566  0.3866 -0.1824 -0.7203
 3086TIP3    H1 9264   2.212   0.571   4.589  0.9684  1.1469 -0.2887
 3086TIP3    H2 9265   2.344   0.615   4.530  1.2611 -0.9462 -1.3054
 3087TIP3   OH2 9266   4.420   5.639   5.186 -0.0249 -0.0710 -0.0111
 3087TIP3    H1 9267   4.475   5.664   5.112  0.7283 -1.2583  0.1293
 3087TIP3    H2 9268   4.332   5.633   5.149  0.3030 -0.4248 -0.7589
 3088TIP3   OH2 9269   5.051   2.347   4.426 -0.4872 -0.4478 -0.1713
 3088TIP3    H1 9270   4.987   2.396   4.376 -1.0077 -1.2511 -0.3184
 3088TIP3    H2 9271   5.010   2.334   4.512 -0.5510 -0.9959 -0.2784
 3089TIP3   OH2 9272   4.326   1.144   1.804  0.0607  0.0960  0.0018
 3089TIP3    H1 9273   4.296   1.215   1.747  0.1000  0.5975  0.5850
 3089TIP3    H2 9274   4.257   1.078   1.799 -1.0960  1.1585  1.1835
 3090TIP3   OH2 9275   3.835   3.533   1.773 -0.8263 -1.4139  0.1906
 3090TIP3    H1 9276   3.787   3.463   1.816 -1.4386 -1.8604 -1.1569
 3090TIP3    H2 9277   3.766   3.588   1.735 -0.3133 -1.8480 -1.4398
 3091TIP3   OH2 9278   4.850   4.456   4.008  0.2887 -0.4477 -0.5262
 3091TIP3    H1 9279   4.832   4.487   4.097 -1.1895 -0.5572 -0.7659
 3091TIP3    H2 9280   4.933   4.409   4.015  0.7893  0.5517  0.5505
 3092TIP3   OH2 9281   4.007   2.278   1.678  0.1582  0.1462 -0.4812
 3092TIP3    H1 9282   4.049   2.253   1.596  0.2258 -1.3512 -0.0146
 3092TIP3    H2 9283   3.959   2.200   1.706  0.9238  0.2828  1.3811
 3093TIP3   OH2 9284   5.533   0.915   4.231  0.1370 -0.0243  0.2830
 3093TIP3    H1 9285   5.597   0.924   4.160 -0.8379 -0.1202 -0.6195
 3093TIP3    H2 9286   5.449   0.906   4.187 -0.8009  2.1269  1.4662
 3094TIP3   OH2 9287   1.789   1.813   0.540  0.2672  0.2862 -0.3648
 3094TIP3    H1 9288   1.881   1.801   0.565  0.2935  1.6491  0.2895
 3094TIP3    H2 9289   1.751   1.864   0.612 -0.4860  1.5356 -1.6101
 3095TIP3   OH2 9290   5.230   5.424   3.574 -0.5075 -0.0715 -0.1144
 3095TIP3    H1 9291   5.229   5.471   3.491  1.6192 -0.2214 -0.2825
 3095TIP3    H2 9292   5.241   5.332   3.548 -3.8125 -0.6726  0.2370
 3096TIP3   OH2 9293   1.187   1.271   0.691 -0.4086 -0.1711  0.5567
 3096TIP3    H1 9294   1.233   1.188   0.680 -0.5227 -0.1888  0.1953
 3096TIP3    H2 9295   1.256   1.335   0.705 -0.3121 -0.3095  0.7065
 3097TIP3   OH2 9296   4.534   2.652   3.934 -0.2888  0.3137  0.2236
 3097TIP3    H1 9297   4.628   2.645   3.953 -0.2425 -0.4290 -0.2003
 3097TIP3    H2 9298   4.491   2.636   4.017 -0.0571 -0.9243  0.1307
 3098TIP3   OH2 9299   1.602   5.324   4.703  0.3165  0.0838 -0.4019
 3098TIP3    H1 9300   1.595   5.320   4.798  0.1636  1.2874 -0.3424
 3098TIP3    H2 9301   1.661   5.253   4.680  0.9016  0.2106  0.6597
 3099TIP3   OH2 9302   4.895   4.696   1.254 -0.1747 -0.1969  0.1850
 3099TIP3    H1 9303   4.885   4.789   1.235  1.5962 -0.1065 -0.4895
 3099TIP3    H2 9304   4.963   4.691   1.321  1.5219 -1.0748 -1.5053
 3100TIP3   OH2 9305   0.411   3.210   4.613 -0.5994 -0.2969  0.0540
 3100TIP3    H1 9306   0.343   3.210   4.680 -0.6151 -0.6928  0.0385
 3100TIP3    H2 9307   0.465   3.133   4.633  0.6636  0.7600  0.8991
 3101TIP3   OH2 9308   4.342   1.801   2.660 -0.3629  0.1847  0.1565
 3101TIP3    H1 9309   4.279   1.784   2.730 -0.4476  0.2619  0.0995
 3101TIP3    H2 9310   4.389   1.880   2.689 -0.1401 -0.0015  0.3034
 3102TIP3   OH2 9311   4.469   3.170   4.706 -0.4197  0.2438 -0.3936
 3102TIP3    H1 9312   4.449   3.076   4.711 -1.6619  0.5644  1.6353
 3102TIP3    H2 9313   4.545   3.181   4.764 -1.3667  0.7395  0.7794
 3103TIP3   OH2 9314   0.276   2.442   1.799  0.0268  0.1087  0.3392
 3103TIP3    H1 9315   0.208   2.504   1.771  0.7554  0.7489 -0.0549
 3103TIP3    H2 9316   0.338   2.496   1.849  1.2469 -0.0553 -0.9274
 3104TIP3   OH2 9317   3.447   5.285   0.005 -0.3738  0.2545  0.4881
 3104TIP3    H1 9318   3.514   5.349   0.028 -0.5088  0.9185 -0.8700
 3104TIP3    H2 9319   3.410   5.258   0.089  0.1925  1.4057  1.1374
 3105TIP3   OH2 9320   5.454   2.028   4.430  0.9269 -0.6146  0.2504
 3105TIP3    H1 9321   5.508   1.958   4.468 -0.2997 -1.2784  0.8704
 3105TIP3    H2 9322   5.372   1.984   4.408  0.5067  0.4375 -0.3311
 3106TIP3   OH2 9323   6.245   5.385   0.294  0.6283 -0.1605 -0.5503
 3106TIP3    H1 9324   6.180   5.404   0.361  0.4504  1.3333 -1.1024
 3106TIP3    H2 9325   6.230   5.293   0.271 -0.6029 -0.1290  0.0583
 3107TIP3   OH2 9326   1.278   4.637   2.187  0.4187 -0.4957 -0.4397
 3107TIP3    H1 9327   1.212   4.618   2.121 -0.9294  3.1442 -0.3779
 3107TIP3    H2 9328   1.241   4.709   2.239  2.7003 -1.1085  2.3581
 3108TIP3   OH2 9329   2.466   3.990   3.839 -0.0853 -0.0718 -0.4226
 3108TIP3    H1 9330   2.476   4.080   3.807 -1.2880  0.2543  0.0600
 3108TIP3    H2 9331   2.524   3.938   3.784 -0.2641  0.8336 -1.4995
 3109TIP3   OH2 9332   2.549   2.314   0.515 -0.2185 -0.0786 -0.2620
 3109TIP3    H1 9333   2.609   2.384   0.490  0.3509 -0.2668  0.5203
 3109TIP3    H2 9334   2.550   2.315   0.611 -1.1720 -0.3412 -0.2434
 3110TIP3   OH2 9335   3.074   2.857   0.505  0.3910  0.1795 -0.1375
 3110TIP3    H1 9336   3.029   2.914   0.443  0.2984 -0.4578 -0.6600
 3110TIP3    H2 9337   3.156   2.904   0.526  0.6587  0.1677 -1.1229
 3111TIP3   OH2 9338   3.419   4.776   2.352  0.1410 -0.4028 -0.7574
 3111TIP3    H1 9339   3.337   4.790   2.399  0.5844 -0.9093  0.1929
 3111TIP3    H2 9340   3.450   4.691   2.382  1.0595 -0.1827 -1.0354
 3112TIP3   OH2 9341   4.374   2.172   4.591 -0.8210 -0.0582  0.1786
 3112TIP3    H1 9342   4.371   2.100   4.528  0.0184  0.4830 -0.5135
 3112TIP3    H2 9343   4.435   2.141   4.659  1.4074  0.8635 -1.3038
 3113TIP3   OH2 9344   5.791   0.621   3.014  0.1247 -0.1557 -0.5312
 3113TIP3    H1 9345   5.786   0.671   3.096  1.7403 -0.6808 -0.0640
 3113TIP3    H2 9346   5.725   0.660   2.957  0.5915  1.7731  0.1895
 3114TIP3   OH2 9347   1.973   2.888   4.968 -0.2565  0.5811 -0.1912
 3114TIP3    H1 9348   2.036   2.868   4.898 -0.3049 -0.3361  0.0198
 3114TIP3    H2 9349   1.959   2.805   5.013  0.3109  1.2920  1.3789
 3115TIP3   OH2 9350   1.378   2.475   2.130  0.0026  0.0550  0.2704
 3115TIP3    H1 9351   1.419   2.534   2.193  0.5222  1.0745 -0.9610
 3115TIP3    H2 9352   1.400   2.387   2.161  2.5122  0.5472  0.1033
 3116TIP3   OH2 9353   2.550   5.294   3.929 -0.3799  0.0925 -0.5145
 3116TIP3    H1 9354   2.526   5.207   3.897 -0.8598 -0.3258  0.8959
 3116TIP3    H2 9355   2.645   5.290   3.941 -0.3228 -0.0413 -0.9849
 3117TIP3   OH2 9356   3.521   3.138   0.604 -1.3257  0.6099  0.2450
 3117TIP3    H1 9357   3.466   3.153   0.681 -0.3195  0.0241  1.1029
 3117TIP3    H2 9358   3.609   3.127   0.640 -1.2587 -2.6732 -0.6712
 3118TIP3   OH2 9359   3.253   0.864   2.510 -0.5031 -0.2624 -0.4757
 3118TIP3    H1 9360   3.327   0.873   2.450 -0.2757 -1.1283 -0.3339
 3118TIP3    H2 9361   3.185   0.823   2.457 -0.5215 -0.4360 -0.3156
 3119TIP3   OH2 9362   6.230   5.293   0.679  0.6845 -0.3942  0.3117
 3119TIP3    H1 9363   6.178   5.319   0.756  0.8672  0.6302  0.1022
 3119TIP3    H2 9364   6.265   5.375   0.645  0.8003 -0.8613 -0.7369
 3120TIP3   OH2 9365   0.143   4.072   4.666  0.7604 -0.0939 -0.1190
 3120TIP3    H1 9366   0.062   4.045   4.709  0.4358 -0.4034 -0.9114
 3120TIP3    H2 9367   0.203   4.091   4.738 -0.3863  1.3271  0.4984
 3121TIP3   OH2 9368   1.047   4.337   2.381 -0.0430 -0.4270 -0.4993
 3121TIP3    H1 9369   1.009   4.273   2.441 -0.4117  0.5083  0.3134
 3121TIP3    H2 9370   1.003   4.321   2.297 -0.5012 -0.9018 -0.1743
 3122TIP3   OH2 9371   6.335   5.340   1.166 -0.1145  0.2402 -0.2835
 3122TIP3    H1 9372   6.320   5.287   1.088 -1.1051  0.3091 -0.1545
 3122TIP3    H2 9373   6.347   5.277   1.237 -1.6778  0.1560 -0.0591
 3123TIP3   OH2 9374   2.324   5.468   4.920  0.1393 -0.2423  0.0485
 3123TIP3    H1 9375   2.261   5.530   4.958 -0.7988 -0.0612 -1.6946
 3123TIP3    H2 9376   2.374   5.437   4.995 -1.2972  0.4428  1.3678
 3124TIP3   OH2 9377   5.374   5.258   1.608  0.2607  0.5869  0.6703
 3124TIP3    H1 9378   5.290   5.303   1.598  0.6135  1.3571  1.1189
 3124TIP3    H2 9379   5.400   5.237   1.518 -0.9846 -0.7742  0.5761
 3125TIP3   OH2 9380   4.570   3.403   4.002 -0.0948 -0.5447  0.6182
 3125TIP3    H1 9381   4.510   3.332   3.980 -0.9040  0.1357  0.5682
 3125TIP3    H2 9382   4.617   3.421   3.921  0.2589 -1.1496  0.6848
 3126TIP3   OH2 9383   2.885   5.837   0.332 -0.1847 -0.7729 -0.5290
 3126TIP3    H1 9384   2.839   5.824   0.414 -0.9140 -0.5960 -0.8985
 3126TIP3    H2 9385   2.837   5.784   0.268  1.2952 -2.1606 -0.5520
 3127TIP3   OH2 9386   5.453   2.250   2.331 -0.1510  0.0377  0.2049
 3127TIP3    H1 9387   5.509   2.177   2.304  0.2283  0.3967  0.0015
 3127TIP3    H2 9388   5.400   2.215   2.402 -0.6850 -0.7247 -0.5587
 3128TIP3   OH2 9389   1.478   5.467   4.521  0.2368  0.0001 -0.3045
 3128TIP3    H1 9390   1.501   5.410   4.594 -0.3381 -0.3730 -0.4177
 3128TIP3    H2 9391   1.383   5.468   4.519  0.2307  0.9458 -0.3187
 3129TIP3   OH2 9392   2.336   0.831   3.424 -0.0124 -0.3569  0.5638
 3129TIP3    H1 9393   2.279   0.819   3.500  1.0042  1.1149  1.6171
 3129TIP3    H2 9394   2.369   0.743   3.404 -1.2677 -0.9526  1.0153
 3130TIP3   OH2 9395   2.051   3.370   2.900  0.0835  0.1405  0.4645
 3130TIP3    H1 9396   1.990   3.443   2.910  0.4923  0.2190  3.1947
 3130TIP3    H2 9397   1.997   3.300   2.863 -0.2229  1.7992 -2.5726
 3131TIP3   OH2 9398   1.169   3.114   2.486  0.3972 -0.0083 -0.0264
 3131TIP3    H1 9399   1.167   3.119   2.581  0.0584 -0.5614  0.0001
 3131TIP3    H2 9400   1.078   3.101   2.459  0.3557  1.1540 -0.4973
 3132TIP3   OH2 9401   3.763   4.655   3.933 -0.1641 -0.4431  0.0739
 3132TIP3    H1 9402   3.762   4.727   3.996 -1.8467  1.3078 -1.8364
 3132TIP3    H2 9403   3.709   4.587   3.974 -1.0671  0.5697  0.6257
 3133TIP3   OH2 9404   1.644   0.914   1.355  0.2679  0.1155  0.4698
 3133TIP3    H1 9405   1.603   0.998   1.335 -1.8248 -0.9640 -0.1097
 3133TIP3    H2 9406   1.722   0.911   1.300  0.7148  1.8987  0.9528
 3134TIP3   OH2 9407   1.920   4.164   1.110 -0.2050 -0.6740  0.1139
 3134TIP3    H1 9408   1.947   4.072   1.107  0.0426 -0.5770 -1.0298
 3134TIP3    H2 9409   1.831   4.165   1.077  0.5345 -0.2746 -2.0542
 3135TIP3   OH2 9410   5.078   5.775   4.718  0.1916  0.1092 -0.0853
 3135TIP3    H1 9411   5.151   5.728   4.678 -1.5209 -0.3201 -2.9941
 3135TIP3    H2 9412   5.024   5.707   4.759  0.0845  0.0921 -0.2528
 3136TIP3   OH2 9413   3.545   2.055   4.447 -0.1930  0.4998 -0.1277
 3136TIP3    H1 9414   3.542   2.038   4.353  0.2612  2.9301 -0.6584
 3136TIP3    H2 9415   3.630   2.021   4.475 -1.2359 -2.3217 -0.0290
 3137TIP3   OH2 9416   5.912   5.830   3.673  0.0788 -0.0406  0.3610
 3137TIP3    H1 9417   5.886   5.743   3.644  1.4123 -0.1118 -0.7253
 3137TIP3    H2 9418   5.895   5.831   3.767  1.7582 -2.1328  0.7463
 3138TIP3   OH2 9419   6.037   4.546   3.096  0.1458  0.5402  0.8386
 3138TIP3    H1 9420   6.090   4.571   3.172  0.9377 -2.8436  1.5729
 3138TIP3    H2 9421   6.076   4.592   3.022  2.4921  0.1837  1.7903
 3139TIP3   OH2 9422   1.608   5.888   1.710 -0.2239  0.9403  0.4087
 3139TIP3    H1 9423   1.657   5.841   1.778 -0.5531  2.0678  1.4728
 3139TIP3    H2 9424   1.543   5.825   1.680 -0.1513  0.4526  1.2380
 3140TIP3   OH2 9425   0.703   0.722   0.556  0.2284 -0.2081 -0.1079
 3140TIP3    H1 9426   0.744   0.769   0.483  1.4915 -1.7846 -0.4598
 3140TIP3    H2 9427   0.726   0.774   0.633  0.4805  0.4716 -0.6272
 3141TIP3   OH2 9428   1.324   3.204   2.270  0.9375  0.5600 -0.1194
 3141TIP3    H1 9429   1.350   3.296   2.277  0.8024  0.5190  1.2093
 3141TIP3    H2 9430   1.263   3.190   2.343 -0.3913 -0.1593 -1.3147
 3142TIP3   OH2 9431   2.097   2.889   2.306 -0.5633  0.1776  0.1860
 3142TIP3    H1 9432   2.051   2.966   2.272 -0.7495 -0.0416 -0.0607
 3142TIP3    H2 9433   2.081   2.821   2.241 -0.2821 -0.0314  0.3361
 3143TIP3   OH2 9434   5.674   5.394   1.678 -0.0038 -0.6443  0.2808
 3143TIP3    H1 9435   5.640   5.469   1.726  0.1230 -1.4690  1.6956
 3143TIP3    H2 9436   5.596   5.354   1.638 -0.2410 -0.5138  0.6107
 3144TIP3   OH2 9437   3.002   4.214   2.990  0.3919 -0.4046 -0.0945
 3144TIP3    H1 9438   2.933   4.151   3.011 -1.0258  0.9242 -0.5624
 3144TIP3    H2 9439   3.021   4.258   3.073 -1.9579  1.7013 -0.5662
 3145TIP3   OH2 9440   5.642   0.458   2.157 -0.2683  0.1026  0.1491
 3145TIP3    H1 9441   5.644   0.506   2.074 -0.1364 -0.7441 -0.3491
 3145TIP3    H2 9442   5.549   0.449   2.177 -0.4577 -1.9841 -1.3015
 3146TIP3   OH2 9443   1.683   1.712   0.900  0.3261  0.1044 -0.0359
 3146TIP3    H1 9444   1.757   1.771   0.888 -0.3523  1.0333  0.1860
 3146TIP3    H2 9445   1.703   1.664   0.980  1.2368 -0.5184 -0.6279
 3147TIP3   OH2 9446   5.111   2.691   1.150 -0.0439 -0.2711 -0.3710
 3147TIP3    H1 9447   5.070   2.771   1.183 -2.4259 -2.0388  1.2592
 3147TIP3    H2 9448   5.138   2.713   1.061 -2.3141  1.7799 -0.6434
 3148TIP3   OH2 9449   1.093   5.262   4.430  0.2905  0.2064  0.0292
 3148TIP3    H1 9450   1.111   5.324   4.501  3.3449  0.7763 -1.1076
 3148TIP3    H2 9451   1.083   5.317   4.352 -3.2560 -0.3873 -0.1390
 3149TIP3   OH2 9452   2.036   1.497   2.366  0.4781 -0.2596 -0.0652
 3149TIP3    H1 9453   1.989   1.439   2.306 -0.5125  0.4375  0.0213
 3149TIP3    H2 9454   1.983   1.576   2.370  1.4325  0.3739  0.3990
 3150TIP3   OH2 9455   3.100   0.355   1.226 -0.2091 -0.4223  0.3012
 3150TIP3    H1 9456   3.161   0.392   1.289  2.3046  1.9009 -3.1265
 3150TIP3    H2 9457   3.130   0.264   1.214 -0.7008 -0.8881  2.2348
 3151TIP3   OH2 9458   0.894   3.401   3.216 -0.8686  0.3955 -0.4025
 3151TIP3    H1 9459   0.828   3.354   3.267  0.1308  0.3999  0.9438
 3151TIP3    H2 9460   0.901   3.352   3.134 -2.7310  0.5697 -0.7017
 3152TIP3   OH2 9461   0.592   0.958   3.838 -0.6617 -0.0306  0.0469
 3152TIP3    H1 9462   0.514   0.938   3.786 -0.5310 -1.2072  0.2647
 3152TIP3    H2 9463   0.572   0.922   3.925  0.0870 -0.2632  0.1248
 3153TIP3   OH2 9464   0.594   3.685   0.581 -0.1184  0.4483  0.0374
 3153TIP3    H1 9465   0.590   3.780   0.592 -0.1239  0.2399  2.1337
 3153TIP3    H2 9466   0.516   3.652   0.625 -0.2581 -0.5286 -0.9072
 3154TIP3   OH2 9467   4.487   3.749   4.539  0.3211  0.1652  0.0005
 3154TIP3    H1 9468   4.554   3.790   4.594 -1.3066  0.7148  1.7107
 3154TIP3    H2 9469   4.535   3.691   4.481  2.2102 -0.3129  1.9091
 3155TIP3   OH2 9470   5.801   5.542   3.718 -0.1623 -0.0340  0.2080
 3155TIP3    H1 9471   5.786   5.452   3.689  1.9447 -0.3177 -0.1500
 3155TIP3    H2 9472   5.890   5.542   3.753  0.6370  2.2848 -1.5138
 3156TIP3   OH2 9473   1.812   1.534   4.228  0.8117  0.2205  0.2000
 3156TIP3    H1 9474   1.825   1.443   4.256 -1.8723 -0.3103  0.0484
 3156TIP3    H2 9475   1.849   1.537   4.140  1.3799 -0.5991  0.4010
 3157TIP3   OH2 9476   3.318   4.826   3.011 -0.4615  0.3048 -0.2950
 3157TIP3    H1 9477   3.363   4.757   2.962  0.3391  1.0093 -0.5730
 3157TIP3    H2 9478   3.239   4.783   3.044 -0.5221 -0.4575 -1.3619
 3158TIP3   OH2 9479   0.217   2.019   2.265 -0.1853 -0.0296 -0.7197
 3158TIP3    H1 9480   0.209   1.944   2.322  1.5121 -0.1292 -0.5785
 3158TIP3    H2 9481   0.144   2.010   2.203 -1.2074 -0.6600  0.5417
 3159TIP3   OH2 9482   4.392   5.398   2.622  0.4829  0.6452 -0.1431
 3159TIP3    H1 9483   4.485   5.391   2.599  0.9323  1.4000  1.3250
 3159TIP3    H2 9484   4.392   5.409   2.717 -1.1347  0.4535 -0.1023
 3160TIP3   OH2 9485   3.109   1.217   3.603  0.1675 -0.3663 -0.0831
 3160TIP3    H1 9486   3.174   1.154   3.572 -0.6571 -1.0525 -0.4425
 3160TIP3    H2 9487   3.161   1.292   3.632  1.3453 -1.9757  2.3242
 3161TIP3   OH2 9488   4.836   5.843   1.615 -0.1222 -0.1407 -0.3576
 3161TIP3    H1 9489   4.806   5.816   1.528  0.2994 -0.4842 -0.3932
 3161TIP3    H2 9490   4.903   5.909   1.598  0.6156 -0.8655 -0.3145
 3162TIP3   OH2 9491   3.742   4.455   4.880 -0.1938  0.1538 -0.0220
 3162TIP3    H1 9492   3.819   4.506   4.856 -0.5590 -0.0612 -1.7677
 3162TIP3    H2 9493   3.679   4.520   4.911  0.2852  0.4529  0.3324
 3163TIP3   OH2 9494   1.552   3.671   1.650  0.4043  0.3132 -0.3849
 3163TIP3    H1 9495   1.583   3.741   1.593  2.5123 -0.6934 -0.5375
 3163TIP3    H2 9496   1.622   3.607   1.651 -0.8610 -1.1402  0.9239
 3164TIP3   OH2 9497   0.967   5.870   1.225  0.2655 -0.5934 -0.0275
 3164TIP3    H1 9498   0.958   5.890   1.132  0.3488  2.7812  0.5590
 3164TIP3    H2 9499   0.877   5.866   1.258  0.2582 -0.7643 -0.0671
 3165TIP3   OH2 9500   5.901   1.261   0.417 -0.0866  0.3566 -0.1147
 3165TIP3    H1 9501   5.909   1.182   0.362 -1.2024 -0.6461  1.1094
 3165TIP3    H2 9502   5.808   1.282   0.415  0.0570  1.0490  0.3902
 3166TIP3   OH2 9503   6.021   4.159   0.368 -0.0950  0.3475 -0.0934
 3166TIP3    H1 9504   6.025   4.146   0.273 -0.7077  0.1232 -0.0937
 3166TIP3    H2 9505   5.935   4.198   0.384 -0.9894 -1.7184  0.5818
 3167TIP3   OH2 9506   2.224   0.076   3.415  0.3511 -0.0115 -0.2970
 3167TIP3    H1 9507   2.284   0.026   3.471  0.2478 -0.5191 -0.6321
 3167TIP3    H2 9508   2.160   0.113   3.475 -0.4386 -1.5028 -0.1778
 3168TIP3   OH2 9509   2.337   0.444   2.145 -0.2345 -0.0591  0.6756
 3168TIP3    H1 9510   2.244   0.445   2.170  0.2734  2.2249  2.8159
 3168TIP3    H2 9511   2.338   0.482   2.057 -1.1433  3.1627  1.9073
 3169TIP3   OH2 9512   4.713   1.259   4.490  0.4045 -0.0264 -0.3540
 3169TIP3    H1 9513   4.770   1.198   4.538  0.2205 -0.5708 -0.8104
 3169TIP3    H2 9514   4.756   1.344   4.499  0.8366 -0.2797  0.0281
 3170TIP3   OH2 9515   4.774   4.962   4.473  0.5843  0.0336  0.4708
 3170TIP3    H1 9516   4.806   4.968   4.383 -1.6581  0.1765 -0.4014
 3170TIP3    H2 9517   4.852   4.955   4.527  2.0625  1.4630 -1.3707
 3171TIP3   OH2 9518   3.333   0.706   4.170  0.6047  0.0367  0.1146
 3171TIP3    H1 9519   3.389   0.782   4.156 -0.3900  0.7403 -0.1561
 3171TIP3    H2 9520   3.302   0.682   4.083  0.2930 -0.1950  0.2854
 3172TIP3   OH2 9521   2.759   2.047   2.641 -0.0551  0.2891  0.5305
 3172TIP3    H1 9522   2.766   2.133   2.684  0.0241  0.3158  0.4649
 3172TIP3    H2 9523   2.693   2.000   2.692  1.1826 -0.2822  1.6758
 3173TIP3   OH2 9524   2.204   0.481   1.451  0.4184 -0.0661 -0.3383
 3173TIP3    H1 9525   2.110   0.461   1.444  0.8550 -2.4034 -0.2481
 3173TIP3    H2 9526   2.242   0.402   1.489  2.4413  0.8633 -0.3369
 3174TIP3   OH2 9527   0.774   3.461   3.829  0.9538 -0.1270 -0.2198
 3174TIP3    H1 9528   0.780   3.377   3.784  0.0080 -0.5353  0.3739
 3174TIP3    H2 9529   0.848   3.512   3.796  2.5309 -1.7756  0.6253
 3175TIP3   OH2 9530   1.495   3.494   0.909  0.5796 -0.2610 -0.4280
 3175TIP3    H1 9531   1.467   3.585   0.908 -1.8428 -0.9149  0.1717
 3175TIP3    H2 9532   1.569   3.492   0.970  0.2689  1.1873  0.0346
 3176TIP3   OH2 9533   5.844   2.505   2.417 -0.2767  0.3071  0.4970
 3176TIP3    H1 9534   5.906   2.488   2.346  0.6170 -0.2705  1.3928
 3176TIP3    H2 9535   5.802   2.587   2.393  0.3486  0.3571 -0.4735
 3177TIP3   OH2 9536   5.602   3.554   3.744 -0.3183  0.6057  0.4327
 3177TIP3    H1 9537   5.572   3.639   3.713  0.9576  0.5522 -1.0524
 3177TIP3    H2 9538   5.542   3.491   3.703 -0.4587  0.7151  0.4704
 3178TIP3   OH2 9539   2.244   4.060   1.764  0.1887  0.3435 -0.1145
 3178TIP3    H1 9540   2.160   4.015   1.772  0.1685  0.2204 -0.9250
 3178TIP3    H2 9541   2.222   4.153   1.776  0.0313  0.2617  0.2531
 3179TIP3   OH2 9542   4.632   4.463   0.422  0.3242 -0.1052 -0.7516
 3179TIP3    H1 9543   4.630   4.369   0.406 -1.4531 -0.1975 -0.2439
 3179TIP3    H2 9544   4.616   4.503   0.337 -1.2914 -0.3571 -0.5917
 3180TIP3   OH2 9545   4.047   2.969   4.127 -0.3576  0.1388 -0.2619
 3180TIP3    H1 9546   4.131   2.923   4.122 -0.5512 -0.5948  2.2066
 3180TIP3    H2 9547   3.982   2.903   4.106 -0.4475  0.1132  0.0938
 3181TIP3   OH2 9548   1.659   4.413   4.259 -0.1095  0.1283  0.0525
 3181TIP3    H1 9549   1.744   4.451   4.237  0.7272 -1.9901 -0.6921
 3181TIP3    H2 9550   1.676   4.358   4.336 -1.5569  2.1123  1.9379
 3182TIP3   OH2 9551   0.066   0.845   0.781  0.6014 -0.3059  0.1837
 3182TIP3    H1 9552   0.089   0.912   0.846  2.7146 -2.0658  1.3868
 3182TIP3    H2 9553   0.110   0.766   0.812 -1.5858 -2.2401 -1.3020
 3183TIP3   OH2 9554   4.679   3.406   3.088  0.5222 -0.4020  0.1195
 3183TIP3    H1 9555   4.739   3.343   3.048  0.3020 -0.0244 -0.8548
 3183TIP3    H2 9556   4.593   3.382   3.053  0.5922  1.1309 -1.2350
 3184TIP3   OH2 9557   4.632   1.040   4.955  0.2215 -0.1588 -0.2544
 3184TIP3    H1 9558   4.553   1.067   4.907 -1.1148 -4.1703 -0.6423
 3184TIP3    H2 9559   4.658   0.957   4.916  1.3835 -1.7437  3.4011
 3185TIP3   OH2 9560   4.473   3.363   1.382  0.0447 -0.4179  0.6331
 3185TIP3    H1 9561   4.429   3.404   1.307 -1.5956  0.1950  1.8813
 3185TIP3    H2 9562   4.542   3.424   1.406 -0.3547  0.0912  0.5062
 3186TIP3   OH2 9563   2.614   4.183   3.314 -0.4302 -0.1488  0.2680
 3186TIP3    H1 9564   2.618   4.091   3.287 -1.4920 -0.3239  0.6597
 3186TIP3    H2 9565   2.527   4.212   3.287  0.0450  0.8745 -0.2265
 3187TIP3   OH2 9566   0.307   1.209   4.004  0.4069 -0.2070  0.1676
 3187TIP3    H1 9567   0.253   1.251   4.071  0.7134  2.5504 -1.1824
 3187TIP3    H2 9568   0.244   1.174   3.941  0.1743 -0.2190  0.4060
 3188TIP3   OH2 9569   0.130   1.631   1.621  0.4536 -0.0845  0.0600
 3188TIP3    H1 9570   0.154   1.655   1.531  1.7951 -0.1126  0.3875
 3188TIP3    H2 9571   0.210   1.646   1.672 -0.2131 -0.3145  1.2076
 3189TIP3   OH2 9572   5.544   2.532   5.156  0.2986  0.0210  0.3304
 3189TIP3    H1 9573   5.546   2.462   5.090  1.3869  0.5908 -0.2541
 3189TIP3    H2 9574   5.635   2.548   5.178  0.0766  1.3546  0.3711
 3190TIP3   OH2 9575   1.639   3.949   5.105  0.5885 -0.2215  0.1979
 3190TIP3    H1 9576   1.656   4.024   5.048  1.4812  0.4471  1.2910
 3190TIP3    H2 9577   1.572   3.979   5.165  1.5671  0.0417  1.1993
 3191TIP3   OH2 9578   5.138   5.033   4.298  0.6399  0.9774  0.0306
 3191TIP3    H1 9579   5.205   4.974   4.332 -1.2555 -0.4037  1.6296
 3191TIP3    H2 9580   5.103   5.077   4.375 -0.0420  1.9671 -0.8097
 3192TIP3   OH2 9581   3.943   2.747   1.786 -0.2554  0.4204  0.1763
 3192TIP3    H1 9582   3.979   2.665   1.752  0.1497  0.7009 -0.0712
 3192TIP3    H2 9583   3.850   2.727   1.801 -0.2458  0.0273 -0.2444
 3193TIP3   OH2 9584   1.386   2.669   0.679 -0.1702  0.2934  0.2423
 3193TIP3    H1 9585   1.295   2.650   0.700 -0.3637 -0.1006 -0.9077
 3193TIP3    H2 9586   1.384   2.752   0.631 -0.0105 -0.0647 -0.3992
 3194TIP3   OH2 9587   5.632   5.334   0.119 -0.3252  0.5927 -0.1678
 3194TIP3    H1 9588   5.556   5.277   0.109 -0.0935  0.3969 -0.8630
 3194TIP3    H2 9589   5.605   5.417   0.081 -0.4548  0.7679  0.2972
 3195TIP3   OH2 9590   6.216   5.346   3.434 -0.0755  0.2982 -0.1617
 3195TIP3    H1 9591   6.197   5.424   3.486 -0.1308  1.0535 -1.2838
 3195TIP3    H2 9592   6.186   5.368   3.346 -1.6134 -1.6112 -0.1659
 3196TIP3   OH2 9593   5.267   5.035   0.911 -0.3901  0.4053 -0.8774
 3196TIP3    H1 9594   5.362   5.022   0.903 -0.3895 -0.4965  0.2921
 3196TIP3    H2 9595   5.231   4.999   0.830 -0.0278 -3.2267  0.4153
 3197TIP3   OH2 9596   0.774   1.810   3.389 -0.2859  0.3608  0.0217
 3197TIP3    H1 9597   0.798   1.723   3.358 -2.7512 -0.3637 -0.1159
 3197TIP3    H2 9598   0.746   1.797   3.479 -0.1614  1.1098  0.1763
 3198TIP3   OH2 9599   1.234   0.638   2.132  0.3347 -0.1457  0.2001
 3198TIP3    H1 9600   1.143   0.623   2.157  0.2298  1.0152  0.5704
 3198TIP3    H2 9601   1.274   0.551   2.134 -0.5405 -0.5502  0.9535
 3199TIP3   OH2 9602   4.013   0.230   0.165 -0.0728 -0.0742 -0.3392
 3199TIP3    H1 9603   3.963   0.193   0.093  0.1203  0.2746 -0.6504
 3199TIP3    H2 9604   3.952   0.229   0.239  0.0553 -1.4280 -0.2201
 3200TIP3   OH2 9605   2.967   3.994   4.830  0.0759 -0.0625 -0.2627
 3200TIP3    H1 9606   3.030   3.924   4.816  1.8053  1.8086 -2.6879
 3200TIP3    H2 9607   2.980   4.020   4.921  0.9147 -1.4497  0.0394
 3201TIP3   OH2 9608   4.688   4.546   0.700  0.0306 -0.1378 -0.1424
 3201TIP3    H1 9609   4.681   4.518   0.609 -2.1709 -0.5419  0.1020
 3201TIP3    H2 9610   4.777   4.581   0.708  0.1848  0.1145 -2.4812
 3202TIP3   OH2 9611   1.446   5.116   4.488  0.6808 -0.2815 -0.7812
 3202TIP3    H1 9612   1.401   5.032   4.490  0.4957 -0.2006  1.6923
 3202TIP3    H2 9613   1.405   5.167   4.557  2.1096  1.1353 -0.9069
 3203TIP3   OH2 9614   4.218   2.998   0.494 -0.1952 -0.0661  0.1320
 3203TIP3    H1 9615   4.194   3.074   0.440  2.3554 -0.3820 -1.6254
 3203TIP3    H2 9616   4.135   2.967   0.530 -1.6026  2.1591 -0.9498
 3204TIP3   OH2 9617   3.283   2.876   1.646  0.5651 -0.1187  0.4306
 3204TIP3    H1 9618   3.270   2.851   1.554 -0.7849 -4.5264  1.5755
 3204TIP3    H2 9619   3.378   2.883   1.655  0.6932  1.1396 -1.3930
 3205TIP3   OH2 9620   4.502   3.836   0.065 -0.3225  0.1074 -0.2638
 3205TIP3    H1 9621   4.442   3.856  -0.006 -1.1910 -0.4796  0.2810
 3205TIP3    H2 9622   4.480   3.899   0.134 -0.0097  0.1808 -0.2297
 3206TIP3   OH2 9623   1.097   4.899   3.789  0.3704 -0.9047 -0.8922
 3206TIP3    H1 9624   1.183   4.929   3.820  0.2689 -1.0951 -0.4269
 3206TIP3    H2 9625   1.109   4.805   3.773 -0.4087 -1.5168  1.6092
 3207TIP3   OH2 9626   5.882   4.336   3.194  0.7212  0.2482  0.1421
 3207TIP3    H1 9627   5.946   4.393   3.152  0.0122  0.3916 -0.7564
 3207TIP3    H2 9628   5.797   4.366   3.162  0.1379  0.4197  1.7496
 3208TIP3   OH2 9629   3.874   0.844   4.555 -0.7230  0.4540  0.0296
 3208TIP3    H1 9630   3.802   0.847   4.493 -2.2637 -0.7655  1.6460
 3208TIP3    H2 9631   3.863   0.923   4.609  0.2610  1.2043 -0.8329
 3209TIP3   OH2 9632   0.558   4.605   4.606 -0.0691 -0.4259  0.2717
 3209TIP3    H1 9633   0.537   4.512   4.597  0.1897 -0.4914  0.3544
 3209TIP3    H2 9634   0.652   4.610   4.586  0.0626 -0.2774  0.9314
 3210TIP3   OH2 9635   4.368   1.208   2.604  0.3308  0.3263 -0.0827
 3210TIP3    H1 9636   4.404   1.187   2.690 -0.3418  1.6679  0.5483
 3210TIP3    H2 9637   4.428   1.272   2.567  0.6395 -0.2727 -0.6486
 3211TIP3   OH2 9638   5.832   4.741   3.783  0.0535 -0.6844 -0.3265
 3211TIP3    H1 9639   5.759   4.704   3.832  0.0529 -1.9859 -1.2676
 3211TIP3    H2 9640   5.793   4.768   3.699  0.4882 -0.5945 -0.5031
 3212TIP3   OH2 9641   5.432   4.385   2.621  0.4135 -0.0168  0.2787
 3212TIP3    H1 9642   5.370   4.456   2.602  0.4117 -0.3503 -0.9960
 3212TIP3    H2 9643   5.381   4.321   2.671 -0.1419 -0.0593 -0.3327
 3213TIP3   OH2 9644   0.652   0.492   1.985  0.0591 -0.4061 -0.2214
 3213TIP3    H1 9645   0.715   0.444   1.932 -1.0226 -1.5731 -0.5109
 3213TIP3    H2 9646   0.646   0.442   2.066  0.2686  0.2871  0.2322
 3214TIP3   OH2 9647   4.535   3.552   0.071  0.8239 -0.4283  0.5272
 3214TIP3    H1 9648   4.559   3.644   0.064  2.2807 -0.8168  0.0629
 3214TIP3    H2 9649   4.485   3.533  -0.008  0.6834 -0.0858  0.5339
 3215TIP3   OH2 9650   5.550   5.623   2.239  0.0234 -0.1754 -0.6067
 3215TIP3    H1 9651   5.542   5.527   2.244 -0.1431 -0.1176  0.5356
 3215TIP3    H2 9652   5.589   5.639   2.153  0.5635 -1.3059 -0.6009
 3216TIP3   OH2 9653   4.902   5.829   4.320 -0.1793 -0.2623 -0.0353
 3216TIP3    H1 9654   4.950   5.894   4.372  1.7178 -1.4445 -0.2204
 3216TIP3    H2 9655   4.923   5.745   4.361 -1.6215 -0.8941 -0.5248
 3217TIP3   OH2 9656   2.330   1.920   4.767  0.2958 -0.5975 -0.6786
 3217TIP3    H1 9657   2.299   1.856   4.703 -0.4263 -1.0485  0.1154
 3217TIP3    H2 9658   2.425   1.907   4.769  0.2116 -1.3016 -0.8901
 3218TIP3   OH2 9659   3.923   5.648   4.947  0.5129  0.0182  0.1514
 3218TIP3    H1 9660   3.897   5.739   4.960 -0.0329 -0.0624 -0.3383
 3218TIP3    H2 9661   3.841   5.602   4.930  0.8007 -0.5443  0.2879
 3219TIP3   OH2 9662   3.941   5.779   0.150 -0.6466  0.2413  0.2455
 3219TIP3    H1 9663   3.957   5.725   0.073 -0.3378 -0.4289  0.7578
 3219TIP3    H2 9664   4.003   5.851   0.142  1.4208 -1.3139  1.2343
 3220TIP3   OH2 9665   1.830   0.545   3.708 -0.0227  0.0432  0.1008
 3220TIP3    H1 9666   1.757   0.579   3.760  0.4338  1.6301 -0.2334
 3220TIP3    H2 9667   1.793   0.473   3.658 -1.0916  0.1343  0.7373
 3221TIP3   OH2 9668   0.143   1.977   1.394 -0.1678 -0.3439 -0.3772
 3221TIP3    H1 9669   0.145   1.925   1.314 -0.8797  1.0806 -1.3651
 3221TIP3    H2 9670   0.050   1.983   1.416 -0.0145 -0.2925  0.2826
 3222TIP3   OH2 9671   0.662   2.671   4.128 -0.4053 -0.1036 -0.0389
 3222TIP3    H1 9672   0.653   2.690   4.034  0.1421  0.7244  0.0719
 3222TIP3    H2 9673   0.588   2.614   4.147 -0.2783 -0.6403 -1.0709
 3223TIP3   OH2 9674   5.588   0.141   0.711 -0.1079 -0.0838 -0.4102
 3223TIP3    H1 9675   5.642   0.122   0.788 -2.6493 -0.7178  1.3629
 3223TIP3    H2 9676   5.582   0.236   0.709  0.9820 -0.0047 -0.6086
 3224TIP3   OH2 9677   5.621   1.813   4.493  0.5158 -0.6606 -0.0130
 3224TIP3    H1 9678   5.640   1.725   4.460  2.6756 -0.2518 -0.0179
 3224TIP3    H2 9679   5.706   1.856   4.498 -0.3890  1.1784  0.7753
 3225TIP3   OH2 9680   3.261   1.027   3.889  0.3402 -0.7880  0.7228
 3225TIP3    H1 9681   3.262   0.961   3.958 -0.2549 -0.9254  0.6100
 3225TIP3    H2 9682   3.328   1.090   3.915  2.4790 -2.5188 -0.2546
 3226TIP3   OH2 9683   5.472   0.620   4.608  0.6615 -0.3431  0.4126
 3226TIP3    H1 9684   5.549   0.655   4.563  0.3455 -2.0644 -1.6029
 3226TIP3    H2 9685   5.398   0.665   4.566  0.4969  0.6059  1.6817
 3227TIP3   OH2 9686   0.572   5.712   1.109 -0.1220  0.2602  0.0852
 3227TIP3    H1 9687   0.493   5.751   1.072  0.0667  1.9263  1.3599
 3227TIP3    H2 9688   0.565   5.727   1.204  0.7216 -1.4468  0.4662
 3228TIP3   OH2 9689   3.056   0.254   4.534  0.4310 -0.6502 -0.2639
 3228TIP3    H1 9690   2.973   0.271   4.578 -0.5798  0.1685 -2.3139
 3228TIP3    H2 9691   3.089   0.341   4.510  1.1638 -1.0314 -0.7018
 3229TIP3   OH2 9692   2.268   2.888   2.733 -0.0773  0.2369 -0.1249
 3229TIP3    H1 9693   2.352   2.882   2.688 -0.0612 -3.7691  0.0161
 3229TIP3    H2 9694   2.203   2.864   2.667 -0.6911 -0.1756  0.6026
 3230TIP3   OH2 9695   2.041   1.298   1.772 -0.4988 -0.0296 -0.4015
 3230TIP3    H1 9696   1.965   1.339   1.814 -0.2474 -0.7127  0.7729
 3230TIP3    H2 9697   2.053   1.216   1.820 -0.1000 -0.7805 -1.7398
 3231TIP3   OH2 9698   3.736   2.207   4.809  0.4673 -0.0563  0.7590
 3231TIP3    H1 9699   3.768   2.119   4.789  1.4740  0.0279  1.8743
 3231TIP3    H2 9700   3.655   2.193   4.858  1.8061 -0.5141  3.0317
 3232TIP3   OH2 9701   2.339   4.553   0.400  0.3159 -0.0162  0.1564
 3232TIP3    H1 9702   2.340   4.469   0.354 -0.0745  0.2515 -0.3455
 3232TIP3    H2 9703   2.339   4.529   0.493 -2.6873 -0.6614  0.0847
 3233TIP3   OH2 9704   2.308   3.874   0.089  0.0767  0.3647 -0.1502
 3233TIP3    H1 9705   2.239   3.940   0.082  0.0758  0.6977  2.0973
 3233TIP3    H2 9706   2.386   3.923   0.114  1.1342 -0.0387 -2.4178
 3234TIP3   OH2 9707   3.484   3.139   1.584  0.3125  0.2095 -0.0358
 3234TIP3    H1 9708   3.534   3.060   1.563 -1.7685 -1.5086  1.1235
 3234TIP3    H2 9709   3.410   3.138   1.524  1.4212  2.6295 -1.5987
 3235TIP3   OH2 9710   0.809   1.112   0.356  0.1249 -0.1368  0.4337
 3235TIP3    H1 9711   0.758   1.182   0.398  0.0790  0.1696 -0.1245
 3235TIP3    H2 9712   0.898   1.146   0.354  0.1894 -0.2944  0.5841
 3236TIP3   OH2 9713   5.206   1.143   1.516  0.2012  0.1428  0.4662
 3236TIP3    H1 9714   5.242   1.093   1.443  2.2874 -2.6960  3.1715
 3236TIP3    H2 9715   5.268   1.215   1.529  1.9135 -1.4157  1.5163
 3237TIP3   OH2 9716   3.246   2.290   2.153 -0.0096 -0.2084  0.3252
 3237TIP3    H1 9717   3.219   2.377   2.183 -1.0192 -0.2242 -0.5148
 3237TIP3    H2 9718   3.312   2.263   2.217 -1.7805 -0.0736  2.3198
 3238TIP3   OH2 9719   4.943   4.319   5.125  0.0528 -0.1452  0.0001
 3238TIP3    H1 9720   4.966   4.226   5.135 -1.3848 -0.7442 -1.5931
 3238TIP3    H2 9721   5.019   4.359   5.084  0.8659 -0.4873  1.1144
 3239TIP3   OH2 9722   1.282   4.569   5.132 -0.3093  0.2151 -0.0617
 3239TIP3    H1 9723   1.307   4.642   5.075 -2.3132  1.1373  0.1437
 3239TIP3    H2 9724   1.310   4.596   5.219  2.9005 -1.2654 -0.5215
 3240TIP3   OH2 9725   2.994   1.714   2.708  0.4048  0.0827 -0.1649
 3240TIP3    H1 9726   3.024   1.696   2.798 -0.3480 -0.9427 -0.0986
 3240TIP3    H2 9727   3.013   1.633   2.660  1.1769  0.7701 -1.0474
 3241TIP3   OH2 9728   5.151   2.740   3.128 -0.2110  0.5146  0.2656
 3241TIP3    H1 9729   5.161   2.647   3.106  0.4985  0.3234  1.3041
 3241TIP3    H2 9730   5.187   2.747   3.217  0.1777  1.8694  0.0173
 3242TIP3   OH2 9731   4.295   5.425   2.234  0.0431  0.0002  0.3834
 3242TIP3    H1 9732   4.363   5.488   2.211 -1.3114  1.5407  0.3858
 3242TIP3    H2 9733   4.253   5.403   2.151 -0.6932  0.5788  0.5877
 3243TIP3   OH2 9734   1.106   2.639   2.798  0.1429  0.1094 -0.1021
 3243TIP3    H1 9735   1.077   2.549   2.788 -0.0437  0.0270  1.0322
 3243TIP3    H2 9736   1.054   2.689   2.735 -0.3263 -0.4610 -0.1697
 3244TIP3   OH2 9737   2.091   4.366   2.240  0.2415 -0.1533 -1.1408
 3244TIP3    H1 9738   2.058   4.281   2.267  1.3115  0.2630  1.8269
 3244TIP3    H2 9739   2.178   4.347   2.204 -0.1660 -0.4258 -2.0360
 3245TIP3   OH2 9740   6.372   4.130   1.733 -0.2416  0.2684 -0.0582
 3245TIP3    H1 9741   6.304   4.191   1.760 -1.6002 -1.2478  0.0595
 3245TIP3    H2 9742   6.325   4.053   1.702  1.3946 -0.1547 -1.6530
 3246TIP3   OH2 9743   2.594   1.136   2.095 -0.1500 -0.4214  0.0345
 3246TIP3    H1 9744   2.544   1.212   2.123 -0.3719 -0.8846  0.9605
 3246TIP3    H2 9745   2.581   1.131   2.001 -1.0829  0.0155  0.1310
 3247TIP3   OH2 9746   2.525   4.292   3.967  0.1596  0.0846  0.5748
 3247TIP3    H1 9747   2.533   4.387   3.956 -2.0324  0.1246 -1.8715
 3247TIP3    H2 9748   2.494   4.262   3.881 -1.9399 -2.4367  2.0796
 3248TIP3   OH2 9749   3.239   3.544   5.111  0.0855  0.1373  0.8698
 3248TIP3    H1 9750   3.278   3.631   5.117  1.0060 -0.1752 -0.2104
 3248TIP3    H2 9751   3.304   3.486   5.151 -0.6869 -0.0451  1.9358
 3249TIP3   OH2 9752   4.366   4.735   3.026 -0.2747  0.5512  0.4012
 3249TIP3    H1 9753   4.359   4.643   3.003  2.5272 -0.3692  2.6293
 3249TIP3    H2 9754   4.368   4.736   3.122  0.9904  2.7634  0.4301
 3250TIP3   OH2 9755   5.778   5.018   3.561 -0.0790  0.2491  0.2378
 3250TIP3    H1 9756   5.715   5.058   3.620  0.3143  0.8140  0.2877
 3250TIP3    H2 9757   5.827   5.092   3.524  0.3355 -0.1565 -0.0437
 3251TIP3   OH2 9758   4.562   4.826   4.376  0.2304  0.4453  0.0920
 3251TIP3    H1 9759   4.593   4.785   4.295 -0.3367  0.6197 -0.2171
 3251TIP3    H2 9760   4.637   4.875   4.408  0.5831  0.0438 -0.1135
 3252TIP3   OH2 9761   4.805   0.642   4.298 -0.0483  0.1834 -0.2773
 3252TIP3    H1 9762   4.766   0.564   4.257  4.1107 -1.1929 -2.1345
 3252TIP3    H2 9763   4.822   0.615   4.389 -0.2298 -0.4652 -0.4283
 3253TIP3   OH2 9764   3.139   5.289   2.741  0.3403  0.0367 -0.1406
 3253TIP3    H1 9765   3.212   5.328   2.789  1.1314 -1.5144 -0.0157
 3253TIP3    H2 9766   3.094   5.235   2.806  0.9410 -1.4498 -0.9298
 3254TIP3   OH2 9767   3.212   0.510   2.316  0.2881 -0.0430  0.0516
 3254TIP3    H1 9768   3.220   0.525   2.410  0.6393 -0.1646  0.0448
 3254TIP3    H2 9769   3.190   0.596   2.280 -1.6003 -0.3245  0.4236
 3255TIP3   OH2 9770   3.611   0.410   2.481  0.0273 -0.1137  0.0448
 3255TIP3    H1 9771   3.706   0.414   2.470  0.4622 -0.0051  2.9865
 3255TIP3    H2 9772   3.588   0.495   2.519 -0.9794 -0.7601  0.9298
 3256TIP3   OH2 9773   0.978   4.664   0.987 -0.6815 -0.1449 -0.4396
 3256TIP3    H1 9774   0.957   4.686   0.896  0.4490  0.9960 -0.4447
 3256TIP3    H2 9775   0.968   4.746   1.035 -2.3716 -0.9724  0.7164
 3257TIP3   OH2 9776   1.554   1.396   0.515 -0.2712  0.0133 -0.4385
 3257TIP3    H1 9777   1.491   1.427   0.579 -1.0490 -0.8554 -0.7664
 3257TIP3    H2 9778   1.573   1.306   0.540 -0.5847 -0.3355 -1.4144
 3258TIP3   OH2 9779   0.477   3.278   0.282  0.5365  0.4076  0.1555
 3258TIP3    H1 9780   0.524   3.350   0.326 -1.2182  3.4644 -2.5025
 3258TIP3    H2 9781   0.545   3.216   0.257  2.2810  1.5431  1.8339
 3259TIP3   OH2 9782   5.139   1.009   3.320  0.3779 -0.2057  0.0862
 3259TIP3    H1 9783   5.120   0.993   3.227  0.4936  1.4894 -0.2534
 3259TIP3    H2 9784   5.053   1.018   3.361  0.3154  1.8028 -0.3994
 3260TIP3   OH2 9785   3.878   5.295   1.204 -0.1786 -0.0233 -0.2741
 3260TIP3    H1 9786   3.809   5.300   1.138 -0.4875  1.2608  0.1166
 3260TIP3    H2 9787   3.841   5.240   1.273  0.4211 -1.9984 -1.4401
 3261TIP3   OH2 9788   5.084   2.571   2.470 -0.4120  0.1703  0.6009
 3261TIP3    H1 9789   5.132   2.637   2.520 -2.8489  0.7510  2.3746
 3261TIP3    H2 9790   5.135   2.560   2.390  0.6725  3.4689  0.6608
 3262TIP3   OH2 9791   3.644   5.629   1.165 -0.0360 -0.3832 -0.1664
 3262TIP3    H1 9792   3.738   5.618   1.176 -0.1035  1.0151  2.5719
 3262TIP3    H2 9793   3.633   5.720   1.137 -0.5596 -0.8997 -1.7851
 3263TIP3   OH2 9794   0.627   0.056   3.578 -0.4341 -0.0647 -0.2541
 3263TIP3    H1 9795   0.554   0.101   3.620  0.0214 -0.2164  0.7277
 3263TIP3    H2 9796   0.592   0.028   3.493 -1.8220 -0.9189  0.5449
 3264TIP3   OH2 9797   2.684   5.667   2.491 -0.4501 -0.3450 -0.1788
 3264TIP3    H1 9798   2.736   5.587   2.490  0.5725  0.2946  0.1595
 3264TIP3    H2 9799   2.709   5.713   2.411 -0.6866 -0.1421 -0.1400
 3265TIP3   OH2 9800   2.974   4.598   4.065  0.5591  0.4840 -0.7002
 3265TIP3    H1 9801   2.972   4.503   4.080  2.1891  0.4647 -0.3736
 3265TIP3    H2 9802   2.941   4.608   3.976 -4.1588  0.1142  0.7367
 3266TIP3   OH2 9803   0.241   3.087   1.074  0.2266 -0.2007 -0.2067
 3266TIP3    H1 9804   0.237   3.077   0.979  0.7168 -0.6664 -0.1792
 3266TIP3    H2 9805   0.180   3.022   1.108 -2.1106  1.7999 -0.2765
 3267TIP3   OH2 9806   0.977   5.107   4.942 -0.3630  1.0659  0.0325
 3267TIP3    H1 9807   1.062   5.145   4.918  0.8401 -0.3409  1.7936
 3267TIP3    H2 9808   0.974   5.114   5.037 -0.9001 -1.5039  0.2801
 3268TIP3   OH2 9809   3.473   3.322   2.190  0.2416  0.1921 -0.0645
 3268TIP3    H1 9810   3.398   3.306   2.248  1.3688 -0.3380  1.3167
 3268TIP3    H2 9811   3.503   3.235   2.165  2.0544  0.2303  1.6929
 3269TIP3   OH2 9812   5.485   3.186   3.134 -0.0848  0.9240 -0.5797
 3269TIP3    H1 9813   5.456   3.212   3.047 -2.0363  1.0289  0.0664
 3269TIP3    H2 9814   5.447   3.099   3.147 -0.0690  1.0451  0.2961
 3270TIP3   OH2 9815   0.057   5.453   2.929 -0.2540  0.1642  0.4098
 3270TIP3    H1 9816   0.019   5.540   2.938  0.7674  0.7533 -0.6119
 3270TIP3    H2 9817   0.152   5.469   2.924 -0.1806 -0.6549 -2.8054
 3271TIP3   OH2 9818   5.326   5.931   3.715  0.5511  1.1957  0.6692
 3271TIP3    H1 9819   5.324   5.925   3.620  0.7708 -1.1237  0.7673
 3271TIP3    H2 9820   5.325   6.025   3.733 -3.1371  1.7340 -1.5041
 3272TIP3   OH2 9821   5.281   2.799   4.306  0.6953 -0.3640  0.2250
 3272TIP3    H1 9822   5.222   2.779   4.378  0.2460 -0.1010 -0.0646
 3272TIP3    H2 9823   5.353   2.848   4.347  0.6950 -0.6475  0.5693
 3273TIP3   OH2 9824   6.102   3.207   0.628  0.6636  0.3612  0.0035
 3273TIP3    H1 9825   6.136   3.273   0.568 -1.5055  1.3335 -0.2249
 3273TIP3    H2 9826   6.039   3.253   0.683  0.3399 -1.1683  0.9933
 3274TIP3   OH2 9827   1.363   3.082   4.761  0.1872  0.2577  0.1677
 3274TIP3    H1 9828   1.310   3.131   4.824  2.5655  0.5105  2.1455
 3274TIP3    H2 9829   1.401   3.150   4.705  0.1286  0.2709  0.1431
 3275TIP3   OH2 9830   1.817   5.392   1.937  0.0711  0.4210  0.2340
 3275TIP3    H1 9831   1.843   5.313   1.986  0.2296 -0.2358 -0.8777
 3275TIP3    H2 9832   1.879   5.397   1.864 -0.1063  1.4348  0.1389
 3276TIP3   OH2 9833   0.820   1.111   4.343 -0.1009  0.0885 -0.0600
 3276TIP3    H1 9834   0.788   1.184   4.396  0.1686 -0.3292  0.6898
 3276TIP3    H2 9835   0.777   1.034   4.380  1.3698 -0.4288  0.6656
 3277TIP3   OH2 9836   4.254   3.880   0.560  0.2465 -0.1644  0.0253
 3277TIP3    H1 9837   4.226   3.968   0.535  1.9031  0.7689  1.2354
 3277TIP3    H2 9838   4.262   3.883   0.656 -0.9500 -2.0595  0.2518
 3278TIP3   OH2 9839   0.542   5.136   2.620 -0.2976  0.1553  0.1426
 3278TIP3    H1 9840   0.579   5.121   2.534  2.6023  0.8691  1.1609
 3278TIP3    H2 9841   0.491   5.057   2.639 -0.5941 -0.2043 -1.9746
 3279TIP3   OH2 9842   2.464   0.795   3.891 -0.3140  0.4448 -0.6384
 3279TIP3    H1 9843   2.442   0.776   3.982 -1.1481  0.2869 -0.8639
 3279TIP3    H2 9844   2.480   0.890   3.889  0.1792  0.3704 -0.2362
 3280TIP3   OH2 9845   0.916   3.343   4.086 -0.0170 -0.4394  0.2117
 3280TIP3    H1 9846   0.832   3.371   4.122  0.5233  0.5168  0.7710
 3280TIP3    H2 9847   0.906   3.349   3.991 -0.9102 -1.3528  0.2312
 3281TIP3   OH2 9848   4.080   0.173   3.741 -0.9690 -0.3752 -0.6289
 3281TIP3    H1 9849   4.155   0.115   3.732  0.0392  0.7911 -0.0301
 3281TIP3    H2 9850   4.007   0.124   3.703  0.3612 -0.9733 -2.6106
 3282TIP3   OH2 9851   2.682   0.656   4.244 -0.2298  0.3962  0.4360
 3282TIP3    H1 9852   2.641   0.592   4.186  0.2258  1.3353 -0.9659
 3282TIP3    H2 9853   2.772   0.661   4.213  0.1428  0.6125  1.5184
 3283TIP3   OH2 9854   3.240   5.771   3.547  0.0773  0.4525 -0.0443
 3283TIP3    H1 9855   3.260   5.864   3.558  0.4941  0.4985 -1.0625
 3283TIP3    H2 9856   3.170   5.768   3.482 -0.3081  0.0742  0.3793
 3284TIP3   OH2 9857   3.749   1.011   4.054 -0.5000  0.0107 -1.0130
 3284TIP3    H1 9858   3.751   1.078   3.985 -1.0813 -0.7380 -1.7925
 3284TIP3    H2 9859   3.722   0.932   4.008 -0.3037 -0.6465 -0.0149
 3285TIP3   OH2 9860   0.264   4.985   1.268  0.3890  0.1525 -0.0409
 3285TIP3    H1 9861   0.205   4.918   1.305  1.0778  0.8447  2.4598
 3285TIP3    H2 9862   0.300   4.943   1.189  0.2219 -2.1523  1.0107
 3286TIP3   OH2 9863   1.593   5.813   1.118 -0.6522 -0.9184  0.3695
 3286TIP3    H1 9864   1.620   5.780   1.033  1.6454  0.6982  0.3634
 3286TIP3    H2 9865   1.675   5.826   1.166 -1.8683 -1.7263  2.8359
 3287TIP3   OH2 9866   2.841   3.025   3.161  0.1567  0.0428  0.1774
 3287TIP3    H1 9867   2.859   3.078   3.083  0.1192 -0.1324  0.0490
 3287TIP3    H2 9868   2.911   2.959   3.162 -0.4351 -0.6067 -0.2957
 3288TIP3   OH2 9869   2.636   3.947   2.203 -0.3218 -0.5473 -0.2459
 3288TIP3    H1 9870   2.686   3.949   2.284 -2.1928  1.4919  0.9740
 3288TIP3    H2 9871   2.596   3.860   2.201 -1.0255 -0.3193  1.5956
 3289TIP3   OH2 9872   0.933   3.951   1.988 -0.8090 -0.4286  0.1235
 3289TIP3    H1 9873   0.837   3.955   1.990 -0.8282 -0.8833  0.2446
 3289TIP3    H2 9874   0.961   4.027   2.039 -1.0841  0.4620 -1.0122
 3290TIP3   OH2 9875   0.675   5.570   2.529  0.2091  0.5502 -0.2228
 3290TIP3    H1 9876   0.758   5.606   2.497  0.5622 -0.6509 -0.7070
 3290TIP3    H2 9877   0.650   5.504   2.464  0.0671 -0.7335  1.0823
 3291TIP3   OH2 9878   3.174   5.633   1.905  0.3336  0.3161  0.1206
 3291TIP3    H1 9879   3.142   5.625   1.995 -0.1869 -1.1523 -0.1575
 3291TIP3    H2 9880   3.264   5.665   1.913  0.1352  0.6356  1.1308
 3292TIP3   OH2 9881   1.135   0.896   4.398  0.2720 -0.4520 -0.5821
 3292TIP3    H1 9882   1.182   0.823   4.358 -0.6021 -1.0109 -0.6143
 3292TIP3    H2 9883   1.182   0.974   4.369  0.6255 -0.9445 -1.3574
 3293TIP3   OH2 9884   5.183   2.099   3.906  0.5273  0.5675  0.7489
 3293TIP3    H1 9885   5.253   2.141   3.956  1.7791  0.2379 -0.6198
 3293TIP3    H2 9886   5.157   2.023   3.958  1.2683  0.6529  1.2530
 3294TIP3   OH2 9887   1.752   1.721   2.625 -0.7819  0.8150  1.2017
 3294TIP3    H1 9888   1.817   1.665   2.668  1.2567  1.0073 -1.3788
 3294TIP3    H2 9889   1.685   1.661   2.594  2.2695 -0.8513 -3.1907
 3295TIP3   OH2 9890   5.633   3.842   4.298 -0.4371  0.3327 -0.1150
 3295TIP3    H1 9891   5.693   3.780   4.257 -1.3738 -1.2168  0.7685
 3295TIP3    H2 9892   5.644   3.827   4.392 -2.3858 -0.2012  0.0651
 3296TIP3   OH2 9893   2.957  -0.011   4.374  0.2689  0.1277 -0.3637
 3296TIP3    H1 9894   2.938   0.025   4.288  0.2436  0.3040 -0.2841
 3296TIP3    H2 9895   2.905   0.042   4.435 -0.1434 -0.3450 -0.2916
 3297TIP3   OH2 9896   0.565   0.054   0.250  0.5241 -0.4932 -0.2120
 3297TIP3    H1 9897   0.558   0.149   0.259  1.4036 -0.4435  0.0273
 3297TIP3    H2 9898   0.631   0.028   0.315 -0.1661 -1.3544  0.1802
 3298TIP3   OH2 9899   0.938   3.686   2.154  0.0400 -0.1382  0.4701
 3298TIP3    H1 9900   0.926   3.781   2.153 -0.8726 -0.2255  1.6382
 3298TIP3    H2 9901   1.019   3.672   2.104  0.2447  1.2547  0.3684
 3299TIP3   OH2 9902   0.771   3.981   1.689  1.0434  0.0507  0.0063
 3299TIP3    H1 9903   0.776   3.892   1.723 -0.7933 -0.4517 -0.8971
 3299TIP3    H2 9904   0.686   4.014   1.719  0.8081  0.7457 -1.3359
 3300TIP3   OH2 9905   6.277   2.092   1.045  0.5501  0.5019 -0.5725
 3300TIP3    H1 9906   6.226   2.166   1.079  0.1472 -0.2263  0.4455
 3300TIP3    H2 9907   6.289   2.112   0.952  0.2767  1.7435 -0.3610
 3301TIP3   OH2 9908   1.052   5.456   0.414 -0.2394 -0.3244 -0.2688
 3301TIP3    H1 9909   0.994   5.412   0.352 -2.1957  0.8973  0.6207
 3301TIP3    H2 9910   1.070   5.541   0.374 -1.1679  0.3019  0.6266
 3302TIP3   OH2 9911   3.711   5.934   0.865 -0.1169  0.3020 -0.5884
 3302TIP3    H1 9912   3.780   5.967   0.808 -0.5971  1.8771 -0.3082
 3302TIP3    H2 9913   3.673   5.860   0.817  1.4341 -0.2976 -0.9446
 3303TIP3   OH2 9914   5.103   3.686   2.704 -0.5694 -0.1257 -0.2684
 3303TIP3    H1 9915   5.123   3.729   2.787 -0.0968 -1.1746  0.1905
 3303TIP3    H2 9916   5.044   3.615   2.727 -0.3209 -0.5197 -0.8023
 3304TIP3   OH2 9917   1.735   3.493   1.044  0.2785  0.1232 -0.2923
 3304TIP3    H1 9918   1.729   3.446   1.127 -1.9976  1.9044  0.6679
 3304TIP3    H2 9919   1.827   3.485   1.018  0.8788 -1.1577  1.9535
 3305TIP3   OH2 9920   1.102   0.655   1.038 -0.0036 -0.3283  0.4408
 3305TIP3    H1 9921   1.181   0.646   1.092  0.9883 -0.0799 -0.9139
 3305TIP3    H2 9922   1.048   0.579   1.061 -0.3673  0.5721  2.9040
 3306TIP3   OH2 9923   0.728   1.360   1.354  0.5762 -0.8737 -0.1910
 3306TIP3    H1 9924   0.657   1.417   1.326 -0.3858 -2.2423 -0.6728
 3306TIP3    H2 9925   0.736   1.376   1.448  1.3370  1.0897 -0.5598
 3307TIP3   OH2 9926   5.793   2.416   3.983 -0.5350  0.3817 -0.7257
 3307TIP3    H1 9927   5.762   2.457   3.902 -0.2473 -1.7068 -1.9774
 3307TIP3    H2 9928   5.872   2.369   3.956 -1.1132 -1.3618  0.4876
 3308TIP3   OH2 9929   4.714   2.869   1.019 -0.1942 -0.7433 -0.7328
 3308TIP3    H1 9930   4.696   2.829   0.934 -1.1162 -2.2795  0.1415
 3308TIP3    H2 9931   4.679   2.958   1.011 -1.7075 -1.3702 -1.4663
 3309TIP3   OH2 9932   5.858   0.912   3.717  0.2118  0.0266 -0.2644
 3309TIP3    H1 9933   5.950   0.883   3.716 -0.0227 -0.7426 -0.7615
 3309TIP3    H2 9934   5.820   0.869   3.640 -0.4349  0.7800 -0.3692
 3310TIP3   OH2 9935   1.400   3.176   2.865 -0.5106 -0.1976  0.1534
 3310TIP3    H1 9936   1.468   3.156   2.800 -0.7866 -3.1028  0.6326
 3310TIP3    H2 9937   1.442   3.239   2.925  1.6197 -1.5288  0.1512
 3311TIP3   OH2 9938   3.934   5.302   0.503 -0.4135 -0.3211 -0.2880
 3311TIP3    H1 9939   3.954   5.282   0.594  0.8859 -0.6207 -0.6108
 3311TIP3    H2 9940   3.950   5.219   0.457 -1.5127 -0.2964 -0.7228
 3312TIP3   OH2 9941   3.891   1.424   0.735 -0.1661  0.1948  0.3028
 3312TIP3    H1 9942   3.973   1.378   0.718 -1.0586 -1.7688  1.0256
 3312TIP3    H2 9943   3.897   1.453   0.826  0.0362  0.7910  0.1084
 3313TIP3   OH2 9944   1.639   0.964   3.111  0.3402  0.0331  0.3180
 3313TIP3    H1 9945   1.605   1.009   3.034  3.5314  0.7722 -0.8074
 3313TIP3    H2 9946   1.703   0.902   3.076 -0.1650 -1.7073  2.2319
 3314TIP3   OH2 9947   5.732   1.163   0.062 -0.2588 -0.1001  0.4700
 3314TIP3    H1 9948   5.650   1.210   0.073  0.0505  0.7846 -0.7159
 3314TIP3    H2 9949   5.797   1.232   0.049  0.5066 -0.8109  0.4390
 3315TIP3   OH2 9950   4.263   4.238   0.818 -0.0446 -0.1903  0.4182
 3315TIP3    H1 9951   4.337   4.240   0.757 -0.4281  0.0357 -0.0522
 3315TIP3    H2 9952   4.190   4.204   0.765 -0.5848  0.7738  0.5137
 3316TIP3   OH2 9953   4.491   5.967   4.691 -0.2766 -0.3526 -0.4490
 3316TIP3    H1 9954   4.581   5.993   4.670 -1.0683  0.5185 -3.2038
 3316TIP3    H2 9955   4.482   5.880   4.651 -0.5073 -0.6998  0.3439
 3317TIP3   OH2 9956   1.235   5.121   2.973 -0.2091  0.1525 -0.3800
 3317TIP3    H1 9957   1.286   5.177   2.914 -0.6334 -0.2408 -1.1338
 3317TIP3    H2 9958   1.231   5.170   3.055 -0.7650  1.3501 -1.0962
 3318TIP3   OH2 9959   2.103   0.647   1.113 -0.3262 -0.5425  0.5907
 3318TIP3    H1 9960   2.194   0.618   1.128 -0.2454  0.4012  2.1691
 3318TIP3    H2 9961   2.090   0.636   1.019  2.3088  1.6945 -0.1828
 3319TIP3   OH2 9962   4.522   0.487   0.193 -0.2419 -0.2895  0.2885
 3319TIP3    H1 9963   4.459   0.476   0.264 -0.6309 -0.2579 -0.0527
 3319TIP3    H2 9964   4.608   0.476   0.236 -0.4857 -0.6829  0.6849
 3320TIP3   OH2 9965   1.134   1.490   1.170 -0.0540  0.4619  0.2804
 3320TIP3    H1 9966   1.140   1.404   1.210  0.0783  0.5094  0.3627
 3320TIP3    H2 9967   1.107   1.473   1.080  0.5387  0.2957  0.1336
 3321TIP3   OH2 9968   1.810   3.939   1.322  0.6658 -0.0821 -0.0672
 3321TIP3    H1 9969   1.755   3.954   1.245  0.8378  0.8920 -0.0138
 3321TIP3    H2 9970   1.769   3.865   1.367  0.7933 -0.9561 -1.3011
 3322TIP3   OH2 9971   1.566   3.416   2.458 -0.2145  0.8613  0.5766
 3322TIP3    H1 9972   1.615   3.413   2.540 -0.1489  0.5979  0.5283
 3322TIP3    H2 9973   1.629   3.444   2.392 -0.7017  2.9373  0.9328
 3323TIP3   OH2 9974   4.761   4.401   3.417  0.2394 -0.2054  0.0201
 3323TIP3    H1 9975   4.733   4.371   3.331  1.5838  0.7717 -0.7882
 3323TIP3    H2 9976   4.701   4.358   3.478 -1.9027  0.4744 -1.5007
 3324TIP3   OH2 9977   4.472   3.020   1.154  0.4351 -0.1744  0.1018
 3324TIP3    H1 9978   4.435   3.002   1.241 -3.0118  0.1918 -1.1019
 3324TIP3    H2 9979   4.449   2.943   1.103 -2.4449  1.6642 -1.6960
 3325TIP3   OH2 9980   2.368   0.908   2.851  0.2701  0.1701  0.6365
 3325TIP3    H1 9981   2.361   0.836   2.913  1.4619 -0.0353  0.5561
 3325TIP3    H2 9982   2.462   0.927   2.846  0.3449 -0.5283 -1.8884
 3326TIP3   OH2 9983   4.260   3.854   3.349  0.8355 -0.0493 -0.4382
 3326TIP3    H1 9984   4.251   3.910   3.272  1.0921 -0.9726 -1.1566
 3326TIP3    H2 9985   4.219   3.903   3.420 -0.0272  0.5068 -1.3107
 3327TIP3   OH2 9986   3.366   1.682   3.609 -0.5825  0.1328  0.8298
 3327TIP3    H1 9987   3.337   1.696   3.699  0.0877 -1.4647  1.3210
 3327TIP3    H2 9988   3.288   1.651   3.563 -0.6942  0.0488  1.0793
 3328TIP3   OH2 9989   1.534   2.606   1.188 -0.6816 -0.1966 -0.1898
 3328TIP3    H1 9990   1.622   2.609   1.151 -1.2181 -1.1927 -1.6384
 3328TIP3    H2 9991   1.530   2.522   1.234 -1.0430 -0.3936 -0.5770
 3329TIP3   OH2 9992   3.110   2.210   1.024 -0.4775 -0.1312  0.1747
 3329TIP3    H1 9993   3.148   2.294   0.997 -0.7656 -1.0135 -3.5150
 3329TIP3    H2 9994   3.185   2.157   1.050 -0.1454  0.7838  1.1510
 3330TIP3   OH2 9995   3.450   1.846   4.629 -0.1601 -0.2567  0.4772
 3330TIP3    H1 9996   3.514   1.777   4.610  0.1252 -0.0036  0.5139
 3330TIP3    H2 9997   3.449   1.900   4.551 -0.1330 -0.1048  0.5822
 3331TIP3   OH2 9998   4.902   5.184   0.109 -0.4910  0.2201 -0.1536
 3331TIP3    H1 9999   4.852   5.238   0.172  0.2392  1.7085 -0.7978
 3331TIP3    H210000   4.922   5.104   0.158 -0.6242  1.0014  1.2637
 3332TIP3   OH210001   3.764   3.815   3.866 -0.3146 -0.3813  0.0854
 3332TIP3    H110002   3.851   3.831   3.903 -1.3669 -1.0283  3.1747
 3332TIP3    H210003   3.775   3.738   3.810  1.0624 -0.6327  0.6621
 3333TIP3   OH210004   1.552   1.452   3.890  0.4001 -0.6228  0.0714
 3333TIP3    H110005   1.505   1.513   3.832  3.5371 -0.0761 -2.1863
 3333TIP3    H210006   1.625   1.504   3.924  0.2961 -1.8016  2.2724
 3334TIP3   OH210007   2.736   5.564   0.171  0.1654 -0.0989 -0.0748
 3334TIP3    H110008   2.766   5.503   0.238 -2.7778 -0.1196  1.3936
 3334TIP3    H210009   2.668   5.516   0.124 -1.0253  1.4152  0.0175
 3335TIP3   OH210010   4.461   1.882   1.716 -0.0617 -0.1670  0.6403
 3335TIP3    H110011   4.465   1.804   1.772  1.9887  0.1729  1.0462
 3335TIP3    H210012   4.548   1.886   1.675 -0.5197  1.2867 -0.2395
 3336TIP3   OH210013   0.572   5.483   1.406  0.4539  0.0927  0.2875
 3336TIP3    H110014   0.541   5.436   1.483  0.9511  0.5077  0.7539
 3336TIP3    H210015   0.643   5.428   1.372  0.4337  0.0551  0.3061
 3337TIP3   OH210016   2.979   3.508   0.110 -0.1393  0.5221 -0.0413
 3337TIP3    H110017   3.020   3.594   0.124  1.6839 -0.3015 -0.0221
 3337TIP3    H210018   3.037   3.447   0.155 -0.6567 -0.8632 -1.1846
 3338TIP3   OH210019   2.330   2.432   1.768  0.3246 -0.9358 -0.5644
 3338TIP3    H110020   2.286   2.407   1.849  0.1223  0.2243 -0.3025
 3338TIP3    H210021   2.415   2.465   1.797  0.6412 -1.4343 -0.9145
 3339TIP3   OH210022   0.527   1.508   0.053 -0.2615 -0.0956  0.0022
 3339TIP3    H110023   0.484   1.487  -0.030  1.2935  1.1448 -1.2080
 3339TIP3    H210024   0.523   1.603   0.058 -0.7988 -0.1876  1.6525
 3340TIP3   OH210025   3.727   4.073   0.329 -0.2500 -0.5041 -0.0828
 3340TIP3    H110026   3.631   4.070   0.331 -0.2790  0.5282  0.7899
 3340TIP3    H210027   3.749   4.158   0.366  1.0101 -0.6318 -0.4992
 3341TIP3   OH210028   2.734   3.488   3.951  0.3356  0.1872  0.1884
 3341TIP3    H110029   2.646   3.513   3.921  0.3929 -0.8923 -0.9523
 3341TIP3    H210030   2.765   3.425   3.885  1.5720 -0.1940  1.1010
 3342TIP3   OH210031   3.657   0.459   0.751 -0.1264  0.1189  0.7326
 3342TIP3    H110032   3.603   0.517   0.806 -1.7849 -1.7217  1.1515
 3342TIP3    H210033   3.652   0.374   0.794  0.7018 -0.7880 -0.8800
 3343TIP3   OH210034   3.957   5.909   4.682  0.1110 -0.4835  0.0691
 3343TIP3    H110035   4.019   5.836   4.688 -0.7617 -1.4512 -1.8711
 3343TIP3    H210036   3.970   5.944   4.594  0.7636  2.0230  1.0667
 3344TIP3   OH210037   0.035   3.636   3.275  0.0366 -0.6456  0.2062
 3344TIP3    H110038  -0.050   3.611   3.311  1.7486 -3.7225  2.6259
 3344TIP3    H210039   0.054   3.570   3.208  0.8798 -0.5273  0.3125
 3345TIP3   OH210040   0.123   2.301   0.550  0.5236  0.4721 -0.1391
 3345TIP3    H110041   0.166   2.309   0.465  1.5003  1.8357  0.4443
 3345TIP3    H210042   0.190   2.260   0.606 -0.2460 -0.7840 -0.0926
 3346TIP3   OH210043   2.061   3.104   1.124  0.0067  0.1916  0.2832
 3346TIP3    H110044   1.990   3.168   1.130  0.8297  1.0898  0.8624
 3346TIP3    H210045   2.040   3.052   1.047 -0.8034  1.0271 -0.0845
 3347TIP3   OH210046   3.429   2.143   0.465  0.1599  0.1648 -0.1105
 3347TIP3    H110047   3.343   2.118   0.499  0.3145 -0.5406 -0.2391
 3347TIP3    H210048   3.492   2.094   0.517  0.4981  0.8033  0.0895
 3348TIP3   OH210049   5.186   3.452   3.911 -0.8255  0.7155  0.0418
 3348TIP3    H110050   5.181   3.391   3.985 -1.0209  0.3747 -0.2526
 3348TIP3    H210051   5.154   3.403   3.836  1.0451  0.4598 -0.6463
 3349TIP3   OH210052   4.648   4.245   3.077  0.4969 -0.2428  0.8276
 3349TIP3    H110053   4.579   4.289   3.127  1.2573  0.4454  1.2804
 3349TIP3    H210054   4.681   4.177   3.135  0.0422 -0.7405  0.5169
 3350TIP3   OH210055   3.768   4.091   2.069  0.2998  0.0842 -0.4926
 3350TIP3    H110056   3.693   4.116   2.123  0.1172 -0.8076 -0.3116
 3350TIP3    H210057   3.804   4.014   2.113  1.0125  0.2002 -0.8643
 3351TIP3   OH210058   0.267   2.788   3.845 -0.2544  0.4099  0.0007
 3351TIP3    H110059   0.322   2.786   3.767  1.3130 -2.2939  1.0431
 3351TIP3    H210060   0.310   2.849   3.904 -0.1424  0.7010 -0.3800
 3352TIP3   OH210061   1.403   0.342   1.134 -0.0689 -0.5298 -0.7203
 3352TIP3    H110062   1.484   0.293   1.142  1.0030  1.4528  2.8244
 3352TIP3    H210063   1.426   0.418   1.079 -0.0498 -0.8434 -1.1540
 3353TIP3   OH210064   2.322   5.949   0.609 -0.5713 -1.0390  0.0690
 3353TIP3    H110065   2.249   5.956   0.548 -1.0978 -0.4438  0.7476
 3353TIP3    H210066   2.335   5.855   0.621 -0.0110 -1.1944 -1.4577
 3354TIP3   OH210067   1.897   0.395   2.849 -0.3160  0.9173  0.2500
 3354TIP3    H110068   1.886   0.305   2.879  0.2632  1.0620  0.9147
 3354TIP3    H210069   1.987   0.417   2.872 -0.2419  1.4437 -0.5204
 3355TIP3   OH210070   6.043   3.999   1.890 -0.4655 -0.3375  0.3335
 3355TIP3    H110071   6.070   4.015   1.800 -0.0697 -1.5421  0.2165
 3355TIP3    H210072   5.966   4.053   1.902  1.1434  2.1422  0.2236
 3356TIP3   OH210073   4.892   5.052   2.103  0.4520 -0.1081 -0.1740
 3356TIP3    H110074   4.954   5.124   2.089  0.6603 -0.6083 -2.1133
 3356TIP3    H210075   4.907   4.993   2.029 -0.6966 -1.4464  0.6150
 3357TIP3   OH210076   5.469   0.890   3.916  0.5755  0.0612  0.3449
 3357TIP3    H110077   5.487   0.937   3.834  0.8665 -1.1673 -0.3165
 3357TIP3    H210078   5.410   0.948   3.964 -0.1705  0.4909 -1.0385
 3358TIP3   OH210079   3.986   3.303   4.614  0.3133 -0.1304  0.3735
 3358TIP3    H110080   3.958   3.345   4.695 -1.4383 -1.2992  0.4381
 3358TIP3    H210081   3.926   3.229   4.604  0.2787  0.1571 -2.1423
 3359TIP3   OH210082   2.510   4.060   5.068  0.3504 -0.2944 -0.0984
 3359TIP3    H110083   2.506   3.976   5.022  1.2191  0.1206 -0.9560
 3359TIP3    H210084   2.594   4.097   5.043  1.1905 -0.3564  2.3869
 3360TIP3   OH210085   3.980   0.181   0.984 -0.7075 -0.0431 -0.2688
 3360TIP3    H110086   3.957   0.135   0.904 -0.1882 -0.7926  0.0028
 3360TIP3    H210087   4.057   0.135   1.017 -0.2547  0.9406  0.0844
 3361TIP3   OH210088   2.301   4.219   2.094 -0.5934 -0.2987 -0.0091
 3361TIP3    H110089   2.354   4.240   2.017 -0.4084  0.3925  0.3003
 3361TIP3    H210090   2.299   4.123   2.096 -0.9528 -0.3402 -1.1153
 3362TIP3   OH210091   3.229   3.865   3.408  0.0759 -0.4490  0.0461
 3362TIP3    H110092   3.315   3.825   3.418  1.1454  1.5597 -0.4415
 3362TIP3    H210093   3.198   3.877   3.498  0.4265 -0.9492  0.2391
 3363TIP3   OH210094   4.383   2.724   0.341 -0.1955 -0.0691 -0.1580
 3363TIP3    H110095   4.421   2.641   0.370  0.1570  0.1506  0.0047
 3363TIP3    H210096   4.293   2.701   0.315 -0.2451 -0.4193  0.3122
 3364TIP3   OH210097   4.339   1.508   3.107 -0.5858 -0.0294 -0.2140
 3364TIP3    H110098   4.370   1.537   3.193 -0.6551  0.5451 -0.3765
 3364TIP3    H210099   4.417   1.507   3.052 -0.0370 -2.9725  0.4975
 3365TIP3   OH210100   0.395   1.588   0.449  0.7199 -0.2521 -0.5946
 3365TIP3    H110101   0.340   1.566   0.524 -0.8800  1.8031 -1.0627
 3365TIP3    H210102   0.333   1.606   0.378  1.9536  1.9362 -1.2149
 3366TIP3   OH210103   0.756   1.548   5.082 -0.8602  0.0907  0.0037
 3366TIP3    H110104   0.819   1.509   5.022 -0.8407 -0.3622  0.3177
 3366TIP3    H210105   0.806   1.615   5.129 -0.5246 -0.4873  0.4819
 3367TIP3   OH210106   1.095   4.870   3.399 -0.3368  0.2087  0.4587
 3367TIP3    H110107   1.022   4.843   3.455  0.2029 -6.1574 -1.2132
 3367TIP3    H210108   1.056   4.881   3.313  0.2144  0.3253  0.2205
 3368TIP3   OH210109   1.152   0.746   2.434  0.1110  0.3824  0.3839
 3368TIP3    H110110   1.177   0.771   2.523 -0.5939  1.0658  0.3996
 3368TIP3    H210111   1.211   0.673   2.412  0.9559  0.8591  1.0257
 3369TIP3   OH210112   0.920   0.473   1.358  0.0149  0.8782 -0.0832
 3369TIP3    H110113   0.903   0.560   1.323 -0.3803  0.3922 -1.1178
 3369TIP3    H210114   0.866   0.415   1.306  2.2032 -0.3055 -1.1469
 3370TIP3   OH210115   0.753   3.697   2.360 -0.2503 -0.0406 -0.6703
 3370TIP3    H110116   0.834   3.666   2.319  0.3431  1.2183 -0.4855
 3370TIP3    H210117   0.737   3.636   2.432  2.1989  1.3454  1.2047
 3371TIP3   OH210118   4.943   4.294   2.865 -0.6408  0.0989  0.4314
 3371TIP3    H110119   4.903   4.326   2.947  1.0389 -1.1080  1.7947
 3371TIP3    H210120   4.875   4.240   2.826 -1.8101  1.4304  0.5213
 3372TIP3   OH210121   5.363   1.332   5.059 -0.5153 -0.3157 -0.1669
 3372TIP3    H110122   5.411   1.375   5.129 -0.9347 -0.4235  0.1882
 3372TIP3    H210123   5.425   1.270   5.022 -0.3312 -0.3477  0.1925
 3373TIP3   OH210124   0.023   4.646   4.240  0.1891 -0.0648  0.1367
 3373TIP3    H110125   0.116   4.653   4.214  0.2306 -1.4053 -0.1402
 3373TIP3    H210126  -0.012   4.734   4.224  1.5872  0.7053  1.0092
 3374TIP3   OH210127   1.216   4.604   3.360 -0.0938 -0.5524 -0.1979
 3374TIP3    H110128   1.287   4.636   3.305  1.7847 -0.5632  2.0678
 3374TIP3    H210129   1.171   4.683   3.390 -0.9939 -0.5387 -1.5368
 3375TIP3   OH210130   1.493   4.443   2.183 -0.7661  0.0946 -0.0045
 3375TIP3    H110131   1.565   4.481   2.233 -0.2286 -0.8187 -0.0530
 3375TIP3    H210132   1.423   4.507   2.189 -0.4907  0.2942  1.3693
 3376TIP3   OH210133   4.681   0.967   0.803 -0.4892  0.2197 -0.1017
 3376TIP3    H110134   4.695   1.058   0.779 -1.1069  0.5905  0.8668
 3376TIP3    H210135   4.635   0.929   0.728  0.2145  0.5656 -0.7179
 3377TIP3   OH210136   1.166   0.965   2.994  0.2365  0.1381 -0.1031
 3377TIP3    H110137   1.142   0.944   2.904  0.7621 -0.0205 -0.2120
 3377TIP3    H210138   1.158   0.882   3.042 -1.5765  0.5355  0.3618
 3378TIP3   OH210139   5.895   1.967   4.968 -0.0459 -0.0199  0.1358
 3378TIP3    H110140   5.954   1.982   4.894 -1.1895 -0.4143 -0.9024
 3378TIP3    H210141   5.834   1.900   4.936 -1.0491  0.3786  1.1588
 3379TIP3   OH210142   4.611   4.585   3.283  0.4851 -0.1350  0.1397
 3379TIP3    H110143   4.647   4.662   3.239 -0.1398 -0.0855 -0.3156
 3379TIP3    H210144   4.672   4.566   3.354  1.0168  0.3583 -0.1768
 3380TIP3   OH210145   1.729   5.452   4.420 -0.2854 -0.0713  0.4593
 3380TIP3    H110146   1.759   5.542   4.405  2.1014 -0.1836  3.5249
 3380TIP3    H210147   1.640   5.462   4.454 -0.5692  1.0097 -0.5518
 3381TIP3   OH210148   5.413   5.594   3.725  0.6431  0.1324  0.3691
 3381TIP3    H110149   5.430   5.668   3.668  0.8573 -0.3079 -0.1422
 3381TIP3    H210150   5.351   5.539   3.676  0.5459 -0.0673  0.7099
 3382TIP3   OH210151   2.685   2.610   2.147  0.0248  0.3496  0.0446
 3382TIP3    H110152   2.590   2.601   2.154  0.1107  0.3364  1.3822
 3382TIP3    H210153   2.707   2.567   2.064 -1.0510 -0.3497  0.1048
 3383TIP3   OH210154   3.730   1.604   3.052  0.2831 -0.0026 -0.2749
 3383TIP3    H110155   3.739   1.690   3.094 -0.9819 -0.0880  0.2139
 3383TIP3    H210156   3.786   1.609   2.975  1.0123  0.9055  0.2905
 3384TIP3   OH210157   2.859   5.091   5.087 -0.9046 -0.4348  0.2662
 3384TIP3    H110158   2.774   5.048   5.100  0.3017 -2.3849  2.3250
 3384TIP3    H210159   2.867   5.101   4.992 -3.0242 -0.9765 -0.0299
 3385TIP3   OH210160   6.255   4.385   4.265  0.3632  0.1413 -0.3090
 3385TIP3    H110161   6.236   4.390   4.359 -1.6935  2.3710 -0.7523
 3385TIP3    H210162   6.271   4.476   4.239  2.4387 -0.5925 -1.9036
 3386TIP3   OH210163   5.343   3.710   3.899  0.7759  0.0261  0.0039
 3386TIP3    H110164   5.305   3.623   3.885 -0.5262  0.7859 -1.4634
 3386TIP3    H210165   5.393   3.727   3.819  0.3350  0.9480 -0.0934
 3387TIP3   OH210166   4.803   2.305   3.874  0.4832  0.3759  0.0692
 3387TIP3    H110167   4.730   2.325   3.815  0.2732 -0.8838 -0.1317
 3387TIP3    H210168   4.844   2.227   3.836  1.0323  0.2041  0.9787
 3388TIP3   OH210169   6.253   1.449   2.597  0.5481  0.3393 -0.0199
 3388TIP3    H110170   6.289   1.463   2.684  0.1557 -0.8617  0.3616
 3388TIP3    H210171   6.326   1.414   2.545  0.8742  1.3880 -0.2830
 3389TIP3   OH210172   4.939   3.026   1.821 -0.1014 -0.3929 -0.3753
 3389TIP3    H110173   4.934   3.078   1.902 -1.7438 -1.1030  0.0323
 3389TIP3    H210174   4.996   2.952   1.843 -0.5163 -0.5652  0.1457
 3390TIP3   OH210175   3.276   4.723   2.062 -0.5688 -0.4834  0.6259
 3390TIP3    H110176   3.320   4.751   2.143 -0.5477  0.7195  0.2141
 3390TIP3    H210177   3.290   4.628   2.059  1.2366 -0.2735  0.9685
 3391TIP3   OH210178   3.825   1.848   3.738 -0.0253  0.1810  0.0655
 3391TIP3    H110179   3.762   1.808   3.677 -0.7110 -0.9492  1.4544
 3391TIP3    H210180   3.895   1.783   3.745 -0.2567  0.0072  0.9312
 3392TIP3   OH210181   4.067   2.169   1.103  0.0866 -0.2240 -0.0457
 3392TIP3    H110182   4.059   2.121   1.020 -0.9177 -1.1204  0.5359
 3392TIP3    H210183   3.979   2.205   1.118  0.2360 -0.1503  0.6784
 3393TIP3   OH210184   0.642   5.847   2.118  0.2861 -0.4066  0.4233
 3393TIP3    H110185   0.588   5.768   2.117  0.4378 -0.6631 -3.5235
 3393TIP3    H210186   0.578   5.919   2.116 -0.0385 -0.6686 -1.9192
 3394TIP3   OH210187   5.434   0.967   2.238  0.2228  0.2576 -0.4601
 3394TIP3    H110188   5.450   1.012   2.154  1.0060  0.2442 -0.3241
 3394TIP3    H210189   5.516   0.924   2.258  0.2412  0.7700  0.6375
 3395TIP3   OH210190   1.106   0.768   1.933  0.4933 -0.4480 -0.6248
 3395TIP3    H110191   1.155   0.731   2.006 -1.8274 -0.9733  0.7547
 3395TIP3    H210192   1.023   0.721   1.933 -0.2450  0.7315 -2.5462
 3396TIP3   OH210193   3.703   5.400   0.034 -0.6175 -0.2869 -0.2883
 3396TIP3    H110194   3.698   5.466  -0.036 -0.8512 -1.1673 -1.1156
 3396TIP3    H210195   3.742   5.447   0.107  2.2736 -0.0357 -1.8530
 3397TIP3   OH210196   4.466   4.366   3.239  0.4340  0.0196  0.5330
 3397TIP3    H110197   4.372   4.380   3.248  0.4832 -0.0669  1.2240
 3397TIP3    H210198   4.505   4.453   3.250  0.3480  0.3464 -1.3757
 3398TIP3   OH210199   6.025   2.241   1.044  0.8858 -0.1762  0.6014
 3398TIP3    H110200   6.004   2.233   0.951 -0.7484 -1.2507  1.0279
 3398TIP3    H210201   6.040   2.335   1.057  0.4887  0.0744 -0.6047
 3399TIP3   OH210202   3.146   4.624   0.565 -0.1995  0.6210  0.4241
 3399TIP3    H110203   3.177   4.560   0.629  0.6568  2.0665  1.5185
 3399TIP3    H210204   3.159   4.581   0.480  2.1474  0.0309  1.0034
 3400TIP3   OH210205   5.150   3.966   2.463 -0.7525 -0.6635  0.3454
 3400TIP3    H110206   5.142   4.055   2.430 -0.2323 -0.2563  1.2739
 3400TIP3    H210207   5.077   3.956   2.524  0.6305  0.0508  2.2057
 3401TIP3   OH210208   1.650   0.388   3.541 -0.6993  0.2575  0.0207
 3401TIP3    H110209   1.641   0.295   3.563 -1.9787  0.2462 -0.4783
 3401TIP3    H210210   1.562   0.415   3.515 -0.0919  1.3232 -0.9853
 3402TIP3   OH210211   4.637   3.851   4.187 -0.4597 -0.1585 -0.1805
 3402TIP3    H110212   4.727   3.858   4.221 -0.8620 -2.3256  1.6074
 3402TIP3    H210213   4.647   3.816   4.099  0.4917  1.9667 -0.9773
 3403TIP3   OH210214   4.484   1.341   0.353  0.7480  0.6665 -0.1193
 3403TIP3    H110215   4.575   1.360   0.376 -0.3307  1.4240  4.4858
 3403TIP3    H210216   4.446   1.425   0.330  0.8096  0.6086 -0.4414
 3404TIP3   OH210217   2.049   4.111   2.829  0.2505  0.8370 -0.7258
 3404TIP3    H110218   1.997   4.051   2.882 -0.8748  2.0209 -0.4191
 3404TIP3    H210219   1.985   4.174   2.795  1.5048  2.5054 -0.1359
 3405TIP3   OH210220   3.054   3.195   3.947  0.2639  0.1829 -0.3668
 3405TIP3    H110221   3.004   3.117   3.925  1.0912 -0.1940 -0.9800
 3405TIP3    H210222   3.045   3.203   4.042 -0.2214 -0.3782 -0.3590
 3406TIP3   OH210223   3.052   0.963   4.268  0.3784 -0.0271  0.0043
 3406TIP3    H110224   3.061   0.941   4.360 -0.0913  0.8534  0.2731
 3406TIP3    H210225   3.136   1.004   4.245  0.6157 -0.5379 -0.0496
 3407TIP3   OH210226   5.059   1.524   0.066  0.4105 -0.0790  1.0200
 3407TIP3    H110227   5.031   1.614   0.053 -1.8453 -0.8977 -0.1962
 3407TIP3    H210228   5.140   1.517   0.015 -0.6605  0.6490 -0.8599
 3408TIP3   OH210229   5.957   2.311   2.015 -0.3061  0.1527  0.3316
 3408TIP3    H110230   5.907   2.311   1.934 -1.3166 -0.5533  0.9276
 3408TIP3    H210231   5.983   2.402   2.028  1.1461  0.0783 -1.5068
 3409TIP3   OH210232   2.325   4.235   4.869 -0.5642  0.2084  0.1863
 3409TIP3    H110233   2.335   4.145   4.899 -0.9517  0.6148  1.6127
 3409TIP3    H210234   2.258   4.231   4.801  0.2247 -0.7259 -0.5518
 3410TIP3   OH210235   2.434   1.745   1.621 -0.1927 -0.0933 -0.0491
 3410TIP3    H110236   2.415   1.821   1.566  0.5047  0.3756  0.3509
 3410TIP3    H210237   2.442   1.672   1.559 -1.8401 -0.0507 -0.3553
 3411TIP3   OH210238   2.759   4.404   4.089 -0.2259  0.4958  0.1276
 3411TIP3    H110239   2.830   4.349   4.056 -0.4387  0.1599  0.2246
 3411TIP3    H210240   2.753   4.384   4.182  0.4986  1.5847  0.4299
 3412TIP3   OH210241   2.839   5.267   3.391 -0.1584  0.2345  0.3089
 3412TIP3    H110242   2.753   5.303   3.412 -0.7789 -0.3028 -1.2086
 3412TIP3    H210243   2.834   5.176   3.419  1.3230  1.0747  3.9018
 3413TIP3   OH210244   0.960   5.351   3.215 -0.2925 -0.2323 -0.0938
 3413TIP3    H110245   1.021   5.361   3.141  1.1420 -1.2995  0.8834
 3413TIP3    H210246   0.874   5.345   3.174  0.1758  1.7332 -1.5061
 3414TIP3   OH210247   5.528   2.840   2.531  0.2437  0.2022  0.1842
 3414TIP3    H110248   5.504   2.758   2.573  1.0636 -1.1364 -1.8295
 3414TIP3    H210249   5.586   2.883   2.595  0.5830 -1.2384  0.8886
 3415TIP3   OH210250   1.480   1.757   0.683 -0.0581 -0.0651 -0.1852
 3415TIP3    H110251   1.561   1.725   0.722  0.9209 -1.8320 -3.2828
 3415TIP3    H210252   1.503   1.842   0.645  0.2217 -0.3350 -0.6262
 3416TIP3   OH210253   1.919   0.123   2.263 -0.5761  0.6158 -0.1746
 3416TIP3    H110254   2.013   0.139   2.255  0.1636 -2.6209  0.4563
 3416TIP3    H210255   1.901   0.055   2.198 -2.1120  0.0028  0.8255
 3417TIP3   OH210256   4.838   1.236   3.552 -0.1187 -0.1765 -0.1775
 3417TIP3    H110257   4.768   1.179   3.583 -0.4068 -1.0201 -2.1601
 3417TIP3    H210258   4.915   1.207   3.600 -0.7938 -0.3781  0.8190
 3418TIP3   OH210259   2.456   2.498   2.908 -0.3267 -0.1011 -0.4983
 3418TIP3    H110260   2.513   2.572   2.886  1.6046 -0.8617  1.5271
 3418TIP3    H210261   2.510   2.421   2.892 -1.1947 -0.9191  0.3730
 3419TIP3   OH210262   3.036   5.898   3.737  0.5990  0.3100  0.0859
 3419TIP3    H110263   3.036   5.993   3.753  0.0390  0.6851 -1.8102
 3419TIP3    H210264   3.114   5.866   3.780 -0.0188  1.3669  2.1078
 3420TIP3   OH210265   3.719   1.274   1.315 -0.2347 -0.3633 -0.1274
 3420TIP3    H110266   3.689   1.288   1.225  1.1725  2.2759 -0.2821
 3420TIP3    H210267   3.772   1.194   1.310  0.6581  0.2772 -1.9240
 3421TIP3   OH210268   4.397   2.494   1.931  0.3076 -0.1228 -0.7476
 3421TIP3    H110269   4.448   2.461   1.856 -0.2270  1.0476 -1.6589
 3421TIP3    H210270   4.308   2.462   1.915  0.3641 -0.6299 -0.1099
 3422TIP3   OH210271   6.050   3.184   1.490  0.0856  0.0430 -0.8094
 3422TIP3    H110272   6.068   3.239   1.566 -2.2570  0.9422 -0.8430
 3422TIP3    H210273   6.093   3.101   1.511 -0.1781  0.3860  1.3299
 3423TIP3   OH210274   1.316   3.751   4.051 -0.6958  0.3747 -0.0694
 3423TIP3    H110275   1.362   3.718   3.974  0.8314 -0.0376  0.9954
 3423TIP3    H210276   1.226   3.720   4.039 -0.0164 -1.5321 -0.6351
 3424TIP3   OH210277   3.103   5.076   4.584 -0.1775  0.1903 -0.4669
 3424TIP3    H110278   3.011   5.050   4.577 -0.0659 -0.3081 -0.1497
 3424TIP3    H210279   3.139   5.018   4.651  0.4183  0.2414 -0.7377
 3425TIP3   OH210280   4.681   2.140   0.790 -0.2321 -0.5247  0.2655
 3425TIP3    H110281   4.706   2.090   0.869 -0.7784 -1.9413 -0.4197
 3425TIP3    H210282   4.701   2.231   0.812 -0.0817 -0.9230  1.9265
 3426TIP3   OH210283   1.673   5.057   4.750 -0.2885 -0.0475 -0.5927
 3426TIP3    H110284   1.718   5.054   4.665  2.6680  0.7702  0.8080
 3426TIP3    H210285   1.711   4.983   4.799  0.2040  1.1708  0.9376
 3427TIP3   OH210286   2.200   3.576   0.699  0.0793  0.1349 -0.2841
 3427TIP3    H110287   2.225   3.667   0.713 -0.5469  0.6940 -2.3721
 3427TIP3    H210288   2.272   3.525   0.734  0.1105  1.3814  1.6022
 3428TIP3   OH210289   4.659   3.234   0.414  0.7302  0.4116 -1.1490
 3428TIP3    H110290   4.593   3.289   0.372  0.0398  0.0308 -0.5725
 3428TIP3    H210291   4.727   3.295   0.441  0.0360  0.9642 -0.6365
 3429TIP3   OH210292   2.706   2.257   4.452  0.3055  0.1076 -0.0477
 3429TIP3    H110293   2.661   2.327   4.406 -0.8149 -0.9213 -0.5629
 3429TIP3    H210294   2.640   2.220   4.511  0.6285 -1.0399 -0.3771
 3430TIP3   OH210295   0.812   0.642   2.281  0.2961 -0.1056  0.3878
 3430TIP3    H110296   0.870   0.634   2.356  0.9184  1.3962  0.1181
 3430TIP3    H210297   0.798   0.737   2.272  0.6530 -0.1955 -1.6592
 3431TIP3   OH210298   4.634   4.751   3.782  0.2661  0.2451  0.1796
 3431TIP3    H110299   4.712   4.736   3.730 -0.7359 -1.4258 -0.9279
 3431TIP3    H210300   4.566   4.773   3.718 -0.3784  0.8270  1.0362
 3432TIP3   OH210301   3.551   3.153   1.029  0.1472 -0.7106  0.5244
 3432TIP3    H110302   3.608   3.228   1.044 -2.7475  2.1106 -1.3054
 3432TIP3    H210303   3.541   3.149   0.934  2.5074 -5.4882  0.1947
 3433TIP3   OH210304   5.417   1.541   4.629  0.6522  0.1670  0.4262
 3433TIP3    H110305   5.487   1.544   4.695  2.6504  0.6793 -1.6045
 3433TIP3    H210306   5.455   1.582   4.551 -2.1962  1.1399 -0.5784
 3434TIP3   OH210307   1.656   4.193   4.928  0.0320  0.0443  0.1612
 3434TIP3    H110308   1.681   4.245   4.852  1.2283  0.5334  0.8653
 3434TIP3    H210309   1.683   4.246   5.003 -1.4821 -0.2414  0.9623
 3435TIP3   OH210310   0.179   4.199   0.762  0.0297 -0.3061 -0.2386
 3435TIP3    H110311   0.098   4.152   0.779  0.6971 -1.1843  0.7049
 3435TIP3    H210312   0.247   4.145   0.804  0.9761  0.8819 -0.1701
 3436TIP3   OH210313   5.455   5.369   2.834  0.2595  0.9992 -0.2915
 3436TIP3    H110314   5.450   5.416   2.751 -1.6142 -0.5134 -1.1202
 3436TIP3    H210315   5.375   5.317   2.837  1.1883 -0.4667  1.5607
 3437TIP3   OH210316   0.782   1.481   1.095  0.1203 -0.0783 -0.2826
 3437TIP3    H110317   0.878   1.477   1.098  0.2711  2.4209  1.4304
 3437TIP3    H210318   0.754   1.451   1.181 -0.6194 -0.3495 -0.6133
 3438TIP3   OH210319   5.461   1.336   3.214 -0.0545 -0.1730 -0.2108
 3438TIP3    H110320   5.427   1.363   3.129  0.2769 -0.9430 -0.5954
 3438TIP3    H210321   5.392   1.282   3.252  0.1653 -0.5774 -0.3847
 3439TIP3   OH210322   2.447   0.582   3.683  0.0933 -0.0839 -0.4904
 3439TIP3    H110323   2.433   0.658   3.739  0.4300  0.1818 -0.7558
 3439TIP3    H210324   2.390   0.514   3.718 -1.0431  0.6307 -0.9125
 3440TIP3   OH210325   3.315   3.821   2.058 -0.2826 -0.3046 -0.1342
 3440TIP3    H110326   3.311   3.906   2.101  0.4493 -0.7770  0.8951
 3440TIP3    H210327   3.241   3.822   1.997 -1.0165  0.5896  0.7320
 3441TIP3   OH210328   5.552   3.386   0.103  0.0789  0.2272  0.0980
 3441TIP3    H110329   5.642   3.366   0.075 -0.2040  0.1062 -0.7472
 3441TIP3    H210330   5.563   3.429   0.188  0.8773 -0.7336  0.5002
 3442TIP3   OH210331   5.421   4.074   1.953 -0.4624  0.3360 -0.3788
 3442TIP3    H110332   5.485   4.041   1.890 -2.5817 -0.0628 -2.4769
 3442TIP3    H210333   5.450   4.038   2.037  1.3059 -0.9184 -1.4452
 3443TIP3   OH210334   0.405   0.583   3.134  0.1711 -0.4797 -0.5465
 3443TIP3    H110335   0.445   0.590   3.047  0.9386 -0.7109 -0.2182
 3443TIP3    H210336   0.399   0.489   3.151 -0.3617 -0.4443 -0.5182
 3444TIP3   OH210337   1.798   1.599   1.137 -0.4100  0.1246 -0.0159
 3444TIP3    H110338   1.752   1.577   1.218 -1.0669  0.3086 -0.3306
 3444TIP3    H210339   1.879   1.642   1.166  0.6473 -2.1136  0.6124
 3445TIP3   OH210340   2.139   4.079   0.025  0.6354  0.6692  0.1765
 3445TIP3    H110341   2.063   4.025   0.047  0.1917  1.6425  1.0931
 3445TIP3    H210342   2.145   4.142   0.096  0.5370  2.4859 -1.3464
 3446TIP3   OH210343   1.028   2.283   3.603  0.7610 -0.7734  0.1721
 3446TIP3    H110344   0.979   2.349   3.554  2.2235  0.5539  0.4425
 3446TIP3    H210345   0.963   2.246   3.664 -0.2061  0.0359 -0.3374
 3447TIP3   OH210346   1.722   3.707   0.331 -0.1056  0.7544  0.3739
 3447TIP3    H110347   1.718   3.627   0.383  1.7258  1.5194  1.8273
 3447TIP3    H210348   1.803   3.698   0.281  0.1668  1.7281  0.6268
 3448TIP3   OH210349   5.205   0.397   1.243  0.0583 -0.2064 -0.0595
 3448TIP3    H110350   5.241   0.426   1.327 -0.5208 -0.5220  0.3031
 3448TIP3    H210351   5.140   0.331   1.266  0.2826 -0.6965 -0.7897
 3449TIP3   OH210352   5.950   0.144   3.623 -0.1445  0.2439  0.2164
 3449TIP3    H110353   5.882   0.210   3.636 -2.2901 -1.7163 -0.2761
 3449TIP3    H210354   5.984   0.160   3.535 -0.1780  1.0637  0.3495
 3450TIP3   OH210355   3.065   0.740   0.546 -0.4190 -0.9699  0.1180
 3450TIP3    H110356   3.044   0.798   0.619 -2.2604 -0.5061 -0.7292
 3450TIP3    H210357   3.143   0.778   0.506 -1.3790  0.7633 -0.2044
 3451TIP3   OH210358   6.034   2.530   2.217  0.0444  0.1248 -0.3944
 3451TIP3    H110359   6.111   2.518   2.162 -0.1939 -1.4613 -0.4081
 3451TIP3    H210360   6.040   2.622   2.246  1.3021  0.3618 -1.3189
 3452TIP3   OH210361   2.903   5.852   1.941 -0.7404 -0.3188 -0.9214
 3452TIP3    H110362   2.841   5.906   1.892 -0.8449  1.5296  1.1022
 3452TIP3    H210363   2.950   5.802   1.874 -2.7629 -0.0025 -2.6667
 3453TIP3   OH210364   3.312   2.948   2.246 -0.1378 -0.3994 -0.1874
 3453TIP3    H110365   3.384   3.002   2.214 -0.8792  0.3956 -0.5453
 3453TIP3    H210366   3.331   2.861   2.212  0.6779 -0.2133 -0.2387
 3454TIP3   OH210367   4.150   2.915   4.634 -0.2152 -0.4254 -0.2891
 3454TIP3    H110368   4.125   2.822   4.637 -0.1542 -0.4770 -1.1721
 3454TIP3    H210369   4.098   2.956   4.704  1.6360 -1.5462  1.8882
 3455TIP3   OH210370   2.581   3.003   4.630 -0.4842  0.1180  0.0710
 3455TIP3    H110371   2.581   2.937   4.560 -1.7615  0.4392 -0.2689
 3455TIP3    H210372   2.588   2.952   4.711 -0.5029 -0.3644 -0.2245
 3456TIP3   OH210373   3.145   4.800   3.935 -0.0158  0.1002  0.0689
 3456TIP3    H110374   3.239   4.797   3.947 -0.1440  0.1033  1.1262
 3456TIP3    H210375   3.110   4.744   4.004 -0.7706 -0.2175 -0.5565
 3457TIP3   OH210376   0.153   5.424   4.348 -0.4651 -0.4506  0.6102
 3457TIP3    H110377   0.217   5.489   4.319 -0.9838 -0.4179 -0.5305
 3457TIP3    H210378   0.194   5.381   4.423  0.9172 -0.4799 -0.1317
 3458TIP3   OH210379   0.715   2.286   0.281  0.1612  0.2365 -0.4805
 3458TIP3    H110380   0.690   2.281   0.373  0.8189  0.7476 -0.2719
 3458TIP3    H210381   0.723   2.194   0.254 -0.1556  0.0840 -0.0657
 3459TIP3   OH210382   4.576   4.356   3.902  0.4862  0.2583 -0.5393
 3459TIP3    H110383   4.663   4.357   3.940 -0.2604 -0.1149  1.2910
 3459TIP3    H210384   4.538   4.441   3.925 -0.1459 -0.1550 -0.0080
 3460TIP3   OH210385   3.675   3.387   2.342 -0.0495  0.0694 -0.2658
 3460TIP3    H110386   3.606   3.374   2.278  0.2249  0.1514 -0.5835
 3460TIP3    H210387   3.652   3.330   2.415  0.6890 -1.5518 -1.2586
 3461TIP3   OH210388   2.024   5.139   2.919 -0.0566  0.0137 -0.0835
 3461TIP3    H110389   2.021   5.044   2.926 -0.6163 -0.2094 -2.3756
 3461TIP3    H210390   1.937   5.163   2.885  0.1616  1.3091  0.2343
 3462TIP3   OH210391   0.542   5.142   0.437  0.0172 -0.0741  0.1832
 3462TIP3    H110392   0.458   5.120   0.395 -0.5753 -0.9701  1.7710
 3462TIP3    H210393   0.608   5.110   0.375 -0.8253 -3.1039  0.6921
 3463TIP3   OH210394   0.649   3.828   3.253  0.2439  0.0400 -0.0566
 3463TIP3    H110395   0.701   3.779   3.190  0.4321 -1.2556  1.0531
 3463TIP3    H210396   0.709   3.892   3.290 -0.1854  1.6959 -2.0333
 3464TIP3   OH210397   5.978   3.919   2.689  0.7143  0.0946 -0.1336
 3464TIP3    H110398   6.032   3.844   2.713 -0.7799 -0.7595  0.7122
 3464TIP3    H210399   6.040   3.990   2.673  2.0837 -0.9431  0.4372
 3465TIP3   OH210400   2.696   2.352   1.161 -0.6079 -0.4083  0.5164
 3465TIP3    H110401   2.753   2.275   1.155 -1.7621 -1.3463  1.2421
 3465TIP3    H210402   2.737   2.408   1.226 -1.0635 -1.5894  1.8575
 3466TIP3   OH210403   1.818   0.551   4.980 -0.1145 -0.0853 -0.4431
 3466TIP3    H110404   1.762   0.608   4.927  0.6567 -0.3299 -1.5540
 3466TIP3    H210405   1.757   0.494   5.026 -0.7881 -1.3467 -2.7485
 3467TIP3   OH210406   3.829   4.408   1.632 -0.4850  0.0110  0.4482
 3467TIP3    H110407   3.876   4.345   1.686  0.1578  0.3664  0.3208
 3467TIP3    H210408   3.874   4.492   1.649  1.0460 -0.1820 -2.0739
 3468TIP3   OH210409   4.910   4.126   1.744  0.7729  0.1378 -0.0215
 3468TIP3    H110410   4.984   4.090   1.792 -0.3530  0.3564  1.9996
 3468TIP3    H210411   4.833   4.084   1.783 -0.2327  0.5640 -1.4529
 3469TIP3   OH210412   4.470   0.805   1.557 -0.4855 -0.3693  0.0095
 3469TIP3    H110413   4.533   0.828   1.626  0.1923 -0.7570 -0.4646
 3469TIP3    H210414   4.519   0.815   1.476 -2.0259  2.6977 -0.6678
 3470TIP3   OH210415   1.755   4.811   1.788  0.1227 -0.6204 -0.7776
 3470TIP3    H110416   1.697   4.758   1.842  1.0574 -2.1672 -1.2284
 3470TIP3    H210417   1.715   4.898   1.788 -3.6072 -2.1052 -3.1031
 3471TIP3   OH210418   3.403   0.647   2.787 -1.1164 -0.4137 -0.2121
 3471TIP3    H110419   3.354   0.698   2.852 -1.9352 -0.6287 -0.6480
 3471TIP3    H210420   3.427   0.566   2.834  1.3804  0.8670  0.9219
 3472TIP3   OH210421   4.360   0.315   0.383  0.0855  0.2490 -0.2631
 3472TIP3    H110422   4.405   0.334   0.465 -0.3980  0.4088 -0.0320
 3472TIP3    H210423   4.272   0.352   0.394 -0.7528 -1.7181  0.0466
 3473TIP3   OH210424   4.188   5.487   1.148 -0.1192  0.2729 -0.1407
 3473TIP3    H110425   4.248   5.528   1.086  1.1576 -1.1621  0.0941
 3473TIP3    H210426   4.128   5.436   1.093 -0.1558  0.4862 -0.2984
 3474TIP3   OH210427   1.726   4.074   2.743  0.1587  0.1455 -0.4452
 3474TIP3    H110428   1.646   4.110   2.704  0.4135  1.4839  0.2034
 3474TIP3    H210429   1.783   4.150   2.755  0.8970 -0.5373  0.5853
 3475TIP3   OH210430   3.342   1.598   2.818 -0.1830 -0.1079  0.2275
 3475TIP3    H110431   3.252   1.566   2.808  0.0541 -1.0587  0.9894
 3475TIP3    H210432   3.353   1.612   2.912  0.0557  1.2898  0.0135
 3476TIP3   OH210433   5.521   5.163   4.211  0.1987  0.1356 -0.3844
 3476TIP3    H110434   5.516   5.091   4.273  1.6226  0.2145 -0.1352
 3476TIP3    H210435   5.583   5.132   4.144 -0.1036  0.6609 -0.9119
 3477TIP3   OH210436   4.915   4.699   0.711  0.4281  0.6660  0.2601
 3477TIP3    H110437   4.902   4.710   0.806 -3.2006 -2.8421  0.4500
 3477TIP3    H210438   4.862   4.769   0.672 -3.2265 -1.3455  1.1003
 3478TIP3   OH210439   2.695   3.884   3.714 -0.0181 -1.0132 -0.2822
 3478TIP3    H110440   2.735   3.798   3.703  1.2517 -0.2653 -1.9958
 3478TIP3    H210441   2.768   3.943   3.729 -0.9419 -0.3122  1.8930
 3479TIP3   OH210442   3.793   1.398   0.141 -0.2467  0.0212  0.5158
 3479TIP3    H110443   3.828   1.391   0.230  1.8284  0.2001 -0.2206
 3479TIP3    H210444   3.768   1.490   0.132  1.0983  0.3970  0.4105
 3480TIP3   OH210445   5.099   3.359   4.943 -0.1942 -0.3666  0.6783
 3480TIP3    H110446   5.115   3.367   5.037  1.6724  0.1958  0.3486
 3480TIP3    H210447   5.045   3.434   4.921  2.4223  1.6674  0.7180
 3481TIP3   OH210448   4.585   1.705   0.154 -0.5751  0.1615  0.2417
 3481TIP3    H110449   4.634   1.633   0.113 -1.2484  1.0245 -2.2143
 3481TIP3    H210450   4.647   1.778   0.156 -0.6174  0.1931  0.6362
 3482TIP3   OH210451   2.237   5.250   3.048  0.2232  0.2793 -0.8755
 3482TIP3    H110452   2.148   5.241   3.015 -0.3396 -0.6735  0.7802
 3482TIP3    H210453   2.279   5.167   3.026 -0.0921 -0.2800  0.4858
 3483TIP3   OH210454   5.819   2.960   3.596  0.7052 -0.3577  0.5155
 3483TIP3    H110455   5.858   3.048   3.595  0.4138 -0.1496  2.5607
 3483TIP3    H210456   5.891   2.902   3.618  0.6295 -0.4803  0.4417
 3484TIP3   OH210457   3.542   2.601   2.890 -0.4859 -0.7898 -0.1518
 3484TIP3    H110458   3.574   2.568   2.974 -0.0277 -0.4649 -0.1963
 3484TIP3    H210459   3.458   2.642   2.911 -0.7317 -1.3764  0.0183
 3485TIP3   OH210460   2.055   4.650   1.869 -0.0510  0.7657  0.0359
 3485TIP3    H110461   2.015   4.671   1.953  1.3342  1.4061  0.5649
 3485TIP3    H210462   2.133   4.599   1.891 -0.2141  0.0605 -0.9276
 3486TIP3   OH210463   0.066   2.567   4.579  0.2784  0.5099 -0.0953
 3486TIP3    H110464   0.117   2.646   4.561  0.6560  0.0467 -1.1539
 3486TIP3    H210465   0.026   2.583   4.665 -0.1610  2.1069 -0.5697
 3487TIP3   OH210466   3.991   5.763   1.554  0.0307  0.1687  0.0976
 3487TIP3    H110467   4.009   5.669   1.544 -0.5181  0.2839 -2.8268
 3487TIP3    H210468   3.911   5.777   1.505 -0.4146  2.0578  1.2831
 3488TIP3   OH210469   2.269   0.524   5.012  0.4626  0.2861 -0.2352
 3488TIP3    H110470   2.260   0.614   4.982 -1.7630  0.1860 -0.0677
 3488TIP3    H210471   2.206   0.475   4.958 -0.1798 -0.7083  1.3304
 3489TIP3   OH210472   0.863   5.531   1.621 -0.3315 -0.8534  0.1635
 3489TIP3    H110473   0.808   5.566   1.691 -0.8351 -0.6693 -0.3170
 3489TIP3    H210474   0.928   5.599   1.605 -0.0659 -0.9971  0.6138
 3490TIP3   OH210475   4.849   2.235   1.194  0.0867  0.2586 -0.4759
 3490TIP3    H110476   4.817   2.145   1.195 -2.0517  0.9397  1.0414
 3490TIP3    H210477   4.932   2.232   1.243 -0.6549 -0.6941  0.7769
 3491TIP3   OH210478   2.935   5.646   3.663 -0.0195  0.1420 -0.0888
 3491TIP3    H110479   2.878   5.681   3.594  0.7773  0.1250 -0.7765
 3491TIP3    H210480   2.995   5.718   3.683  1.0317 -0.4960 -0.8487
 3492TIP3   OH210481   0.312   4.086   4.927 -0.0653  0.4978 -0.3853
 3492TIP3    H110482   0.377   4.026   4.964 -0.7013  0.2406  0.3361
 3492TIP3    H210483   0.236   4.077   4.984 -1.0818  0.1039 -1.7375
 3493TIP3   OH210484   5.088   2.235   0.417 -0.3963  0.0622  0.5588
 3493TIP3    H110485   5.133   2.304   0.369 -0.8556 -0.2226 -0.3026
 3493TIP3    H210486   5.014   2.211   0.361  0.4144 -1.9572  0.2630
 3494TIP3   OH210487   1.370   0.162   2.961  0.4018  0.5392  0.5642
 3494TIP3    H110488   1.452   0.140   2.917 -0.5686  0.7101 -1.4033
 3494TIP3    H210489   1.321   0.080   2.964 -0.8941  1.1644 -1.7233
 3495TIP3   OH210490   3.920   0.413   3.068  0.3273  0.3842  0.3800
 3495TIP3    H110491   3.863   0.356   3.120 -0.6293  2.2038  1.4508
 3495TIP3    H210492   3.867   0.491   3.053  2.3017  1.8609  0.7739
 3496TIP3   OH210493   0.672   5.073   3.650 -0.4585 -0.2927  0.3731
 3496TIP3    H110494   0.671   5.080   3.555 -0.5306  1.6162  0.4715
 3496TIP3    H210495   0.649   5.161   3.681 -1.3686 -1.0924  2.1534
 3497TIP3   OH210496   4.415   4.549   1.964 -0.3909  0.0313 -0.3028
 3497TIP3    H110497   4.353   4.483   1.994 -2.2396  2.3563  1.3009
 3497TIP3    H210498   4.426   4.609   2.038  3.2647  0.1922 -0.7594
 3498TIP3   OH210499   2.669   1.616   1.910 -0.7492  0.4320  0.1523
 3498TIP3    H110500   2.688   1.657   1.994 -0.9795  0.8695 -0.0081
 3498TIP3    H210501   2.744   1.638   1.855 -0.7408  0.3999  0.1506
 3499TIP3   OH210502   6.063   4.522   2.507 -0.0632  0.3844 -0.6633
 3499TIP3    H110503   6.084   4.436   2.469  1.8362  0.7653 -0.5807
 3499TIP3    H210504   5.993   4.503   2.569  0.3168 -1.1245 -0.6376
 3500TIP3   OH210505   0.859   4.800   3.534  0.1597 -0.2547  0.0530
 3500TIP3    H110506   0.806   4.880   3.539 -0.1536 -0.5276  1.6459
 3500TIP3    H210507   0.795   4.730   3.524  0.3198 -0.4426  0.3295
 3501TIP3   OH210508   0.023   2.487   3.805 -0.1348 -0.4992  0.6029
 3501TIP3    H110509  -0.000   2.533   3.725  1.1940 -0.1683  0.3836
 3501TIP3    H210510  -0.019   2.401   3.797 -0.6928 -0.1677 -0.0537
 3502TIP3   OH210511   2.922   5.156   4.838  0.3863 -0.3337 -0.1323
 3502TIP3    H110512   2.968   5.079   4.806  0.0515  0.0692 -1.6313
 3502TIP3    H210513   2.886   5.198   4.760  1.0868  1.7007  0.5670
 3503TIP3   OH210514   5.870   2.649   1.937 -0.1066 -0.3819 -0.4377
 3503TIP3    H110515   5.946   2.639   1.995 -1.1134 -0.4386  0.9412
 3503TIP3    H210516   5.905   2.638   1.849  1.3838 -1.0024  0.1912
 3504TIP3   OH210517   5.535   0.426   0.730  0.3861 -0.0153 -0.1594
 3504TIP3    H110518   5.469   0.422   0.661  2.1499  0.1493 -1.9622
 3504TIP3    H210519   5.548   0.519   0.746 -1.0149 -0.0567  1.4807
 3505TIP3   OH210520   5.129   4.564   2.830 -0.2267 -0.4017 -0.3748
 3505TIP3    H110521   5.157   4.541   2.919  3.1622 -0.6763 -1.3744
 3505TIP3    H210522   5.074   4.490   2.802 -1.8123 -0.0470  1.6186
 3506TIP3   OH210523   1.592   1.704   3.061  0.1157  0.4031 -0.2019
 3506TIP3    H110524   1.675   1.733   3.024 -0.0395 -0.4727 -1.2883
 3506TIP3    H210525   1.611   1.618   3.098 -0.0335  0.7280  0.6517
 3507TIP3   OH210526   1.020   5.093   0.211 -0.3127 -0.8797 -0.0304
 3507TIP3    H110527   1.052   5.063   0.126 -0.4652  0.9819 -0.7943
 3507TIP3    H210528   1.021   5.189   0.205 -1.0699 -0.7067  1.7941
 3508TIP3   OH210529   4.924   3.985   2.188 -0.0012 -0.2440  0.2439
 3508TIP3    H110530   4.987   3.934   2.137 -0.7478 -0.0175 -0.9212
 3508TIP3    H210531   4.884   3.921   2.248  0.0051 -0.7616 -0.3013
 3509TIP3   OH210532   5.973   1.932   1.093 -0.2703 -0.1106  0.1270
 3509TIP3    H110533   5.998   1.913   1.002 -3.1521 -0.1732 -0.7620
 3509TIP3    H210534   6.005   2.020   1.109  3.1201 -1.2334  0.2648
 3510TIP3   OH210535   4.613   4.850   2.212 -0.4478 -0.2734  0.9098
 3510TIP3    H110536   4.611   4.939   2.179  0.4413 -0.0615  1.3886
 3510TIP3    H210537   4.522   4.820   2.206 -0.7545  0.6533  0.7373
 3511TIP3   OH210538   3.761   2.420   0.248  0.1071 -0.0455 -0.3103
 3511TIP3    H110539   3.681   2.383   0.213  0.7580  1.7543 -4.2546
 3511TIP3    H210540   3.831   2.385   0.193  1.3334  2.6181 -0.6324
 3512TIP3   OH210541   1.097   1.766   1.157 -0.3374  0.1830 -0.3227
 3512TIP3    H110542   1.130   1.694   1.211  3.1056  1.0620 -1.0398
 3512TIP3    H210543   1.058   1.723   1.081  0.9844 -0.9986 -0.3783
 3513TIP3   OH210544   1.884   5.754   0.561 -0.6444 -0.0321  0.0174
 3513TIP3    H110545   1.813   5.699   0.595 -1.9266  1.6598  0.1989
 3513TIP3    H210546   1.871   5.754   0.466 -0.1987 -0.5923 -0.0520
 3514TIP3   OH210547   2.040   0.593   4.664  0.1126  0.0207  0.1486
 3514TIP3    H110548   2.018   0.548   4.746  0.3592 -1.2001 -0.4234
 3514TIP3    H210549   1.956   0.625   4.631 -0.2896 -1.1564 -0.0510
 3515TIP3   OH210550   0.452   2.798   1.096 -0.1821 -0.5701 -0.3522
 3515TIP3    H110551   0.363   2.826   1.075 -0.2084  0.7864  1.3017
 3515TIP3    H210552   0.457   2.806   1.191  2.1883  0.9909 -0.5289
 3516TIP3   OH210553   6.293   4.536   0.953 -0.6214 -0.6023  0.1414
 3516TIP3    H110554   6.208   4.580   0.961  0.0642  0.7840  0.0252
 3516TIP3    H210555   6.288   4.464   1.016 -2.5006 -1.5890 -1.0446
 3517TIP3   OH210556   5.241   5.614   2.148 -0.1438 -0.2487 -0.4496
 3517TIP3    H110557   5.273   5.567   2.225  1.4137  0.9814 -0.3135
 3517TIP3    H210558   5.290   5.577   2.075 -0.7239 -0.5432 -0.6991
 3518TIP3   OH210559   5.378   4.518   3.658  0.3624 -0.8024 -0.1546
 3518TIP3    H110560   5.452   4.477   3.613  0.7890 -1.0932  0.8025
 3518TIP3    H210561   5.418   4.574   3.725 -0.1627  1.5231 -1.6357
 3519TIP3   OH210562   3.851   3.264   0.441  0.3344  0.5413 -0.4988
 3519TIP3    H110563   3.881   3.193   0.384 -2.0580 -1.7846  0.8932
 3519TIP3    H210564   3.876   3.235   0.529  2.1227  3.0573 -0.0754
 3520TIP3   OH210565   5.651   5.840   0.137 -0.2153  0.2049 -0.0685
 3520TIP3    H110566   5.702   5.786   0.198  0.0855 -0.1648 -0.6439
 3520TIP3    H210567   5.709   5.855   0.063  0.0464  2.0866  0.4484
 3521TIP3   OH210568   2.390   5.768   1.903  0.0311  0.5218 -0.4641
 3521TIP3    H110569   2.394   5.817   1.985  1.2473  0.0175 -0.2071
 3521TIP3    H210570   2.391   5.676   1.929 -2.8459  0.2543 -0.9076
 3522TIP3   OH210571   1.797   0.273   3.971  0.5246 -0.4622  0.2302
 3522TIP3    H110572   1.803   0.203   4.037 -0.4518 -0.9035 -0.1375
 3522TIP3    H210573   1.705   0.300   3.972  0.5892 -0.1693 -0.6396
 3523TIP3   OH210574   3.039   0.393   1.773 -0.0047  0.1923  0.2918
 3523TIP3    H110575   3.060   0.331   1.843  0.4294  0.1865  0.1608
 3523TIP3    H210576   3.117   0.393   1.717 -0.4117  0.0780 -0.2817
 3524TIP3   OH210577   4.625   2.218   0.241 -0.0472  0.2212  0.3809
 3524TIP3    H110578   4.587   2.149   0.186  0.4031 -0.4399  0.8836
 3524TIP3    H210579   4.636   2.176   0.327  1.0780  0.6351  0.4524
 3525TIP3   OH210580   0.572   4.964   1.490  0.2456  0.4056  0.2006
 3525TIP3    H110581   0.548   5.044   1.443  2.1475 -0.3938 -2.3914
 3525TIP3    H210582   0.490   4.932   1.527 -1.0059  2.2322 -0.8247
 3526TIP3   OH210583   6.217   1.648   4.148 -0.1108 -0.1738  0.0230
 3526TIP3    H110584   6.282   1.587   4.112 -0.3594 -0.0635 -0.6193
 3526TIP3    H210585   6.252   1.735   4.128 -0.3528 -0.1140 -0.1406
 3527TIP3   OH210586   0.174   5.333   0.050 -0.1537  0.5057 -0.4307
 3527TIP3    H110587   0.106   5.292   0.103  0.5965 -1.2894 -0.7578
 3527TIP3    H210588   0.251   5.278   0.064  0.9488  1.8822 -0.8751
 3528TIP3   OH210589   6.131   5.135   3.651  0.0675  0.0625  0.1078
 3528TIP3    H110590   6.153   5.175   3.735  0.8259 -2.1800  1.0677
 3528TIP3    H210591   6.192   5.174   3.589  2.6992 -1.4848  1.5447
 3529TIP3   OH210592   4.574   2.781   2.822  0.4612 -0.1561 -0.0947
 3529TIP3    H110593   4.508   2.770   2.754 -1.4754  0.1432  1.6336
 3529TIP3    H210594   4.592   2.692   2.853  0.8112 -0.2280 -0.4929
 3530TIP3   OH210595   6.272   3.607   2.755  0.2275 -0.6152  1.0326
 3530TIP3    H110596   6.287   3.684   2.811 -1.5097  1.6768 -1.4106
 3530TIP3    H210597   6.177   3.606   2.742  0.4123 -2.1588 -0.3952
 3531TIP3   OH210598   3.131   3.290   1.350  0.0560 -0.0625  0.0710
 3531TIP3    H110599   3.101   3.244   1.272 -1.5249 -0.3043  0.7730
 3531TIP3    H210600   3.078   3.254   1.421  0.3720  1.2344  1.0081
 3532TIP3   OH210601   5.071   3.075   2.378 -0.5704  0.0892 -0.7654
 3532TIP3    H110602   5.023   3.150   2.345 -1.2558 -0.4192 -0.9320
 3532TIP3    H210603   5.011   3.001   2.370  0.1311 -0.5074 -0.7150
 3533TIP3   OH210604   4.943   5.145   0.879 -0.3867  0.5750  0.6091
 3533TIP3    H110605   4.992   5.226   0.867  1.5815 -0.8227 -2.0834
 3533TIP3    H210606   4.995   5.079   0.832 -2.2791 -2.1027  2.0067
 3534TIP3   OH210607   3.886   5.903   0.416 -0.0381 -0.1980 -0.3728
 3534TIP3    H110608   3.966   5.920   0.465 -0.8067  0.9753  0.5164
 3534TIP3    H210609   3.914   5.849   0.342  1.9595  2.0617 -1.3705
 3535TIP3   OH210610   4.902   1.096   4.259  0.1699 -0.3023  0.1860
 3535TIP3    H110611   4.990   1.127   4.283 -0.0311 -1.1386  2.2309
 3535TIP3    H210612   4.917   1.034   4.188  0.9231  1.5685 -1.3927
 3536TIP3   OH210613   1.481   1.136   2.627  0.0075  0.0627 -0.2595
 3536TIP3    H110614   1.407   1.077   2.640 -0.6057  0.5488 -1.3179
 3536TIP3    H210615   1.444   1.224   2.642  0.3045  0.3193 -0.9621
 3537TIP3   OH210616   0.885   2.551   2.101 -0.0764 -1.1855  0.0381
 3537TIP3    H110617   0.964   2.507   2.071  0.5986  0.3531 -0.5434
 3537TIP3    H210618   0.883   2.633   2.052 -2.0238 -1.1655  0.0687
 3538TIP3   OH210619   1.683   1.753   4.798  0.1389  0.5763 -0.7781
 3538TIP3    H110620   1.696   1.658   4.793 -1.4272  0.3991 -2.0035
 3538TIP3    H210621   1.767   1.789   4.769  1.9609 -0.3030  2.7561
 3539TIP3   OH210622   0.942   1.085   1.532 -0.4965 -0.2792  0.1363
 3539TIP3    H110623   0.926   1.048   1.445  0.0054  1.0483 -0.5627
 3539TIP3    H210624   0.859   1.074   1.578 -1.0355 -0.2934 -0.8005
 3540TIP3   OH210625   0.126   3.773   4.566  0.3116 -0.4424  0.1670
 3540TIP3    H110626   0.182   3.839   4.607  0.4847 -1.0073  0.8515
 3540TIP3    H210627   0.050   3.767   4.623 -0.6202  0.5447 -0.9176
 3541TIP3   OH210628   1.988   0.655   5.168  0.1351 -0.7148 -0.2057
 3541TIP3    H110629   1.936   0.625   5.093  0.0798  0.3358 -0.5945
 3541TIP3    H210630   1.979   0.584   5.232 -2.7843 -0.0765  0.2254
 3542TIP3   OH210631   2.470   3.783   4.647  0.7056 -0.2316  0.1755
 3542TIP3    H110632   2.556   3.787   4.605 -0.4411  0.2908 -2.2439
 3542TIP3    H210633   2.461   3.692   4.674  2.3647 -0.1069  1.3182
 3543TIP3   OH210634   0.644   4.457   5.050  0.4264 -0.1885 -0.5385
 3543TIP3    H110635   0.703   4.477   5.122  1.6592  1.4605 -1.9145
 3543TIP3    H210636   0.619   4.365   5.063  1.8824 -0.3882  1.0631
 3544TIP3   OH210637   5.558   1.956   4.078 -0.2178 -0.5074 -0.2673
 3544TIP3    H110638   5.558   2.043   4.117 -0.1828 -0.4565 -0.3835
 3544TIP3    H210639   5.639   1.916   4.108  0.0600 -0.2816 -0.7129
 3545TIP3   OH210640   2.586   4.275   4.681  0.2302  0.2653 -0.0661
 3545TIP3    H110641   2.495   4.252   4.665 -0.2427 -0.8375  3.3787
 3545TIP3    H210642   2.629   4.192   4.702  2.3677  0.5964 -2.6289
 3546TIP3   OH210643   3.196   3.864   1.036 -0.5869  0.3829 -0.2358
 3546TIP3    H110644   3.139   3.806   0.984  0.0665 -1.0381  0.5630
 3546TIP3    H210645   3.183   3.835   1.126  0.7582  0.5862  0.0427
 3547TIP3   OH210646   1.502   4.331   2.682 -0.2806  0.1311  0.3702
 3547TIP3    H110647   1.435   4.308   2.618 -0.2918 -0.7344  0.6815
 3547TIP3    H210648   1.541   4.412   2.649 -0.0996 -0.4492 -0.8681
 3548TIP3   OH210649   3.664   3.383   0.675  0.7979  0.2267  0.4959
 3548TIP3    H110650   3.672   3.434   0.595  1.5686  1.3249  1.2333
 3548TIP3    H210651   3.676   3.447   0.745 -1.2074 -0.4469  1.5430
 3549TIP3   OH210652   3.525   0.162   2.423  0.2251  0.1816 -0.0624
 3549TIP3    H110653   3.437   0.161   2.460 -0.0126  0.8336 -0.5933
 3549TIP3    H210654   3.566   0.240   2.461  0.2707  0.3731 -0.5015
 3550TIP3   OH210655   2.952   2.175   0.767 -0.4142  0.3579 -0.6597
 3550TIP3    H110656   2.894   2.099   0.761  0.1444 -0.2187  0.7055
 3550TIP3    H210657   2.950   2.199   0.859  0.0063  1.5491 -0.9474
 3551TIP3   OH210658   0.404   1.878   0.466 -0.4304  0.0804 -0.3320
 3551TIP3    H110659   0.427   1.787   0.448  1.4949 -0.2207  2.9026
 3551TIP3    H210660   0.312   1.876   0.490 -0.5144 -0.9265 -0.6976
 3552TIP3   OH210661   5.691   5.334   4.346  0.2851 -0.0911  0.9424
 3552TIP3    H110662   5.617   5.293   4.302  1.5462 -0.0251 -1.3996
 3552TIP3    H210663   5.692   5.295   4.433 -1.8034 -0.9138  0.6476
 3553TIP3   OH210664   3.732   4.283   0.518 -0.2685 -0.1677  0.4158
 3553TIP3    H110665   3.698   4.261   0.605 -1.4667  1.2819  0.3524
 3553TIP3    H210666   3.827   4.288   0.530 -0.2776 -1.5758  1.2566
 3554TIP3   OH210667   5.316   3.025   0.851 -0.0054 -0.3734  0.6152
 3554TIP3    H110668   5.234   3.054   0.812 -1.0839  0.2978  3.1436
 3554TIP3    H210669   5.384   3.072   0.802 -1.2019  0.0511 -0.7000
 3555TIP3   OH210670   2.463   0.894   1.026 -0.4922 -0.2175  0.1986
 3555TIP3    H110671   2.447   0.878   1.119  0.7812 -1.8435  0.1970
 3555TIP3    H210672   2.377   0.910   0.988 -0.9605  1.2967  1.7711
 3556TIP3   OH210673   2.914   1.021   3.567  0.1097 -0.9581 -0.2286
 3556TIP3    H110674   2.959   0.972   3.635 -0.0497  1.5218  1.8008
 3556TIP3    H210675   2.967   1.099   3.554 -2.3441  0.9784  0.6471
 3557TIP3   OH210676   0.349   1.712   1.803  0.3667  0.2342 -0.7743
 3557TIP3    H110677   0.332   1.785   1.742  1.1910  0.3659 -0.8571
 3557TIP3    H210678   0.349   1.754   1.889  0.0010  0.1830 -0.7463
 3558TIP3   OH210679   3.784   3.322   4.206 -0.3013 -0.5578 -0.4200
 3558TIP3    H110680   3.794   3.288   4.117  1.4605 -0.8558 -0.1520
 3558TIP3    H210681   3.874   3.337   4.236 -0.8873  0.2287  1.0537
 3559TIP3   OH210682   0.329   2.114   2.907 -0.4625  0.0455 -0.4230
 3559TIP3    H110683   0.294   2.194   2.868  0.8246  2.1443  2.4204
 3559TIP3    H210684   0.406   2.093   2.854  0.6010  2.1541  0.1631
 3560TIP3   OH210685   2.770   5.268   1.445  0.3800 -0.0227 -0.2220
 3560TIP3    H110686   2.700   5.330   1.424  0.4360  0.1525  0.0968
 3560TIP3    H210687   2.762   5.200   1.379  0.6341  0.5806 -0.8930
 3561TIP3   OH210688   3.015   5.363   2.186 -0.2162  0.4367  0.4456
 3561TIP3    H110689   3.091   5.369   2.128  0.0114 -1.5216  0.4921
 3561TIP3    H210690   3.053   5.347   2.273 -0.6170  1.9116  0.9328
 3562TIP3   OH210691   2.348   3.171   0.180  0.3263 -0.7873 -0.4572
 3562TIP3    H110692   2.303   3.164   0.096 -0.6768  0.6229 -0.0818
 3562TIP3    H210693   2.312   3.251   0.220  0.8611 -1.3527  1.2553
 3563TIP3   OH210694   1.164   0.172   0.903 -0.1234  0.1878  0.0479
 3563TIP3    H110695   1.210   0.151   0.984  0.4377  0.6360 -0.1497
 3563TIP3    H210696   1.074   0.143   0.919 -0.1879  0.9125  1.0909
 3564TIP3   OH210697   5.225   2.149   0.041 -0.2252 -0.3310 -0.5095
 3564TIP3    H110698   5.146   2.138   0.095 -0.3065 -1.3962 -0.8345
 3564TIP3    H210699   5.295   2.164   0.104 -0.8656  2.1197 -0.2465
 3565TIP3   OH210700   4.440   5.813   3.206  0.3070  0.0461 -0.0802
 3565TIP3    H110701   4.373   5.832   3.141  0.8654 -2.6039 -1.5677
 3565TIP3    H210702   4.402   5.744   3.261  1.4277 -0.8037 -0.3390
 3566TIP3   OH210703   5.238   5.125   0.490 -0.4883  0.1435 -0.0092
 3566TIP3    H110704   5.314   5.120   0.432 -1.0186  0.1249 -0.7040
 3566TIP3    H210705   5.182   5.191   0.451 -1.2808 -0.5304 -0.0237
 3567TIP3   OH210706   0.558   5.792   0.809  0.1902 -0.4587  0.4872
 3567TIP3    H110707   0.494   5.862   0.794  0.6680  0.1614  1.2274
 3567TIP3    H210708   0.506   5.712   0.815 -0.6125  0.1253  1.7746
 3568TIP3   OH210709   5.333   0.777   0.949  0.1834  0.0314 -0.0386
 3568TIP3    H110710   5.304   0.840   0.883 -0.4617 -0.4190 -0.1909
 3568TIP3    H210711   5.256   0.761   1.003  0.5988  0.0823  0.5769
 3569TIP3   OH210712   4.525   1.149   3.305 -0.5540 -0.4600  0.7762
 3569TIP3    H110713   4.549   1.133   3.214  3.0485 -2.3252  1.8458
 3569TIP3    H210714   4.540   1.243   3.318  3.5544 -0.8976  0.4305
 3570TIP3   OH210715   2.943   1.907   0.085 -0.2066 -0.4255  0.4257
 3570TIP3    H110716   2.853   1.932   0.106 -0.3850 -1.0690  0.4557
 3570TIP3    H210717   2.935   1.817   0.053  0.0408  0.4152 -2.3041
 3571TIP3   OH210718   1.817   4.391   1.987 -0.2328 -0.4739  0.4049
 3571TIP3    H110719   1.848   4.301   2.004  1.8828  0.2594  0.7969
 3571TIP3    H210720   1.875   4.446   2.040  1.1243  1.3976 -2.7521
 3572TIP3   OH210721   2.427   4.546   1.531  1.0014 -0.2653 -0.1827
 3572TIP3    H110722   2.416   4.536   1.437  1.6607 -0.2086 -0.2702
 3572TIP3    H210723   2.463   4.462   1.561 -1.3628 -1.1315  0.3889
 3573TIP3   OH210724   3.696   3.005   0.395  0.1804 -1.2201  0.2644
 3573TIP3    H110725   3.650   3.084   0.426 -0.6580 -0.7934 -1.9063
 3573TIP3    H210726   3.645   2.933   0.431 -0.8928 -0.7497 -0.2723
 3574TIP3   OH210727   1.348   4.770   4.942  0.2189  0.2729 -0.1385
 3574TIP3    H110728   1.295   4.850   4.950  2.3092  1.6396  1.1312
 3574TIP3    H210729   1.329   4.738   4.854 -3.1922  0.2343  0.4856
 3575TIP3   OH210730   0.373   1.124   0.171 -0.1790 -0.2591  0.1075
 3575TIP3    H110731   0.428   1.047   0.183  0.0857 -0.2947 -1.2118
 3575TIP3    H210732   0.385   1.148   0.079  0.6497  2.0384  0.7539
 3576TIP3   OH210733   1.791   0.237   0.337 -0.5799  0.1800 -0.3463
 3576TIP3    H110734   1.765   0.319   0.379 -0.0570  1.6199 -2.6621
 3576TIP3    H210735   1.833   0.187   0.407  0.4993  2.5466  0.8284
 3577TIP3   OH210736   4.418   0.959   1.978  0.4366  0.2802  0.1734
 3577TIP3    H110737   4.409   1.036   1.922  0.2281  0.5090  0.5178
 3577TIP3    H210738   4.503   0.970   2.022  0.7737 -0.0871 -0.3760
 3578TIP3   OH210739   3.235   2.459   2.508  0.2614 -0.2633  0.1239
 3578TIP3    H110740   3.174   2.416   2.569  0.2612 -1.4407 -0.6780
 3578TIP3    H210741   3.290   2.388   2.475  0.0420  0.2746 -1.5036
 3579TIP3   OH210742   3.492   0.396   2.219  0.3883 -0.2006 -0.4353
 3579TIP3    H110743   3.538   0.356   2.293 -0.5884  0.4283  0.5250
 3579TIP3    H210744   3.408   0.424   2.255 -0.1692 -0.0295 -1.8251
 3580TIP3   OH210745   2.167   2.520   0.606  0.1680 -0.5206  0.0243
 3580TIP3    H110746   2.205   2.453   0.662 -1.0095 -2.4358 -1.3492
 3580TIP3    H210747   2.115   2.575   0.666 -0.0088 -1.7093  1.0105
 3581TIP3   OH210748   0.308   5.852   0.550 -0.4372  0.1841  0.0170
 3581TIP3    H110749   0.335   5.763   0.575  0.0942  0.5714  0.8888
 3581TIP3    H210750   0.339   5.907   0.622 -1.6289  0.9489 -0.0392
 3582TIP3   OH210751   3.271   1.012   1.974  0.5037  0.1368 -0.0859
 3582TIP3    H110752   3.339   0.966   1.924 -0.5417 -1.3758 -0.2048
 3582TIP3    H210753   3.200   1.026   1.910  0.2546  0.6762  0.3049
 3583TIP3   OH210754   4.282   3.120   1.950 -0.1311 -0.2899 -0.2567
 3583TIP3    H110755   4.236   3.153   1.873  1.8689  0.2168 -1.3166
 3583TIP3    H210756   4.374   3.143   1.934  0.7105 -2.4340  1.0823
 3584TIP3   OH210757   5.453   4.043   3.600  0.1522 -0.2103 -0.3403
 3584TIP3    H110758   5.408   4.053   3.517 -1.8561  0.1058  0.7156
 3584TIP3    H210759   5.450   4.130   3.640 -0.2008 -0.6628  0.6582
 3585TIP3   OH210760   2.224   1.565   0.904  0.0718  0.1150 -0.5820
 3585TIP3    H110761   2.149   1.554   0.846  1.0712  0.9208 -2.1123
 3585TIP3    H210762   2.239   1.660   0.905 -0.6766  0.3043  2.0806
 3586TIP3   OH210763   5.107   3.276   2.948  0.4820 -0.0407 -0.2097
 3586TIP3    H110764   5.078   3.191   2.982  1.2653  0.1513  1.0101
 3586TIP3    H210765   5.112   3.263   2.854  1.5595 -1.6822  0.0297
 3587TIP3   OH210766   4.242   1.155   0.095 -0.4830  0.0788 -0.0144
 3587TIP3    H110767   4.147   1.146   0.086 -0.6684  0.8251  1.0312
 3587TIP3    H210768   4.256   1.179   0.187  0.7016  0.2634 -0.2175
 3588TIP3   OH210769   4.719   2.201   0.514  0.0327  0.1813  0.2461
 3588TIP3    H110770   4.736   2.207   0.608 -1.0791  1.5215  0.3786
 3588TIP3    H210771   4.766   2.276   0.477 -0.5235  0.3486 -0.1208
 3589TIP3   OH210772   6.125   3.315   1.722 -0.0651 -0.7829 -0.5161
 3589TIP3    H110773   6.213   3.293   1.694  1.1086  0.7255  1.7019
 3589TIP3    H210774   6.108   3.256   1.796  0.0491  0.4564  0.5333
 3590TIP3   OH210775   0.868   1.282   3.513 -0.5726  0.0216  0.6846
 3590TIP3    H110776   0.879   1.297   3.607 -2.7267 -1.6876  1.2719
 3590TIP3    H210777   0.919   1.203   3.495  1.1879  1.2453  0.0072
 3591TIP3   OH210778   3.835   1.187   3.279  0.1691 -0.3946  0.4809
 3591TIP3    H110779   3.820   1.100   3.242 -1.5336 -0.5359  1.4109
 3591TIP3    H210780   3.844   1.245   3.203 -0.4076 -1.1194 -0.1564
 3592TIP3   OH210781   1.613   1.206   4.425  0.3651 -0.0709 -0.3316
 3592TIP3    H110782   1.682   1.149   4.459 -1.1248 -2.0980 -0.5148
 3592TIP3    H210783   1.595   1.172   4.337 -1.2072  0.0560 -0.0880
 3593TIP3   OH210784   2.409   3.855   2.574  0.2960 -0.4140  0.0773
 3593TIP3    H110785   2.323   3.892   2.594 -1.2746 -2.0091 -2.9511
 3593TIP3    H210786   2.471   3.923   2.598 -1.8119  0.9096  2.1203
 3594TIP3   OH210787   5.808   4.190   3.981  0.5100 -0.2789  0.1265
 3594TIP3    H110788   5.833   4.108   3.939 -2.5599 -1.1249 -0.2990
 3594TIP3    H210789   5.740   4.166   4.043  0.6576  1.7764  1.1855
 3595TIP3   OH210790   5.652   5.797   2.558  0.1636 -0.5109 -0.5868
 3595TIP3    H110791   5.726   5.813   2.617  0.8662  0.7959 -1.7601
 3595TIP3    H210792   5.577   5.837   2.602  0.3292 -1.0376  0.1925
 3596TIP3   OH210793   6.066   1.277   4.726 -0.9340 -0.2560 -0.2935
 3596TIP3    H110794   6.141   1.283   4.786  0.4501 -1.1012 -1.8411
 3596TIP3    H210795   6.062   1.362   4.683 -2.7781  0.8395  1.8467
 3597TIP3   OH210796   1.856   3.075   1.336 -0.5393 -0.2441 -0.6612
 3597TIP3    H110797   1.918   3.010   1.301 -0.3887 -0.4909  0.0510
 3597TIP3    H210798   1.812   3.029   1.408 -1.6211 -0.1023 -1.2160
 3598TIP3   OH210799   4.762   2.616   0.555 -0.3290 -0.0907  0.0527
 3598TIP3    H110800   4.832   2.552   0.567 -0.7690 -0.9175 -1.4418
 3598TIP3    H210801   4.788   2.666   0.478  1.0907  3.1214  2.4320
 3599TIP3   OH210802   2.899   5.481   4.300 -0.4097 -0.5563 -0.1301
 3599TIP3    H110803   2.985   5.519   4.287 -0.2285 -0.9210 -0.0268
 3599TIP3    H210804   2.881   5.494   4.394 -0.4331 -0.5463 -0.1360
 3600TIP3   OH210805   6.179   1.042   3.065 -0.1144 -0.3811  0.2752
 3600TIP3    H110806   6.099   1.094   3.063  2.2896  3.7837  1.0347
 3600TIP3    H210807   6.191   1.012   2.975 -0.9036  1.7479 -0.5860
 3601TIP3   OH210808   4.725   1.887   1.935 -0.2898  0.6452 -0.5360
 3601TIP3    H110809   4.642   1.883   1.983  0.1584 -0.4675  0.2011
 3601TIP3    H210810   4.701   1.910   1.846 -1.4254 -0.0253 -0.4129
 3602TIP3   OH210811   3.191   0.306   2.791  0.3838 -0.2722  0.7061
 3602TIP3    H110812   3.263   0.305   2.853  0.7890  1.5980  0.3173
 3602TIP3    H210813   3.130   0.240   2.825  0.4884  0.8010  3.2253
 3603TIP3   OH210814   0.544   0.893   0.213 -0.3559  0.1677 -0.0667
 3603TIP3    H110815   0.572   0.803   0.229 -0.4187  0.3966  1.4636
 3603TIP3    H210816   0.600   0.923   0.141 -0.9512 -1.3579 -1.2413
 3604TIP3   OH210817   6.128   2.866   4.752 -0.3735  0.1460  0.7960
 3604TIP3    H110818   6.153   2.816   4.830 -0.9244  0.1343  0.9707
 3604TIP3    H210819   6.063   2.811   4.708 -0.7259  0.5429  0.8045
 3605TIP3   OH210820   4.240   2.019   0.682  0.5362 -0.5621 -0.1159
 3605TIP3    H110821   4.286   1.947   0.638  1.1289 -0.7728  0.8252
 3605TIP3    H210822   4.305   2.089   0.687  0.1221 -0.1394 -0.5585
 3606TIP3   OH210823   1.275   0.379   0.488 -0.3449  0.8435 -0.4898
 3606TIP3    H110824   1.346   0.348   0.432 -0.1810 -0.0883  0.2117
 3606TIP3    H210825   1.264   0.311   0.555 -0.4120  1.9919  0.7296
 3607TIP3   OH210826   2.307   2.491   3.698 -0.7945  0.9620  0.0095
 3607TIP3    H110827   2.257   2.471   3.619  0.7630  0.6684 -0.9470
 3607TIP3    H210828   2.391   2.523   3.666  0.3297 -0.2795  1.5425
 3608TIP3   OH210829   5.354   4.241   0.935 -0.3648  0.2451  0.1926
 3608TIP3    H110830   5.352   4.335   0.957  0.7812  0.1004  0.9962
 3608TIP3    H210831   5.271   4.226   0.890 -1.0300  1.4358  0.9468
 3609TIP3   OH210832   4.696   5.898   2.666 -0.6425  0.3160  0.7352
 3609TIP3    H110833   4.729   5.979   2.627 -0.3432 -0.0649  0.1835
 3609TIP3    H210834   4.615   5.880   2.619  0.1886 -0.6394 -0.3867
 3610TIP3   OH210835   4.922   4.964   4.951  0.0033 -0.7526 -0.1616
 3610TIP3    H110836   4.888   4.988   5.038 -0.0607 -0.4955 -0.2552
 3610TIP3    H210837   5.017   4.969   4.960  0.0034 -0.9564 -0.0427
 3611TIP3   OH210838   4.712   3.625   4.399  0.0058 -0.2736  0.0318
 3611TIP3    H110839   4.712   3.588   4.311 -1.8977 -0.1002 -0.0969
 3611TIP3    H210840   4.772   3.699   4.394  0.9808 -1.0929 -0.7288
 3612TIP3   OH210841   3.824   0.655   2.113 -0.4601  0.0148 -0.2251
 3612TIP3    H110842   3.739   0.695   2.135 -0.1532  0.1326  0.8403
 3612TIP3    H210843   3.837   0.674   2.020 -1.9637 -0.6911 -0.6012
 3613TIP3   OH210844   5.126   2.328   2.037  0.3684 -0.5222  0.0085
 3613TIP3    H110845   5.031   2.338   2.032  0.2826 -1.1656  0.2126
 3613TIP3    H210846   5.138   2.240   2.072  1.0369 -0.2184  0.5575
 3614TIP3   OH210847   0.205   3.433   5.099 -0.3435  0.2651  0.6910
 3614TIP3    H110848   0.262   3.462   5.170  1.0293  0.8682 -0.6071
 3614TIP3    H210849   0.144   3.373   5.141  0.4687  0.5301  2.3582
 3615TIP3   OH210850   0.425   1.637   2.219  0.8192 -0.3763 -0.3318
 3615TIP3    H110851   0.357   1.584   2.178  1.4389 -0.8782 -0.7366
 3615TIP3    H210852   0.411   1.725   2.185  1.3978 -0.8086 -1.7526
 3616TIP3   OH210853   0.499   5.921   4.280  0.0676 -0.1543 -0.3311
 3616TIP3    H110854   0.434   5.985   4.308  0.2932  0.0865 -0.3425
 3616TIP3    H210855   0.450   5.856   4.230 -0.4343 -0.9075  1.0925
 3617TIP3   OH210856   5.795   0.626   3.549  0.5424  0.4825 -0.3966
 3617TIP3    H110857   5.872   0.570   3.540 -0.1787 -0.8900  1.3543
 3617TIP3    H210858   5.782   0.663   3.462  4.1955  2.2186 -0.4127
 3618TIP3   OH210859   4.769   4.891   0.587 -0.1428  0.1515 -0.2125
 3618TIP3    H110860   4.697   4.869   0.527 -0.9624  1.9433  0.0679
 3618TIP3    H210861   4.782   4.985   0.576 -0.6582  0.6635  2.7668
 3619TIP3   OH210862   2.355   4.255   3.241  0.2057  0.7159  0.3023
 3619TIP3    H110863   2.382   4.338   3.201  1.1356  0.4821  0.4113
 3619TIP3    H210864   2.314   4.206   3.170  0.5817  0.8614 -0.0198
 3620TIP3   OH210865   3.642   5.711   3.114  0.0586 -0.4088 -0.4076
 3620TIP3    H110866   3.656   5.671   3.028 -1.8732 -0.4419 -0.7492
 3620TIP3    H210867   3.548   5.732   3.116  0.2552  0.4955  1.3111
 3621TIP3   OH210868   3.640   2.268   0.724 -0.8962 -0.2082 -0.0199
 3621TIP3    H110869   3.672   2.280   0.634 -0.7440  0.3219  0.1023
 3621TIP3    H210870   3.704   2.313   0.779 -2.1117  1.3441  0.1880
 3622TIP3   OH210871   4.102   3.967   3.029 -0.2197 -0.0303 -0.3239
 3622TIP3    H110872   4.039   4.018   3.081 -0.2363  0.7923 -1.1011
 3622TIP3    H210873   4.082   3.876   3.048 -1.6612  0.2168 -0.5363
 3623TIP3   OH210874   4.953   5.528   4.031  0.1629  0.1920 -0.1688
 3623TIP3    H110875   4.968   5.439   4.000 -0.3486 -0.2481  0.8002
 3623TIP3    H210876   5.040   5.564   4.046  0.3587 -0.5056  0.4183
 3624TIP3   OH210877   6.299   1.575   4.863  1.0245  0.1548  0.3109
 3624TIP3    H110878   6.332   1.600   4.949  0.4380 -0.7414  0.8205
 3624TIP3    H210879   6.291   1.480   4.868  1.3441  0.0555 -0.8734
 3625TIP3   OH210880   1.358   3.516   2.080 -0.6427 -0.0014 -0.6455
 3625TIP3    H110881   1.355   3.512   2.176  0.6091  0.7083 -0.5505
 3625TIP3    H210882   1.272   3.484   2.052 -0.3567 -2.0872  0.6345
 3626TIP3   OH210883   4.379   3.680   1.078 -0.0632  0.3233  0.5601
 3626TIP3    H110884   4.406   3.691   1.170  0.1902 -1.7553  0.7864
 3626TIP3    H210885   4.461   3.666   1.031 -0.1024  2.3759 -0.2006
 3627TIP3   OH210886   2.965   3.315   4.692 -0.3014 -0.0097 -0.3396
 3627TIP3    H110887   2.920   3.399   4.701 -0.4063  0.2044 -2.3100
 3627TIP3    H210888   2.902   3.251   4.725  0.3027  0.7180  2.4837
 3628TIP3   OH210889   3.496   4.957   0.064 -0.1481 -0.5748 -0.3062
 3628TIP3    H110890   3.574   5.012   0.053  0.5480 -1.9086 -2.6934
 3628TIP3    H210891   3.472   4.967   0.156  1.4607  1.6713 -0.0556
 3629TIP3   OH210892   3.796   1.790   1.733 -0.3362  0.1423 -0.3267
 3629TIP3    H110893   3.718   1.802   1.786 -0.0941  1.2883 -0.1913
 3629TIP3    H210894   3.841   1.715   1.772 -0.2807  0.8177  0.9663
 3630TIP3   OH210895   0.115   2.925   3.367  0.3724 -0.2271 -0.4112
 3630TIP3    H110896   0.095   2.928   3.460  1.8076 -0.8309 -0.0435
 3630TIP3    H210897   0.195   2.977   3.358  0.2701 -0.2096 -1.2895
 3631TIP3   OH210898   0.572   0.914   0.966  0.0875 -0.0063 -0.8590
 3631TIP3    H110899   0.570   0.901   1.060 -1.2143  0.2928 -0.8257
 3631TIP3    H210900   0.560   0.826   0.929  1.4336 -0.2410 -0.7709
 3632TIP3   OH210901   6.076   4.387   2.829  0.3644 -0.3030  0.4047
 3632TIP3    H110902   6.051   4.392   2.921  1.2161 -0.5994  0.6510
 3632TIP3    H210903   6.007   4.436   2.783 -0.2874 -0.5104  1.1493
 3633TIP3   OH210904   1.219   5.823   2.034  0.3121 -0.3656  0.1342
 3633TIP3    H110905   1.202   5.875   1.955 -1.2854  1.6219  1.6581
 3633TIP3    H210906   1.281   5.876   2.085  0.5179 -1.1073  0.6712
 3634TIP3   OH210907   5.974   3.368   3.008  0.5704 -0.9289  0.4606
 3634TIP3    H110908   5.994   3.332   2.921 -0.8835 -0.0086 -0.2895
 3634TIP3    H210909   6.020   3.452   3.010 -1.5261  0.3275 -0.5450
 3635TIP3   OH210910   2.186   3.915   5.083  0.0074  0.2883  0.1923
 3635TIP3    H110911   2.247   3.894   5.012  1.7965 -2.2054  2.2500
 3635TIP3    H210912   2.242   3.943   5.155 -1.8249  3.8340  0.4519
 3636TIP3   OH210913   4.263   4.677   4.435 -0.2751  0.2385  0.6087
 3636TIP3    H110914   4.213   4.657   4.355 -1.1723  1.7782  0.7471
 3636TIP3    H210915   4.345   4.714   4.403 -0.2144 -0.0785  0.3927
 3637TIP3   OH210916   1.768   5.244   3.081 -0.1003  0.2508  0.4528
 3637TIP3    H110917   1.817   5.319   3.115 -0.3474  0.8106 -0.3914
 3637TIP3    H210918   1.678   5.276   3.072 -0.3241 -0.3195  0.5955
 3638TIP3   OH210919   3.482   2.941   2.735  0.2173 -0.1772  1.1637
 3638TIP3    H110920   3.448   3.000   2.668  2.0717  1.4762  1.5760
 3638TIP3    H210921   3.442   2.856   2.715 -1.1918  0.8103 -0.5099
 3639TIP3   OH210922   2.027   2.164   1.963  0.0943 -0.8534  0.1434
 3639TIP3    H110923   1.975   2.237   1.929 -0.3007 -1.3658 -0.3698
 3639TIP3    H210924   2.023   2.174   2.059  0.3950  0.0306  0.0696
 3640TIP3   OH210925   1.123   0.875   0.453 -0.0468  0.0840 -0.3284
 3640TIP3    H110926   1.058   0.896   0.520  1.8949  0.4308  1.5763
 3640TIP3    H210927   1.115   0.780   0.441 -0.7972  0.1029 -0.0242
 3641TIP3   OH210928   4.279   0.366   2.252 -0.2497 -0.2786 -0.2094
 3641TIP3    H110929   4.371   0.344   2.243 -0.2748 -0.4254 -0.1121
 3641TIP3    H210930   4.249   0.315   2.328 -0.6755 -1.0765 -0.8965
 3642TIP3   OH210931   0.581   1.898   1.875 -0.0757 -0.5164  0.0928
 3642TIP3    H110932   0.530   1.975   1.901 -1.3688 -1.8190  1.6158
 3642TIP3    H210933   0.584   1.902   1.779  0.6065  1.8247  0.1272
 3643TIP3   OH210934   1.629   1.017   2.838 -0.3831 -0.1531 -0.1560
 3643TIP3    H110935   1.722   1.022   2.816  0.0623 -0.4417  1.4975
 3643TIP3    H210936   1.586   1.075   2.775  1.2112  1.9659  0.5732
 3644TIP3   OH210937   2.153   1.957   1.821 -0.5597 -0.0760 -0.2344
 3644TIP3    H110938   2.116   2.026   1.875 -2.0204  0.2338 -1.5701
 3644TIP3    H210939   2.247   1.961   1.837 -0.9277  0.0760  2.1504
 3645TIP3   OH210940   4.877   2.294   4.671 -0.0919  0.5294 -0.2214
 3645TIP3    H110941   4.882   2.204   4.637  1.5145  0.5242 -0.0585
 3645TIP3    H210942   4.838   2.284   4.758 -0.4907  0.0661 -0.4455
 3646TIP3   OH210943   5.018   2.045   1.629 -0.3183 -0.3638  0.1927
 3646TIP3    H110944   4.999   2.049   1.722  1.3807  4.7157  0.6496
 3646TIP3    H210945   5.104   2.003   1.623  0.4983  1.0940  1.2265
 3647TIP3   OH210946   2.990   3.737   0.901  0.1030 -0.0363 -0.2981
 3647TIP3    H110947   2.943   3.679   0.961  0.1505  0.0466 -0.1801
 3647TIP3    H210948   2.924   3.762   0.836  0.5588 -1.8058 -1.5236
 3648TIP3   OH210949   6.310   0.542   4.495 -0.0321  0.4592 -0.4217
 3648TIP3    H110950   6.288   0.449   4.498 -0.0941  0.4830  1.5970
 3648TIP3    H210951   6.402   0.544   4.467 -0.3212 -0.1274 -1.4545
 3649TIP3   OH210952   3.015   5.389   2.491 -0.0529 -0.5681  0.1434
 3649TIP3    H110953   2.925   5.386   2.523  0.0759 -0.8849  0.4866
 3649TIP3    H210954   3.069   5.389   2.570  0.2489 -0.3245 -0.0598
 3650TIP3   OH210955   5.593   0.990   4.800  0.3498  0.2497 -0.0615
 3650TIP3    H110956   5.630   0.914   4.844 -0.1886 -0.3858 -0.6867
 3650TIP3    H210957   5.610   0.975   4.707 -0.2486  0.6170 -0.2369
 3651TIP3   OH210958   4.188   3.515   2.027 -0.2513  0.3327 -0.3738
 3651TIP3    H110959   4.153   3.592   1.981  1.4347  1.1565 -0.3325
 3651TIP3    H210960   4.149   3.440   1.980 -2.1299  1.1655 -0.2576
 3652TIP3   OH210961   0.894   2.288   0.810 -0.1065 -0.2776 -0.3491
 3652TIP3    H110962   0.941   2.365   0.842  0.4049 -0.4979 -0.5726
 3652TIP3    H210963   0.901   2.224   0.881  0.7904 -0.6664 -0.7753
 3653TIP3   OH210964   3.223   0.138   4.703 -0.1668  0.7480  0.3876
 3653TIP3    H110965   3.165   0.062   4.711  0.2680  0.5325  1.8892
 3653TIP3    H210966   3.173   0.202   4.654 -0.8705 -0.2013 -0.1634
 3654TIP3   OH210967   3.203   3.007   3.692 -0.7537  0.2363  0.0495
 3654TIP3    H110968   3.191   2.958   3.610  0.7306 -1.7229  0.9258
 3654TIP3    H210969   3.173   3.095   3.671 -3.3957 -0.9364 -1.6998
 3655TIP3   OH210970   3.385   0.259   1.998  0.3745 -0.5798  0.3361
 3655TIP3    H110971   3.477   0.246   1.977  0.2036 -2.4376  0.6274
 3655TIP3    H210972   3.385   0.327   2.066  1.3409  0.9766 -1.1411
 3656TIP3   OH210973   2.021   3.336   0.583  0.1098  0.0951  0.4506
 3656TIP3    H110974   1.998   3.422   0.618 -0.8044 -0.4450  1.2103
 3656TIP3    H210975   2.037   3.352   0.490 -1.5321  0.8488  0.2660
 3657TIP3   OH210976   4.805   4.491   1.515 -0.2764 -0.4992 -0.0815
 3657TIP3    H110977   4.795   4.586   1.517 -2.2077 -0.6782  1.4071
 3657TIP3    H210978   4.893   4.476   1.549 -0.6565  0.7082  1.5693
 3658TIP3   OH210979   0.863   3.487   4.726 -0.5978 -0.1309 -0.1816
 3658TIP3    H110980   0.785   3.520   4.769  0.5347  0.3957  1.5449
 3658TIP3    H210981   0.879   3.549   4.654 -0.7332  0.8112  0.5861
 3659TIP3   OH210982   4.038   5.960   2.228  0.4048  0.0774  0.9054
 3659TIP3    H110983   3.968   5.903   2.259 -2.1738  1.1199 -2.4097
 3659TIP3    H210984   4.107   5.900   2.200 -2.3291 -1.7290 -2.7806
 3660TIP3   OH210985   1.817   0.457   4.254  0.0055  0.2824 -0.0042
 3660TIP3    H110986   1.800   0.364   4.273 -0.9227  0.4953  0.2233
 3660TIP3    H210987   1.884   0.482   4.317  0.5787 -0.3466 -0.3483
 3661TIP3   OH210988   0.155   0.744   0.218 -0.1016  0.4924 -0.4051
 3661TIP3    H110989   0.155   0.659   0.261 -1.0856  0.9167  0.4550
 3661TIP3    H210990   0.199   0.803   0.280  0.0769  0.7364 -0.7558
 3662TIP3   OH210991   3.892   1.031   1.341  0.0784  0.2622  0.1903
 3662TIP3    H110992   3.969   1.076   1.306 -0.2870  0.7252 -0.0321
 3662TIP3    H210993   3.903   0.940   1.314  0.2958  0.4216 -0.2736
 3663TIP3   OH210994   1.453   1.570   0.233  0.2294  0.0018  0.4850
 3663TIP3    H110995   1.408   1.489   0.259 -0.8949  0.3039 -0.4078
 3663TIP3    H210996   1.413   1.638   0.287  0.2361  0.1433  0.3125
 3664TIP3   OH210997   5.352   2.236   2.962 -0.7200 -0.5196 -0.0552
 3664TIP3    H110998   5.428   2.211   2.909 -1.4149  0.7764 -1.7508
 3664TIP3    H210999   5.283   2.175   2.936 -0.4075 -1.4471  1.2006
 3665TIP3   OH211000   2.714   0.887   4.405 -0.3189  0.0507 -0.2461
 3665TIP3    H111001   2.638   0.943   4.386 -0.9961 -1.6160 -2.9592
 3665TIP3    H211002   2.718   0.826   4.332  1.4246 -2.3795  1.7020
 3666TIP3   OH211003   4.945   1.874   3.276  0.5017  0.3862  0.0230
 3666TIP3    H111004   4.951   1.868   3.181 -0.7042 -0.3185 -0.0356
 3666TIP3    H211005   5.033   1.851   3.308  0.7738  0.1357 -0.8946
 3667TIP3   OH211006   3.532   1.486   1.605 -0.5580 -0.3348  0.1613
 3667TIP3    H111007   3.511   1.504   1.513 -0.6593  0.5490  0.3497
 3667TIP3    H211008   3.571   1.399   1.604 -1.6350 -0.8260 -0.5620
 3668TIP3   OH211009   1.904   0.850   1.131 -0.4061 -0.0132 -0.5626
 3668TIP3    H111010   1.858   0.766   1.127  0.4222 -0.4295 -1.6856
 3668TIP3    H211011   1.948   0.850   1.215  0.7227 -1.3305 -1.1278
 3669TIP3   OH211012   2.699   4.764   0.965 -0.5224 -0.1132  0.3248
 3669TIP3    H111013   2.677   4.855   0.948 -1.3926 -0.3835 -0.0459
 3669TIP3    H211014   2.720   4.728   0.878 -1.4301 -0.5819  0.2922
 3670TIP3   OH211015   2.567   2.321   0.779 -0.3179  0.6848  0.3991
 3670TIP3    H111016   2.639   2.377   0.806  1.9189 -1.0603 -1.5457
 3670TIP3    H211017   2.575   2.243   0.834 -0.8209  0.5394  0.2770
 3671TIP3   OH211018   1.721   0.818   0.716  0.2977  0.3293  0.3149
 3671TIP3    H111019   1.685   0.747   0.663 -0.8233 -0.2434  1.7711
 3671TIP3    H211020   1.650   0.882   0.721  0.6692  0.7297  0.4874
 3672TIP3   OH211021   2.279   4.806   2.791  0.1466  0.3851  0.4184
 3672TIP3    H111022   2.264   4.767   2.877  1.1189 -1.4761 -0.2119
 3672TIP3    H211023   2.369   4.782   2.768 -0.6607 -0.8186 -1.8986
 3673TIP3   OH211024   5.433   5.273   1.871  0.8116  0.4638 -0.2475
 3673TIP3    H111025   5.408   5.253   1.781  0.6635  0.2136 -0.1514
 3673TIP3    H211026   5.443   5.188   1.913  1.1945  0.5719 -0.1105
 3674TIP3   OH211027   0.227   0.577   1.787  0.0203 -0.8014 -0.1764
 3674TIP3    H111028   0.196   0.570   1.878  0.3788 -0.5457 -0.0297
 3674TIP3    H211029   0.321   0.596   1.796 -0.2037  0.5412 -0.6010
 3675TIP3   OH211030   5.591   1.523   4.380 -0.4435 -0.0168 -0.3305
 3675TIP3    H111031   5.578   1.446   4.325 -3.4387 -0.4413  0.7975
 3675TIP3    H211032   5.546   1.594   4.333 -1.3317  0.0576  0.6151
 3676TIP3   OH211033   0.048   5.610   1.126  0.1064 -0.2667 -0.5221
 3676TIP3    H111034   0.130   5.596   1.173  0.0971  0.8470 -0.1267
 3676TIP3    H211035   0.004   5.525   1.126  0.1918 -0.3532  1.3572
 3677TIP3   OH211036   4.921   4.213   0.175  0.0954  0.2428  0.3354
 3677TIP3    H111037   4.931   4.257   0.259  2.0744  0.8053 -0.1294
 3677TIP3    H211038   4.959   4.126   0.189 -1.5970 -0.5013  0.5850
 3678TIP3   OH211039   0.716   2.466   0.703 -0.1467 -0.4875 -0.0566
 3678TIP3    H111040   0.772   2.388   0.708 -1.2012 -1.3254 -0.6630
 3678TIP3    H211041   0.627   2.432   0.716 -0.6127  0.6525 -0.1437
 3679TIP3   OH211042   1.018   4.680   4.877  0.2259  0.0269 -0.1031
 3679TIP3    H111043   0.943   4.625   4.854 -0.8961  0.5594  2.0511
 3679TIP3    H211044   1.024   4.743   4.805 -1.1180 -0.2750 -0.5214
 3680TIP3   OH211045   1.772   0.252   5.196  0.3085  0.2244 -0.2253
 3680TIP3    H111046   1.731   0.199   5.127  0.2671  0.1059 -0.1083
 3680TIP3    H211047   1.716   0.330   5.201  0.6618  0.5226 -0.7562
 3681TIP3   OH211048   4.300   0.050   4.607  0.2272 -0.3200 -0.1688
 3681TIP3    H111049   4.337   0.129   4.646  1.3618  0.1086 -1.9704
 3681TIP3    H211050   4.342  -0.022   4.653  0.7886  0.1572  0.0747
 3682TIP3   OH211051   0.627   4.020   0.214 -1.0963  0.4260 -0.2153
 3682TIP3    H111052   0.533   4.001   0.207 -1.3093  1.5474 -0.5850
 3682TIP3    H211053   0.668   3.934   0.222 -2.2345 -0.0515  0.9959
 3683TIP3   OH211054   5.594   4.416   2.191 -0.4412 -0.3389  0.2556
 3683TIP3    H111055   5.689   4.429   2.182 -0.4813 -1.1382 -1.7844
 3683TIP3    H211056   5.581   4.406   2.285  1.1757  2.0184  0.8446
 3684TIP3   OH211057   5.246   1.900   1.659 -0.1085 -0.5110 -0.2583
 3684TIP3    H111058   5.228   1.860   1.744  0.8426  1.1589  0.7784
 3684TIP3    H211059   5.321   1.957   1.674 -0.1983  0.1856 -2.1218
 3685TIP3   OH211060   6.011   5.293   4.300 -0.3627  0.6038  0.1115
 3685TIP3    H111061   5.972   5.322   4.217  1.2045 -0.8848 -1.2322
 3685TIP3    H211062   5.945   5.237   4.339 -0.4729 -0.0966 -1.0242
 3686TIP3   OH211063   6.009   1.550   5.064  0.1336 -0.0150 -0.0570
 3686TIP3    H111064   5.981   1.614   4.998 -1.6632 -1.0998 -0.4262
 3686TIP3    H211065   5.939   1.484   5.064  2.1269 -2.2718 -0.0607
 3687TIP3   OH211066   1.538   3.835   4.225  0.3909 -0.2965 -0.1466
 3687TIP3    H111067   1.466   3.797   4.175  0.4839 -0.3806 -0.2174
 3687TIP3    H211068   1.537   3.928   4.203  1.7961 -0.6643 -2.0351
 3688TIP3   OH211069   4.679   0.538   2.846  0.5834 -0.0108  0.1220
 3688TIP3    H111070   4.652   0.545   2.937 -0.7823 -2.2324 -0.0323
 3688TIP3    H211071   4.768   0.504   2.849 -0.5209 -3.2369  0.7555
 3689TIP3   OH211072   6.040   3.870   0.402  0.8279  0.3403  0.9446
 3689TIP3    H111073   6.088   3.847   0.323  0.0401  1.2422  0.1855
 3689TIP3    H211074   6.051   3.965   0.411  0.2709  0.3657  1.4863
 3690TIP3   OH211075   4.669   2.991   2.393  0.3413  0.3989  0.2334
 3690TIP3    H111076   4.576   2.987   2.412  0.4759  2.4761  1.6348
 3690TIP3    H211077   4.674   3.010   2.299 -0.5711 -0.8447 -0.0920
 3691TIP3   OH211078   4.821   4.403   4.566 -0.2981 -0.0746  0.0365
 3691TIP3    H111079   4.831   4.414   4.661 -1.7575  1.6247  0.0295
 3691TIP3    H211080   4.728   4.417   4.550 -0.0198 -0.0655 -1.6835
 3692TIP3   OH211081   4.284   0.960   2.555 -0.0209 -0.2849  0.2289
 3692TIP3    H111082   4.190   0.970   2.569  0.0442  0.6749  0.0289
 3692TIP3    H211083   4.313   1.045   2.522  0.4917 -1.2540 -2.0601
 3693TIP3   OH211084   5.121   4.991   0.686  0.0136  0.6667 -0.5198
 3693TIP3    H111085   5.175   5.009   0.610  0.0940 -1.0381 -0.9110
 3693TIP3    H211086   5.065   4.918   0.659  1.5951 -1.5529  1.6918
 3694TIP3   OH211087   3.195   0.710   1.965  0.0936 -0.2745  0.2052
 3694TIP3    H111088   3.216   0.682   1.876 -0.0930  1.6791 -0.5057
 3694TIP3    H211089   3.100   0.717   1.966  0.1263  0.1998  0.3833
 3695TIP3   OH211090   1.058   1.049   3.423 -0.2424  0.4192 -0.0047
 3695TIP3    H111091   1.140   1.044   3.473  0.7395  2.9410 -1.2083
 3695TIP3    H211092   1.067   0.980   3.358  0.8426  0.5075  0.0241
 3696TIP3   OH211093   4.787   2.895   3.016 -1.0426  0.0406  0.4085
 3696TIP3    H111094   4.715   2.858   2.965 -0.9985  0.1142  0.2942
 3696TIP3    H211095   4.865   2.850   2.982 -1.0444 -0.1055  0.5938
 3697TIP3   OH211096   0.600   2.241   1.546  0.1103 -0.2382  0.5848
 3697TIP3    H111097   0.637   2.293   1.617  0.7088  1.8171 -1.1494
 3697TIP3    H211098   0.506   2.246   1.559  0.0803  2.2312 -0.0852
 3698TIP3   OH211099   4.649   3.777   2.108 -0.4559  0.1446 -0.5629
 3698TIP3    H111100   4.646   3.681   2.102 -0.7729  0.0230  1.0642
 3698TIP3    H211101   4.727   3.802   2.058 -1.4551 -0.7641 -2.6914
 3699TIP3   OH211102   5.871   4.255   4.624  0.5146 -0.6752 -0.2602
 3699TIP3    H111103   5.942   4.270   4.561 -0.2258  0.8025 -0.7875
 3699TIP3    H211104   5.806   4.205   4.576  1.3156 -2.3679  0.3377
 3700TIP3   OH211105   3.706   0.576   5.125 -0.5016  0.0423  0.2349
 3700TIP3    H111106   3.767   0.531   5.067 -0.9318 -1.9336  1.1935
 3700TIP3    H211107   3.742   0.563   5.213 -1.2280  0.6300  0.6339
 3701TIP3   OH211108   3.646   0.063   4.827  0.2426 -0.6508  0.5577
 3701TIP3    H111109   3.567   0.116   4.833  0.3332 -0.6309  1.8543
 3701TIP3    H211110   3.715   0.118   4.864  1.2779  0.0362 -2.1234
 3702TIP3   OH211111   6.147   0.819   2.128  0.2551 -0.4026 -0.5819
 3702TIP3    H111112   6.063   0.783   2.101  1.0393 -2.4802 -0.4457
 3702TIP3    H211113   6.134   0.842   2.220  0.3349 -2.5962  0.0394
 3703TIP3   OH211114   5.882   4.614   4.469  0.1917  0.2405 -0.2734
 3703TIP3    H111115   5.911   4.633   4.379 -0.5478 -0.3450 -0.6498
 3703TIP3    H211116   5.960   4.625   4.522  2.0820 -4.2689 -1.6138
 3704TIP3   OH211117   4.168   3.314   3.842 -0.5626 -0.7484  0.8242
 3704TIP3    H111118   4.132   3.356   3.920 -0.3466  0.1947  0.4393
 3704TIP3    H211119   4.091   3.280   3.795 -0.6970 -1.2622  1.4062
 3705TIP3   OH211120   1.801   2.232   0.670 -0.0368 -0.2211  0.1330
 3705TIP3    H111121   1.828   2.225   0.762  0.9495  2.2711  0.1122
 3705TIP3    H211122   1.882   2.219   0.620  0.3772  2.7459 -0.1276
 3706TIP3   OH211123   4.248   2.057   4.341  0.4819  0.4884  0.4847
 3706TIP3    H111124   4.266   1.967   4.369  0.4746  0.2931 -0.1228
 3706TIP3    H211125   4.248   2.053   4.246 -1.7890  0.6483  0.4109
 3707TIP3   OH211126   1.801   3.433   4.066 -0.6333  0.4553 -0.0207
 3707TIP3    H111127   1.750   3.474   4.136  1.0580 -0.8100  2.0953
 3707TIP3    H211128   1.742   3.368   4.029 -0.9387 -0.3268  1.7172
 3708TIP3   OH211129   4.345   0.363   2.635  0.5566 -0.1381 -0.5701
 3708TIP3    H111130   4.341   0.271   2.661  1.7661  0.2451  1.0801
 3708TIP3    H211131   4.438   0.381   2.623  0.3871  1.0399 -0.2406
 3709TIP3   OH211132   2.720   0.919   0.569  0.0171 -0.3249  0.4197
 3709TIP3    H111133   2.658   0.846   0.574 -0.5958  0.2366  1.3614
 3709TIP3    H211134   2.779   0.906   0.642 -0.0451  0.0779  0.5433
 3710TIP3   OH211135   3.687   2.562   2.522  0.0542 -0.1668 -0.1946
 3710TIP3    H111136   3.781   2.579   2.523  0.2581 -1.0110  2.6251
 3710TIP3    H211137   3.678   2.474   2.558 -1.8374 -0.0399 -0.2513
 3711TIP3   OH211138   2.962   3.611   4.288 -0.5745 -0.8562  0.0253
 3711TIP3    H111139   2.877   3.639   4.322  0.6277  2.5460  0.6832
 3711TIP3    H211140   3.025   3.642   4.354  1.3297 -0.9769 -1.6440
 3712TIP3   OH211141   5.929   5.234   3.428 -0.0811 -0.3778 -0.3113
 3712TIP3    H111142   5.967   5.178   3.495 -1.9888 -0.9377  0.3756
 3712TIP3    H211143   5.990   5.229   3.355  2.3083  0.6076  1.4833
 3713TIP3   OH211144   3.731   5.249   4.520 -0.3978 -0.5250  0.1419
 3713TIP3    H111145   3.740   5.344   4.509 -0.3668 -0.4887  0.4657
 3713TIP3    H211146   3.778   5.212   4.446 -1.5448 -0.2731 -0.7367
 3714TIP3   OH211147   3.380   3.305   3.268 -0.3790  0.0046  0.2859
 3714TIP3    H111148   3.396   3.336   3.357  0.6395 -0.9279  0.4517
 3714TIP3    H211149   3.326   3.373   3.228 -1.6823 -0.0338  1.9107
 3715TIP3   OH211150   5.123   5.277   2.216 -0.7219  0.1556 -0.1072
 3715TIP3    H111151   5.050   5.314   2.264 -1.0616 -2.3525  1.4498
 3715TIP3    H211152   5.187   5.348   2.211 -2.4365  1.7875  0.2190
 3716TIP3   OH211153   4.659   3.703   5.091 -0.3742  0.7535 -0.2239
 3716TIP3    H111154   4.601   3.776   5.066  0.3723  1.6990  0.7008
 3716TIP3    H211155   4.680   3.721   5.183  2.0005  0.8669 -0.7467
 3717TIP3   OH211156   1.689   1.874   0.127  0.4847  0.1433  0.0520
 3717TIP3    H111157   1.660   1.794   0.083 -0.4897  1.4972 -1.9184
 3717TIP3    H211158   1.631   1.882   0.204  1.8809 -1.9953  1.4374
 3718TIP3   OH211159   5.256   0.299   1.961  0.3680  0.1492  0.7754
 3718TIP3    H111160   5.174   0.332   1.997  0.4687  1.0556  0.2125
 3718TIP3    H211161   5.248   0.203   1.966 -0.7319  0.2222  0.7021
 3719TIP3   OH211162   3.952   3.137   1.221  0.1373  0.2305 -0.8278
 3719TIP3    H111163   3.987   3.217   1.183  3.9627 -1.9716 -2.5152
 3719TIP3    H211164   3.996   3.131   1.306  1.1985 -0.7892 -1.4170
 3720TIP3   OH211165   1.082   2.074   0.299 -0.0538 -1.5206 -0.1779
 3720TIP3    H111166   1.069   2.168   0.314  0.8115 -1.3521 -0.4390
 3720TIP3    H211167   1.056   2.061   0.208  0.6927 -1.3616 -0.4156
 3721TIP3   OH211168   4.040   1.858   0.174  0.1639 -0.1388  0.0774
 3721TIP3    H111169   4.075   1.858   0.085  0.3887 -0.3288  0.1661
 3721TIP3    H211170   4.030   1.950   0.197  3.0680  0.0169  1.0289
 3722TIP3   OH211171   5.560   4.381   1.195  0.1950 -0.3319 -0.0860
 3722TIP3    H111172   5.650   4.414   1.196  0.2572 -0.3895 -1.4293
 3722TIP3    H211173   5.560   4.314   1.127 -1.0097  0.1330 -0.5677
 3723TIP3   OH211174   1.878   3.995   3.927 -0.3051  0.8251  0.6751
 3723TIP3    H111175   1.836   3.915   3.960  0.9804 -0.1093  0.1259
 3723TIP3    H211176   1.876   3.986   3.832  0.8777  0.8820  0.6289
 3724TIP3   OH211177   1.134   1.429   2.756 -0.5103  0.4543  0.4486
 3724TIP3    H111178   1.048   1.467   2.740  0.3505  2.3511  0.0472
 3724TIP3    H211179   1.163   1.469   2.839  0.4603  0.7642 -0.0253
 3725TIP3   OH211180   6.173   5.902   3.524 -0.3947  0.0661 -0.1341
 3725TIP3    H111181   6.204   5.920   3.612 -1.4933 -0.8127  0.4600
 3725TIP3    H211182   6.079   5.919   3.527 -0.2817  1.1182 -1.4527
 3726TIP3   OH211183   2.579   0.196   3.373  0.1421  0.2636  0.1759
 3726TIP3    H111184   2.566   0.154   3.458  0.1437 -2.1680 -0.9442
 3726TIP3    H211185   2.661   0.159   3.339  0.7434  2.0201 -0.4704
 3727TIP3   OH211186   1.533   2.328   3.329 -0.0496  0.4374  0.0691
 3727TIP3    H111187   1.443   2.302   3.310 -0.3458  2.1498 -1.0211
 3727TIP3    H211188   1.567   2.363   3.247  0.3789  3.1748  1.2955
 3728TIP3   OH211189   2.951   0.688   4.150  0.0781  0.7472  0.3539
 3728TIP3    H111190   2.986   0.775   4.170  0.1231  0.5124  1.3225
 3728TIP3    H211191   3.002   0.628   4.205 -0.2072  0.1425 -0.0276
 3729TIP3   OH211192   5.584   3.355   4.196 -0.0486  0.0658  0.3552
 3729TIP3    H111193   5.657   3.383   4.141  3.1085  0.5314  4.3271
 3729TIP3    H211194   5.550   3.437   4.233 -0.9722 -0.3370  0.4238
 3730TIP3   OH211195   3.727   1.412   2.689 -0.3879 -0.6108 -0.2929
 3730TIP3    H111196   3.748   1.458   2.607 -0.4215 -2.9363 -1.7116
 3730TIP3    H211197   3.640   1.375   2.674 -0.8674 -0.1587  1.2490
 3731TIP3   OH211198   0.293   0.844   4.776  0.4615 -0.0523  0.2386
 3731TIP3    H111199   0.371   0.828   4.723 -0.1738  1.4786 -1.2689
 3731TIP3    H211200   0.312   0.925   4.823 -0.2451  0.3955 -0.2343
 3732TIP3   OH211201   3.424   2.345   4.464 -0.5380 -0.2637 -0.0415
 3732TIP3    H111202   3.417   2.249   4.456  1.1706 -0.4801  0.6415
 3732TIP3    H211203   3.462   2.373   4.380  0.5236 -0.3993  0.3818
 3733TIP3   OH211204   0.205   1.788   4.224 -0.2036  0.7488  0.3380
 3733TIP3    H111205   0.146   1.812   4.296  0.4416  2.8097  0.2469
 3733TIP3    H211206   0.289   1.826   4.249  1.1175 -1.9516  0.3758
 3734TIP3   OH211207   0.786   2.540   1.260 -0.0730 -0.3457 -0.3834
 3734TIP3    H111208   0.865   2.540   1.315  1.3265 -2.4268 -2.1761
 3734TIP3    H211209   0.732   2.470   1.296 -0.7186  0.5027  0.3187
 3735TIP3   OH211210   5.843   0.104   0.091  0.0978 -0.1728  0.1339
 3735TIP3    H111211   5.902   0.173   0.064  0.2214 -0.5621 -0.6256
 3735TIP3    H211212   5.854   0.098   0.186  1.3929 -0.3479 -0.0125
 3736TIP3   OH211213   2.822   4.160   1.185  0.0366  0.5116  0.1489
 3736TIP3    H111214   2.810   4.065   1.180  2.5367  0.1267  0.1571
 3736TIP3    H211215   2.791   4.192   1.100  0.1214 -0.4486 -0.2628
 3737TIP3   OH211216   1.397   1.590   3.737  0.0043 -0.3538  0.0023
 3737TIP3    H111217   1.409   1.558   3.647  0.9490 -0.6324  0.2122
 3737TIP3    H211218   1.391   1.685   3.727  0.6535 -0.3407 -0.3151
 3738TIP3   OH211219   5.220   4.050   0.677  0.1156  0.2311  0.2437
 3738TIP3    H111220   5.185   4.132   0.712  0.0900 -0.5465  2.2184
 3738TIP3    H211221   5.303   4.074   0.637 -0.5988  1.4287 -0.5748
 3739TIP3   OH211222   4.844   5.741   2.847  0.2297  0.1966 -0.0096
 3739TIP3    H111223   4.772   5.730   2.909  0.9164 -1.4343  0.5616
 3739TIP3    H211224   4.813   5.809   2.787 -3.0416 -2.3119 -1.5085
 3740TIP3   OH211225   4.979   5.736   0.597  0.4697 -0.2860 -0.1081
 3740TIP3    H111226   4.978   5.832   0.601  0.7631 -0.1898 -1.7018
 3740TIP3    H211227   4.887   5.712   0.582  0.1688 -0.3671  1.6432
 3741TIP3   OH211228   0.935   4.179   1.541 -0.2735 -0.5631  0.1247
 3741TIP3    H111229   0.876   4.130   1.598  0.3712 -0.1085  1.2264
 3741TIP3    H211230   1.015   4.188   1.593  0.5600 -0.6757 -1.1100
 3742TIP3   OH211231   0.733   1.217   2.576 -0.2477  0.8662 -0.1630
 3742TIP3    H111232   0.711   1.221   2.669  1.3870  1.0804  0.2548
 3742TIP3    H211233   0.808   1.157   2.572  1.6467  3.1453 -0.9154
 3743TIP3   OH211234   0.827   5.881   2.425 -0.0041 -0.1266 -0.9179
 3743TIP3    H111235   0.764   5.865   2.495  1.8545  0.2252  0.9466
 3743TIP3    H211236   0.776   5.872   2.345 -2.5886  0.8701  0.4633
 3744TIP3   OH211237   3.704   2.360   3.973 -0.3686 -0.4314 -0.7009
 3744TIP3    H111238   3.643   2.288   3.957  0.4941 -1.3233 -0.0602
 3744TIP3    H211239   3.673   2.399   4.055 -0.4470 -0.4949 -0.7000
 3745TIP3   OH211240   1.067   0.263   3.344 -0.3546 -0.2439  0.0219
 3745TIP3    H111241   0.990   0.214   3.373 -0.9745  0.3562 -0.5547
 3745TIP3    H211242   1.031   0.328   3.283  0.6330 -0.0503 -0.3620
 3746TIP3   OH211243   5.442   4.644   4.146 -0.8028  0.0129 -0.1961
 3746TIP3    H111244   5.348   4.654   4.129 -0.3946  1.6578 -1.7813
 3746TIP3    H211245   5.453   4.551   4.165 -2.8250 -0.1049  0.6646
 3747TIP3   OH211246   5.364   5.758   3.386 -0.3018 -0.0978  1.0878
 3747TIP3    H111247   5.323   5.673   3.368  0.3581 -0.0677 -0.7548
 3747TIP3    H211248   5.455   5.737   3.406  0.1930  0.2130 -0.6450
 3748TIP3   OH211249   2.119   4.522   1.327  0.1788  0.4111  0.7773
 3748TIP3    H111250   2.071   4.448   1.365  0.6307 -0.6649 -0.6892
 3748TIP3    H211251   2.067   4.548   1.251 -0.2090  1.9280  1.5161
 3749TIP3   OH211252   1.782   5.668   1.544 -0.0579  0.0909 -0.2695
 3749TIP3    H111253   1.737   5.728   1.603  0.8001 -1.2618  1.8802
 3749TIP3    H211254   1.866   5.711   1.527 -0.6879  0.9532 -1.4186
 3750TIP3   OH211255   4.940   1.874   2.750 -0.3542  0.6176 -0.1994
 3750TIP3    H111256   4.855   1.867   2.705  0.4694 -3.0185 -1.5274
 3750TIP3    H211257   5.005   1.869   2.679  0.9902  0.5382  0.9950
 3751TIP3   OH211258   2.679   3.281   0.382  0.2055  0.0689 -0.5683
 3751TIP3    H111259   2.602   3.300   0.435 -0.3852 -1.3687 -0.8830
 3751TIP3    H211260   2.689   3.186   0.387  0.8202  0.0273 -2.0992
 3752TIP3   OH211261   2.844   1.244   0.719 -0.4684 -0.2441 -0.0432
 3752TIP3    H111262   2.805   1.320   0.762 -0.4533 -1.0180  1.3897
 3752TIP3    H211263   2.828   1.171   0.779 -0.7167 -1.4423 -1.5104
 3753TIP3   OH211264   2.934   5.257   0.786 -0.2134 -0.1090  0.1074
 3753TIP3    H111265   2.985   5.309   0.848 -0.6392 -0.8692  1.1280
 3753TIP3    H211266   2.867   5.215   0.839 -0.9037 -0.3993 -0.9593
 3754TIP3   OH211267   0.547   2.348   3.741  0.2298  0.1818  0.4702
 3754TIP3    H111268   0.568   2.312   3.828  0.3592  1.2910  0.9139
 3754TIP3    H211269   0.501   2.430   3.760  0.6089  0.6306 -0.5176
 3755TIP3   OH211270   5.576   1.928   2.008 -0.0449  0.4737 -0.1108
 3755TIP3    H111271   5.614   1.844   1.980 -0.1918  0.5195 -0.4518
 3755TIP3    H211272   5.630   1.994   1.965  0.5988  0.5748  0.8362
 3756TIP3   OH211273   5.192   1.081   1.166  0.5064  0.7466  0.0268
 3756TIP3    H111274   5.185   0.990   1.138 -0.2113  0.1338  2.0139
 3756TIP3    H211275   5.284   1.104   1.152  0.9261 -0.6208  0.4239
 3757TIP3   OH211276   0.314   2.767   1.622 -0.2532 -0.3879  0.0825
 3757TIP3    H111277   0.254   2.740   1.691  1.4226  0.1158  1.8287
 3757TIP3    H211278   0.333   2.687   1.574 -1.0617 -0.8550  0.5210
 3758TIP3   OH211279   5.395   5.339   3.865 -0.2675 -0.1623 -0.2579
 3758TIP3    H111280   5.343   5.417   3.850 -1.8059 -0.9980  0.4581
 3758TIP3    H211281   5.337   5.281   3.915  1.3374 -1.1688  0.5265
 3759TIP3   OH211282   3.143   4.163   5.016 -0.1387  0.0355  0.7182
 3759TIP3    H111283   3.222   4.217   5.009 -0.1708 -0.1043 -1.8891
 3759TIP3    H211284   3.072   4.224   4.997 -0.3490 -0.4657 -0.1688
 3760TIP3   OH211285   3.664   4.297   2.847  0.2860 -0.4190 -0.1486
 3760TIP3    H111286   3.745   4.323   2.803 -0.7870 -0.0421 -2.0132
 3760TIP3    H211287   3.679   4.206   2.872  2.0061  0.2229  1.4153
 3761TIP3   OH211288   1.688   2.159   3.590 -0.1890 -0.3941  0.2167
 3761TIP3    H111289   1.728   2.160   3.503  0.3811  0.5987  0.4809
 3761TIP3    H211290   1.653   2.247   3.602  0.6936 -0.1744  1.4161
 3762TIP3   OH211291   0.813   0.065   4.736 -0.1701 -0.1304  1.1227
 3762TIP3    H111292   0.842  -0.021   4.706  2.7598  0.9595  0.5018
 3762TIP3    H211293   0.860   0.079   4.818  0.2325  1.2693  0.6845
 3763TIP3   OH211294   1.144   0.752   3.186  0.0353 -0.2393 -0.1756
 3763TIP3    H111295   1.088   0.721   3.115  1.0057  1.3883 -1.7533
 3763TIP3    H211296   1.224   0.700   3.178  0.5530  0.6478 -0.9947
 3764TIP3   OH211297   1.210   0.031   0.229 -0.2658 -0.1573 -0.3625
 3764TIP3    H111298   1.279  -0.032   0.208  0.2455  0.5054 -0.7206
 3764TIP3    H211299   1.220   0.046   0.323  0.7466  0.6823 -0.5776
 3765TIP3   OH211300   2.533   1.738   4.279 -0.3569  0.3084  0.0609
 3765TIP3    H111301   2.578   1.823   4.284 -0.6825  0.4750  0.1744
 3765TIP3    H211302   2.513   1.717   4.370  0.6143 -0.3734  0.1276
 3766TIP3   OH211303   3.392   3.211   4.271  0.1044 -0.0518 -0.0232
 3766TIP3    H111304   3.394   3.215   4.175 -1.1327 -0.8162 -0.1026
 3766TIP3    H211305   3.368   3.299   4.298 -1.2040 -0.2420 -0.5078
 3767TIP3   OH211306   5.914   2.172   0.142  0.2569  0.3278 -0.1510
 3767TIP3    H111307   5.834   2.223   0.128  0.7193  1.4732  1.1656
 3767TIP3    H211308   5.934   2.182   0.235  0.6740 -1.8608  0.0420
 3768TIP3   OH211309   5.558   2.054   3.441  0.3660  0.5099 -0.0973
 3768TIP3    H111310   5.476   2.004   3.441  0.8322 -0.4406 -2.8330
 3768TIP3    H211311   5.570   2.080   3.532 -1.2750 -2.1237  0.9976
 3769TIP3   OH211312   4.655   3.739   3.941 -0.5580 -0.4768  0.9131
 3769TIP3    H111313   4.583   3.687   3.906  0.6835 -1.4258 -0.3225
 3769TIP3    H211314   4.686   3.791   3.867  0.2303 -0.3131  1.3463
 3770TIP3   OH211315   4.916   2.991   4.326 -0.0527 -0.2966 -0.2106
 3770TIP3    H111316   4.897   2.950   4.410  1.9877  0.7326  0.8149
 3770TIP3    H211317   4.910   3.085   4.343 -1.7393 -0.0452 -1.8025
 3771TIP3   OH211318   1.409   2.003   3.213 -0.6537  0.2823  0.0384
 3771TIP3    H111319   1.337   2.064   3.231  0.7205  2.0362 -0.0688
 3771TIP3    H211320   1.426   2.013   3.119  0.3220  0.6392  0.2313
 3772TIP3   OH211321   1.549   1.180   0.166  0.0908 -0.0548  0.2342
 3772TIP3    H111322   1.501   1.249   0.212  0.3491 -0.5305  1.2367
 3772TIP3    H211323   1.641   1.201   0.182  0.1700 -1.2421  1.5047
 3773TIP3   OH211324   4.911   4.010   4.912 -0.1417  0.4095 -0.0163
 3773TIP3    H111325   4.964   3.948   4.961 -0.5086 -1.1591 -1.4917
 3773TIP3    H211326   4.821   3.987   4.934 -0.2802  1.9653  1.1869
 3774TIP3   OH211327   1.239   5.041   0.455  0.1169 -0.6160 -0.1566
 3774TIP3    H111328   1.200   5.122   0.420  1.6679 -0.0045 -0.6217
 3774TIP3    H211329   1.210   5.037   0.545 -0.4321  0.1895 -0.2838
 3775TIP3   OH211330   2.075   3.410   3.710  0.0807 -0.4578 -0.0088
 3775TIP3    H111331   2.121   3.352   3.650  0.8794  0.3757 -0.2387
 3775TIP3    H211332   2.054   3.487   3.657 -0.3954 -0.2753  0.4409
 3776TIP3   OH211333   5.672   4.846   5.047 -0.8467  0.0764 -0.0871
 3776TIP3    H111334   5.651   4.761   5.086 -0.4675  0.1548  0.2936
 3776TIP3    H211335   5.733   4.825   4.976  0.0784  0.1158  0.6717
 3777TIP3   OH211336   1.981   3.930   0.958 -0.6455 -0.2354  0.0410
 3777TIP3    H111337   1.943   3.990   0.894 -2.3795 -0.2051  1.0346
 3777TIP3    H211338   1.926   3.852   0.952  0.8815 -1.3186 -0.4226
 3778TIP3   OH211339   0.564   5.293   3.751  0.1577  0.0230  0.3605
 3778TIP3    H111340   0.475   5.280   3.784  0.9188 -0.2115  2.5398
 3778TIP3    H211341   0.584   5.384   3.771  0.3826  0.0944 -0.1795
 3779TIP3   OH211342   4.881   4.734   2.293  0.0730  0.1214  0.2452
 3779TIP3    H111343   4.845   4.654   2.254  1.0274 -1.5208  2.4958
 3779TIP3    H211344   4.827   4.804   2.258 -2.0266 -1.7038 -0.4253
 3780TIP3   OH211345   2.948   0.581   2.151 -0.2330  0.2340  0.3917
 3780TIP3    H111346   3.018   0.522   2.121 -0.2395 -1.4514  3.2921
 3780TIP3    H211347   2.940   0.645   2.081  3.7662  0.1553 -0.4131
 3781TIP3   OH211348   3.154   2.611   4.275 -0.1660 -0.0823  0.3041
 3781TIP3    H111349   3.174   2.555   4.201  0.5541 -1.5085  1.5221
 3781TIP3    H211350   3.112   2.552   4.339  0.6046  0.7355  1.6214
 3782TIP3   OH211351   0.378   2.251   3.529 -0.4457  0.1866  0.5884
 3782TIP3    H111352   0.423   2.281   3.608 -0.2077 -0.5535  0.7422
 3782TIP3    H211353   0.416   2.165   3.511 -0.6411  0.2635 -0.2201
 3783TIP3   OH211354   5.583   0.294   0.109  0.0233 -0.0459 -0.0299
 3783TIP3    H111355   5.653   0.229   0.112 -0.4788 -0.5974 -0.2988
 3783TIP3    H211356   5.511   0.254   0.158 -1.2263 -0.8155 -2.3810
 3784TIP3   OH211357   6.327   5.206   4.586  0.0418  0.4112  0.3465
 3784TIP3    H111358   6.244   5.249   4.607 -0.5938  0.0157 -1.2110
 3784TIP3    H211359   6.392   5.256   4.635 -1.0792  0.8075  1.5150
 3785TIP3   OH211360   2.529   1.374   3.276  0.1094  0.3841 -0.9513
 3785TIP3    H111361   2.492   1.386   3.364  1.2367 -0.6461 -0.3025
 3785TIP3    H211362   2.560   1.284   3.275 -0.3364  0.2075 -2.6104
 3786TIP3   OH211363   0.535   3.111   0.015  0.5248  0.0319  0.1217
 3786TIP3    H111364   0.586   3.100   0.096  1.2943  1.2707 -0.1713
 3786TIP3    H211365   0.444   3.101   0.043  0.8289 -0.6056  0.9449
 3787TIP3   OH211366   0.651   4.574   0.176  0.1675 -0.6400  0.6328
 3787TIP3    H111367   0.562   4.540   0.177 -0.2018  0.2292 -0.4675
 3787TIP3    H211368   0.699   4.513   0.120  0.6665 -1.9611  2.4070
 3788TIP3   OH211369   5.757   1.730   1.966  0.0332  0.6742 -0.2034
 3788TIP3    H111370   5.680   1.674   1.975 -1.3902  2.7764  1.8668
 3788TIP3    H211371   5.832   1.672   1.981 -1.2470 -1.0370 -0.2394
 3789TIP3   OH211372   0.799   5.099   0.890 -0.0361 -0.0503 -0.3973
 3789TIP3    H111373   0.865   5.031   0.875  1.2646  1.1481 -0.4136
 3789TIP3    H211374   0.715   5.055   0.877  0.7873 -0.9783 -3.3828
 3790TIP3   OH211375   5.368   2.637   0.448 -0.1791  0.5123  0.3559
 3790TIP3    H111376   5.327   2.625   0.363 -1.6097  0.9977  0.9564
 3790TIP3    H211377   5.435   2.704   0.433  2.2992 -2.0761 -1.2026
 3791TIP3   OH211378   2.887   2.438   1.388  0.2002 -0.3305 -0.1296
 3791TIP3    H111379   2.863   2.517   1.436 -2.4881 -0.0388 -1.7976
 3791TIP3    H211380   2.911   2.375   1.457  0.6736  1.3437  1.3061
 3792TIP3   OH211381   5.092   0.527   1.000  0.0385  0.3573 -0.2354
 3792TIP3    H111382   5.125   0.617   1.000  0.9331  0.0422  0.6053
 3792TIP3    H211383   5.125   0.489   1.081  0.4681 -1.0164 -1.0183
 3793TIP3   OH211384   1.618   2.732   2.150  0.1119 -0.3111 -0.4618
 3793TIP3    H111385   1.672   2.734   2.229 -0.5769  0.0587  0.0121
 3793TIP3    H211386   1.551   2.798   2.166  0.5662  0.5088 -1.8015
 3794TIP3   OH211387   6.274   5.589   4.290  0.2767 -0.0207 -0.7414
 3794TIP3    H111388   6.333   5.515   4.305  1.8596  0.7196 -2.8828
 3794TIP3    H211389   6.226   5.597   4.372  4.9148  0.9101  2.3005
 3795TIP3   OH211390   1.528   2.624   2.542  0.3541 -0.2341 -0.0252
 3795TIP3    H111391   1.482   2.662   2.617  0.4635 -0.1009 -0.0253
 3795TIP3    H211392   1.461   2.617   2.474 -0.0033 -1.3295  0.4152
 3796TIP3   OH211393   5.118   4.905   1.125  0.3350 -0.0813 -0.2167
 3796TIP3    H111394   5.199   4.878   1.170  1.2582 -0.2080 -1.8955
 3796TIP3    H211395   5.147   4.969   1.060 -1.1976  1.3421  0.4406
 3797TIP3   OH211396   2.774   0.308   2.845 -0.0678 -0.0531 -0.6184
 3797TIP3    H111397   2.753   0.221   2.878  1.5788  0.1543  1.1819
 3797TIP3    H211398   2.868   0.318   2.860 -0.2009  2.0073 -0.8155
 3798TIP3   OH211399   6.336   3.914   3.324  0.4604 -0.2187  0.4935
 3798TIP3    H111400   6.253   3.929   3.278  0.9502 -0.9554 -0.6625
 3798TIP3    H211401   6.341   3.819   3.336  0.9850 -0.1517  0.8502
 3799TIP3   OH211402   3.116   5.409   1.773  0.3242  0.2176  0.1418
 3799TIP3    H111403   3.130   5.498   1.805 -3.5197  1.0140  0.0343
 3799TIP3    H211404   3.153   5.408   1.685  0.2692  1.7446  0.0843
 3800TIP3   OH211405   1.257   4.319   3.081 -0.9447 -0.3151 -0.1326
 3800TIP3    H111406   1.229   4.406   3.054  0.7071  0.2548 -0.1220
 3800TIP3    H211407   1.197   4.259   3.036 -1.3001  0.7702 -1.1511
 3801TIP3   OH211408   0.393   2.928   2.403 -0.2300 -0.0012 -0.5246
 3801TIP3    H111409   0.381   2.867   2.330 -2.3459 -0.2582 -0.0068
 3801TIP3    H211410   0.309   2.928   2.449  1.2249 -0.3165  2.3302
 3802TIP3   OH211411   1.128   1.569   3.265 -0.1057  0.2889 -0.0417
 3802TIP3    H111412   1.197   1.635   3.272  1.0005 -0.6990 -1.0273
 3802TIP3    H211413   1.150   1.505   3.332  0.5321 -0.5148 -0.9901
 3803TIP3   OH211414   0.856   5.672   5.018  0.3137 -0.2689  0.1858
 3803TIP3    H111415   0.914   5.684   4.943 -1.8400 -1.4222 -1.8001
 3803TIP3    H211416   0.873   5.582   5.047  1.0044  0.1111  0.9942
 3804TIP3   OH211417   4.612   1.279   4.750 -0.2803  0.0180  0.3797
 3804TIP3    H111418   4.628   1.257   4.658 -0.5336  0.1832  0.2943
 3804TIP3    H211419   4.551   1.212   4.781  1.1631 -1.0800  0.9272
 3805TIP3   OH211420   2.342   1.301   2.744 -0.3628  0.3646  0.3322
 3805TIP3    H111421   2.335   1.279   2.651 -0.3739 -1.2196  0.6718
 3805TIP3    H211422   2.421   1.256   2.774 -0.9246 -0.0135  1.3053
 3806TIP3   OH211423   2.557   1.109   4.622  0.4249 -0.3149 -0.3857
 3806TIP3    H111424   2.501   1.126   4.546 -0.8422  0.3267  0.6477
 3806TIP3    H211425   2.506   1.048   4.676  0.8679 -0.0001  0.4064
 3807TIP3   OH211426   5.015   4.269   1.540 -0.2786 -0.8379 -0.1253
 3807TIP3    H111427   5.082   4.324   1.581  0.2482 -1.0834 -0.6497
 3807TIP3    H211428   4.980   4.217   1.612 -0.1240 -0.4903  0.2076
 3808TIP3   OH211429   2.978   2.825   4.967 -0.0804 -0.0372 -0.3061
 3808TIP3    H111430   2.936   2.741   4.948 -1.8630  0.6860  0.2717
 3808TIP3    H211431   3.003   2.818   5.059  0.9400 -0.3859 -0.5935
 3809TIP3   OH211432   4.189   1.305   1.601 -0.2011  0.1405 -0.0055
 3809TIP3    H111433   4.129   1.327   1.672  0.3241 -1.3977  0.9621
 3809TIP3    H211434   4.135   1.310   1.522 -1.8021 -1.7047  0.8813
 3810TIP3   OH211435   3.686   0.893   3.596 -0.3295 -0.2535 -0.9852
 3810TIP3    H111436   3.650   0.937   3.674  1.3964  0.0198 -0.3027
 3810TIP3    H211437   3.654   0.803   3.603 -0.0387 -0.2829  0.1670
 3811TIP3   OH211438   3.315   4.641   0.980 -0.6065 -0.3629  0.8465
 3811TIP3    H111439   3.315   4.546   0.990 -2.7262 -0.5877 -0.6996
 3811TIP3    H211440   3.223   4.664   0.969 -0.0046  1.6755 -0.4936
 3812TIP3   OH211441   1.905   1.498   0.139  0.1709 -0.3009 -0.3117
 3812TIP3    H111442   1.908   1.404   0.123  1.4422 -0.6815  1.6650
 3812TIP3    H211443   1.839   1.509   0.208  1.2941 -0.0371  0.7694
 3813TIP3   OH211444   1.330   4.687   3.903 -0.2196  0.1792  0.3932
 3813TIP3    H111445   1.381   4.674   3.983 -0.5365  1.5911  0.8614
 3813TIP3    H211446   1.257   4.743   3.931 -0.2443  0.8300 -0.9131
 3814TIP3   OH211447   2.674   5.483   1.308  0.2613 -0.1009 -0.4641
 3814TIP3    H111448   2.584   5.498   1.281  1.4329  3.0593 -3.3334
 3814TIP3    H211449   2.717   5.449   1.229  1.7833 -0.8915  0.6408
 3815TIP3   OH211450   0.627   3.665   4.398 -0.6357 -0.4868  0.1015
 3815TIP3    H111451   0.575   3.602   4.449  1.3360 -1.9385  0.4469
 3815TIP3    H211452   0.579   3.674   4.316 -1.3664 -1.9003  0.3379
 3816TIP3   OH211453   1.072   0.250   1.881  0.2586 -0.5683 -0.1331
 3816TIP3    H111454   0.996   0.195   1.866  0.4484 -0.8096 -0.2283
 3816TIP3    H211455   1.055   0.329   1.829 -0.3905 -0.1770  0.6600
 3817TIP3   OH211456   5.394   3.076   2.848  0.4236 -0.3935  0.2458
 3817TIP3    H111457   5.300   3.082   2.867  0.4931  1.1652  0.2153
 3817TIP3    H211458   5.414   2.983   2.859 -0.8970 -0.5945  1.3537
 3818TIP3   OH211459   1.946   4.065   1.534  0.4107  0.2843  0.7341
 3818TIP3    H111460   1.881   4.055   1.603 -0.2057  0.2720  0.1668
 3818TIP3    H211461   1.911   4.014   1.461  0.7108  0.8515  0.1806
 3819TIP3   OH211462   2.010   2.333   4.338  0.5602 -0.2818 -0.1833
 3819TIP3    H111463   2.002   2.345   4.243  0.4881  0.5088 -0.0788
 3819TIP3    H211464   1.933   2.281   4.361 -0.1903  0.7319 -0.3479
 3820TIP3   OH211465   0.821   1.557   3.448  0.8827 -0.5257  0.3310
 3820TIP3    H111466   0.899   1.597   3.487  0.9771  0.5623 -0.9073
 3820TIP3    H211467   0.821   1.467   3.482  2.5775 -0.5020  0.4852
 3821TIP3   OH211468   0.589   5.914   2.571  0.2594  0.0575  0.3880
 3821TIP3    H111469   0.542   5.863   2.506  0.7441  0.4303 -0.2656
 3821TIP3    H211470   0.544   5.998   2.573 -0.0400 -0.1078  0.8786
 3822TIP3   OH211471   2.334   2.544   2.596  0.3070 -0.0521  0.5637
 3822TIP3    H111472   2.414   2.596   2.586 -0.3775  0.9565  0.1041
 3822TIP3    H211473   2.323   2.535   2.691  0.6231  0.3576  0.6411
 3823TIP3   OH211474   3.681   4.578   2.683 -0.4268  0.0354 -0.2636
 3823TIP3    H111475   3.743   4.572   2.611  0.9305 -1.5026  0.9507
 3823TIP3    H211476   3.735   4.598   2.760 -1.3476 -1.4465  0.8486
 3824TIP3   OH211477   6.250   4.861   5.108 -0.1878  0.4581 -0.0922
 3824TIP3    H111478   6.312   4.787   5.101  1.0329  1.2833  1.4234
 3824TIP3    H211479   6.175   4.833   5.056  0.9673 -1.0944 -1.0506
 3825TIP3   OH211480   2.682   0.347   0.899  0.2577 -0.6323  0.5212
 3825TIP3    H111481   2.762   0.318   0.943  0.2738 -0.2061  0.7803
 3825TIP3    H211482   2.661   0.430   0.941  0.5914  0.0728 -0.6475
 3826TIP3   OH211483   3.979   3.716   3.100 -0.0922 -0.0270 -0.0844
 3826TIP3    H111484   4.022   3.657   3.161  0.4563 -1.8028 -2.0495
 3826TIP3    H211485   3.930   3.658   3.041 -0.5181  1.5659 -1.3803
 3827TIP3   OH211486   0.054   5.910   4.361 -0.5025  0.0737  0.1657
 3827TIP3    H111487   0.086   5.849   4.427  0.2545  1.0715  0.7422
 3827TIP3    H211488  -0.034   5.935   4.391 -0.5595 -0.2416  0.2621
 3828TIP3   OH211489   5.331   5.413   2.335  0.3449  0.1407 -0.1561
 3828TIP3    H111490   5.415   5.384   2.300 -0.6612 -2.7335 -0.4103
 3828TIP3    H211491   5.323   5.368   2.419 -1.5654 -0.8470 -0.8193
 3829TIP3   OH211492   3.069   2.097   3.156  0.5692  0.1137 -0.3478
 3829TIP3    H111493   3.001   2.038   3.126  0.6232  0.0046 -0.2554
 3829TIP3    H211494   3.044   2.118   3.246 -0.2890  1.4329 -0.8523
 3830TIP3   OH211495   4.363   4.236   1.061 -0.3188  0.1363  0.4026
 3830TIP3    H111496   4.327   4.223   0.973  0.6536  0.3646 -0.0399
 3830TIP3    H211497   4.345   4.153   1.106 -0.3047 -0.2018 -0.1969
 3831TIP3   OH211498   4.908   2.900   1.433  0.4819 -0.4829 -0.1271
 3831TIP3    H111499   4.933   2.970   1.373 -1.7937 -0.2709 -0.9122
 3831TIP3    H211500   4.817   2.918   1.456  0.4023 -2.1612  1.1370
 3832TIP3   OH211501   6.065   3.938   4.723  0.2774  0.1217  0.5283
 3832TIP3    H111502   6.084   4.028   4.694 -0.8320  1.0433  2.5084
 3832TIP3    H211503   6.101   3.933   4.811 -0.1335 -1.2428  0.6405
 3833TIP3   OH211504   3.930   4.257   2.708  0.5726 -0.0737  0.0161
 3833TIP3    H111505   3.946   4.162   2.705 -1.1652 -0.3817 -2.3981
 3833TIP3    H211506   4.008   4.296   2.669  1.1619 -0.5269  0.7233
 3834TIP3   OH211507   3.029   3.928   2.806  0.2732 -0.3123  0.0919
 3834TIP3    H111508   3.096   3.971   2.859  0.3060  0.5670 -0.6379
 3834TIP3    H211509   2.983   3.870   2.867 -0.4106  1.4879  1.3623
 3835TIP3   OH211510   5.182   5.550   0.562 -0.2069  0.4448 -0.4569
 3835TIP3    H111511   5.107   5.610   0.560 -1.6842 -1.2767  0.3803
 3835TIP3    H211512   5.168   5.497   0.640  0.0848 -2.1100 -2.0184
 3836TIP3   OH211513   5.949   3.823   4.367  0.3854  0.2927 -0.3108
 3836TIP3    H111514   6.019   3.800   4.428  0.4954  0.4339 -0.3843
 3836TIP3    H211515   5.922   3.739   4.329  1.9050  0.4216 -1.7991
 3837TIP3   OH211516   5.378   4.086   4.445 -0.2756 -0.0042  0.0253
 3837TIP3    H111517   5.400   4.057   4.356  0.4500  1.4587 -0.2967
 3837TIP3    H211518   5.429   4.166   4.458  0.5203 -0.7923  2.1936
 3838TIP3   OH211519   3.413   3.182   2.569  0.2913  0.0931 -0.0860
 3838TIP3    H111520   3.373   3.205   2.485  0.4601  1.2191  0.1260
 3838TIP3    H211521   3.505   3.165   2.548  0.1386 -0.5580 -0.2634
 3839TIP3   OH211522   1.120   2.213   1.705  1.0628 -0.3214  0.0294
 3839TIP3    H111523   1.193   2.162   1.739  0.9729  0.1051  0.8889
 3839TIP3    H211524   1.054   2.149   1.680  1.9918 -0.7502 -1.4114
 3840TIP3   OH211525   6.351   4.416   2.836  0.1920  0.1690 -0.4910
 3840TIP3    H111526   6.258   4.397   2.834  0.1492  0.3151 -2.5974
 3840TIP3    H211527   6.358   4.506   2.866 -0.5165  0.7574 -1.9967
 3841TIP3   OH211528   4.119   0.465   0.367  0.3968  0.1526  0.1739
 3841TIP3    H111529   4.106   0.532   0.434  1.5000 -0.5027  1.0936
 3841TIP3    H211530   4.041   0.409   0.372 -0.1077  0.8371  0.0254
 3842TIP3   OH211531   1.719   0.952   3.754 -0.3374 -0.1230 -0.2791
 3842TIP3    H111532   1.666   0.872   3.760 -1.2176  0.4494 -0.2673
 3842TIP3    H211533   1.776   0.949   3.831 -0.3878 -0.7173 -0.2566
 3843TIP3   OH211534   3.901   5.395   5.126  0.0823 -0.5139  0.6830
 3843TIP3    H111535   3.886   5.373   5.218  2.4445  0.2332  1.3175
 3843TIP3    H211536   3.951   5.477   5.130  0.5810 -0.6933 -1.2676
 3844TIP3   OH211537   5.682   4.134   3.284 -0.7881 -0.4088 -0.4506
 3844TIP3    H111538   5.682   4.043   3.256  0.0697 -0.4764 -0.2697
 3844TIP3    H211539   5.730   4.180   3.215 -1.6036 -0.0151 -0.7644
 3845TIP3   OH211540   1.871   1.195   4.808 -0.2219  0.6283 -0.0244
 3845TIP3    H111541   1.914   1.112   4.829 -0.4498 -0.0069 -1.8677
 3845TIP3    H211542   1.790   1.195   4.859  0.2893  0.2272  0.8054
 3846TIP3   OH211543   1.268   1.373   3.437 -0.2894  0.0615  0.3361
 3846TIP3    H111544   1.295   1.295   3.486  0.3916  0.0899  0.0191
 3846TIP3    H211545   1.343   1.432   3.443 -1.0572  0.9961  1.1716
 3847TIP3   OH211546   0.603   3.835   2.603  0.3783 -0.2219 -0.1471
 3847TIP3    H111547   0.692   3.828   2.638  1.2189 -0.8851 -2.2824
 3847TIP3    H211548   0.598   3.766   2.537 -1.5445  0.1904 -0.4788
 3848TIP3   OH211549   4.366   0.635   4.288 -0.7621  0.1646  0.1311
 3848TIP3    H111550   4.309   0.563   4.260  2.0492 -1.5039 -1.7336
 3848TIP3    H211551   4.401   0.672   4.207 -0.7164  2.5142  1.1265
 3849TIP3   OH211552   2.214   4.070   1.483  0.2002 -0.2381  0.5761
 3849TIP3    H111553   2.130   4.064   1.527 -0.1278  1.5951  0.3076
 3849TIP3    H211554   2.255   4.149   1.520  0.5548  0.5196 -1.2713
 3850TIP3   OH211555   4.673   3.166   1.278  0.0360  0.2775 -0.2183
 3850TIP3    H111556   4.615   3.205   1.343 -0.8370  1.0777 -1.4347
 3850TIP3    H211557   4.615   3.130   1.212  0.8786  1.7652 -1.8481
 3851TIP3   OH211558   5.279   1.229   3.388  0.3091  0.0038  0.0315
 3851TIP3    H111559   5.199   1.279   3.376  1.2215  1.7907  0.8617
 3851TIP3    H211560   5.252   1.137   3.387 -1.7887  0.5740  0.7363
 3852TIP3   OH211561   1.058   3.825   4.792  0.9835 -0.1900  0.0079
 3852TIP3    H111562   1.054   3.744   4.842  0.9125  0.7807  1.6528
 3852TIP3    H211563   1.045   3.798   4.701 -1.2136 -1.7793  0.7183
 3853TIP3   OH211564   5.964   2.518   1.082  0.5908 -0.4939  0.2947
 3853TIP3    H111565   5.971   2.614   1.080  0.4291 -0.4897 -1.9968
 3853TIP3    H211566   5.870   2.501   1.093  0.7052 -0.4377  1.5746
 3854TIP3   OH211567   5.626   2.536   0.202  0.3402  0.4660  0.0239
 3854TIP3    H111568   5.547   2.549   0.150  0.4258  0.0677 -0.2041
 3854TIP3    H211569   5.644   2.622   0.241 -1.9441 -0.0736  2.5544
 3855TIP3   OH211570   3.069   5.140   0.244  0.7141  0.1233 -0.2915
 3855TIP3    H111571   2.995   5.192   0.212  1.1829 -0.0904 -1.7684
 3855TIP3    H211572   3.042   5.113   0.332 -0.4010  1.1486 -0.2861
 3856TIP3   OH211573   1.570   2.304   2.860  0.1693  0.3607 -0.0655
 3856TIP3    H111574   1.502   2.329   2.922  0.7585  2.1558 -0.0708
 3856TIP3    H211575   1.523   2.284   2.779 -0.4800 -0.3753  0.4848
 3857TIP3   OH211576   5.114   2.219   1.316  0.0405 -0.5045  0.0067
 3857TIP3    H111577   5.206   2.238   1.335  0.4080 -1.4281 -0.7789
 3857TIP3    H211578   5.115   2.131   1.278 -1.1381 -0.4039 -0.2894
 3858TIP3   OH211579   3.201   3.132   3.016 -0.7153 -0.2382 -0.5041
 3858TIP3    H111580   3.234   3.184   2.943 -0.1143 -1.0276 -0.8166
 3858TIP3    H211581   3.210   3.189   3.093  0.7316 -0.1576 -0.6969
 3859TIP3   OH211582   3.928   2.965   4.359  0.0633 -0.0426 -0.4258
 3859TIP3    H111583   3.885   2.880   4.363  0.3639 -0.2132 -0.7730
 3859TIP3    H211584   3.992   2.957   4.288 -0.2765  0.6442 -0.8246
 3860TIP3   OH211585   5.590   4.570   5.101 -0.6307  0.1590 -0.0325
 3860TIP3    H111586   5.557   4.535   5.018  0.8071 -1.1686 -0.0953
 3860TIP3    H211587   5.517   4.559   5.162 -1.3920  0.2945 -0.8916
 3861TIP3   OH211588   3.649   0.789   4.371  0.2301 -0.0815  0.4976
 3861TIP3    H111589   3.636   0.698   4.395 -0.1163 -0.0276  0.5204
 3861TIP3    H211590   3.733   0.790   4.325 -0.6341 -0.7327 -1.1910
 3862TIP3   OH211591   0.690   5.112   5.033  0.1336  0.3526 -0.8729
 3862TIP3    H111592   0.776   5.150   5.049  0.2435 -0.2255 -0.0159
 3862TIP3    H211593   0.688   5.096   4.939  0.7184  0.9460 -0.9921
 3863TIP3   OH211594   6.068   0.261   0.158 -0.6378  0.0205  0.2183
 3863TIP3    H111595   6.067   0.336   0.099 -2.3554 -0.7526 -0.8441
 3863TIP3    H211596   6.065   0.298   0.245  0.4046  1.1847 -0.2191
 3864TIP3   OH211597   2.320   5.171   0.188 -0.0974  0.7084  0.1727
 3864TIP3    H111598   2.272   5.107   0.241 -0.8002  0.5774 -0.5977
 3864TIP3    H211599   2.319   5.251   0.240  0.3374  0.2398  0.9176
 3865TIP3   OH211600   3.223   5.520   4.043 -0.4961 -0.7472 -0.4041
 3865TIP3    H111601   3.221   5.429   4.072 -1.0761 -0.8124 -0.6293
 3865TIP3    H211602   3.244   5.515   3.950  3.2751 -0.4526  0.2720
 3866TIP3   OH211603   3.411   1.632   1.373  0.3668  0.5320 -0.0695
 3866TIP3    H111604   3.414   1.694   1.301  1.7428  0.0450 -0.4499
 3866TIP3    H211605   3.329   1.584   1.360  0.1490  1.0732 -0.7595
 3867TIP3   OH211606   0.849   4.182   3.192  0.3443  0.0611 -0.4899
 3867TIP3    H111607   0.843   4.152   3.283  1.9966 -1.7711 -0.9085
 3867TIP3    H211608   0.871   4.103   3.142  1.2167  1.3371 -2.2276
 3868TIP3   OH211609   2.848   3.220   0.139 -0.3591  0.1041 -0.0456
 3868TIP3    H111610   2.928   3.252   0.180 -0.5030  0.9681 -0.4033
 3868TIP3    H211611   2.788   3.203   0.211  0.3729 -1.2377  0.2721
 3869TIP3   OH211612   4.607   3.954   1.163 -0.0122 -0.1664 -0.2051
 3869TIP3    H111613   4.519   3.916   1.167 -0.4588  0.8991  0.3497
 3869TIP3    H211614   4.593   4.048   1.168  1.0638  0.1223 -1.7990
 3870TIP3   OH211615   1.940   1.840   4.712  0.1135 -0.4572 -0.0660
 3870TIP3    H111616   1.937   1.874   4.623 -1.3349 -0.4429 -0.0311
 3870TIP3    H211617   1.992   1.760   4.705 -0.0807 -0.5162 -0.9479
 3871TIP3   OH211618   4.446   5.866   2.515  0.2203  0.5076  0.3408
 3871TIP3    H111619   4.464   5.815   2.436 -0.3924  0.6381  0.1173
 3871TIP3    H211620   4.357   5.843   2.540  0.7730 -0.3491  1.6190
 3872TIP3   OH211621   3.450   4.750   4.246 -0.1124  0.1759  0.3118
 3872TIP3    H111622   3.505   4.819   4.282  0.4664 -0.5128  0.7630
 3872TIP3    H211623   3.432   4.778   4.156 -0.4265  1.2303  0.6894
 3873TIP3   OH211624   1.849   1.001   0.056 -0.3018 -0.1615 -0.7259
 3873TIP3    H111625   1.886   0.954   0.131  1.6444  0.5750 -1.1731
 3873TIP3    H211626   1.837   1.090   0.087 -0.8616 -0.1814 -0.8737
 3874TIP3   OH211627   3.295   3.961   2.925  0.2858  0.2044  0.0123
 3874TIP3    H111628   3.308   3.903   3.000  0.0213  0.3809  0.2002
 3874TIP3    H211629   3.315   3.908   2.848 -1.5566 -0.6456  0.0718
 3875TIP3   OH211630   4.805   5.147   0.485  0.4325 -0.8531 -0.3160
 3875TIP3    H111631   4.791   5.213   0.553 -0.0294 -2.4776  1.2466
 3875TIP3    H211632   4.717   5.114   0.466  0.7805 -1.9337 -0.0981
 3876TIP3   OH211633   3.459   4.509   3.570 -0.1230 -0.0955 -0.1566
 3876TIP3    H111634   3.540   4.461   3.554 -0.6404 -0.4852 -1.8827
 3876TIP3    H211635   3.398   4.475   3.504 -0.4611  3.0235 -1.6595
 3877TIP3   OH211636   1.908   5.523   2.422  0.0134 -0.5063 -0.3747
 3877TIP3    H111637   1.844   5.476   2.368 -0.7409  0.3842 -0.2860
 3877TIP3    H211638   1.921   5.607   2.377 -0.4930  0.1780  0.7108
 3878TIP3   OH211639   3.048   2.183   3.418 -0.0464  0.4574  0.2700
 3878TIP3    H111640   3.105   2.124   3.467  0.9296 -0.3255 -1.6986
 3878TIP3    H211641   2.973   2.197   3.476  1.5901  0.6384  2.4966
 3879TIP3   OH211642   4.349   0.766   0.088  0.3811 -0.5451 -0.2496
 3879TIP3    H111643   4.406   0.696   0.119  0.9635  0.1509  0.2905
 3879TIP3    H211644   4.342   0.827   0.162 -0.7578 -0.4190 -0.4344
 3880TIP3   OH211645   3.578   5.172   0.301  0.5131  0.1014 -0.0363
 3880TIP3    H111646   3.490   5.140   0.321 -0.2167  1.0476 -1.5828
 3880TIP3    H211647   3.593   5.243   0.364 -0.9100  1.6671 -1.3954
 3881TIP3   OH211648   0.538   2.892   1.918 -0.4940 -0.2482  0.1286
 3881TIP3    H111649   0.544   2.961   1.852 -0.8165 -2.2126 -2.1081
 3881TIP3    H211650   0.624   2.851   1.919 -0.8383 -0.9874  0.0545
 3882TIP3   OH211651   4.267   2.462   3.805  0.9201  0.2632 -0.5337
 3882TIP3    H111652   4.265   2.421   3.891 -1.0179  1.6034  0.1302
 3882TIP3    H211653   4.242   2.553   3.820  0.9245  0.6465 -2.4724
 3883TIP3   OH211654   3.558   1.876   1.452 -0.4148  0.1463  0.2789
 3883TIP3    H111655   3.527   1.962   1.425 -1.2257 -0.7106 -1.6974
 3883TIP3    H211656   3.648   1.871   1.420 -0.3250  0.3007  0.5065
 3884TIP3   OH211657   4.509   4.102   3.401  0.2446 -0.1291  0.0107
 3884TIP3    H111658   4.602   4.099   3.381  0.1049 -2.0011 -0.5396
 3884TIP3    H211659   4.499   4.178   3.459  1.9301  0.6808 -0.7045
 3885TIP3   OH211660   2.448   3.940   0.587 -0.0159 -0.3347  0.0651
 3885TIP3    H111661   2.472   3.918   0.497 -0.3238 -1.3953  0.2270
 3885TIP3    H211662   2.527   3.978   0.624  0.4573 -0.9096 -0.3331
 3886TIP3   OH211663   1.473   0.395   3.081 -0.0828 -0.3610 -0.3724
 3886TIP3    H111664   1.449   0.311   3.042 -2.1101 -0.1085  0.1945
 3886TIP3    H211665   1.435   0.392   3.168  1.6598  0.3353  0.4530
 3887TIP3   OH211666   2.985   5.875   4.840  0.2060  0.3465 -0.0029
 3887TIP3    H111667   2.970   5.913   4.926  3.3638 -0.0867  0.8738
 3887TIP3    H211668   2.997   5.782   4.856  1.2751  0.3245 -0.8099
 3888TIP3   OH211669   3.396   3.547   1.240 -0.3378  0.2644  0.5678
 3888TIP3    H111670   3.437   3.633   1.243 -1.1631  0.6538  0.7485
 3888TIP3    H211671   3.350   3.544   1.156  1.0296 -0.6371 -0.1920
 3889TIP3   OH211672   5.030   1.539   4.986 -0.1134  0.4644  0.1369
 3889TIP3    H111673   5.092   1.523   4.916  0.6285  0.4591  0.7758
 3889TIP3    H211674   5.024   1.455   5.032 -1.2656  0.2208 -0.4338
 3890TIP3   OH211675   1.494   3.672   0.616 -0.0156  0.2714  0.6441
 3890TIP3    H111676   1.485   3.750   0.561  0.3928  1.0717  1.6707
 3890TIP3    H211677   1.442   3.692   0.694  1.2548  0.1326  1.5526
 3891TIP3   OH211678   6.242   2.507   2.032 -0.1212 -0.2450 -0.2578
 3891TIP3    H111679   6.229   2.519   1.938 -0.0875 -2.4863 -0.5953
 3891TIP3    H211680   6.324   2.553   2.051 -0.3048  0.5152 -1.2369
 3892TIP3   OH211681   4.773   3.557   4.134 -0.0816 -0.8967 -0.6619
 3892TIP3    H111682   4.711   3.487   4.116  2.6640 -3.4762 -0.7759
 3892TIP3    H211683   4.742   3.631   4.081 -4.0147 -1.3423  0.7372
 3893TIP3   OH211684   1.288   4.464   0.390 -0.4307 -0.1653  0.4377
 3893TIP3    H111685   1.293   4.466   0.485 -0.0184  0.6466  0.4033
 3893TIP3    H211686   1.379   4.470   0.360 -0.3291 -2.6796 -0.0025
 3894TIP3   OH211687   0.048   2.783   0.281 -0.5329  0.4842 -0.4880
 3894TIP3    H111688   0.002   2.709   0.241 -1.7914  1.1416 -0.3345
 3894TIP3    H211689   0.129   2.791   0.231 -1.0041 -0.1552 -1.3860
 3895TIP3   OH211690   4.207   5.829   4.115 -0.5011  0.2422  0.1695
 3895TIP3    H111691   4.229   5.736   4.124  1.6030  0.8101  1.4785
 3895TIP3    H211692   4.111   5.829   4.106 -0.5509 -2.0508 -0.0830
 3896TIP3   OH211693   2.549   0.141   1.183  0.6310  0.5180 -0.0459
 3896TIP3    H111694   2.511   0.191   1.110  2.5917  0.8624 -0.8982
 3896TIP3    H211695   2.484   0.147   1.253 -1.2366  0.3596 -1.6785
 3897TIP3   OH211696   4.739   3.755   0.771  0.0338 -0.2196 -0.1776
 3897TIP3    H111697   4.729   3.718   0.859  0.3439  0.4314  0.1433
 3897TIP3    H211698   4.827   3.729   0.744 -0.2721 -0.8928 -0.5276
 3898TIP3   OH211699   5.626   2.001   0.897 -0.8057 -0.3020 -0.2813
 3898TIP3    H111700   5.645   2.016   0.804  0.0803  0.6018  0.0304
 3898TIP3    H211701   5.534   2.024   0.906 -0.0670  3.1285 -0.2745
 3899TIP3   OH211702   0.939   5.620   2.425 -0.2322 -0.4427  0.4561
 3899TIP3    H111703   0.963   5.633   2.517 -0.2465 -2.6941  0.8455
 3899TIP3    H211704   0.936   5.708   2.388 -0.6166  0.5508  2.6966
 3900TIP3   OH211705   6.093   4.861   4.333  0.1072 -0.1712 -0.0359
 3900TIP3    H111706   6.146   4.871   4.254 -0.7040 -1.1073 -0.7368
 3900TIP3    H211707   6.005   4.888   4.307  0.0871  0.7892  0.9395
 3901TIP3   OH211708   3.188   5.512   3.763  0.5966 -0.7689  0.1513
 3901TIP3    H111709   3.165   5.494   3.672  0.0500 -2.0260  0.5259
 3901TIP3    H211710   3.214   5.605   3.763  1.0833 -0.8853 -1.3608
 3902TIP3   OH211711   0.795   1.804   1.237  0.2111  0.0074  0.0480
 3902TIP3    H111712   0.782   1.784   1.330  0.5936  1.0680  0.3468
 3902TIP3    H211713   0.865   1.869   1.237  0.1875  0.0408 -0.9875
 3903TIP3   OH211714   4.877   1.482   4.506  0.2330 -0.2305 -0.2297
 3903TIP3    H111715   4.960   1.527   4.515 -0.1113  0.5727 -0.8997
 3903TIP3    H211716   4.811   1.547   4.531 -0.3577  0.1744 -2.5852
 3904TIP3   OH211717   6.036   1.023   0.733 -0.4347  0.3111 -0.0552
 3904TIP3    H111718   6.048   0.933   0.763  1.5806  0.1680 -1.1175
 3904TIP3    H211719   6.118   1.067   0.754  0.0319  0.9079 -2.7260
 3905TIP3   OH211720   3.525   0.925   1.521 -0.1475 -0.4183  0.0539
 3905TIP3    H111721   3.586   0.943   1.593 -1.5990 -2.6000  1.9647
 3905TIP3    H211722   3.579   0.888   1.452  1.0491  0.1500  0.6508
 3906TIP3   OH211723   5.497   1.093   1.740  0.1691 -0.2279 -0.1631
 3906TIP3    H111724   5.499   1.160   1.671 -2.5288 -2.2032 -2.4243
 3906TIP3    H211725   5.404   1.070   1.748  0.8752 -3.1189  1.0095
 3907TIP3   OH211726   5.146   1.379   3.635 -0.0682  0.4464 -0.5791
 3907TIP3    H111727   5.138   1.283   3.635  0.6241  0.3797 -0.0323
 3907TIP3    H211728   5.105   1.406   3.717 -2.0527  0.8077 -1.6273
 3908TIP3   OH211729   0.625   5.113   2.337  0.1840  0.0007 -0.0723
 3908TIP3    H111730   0.678   5.095   2.259  0.1998  1.1599 -0.3465
 3908TIP3    H211731   0.536   5.094   2.310  0.1076  1.0788 -0.6055
 3909TIP3   OH211732   5.863   4.055   5.115  0.0559  0.0523 -0.6998
 3909TIP3    H111733   5.805   4.128   5.095  0.1716  0.4319  0.2512
 3909TIP3    H211734   5.811   3.997   5.171  1.2099  1.5388  2.1168
 3910TIP3   OH211735   0.957   3.715   1.856 -0.2300 -0.4639  0.3428
 3910TIP3    H111736   1.039   3.682   1.819  1.1223 -0.4426  3.0820
 3910TIP3    H211737   0.984   3.781   1.919 -2.4422  0.2708  0.5946
 3911TIP3   OH211738   4.279   4.908   1.679 -0.0660  0.0606 -0.0077
 3911TIP3    H111739   4.248   4.824   1.714 -1.3870  0.6438  0.2615
 3911TIP3    H211740   4.349   4.934   1.739 -0.2184 -0.4368  0.4004
 3912TIP3   OH211741   0.821   2.412   3.011 -0.6704  0.1831 -0.2375
 3912TIP3    H111742   0.812   2.506   3.024 -0.1671  0.2825 -0.5845
 3912TIP3    H211743   0.755   2.390   2.946 -0.5519  0.3584 -0.4182
 3913TIP3   OH211744   3.333   5.317   4.568  0.2087 -0.0821 -0.0846
 3913TIP3    H111745   3.302   5.298   4.657 -0.2804  0.1483 -0.2014
 3913TIP3    H211746   3.342   5.413   4.566 -0.8515  0.0301 -0.6127
 3914TIP3   OH211747   1.731   3.329   0.356  0.0205 -0.0403  0.2946
 3914TIP3    H111748   1.758   3.241   0.382  2.2412  0.2688 -0.6827
 3914TIP3    H211749   1.728   3.378   0.438 -1.6724 -1.0766  0.9046
 3915TIP3   OH211750   1.805   1.838   3.284  0.1943  0.2360  0.2664
 3915TIP3    H111751   1.800   1.746   3.311  1.0695  0.1507  0.1402
 3915TIP3    H211752   1.801   1.836   3.189  0.5647  0.3043  0.2487
 3916TIP3   OH211753   4.623   2.656   5.171  0.3803  0.1245 -0.6550
 3916TIP3    H111754   4.608   2.705   5.091 -1.0737 -0.1726 -0.5937
 3916TIP3    H211755   4.616   2.564   5.144 -2.2948  0.0297  0.1455
 3917TIP3   OH211756   1.692   0.759   2.151  0.4686  0.0697  0.4386
 3917TIP3    H111757   1.741   0.841   2.142  0.6536  0.0720  1.4592
 3917TIP3    H211758   1.605   0.786   2.181 -0.2756  0.0854 -1.5506
 3918TIP3   OH211759   0.211   5.080   3.750  0.5876 -0.0737 -0.4573
 3918TIP3    H111760   0.237   5.169   3.773  0.7542 -0.3244  0.3242
 3918TIP3    H211761   0.116   5.080   3.756  0.4585  0.4586 -1.9577
 3919TIP3   OH211762   4.136   5.497   2.605 -0.5283 -0.3733 -0.0621
 3919TIP3    H111763   4.151   5.583   2.567 -1.8492 -0.9393 -2.0012
 3919TIP3    H211764   4.214   5.446   2.581 -1.0910 -0.5579 -1.6041
 3920TIP3   OH211765   5.208   2.516   2.212 -0.2052 -0.4244 -0.2294
 3920TIP3    H111766   5.188   2.605   2.182 -0.2277 -0.6111 -0.7747
 3920TIP3    H211767   5.187   2.460   2.137  2.2613 -0.6493 -0.8203
 3921TIP3   OH211768   6.303   4.708   2.944 -0.3139  0.1074 -0.5716
 3921TIP3    H111769   6.381   4.654   2.959  0.1922  0.9207 -0.1761
 3921TIP3    H211770   6.321   4.790   2.990 -1.0497  0.6351 -1.1803
 3922TIP3   OH211771   2.029   3.659   3.601 -0.3212 -0.0260 -0.1946
 3922TIP3    H111772   2.037   3.721   3.674 -1.2882  0.2078 -0.2808
 3922TIP3    H211773   2.059   3.709   3.525  1.6012 -0.5566  0.1452
 3923TIP3   OH211774   3.130   4.286   4.301  0.4982 -0.2155  0.1673
 3923TIP3    H111775   3.175   4.206   4.326 -0.0084 -0.4346  0.3819
 3923TIP3    H211776   3.080   4.312   4.379 -1.8114 -1.3911 -0.8235
 3924TIP3   OH211777   0.155   0.651   2.365  0.2575  0.0232  0.0234
 3924TIP3    H111778   0.140   0.720   2.301  2.4139  0.4578 -0.0922
 3924TIP3    H211779   0.230   0.602   2.331  1.5617  0.3526  2.2256
 3925TIP3   OH211780   2.668   5.368   4.954  0.3861  0.4367  0.0326
 3925TIP3    H111781   2.722   5.355   5.032  1.4264 -1.1870 -0.9008
 3925TIP3    H211782   2.651   5.279   4.921 -1.7809  0.9840 -0.4368
 3926TIP3   OH211783   5.390   1.136   2.438 -0.6705  0.1587  0.5760
 3926TIP3    H111784   5.396   1.088   2.356 -0.6520  0.7711  0.2093
 3926TIP3    H211785   5.480   1.141   2.470 -0.0540  3.0619 -1.2343
 3927TIP3   OH211786   6.225   1.182   0.132 -0.0448 -0.5201  0.6107
 3927TIP3    H111787   6.307   1.147   0.168  2.2363  4.4083  1.0391
 3927TIP3    H211788   6.242   1.192   0.038 -1.3889 -2.0454  0.1425
 3928TIP3   OH211789   0.908   1.313   3.029 -0.1839  0.0447  0.4474
 3928TIP3    H111790   0.950   1.288   3.111  1.4517 -0.3834 -0.4898
 3928TIP3    H211791   0.945   1.399   3.008 -0.0684 -0.1621 -0.2051
 3929TIP3   OH211792   3.405   4.805   3.969  0.3849 -0.0237 -0.4597
 3929TIP3    H111793   3.477   4.834   3.913  1.2192  1.1034  1.1127
 3929TIP3    H211794   3.382   4.883   4.020 -0.8947 -0.7918  0.1806
 3930TIP3   OH211795   1.290   3.971   1.074 -0.2515 -0.1561  0.5540
 3930TIP3    H111796   1.206   3.928   1.088  0.3122 -0.9536  1.6257
 3930TIP3    H211797   1.280   4.017   0.991 -0.9728 -2.1550 -0.5152
 3931TIP3   OH211798   1.228   2.179   2.002  0.0540 -0.1795  0.1231
 3931TIP3    H111799   1.305   2.152   1.953 -0.7550 -0.7815 -0.8717
 3931TIP3    H211800   1.211   2.268   1.974  0.3284 -0.0784  0.2744
 3932TIP3   OH211801   1.208   0.367   2.109 -0.3604 -0.3633 -0.1399
 3932TIP3    H111802   1.181   0.374   2.201  0.3102 -0.8738  0.1015
 3932TIP3    H211803   1.138   0.317   2.068 -0.1086 -1.1420  0.3512
 3933TIP3   OH211804   1.442   5.918   0.264 -0.0308  0.2114  0.3435
 3933TIP3    H111805   1.447   5.856   0.337  1.8648  0.2632  0.3062
 3933TIP3    H211806   1.408   5.866   0.191 -0.7587 -0.1478  0.9152
 3934TIP3   OH211807   0.040   1.446   4.019 -0.0384 -0.2944  0.0189
 3934TIP3    H111808   0.102   1.495   3.966 -0.1209 -0.4884 -0.2586
 3934TIP3    H211809   0.090   1.419   4.096  0.0687  0.0260  0.0635
 3935TIP3   OH211810   5.914   0.705   0.323 -0.0900  0.7778 -0.8961
 3935TIP3    H111811   5.867   0.683   0.403 -2.5968 -1.2715 -2.8024
 3935TIP3    H211812   5.910   0.801   0.319  0.3265  0.9688  1.4682
 3936TIP3   OH211813   2.934   0.291   3.364 -0.5629  0.2632 -0.1053
 3936TIP3    H111814   2.873   0.365   3.369 -0.6387  0.1328  1.4122
 3936TIP3    H211815   2.930   0.250   3.451 -0.3617 -1.4050 -0.8407
 3937TIP3   OH211816   1.017   5.107   2.078 -0.1001 -0.1016 -0.0890
 3937TIP3    H111817   1.091   5.066   2.034  1.0529 -0.1751  1.8063
 3937TIP3    H211818   0.993   5.180   2.021  1.2946 -0.2143 -0.8610
 3938TIP3   OH211819   2.133   3.764   2.143 -0.2634 -0.5056  0.2616
 3938TIP3    H111820   2.170   3.683   2.178  0.4139 -0.4148 -0.2219
 3938TIP3    H211821   2.178   3.834   2.189  0.9067 -0.3804 -1.0138
 3939TIP3   OH211822   2.585   2.681   2.551 -0.4180 -0.0690 -0.1580
 3939TIP3    H111823   2.675   2.693   2.581 -0.0635 -0.5222 -1.0209
 3939TIP3    H211824   2.580   2.731   2.470 -1.0913  0.3520  0.1327
 3940TIP3   OH211825   6.060   5.680   1.039  0.0460  0.4325  0.3497
 3940TIP3    H111826   6.152   5.689   1.065  0.3763  1.4127 -1.0528
 3940TIP3    H211827   6.019   5.761   1.070  0.2037  1.0929 -1.0701
 3941TIP3   OH211828   4.097   3.646   1.809  0.1126  0.3696 -0.1415
 3941TIP3    H111829   4.019   3.592   1.795  0.7411 -0.2263 -1.5544
 3941TIP3    H211830   4.099   3.705   1.734 -0.1542  1.8815  1.0094
 3942TIP3   OH211831   3.572   0.287   1.683  0.5346  0.5007  0.3268
 3942TIP3    H111832   3.582   0.218   1.618  0.6381  0.7344  0.0927
 3942TIP3    H211833   3.574   0.242   1.767  2.0148  0.3587  0.2475
 3943TIP3   OH211834   1.645   1.288   1.771 -0.1505 -0.4305  0.0192
 3943TIP3    H111835   1.709   1.276   1.841  0.3503 -0.1530 -0.3882
 3943TIP3    H211836   1.649   1.206   1.721  0.6006 -0.0405 -0.5808
 3944TIP3   OH211837   5.257   4.939   1.602 -0.0539  0.3138 -0.0513
 3944TIP3    H111838   5.179   4.948   1.656  0.1234 -0.9895  0.4714
 3944TIP3    H211839   5.248   5.006   1.535 -0.5981  1.5509  1.2181
 3945TIP3   OH211840   2.661   3.466   5.108 -0.2015  0.1249  0.0164
 3945TIP3    H111841   2.628   3.483   5.197 -0.4325  1.7037 -0.3393
 3945TIP3    H211842   2.619   3.533   5.054 -0.1491 -0.8915 -1.3173
 3946TIP3   OH211843   0.842   4.502   4.765 -0.7024 -0.0271  0.9103
 3946TIP3    H111844   0.907   4.468   4.704  1.1543  1.0772  2.1724
 3946TIP3    H211845   0.793   4.425   4.794  0.2389 -0.9341  0.1652
 3947TIP3   OH211846   1.559   5.340   2.045  0.0099  0.4608 -0.1293
 3947TIP3    H111847   1.496   5.336   1.974 -1.5429  2.4390  1.0199
 3947TIP3    H211848   1.638   5.379   2.006 -0.0434 -0.4447 -1.1889
 3948TIP3   OH211849   0.801   4.469   4.321 -0.2337 -0.5070 -0.2351
 3948TIP3    H111850   0.815   4.560   4.347  0.6021 -0.9835  1.0871
 3948TIP3    H211851   0.888   4.431   4.319 -0.5160 -1.1477 -1.3916
 3949TIP3   OH211852   5.127   1.393   0.571 -0.1564  0.1362  0.1384
 3949TIP3    H111853   5.169   1.310   0.594 -2.2686 -0.3569  2.6452
 3949TIP3    H211854   5.132   1.396   0.476 -0.3840 -3.1119 -0.1103
 3950TIP3   OH211855   0.780   5.377   0.870  0.1016 -0.1015  0.1429
 3950TIP3    H111856   0.698   5.390   0.917 -1.0416  0.4892 -1.9226
 3950TIP3    H211857   0.792   5.282   0.868 -1.2711 -0.2724 -0.7205
 3951TIP3   OH211858   3.615   3.389   1.556 -0.2412  0.1620 -0.0834
 3951TIP3    H111859   3.558   3.313   1.568  0.5450 -0.2589  1.1716
 3951TIP3    H211860   3.609   3.436   1.639 -1.2478  1.8832 -1.0609
 3952TIP3   OH211861   5.744   5.471   3.373 -0.1359 -0.1765 -0.0202
 3952TIP3    H111862   5.804   5.400   3.394  0.2796  0.1253 -0.1690
 3952TIP3    H211863   5.704   5.446   3.290  0.7287  0.2116 -0.5638
 3953TIP3   OH211864   3.808   5.150   1.416 -0.2306 -0.2082  0.1300
 3953TIP3    H111865   3.837   5.205   1.489  1.8084  0.6316 -1.2381
 3953TIP3    H211866   3.868   5.075   1.418  1.4885  1.0086 -2.0788
 3954TIP3   OH211867   2.561   5.886   0.270  0.3893  0.7998  0.0460
 3954TIP3    H111868   2.638   5.860   0.219 -0.9289  0.1878 -1.7536
 3954TIP3    H211869   2.593   5.894   0.360  2.5628  0.7035 -0.6579
 3955TIP3   OH211870   6.002   0.478   2.570  0.3268  0.0725  0.1182
 3955TIP3    H111871   6.067   0.412   2.544  0.7553  0.0557  1.1937
 3955TIP3    H211872   6.053   0.548   2.610 -0.2835  0.2522  0.5899
 3956TIP3   OH211873   0.107   2.939   2.460  0.0339  0.3110 -0.3250
 3956TIP3    H111874   0.054   2.919   2.383 -0.5535  0.2619  0.0868
 3956TIP3    H211875   0.063   2.893   2.532 -1.0148  2.5348  0.5474
 3957TIP3   OH211876   5.289   2.540   1.323 -0.4399  0.0244 -0.1690
 3957TIP3    H111877   5.246   2.538   1.409 -0.8900 -0.6986 -0.3986
 3957TIP3    H211878   5.220   2.568   1.263  0.1268  1.4972 -0.1718
 3958TIP3   OH211879   2.042   3.261   0.851  0.2124 -0.3273  0.0102
 3958TIP3    H111880   1.973   3.204   0.884  0.8525  0.0220  2.0628
 3958TIP3    H211881   2.016   3.280   0.761 -3.8543  1.8903  1.3587
 3959TIP3   OH211882   3.930   1.362   3.081  0.1597 -0.5661  0.5153
 3959TIP3    H111883   4.014   1.324   3.055  0.7545  0.0629  1.4576
 3959TIP3    H211884   3.950   1.454   3.099 -1.0488 -0.0402 -0.7049
 3960TIP3   OH211885   4.649   2.463   2.059 -0.2263  0.3234  0.1088
 3960TIP3    H111886   4.724   2.512   2.027 -0.2503  1.0719  1.1257
 3960TIP3    H211887   4.578   2.485   1.999  0.3555 -0.3925 -0.8587
 3961TIP3   OH211888   0.795   1.055   3.173 -0.3106  0.1641 -0.1302
 3961TIP3    H111889   0.744   0.992   3.224 -0.3343  0.8178  0.6795
 3961TIP3    H211890   0.835   1.003   3.104  1.3839 -1.1588  1.7343
 3962TIP3   OH211891   3.022   5.159   4.165 -0.1949 -0.5347  0.1876
 3962TIP3    H111892   3.031   5.187   4.256 -0.0521 -0.7967  0.2551
 3962TIP3    H211893   3.097   5.198   4.121  0.2553 -1.1886  0.3741
 3963TIP3   OH211894   5.077   5.477   4.708  0.3437 -0.0145 -0.1945
 3963TIP3    H111895   5.166   5.509   4.725  1.0084 -1.2630 -1.1377
 3963TIP3    H211896   5.060   5.414   4.778  0.6327 -0.5693 -0.6191
 3964TIP3   OH211897   4.313   0.455   3.914  0.2777 -0.1921  0.4430
 3964TIP3    H111898   4.276   0.543   3.913  0.3583 -0.1289 -2.0846
 3964TIP3    H211899   4.251   0.403   3.965  0.5706  1.4094  2.5685
 3965TIP3   OH211900   2.738   1.776   2.449 -0.0856  0.0377 -0.2819
 3965TIP3    H111901   2.747   1.689   2.489 -0.7886 -0.6323 -1.5316
 3965TIP3    H211902   2.654   1.773   2.402  0.4948  0.9453 -1.4265
 3966TIP3   OH211903   4.629   0.010   4.908  0.3732  0.1332  0.2142
 3966TIP3    H111904   4.668   0.097   4.914  2.9249 -0.9690  0.6503
 3966TIP3    H211905   4.691  -0.042   4.857 -1.9933 -1.0159 -1.7402
 3967TIP3   OH211906   1.832   5.438   1.390 -0.2068  0.0805  0.2507
 3967TIP3    H111907   1.817   5.507   1.454 -0.2832  0.8587 -0.5921
 3967TIP3    H211908   1.758   5.443   1.330 -0.6455 -1.2743  0.6355
 3968TIP3   OH211909   4.743   1.484   0.340 -0.1779 -0.2459 -0.3701
 3968TIP3    H111910   4.755   1.477   0.435 -0.4955 -1.6772 -0.4178
 3968TIP3    H211911   4.819   1.533   0.310  0.1738 -0.1966  0.5706
 3969TIP3   OH211912   5.422   1.728   4.266 -0.1422 -0.5531  0.0733
 3969TIP3    H111913   5.330   1.747   4.286 -0.5018 -1.9682 -0.1002
 3969TIP3    H211914   5.458   1.812   4.238 -1.0379  0.3101  1.3899
 3970TIP3   OH211915   2.350   5.564   1.447 -0.6670 -0.3040  0.1039
 3970TIP3    H111916   2.356   5.635   1.511  1.0982  1.5649 -1.9841
 3970TIP3    H211917   2.401   5.493   1.485  0.0994  0.6573  0.9292
 3971TIP3   OH211918   2.046   0.304   1.962 -0.8202  0.0670 -0.5970
 3971TIP3    H111919   1.959   0.266   1.975 -1.1042  0.8146 -0.2785
 3971TIP3    H211920   2.040   0.348   1.876 -0.3715 -0.9186 -1.1517
 3972TIP3   OH211921   2.169   0.208   2.267  0.4866 -0.2273 -0.0634
 3972TIP3    H111922   2.261   0.224   2.287  0.5003 -0.3808 -0.0042
 3972TIP3    H211923   2.129   0.295   2.266  0.5280 -0.2015  0.4193
 3973TIP3   OH211924   2.103   1.428   1.093  0.5814 -0.2635 -0.0532
 3973TIP3    H111925   2.145   1.486   1.029 -1.1868  0.8860 -0.2662
 3973TIP3    H211926   2.138   1.456   1.178  2.1501 -1.0901 -0.4004
 3974TIP3   OH211927   1.417   0.428   3.379 -0.0245 -0.1915 -0.0111
 3974TIP3    H111928   1.412   0.523   3.373 -1.1975 -0.1166  1.4421
 3974TIP3    H211929   1.340   0.403   3.430  2.3175 -1.4995  3.2863
 3975TIP3   OH211930   2.272   0.241   4.554 -0.1057  0.0634 -0.3204
 3975TIP3    H111931   2.193   0.211   4.599 -0.2014 -0.7310 -0.9906
 3975TIP3    H211932   2.287   0.329   4.588 -1.8325  0.6152 -0.8498
 3976TIP3   OH211933   3.872   0.171   1.739  0.4227 -0.0319 -0.0778
 3976TIP3    H111934   3.808   0.100   1.731 -0.3949  0.8149 -1.6390
 3976TIP3    H211935   3.827   0.237   1.792 -0.0103  0.5315 -1.1115
 3977TIP3   OH211936   0.884   3.363   0.859 -0.1948  0.4301 -0.2199
 3977TIP3    H111937   0.906   3.455   0.872  3.1452 -0.4460  1.3306
 3977TIP3    H211938   0.828   3.341   0.933 -0.9126  1.1436 -0.5332
 3978TIP3   OH211939   0.693   1.846   5.083 -0.3945  0.5239 -0.1154
 3978TIP3    H111940   0.642   1.789   5.025 -0.8577 -0.2941  1.0532
 3978TIP3    H211941   0.766   1.876   5.029 -0.2885 -0.9693 -0.8525
 3979TIP3   OH211942   6.009   4.946   3.973 -1.0025  0.5097  0.1811
 3979TIP3    H111943   6.037   4.894   3.898 -2.3828  0.0663 -0.0475
 3979TIP3    H211944   6.006   5.036   3.940 -0.1183  0.5372  0.1493
 3980TIP3   OH211945   3.083   3.749   2.576  0.0707  0.0955  0.0894
 3980TIP3    H111946   3.106   3.781   2.489 -0.3200  0.6287  0.1727
 3980TIP3    H211947   3.098   3.824   2.634 -0.6609  0.0669  0.3251
 3981TIP3   OH211948   1.487   0.166   0.323 -0.0823  0.6341  0.0847
 3981TIP3    H111949   1.504   0.189   0.232 -0.1137 -0.7960 -0.3103
 3981TIP3    H211950   1.571   0.178   0.368 -0.3034  2.3089  0.1108
 3982TIP3   OH211951   5.370   5.849   3.988 -0.2171  0.1918 -0.2693
 3982TIP3    H111952   5.320   5.857   3.907 -1.3362  1.8168  0.5416
 3982TIP3    H211953   5.456   5.817   3.960 -1.6052 -2.6238 -1.7039
 3983TIP3   OH211954   4.482   2.207   1.017 -0.2342 -0.1656  0.5687
 3983TIP3    H111955   4.521   2.120   1.011 -0.4224 -0.6735  4.1326
 3983TIP3    H211956   4.554   2.264   1.044 -0.6196  0.2007  0.8526
 3984TIP3   OH211957   5.835   1.195   3.410  0.1148 -0.0766 -0.2036
 3984TIP3    H111958   5.823   1.237   3.495  0.1370 -3.0794  1.4300
 3984TIP3    H211959   5.755   1.213   3.362 -1.5080 -1.2044  1.8875
 3985TIP3   OH211960   3.418   2.419   0.689  0.3436  0.1519 -0.0367
 3985TIP3    H111961   3.482   2.352   0.713  0.0676 -0.9922 -2.2504
 3985TIP3    H211962   3.394   2.460   0.772  3.2565  0.0413  0.9791
 3986TIP3   OH211963   5.586   2.597   3.641  0.1109 -0.1151  0.9101
 3986TIP3    H111964   5.666   2.603   3.589  0.9210  1.3581  2.2431
 3986TIP3    H211965   5.556   2.508   3.628  0.7543 -0.0682 -1.3519
 3987TIP3   OH211966   4.773   2.660   3.380 -0.1756  0.1651 -0.2405
 3987TIP3    H111967   4.733   2.671   3.466 -0.8640  0.1743 -0.5555
 3987TIP3    H211968   4.867   2.662   3.397 -0.3012  0.6264  0.4533
 3988TIP3   OH211969   5.854   3.340   5.021  0.1594  0.0737  0.3155
 3988TIP3    H111970   5.856   3.288   5.101  0.3291  1.1739  1.0469
 3988TIP3    H211971   5.906   3.290   4.959 -0.1502 -0.9004  0.8234
 3989TIP3   OH211972   0.635   2.551   2.214 -0.6061  0.0824  0.0839
 3989TIP3    H111973   0.714   2.543   2.161 -1.5319  1.1207 -1.5131
 3989TIP3    H211974   0.662   2.521   2.301  0.5679 -3.2806 -1.2546
 3990TIP3   OH211975   4.067   2.262   4.336 -0.0063  0.2467  0.4147
 3990TIP3    H111976   4.118   2.181   4.336  0.1617  0.3533  0.3871
 3990TIP3    H211977   3.981   2.235   4.303 -0.2047 -0.0829  1.1735
 3991TIP3   OH211978   5.015   1.761   1.285  0.1447 -0.3712  0.2900
 3991TIP3    H111979   5.106   1.736   1.272  0.2118 -0.3407  0.6963
 3991TIP3    H211980   4.965   1.682   1.266  0.0393  0.2827 -2.6341
 3992TIP3   OH211981   1.916   1.724   5.144  0.1510  0.2088  0.3985
 3992TIP3    H111982   1.889   1.800   5.093  0.3279  0.9802  1.4151
 3992TIP3    H211983   1.846   1.660   5.131 -1.2668  1.4614  1.4704
 3993TIP3   OH211984   4.435   1.462   1.683 -0.5416 -0.2991 -0.2643
 3993TIP3    H111985   4.429   1.467   1.778 -1.4505  1.1375 -0.3566
 3993TIP3    H211986   4.356   1.414   1.656 -0.8985  0.3170 -0.3413
 3994TIP3   OH211987   0.806   5.828   0.743 -0.4149 -0.6047 -0.1173
 3994TIP3    H111988   0.712   5.835   0.757 -0.4641  0.3327 -0.8010
 3994TIP3    H211989   0.826   5.735   0.756 -1.1341 -0.5448  1.7039
 3995TIP3   OH211990   3.628   3.550   4.357  0.4205 -0.1243  1.1411
 3995TIP3    H111991   3.632   3.492   4.434  2.5356  1.6567  2.4949
 3995TIP3    H211992   3.683   3.506   4.291 -0.9074 -1.3607  0.8055
 3996TIP3   OH211993   3.802   0.393   3.967 -0.7400  0.0992  0.1419
 3996TIP3    H111994   3.745   0.375   3.892 -0.0786  3.0141 -1.2239
 3996TIP3    H211995   3.768   0.475   4.003  0.9853  0.5175  0.9089
 3997TIP3   OH211996   4.517   4.427   0.070 -0.5616 -0.6023 -0.0210
 3997TIP3    H111997   4.483   4.490   0.006 -0.1226 -0.6414 -0.2948
 3997TIP3    H211998   4.594   4.388   0.027  0.4522  0.2288  0.9986
 3998TIP3   OH211999   3.095   1.999   4.585 -0.0218  0.3379  0.0859
 3998TIP3    H112000   3.092   1.907   4.612 -1.0811  0.7234  1.3932
 3998TIP3    H212001   3.150   1.999   4.507 -0.9502 -1.5850 -0.6469
 3999TIP3   OH212002   5.720   5.921   1.968 -0.5874  0.1242  0.1856
 3999TIP3    H112003   5.682   6.003   1.998 -0.3683  0.3624 -0.1761
 3999TIP3    H212004   5.798   5.947   1.919  2.6675 -0.5053  4.4537
 4000TIP3   OH212005   0.566   0.953   4.550 -0.4531 -0.0039 -0.4390
 4000TIP3    H112006   0.590   1.046   4.547 -0.6251  0.0405 -0.4582
 4000TIP3    H212007   0.482   0.949   4.504 -0.5547 -0.1339 -0.2428
 4001TIP3   OH212008   0.268   2.351   4.334 -0.1158 -0.2284  0.2606
 4001TIP3    H112009   0.195   2.290   4.322  0.2975 -0.4809 -1.2016
 4001TIP3    H212010   0.270   2.369   4.428 -1.4729 -0.9394  0.4408
 4002TIP3   OH212011   6.150   4.315   2.324  0.2714  0.5894 -0.1105
 4002TIP3    H112012   6.145   4.221   2.308  1.6908  0.6399 -0.9879
 4002TIP3    H212013   6.211   4.323   2.398 -1.3296  0.7484  1.2735
 4003TIP3   OH212014   0.746   4.720   0.506  0.8143 -0.5292 -0.2664
 4003TIP3    H112015   0.660   4.735   0.467  0.9216 -0.0360 -0.3143
 4003TIP3    H212016   0.803   4.786   0.466  1.8381 -2.4600 -2.1799
 4004TIP3   OH212017   1.904   4.283   0.025 -0.2406  0.2712  0.0892
 4004TIP3    H112018   1.815   4.266   0.057 -0.1400  0.9603  0.7579
 4004TIP3    H212019   1.959   4.277   0.104  0.0315  1.8869  0.0409
 4005TIP3   OH212020   5.509   1.529   1.553  0.4062  0.3829  0.1058
 4005TIP3    H112021   5.577   1.561   1.493 -0.1001  2.5642  0.5943
 4005TIP3    H212022   5.437   1.591   1.542 -0.2132  0.0637  2.0000
 4006TIP3   OH212023   0.301   3.832   1.015 -0.4614  0.2967  0.0103
 4006TIP3    H112024   0.340   3.763   1.068  0.0703  0.1276 -0.5819
 4006TIP3    H212025   0.228   3.790   0.970 -2.4847  1.0124  2.4042
 4007TIP3   OH212026   5.804   0.465   5.134  0.6581  0.0225 -0.0166
 4007TIP3    H112027   5.898   0.447   5.146  0.6268 -0.0915  0.0615
 4007TIP3    H212028   5.794   0.558   5.157  0.7665  0.0569 -0.1095
 4008TIP3   OH212029   5.023   5.217   3.154  0.2415 -0.6478  0.2829
 4008TIP3    H112030   4.945   5.249   3.199  0.2710 -1.1819  0.7286
 4008TIP3    H212031   5.023   5.263   3.070  0.2834  0.5046  0.8902
 4009TIP3   OH212032   6.246   4.390   0.217  0.2953 -0.7641 -0.3029
 4009TIP3    H112033   6.301   4.465   0.239  0.6352 -0.6488 -1.4557
 4009TIP3    H212034   6.253   4.331   0.292  1.6756 -0.5627 -0.2562
 4010TIP3   OH212035   1.345   2.341   2.640  0.8541  0.6249 -0.1843
 4010TIP3    H112036   1.298   2.381   2.713  0.3145  0.3739 -0.3888
 4010TIP3    H212037   1.315   2.389   2.562  0.3078 -0.0728 -0.4136
 4011TIP3   OH212038   5.495   0.979   2.997  0.7199 -0.0124  0.0304
 4011TIP3    H112039   5.456   1.022   2.921  2.2616  2.3621  0.5085
 4011TIP3    H212040   5.420   0.947   3.047 -0.4442  0.9583 -1.0272
 4012TIP3   OH212041   3.849   2.069   1.710  0.5967  0.1297 -0.4686
 4012TIP3    H112042   3.840   1.973   1.705  1.2547  0.0391 -0.0328
 4012TIP3    H212043   3.759   2.101   1.717  0.4391 -0.6197  1.8610
 4013TIP3   OH212044   1.377   4.110   4.942  0.2766  0.0593  0.0490
 4013TIP3    H112045   1.470   4.131   4.939  0.4156 -0.5137  0.0555
 4013TIP3    H212046   1.355   4.081   4.854  0.0545  0.3843 -0.0044
 4014TIP3   OH212047   3.956   3.648   0.302  0.0329  0.1256 -0.0033
 4014TIP3    H112048   3.959   3.693   0.218 -0.7372  0.4053  0.1069
 4014TIP3    H212049   3.976   3.557   0.282  1.4854  0.4861 -0.2479
 4015TIP3   OH212050   5.347   2.561   4.928 -0.3575  0.5040  0.3006
 4015TIP3    H112051   5.278   2.543   4.864 -0.0933 -1.8661  0.5742
 4015TIP3    H212052   5.304   2.614   4.995 -2.1261 -1.2975  0.7002
 4016TIP3   OH212053   3.441   2.104   0.882 -0.0042  0.2636  0.1407
 4016TIP3    H112054   3.380   2.039   0.847 -2.1435  2.2699 -0.0346
 4016TIP3    H212055   3.515   2.102   0.820  0.7608 -2.9566  0.9561
 4017TIP3   OH212056   5.937   5.939   1.078  0.2460  0.1895 -0.2131
 4017TIP3    H112057   6.007   6.000   1.052 -0.4882  1.3407  0.4574
 4017TIP3    H212058   5.874   5.943   1.006  0.8219 -0.8196 -0.7989
 4018TIP3   OH212059   4.244   5.874   1.482 -0.1834  0.1340  0.0294
 4018TIP3    H112060   4.264   5.789   1.443  1.2896 -0.2306  1.4769
 4018TIP3    H212061   4.151   5.870   1.503  0.2689 -1.9127  1.8725
 4019TIP3   OH212062   3.517   2.500   0.440  0.1257 -0.1052  0.5700
 4019TIP3    H112063   3.478   2.465   0.520  0.9613 -2.6559 -0.0540
 4019TIP3    H212064   3.510   2.429   0.376  0.2715  1.5440 -1.3908
 4020TIP3   OH212065   6.142   0.080   0.789 -0.5307  0.1860  0.1223
 4020TIP3    H112066   6.176   0.056   0.703  0.7655 -0.7448  0.8668
 4020TIP3    H212067   6.168   0.008   0.846  0.5604  1.7809  1.7518
 4021TIP3   OH212068   2.312   2.660   4.693  0.1767  0.0055  0.4387
 4021TIP3    H112069   2.264   2.735   4.729 -0.2392 -1.0098  2.1020
 4021TIP3    H212070   2.290   2.587   4.751  1.4665 -1.1586 -0.4717
 4022TIP3   OH212071   1.848   0.654   2.752 -0.2927 -0.2812 -0.1251
 4022TIP3    H112072   1.890   0.575   2.785  1.1841 -0.6557 -2.6339
 4022TIP3    H212073   1.920   0.712   2.728 -1.0902 -0.3391 -3.1972
 4023TIP3   OH212074   2.742   4.412   3.632  0.8964 -0.3323 -0.1391
 4023TIP3    H112075   2.763   4.324   3.603  0.6534  0.0294 -1.5000
 4023TIP3    H212076   2.718   4.459   3.551  1.2124  1.0233  0.5200
 4024TIP3   OH212077   1.314   3.559   4.899  0.2090 -0.3713 -0.6100
 4024TIP3    H112078   1.220   3.563   4.920  0.4715  0.0938  0.5493
 4024TIP3    H212079   1.358   3.589   4.979  1.2876  1.5337 -1.8162
 4025TIP3   OH212080   0.386   2.306   4.898 -0.4053 -0.4472 -0.3895
 4025TIP3    H112081   0.371   2.245   4.825 -3.5525  0.4325 -0.6247
 4025TIP3    H212082   0.313   2.289   4.958  0.6971  0.6195  1.3285
 4026TIP3   OH212083   5.359   0.413   2.174 -0.1833 -0.1902 -0.4552
 4026TIP3    H112084   5.384   0.361   2.097 -0.3315 -0.7575 -0.1271
 4026TIP3    H212085   5.270   0.384   2.194 -0.0260 -0.2759  0.1258
 4027TIP3   OH212086   0.446   3.881   5.031 -0.5005  0.4111 -0.0088
 4027TIP3    H112087   0.516   3.819   5.010  0.1290  0.6063  1.4046
 4027TIP3    H212088   0.401   3.842   5.106 -0.5896  1.2893  0.4022
 4028TIP3   OH212089   2.044   0.674   3.364  0.6117  0.3453 -0.4815
 4028TIP3    H112090   2.022   0.762   3.395  0.4491 -0.1089  0.7435
 4028TIP3    H212091   1.966   0.622   3.381  1.0048 -0.2313 -0.4037
 4029TIP3   OH212092   3.594   2.181   1.766  0.1748  0.3951  0.1069
 4029TIP3    H112093   3.535   2.116   1.804 -0.3925  0.4272 -0.6939
 4029TIP3    H212094   3.554   2.265   1.786  0.8757  0.5120  1.0873
 4030TIP3   OH212095   2.476   3.572   3.221  0.6168 -0.1645 -0.1047
 4030TIP3    H112096   2.567   3.554   3.195  0.6598  0.3031 -0.2805
 4030TIP3    H212097   2.426   3.500   3.183  1.2149 -1.8857  2.1022
 4031TIP3   OH212098   5.417   2.276   0.208  0.4146  0.2803 -0.0239
 4031TIP3    H112099   5.491   2.315   0.161 -0.4025 -0.4344 -2.0218
 4031TIP3    H212100   5.355   2.349   0.220  0.5546  0.4310 -0.2103
 4032TIP3   OH212101   6.253   5.578   3.829  0.3734  0.2834  0.1219
 4032TIP3    H112102   6.299   5.537   3.903  0.1761  0.3367  0.2743
 4032TIP3    H212103   6.323   5.617   3.776  0.5872 -0.4779 -0.1665
 4033TIP3   OH212104   0.200   1.756   4.731 -0.0676  0.4248 -0.1971
 4033TIP3    H112105   0.217   1.694   4.802 -1.5212  1.3311  0.9841
 4033TIP3    H212106   0.284   1.801   4.719  1.1322 -1.8999 -1.3147
 4034TIP3   OH212107   5.093   2.248   5.104 -0.2005 -0.1395 -0.0608
 4034TIP3    H112108   5.148   2.293   5.168  1.5831  1.7952 -2.7058
 4034TIP3    H212109   5.148   2.176   5.072 -0.2671  0.1308 -0.7986
 4035TIP3   OH212110   1.697   5.005   4.432 -0.0757  0.4680  0.0022
 4035TIP3    H112111   1.755   5.079   4.449  0.1510 -0.0007  1.3877
 4035TIP3    H212112   1.610   5.036   4.458 -0.2196  0.7037 -0.7444
 4036TIP3   OH212113   2.388   4.601   3.460  0.3211 -0.0171 -0.1863
 4036TIP3    H112114   2.479   4.579   3.481  0.4682  1.2985  0.6952
 4036TIP3    H212115   2.344   4.603   3.545 -0.0772  1.2252 -0.4027
 4037TIP3   OH212116   2.695   0.047   5.061  0.0822  0.2236 -0.0759
 4037TIP3    H112117   2.708   0.015   4.972  0.7751 -0.3941  0.2319
 4037TIP3    H212118   2.601   0.062   5.068  0.1422  1.3770 -1.2690
 4038TIP3   OH212119   1.717   0.006   1.799  0.4188  0.4446  0.1166
 4038TIP3    H112120   1.749   0.039   1.883  0.1940  0.4901  0.1858
 4038TIP3    H212121   1.685   0.083   1.753 -0.3776  0.2971  0.3985
 4039TIP3   OH212122   0.297   3.040   1.654 -0.7333  0.5075 -0.6323
 4039TIP3    H112123   0.311   3.060   1.562  2.6994  0.2645 -0.2728
 4039TIP3    H212124   0.329   2.950   1.664  1.7957  1.4967  1.2393
 4040TIP3   OH212125   2.591   4.798   2.713  0.2902 -0.7018 -0.3157
 4040TIP3    H112126   2.622   4.708   2.701  0.3717 -0.4391 -2.4504
 4040TIP3    H212127   2.639   4.829   2.790  0.4116 -2.3950  0.3496
 4041TIP3   OH212128   1.217   4.102   0.857 -0.5128 -0.0164 -0.5199
 4041TIP3    H112129   1.126   4.134   0.859  0.0286  1.6269 -0.5169
 4041TIP3    H212130   1.252   4.135   0.774  0.3658  0.2166 -0.0701
 4042TIP3   OH212131   0.884   0.014   0.925 -0.5524 -0.2725  0.0026
 4042TIP3    H112132   0.897  -0.038   1.004  1.2935  1.5218  0.9858
 4042TIP3    H212133   0.811   0.073   0.946 -0.6967 -0.4563  0.0143
 4043TIP3   OH212134   3.401   1.479   2.175 -0.0049 -0.2310  0.1577
 4043TIP3    H112135   3.406   1.510   2.085 -0.5720 -0.0135  0.2028
 4043TIP3    H212136   3.484   1.507   2.214 -0.5891  1.4037  0.2619
 4044TIP3   OH212137   4.313   2.169   3.038  0.0867  0.0804 -0.4762
 4044TIP3    H112138   4.368   2.231   3.085 -0.3978 -0.1013  0.3517
 4044TIP3    H212139   4.323   2.087   3.087 -1.3701  0.1941  0.0556
 4045TIP3   OH212140   4.364   1.671   1.503  0.4135  0.7040  0.1698
 4045TIP3    H112141   4.384   1.593   1.554 -2.3963  0.5052  1.1443
 4045TIP3    H212142   4.414   1.741   1.545  2.2845 -0.3627 -0.1827
 4046TIP3   OH212143   2.221   1.413   1.360 -0.4367  0.3813  0.5688
 4046TIP3    H112144   2.166   1.397   1.436  0.6968 -1.0021  1.1319
 4046TIP3    H212145   2.310   1.403   1.392  0.1024  0.9372 -0.6882
 4047TIP3   OH212146   1.343   2.663   1.447  0.8305  0.4296  0.3634
 4047TIP3    H112147   1.338   2.670   1.542  1.3514  0.9610  0.3529
 4047TIP3    H212148   1.418   2.716   1.423 -0.5288  2.0161 -0.5425
 4048TIP3   OH212149   5.936   5.196   3.844 -0.1653 -0.6249  0.2075
 4048TIP3    H112150   5.964   5.181   3.754  1.1613  0.2840  0.4397
 4048TIP3    H212151   5.966   5.285   3.864  0.2806 -1.1106  1.8137
 4049TIP3   OH212152   3.479   1.307   4.343  0.8729 -0.2160  0.2305
 4049TIP3    H112153   3.466   1.391   4.387  1.5919  0.3821 -0.6708
 4049TIP3    H212154   3.504   1.330   4.254 -1.7075 -1.3842 -0.9180
 4050TIP3   OH212155   4.486   4.914   1.106 -0.2023 -0.1618  0.1138
 4050TIP3    H112156   4.522   4.892   1.020  1.2427  1.0810  0.3570
 4050TIP3    H212157   4.483   5.010   1.107  0.0005 -0.1509  1.5195
 4051TIP3   OH212158   5.090   4.847   2.814 -0.0682 -0.2169 -0.4497
 4051TIP3    H112159   5.000   4.854   2.848  1.0267  0.3474  2.6114
 4051TIP3    H212160   5.115   4.756   2.833  0.0560 -0.3409 -1.2005
 4052TIP3   OH212161   4.955   3.377   3.225  0.6832 -0.1655  0.1574
 4052TIP3    H112162   5.018   3.436   3.184 -0.4984 -0.1034 -1.6885
 4052TIP3    H212163   4.919   3.326   3.153 -1.0694 -0.4892  1.2026
 4053TIP3   OH212164   3.779   5.553   0.244 -0.0861 -0.4765 -0.0304
 4053TIP3    H112165   3.774   5.573   0.337 -2.0930  0.3281 -0.2630
 4053TIP3    H212166   3.823   5.628   0.205 -0.1001 -0.3732  0.1549
 4054TIP3   OH212167   3.312  -0.029   1.599  0.1008 -0.1164 -0.5371
 4054TIP3    H112168   3.308  -0.015   1.694  0.0918  0.6363 -0.6355
 4054TIP3    H212169   3.305   0.060   1.563  2.0770 -0.1866 -1.1826
 4055TIP3   OH212170   1.991   0.074   2.993  0.4943  0.3390 -0.5008
 4055TIP3    H112171   1.956   0.049   3.079 -0.0718 -2.9136 -1.5681
 4055TIP3    H212172   2.086   0.078   3.006  0.5821 -1.9764 -0.0787
 4056TIP3   OH212173   1.172   3.593   2.973  0.3311  0.4323 -0.5216
 4056TIP3    H112174   1.121   3.530   2.922 -0.8171  1.2979 -0.4724
 4056TIP3    H212175   1.152   3.571   3.064  1.2724 -0.2109 -0.4623
 4057TIP3   OH212176   2.144   4.296   1.026  0.1046  0.0476 -0.0955
 4057TIP3    H112177   2.104   4.382   1.012  0.8741  0.5844  0.8634
 4057TIP3    H212178   2.074   4.243   1.063 -0.6197 -0.0147 -1.4827
 4058TIP3   OH212179   4.404   5.854   0.819  0.2803 -0.0338 -0.1623
 4058TIP3    H112180   4.316   5.818   0.807  0.3191  0.0709 -0.7943
 4058TIP3    H212181   4.444   5.798   0.886  0.5158 -1.5154 -1.4691
 4059TIP3   OH212182   0.871   0.067   2.970  0.0522  0.3072 -0.3167
 4059TIP3    H112183   0.935   0.015   2.921 -0.1017 -1.2390  1.0393
 4059TIP3    H212184   0.923   0.111   3.037 -0.1460 -0.0023  0.0394
 4060TIP3   OH212185   4.720   0.266   4.955  0.3074 -0.3656  0.3285
 4060TIP3    H112186   4.790   0.331   4.946  1.2103 -1.3159  0.3143
 4060TIP3    H212187   4.725   0.237   5.046 -0.1484 -0.3602  0.3583
 4061TIP3   OH212188   2.355   4.165   4.515  0.3585  0.4549  0.0405
 4061TIP3    H112189   2.279   4.192   4.464  1.2995 -0.7954 -2.1916
 4061TIP3    H212190   2.335   4.076   4.544  0.8297  0.2098 -0.3533
 4062TIP3   OH212191   5.200   4.264   2.710 -0.0427  0.0405  0.2441
 4062TIP3    H112192   5.109   4.277   2.738  0.4781  3.1243  0.9034
 4062TIP3    H212193   5.198   4.275   2.615 -0.2827  1.0702  0.3509
 4063TIP3   OH212194   1.368   0.017   1.057 -0.0294 -0.5232 -0.2986
 4063TIP3    H112195   1.291  -0.036   1.038 -0.8186 -0.1388  1.5963
 4063TIP3    H212196   1.357   0.044   1.148  2.3999 -0.5308  0.0673
 4064TIP3   OH212197   4.273   5.613   1.380  0.6724 -0.2237  0.2738
 4064TIP3    H112198   4.220   5.602   1.301  0.8383  2.0588 -0.2226
 4064TIP3    H212199   4.244   5.543   1.438 -2.4336  0.4895 -0.2352
 4065TIP3   OH212200   2.665   3.772   1.458 -0.4268  0.1181  0.4875
 4065TIP3    H112201   2.722   3.695   1.463 -2.7382 -1.7570 -0.0059
 4065TIP3    H212202   2.715   3.842   1.500  2.2144 -1.3572  0.0059
 4066TIP3   OH212203   2.178   5.193   1.637  0.0334 -0.4076 -0.1686
 4066TIP3    H112204   2.234   5.221   1.710 -0.5167  0.0214  0.0900
 4066TIP3    H212205   2.166   5.271   1.584  0.0222 -0.6006 -0.4522
 4067TIP3   OH212206   1.488   4.630   1.627  0.0313  0.5217  0.4131
 4067TIP3    H112207   1.423   4.562   1.645 -2.0118  1.8972 -1.3471
 4067TIP3    H212208   1.570   4.594   1.661 -1.6572 -1.1369  3.0742
 4068TIP3   OH212209   1.257   5.483   5.054 -0.2953  0.0732 -0.2582
 4068TIP3    H112210   1.253   5.571   5.016  0.6919  0.4122  0.3684
 4068TIP3    H212211   1.339   5.446   5.021  0.0338 -0.0343  0.6444
 4069TIP3   OH212212   1.232   3.901   1.515  0.2337 -0.5195  0.0424
 4069TIP3    H112213   1.238   3.869   1.605 -1.8255  1.0652  0.8369
 4069TIP3    H212214   1.174   3.839   1.472  0.7844 -0.9803 -0.0362
 4070TIP3   OH212215   4.995   2.936   1.152  0.1991  0.1580  0.3371
 4070TIP3    H112216   5.003   3.028   1.178  1.7799  0.2359 -0.2622
 4070TIP3    H212217   4.915   2.933   1.100 -0.0334  1.1430  0.6151
 4071TIP3   OH212218   3.655   1.432   4.149 -0.0093 -0.0546 -0.3279
 4071TIP3    H112219   3.632   1.484   4.072 -0.2257 -1.7480 -1.4734
 4071TIP3    H212220   3.732   1.475   4.185 -2.2297  3.2201  1.0177
 4072TIP3   OH212221   4.756   5.560   1.632 -0.0267 -0.5342  0.7772
 4072TIP3    H112222   4.852   5.569   1.627 -0.1898  1.2648  0.3285
 4072TIP3    H212223   4.723   5.649   1.621 -1.7909 -1.1958  0.4763
 4073TIP3   OH212224   4.876   0.065   1.777 -0.5126  0.1598 -0.5223
 4073TIP3    H112225   4.901  -0.001   1.712 -0.6589  0.4102 -0.8406
 4073TIP3    H212226   4.780   0.064   1.776 -0.5173 -0.0721 -0.0610
 4074TIP3   OH212227   5.787   3.890   0.805 -0.0936  0.1937  0.3040
 4074TIP3    H112228   5.755   3.973   0.840 -0.4544  0.9852 -1.7516
 4074TIP3    H212229   5.880   3.905   0.787  0.3030 -0.4924  1.6785
 4075TIP3   OH212230   3.008   5.313   1.237 -0.1480 -0.0089 -0.0435
 4075TIP3    H112231   3.018   5.243   1.172  0.0950  0.9396 -1.0613
 4075TIP3    H212232   2.916   5.339   1.230  0.3024  1.3724 -1.4075
 4076TIP3   OH212233   1.562   2.824   5.122  0.6739 -0.9028 -0.3478
 4076TIP3    H112234   1.588   2.891   5.186 -1.1646  0.1320 -0.5973
 4076TIP3    H212235   1.471   2.805   5.143  0.9197 -2.7681 -0.8125
 4077TIP3   OH212236   5.051   0.679   3.397  0.1627 -0.0142 -0.0361
 4077TIP3    H112237   5.141   0.668   3.367 -0.3162  0.4434 -1.7820
 4077TIP3    H212238   5.006   0.600   3.367 -0.0960 -0.0866  0.5335
 4078TIP3   OH212239   0.055   0.184   5.147  1.0187  0.1804  0.5606
 4078TIP3    H112240  -0.039   0.182   5.127  0.4105 -1.6967  3.0684
 4078TIP3    H212241   0.097   0.155   5.066 -0.5182  1.3834 -0.7189
 4079TIP3   OH212242   4.551   4.946   3.049 -0.6370  0.3301 -0.2398
 4079TIP3    H112243   4.539   4.852   3.031 -0.1959 -0.0187  1.1694
 4079TIP3    H212244   4.466   4.976   3.079 -1.0283  0.6152 -1.5804
 4080TIP3   OH212245   4.389   3.579   4.156 -0.6148  0.3342 -0.0885
 4080TIP3    H112246   4.443   3.519   4.105  3.4287  2.8280  0.7939
 4080TIP3    H212247   4.354   3.641   4.092 -0.8614 -0.1670 -0.4496
 4081TIP3   OH212248   6.174   0.747   3.424 -0.4165 -0.0191 -0.2158
 4081TIP3    H112249   6.182   0.826   3.371 -2.3266  0.0699 -0.4509
 4081TIP3    H212250   6.131   0.684   3.366 -0.6734 -0.6020  0.5832
 4082TIP3   OH212251   4.957   3.172   1.254  0.3579  0.4029  0.0332
 4082TIP3    H112252   4.862   3.176   1.243  0.3539 -0.7580 -0.4703
 4082TIP3    H212253   4.979   3.254   1.299 -0.9893  0.2531  1.0159
 4083TIP3   OH212254   2.684   4.757   4.210 -0.5483  0.2472  0.5632
 4083TIP3    H112255   2.617   4.716   4.155 -0.6743  0.7974  0.2939
 4083TIP3    H212256   2.751   4.690   4.220  1.0929  1.0960 -3.0090
 4084TIP3   OH212257   4.961   2.439   0.565 -0.0674 -0.0610  0.1025
 4084TIP3    H112258   5.007   2.382   0.503 -0.8031  0.0931 -0.5973
 4084TIP3    H212259   5.029   2.466   0.628  0.2808 -1.8202  0.5480
 4085TIP3   OH212260   4.784   1.930   4.668  0.0330  0.4240 -0.4695
 4085TIP3    H112261   4.810   1.973   4.586  0.8219  1.1400  0.1380
 4085TIP3    H212262   4.829   1.846   4.665  1.0109  0.9243 -0.2527
 4086TIP3   OH212263   3.943   3.736   0.565 -0.3235  0.0122  0.2916
 4086TIP3    H112264   4.032   3.765   0.587  0.2830 -1.3026 -0.3342
 4086TIP3    H212265   3.953   3.692   0.481 -1.8186  1.0167 -0.4318
 4087TIP3   OH212266   5.420   2.349   1.747  0.2614  0.1223 -0.4077
 4087TIP3    H112267   5.401   2.320   1.836  1.9568 -2.6033 -0.8082
 4087TIP3    H212268   5.338   2.388   1.716 -0.3878  1.1037  2.2509
 4088TIP3   OH212269   0.312   1.854   1.136 -0.2705  0.2850 -0.9674
 4088TIP3    H112270   0.394   1.808   1.116 -0.0909 -0.1209  0.5487
 4088TIP3    H212271   0.261   1.791   1.186 -0.5413  1.3108  0.0922
 4089TIP3   OH212272   2.678   4.928   2.972 -0.7906 -0.0842 -0.1177
 4089TIP3    H112273   2.684   5.023   2.968 -1.6672 -0.0139  0.1634
 4089TIP3    H212274   2.769   4.898   2.961 -0.4323  0.7950  0.3822
 4090TIP3   OH212275   2.566   3.489   1.794 -0.5172  0.3473  0.5101
 4090TIP3    H112276   2.534   3.429   1.861 -1.3531 -0.7630 -0.8388
 4090TIP3    H212277   2.644   3.446   1.759 -1.4301 -0.2936 -0.8429
 4091TIP3   OH212278   4.555   5.660   2.046  0.2180  0.1540  0.7159
 4091TIP3    H112279   4.624   5.696   1.991  1.0989 -1.1745  0.9076
 4091TIP3    H212280   4.494   5.620   1.985  0.7786 -0.6085  0.6392
 4092TIP3   OH212281   1.986   0.567   4.057  0.7252  0.2439  0.3768
 4092TIP3    H112282   2.054   0.561   4.124  1.4659  0.6491 -0.3174
 4092TIP3    H212283   1.913   0.516   4.092  1.6027 -0.6980  0.8763
 4093TIP3   OH212284   0.647   5.125   4.756  0.2405 -0.1203 -0.7485
 4093TIP3    H112285   0.655   5.221   4.757 -1.0625 -0.0017 -0.3221
 4093TIP3    H212286   0.628   5.103   4.665 -0.1351  0.0950 -0.7243
 4094TIP3   OH212287   0.645   5.651   3.153 -0.6212  0.4479 -0.6506
 4094TIP3    H112288   0.686   5.565   3.156  0.0239  0.7670  0.0558
 4094TIP3    H212289   0.615   5.661   3.063  1.9445  0.7011 -1.5421
 4095TIP3   OH212290   3.729   2.254   5.135 -0.3148 -0.5055 -0.2259
 4095TIP3    H112291   3.709   2.161   5.118 -0.5158 -0.2530 -1.4407
 4095TIP3    H212292   3.661   2.281   5.196 -0.6764 -0.9860 -0.4018
 4096TIP3   OH212293   0.701   1.897   2.762 -0.1119  0.2208 -0.0105
 4096TIP3    H112294   0.691   1.803   2.746  0.8167 -0.3762  2.4389
 4096TIP3    H212295   0.668   1.938   2.682 -2.7752 -2.0704 -0.2683
 4097TIP3   OH212296   4.392   3.355   3.050 -0.0452 -0.0460 -0.7968
 4097TIP3    H112297   4.386   3.295   2.976  1.3804 -1.2520 -0.0001
 4097TIP3    H212298   4.304   3.394   3.057 -0.1500  0.3042 -3.2242
 4098TIP3   OH212299   5.685   5.174   4.571 -0.2172  0.2018  0.0229
 4098TIP3    H112300   5.701   5.217   4.655  0.7646  1.1767 -0.6267
 4098TIP3    H212301   5.619   5.108   4.589  1.2731 -0.8642  1.9686
 4099TIP3   OH212302   3.341   2.702   0.290 -0.2886 -0.3246  0.1033
 4099TIP3    H112303   3.417   2.648   0.273  1.9437  2.3210  0.9779
 4099TIP3    H212304   3.310   2.673   0.376 -1.2186 -2.3185 -0.8283
 4100TIP3   OH212305   2.129   3.102   4.732  0.0251 -0.0417  0.3050
 4100TIP3    H112306   2.150   3.049   4.655  2.0559  2.2794 -0.8673
 4100TIP3    H212307   2.074   3.173   4.698 -3.2679 -1.5791  1.9676
 4101TIP3   OH212308   5.262   4.074   5.146 -0.1991 -0.1231 -0.1250
 4101TIP3    H112309   5.302   4.094   5.061  1.4364 -1.3874  0.2808
 4101TIP3    H212310   5.191   4.014   5.125  0.8283 -1.2387 -0.5602
 4102TIP3   OH212311   5.986   1.054   0.220 -0.2937 -0.5920 -0.1948
 4102TIP3    H112312   5.962   1.014   0.136  2.5971 -2.3969 -0.3282
 4102TIP3    H212313   6.066   1.103   0.200  0.4215 -1.0172  1.4655
 4103TIP3   OH212314   0.845   2.537   0.479 -0.7856  0.0483 -0.7980
 4103TIP3    H112315   0.809   2.545   0.568  0.8781 -0.4550 -0.0357
 4103TIP3    H212316   0.867   2.444   0.471  1.0732  0.4680 -0.8945
 4104TIP3   OH212317   3.140   4.643   3.163  0.4204  0.2377  0.2906
 4104TIP3    H112318   3.133   4.619   3.255  1.4387  0.9851  0.5871
 4104TIP3    H212319   3.161   4.561   3.118 -0.5841 -0.2187  0.6450
 4105TIP3   OH212320   3.500   3.589   2.053  0.3397  0.2485  0.1370
 4105TIP3    H112321   3.468   3.509   2.096 -0.2012  0.9553  1.0730
 4105TIP3    H212322   3.423   3.644   2.045  0.8054  0.8748 -0.0584
 4106TIP3   OH212323   1.921   2.928   4.477  0.1095 -0.2132 -0.1314
 4106TIP3    H112324   1.844   2.958   4.524 -0.2983 -2.6001  0.8495
 4106TIP3    H212325   1.887   2.883   4.399  0.6410  0.7957 -0.9726
 4107TIP3   OH212326   2.541   2.248   2.073 -0.1647  0.6515 -0.0317
 4107TIP3    H112327   2.530   2.278   1.983 -0.1183  1.3744  0.1937
 4107TIP3    H212328   2.533   2.328   2.126  1.1092  0.4419  0.5101
 4108TIP3   OH212329   2.297   3.677   3.422 -0.0667  0.2044  0.3531
 4108TIP3    H112330   2.334   3.694   3.509 -0.2430  0.6715  0.3400
 4108TIP3    H212331   2.372   3.652   3.368  0.0610  0.0328  0.6092
 4109TIP3   OH212332   4.588   0.834   2.311  0.5002  0.4118 -0.5462
 4109TIP3    H112333   4.619   0.918   2.345 -0.2642  1.2686 -1.8785
 4109TIP3    H212334   4.634   0.824   2.227 -0.2956  0.0841 -0.9574
 4110TIP3   OH212335   5.569   2.795   0.427  0.2152  0.2344  0.1158
 4110TIP3    H112336   5.663   2.783   0.415  0.3988 -0.5990  1.9478
 4110TIP3    H212337   5.557   2.890   0.429  1.2162  0.3606  1.0258
 4111TIP3   OH212338   3.231   1.280   2.591  0.7098  0.0978 -0.1127
 4111TIP3    H112339   3.321   1.284   2.559  0.4149  0.0646 -0.9631
 4111TIP3    H212340   3.188   1.214   2.537 -0.6816  2.3601 -1.9790
 4112TIP3   OH212341   2.753   1.243   3.925  0.1166  0.4725 -0.1022
 4112TIP3    H112342   2.799   1.279   3.849  2.5031 -0.1983  0.9084
 4112TIP3    H212343   2.824   1.212   3.983 -1.6409 -0.2316  1.7947
 4113TIP3   OH212344   3.311   2.164   4.114  0.0192 -0.4235  0.2277
 4113TIP3    H112345   3.254   2.239   4.134 -0.7354 -1.1784  1.0216
 4113TIP3    H212346   3.255   2.105   4.064  0.2862 -0.9212  0.5122
 4114TIP3   OH212347   4.517   5.496   1.772 -0.0627  0.4789  0.2622
 4114TIP3    H112348   4.596   5.481   1.719 -1.6037  0.2582 -2.1174
 4114TIP3    H212349   4.494   5.588   1.754 -0.7264  0.3397  0.4045
 4115TIP3   OH212350   0.440   0.643   0.909 -0.0147  0.1592  0.3747
 4115TIP3    H112351   0.347   0.622   0.902 -0.0062 -0.3536  1.5823
 4115TIP3    H212352   0.483   0.558   0.914  0.6048  0.3754 -0.9532
 4116TIP3   OH212353   0.883   1.532   2.556 -0.2253  0.0856  0.1941
 4116TIP3    H112354   0.940   1.545   2.480  0.0078 -0.5429  0.2540
 4116TIP3    H212355   0.799   1.505   2.518 -0.2642  0.2737  0.1419
 4117TIP3   OH212356   5.199   0.669   2.746  0.0030  0.5903  0.1684
 4117TIP3    H112357   5.262   0.724   2.699  0.8693 -0.0154  0.6068
 4117TIP3    H212358   5.164   0.725   2.815 -0.0799  0.9793 -0.1830
 4118TIP3   OH212359   6.290   2.224   3.166  0.0798  0.4823 -0.3401
 4118TIP3    H112360   6.291   2.184   3.253  1.5416  0.8527 -0.1592
 4118TIP3    H212361   6.340   2.164   3.111 -0.0261  0.7247 -0.7084
 4119TIP3   OH212362   4.141   4.380   1.159 -0.0628 -0.2715 -0.0687
 4119TIP3    H112363   4.068   4.341   1.110  0.3018  0.6681 -1.4241
 4119TIP3    H212364   4.217   4.328   1.133 -0.1768 -1.1250  1.1921
 4120TIP3   OH212365   5.371   4.110   2.901 -1.1012 -0.3041 -0.3491
 4120TIP3    H112366   5.377   4.015   2.895  0.1725 -0.1752 -2.0003
 4120TIP3    H212367   5.295   4.133   2.848 -0.0581 -0.3054 -1.9263
 4121TIP3   OH212368   1.973   0.234   4.727  0.2980  0.0985  0.2058
 4121TIP3    H112369   1.976   0.145   4.763  1.4875 -1.0277 -2.3832
 4121TIP3    H212370   1.897   0.234   4.669  1.0604  0.2624 -0.8392
 4122TIP3   OH212371   0.701   1.876   4.081 -0.0566 -0.1030  0.4045
 4122TIP3    H112372   0.774   1.854   4.023 -1.1314 -1.1851 -0.6061
 4122TIP3    H212373   0.742   1.904   4.163  1.4822  0.1006 -0.4168
 4123TIP3   OH212374   0.432   0.608   4.232  0.3455 -0.3525  0.0397
 4123TIP3    H112375   0.434   0.548   4.306  0.1234  0.6369  0.8705
 4123TIP3    H212376   0.520   0.603   4.195  1.5180  1.3963  2.2750
 4124TIP3   OH212377   4.362   4.642   1.139  0.7342  0.1358 -0.5503
 4124TIP3    H112378   4.303   4.598   1.078 -0.1178  0.4160  0.0669
 4124TIP3    H212379   4.356   4.735   1.115 -0.1198  0.3317  0.3831
 4125TIP3   OH212380   4.715   1.817   0.422  0.3955  0.0082 -0.1271
 4125TIP3    H112381   4.704   1.836   0.515  0.9276 -0.8588  0.1284
 4125TIP3    H212382   4.626   1.810   0.388  0.0217 -3.5377  1.1662
 4126TIP3   OH212383   2.132   5.570   3.484 -0.2568 -0.4485  0.4816
 4126TIP3    H112384   2.116   5.663   3.471  0.2285 -0.2316  1.3573
 4126TIP3    H212385   2.204   5.567   3.547  1.2603 -1.3943 -1.2005
 4127TIP3   OH212386   2.597   0.476   0.472  0.1680 -0.2081 -0.4448
 4127TIP3    H112387   2.666   0.534   0.505 -1.9884  1.8025  0.7775
 4127TIP3    H212388   2.560   0.436   0.551 -2.1037  1.2060 -0.7032
 4128TIP3   OH212389   1.498   4.429   3.127 -0.1239 -0.3135  0.4273
 4128TIP3    H112390   1.531   4.386   3.207 -2.2146  0.4738  1.7833
 4128TIP3    H212391   1.408   4.398   3.118 -0.6725  1.3692 -0.3218
 4129TIP3   OH212392   1.797   5.102   0.007  0.5863  0.6245 -0.4763
 4129TIP3    H112393   1.849   5.037   0.053 -0.3019 -0.2637 -0.6774
 4129TIP3    H212394   1.744   5.051  -0.055  1.1828  1.7082 -1.9296
 4130TIP3   OH212395   5.095   4.352   4.095  0.3077  0.0481  0.2726
 4130TIP3    H112396   5.167   4.416   4.103  0.2015  0.2251 -0.1570
 4130TIP3    H212397   5.138   4.272   4.066  0.2922  0.2592 -0.3633
 4131TIP3   OH212398   2.764   4.945   0.186 -0.1251  0.1771  0.7236
 4131TIP3    H112399   2.810   4.893   0.120  0.8866 -1.0961  2.3318
 4131TIP3    H212400   2.690   4.983   0.139  1.2079  0.3217 -1.3967
 4132TIP3   OH212401   5.806   4.498   1.178 -0.0923 -0.2334  0.5908
 4132TIP3    H112402   5.775   4.588   1.181 -0.4455 -0.3527  0.5216
 4132TIP3    H212403   5.845   4.483   1.264 -1.8410 -0.6631  1.3527
 4133TIP3   OH212404   4.394   2.662   4.504 -0.1037 -0.6875 -0.4181
 4133TIP3    H112405   4.396   2.576   4.544 -2.6097 -0.0665  1.2355
 4133TIP3    H212406   4.302   2.681   4.490  0.4095  1.4348 -1.4185
 4134TIP3   OH212407   4.471   2.898   0.554 -0.1506  0.0326 -0.1260
 4134TIP3    H112408   4.485   2.840   0.480 -0.4080 -0.4503  0.1973
 4134TIP3    H212409   4.399   2.955   0.527  1.6322  1.8220 -1.3794
 4135TIP3   OH212410   3.091   4.671   0.021 -0.3202  0.0465  0.2187
 4135TIP3    H112411   3.071   4.718   0.102 -2.4519  0.8281 -0.6728
 4135TIP3    H212412   3.125   4.738  -0.038 -4.1985  0.9260 -1.3574
 4136TIP3   OH212413   3.152   2.248   0.312 -0.1429 -0.2709  0.2186
 4136TIP3    H112414   3.132   2.192   0.387  1.2022 -1.6932 -0.4502
 4136TIP3    H212415   3.180   2.331   0.352 -0.5255 -0.6136  1.2501
 4137TIP3   OH212416   4.708   3.913   3.707  0.3647 -0.0968 -0.2078
 4137TIP3    H112417   4.644   3.913   3.636  0.4013 -1.5830 -0.2614
 4137TIP3    H212418   4.787   3.951   3.669 -0.0287  0.3888 -0.5539
 4138TIP3   OH212419   4.629   5.504   4.456 -0.5871  0.4447 -0.1726
 4138TIP3    H112420   4.708   5.479   4.408 -0.7887  2.1800 -1.5107
 4138TIP3    H212421   4.650   5.487   4.548  0.4566 -1.3205 -0.6996
 4139TIP3   OH212422   2.856   4.201   2.282 -0.4652  0.0122  0.2985
 4139TIP3    H112423   2.787   4.148   2.319  0.4182 -0.6501  1.0406
 4139TIP3    H212424   2.818   4.239   2.203 -1.4694 -0.8153  0.3733
 4140TIP3   OH212425   3.909   1.694   4.855 -0.3661  0.1437  0.2129
 4140TIP3    H112426   3.871   1.697   4.943  2.0110  1.5881  1.2760
 4140TIP3    H212427   3.920   1.601   4.837 -2.7622 -0.2649  0.5241
 4141TIP3   OH212428   2.577   2.068   1.217  0.0843  0.7125 -0.6016
 4141TIP3    H112429   2.629   2.003   1.170  1.5588  0.4285  1.2955
 4141TIP3    H212430   2.589   2.149   1.167  2.2884  0.6247 -0.3005
 4142TIP3   OH212431   5.520   0.457   3.082 -0.6599  0.2113  0.0899
 4142TIP3    H112432   5.532   0.457   2.987 -0.4948 -1.2444  0.0954
 4142TIP3    H212433   5.441   0.509   3.096 -0.3000  1.0233 -0.7777
 4143TIP3   OH212434   0.309   2.183   0.698 -0.4580  0.4259  0.2882
 4143TIP3    H112435   0.358   2.241   0.758  0.5187  1.1788 -1.1608
 4143TIP3    H212436   0.262   2.123   0.756  1.4271  0.2980  1.7988
 4144TIP3   OH212437   2.314   5.390   0.370 -0.0642  0.3180  0.1406
 4144TIP3    H112438   2.345   5.480   0.357  0.7653 -0.1222 -1.1565
 4144TIP3    H212439   2.323   5.374   0.464 -2.5172  2.3815  0.8455
 4145TIP3   OH212440   0.267   2.145   3.162  0.1438 -0.0854  0.2143
 4145TIP3    H112441   0.301   2.122   3.075  2.0916 -2.5534  1.5007
 4145TIP3    H212442   0.183   2.098   3.168  0.5329 -0.8143  0.0587
 4146TIP3   OH212443   3.345   0.776   0.991  0.7524 -0.7706 -0.0620
 4146TIP3    H112444   3.407   0.818   0.931 -1.1413 -0.8978 -2.2295
 4146TIP3    H212445   3.334   0.687   0.956 -0.9521 -0.6199  0.0035
 4147TIP3   OH212446   6.188   4.775   2.544 -0.1635 -0.0722 -0.0013
 4147TIP3    H112447   6.151   4.687   2.551  0.4680 -0.2735  1.0787
 4147TIP3    H212448   6.274   4.768   2.586  1.2410  0.3450 -2.6306
 4148TIP3   OH212449   2.736   4.258   2.845 -0.5438  0.0598  0.4416
 4148TIP3    H112450   2.803   4.254   2.913 -0.4950  1.5955  0.5263
 4148TIP3    H212451   2.665   4.308   2.885  0.0259  2.1844 -1.0011
 4149TIP3   OH212452   2.363   0.543   1.230 -0.0468 -0.2036  0.1724
 4149TIP3    H112453   2.402   0.629   1.246 -0.2314 -0.2556  0.9619
 4149TIP3    H212454   2.322   0.520   1.314  0.0366 -1.0809 -0.0257
 4150TIP3   OH212455   6.255   2.407   0.382 -0.3643 -0.4052  0.0427
 4150TIP3    H112456   6.282   2.396   0.291 -0.0680 -0.1839  0.1006
 4150TIP3    H212457   6.283   2.327   0.426 -0.7280 -0.6176 -0.1102
 4151TIP3   OH212458   6.007   5.516   4.965 -0.3282 -0.2616  0.4794
 4151TIP3    H112459   5.912   5.521   4.976 -0.1661  2.2145  1.3749
 4151TIP3    H212460   6.043   5.558   5.043  1.4586  0.2329 -0.5487
 4152TIP3   OH212461   3.229   2.139   0.651  0.6109  0.1005 -0.5270
 4152TIP3    H112462   3.293   2.186   0.704  1.0936 -0.1162 -0.9106
 4152TIP3    H212463   3.145   2.159   0.692  0.6312  2.4676 -1.4966
 4153TIP3   OH212464   3.338   2.926   0.599 -0.1403  0.1099  0.6617
 4153TIP3    H112465   3.380   3.005   0.563  0.4267 -0.6036 -0.2790
 4153TIP3    H212466   3.402   2.856   0.583 -0.1955 -0.3743  2.4049
 4154TIP3   OH212467   2.683   1.845   3.575 -0.5426  0.3247 -0.2167
 4154TIP3    H112468   2.726   1.911   3.520  0.3593  0.5498  0.7203
 4154TIP3    H212469   2.597   1.832   3.535 -0.7085  2.0158 -0.4806
 4155TIP3   OH212470   0.234   2.820   0.949  1.0252  0.5301  0.9521
 4155TIP3    H112471   0.214   2.820   0.855  2.0447  1.2498  0.7297
 4155TIP3    H212472   0.201   2.735   0.980 -2.0317  1.4419  0.5536
 4156TIP3   OH212473   0.970   5.494   4.813  0.0806 -0.1479 -0.5399
 4156TIP3    H112474   1.015   5.578   4.816 -0.6285  0.2016  0.7874
 4156TIP3    H212475   0.982   5.456   4.900 -0.0223 -1.2030 -0.9672
 4157TIP3   OH212476   5.934   2.222   0.406 -0.2349  0.4037  0.0526
 4157TIP3    H112477   6.003   2.222   0.471 -1.1484  0.1228  1.0546
 4157TIP3    H212478   5.864   2.169   0.445 -1.0365  0.7272 -0.9023
 4158TIP3   OH212479   2.069   3.622   3.227 -0.2740  0.0942 -0.2510
 4158TIP3    H112480   2.120   3.612   3.308 -1.4978  0.3474  0.5761
 4158TIP3    H212481   2.049   3.716   3.223 -1.4728 -0.1356 -0.0414
 4159TIP3   OH212482   2.644   4.866   0.448  0.0400 -0.5409  0.0388
 4159TIP3    H112483   2.689   4.784   0.467  0.4851 -0.0744  1.0423
 4159TIP3    H212484   2.684   4.897   0.367  1.5650 -0.1320  0.9035
 4160TIP3   OH212485   1.254   5.025   1.974 -0.2588  0.3305  0.2256
 4160TIP3    H112486   1.326   4.983   2.022 -2.3727 -3.9991  0.1088
 4160TIP3    H212487   1.280   5.019   1.882 -0.6913 -1.3844  0.1694
 4161TIP3   OH212488   4.386   4.867   2.449 -0.1000 -0.5653  0.4441
 4161TIP3    H112489   4.422   4.926   2.514 -0.2313  1.1941 -0.9967
 4161TIP3    H212490   4.443   4.790   2.451  1.0620  0.2900  1.2462
 4162TIP3   OH212491   5.496   1.955   1.368 -0.4826 -0.2093 -0.4068
 4162TIP3    H112492   5.535   1.985   1.450 -1.2352 -1.4472  0.4271
 4162TIP3    H212493   5.557   1.985   1.300  0.3297  0.5263  0.6183
 4163TIP3   OH212494   1.344   1.619   1.608 -0.1952 -0.0775  0.2256
 4163TIP3    H112495   1.257   1.632   1.569  0.2304 -0.7932 -1.0100
 4163TIP3    H212496   1.334   1.650   1.698 -0.9034  2.7075 -0.7194
 4164TIP3   OH212497   0.984   0.871   2.783  0.0407 -0.5341 -0.0855
 4164TIP3    H112498   0.977   0.783   2.821  0.3919  0.3621  2.2430
 4164TIP3    H212499   0.896   0.891   2.753  0.2675 -2.2489 -2.2156
 4165TIP3   OH212500   2.948   4.560   4.751 -0.7139  0.3437  0.0420
 4165TIP3    H112501   3.020   4.620   4.770  0.5730 -1.0955 -0.0460
 4165TIP3    H212502   2.884   4.613   4.704  0.3933  1.6298 -0.0890
 4166TIP3   OH212503   0.561   5.144   3.186  0.1624 -0.3532  0.0133
 4166TIP3    H112504   0.563   5.237   3.168  1.1633 -0.4157 -0.2466
 4166TIP3    H212505   0.484   5.132   3.242 -1.1280  0.3149 -1.5723
 4167TIP3   OH212506   0.686   4.424   2.460 -0.0559  0.1511  0.2685
 4167TIP3    H112507   0.730   4.446   2.378  0.5225 -1.5280  0.0831
 4167TIP3    H212508   0.694   4.503   2.514  1.0030  0.7171 -0.6794
 4168TIP3   OH212509   1.458   3.046   4.469  0.0422  0.5273  0.3227
 4168TIP3    H112510   1.470   3.013   4.558  0.4872 -0.0719  0.0513
 4168TIP3    H212511   1.527   3.002   4.418 -0.8140  0.1025 -0.5057
 4169TIP3   OH212512   1.906   4.969   3.811  0.6420 -0.1017  0.0306
 4169TIP3    H112513   1.904   5.012   3.897  0.5089 -0.7776  0.3711
 4169TIP3    H212514   1.814   4.958   3.788  0.5581  3.1543 -1.7948
 4170TIP3   OH212515   1.282   1.047   4.213  0.2334 -0.0175  0.0378
 4170TIP3    H112516   1.373   1.076   4.209  0.4942 -0.9298 -1.0220
 4170TIP3    H212517   1.271   0.992   4.136 -0.7150 -1.3654  1.0901
 4171TIP3   OH212518   5.750   0.026   1.474  0.5424 -0.3429 -0.1027
 4171TIP3    H112519   5.811   0.021   1.547  0.7234  0.2855 -0.2044
 4171TIP3    H212520   5.727   0.119   1.468  0.5645 -0.3745 -0.8672
 4172TIP3   OH212521   4.430   1.432   1.953  0.2310  0.1679 -0.3913
 4172TIP3    H112522   4.394   1.344   1.943 -1.2919  0.3906  2.3553
 4172TIP3    H212523   4.483   1.428   2.033  1.1265  1.4750 -0.8757
 4173TIP3   OH212524   4.943   2.973   5.112  0.2089  0.0238 -0.0010
 4173TIP3    H112525   4.949   3.047   5.052  1.8826  1.1215  1.4265
 4173TIP3    H212526   5.009   2.990   5.178 -0.6496 -1.8205  1.4343
 4174TIP3   OH212527   5.068   3.703   2.437  0.3192 -0.4233  0.5421
 4174TIP3    H112528   5.096   3.794   2.428 -0.6887 -0.0317  1.1966
 4174TIP3    H212529   5.080   3.683   2.529  0.3994 -0.9110  0.4286
 4175TIP3   OH212530   2.357   5.961   2.890  0.0019  0.2761  0.5883
 4175TIP3    H112531   2.344   5.958   2.796  0.4692  1.6846  0.4636
 4175TIP3    H212532   2.444   5.998   2.902  0.4070 -0.9009  1.5734
 4176TIP3   OH212533   5.482   3.055   0.380  0.3408 -1.3178  0.1679
 4176TIP3    H112534   5.439   3.125   0.331 -0.8112 -2.3366 -0.3305
 4176TIP3    H212535   5.443   3.059   0.467 -0.8264 -2.2521 -0.2889
 4177TIP3   OH212536   1.041   4.976   1.504 -0.2594  0.7011 -0.1045
 4177TIP3    H112537   1.025   5.067   1.479  0.0178  1.1736  1.3298
 4177TIP3    H212538   1.130   4.959   1.474  0.4116  1.5564  1.2903
 4178TIP3   OH212539   3.815   1.201   2.842  0.0971  0.1390 -0.4376
 4178TIP3    H112540   3.858   1.260   2.904 -0.1426 -0.5400  0.3888
 4178TIP3    H212541   3.783   1.259   2.772  0.6004  0.8833 -0.0639
 4179TIP3   OH212542   0.953   5.278   1.855 -0.2816 -0.0420  0.6455
 4179TIP3    H112543   0.949   5.373   1.847  1.9288  0.0945  0.5535
 4179TIP3    H212544   0.874   5.247   1.811  0.6304  1.6288 -2.5176
 4180TIP3   OH212545   3.875   3.726   2.632 -0.2440  0.4023  0.0596
 4180TIP3    H112546   3.900   3.657   2.570  0.1773  0.2003  0.4408
 4180TIP3    H212547   3.850   3.800   2.578 -0.4157  0.0470 -0.3567
 4181TIP3   OH212548   0.786   3.547   3.506 -0.3938 -0.0352 -0.0767
 4181TIP3    H112549   0.762   3.481   3.441 -1.2041  1.3678 -1.2776
 4181TIP3    H212550   0.720   3.539   3.574 -0.3690 -0.5853 -0.1117
 4182TIP3   OH212551   3.043   4.646   1.351 -0.3063 -0.2033 -0.1006
 4182TIP3    H112552   3.039   4.736   1.319 -1.7843  0.0100  0.5897
 4182TIP3    H212553   3.117   4.607   1.304  0.7317  1.5201  0.0147
 4183TIP3   OH212554   5.340   0.453   2.607 -0.3100 -1.0557 -0.0451
 4183TIP3    H112555   5.297   0.501   2.678  1.2827 -0.1703  0.3690
 4183TIP3    H212556   5.378   0.521   2.551 -0.9194 -1.7589 -1.3788
 4184TIP3   OH212557   5.045   2.025   0.818  0.4910 -0.7103  0.3247
 4184TIP3    H112558   5.045   1.959   0.887  1.4540  1.0755  2.1475
 4184TIP3    H212559   5.050   2.108   0.864  0.9591  0.5956 -1.9064
 4185TIP3   OH212560   0.435   4.086   2.107  0.8365  0.3386 -0.4248
 4185TIP3    H112561   0.488   4.008   2.121  0.3549  0.0894  0.0290
 4185TIP3    H212562   0.346   4.054   2.097  0.8458  0.6823 -1.9978
 4186TIP3   OH212563   2.421   4.178   0.381  0.4877 -0.1205  0.0220
 4186TIP3    H112564   2.363   4.154   0.453 -0.0602  1.4195  0.1432
 4186TIP3    H212565   2.362   4.213   0.314  1.0243 -1.1911 -1.0330
 4187TIP3   OH212566   2.197   3.515   2.682 -0.1308 -0.3977 -0.0599
 4187TIP3    H112567   2.188   3.550   2.593  0.4347  1.8463  0.7194
 4187TIP3    H212568   2.134   3.563   2.734  1.6357  0.5307  1.3293
 4188TIP3   OH212569   1.097   4.360   4.305  0.0728 -0.1910 -0.0070
 4188TIP3    H112570   1.120   4.415   4.230 -0.6847  3.3720  2.1321
 4188TIP3    H212571   1.175   4.306   4.321  0.7800  0.0108 -2.3808
 4189TIP3   OH212572   2.376   0.439   4.291 -0.3278 -0.4213  0.1572
 4189TIP3    H112573   2.408   0.395   4.370  0.2365  0.6231  0.5306
 4189TIP3    H212574   2.442   0.423   4.225 -0.1531 -0.1964  0.2757
 4190TIP3   OH212575   3.816   3.167   1.544  0.1744 -0.2083 -0.4554
 4190TIP3    H112576   3.906   3.193   1.524  0.4320  0.4374  1.3817
 4190TIP3    H212577   3.764   3.246   1.527  0.3026  0.1403  0.7150
 4191TIP3   OH212578   5.647   4.482   3.548  0.0494 -0.3786  0.4299
 4191TIP3    H112579   5.664   4.429   3.470 -0.9949 -1.2036  0.7343
 4191TIP3    H212580   5.709   4.555   3.542  0.8424 -1.1033 -0.5159
 4192TIP3   OH212581   1.030   4.806  -0.005 -0.4399  0.0832  0.4460
 4192TIP3    H112582   1.121   4.819   0.021  0.5060 -1.4649 -1.7670
 4192TIP3    H212583   1.015   4.712   0.002 -1.5872  0.2058 -0.0268
 4193TIP3   OH212584   2.810   3.750   2.866 -0.3308  0.0137  0.1575
 4193TIP3    H112585   2.845   3.767   2.779  0.2341 -0.4085  0.2971
 4193TIP3    H212586   2.723   3.790   2.865 -0.2042  0.2845 -0.4935
 4194TIP3   OH212587   6.215   5.675   3.267  0.2668 -0.3347 -0.1010
 4194TIP3    H112588   6.123   5.700   3.282  0.9835  1.8608  0.9912
 4194TIP3    H212589   6.252   5.747   3.218  2.0763  0.1868  1.8718
 4195TIP3   OH212590   4.570   1.514   2.959 -0.2659 -0.4490 -0.4204
 4195TIP3    H112591   4.586   1.461   2.881 -2.2868  0.4545 -1.5139
 4195TIP3    H212592   4.576   1.604   2.928  0.1503 -0.0536  0.7686
 4196TIP3   OH212593   4.264   5.564   1.969 -0.1906  0.6763 -0.1376
 4196TIP3    H112594   4.261   5.644   1.917  1.0425  0.9132  0.1412
 4196TIP3    H212595   4.191   5.511   1.936 -0.3156  1.4374 -1.0973
 4197TIP3   OH212596   2.387   0.844   1.272  0.1675  0.1553  0.3953
 4197TIP3    H112597   2.344   0.928   1.285  0.6264  0.3949  0.3710
 4197TIP3    H212598   2.414   0.817   1.360 -0.8610 -0.4529  0.5497
 4198TIP3   OH212599   0.351   1.316   0.898  0.0894 -0.1519  0.9050
 4198TIP3    H112600   0.326   1.289   0.809  2.3043 -2.0629  0.7487
 4198TIP3    H212601   0.421   1.379   0.885 -0.9714  1.1489  1.3331
 4199TIP3   OH212602   3.753   0.923   0.767  0.5182  0.1264  0.1420
 4199TIP3    H112603   3.794   0.849   0.721  0.8734 -0.5254  1.4480
 4199TIP3    H212604   3.817   0.994   0.761  0.8806 -0.1871  0.2531
 4200TIP3   OH212605   4.048   2.453   0.509  0.0857  0.0427  0.3596
 4200TIP3    H112606   4.112   2.384   0.497  0.1257  0.2665 -0.9246
 4200TIP3    H212607   4.095   2.522   0.556 -0.2096 -1.1082  2.4761
 4201TIP3   OH212608   6.195   0.011   0.071  0.4133  0.0910 -0.1222
 4201TIP3    H112609   6.198  -0.014  -0.021 -1.7033  0.6063 -0.3678
 4201TIP3    H212610   6.134   0.085   0.074  1.9593  1.3889  1.4344
 4202TIP3   OH212611   0.062   1.102   2.427  0.4490  0.6555  0.6197
 4202TIP3    H112612  -0.033   1.094   2.425  0.5065 -0.6986  1.7804
 4202TIP3    H212613   0.082   1.140   2.512  0.9868 -0.0013  0.7999
 4203TIP3   OH212614   1.114   3.420   2.750  0.0446  0.3415  0.2401
 4203TIP3    H112615   1.135   3.327   2.746 -0.2206  0.2596  0.7110
 4203TIP3    H212616   1.128   3.452   2.661  3.3649  0.5358  0.7034
 4204TIP3   OH212617   0.005   3.644   0.355 -0.0362 -0.4100  0.2653
 4204TIP3    H112618   0.069   3.588   0.312  0.2767  0.2834 -0.1942
 4204TIP3    H212619  -0.036   3.692   0.283 -0.3087 -0.0676  0.6474
 4205TIP3   OH212620   3.655   0.137   3.936  0.1199  0.1366  0.5837
 4205TIP3    H112621   3.717   0.064   3.925 -0.5901 -0.5193  0.8277
 4205TIP3    H212622   3.662   0.186   3.854  0.1615 -0.5644  0.1504
 4206TIP3   OH212623   2.375   0.569   0.887 -0.4505 -0.7396 -0.3389
 4206TIP3    H112624   2.285   0.549   0.914 -0.7791  0.4479 -0.4856
 4206TIP3    H212625   2.369   0.657   0.850  0.6806 -0.8701 -0.8608
 4207TIP3   OH212626   2.675   2.000   4.184 -0.1646  0.1329 -0.3638
 4207TIP3    H112627   2.660   2.000   4.090 -2.1037  0.9194 -0.1144
 4207TIP3    H212628   2.726   2.079   4.201 -1.5839  1.1344 -0.5692
 4208TIP3   OH212629   5.890   2.144   3.536  0.1401 -0.2432  0.0165
 4208TIP3    H112630   5.863   2.096   3.614  0.1547  0.0014  0.1731
 4208TIP3    H212631   5.983   2.122   3.526 -0.4749 -2.4973 -1.5333
 4209TIP3   OH212632   6.087   2.820   2.339 -0.1025  0.2405 -0.6211
 4209TIP3    H112633   6.182   2.810   2.336 -0.0893 -0.1417  0.5614
 4209TIP3    H212634   6.070   2.903   2.295  0.8923  0.9603  0.3010
 4210TIP3   OH212635   5.875   1.455   2.998  0.2248  0.0297 -0.0779
 4210TIP3    H112636   5.960   1.498   3.008  1.3650 -1.9484 -0.8130
 4210TIP3    H212637   5.888   1.367   3.033 -1.8411 -0.0163  0.7276
 4211TIP3   OH212638   4.336   4.830   5.057  0.2464 -0.3861  0.3652
 4211TIP3    H112639   4.242   4.827   5.042  0.5593  0.1809 -2.1456
 4211TIP3    H212640   4.371   4.763   4.998  1.6214  1.5880 -1.1554
 4212TIP3   OH212641   0.092   4.466   4.759  0.5841  0.0921 -0.0148
 4212TIP3    H112642   0.022   4.420   4.806  1.8112 -2.3528 -0.4146
 4212TIP3    H212643   0.162   4.473   4.823  1.3021 -0.8745 -0.6694
 4213TIP3   OH212644   3.109   1.378   4.515  0.4474  0.0932  0.0629
 4213TIP3    H112645   3.137   1.288   4.534 -0.4174 -0.0925  0.5187
 4213TIP3    H212646   3.170   1.432   4.565  2.7456 -0.0776 -2.3647
 4214TIP3   OH212647   1.550   5.534   4.911 -0.8690  0.5574  0.0595
 4214TIP3    H112648   1.577   5.592   4.983 -0.7911  0.8069 -0.1702
 4214TIP3    H212649   1.573   5.582   4.832 -0.0428 -0.1436 -0.1363
 4215TIP3   OH212650   5.531   4.906   0.881 -0.1800 -0.4280  0.4670
 4215TIP3    H112651   5.571   4.844   0.820  0.8572  0.6738 -0.0085
 4215TIP3    H212652   5.595   4.977   0.889 -1.6834  1.0198  0.2937
 4216TIP3   OH212653   1.511   3.851   0.423  0.0209  0.3005 -0.6654
 4216TIP3    H112654   1.592   3.805   0.400  0.0212 -0.3107  0.4929
 4216TIP3    H212655   1.454   3.838   0.346  0.0960 -1.5089 -0.4559
 4217TIP3   OH212656   1.785   2.585   1.089 -0.3881 -0.3057 -0.0965
 4217TIP3    H112657   1.878   2.605   1.080 -0.7023  1.2158 -0.3710
 4217TIP3    H212658   1.768   2.519   1.022  0.5876 -0.9979  0.3183
 4218TIP3   OH212659   6.108   3.236   2.782  0.1883  0.2737  0.0112
 4218TIP3    H112660   6.184   3.247   2.724 -0.6546  0.8515 -1.0180
 4218TIP3    H212661   6.129   3.159   2.834  1.3007  0.1774 -0.5446
 4219TIP3   OH212662   5.780   3.005   1.339 -0.4267 -0.7387 -0.4946
 4219TIP3    H112663   5.685   3.002   1.335 -0.5031 -1.3120  1.0345
 4219TIP3    H212664   5.808   3.010   1.248 -1.8719 -2.4359 -1.0890
 4220TIP3   OH212665   1.408   0.088   3.770 -0.1620  0.5433 -0.3865
 4220TIP3    H112666   1.459   0.075   3.690  1.8988  1.2427  0.7244
 4220TIP3    H212667   1.335   0.143   3.744  0.7774  1.2128 -1.6966
 4221TIP3   OH212668   1.035   1.779   4.902  0.4447  0.2954 -0.1663
 4221TIP3    H112669   1.077   1.709   4.852 -0.5891 -0.6074  0.1927
 4221TIP3    H212670   1.108   1.833   4.934  1.2676 -0.6502 -0.3948
 4222TIP3   OH212671   2.740   2.769   4.471 -0.0174 -0.3453 -0.0041
 4222TIP3    H112672   2.706   2.805   4.389  0.8951 -0.7337 -0.5600
 4222TIP3    H212673   2.824   2.812   4.484  0.0841 -0.6700  0.4682
 4223TIP3   OH212674   4.735   2.801   4.252 -0.4681  0.1070  0.0647
 4223TIP3    H112675   4.820   2.844   4.258 -0.3791  0.1493 -1.2526
 4223TIP3    H212676   4.708   2.813   4.161 -0.2415 -2.9607 -0.5142
 4224TIP3   OH212677   3.950   2.846   3.555 -0.7562 -0.6694 -0.3253
 4224TIP3    H112678   3.944   2.901   3.477 -1.3548 -0.2417  0.0114
 4224TIP3    H212679   3.863   2.808   3.565 -0.9514 -0.0163  0.6298
 4225TIP3   OH212680   0.081   0.502   1.115  0.0953  0.2772 -0.1953
 4225TIP3    H112681   0.168   0.472   1.089  0.1761 -0.6956  1.0604
 4225TIP3    H212682   0.097   0.556   1.193 -0.5113 -1.1162  0.9359
 4226TIP3   OH212683   5.535   2.340   4.964  0.0698  0.2307 -0.0468
 4226TIP3    H112684   5.471   2.385   4.908 -0.5799 -0.8950 -0.2294
 4226TIP3    H212685   5.557   2.261   4.915 -0.5327 -0.7951  1.2865
 4227TIP3   OH212686   2.850   5.448   0.394  0.2142 -0.0134 -0.0464
 4227TIP3    H112687   2.908   5.446   0.471  1.6185 -0.7370 -1.0755
 4227TIP3    H212688   2.823   5.358   0.381 -0.4519  0.1891 -0.0998
 4228TIP3   OH212689   0.457   2.428   0.271  0.5041  0.2968  0.0908
 4228TIP3    H112690   0.540   2.384   0.287  0.3102 -0.1197 -0.0327
 4228TIP3    H212691   0.451   2.494   0.340  0.6127 -0.1323  0.5167
 4229TIP3   OH212692   4.927   4.951   0.266  0.5869  0.2972  0.1741
 4229TIP3    H112693   4.867   4.880   0.245  2.4152 -1.2580 -0.0929
 4229TIP3    H212694   4.949   4.938   0.359  1.2142  0.2667  0.0274
 4230TIP3   OH212695   4.843   2.255   2.617  0.1624  0.2823 -0.5704
 4230TIP3    H112696   4.860   2.285   2.528  1.1912 -0.2595 -0.5607
 4230TIP3    H212697   4.818   2.163   2.608  1.4165 -0.1158 -0.2190
 4231TIP3   OH212698   4.394   3.607   2.151  0.3698 -0.2154  0.4063
 4231TIP3    H112699   4.313   3.573   2.113 -0.4615  1.6563  0.4034
 4231TIP3    H212700   4.463   3.576   2.092 -0.6154  0.2870 -1.0860
 4232TIP3   OH212701   4.406   0.368   3.424  0.2039 -0.2058 -0.2734
 4232TIP3    H112702   4.463   0.423   3.477  3.2244 -1.4250 -1.9524
 4232TIP3    H212703   4.373   0.302   3.485 -0.1627  1.0356  0.9232
 4233TIP3   OH212704   3.370   3.434   3.515  0.2006  0.3665  0.5706
 4233TIP3    H112705   3.437   3.470   3.457 -0.7848 -1.8086 -2.1746
 4233TIP3    H212706   3.384   3.478   3.598  2.2298  3.1856 -1.0720
 4234TIP3   OH212707   1.392   3.688   0.237  0.6287  0.0301  0.0726
 4234TIP3    H112708   1.415   3.611   0.289 -0.9606 -0.1745  0.5302
 4234TIP3    H212709   1.360   3.651   0.154 -1.3450  0.0790  0.7601
 4235TIP3   OH212710   2.153   3.104   2.552  0.1534 -0.5741 -0.0036
 4235TIP3    H112711   2.156   3.035   2.486  3.0397  0.0542 -0.6369
 4235TIP3    H212712   2.102   3.066   2.623  0.0426 -2.6323 -1.1016
 4236TIP3   OH212713   1.491   0.760   4.409 -0.1440  0.1914 -0.3562
 4236TIP3    H112714   1.415   0.725   4.361  0.1297 -0.1510 -0.5453
 4236TIP3    H212715   1.458   0.775   4.497 -0.2413 -0.6719 -0.2344
 4237TIP3   OH212716   5.594   0.965   3.434  0.0481  0.2709 -0.2239
 4237TIP3    H112717   5.572   1.043   3.484  2.2829 -0.2953  1.7994
 4237TIP3    H212718   5.541   0.895   3.473  0.1607  0.2435 -0.1195
 4238TIP3   OH212719   1.914   4.979   0.475  0.1666  0.0690  0.4206
 4238TIP3    H112720   1.912   5.073   0.457  0.5770  0.0492  0.2665
 4238TIP3    H212721   1.847   4.966   0.543 -0.0955  0.4255  0.2349
 4239TIP3   OH212722   0.324   1.849   2.034 -0.1485 -0.6140 -0.2396
 4239TIP3    H112723   0.348   1.942   2.025  1.3388 -0.8718  0.6933
 4239TIP3    H212724   0.231   1.850   2.055  0.0655  0.7357  0.7745
 4240TIP3   OH212725   3.370   2.709   2.645  0.8389  0.2703  0.3902
 4240TIP3    H112726   3.311   2.666   2.583  0.2157  0.6887  0.6847
 4240TIP3    H212727   3.437   2.643   2.664  0.3758 -0.2714  0.1733
 4241TIP3   OH212728   3.042   4.345   3.231 -0.4846 -0.0743  0.2979
 4241TIP3    H112729   3.086   4.403   3.293  0.8599  0.4041 -1.0287
 4241TIP3    H212730   3.051   4.257   3.268  0.1801  0.2164  0.8383
 4242TIP3   OH212731   5.691   2.423   2.636  0.0512 -0.8225  0.1327
 4242TIP3    H112732   5.748   2.453   2.708  0.1638 -0.0843 -0.2498
 4242TIP3    H212733   5.735   2.454   2.557  0.1401 -1.9922 -0.2839
 4243TIP3   OH212734   5.165   2.057   3.209 -0.0265  0.8611 -0.1504
 4243TIP3    H112735   5.139   2.052   3.118 -0.9670  0.7836  0.1138
 4243TIP3    H212736   5.257   2.028   3.209 -0.0809  0.6586 -1.0323
 4244TIP3   OH212737   0.059   0.749   2.623  0.0972  0.1230  0.0819
 4244TIP3    H112738  -0.029   0.714   2.611  0.7132 -1.1670 -0.9068
 4244TIP3    H212739   0.109   0.714   2.550  1.9258 -0.8513  1.7041
 4245TIP3   OH212740   1.018   1.683   0.906  0.2528 -0.4936  0.4712
 4245TIP3    H112741   0.963   1.648   0.836 -1.5058 -1.6080  2.3102
 4245TIP3    H212742   1.100   1.706   0.862 -1.8532  1.9970 -2.5622
 4246TIP3   OH212743   1.778   2.190   2.680  0.7470  0.2652  0.2195
 4246TIP3    H112744   1.723   2.118   2.649 -0.6474  0.9411  1.0512
 4246TIP3    H212745   1.736   2.219   2.761  3.0473 -0.0268  1.6144
 4247TIP3   OH212746   5.065   5.632   0.178 -0.6472 -0.1448  0.0380
 4247TIP3    H112747   5.013   5.626   0.258 -0.5470  0.4239  0.1450
 4247TIP3    H212748   5.136   5.569   0.190  2.4356  3.4361  2.6487
 4248TIP3   OH212749   4.089   5.429   1.804  0.2642  0.3034 -0.6505
 4248TIP3    H112750   4.171   5.395   1.766  0.8768  1.1754 -0.1356
 4248TIP3    H212751   4.025   5.359   1.788  1.8038 -1.8524  1.7172
 4249TIP3   OH212752   4.968   4.597   4.433  0.7294 -0.1375  0.2498
 4249TIP3    H112753   4.917   4.538   4.489 -1.6339  1.4108 -0.1251
 4249TIP3    H212754   4.922   4.595   4.349  2.1340  0.3069 -0.5556
 4250TIP3   OH212755   3.884   5.272   1.686  0.3534 -0.2134 -0.3978
 4250TIP3    H112756   3.808   5.326   1.709  1.3889  1.0698  0.1184
 4250TIP3    H212757   3.906   5.225   1.766  0.5131 -0.0832 -0.3665
 4251TIP3   OH212758   2.734   5.830   0.943 -0.2589  0.9891  0.0490
 4251TIP3    H112759   2.690   5.878   1.014 -0.7262  1.4556 -0.5421
 4251TIP3    H212760   2.722   5.886   0.866  0.2427  0.4874 -0.3984
 4252TIP3   OH212761   0.094   0.684   3.407 -0.0321  0.1174 -0.0433
 4252TIP3    H112762   0.150   0.756   3.375 -0.8849  1.0978  0.5837
 4252TIP3    H212763   0.007   0.723   3.413 -0.3538 -0.7252  1.1356
 4253TIP3   OH212764   4.081   5.014   0.575 -0.0432  0.1546  0.4684
 4253TIP3    H112765   4.107   4.947   0.512 -0.4491 -1.1322  1.6115
 4253TIP3    H212766   3.986   5.002   0.585 -0.1151  0.8832  0.7200
 4254TIP3   OH212767   5.952   4.446   4.810 -0.3794  0.8987  0.0456
 4254TIP3    H112768   5.913   4.419   4.893  2.5957 -1.5080  0.8146
 4254TIP3    H212769   5.935   4.373   4.750  0.6810  0.9805 -0.3691
 4255TIP3   OH212770   1.485   0.905   5.051  0.4809  0.1862  0.2254
 4255TIP3    H112771   1.423   0.972   5.023 -1.2445 -1.7536 -0.8163
 4255TIP3    H212772   1.489   0.914   5.146 -1.8942 -0.0133  0.3948
 4256TIP3   OH212773   3.013   4.695   2.681 -0.1784  0.2256 -0.4906
 4256TIP3    H112774   3.024   4.620   2.740  0.3053  1.4259  1.0323
 4256TIP3    H212775   2.982   4.657   2.599 -0.4902 -1.5690  0.4041
 4257TIP3   OH212776   3.334   3.859   0.254  0.1258  0.0911  0.2744
 4257TIP3    H112777   3.264   3.800   0.228 -1.6536  1.6672  1.2649
 4257TIP3    H212778   3.392   3.806   0.309 -2.3078 -0.3990  2.5266
 4258TIP3   OH212779   3.457   2.133   3.016  0.2539  0.2048 -0.1943
 4258TIP3    H112780   3.454   2.140   3.111 -1.0525  0.4001 -0.2267
 4258TIP3    H212781   3.387   2.191   2.986  1.9901  1.8339 -1.3910
 4259TIP3   OH212782   4.998   5.817   2.450 -0.3753  0.2196  0.3567
 4259TIP3    H112783   5.062   5.746   2.447  1.6869  1.9865  0.6987
 4259TIP3    H212784   4.933   5.793   2.383  0.9757 -1.3169 -0.4757
 4260TIP3   OH212785   1.255   1.769   0.373  0.0906  0.1106  0.6550
 4260TIP3    H112786   1.297   1.853   0.395 -0.8132  0.7195  0.1048
 4260TIP3    H212787   1.224   1.736   0.457 -3.2031  2.3495  0.5210
 4261TIP3   OH212788   0.679   0.387   0.343 -0.3003  0.5924  0.1783
 4261TIP3    H112789   0.626   0.455   0.301  0.2609  1.2507  0.5205
 4261TIP3    H212790   0.759   0.383   0.291 -0.7269 -0.5257 -0.4422
 4262TIP3   OH212791   5.411   2.495   2.904  0.2251 -0.0261 -0.2943
 4262TIP3    H112792   5.506   2.505   2.906  0.4289  0.0089 -3.9276
 4262TIP3    H212793   5.396   2.409   2.942  1.6847  0.0421  0.5259
 4263TIP3   OH212794   0.991   2.609   3.310  0.4366  0.3486 -0.4336
 4263TIP3    H112795   1.042   2.602   3.229 -1.1243  1.6322 -1.6077
 4263TIP3    H212796   1.034   2.679   3.359  0.4248  0.7236 -0.9457
 4264TIP3   OH212797   1.284   4.181   1.543  0.4509 -0.3199 -0.5590
 4264TIP3    H112798   1.219   4.134   1.594  0.4411  0.6175  0.3073
 4264TIP3    H212799   1.300   4.124   1.467  0.3203 -1.6375  0.3687
 4265TIP3   OH212800   0.773   4.504   1.226 -0.0183 -0.1229  0.1167
 4265TIP3    H112801   0.728   4.528   1.144 -1.8523 -0.9734  0.8217
 4265TIP3    H212802   0.825   4.427   1.204 -1.4183 -1.0674 -0.0340
 4266TIP3   OH212803   5.138   5.896   0.111  0.5523  0.0205  0.2017
 4266TIP3    H112804   5.095   5.811   0.127  0.3102  0.3708  1.6003
 4266TIP3    H212805   5.128   5.943   0.194  2.3699  0.6865  0.0843
 4267TIP3   OH212806   5.477   1.342   4.203 -0.3059 -0.1888  0.5551
 4267TIP3    H112807   5.415   1.413   4.188  0.2879  0.3496  0.6415
 4267TIP3    H212808   5.477   1.293   4.121 -1.4815 -0.7098  0.8329
 4268TIP3   OH212809   5.481   3.780   3.660  0.2335 -0.1618 -0.3112
 4268TIP3    H112810   5.446   3.868   3.666  0.7581 -0.0173  0.9476
 4268TIP3    H212811   5.504   3.769   3.567 -0.5324  0.7337 -0.6130
 4269TIP3   OH212812   5.843   4.596   4.181  0.2642 -0.0572 -0.1983
 4269TIP3    H112813   5.920   4.541   4.167 -1.1085 -2.1215 -0.2048
 4269TIP3    H212814   5.779   4.563   4.118 -1.8933 -1.0857  2.3133
 4270TIP3   OH212815   0.003   1.414   0.282  0.0961 -0.1011  0.5792
 4270TIP3    H112816   0.092   1.388   0.259 -0.0555 -0.6346  0.5848
 4270TIP3    H212817  -0.053   1.347   0.242 -0.3393  0.4979  0.1498
 4271TIP3   OH212818   4.538   2.498   2.917 -0.4781 -0.2970 -0.0362
 4271TIP3    H112819   4.455   2.474   2.958 -0.4757  0.7113  0.5922
 4271TIP3    H212820   4.602   2.491   2.987 -0.1873 -0.1557 -0.2870
 4272TIP3   OH212821   4.911   3.175   2.049  0.3566  0.0762  0.4382
 4272TIP3    H112822   4.941   3.188   2.139 -1.2170  0.4389  0.9415
 4272TIP3    H212823   4.932   3.258   2.005  1.1819 -0.1239  0.4498
 4273TIP3   OH212824   4.826   3.223   4.464  0.3560 -0.0444  0.0727
 4273TIP3    H112825   4.904   3.265   4.502  0.6931 -0.4370 -0.1850
 4273TIP3    H212826   4.753   3.278   4.493  0.8390  1.0461 -0.7125
 4274TIP3   OH212827   0.216   1.359   4.627  0.1245 -0.7607  0.6845
 4274TIP3    H112828   0.208   1.450   4.600 -0.1161 -0.7239  0.8805
 4274TIP3    H212829   0.151   1.312   4.573  0.2012 -0.8058  0.6311
 4275TIP3   OH212830   1.954   0.362   2.565  0.3604  0.7385 -0.8442
 4275TIP3    H112831   2.049   0.355   2.554  0.4539  1.9469 -0.8698
 4275TIP3    H212832   1.942   0.398   2.652 -0.1877 -1.8175  0.2401
 4276TIP3   OH212833   5.833   4.339   1.712  0.0546  0.3531  0.1727
 4276TIP3    H112834   5.777   4.319   1.637  0.6927 -0.8137 -0.0077
 4276TIP3    H212835   5.859   4.431   1.699  0.4101  0.0764 -1.2040
 4277TIP3   OH212836   0.985   0.293   1.575 -0.5835 -0.4587 -0.0263
 4277TIP3    H112837   0.973   0.351   1.500  0.3378 -0.6083 -0.2915
 4277TIP3    H212838   1.077   0.268   1.573 -0.6025 -0.6790  1.0048
 4278TIP3   OH212839   3.379   3.876   3.846  0.4490 -0.1837 -0.1253
 4278TIP3    H112840   3.336   3.878   3.931  0.9753  1.9485  0.1417
 4278TIP3    H212841   3.307   3.887   3.783  0.2143 -0.3841  0.1050
 4279TIP3   OH212842   5.227   2.035   5.018 -0.5160 -0.6254 -0.7961
 4279TIP3    H112843   5.275   2.033   4.935  0.9400 -0.1425  0.0086
 4279TIP3    H212844   5.249   1.952   5.060  0.8726  0.2059  0.2222
 4280TIP3   OH212845   4.646   1.460   2.144 -0.1065 -0.6811 -0.3806
 4280TIP3    H112846   4.654   1.437   2.237  0.1301  0.9275  0.0310
 4280TIP3    H212847   4.689   1.545   2.137  0.7828 -1.2301 -2.1878
 4281TIP3   OH212848   1.312   1.702   1.951  0.5295  0.0580 -0.3735
 4281TIP3    H112849   1.318   1.638   2.022  1.1228  0.2410 -0.2483
 4281TIP3    H212850   1.232   1.750   1.969  0.1825 -0.5121 -0.3521
 4282TIP3   OH212851   0.859   5.597   1.103 -1.0277  0.3070 -0.1281
 4282TIP3    H112852   0.774   5.639   1.098 -2.0083 -1.6647 -1.1241
 4282TIP3    H212853   0.843   5.515   1.150  0.2600 -0.2153 -0.5373
 4283TIP3   OH212854   4.650   1.693   3.483 -0.3916  0.6959 -0.0171
 4283TIP3    H112855   4.585   1.720   3.548  1.3861 -0.6692  2.5438
 4283TIP3    H212856   4.720   1.654   3.536  1.8188  0.7533 -2.7249
 4284TIP3   OH212857   0.055   2.327   0.126  0.0525  0.2558  0.4231
 4284TIP3    H112858   0.010   2.411   0.122 -1.7584 -0.6801 -1.8827
 4284TIP3    H212859  -0.013   2.263   0.103  1.7788 -1.6221  0.2913
 4285TIP3   OH212860   1.779   4.390   4.771  0.2446 -0.6988  0.0174
 4285TIP3    H112861   1.841   4.441   4.718  0.1275 -0.0073  0.5470
 4285TIP3    H212862   1.694   4.432   4.757  0.2337 -0.4342  0.8541
 4286TIP3   OH212863   4.086   3.227   4.990  0.6008 -0.3539  0.6094
 4286TIP3    H112864   4.004   3.182   4.972  0.1855  0.7945 -0.5604
 4286TIP3    H212865   4.153   3.161   4.973 -0.0138 -0.7742 -0.2679
 4287TIP3   OH212866   0.452   1.171   2.535  0.2247 -0.4363  0.9142
 4287TIP3    H112867   0.532   1.118   2.534  1.1179  0.8459  2.0340
 4287TIP3    H212868   0.381   1.107   2.521  1.3524 -1.7324  0.9438
 4288TIP3   OH212869   2.620   5.012   4.116  0.3390 -0.5003 -0.0417
 4288TIP3    H112870   2.646   5.080   4.178 -1.3955 -0.9251  1.2476
 4288TIP3    H212871   2.661   4.932   4.149 -1.0658 -0.8408  0.9766
 4289TIP3   OH212872   0.743   5.529   0.557  0.4630  0.7537 -0.1604
 4289TIP3    H112873   0.772   5.493   0.473  1.0813  0.5857  0.1147
 4289TIP3    H212874   0.787   5.474   0.622  0.4597  1.2549  0.2719
 4290TIP3   OH212875   5.826   3.575   0.478 -0.4574  0.2007 -0.1892
 4290TIP3    H112876   5.794   3.491   0.446 -0.8102  0.6329 -1.0086
 4290TIP3    H212877   5.801   3.577   0.571  1.3393 -1.4369  0.3803
 4291TIP3   OH212878   3.437   1.628   3.281 -0.0974 -0.3335  0.1419
 4291TIP3    H112879   3.367   1.647   3.344 -0.1099  0.0080  0.0254
 4291TIP3    H212880   3.393   1.584   3.209 -0.5243  1.5273 -0.7883
 4292TIP3   OH212881   1.336   3.948   3.335 -0.0415 -0.2522 -0.4047
 4292TIP3    H112882   1.335   3.882   3.265  0.3885 -1.6222  0.8439
 4292TIP3    H212883   1.362   3.900   3.413 -1.3933  1.0457  0.9088
 4293TIP3   OH212884   0.015   5.889   1.091 -0.5457 -0.2812 -0.1296
 4293TIP3    H112885  -0.036   5.948   1.146 -2.1105 -0.1274 -1.6488
 4293TIP3    H212886   0.027   5.811   1.144  1.7066  1.3532  1.9955
 4294TIP3   OH212887   5.782   4.788   0.168  0.1506  0.1765  0.0990
 4294TIP3    H112888   5.864   4.835   0.184 -1.5278  2.9418  1.2048
 4294TIP3    H212889   5.752   4.761   0.254 -0.5258 -0.0794 -0.2101
 4295TIP3   OH212890   5.990   1.686   2.646 -0.3331  0.0945 -0.1868
 4295TIP3    H112891   5.906   1.640   2.651 -0.4855  0.5245  2.0772
 4295TIP3    H212892   5.966   1.775   2.619 -0.5996  0.1750  0.3014
 4296TIP3   OH212893   1.452   4.843   2.089 -0.4016  0.5231  0.7143
 4296TIP3    H112894   1.505   4.797   2.025 -1.1394 -0.7146  0.9642
 4296TIP3    H212895   1.413   4.774   2.143 -2.1712  1.3578  0.5959
 4297TIP3   OH212896   4.390   5.275   0.652 -0.3797  0.2571 -0.0940
 4297TIP3    H112897   4.349   5.261   0.566  0.4468 -0.8541 -0.3427
 4297TIP3    H212898   4.365   5.197   0.703  0.0083  0.4001  0.3145
 4298TIP3   OH212899   1.093   1.577   3.590 -0.0054 -0.0720 -0.0847
 4298TIP3    H112900   1.153   1.509   3.561 -1.3406 -1.3158 -0.0238
 4298TIP3    H212901   1.144   1.658   3.584  1.8922 -1.1568  0.6645
 4299TIP3   OH212902   5.103   5.352   4.951 -0.8719 -0.0857  0.1867
 4299TIP3    H112903   5.184   5.302   4.944 -1.3164 -0.8374  0.2831
 4299TIP3    H212904   5.129   5.432   4.996 -0.3372 -0.7014  1.0146
 4300TIP3   OH212905   0.104   0.453   5.077  0.0651 -0.0569  0.4822
 4300TIP3    H112906   0.112   0.369   5.122 -0.6466 -0.0518  0.6332
 4300TIP3    H212907   0.152   0.440   4.995 -2.2581 -1.5582 -0.7603
 4301TIP3   OH212908   6.216   1.181   4.241  0.4950  0.0499  0.1497
 4301TIP3    H112909   6.203   1.238   4.165  0.1263 -0.0160  0.1649
 4301TIP3    H212910   6.269   1.109   4.207  1.5443  0.7388  0.2845
 4302TIP3   OH212911   2.241   0.352   2.530  0.1303  0.0953  0.1266
 4302TIP3    H112912   2.258   0.442   2.557  2.0018  1.0582 -3.5904
 4302TIP3    H212913   2.317   0.328   2.476 -1.5492 -2.7412 -1.2275
 4303TIP3   OH212914   6.212   0.512   4.773 -0.2883  0.0836 -0.2021
 4303TIP3    H112915   6.223   0.539   4.682 -1.2378 -0.6246 -0.5450
 4303TIP3    H212916   6.191   0.593   4.820 -0.9117  0.2907 -0.8176
 4304TIP3   OH212917   0.711   5.407   3.014 -0.6188  0.1198 -0.1184
 4304TIP3    H112918   0.728   5.315   2.993 -0.0053  0.2152 -0.0626
 4304TIP3    H212919   0.633   5.429   2.963 -1.0606 -0.5682  0.2452
 4305TIP3   OH212920   5.072   2.087   3.490 -0.4058 -0.2026  0.2143
 4305TIP3    H112921   5.096   2.083   3.397 -2.0701 -0.7830 -0.2136
 4305TIP3    H212922   5.023   2.169   3.498 -0.3661 -0.2135  0.5673
 4306TIP3   OH212923   3.943   4.036   1.617 -0.1201 -0.2847 -0.0468
 4306TIP3    H112924   3.977   4.073   1.535  0.5414 -1.7104 -0.4433
 4306TIP3    H212925   3.960   4.104   1.683  1.2326  0.0562 -0.7126
 4307TIP3   OH212926   4.066   5.220   1.027  0.0004  0.3498 -0.1690
 4307TIP3    H112927   3.999   5.226   1.094  0.8105  1.5891  0.5628
 4307TIP3    H212928   4.134   5.166   1.066  1.2180  2.4146  0.7188
 4308TIP3   OH212929   2.063   4.582   3.379  0.0023  0.7809 -0.1848
 4308TIP3    H112930   2.081   4.634   3.301 -0.1089  0.0830 -0.6877
 4308TIP3    H212931   2.057   4.646   3.450  1.9142  1.2990 -0.4221
 4309TIP3   OH212932   1.385   0.855   0.498  0.5383 -0.3692 -0.2106
 4309TIP3    H112933   1.302   0.861   0.451  0.7892 -0.9613 -0.7407
 4309TIP3    H212934   1.366   0.800   0.574  0.0270  0.9337  0.6510
 4310TIP3   OH212935   1.063   1.990   2.299 -0.4927  0.4146 -0.5324
 4310TIP3    H112936   1.084   1.950   2.383  0.9159 -0.7802 -1.3959
 4310TIP3    H212937   1.024   1.918   2.248 -1.2667  1.1024 -0.9317
 4311TIP3   OH212938   1.068   5.900   5.119 -0.3453 -0.2800  0.4474
 4311TIP3    H112939   1.070   5.902   5.214 -0.1403  1.8883  0.4416
 4311TIP3    H212940   1.003   5.966   5.094  0.9574  0.5753 -0.9094
 4312TIP3   OH212941   0.858   5.866   0.213 -0.3170  0.0649 -0.3288
 4312TIP3    H112942   0.848   5.934   0.280 -1.5960  0.2911 -0.7289
 4312TIP3    H212943   0.770   5.830   0.202  0.5491 -2.7540  0.9789
 4313TIP3   OH212944   0.498   5.888   1.754  0.1985 -0.0218  0.6177
 4313TIP3    H112945   0.582   5.928   1.779  0.3169  2.3035 -2.8352
 4313TIP3    H212946   0.432   5.952   1.781 -0.2699 -0.7523  1.2204
 4314TIP3   OH212947   5.992   3.946   4.008 -0.1481  0.3799  0.0113
 4314TIP3    H112948   6.017   3.853   4.011  0.3198  0.4839 -0.4201
 4314TIP3    H212949   6.024   3.982   4.090 -1.2832 -0.0617  0.6700
 4315TIP3   OH212950   4.421   2.874   4.736 -0.4947  0.0304  0.2269
 4315TIP3    H112951   4.341   2.886   4.684  0.5927  0.4117 -1.4306
 4315TIP3    H212952   4.461   2.795   4.700  0.3956  0.4233  0.3535
 4316TIP3   OH212953   3.183   4.969   2.074  0.2149  0.1796 -0.1622
 4316TIP3    H112954   3.219   4.881   2.064 -0.6452 -0.2286  0.2326
 4316TIP3    H212955   3.199   5.011   1.989  1.1085 -0.1699 -0.1738
 4317TIP3   OH212956   5.207   2.442   3.161 -0.0493 -0.0438 -0.0640
 4317TIP3    H112957   5.254   2.447   3.244  0.3581  1.0802 -0.3529
 4317TIP3    H212958   5.260   2.382   3.108  0.1866 -0.0327  0.1580
 4318TIP3   OH212959   3.599   2.885   4.610  0.0963 -0.4278  0.2316
 4318TIP3    H112960   3.557   2.803   4.582 -0.3247 -0.5584  1.2182
 4318TIP3    H212961   3.615   2.933   4.528  1.2518 -1.9062 -0.4696
 4319TIP3   OH212962   6.042   1.309   0.671 -0.4578  0.2117  0.1639
 4319TIP3    H112963   5.953   1.340   0.686 -0.8411 -0.8616  0.2295
 4319TIP3    H212964   6.030   1.223   0.631  0.5092 -0.8245  1.9674
 4320TIP3   OH212965   3.525   5.015   3.633 -0.1449  0.1662  0.3493
 4320TIP3    H112966   3.561   5.062   3.558 -1.6075  0.9422  0.0741
 4320TIP3    H212967   3.504   4.928   3.599  0.5425  0.0376  0.2523
 4321TIP3   OH212968   4.485   3.702   4.852 -0.2215 -0.1117 -0.6501
 4321TIP3    H112969   4.414   3.764   4.869  0.3001  0.1218  0.8261
 4321TIP3    H212970   4.457   3.622   4.896  0.4577  0.0080  0.0075
 4322TIP3   OH212971   2.524   2.285   3.759  0.3041  0.1156 -0.2785
 4322TIP3    H112972   2.440   2.248   3.733  0.3138 -0.1520  0.0723
 4322TIP3    H212973   2.561   2.321   3.678 -0.2476  0.4357 -0.3910
 4323TIP3   OH212974   5.285   0.628   3.278 -0.1564 -0.2684 -0.6009
 4323TIP3    H112975   5.296   0.533   3.269 -0.4053 -0.1411 -2.6959
 4323TIP3    H212976   5.284   0.661   3.188  3.0932  2.1171  0.0386
 4324TIP3   OH212977   3.807   0.182   5.046 -0.5405  0.2639  0.5381
 4324TIP3    H112978   3.771   0.235   5.117  0.8110  1.3592  0.4595
 4324TIP3    H212979   3.857   0.244   4.993  2.0903 -1.2310  1.0854
 4325TIP3   OH212980   0.307   0.866   1.662  0.3787 -0.4712  0.0584
 4325TIP3    H112981   0.386   0.814   1.675  1.4589  0.5912 -1.8363
 4325TIP3    H212982   0.339   0.954   1.642 -1.3283  0.3008  0.5282
 4326TIP3   OH212983   6.100   0.558   5.147 -0.3329  0.1239 -0.1583
 4326TIP3    H112984   6.037   0.630   5.155  0.7728  0.9068  3.3458
 4326TIP3    H212985   6.180   0.599   5.114 -0.3806  0.0225 -0.4019
 4327TIP3   OH212986   2.082   5.975   0.443  0.3715 -0.1720 -0.0196
 4327TIP3    H112987   2.074   5.975   0.347  1.7657  0.6458 -0.1542
 4327TIP3    H212988   1.996   5.945   0.473 -0.3289  0.2101 -1.5073
 4328TIP3   OH212989   4.986   0.365   1.389  0.1591  0.0582  0.3433
 4328TIP3    H112990   4.895   0.394   1.400  0.4371  0.8996  0.5264
 4328TIP3    H212991   5.035   0.416   1.453  0.9534  0.5917 -0.6613
 4329TIP3   OH212992   0.734   4.041   2.442  0.2823 -0.3339  0.6822
 4329TIP3    H112993   0.714   3.968   2.500 -0.3363 -0.4203  0.3730
 4329TIP3    H212994   0.793   4.097   2.493  0.7918 -1.0594  0.9091
 4330TIP3   OH212995   1.299   0.897   3.524 -0.3608 -0.2500  0.1213
 4330TIP3    H112996   1.247   0.822   3.495  0.6453 -0.4909 -1.1737
 4330TIP3    H212997   1.362   0.911   3.453 -0.6825  1.9914  0.2081
 4331TIP3   OH212998   2.417   3.117   3.505  0.0465 -0.1850  0.3124
 4331TIP3    H112999   2.473   3.134   3.429 -1.8127 -1.1486 -1.3532
 4331TIP3    H213000   2.357   3.192   3.508 -1.5188 -1.3374 -0.7806
 4332TIP3   OH213001   5.633   1.624   0.892 -0.1939  0.2909  0.2553
 4332TIP3    H113002   5.636   1.690   0.962 -0.3923  0.2445  0.3083
 4332TIP3    H213003   5.580   1.665   0.824 -1.3753 -0.2932  0.7929
 4333TIP3   OH213004   1.185   3.764   2.033  0.3419  0.0811  0.0766
 4333TIP3    H113005   1.253   3.700   2.054 -1.1173 -1.6390 -0.1395
 4333TIP3    H213006   1.233   3.840   2.001  2.2296 -0.3247  1.7246
 4334TIP3   OH213007   5.630   4.357   0.635 -0.2657 -0.3919  0.2268
 4334TIP3    H113008   5.586   4.432   0.594 -2.1327 -1.3900  0.3014
 4334TIP3    H213009   5.648   4.386   0.725  0.8934  0.6531 -0.3115
 4335TIP3   OH213010   6.163   2.023   2.097  0.3824 -0.4521 -0.0185
 4335TIP3    H113011   6.145   2.066   2.013  0.9242 -0.3653 -0.0916
 4335TIP3    H213012   6.078   1.988   2.124 -1.0230  3.6769  1.7510
 4336TIP3   OH213013   1.487   3.349   3.086  0.1317  0.5675  0.0673
 4336TIP3    H113014   1.515   3.438   3.066  1.3405  0.4443  1.1067
 4336TIP3    H213015   1.552   3.316   3.148 -0.5994 -0.8509  0.1295
 4337TIP3   OH213016   0.798   0.744   3.818  0.2010 -0.3353  0.2970
 4337TIP3    H113017   0.725   0.795   3.783 -0.9121 -0.0512  2.7905
 4337TIP3    H213018   0.778   0.654   3.793 -1.7334 -0.4362  1.9278
 4338TIP3   OH213019   5.139   0.101   1.359  0.0333  0.3083 -0.3393
 4338TIP3    H113020   5.058   0.051   1.349 -0.1516  0.6486 -0.5536
 4338TIP3    H213021   5.120   0.168   1.424 -0.5508  1.7842 -1.9550
 4339TIP3   OH213022   1.661   0.063   4.204  0.4683 -0.7236  0.2405
 4339TIP3    H113023   1.632   0.029   4.119  1.1253 -2.1652  0.5670
 4339TIP3    H213024   1.755   0.045   4.206  0.4638 -0.6851  1.2605
 4340TIP3   OH213025   3.089   3.318   0.266 -0.5134 -0.5342  0.5138
 4340TIP3    H113026   3.071   3.338   0.357  1.2744  0.8089  0.6312
 4340TIP3    H213027   3.171   3.268   0.268 -0.4532 -0.4868 -0.3508
 4341TIP3   OH213028   2.456   5.963   3.436  0.2867  0.4130 -0.5766
 4341TIP3    H113029   2.417   6.041   3.397 -1.1094 -0.2384 -0.5423
 4341TIP3    H213030   2.472   5.905   3.362  1.3490  0.7202 -0.6052
 4342TIP3   OH213031   2.511   0.366   0.706  0.2166 -0.0135  0.0459
 4342TIP3    H113032   2.449   0.429   0.744 -0.4228  0.1036 -1.1425
 4342TIP3    H213033   2.581   0.359   0.771  0.8256  2.7043 -0.1594
 4343TIP3   OH213034   3.530   2.825   1.700  0.1401  0.1733  0.1648
 4343TIP3    H113035   3.514   2.740   1.661 -0.4249  0.6914 -0.7657
 4343TIP3    H213036   3.570   2.806   1.785  0.1901 -1.0016 -0.1141
 4344TIP3   OH213037   4.245   0.563   1.275  0.2503 -0.2914  0.2570
 4344TIP3    H113038   4.231   0.653   1.246 -1.8416 -0.0927  1.6877
 4344TIP3    H213039   4.232   0.511   1.196  0.0435  0.5713 -0.3005
 4345TIP3   OH213040   0.583   0.483   0.660  0.2322  0.1566  0.8270
 4345TIP3    H113041   0.508   0.536   0.632  2.1241  2.9442  0.6415
 4345TIP3    H213042   0.583   0.490   0.755 -0.1252 -0.3857  0.8649
 4346TIP3   OH213043   2.746   5.249   2.785  0.0021  0.1545  0.4479
 4346TIP3    H113044   2.823   5.259   2.841  1.7698  1.5597 -2.0546
 4346TIP3    H213045   2.769   5.180   2.724 -0.9635  0.2131 -0.0090
 4347TIP3   OH213046   0.235   5.095   0.941  0.1476 -0.7488  0.1055
 4347TIP3    H113047   0.305   5.053   0.989  0.1370 -2.8136 -1.5303
 4347TIP3    H213048   0.218   5.036   0.867 -0.6158  1.6459 -1.7599
 4348TIP3   OH213049   0.952   3.463   1.620  0.1234 -0.1118 -0.1811
 4348TIP3    H113050   0.942   3.393   1.684  0.2127 -0.4425 -0.5197
 4348TIP3    H213051   0.934   3.420   1.536 -0.7480  0.4795 -0.3124
 4349TIP3   OH213052   4.269   0.695   0.784 -0.2121  0.2079  0.0457
 4349TIP3    H113053   4.182   0.666   0.811 -0.8602 -0.3108 -2.3620
 4349TIP3    H213054   4.327   0.622   0.804 -1.0992 -1.1658 -2.0784
 4350TIP3   OH213055   5.935   0.901   2.674  0.0945  0.0161 -0.2537
 4350TIP3    H113056   5.977   0.974   2.627  2.0926  1.0359  2.7694
 4350TIP3    H213057   5.856   0.939   2.712  0.7913  0.5182  0.7662
 4351TIP3   OH213058   1.397   2.733   2.752  0.5441 -0.1867  0.4174
 4351TIP3    H113059   1.387   2.783   2.833 -1.1863  1.1506 -0.5431
 4351TIP3    H213060   1.308   2.714   2.724  1.1125 -1.0430 -0.9317
 4352TIP3   OH213061   5.252   5.263   2.552 -0.2859  0.4013  0.4946
 4352TIP3    H113062   5.220   5.173   2.550 -0.8402  0.5538  1.7152
 4352TIP3    H213063   5.173   5.317   2.551  0.0281  1.0106 -2.6235
 4353TIP3   OH213064   1.692   0.910   1.849 -0.2688  0.0268  0.4828
 4353TIP3    H113065   1.625   0.842   1.854 -0.7722  0.3557 -1.0300
 4353TIP3    H213066   1.650   0.988   1.885 -1.1955  0.5362 -1.5321
 4354TIP3   OH213067   1.307   2.780   4.364  0.1871  0.1455 -0.1791
 4354TIP3    H113068   1.261   2.852   4.408 -1.1707  0.5146 -2.0767
 4354TIP3    H213069   1.397   2.812   4.354 -0.0680  1.0267  0.1936
 4355TIP3   OH213070   2.595   2.181   5.038 -0.3460 -0.1959 -0.4675
 4355TIP3    H113071   2.553   2.095   5.042 -0.0174 -0.4820 -2.3035
 4355TIP3    H213072   2.674   2.172   5.090 -1.0301 -0.5485  0.5425
 4356TIP3   OH213073   3.761   4.185   3.133 -0.1134  0.0072  0.1212
 4356TIP3    H113074   3.731   4.262   3.182  1.1128  0.2431  0.5473
 4356TIP3    H213075   3.686   4.159   3.080 -0.2978  2.0108 -0.6667
 4357TIP3   OH213076   1.904   1.758   2.409  0.3445 -0.6505 -0.1912
 4357TIP3    H113077   1.852   1.795   2.338  1.7422  2.5411  0.2985
 4357TIP3    H213078   1.846   1.760   2.485 -0.1012 -1.0068 -0.5154
 4358TIP3   OH213079   3.067   0.286   3.853 -0.0722  0.0048  0.0923
 4358TIP3    H113080   2.979   0.303   3.886  0.2888 -0.5690  1.4443
 4358TIP3    H213081   3.118   0.268   3.932  0.7997 -1.6458 -0.8048
 4359TIP3   OH213082   3.562   0.760   3.234  0.3531 -0.0622  0.6961
 4359TIP3    H113083   3.512   0.711   3.299  1.9718 -0.3959  1.7449
 4359TIP3    H213084   3.537   0.851   3.247 -0.4948 -0.2877  0.7068
 4360TIP3   OH213085   0.387   4.808   2.000 -0.3372  0.5538 -0.3579
 4360TIP3    H113086   0.346   4.759   2.071 -2.3509  0.4701 -1.5092
 4360TIP3    H213087   0.478   4.820   2.029 -1.1073  0.7326  2.3158
 4361TIP3   OH213088   2.861   4.690   3.032 -0.4333 -0.3681  0.3564
 4361TIP3    H113089   2.899   4.767   2.989  0.4583 -1.0223 -0.0573
 4361TIP3    H213090   2.924   4.621   3.016 -1.8959 -1.5691 -0.5512
 4362TIP3   OH213091   4.304   4.918   4.199  0.8184  0.2523 -0.6414
 4362TIP3    H113092   4.286   4.978   4.272  1.0702 -0.7889  0.3069
 4362TIP3    H213093   4.374   4.960   4.149 -0.6259  1.8918 -1.4132
 4363TIP3   OH213094   3.362   0.794   4.848 -0.1288 -0.4610 -0.1211
 4363TIP3    H113095   3.413   0.825   4.773 -0.2995 -1.9222 -0.8623
 4363TIP3    H213096   3.403   0.711   4.873 -2.2125 -1.7917 -0.8744
 4364TIP3   OH213097   5.898   2.336   1.481  0.1247 -0.0916  0.4535
 4364TIP3    H113098   5.872   2.311   1.392 -0.8259  0.0405  0.6856
 4364TIP3    H213099   5.837   2.406   1.505  0.1682 -0.3459  1.3361
 4365TIP3   OH213100   5.359   3.284   1.863  0.3893  0.0779 -0.5001
 4365TIP3    H113101   5.410   3.328   1.931 -0.0253 -0.3432  0.0973
 4365TIP3    H213102   5.411   3.294   1.783  0.8129  0.7078 -0.1531
 4366TIP3   OH213103   5.322   4.434   4.627  0.5518 -0.0012  0.0197
 4366TIP3    H113104   5.288   4.517   4.594  1.9097  0.7700  0.4520
 4366TIP3    H213105   5.249   4.373   4.621 -0.0794  0.8555 -1.6530
 4367TIP3   OH213106   2.397   5.839   2.234  0.3745 -0.1912  0.5586
 4367TIP3    H113107   2.303   5.837   2.251  0.4076 -0.8311  0.6682
 4367TIP3    H213108   2.425   5.748   2.243  1.0282  0.0176  0.6597
 4368TIP3   OH213109   0.321   0.913   3.716  0.3573 -0.0541  0.0837
 4368TIP3    H113110   0.233   0.896   3.683  0.8635 -0.4814 -1.1029
 4368TIP3    H213111   0.376   0.914   3.638  1.6215 -1.1977  0.9210
 4369TIP3   OH213112   3.206   4.218   1.865  0.4532 -0.4351 -0.0637
 4369TIP3    H113113   3.201   4.288   1.800  2.1953 -0.9358 -0.8109
 4369TIP3    H213114   3.129   4.165   1.849 -0.2032  0.5749 -0.3571
 4370TIP3   OH213115   4.806   2.488   4.079  0.3620 -0.2351 -0.2816
 4370TIP3    H113116   4.731   2.436   4.106  1.4270 -0.8539  1.7254
 4370TIP3    H213117   4.836   2.447   3.998 -1.3258 -0.0606 -1.0401
 4371TIP3   OH213118   1.052   2.918   2.895  0.5639  0.0432  0.1775
 4371TIP3    H113119   1.016   2.937   2.981  0.6902  0.4869  0.1363
 4371TIP3    H213120   1.064   2.823   2.894  0.7210  0.0532  0.7115
 4372TIP3   OH213121   5.626   2.078   0.266  0.7755  0.1323  0.1284
 4372TIP3    H113122   5.658   2.121   0.345  2.4222  0.1851 -0.5253
 4372TIP3    H213123   5.551   2.130   0.238  1.6956  1.5786  0.2966
 4373TIP3   OH213124   4.303   5.052   3.075  0.2881  0.0266  0.8843
 4373TIP3    H113125   4.253   5.023   2.999  1.8284  1.6384 -0.8569
 4373TIP3    H213126   4.260   5.133   3.102 -1.3494 -1.4354  2.9675
 4374TIP3   OH213127   5.232   3.626   1.732  0.0384  0.3709  0.0785
 4374TIP3    H113128   5.324   3.612   1.754 -0.1653  0.2065  0.8429
 4374TIP3    H213129   5.184   3.601   1.811 -0.6126  1.2708 -0.0150
 4375TIP3   OH213130   5.686   1.876   2.684  0.3158 -0.0598  0.4334
 4375TIP3    H113131   5.715   1.827   2.760 -0.3415  0.4959  1.0524
 4375TIP3    H213132   5.593   1.893   2.699  0.0175 -0.4860 -0.7938
 4376TIP3   OH213133   0.694   2.334   4.459 -0.6693  0.3655  0.0118
 4376TIP3    H113134   0.737   2.312   4.542  1.1232 -1.3001 -1.2555
 4376TIP3    H213135   0.714   2.426   4.446  1.1336  0.0702  0.3350
 4377TIP3   OH213136   2.171   4.794   0.022 -0.2338  0.1375  0.4331
 4377TIP3    H113137   2.138   4.705   0.036  0.0379 -0.2795 -1.2474
 4377TIP3    H213138   2.117   4.850   0.078 -1.2967 -0.9413  0.5193
 4378TIP3   OH213139   5.410   1.549   0.546 -0.1701 -0.2420 -0.5582
 4378TIP3    H113140   5.448   1.611   0.484 -1.3275  1.2579  0.1574
 4378TIP3    H213141   5.318   1.575   0.551 -0.6275 -1.8495  0.0121
 4379TIP3   OH213142   2.376   0.101   1.384 -0.0869 -0.1928 -0.2808
 4379TIP3    H113143   2.364   0.011   1.414  1.3565 -0.7113 -1.1701
 4379TIP3    H213144   2.287   0.135   1.375 -0.6373 -1.0270  1.4644
 4380TIP3   OH213145   2.594   3.911   3.198 -0.1177 -0.3383  0.3148
 4380TIP3    H113146   2.556   3.891   3.283  1.4561 -0.9859  0.9042
 4380TIP3    H213147   2.552   3.849   3.138  0.3705 -1.4063  1.0509
 4381TIP3   OH213148   0.135   4.004   2.217  0.2220 -0.7181 -0.0857
 4381TIP3    H113149   0.042   3.985   2.231 -0.3609  1.5978 -0.3917
 4381TIP3    H213150   0.161   4.055   2.294  0.1983  1.7487 -1.5814
 4382TIP3   OH213151   6.001   3.355   0.820  0.4279  0.4944  0.2008
 4382TIP3    H113152   6.064   3.317   0.881  1.3101  1.9775  0.2475
 4382TIP3    H213153   5.980   3.441   0.857 -1.7050  0.0292  0.2231
 4383TIP3   OH213154   0.983   2.885   4.085  0.0635  0.5794 -0.1508
 4383TIP3    H113155   0.940   2.858   4.167 -0.4778  0.3024 -0.5160
 4383TIP3    H213156   1.015   2.804   4.047  2.4321  0.9449  0.9228
 4384TIP3   OH213157   3.469   2.084   0.005  0.1903  0.0817 -0.1244
 4384TIP3    H113158   3.382   2.076   0.045 -1.0730  1.9577 -2.2949
 4384TIP3    H213159   3.491   1.994  -0.023 -0.9842 -0.4281  0.5324
 4385TIP3   OH213160   5.552   1.089   2.025  0.1235  0.0989  0.3408
 4385TIP3    H113161   5.573   0.996   2.037 -2.7305 -0.4014  2.2795
 4385TIP3    H213162   5.549   1.100   1.930  0.6832 -1.7268  0.0608
 4386TIP3   OH213163   3.680   2.978   1.377 -0.3326 -0.3381 -0.3918
 4386TIP3    H113164   3.732   3.029   1.439  0.4811  0.2007 -1.4836
 4386TIP3    H213165   3.737   2.905   1.353 -0.5753 -0.4541 -0.6214
 4387TIP3   OH213166   2.828   5.283   0.134  0.1085  0.3836 -0.4829
 4387TIP3    H113167   2.772   5.248   0.204  1.1226 -1.0675 -0.3575
 4387TIP3    H213168   2.781   5.260   0.054  0.4587 -0.8076 -0.3778
 4388TIP3   OH213169   4.935   3.128   4.842 -0.7608 -0.2881 -0.4961
 4388TIP3    H113170   4.983   3.111   4.761 -1.4591  1.4080 -1.3003
 4388TIP3    H213171   4.983   3.200   4.884 -2.0143  0.7690 -0.8327
 4389TIP3   OH213172   5.079   3.555   3.019  0.0101  0.4913  0.5601
 4389TIP3    H113173   5.127   3.489   2.968 -1.4609  0.3573 -0.7138
 4389TIP3    H213174   5.111   3.639   2.985 -0.9478  0.4042 -0.6495
 4390TIP3   OH213175   6.047   1.924   0.806  0.1122  0.0198  0.7283
 4390TIP3    H113176   6.040   1.829   0.802  0.1848 -0.1120  2.6014
 4390TIP3    H213177   6.141   1.940   0.816  0.1744  0.3424 -0.2979
 4391TIP3   OH213178   4.704   5.327   0.266 -0.1509 -0.0272  0.4710
 4391TIP3    H113179   4.623   5.344   0.218 -0.4291  2.0612  1.6010
 4391TIP3    H213180   4.676   5.280   0.345 -0.0045 -1.0288 -0.0557
 4392TIP3   OH213181   3.903   5.147   3.825  0.4916  0.4142  0.7001
 4392TIP3    H113182   3.990   5.186   3.814  0.6596 -0.3248 -1.0285
 4392TIP3    H213183   3.906   5.068   3.771 -0.9382 -0.1496  1.4095
 4393TIP3   OH213184   5.412   0.493   1.780 -0.1721  0.3002 -0.2368
 4393TIP3    H113185   5.391   0.418   1.836 -0.4993  0.4898 -0.1030
 4393TIP3    H213186   5.439   0.455   1.697  2.0723 -0.0674  0.5903
 4394TIP3   OH213187   3.089   2.207   2.468 -0.1965  0.1080  0.2380
 4394TIP3    H113188   3.056   2.117   2.464  4.3264 -1.8021 -0.8636
 4394TIP3    H213189   3.109   2.221   2.561  1.8774 -1.3417  0.0710
 4395TIP3   OH213190   0.453   0.909   3.442 -0.4250  0.6829 -0.3908
 4395TIP3    H113191   0.406   0.864   3.372  2.3441 -0.8290 -1.4390
 4395TIP3    H213192   0.472   0.996   3.405 -1.6713  1.0416 -0.2336
 4396TIP3   OH213193   5.727   1.574   4.618  0.4963  0.4260 -0.3466
 4396TIP3    H113194   5.682   1.529   4.546 -0.7757  0.0519  0.6554
 4396TIP3    H213195   5.820   1.568   4.595  0.2459 -1.2337 -1.0785
 4397TIP3   OH213196   2.112   0.402   3.170  0.6771  0.1762  0.5440
 4397TIP3    H113197   2.194   0.424   3.213  0.4879  2.9246 -0.3035
 4397TIP3    H213198   2.063   0.351   3.235  2.5952 -0.6342  1.4292
 4398TIP3   OH213199   2.346   3.852   4.057 -0.1967  0.5962  0.6574
 4398TIP3    H113200   2.265   3.903   4.063 -0.4807  0.1119  0.9347
 4398TIP3    H213201   2.383   3.877   3.972 -0.6709  0.7694  0.4992
 4399TIP3   OH213202   3.742   5.360   3.720  0.0698 -0.0934  0.5597
 4399TIP3    H113203   3.726   5.374   3.627 -0.7944  1.4412  0.9001
 4399TIP3    H213204   3.747   5.265   3.730 -0.3059 -0.3004 -0.9657
 4400TIP3   OH213205   2.622   5.479   3.545 -0.0675  0.3637  0.2300
 4400TIP3    H113206   2.652   5.388   3.549  0.9765  0.5226 -1.9261
 4400TIP3    H213207   2.625   5.511   3.635  2.9443 -0.7439  0.6237
 4401TIP3   OH213208   4.556   4.295   3.595  0.1981 -0.1043  0.7467
 4401TIP3    H113209   4.485   4.358   3.588  1.4915  1.5808  2.0299
 4401TIP3    H213210   4.555   4.269   3.687  0.5903 -0.8683  0.5430
 4402TIP3   OH213211   1.372  -0.009   4.966 -0.2723  0.0460 -0.0244
 4402TIP3    H113212   1.362   0.076   5.009  1.6455  0.0807  0.4628
 4402TIP3    H213213   1.381   0.012   4.873 -1.6309  0.2102 -0.1269
 4403TIP3   OH213214   1.157   2.233   2.261 -0.0033 -0.3510  0.3215
 4403TIP3    H113215   1.141   2.144   2.294  0.7879 -1.1604 -1.3734
 4403TIP3    H213216   1.172   2.221   2.168 -1.9417  1.8157 -0.3521
 4404TIP3   OH213217   5.844   2.713   1.357 -0.2321 -0.4573  0.5091
 4404TIP3    H113218   5.900   2.740   1.284  0.1067  0.8859  1.2444
 4404TIP3    H213219   5.785   2.788   1.370 -0.1527 -0.6003  1.7402
 4405TIP3   OH213220   2.081   5.272   4.300 -0.1069 -0.2078 -0.2009
 4405TIP3    H113221   2.123   5.280   4.215  0.1340  2.0345  0.0729
 4405TIP3    H213222   1.988   5.284   4.282 -0.3994 -2.4082 -0.4410
 4406TIP3   OH213223   3.983   2.716   2.123 -0.1431 -0.4372 -0.1681
 4406TIP3    H113224   4.021   2.634   2.092  0.6128 -1.1284  2.2950
 4406TIP3    H213225   3.890   2.696   2.136 -0.0845 -0.7287 -0.1825
 4407TIP3   OH213226   1.270   2.434   3.511 -0.4193  0.3273 -0.3521
 4407TIP3    H113227   1.281   2.383   3.431  0.4601 -1.2861  0.7393
 4407TIP3    H213228   1.204   2.387   3.561 -0.6558  1.0811  0.0673
 4408TIP3   OH213229   1.410   1.461   4.742 -0.2414  0.1649 -0.7815
 4408TIP3    H113230   1.404   1.554   4.762  1.1806  0.2779 -0.7669
 4408TIP3    H213231   1.431   1.457   4.649  0.8207 -0.0799 -0.5500
 4409TIP3   OH213232   3.712   1.859   3.183  0.6533  0.1994  0.5173
 4409TIP3    H113233   3.630   1.835   3.227  0.2196  0.0968 -0.3332
 4409TIP3    H213234   3.745   1.933   3.234 -1.2778  1.9256 -0.5735
 4410TIP3   OH213235   1.170   4.023   2.223 -0.0980  0.4201  0.3716
 4410TIP3    H113236   1.148   3.957   2.158 -0.6826 -0.2828  1.2515
 4410TIP3    H213237   1.144   4.106   2.184 -1.2512 -0.0766  0.0651
 4411TIP3   OH213238   2.304   5.926   3.709 -0.0659 -0.3830  0.7337
 4411TIP3    H113239   2.394   5.943   3.683 -0.2964 -1.0083 -0.5259
 4411TIP3    H213240   2.283   5.841   3.672 -1.7870  0.5737 -0.6959
 4412TIP3   OH213241   1.572   5.913   3.063 -0.3905 -0.4947 -0.0836
 4412TIP3    H113242   1.616   5.854   3.124  1.6482 -1.2563 -2.1527
 4412TIP3    H213243   1.599   5.883   2.977 -0.7614  2.3409 -1.3028
 4413TIP3   OH213244   1.105   5.488   4.584  0.5904  0.0920  0.1090
 4413TIP3    H113245   1.051   5.476   4.662 -2.0728 -1.1055 -1.7596
 4413TIP3    H213246   1.113   5.582   4.574  1.2460  0.2674  1.9484
 4414TIP3   OH213247   4.804   3.634   3.004  0.0900  0.0437 -0.5893
 4414TIP3    H113248   4.754   3.558   3.034 -1.7252  1.4820  0.2367
 4414TIP3    H213249   4.895   3.610   3.016 -0.4735 -1.3148  1.4134
 4415TIP3   OH213250   6.166   3.012   4.142  0.0824 -0.1998 -0.1242
 4415TIP3    H113251   6.226   2.940   4.121 -0.0700 -0.0269 -1.1909
 4415TIP3    H213252   6.121   3.031   4.059  1.6370  2.5616 -0.4706
 4416TIP3   OH213253   4.187   4.437   3.231 -0.7063  0.3420 -0.8151
 4416TIP3    H113254   4.136   4.368   3.274 -1.1834  0.6935 -0.8224
 4416TIP3    H213255   4.141   4.453   3.149 -0.5152  0.5779 -0.8762
 4417TIP3   OH213256   0.283   5.894   3.568 -0.2291 -0.3501  0.0408
 4417TIP3    H113257   0.347   5.952   3.609  0.7748 -0.4800 -1.2639
 4417TIP3    H213258   0.336   5.825   3.527 -1.3027 -1.2950  0.1994
 4418TIP3   OH213259   0.426   1.616   2.962  0.2453  0.0705  0.0653
 4418TIP3    H113260   0.378   1.574   3.033  0.8569 -0.0901  0.3931
 4418TIP3    H213261   0.470   1.544   2.917  1.1249  0.3250  0.4963
 4419TIP3   OH213262   2.095   4.998   1.932 -0.0967 -0.3445 -0.2047
 4419TIP3    H113263   2.125   4.940   2.002 -0.6533 -0.3019  0.0735
 4419TIP3    H213264   2.158   5.070   1.932 -0.1196 -0.3212  0.2819
 4420TIP3   OH213265   0.855   5.037   3.841  0.1729 -0.3140 -0.3291
 4420TIP3    H113266   0.937   5.002   3.807  0.6850  1.6440 -1.2110
 4420TIP3    H213267   0.795   5.035   3.766 -0.4961 -1.3118  0.1948
 4421TIP3   OH213268   2.484   5.092   0.459 -0.0371  0.0753  0.2844
 4421TIP3    H113269   2.400   5.080   0.414  0.6579 -1.8526 -0.6288
 4421TIP3    H213270   2.530   5.008   0.446  1.4904  0.6058  1.9038
 4422TIP3   OH213271   4.299   1.254   1.325  0.0237  0.3935 -0.4516
 4422TIP3    H113272   4.206   1.274   1.331 -0.0442  0.1447 -0.6743
 4422TIP3    H213273   4.342   1.340   1.330 -0.2097  0.4999 -0.2461
 4423TIP3   OH213274   4.242   3.040   2.624 -0.0965 -0.2437  0.3699
 4423TIP3    H113275   4.307   3.015   2.558 -0.2580 -0.5416  0.3205
 4423TIP3    H213276   4.181   3.098   2.577  1.7721  2.5418  1.1306
 4424TIP3   OH213277   2.260   0.320   1.713 -0.5567 -0.0168 -0.5527
 4424TIP3    H113278   2.287   0.271   1.790 -1.1784 -1.8681 -1.4709
 4424TIP3    H213279   2.340   0.364   1.683  0.0006 -0.4226  0.2995
 4425TIP3   OH213280   3.777   1.972   0.055 -0.1543 -0.5567 -0.0025
 4425TIP3    H113281   3.705   1.937   0.002 -0.3284 -0.9560  0.4894
 4425TIP3    H213282   3.836   2.014  -0.009 -0.0645 -1.5370 -0.5847
 4426TIP3   OH213283   4.970   0.450   3.225  0.0111 -0.2222  0.3854
 4426TIP3    H113284   5.061   0.445   3.197 -0.2290  1.9797 -0.9773
 4426TIP3    H213285   4.924   0.387   3.169  0.6474 -1.3241  1.0653
 4427TIP3   OH213286   1.136   4.443   4.048  0.0060  0.4224  0.2090
 4427TIP3    H113287   1.184   4.407   3.974 -0.6019  1.3896 -0.6973
 4427TIP3    H213288   1.106   4.529   4.017 -0.8448  0.5570  1.3395
 4428TIP3   OH213289   0.824   1.756   1.508 -0.8353  0.0679  0.1476
 4428TIP3    H113290   0.855   1.708   1.585  0.3928 -0.8274 -0.8532
 4428TIP3    H213291   0.745   1.801   1.537  0.7950  1.5874  2.5361
 4429TIP3   OH213292   1.222   1.065   0.261 -0.1560  0.1971 -0.2123
 4429TIP3    H113293   1.140   1.045   0.217  0.5839  1.6957 -2.4557
 4429TIP3    H213294   1.277   0.988   0.246 -0.4060  0.0992 -0.6310
 4430TIP3   OH213295   4.604   0.517   2.599  0.0952  0.1105  0.3571
 4430TIP3    H113296   4.623   0.519   2.692  0.3687  0.0677  0.3005
 4430TIP3    H213297   4.580   0.608   2.578  0.7572  0.2766  0.3140
 4431TIP3   OH213298   4.372   1.884   3.079  0.2262  0.3784  0.2007
 4431TIP3    H113299   4.455   1.836   3.085  0.6968  1.1244 -0.1234
 4431TIP3    H213300   4.336   1.858   2.994  0.2459  0.2368  0.2353
 4432TIP3   OH213301   1.497   5.282   1.491  0.4944 -0.3340 -0.0059
 4432TIP3    H113302   1.576   5.269   1.542  0.5870 -0.8628 -0.2744
 4432TIP3    H213303   1.512   5.364   1.444  1.4084 -1.0254 -0.9841
 4433TIP3   OH213304   3.715   5.076   2.751  0.6047  0.2573 -0.5493
 4433TIP3    H113305   3.632   5.045   2.786  1.3065 -0.0756  0.8666
 4433TIP3    H213306   3.733   5.018   2.677 -0.8957  0.9770 -1.5479
 4434TIP3   OH213307   3.781   1.425   1.790 -0.8960 -0.0912  0.2983
 4434TIP3    H113308   3.734   1.448   1.710 -1.0638  2.3840  1.0435
 4434TIP3    H213309   3.738   1.345   1.820 -1.0147 -0.9253 -1.8961
 4435TIP3   OH213310   1.984   0.328   3.800  0.3999  0.1663 -0.1348
 4435TIP3    H113311   1.913   0.303   3.859  0.2350 -1.5675 -0.9940
 4435TIP3    H213312   1.974   0.422   3.788 -1.5579  0.0176  0.0271
 4436TIP3   OH213313   1.809   5.256   1.097 -0.2382  0.0544  0.1685
 4436TIP3    H113314   1.824   5.259   1.191 -0.4852 -0.0589  0.2101
 4436TIP3    H213315   1.782   5.166   1.080 -0.5105  0.1622  0.0353
 4437TIP3   OH213316   0.105   1.106   3.006 -0.1429 -0.1605 -0.0375
 4437TIP3    H113317   0.068   1.095   2.919 -0.9529 -0.6875  0.3623
 4437TIP3    H213318   0.030   1.117   3.063  0.3993  0.6879  0.5330
 4438TIP3   OH213319   1.484   2.465   0.835  0.3817  0.1881  0.0523
 4438TIP3    H113320   1.459   2.540   0.781  1.0001 -1.0448 -2.0944
 4438TIP3    H213321   1.407   2.447   0.889 -0.0972  1.7919 -0.0606
 4439TIP3   OH213322   0.088   3.490   1.751  0.2312 -0.4750  0.0291
 4439TIP3    H113323   0.153   3.542   1.704  2.0707 -2.5960  0.0690
 4439TIP3    H213324   0.061   3.423   1.688 -0.2288 -0.9798  0.7436
 4440TIP3   OH213325   0.434   2.528   4.183  0.3984 -0.0325 -0.0859
 4440TIP3    H113326   0.403   2.470   4.252  1.2844 -2.7462 -1.8210
 4440TIP3    H213327   0.356   2.552   4.133 -0.1917  1.6560  1.5575
 4441TIP3   OH213328   1.024   2.353   4.561  0.0791  0.0631  0.2558
 4441TIP3    H113329   1.008   2.423   4.498 -2.4121 -1.1230 -0.5804
 4441TIP3    H213330   1.110   2.372   4.598  1.0231  1.5855 -2.4696
 4442TIP3   OH213331   5.316   5.775   0.363  0.3463  0.1787  0.4640
 4442TIP3    H113332   5.339   5.739   0.278 -0.0656 -1.2442  0.9215
 4442TIP3    H213333   5.286   5.864   0.345 -1.5706 -0.7325 -1.1431
 4443TIP3   OH213334   1.318   5.589   0.823 -0.6625  0.3044  0.1774
 4443TIP3    H113335   1.256   5.627   0.761  1.8452 -0.5976 -3.1904
 4443TIP3    H213336   1.293   5.497   0.829 -0.4651  0.2302 -0.1163
 4444TIP3   OH213337   1.670   3.964   0.181  0.4389  0.5812 -0.0868
 4444TIP3    H113338   1.680   4.056   0.154  2.2396  0.5275  0.2551
 4444TIP3    H213339   1.713   3.960   0.266 -2.0383 -0.0258  1.2084
 4445TIP3   OH213340   2.458   2.021   2.189 -0.1647  0.0340  0.4062
 4445TIP3    H113341   2.469   2.030   2.283 -0.0659 -1.5276  0.5732
 4445TIP3    H213342   2.527   2.075   2.151  0.7916 -0.5330  1.2670
 4446TIP3   OH213343   2.846   3.076   4.813 -0.3233 -0.9853 -0.2001
 4446TIP3    H113344   2.888   3.034   4.889 -2.5345 -2.1283  0.4588
 4446TIP3    H213345   2.788   3.142   4.851  3.1690  3.1368 -1.1971
 4447TIP3   OH213346   3.636   1.189   1.881  0.3331 -0.0957 -0.0598
 4447TIP3    H113347   3.672   1.158   1.965  0.5629 -2.1336 -0.8563
 4447TIP3    H213348   3.581   1.118   1.851 -1.6716  1.5836 -0.5573
 4448TIP3   OH213349   2.572   5.617   4.860 -0.5646 -0.1769 -0.2371
 4448TIP3    H113350   2.499   5.587   4.806  0.0997  0.0595 -1.3006
 4448TIP3    H213351   2.609   5.536   4.896 -0.0201 -0.4941 -1.4592
 4449TIP3   OH213352   3.215   0.994   3.296 -0.2155  0.5468  0.0384
 4449TIP3    H113353   3.304   1.003   3.260 -0.9837  1.0943 -1.8246
 4449TIP3    H213354   3.229   0.952   3.381  1.9457  1.9648  0.4799
 4450TIP3   OH213355   1.536   3.855   2.900  0.4534  0.2476 -0.3018
 4450TIP3    H113356   1.582   3.937   2.886  0.7154  0.1455 -0.0531
 4450TIP3    H213357   1.484   3.842   2.820  1.8566 -0.2877 -1.1584
 4451TIP3   OH213358   5.127   4.313   0.752  0.1165  0.3369 -0.2040
 4451TIP3    H113359   5.144   4.401   0.719 -0.0195  0.4283 -0.0276
 4451TIP3    H213360   5.042   4.319   0.796 -1.0345 -0.4059 -2.1668
 4452TIP3   OH213361   1.094   2.923   0.247  0.0310  0.6895  0.7832
 4452TIP3    H113362   1.055   2.841   0.275 -0.5702  0.7717  0.1870
 4452TIP3    H213363   1.105   2.973   0.328  1.0703 -0.2400  1.2543
 4453TIP3   OH213364   6.225   4.411   4.534 -0.4552 -0.6020 -0.2144
 4453TIP3    H113365   6.183   4.496   4.545 -0.4583 -0.2052 -2.6754
 4453TIP3    H213366   6.317   4.427   4.552 -0.4123  0.0138 -0.9148
 4454TIP3   OH213367   2.922   0.813   1.406 -0.2426  0.2313 -0.1142
 4454TIP3    H113368   2.847   0.869   1.424 -0.0318  0.1834  0.9760
 4454TIP3    H213369   2.884   0.731   1.375 -0.5590  0.8768 -1.4947
 4455TIP3   OH213370   4.869   1.726   1.637 -0.2406 -0.4023  0.1420
 4455TIP3    H113371   4.959   1.705   1.661  0.2011  0.6468 -0.4980
 4455TIP3    H213372   4.817   1.653   1.669  0.6517 -0.3579  1.7834
 4456TIP3   OH213373   3.989   3.299   0.933 -0.6005  0.0519 -0.3295
 4456TIP3    H113374   4.078   3.301   0.967 -1.0630  2.0508  0.9794
 4456TIP3    H213375   3.999   3.292   0.838  0.9405 -0.0204 -0.1862
 4457TIP3   OH213376   0.793   2.890   0.981  0.3933 -0.0204  0.1868
 4457TIP3    H113377   0.851   2.954   1.021 -1.8643  2.7324 -0.6263
 4457TIP3    H213378   0.774   2.827   1.051  0.9109  1.4802  1.7257
 4458TIP3   OH213379   2.028   3.600   1.727  0.0372 -0.4787  0.3556
 4458TIP3    H113380   2.098   3.547   1.687  0.2367  0.1344 -0.1150
 4458TIP3    H213381   2.054   3.608   1.819 -0.9052 -2.6953  0.8818
 4459TIP3   OH213382   2.429   5.471   4.667  0.3747  0.1285 -0.0729
 4459TIP3    H113383   2.486   5.395   4.671 -0.1569 -0.3013 -0.5068
 4459TIP3    H213384   2.353   5.448   4.721  0.2950  0.4236 -0.0544
 4460TIP3   OH213385   6.159   0.419   1.200  0.2933 -0.2042 -0.0670
 4460TIP3    H113386   6.240   0.455   1.164 -0.1981  1.1209  0.1064
 4460TIP3    H213387   6.122   0.367   1.128  1.8462 -1.8185  0.2214
 4461TIP3   OH213388   5.808   2.009   3.299  0.0484  0.2055 -0.1344
 4461TIP3    H113389   5.853   2.075   3.353  1.8767 -1.0149 -0.0791
 4461TIP3    H213390   5.726   1.993   3.345  0.2622  1.3206  0.6915
 4462TIP3   OH213391   1.936   0.012   3.786  0.5832  0.1786 -0.1316
 4462TIP3    H113392   1.948   0.107   3.788  1.8532  0.0334  1.2336
 4462TIP3    H213393   1.946  -0.016   3.878 -1.9629 -1.0618 -0.1417
 4463TIP3   OH213394   2.408   4.977   2.586 -0.0524 -0.1072  0.5282
 4463TIP3    H113395   2.419   5.039   2.658  0.8412 -1.1032  1.2930
 4463TIP3    H213396   2.466   4.904   2.608 -1.6000 -1.5666  0.0587
 4464TIP3   OH213397   1.324   5.578   3.037  0.2085  0.4099 -1.0158
 4464TIP3    H113398   1.413   5.551   3.016  0.4715  1.3929 -1.1903
 4464TIP3    H213399   1.329   5.673   3.049 -0.4429  0.2538  0.8512
 4465TIP3   OH213400   0.906   1.124   1.028  0.3220 -0.0366  0.0647
 4465TIP3    H113401   0.941   1.212   1.011 -0.8594  0.2372 -1.0437
 4465TIP3    H213402   0.820   1.124   0.987  0.3529 -1.7669 -0.0571
 4466TIP3   OH213403   0.094   2.336   3.399  0.0051  0.2154 -0.0188
 4466TIP3    H113404   0.020   2.396   3.388 -0.4338 -0.3772 -0.3229
 4466TIP3    H213405   0.056   2.260   3.443  0.1807 -0.5737 -1.1911
 4467TIP3   OH213406   6.058   0.517   3.262  0.1572 -0.1971  0.0198
 4467TIP3    H113407   6.150   0.491   3.256  0.0380 -0.3862 -1.2385
 4467TIP3    H213408   6.034   0.542   3.172 -1.4526 -1.6538 -0.0145
 4468TIP3   OH213409   5.430   4.914   4.334  0.1385  0.3435  0.2108
 4468TIP3    H113410   5.455   4.883   4.420  0.4875  0.1550  0.0411
 4468TIP3    H213411   5.404   4.835   4.286  1.0205  0.2987 -0.2181
 4469TIP3   OH213412   2.619   0.781   2.359  0.1603  0.3522  0.2795
 4469TIP3    H113413   2.671   0.744   2.288  1.5707  1.5683  0.6369
 4469TIP3    H213414   2.624   0.715   2.429 -0.6207 -0.5122 -0.4565
 4470TIP3   OH213415   2.571   5.063   1.583  0.0020  0.5280 -0.0564
 4470TIP3    H113416   2.549   4.970   1.573  2.4143  0.0775 -2.2356
 4470TIP3    H213417   2.621   5.084   1.505  1.8412  2.9669  1.6210
 4471TIP3   OH213418   2.178   4.801   4.305 -0.1844 -0.4031 -0.2568
 4471TIP3    H113419   2.267   4.831   4.325 -0.1443 -1.1658  0.7942
 4471TIP3    H213420   2.181   4.706   4.321 -1.1854 -0.4355 -0.2088
 4472TIP3   OH213421   2.224   1.210   1.590  0.1360  0.2452  0.4721
 4472TIP3    H113422   2.231   1.120   1.622 -2.7167 -0.5425 -0.8072
 4472TIP3    H213423   2.176   1.256   1.659 -2.5408 -0.4834 -0.7629
 4473TIP3   OH213424   2.963   4.892   2.219  0.3249  0.6904 -0.1184
 4473TIP3    H113425   2.963   4.798   2.202  1.8911  0.6086  0.1392
 4473TIP3    H213426   3.037   4.925   2.167  0.0732  1.6999  0.1459
 4474TIP3   OH213427   5.331   1.375   2.560 -0.3300  0.2621  0.1329
 4474TIP3    H113428   5.335   1.291   2.514 -1.9101  0.5341 -0.5512
 4474TIP3    H213429   5.281   1.432   2.502  0.3935  1.5805  0.7639
 4475TIP3   OH213430   0.732   1.382   4.115  0.1256  0.2872  0.0267
 4475TIP3    H113431   0.770   1.451   4.061 -1.9606 -0.5638 -2.7905
 4475TIP3    H213432   0.649   1.360   4.071 -0.9463 -1.6640  2.7196
 4476TIP3   OH213433   4.625   0.120   4.319  0.1632  0.4400 -0.2710
 4476TIP3    H113434   4.676   0.056   4.368 -1.0966  0.2607  0.8771
 4476TIP3    H213435   4.598   0.185   4.384 -1.3530  0.3339 -0.7443
 4477TIP3   OH213436   0.135   0.078   1.658 -0.5381 -0.5676 -0.4710
 4477TIP3    H113437   0.126   0.018   1.583 -0.9827 -1.9491  0.6452
 4477TIP3    H213438   0.229   0.087   1.670 -0.4657 -0.7697 -0.8537
 4478TIP3   OH213439   4.242   2.900   1.282 -0.1103  0.6589 -0.4727
 4478TIP3    H113440   4.178   2.969   1.293  0.0209  0.5290  1.3265
 4478TIP3    H213441   4.191   2.819   1.287  0.0869  0.5716  0.1249
 4479TIP3   OH213442   5.820   5.671   0.264  0.1127  0.0269 -0.7472
 4479TIP3    H113443   5.909   5.671   0.229  0.7332  1.9586  0.6660
 4479TIP3    H213444   5.824   5.616   0.342 -0.7159 -2.3597 -2.2890
 4480TIP3   OH213445   0.525   5.372   0.180 -0.1592  0.3056 -0.1486
 4480TIP3    H113446   0.485   5.292   0.146  0.3153  0.0412 -0.0891
 4480TIP3    H213447   0.453   5.417   0.225 -0.3763 -0.1951  0.0170
 4481TIP3   OH213448   5.121   4.454   3.605  0.4079 -0.1257  0.4494
 4481TIP3    H113449   5.099   4.377   3.658 -1.2867 -0.3237 -0.4404
 4481TIP3    H213450   5.194   4.495   3.650 -0.1575 -0.9761  2.2255
 4482TIP3   OH213451   4.121   3.477   5.069  0.4003  0.8053  0.2786
 4482TIP3    H113452   4.067   3.537   5.018  0.0567  1.0371  0.9063
 4482TIP3    H213453   4.102   3.391   5.032 -0.2573  0.9059  0.3712
 4483TIP3   OH213454   3.170   2.468   3.957 -0.1185 -0.3204 -0.0075
 4483TIP3    H113455   3.131   2.421   3.883 -1.5625  0.9756 -0.1039
 4483TIP3    H213456   3.149   2.414   4.033 -3.0007  0.7707  0.0734
 4484TIP3   OH213457   2.774   5.788   3.233  0.1752  0.5142  0.6201
 4484TIP3    H113458   2.818   5.840   3.166  0.6447  1.8325  1.9138
 4484TIP3    H213459   2.681   5.809   3.223  0.1659  0.2322  0.0201
 4485TIP3   OH213460   6.343   3.454   4.130 -0.2673  0.4164 -0.5057
 4485TIP3    H113461   6.260   3.408   4.133  0.5259 -1.0215  0.9837
 4485TIP3    H213462   6.330   3.531   4.186 -0.8939  0.8021 -1.1597
 4486TIP3   OH213463   3.886   2.564   3.883  0.3108  0.2989 -0.7207
 4486TIP3    H113464   3.800   2.528   3.904  0.1918  1.2385  0.5239
 4486TIP3    H213465   3.871   2.658   3.871  1.2465  0.5808  0.1435
 4487TIP3   OH213466   2.635   5.979   2.246 -0.1402 -0.0813  0.1985
 4487TIP3    H113467   2.555   5.940   2.282 -1.4120  0.8772 -1.4573
 4487TIP3    H213468   2.685   5.904   2.212 -1.2128 -0.5490 -0.3987
 4488TIP3   OH213469   1.014   2.610   2.395 -0.6229  0.3192  0.3817
 4488TIP3    H113470   0.982   2.667   2.324 -0.4818 -0.7975 -0.6167
 4488TIP3    H213471   0.951   2.538   2.397 -0.3449  0.0945  1.0631
 4489TIP3   OH213472   2.379   1.321   4.414  0.2504 -0.2848  0.7532
 4489TIP3    H113473   2.432   1.365   4.347 -1.6860  1.6937  0.3997
 4489TIP3    H213474   2.352   1.239   4.373  0.6054  0.0645 -0.2093
 4490TIP3   OH213475   0.955   5.150   2.715  0.1326 -0.1577  0.3200
 4490TIP3    H113476   0.904   5.118   2.640 -0.5743  0.8586  0.3527
 4490TIP3    H213477   0.949   5.245   2.709  1.7274 -0.0228  0.5508
 4491TIP3   OH213478   3.072   3.923   4.566 -0.6337  0.2937  0.0183
 4491TIP3    H113479   3.125   3.930   4.646  1.1269 -1.2546 -0.9474
 4491TIP3    H213480   2.985   3.955   4.592  0.2348  1.0469  2.1881
 4492TIP3   OH213481   0.670   3.474   0.350  0.3047  0.5879  0.4811
 4492TIP3    H113482   0.675   3.503   0.441  1.0608 -1.2740  1.0773
 4492TIP3    H213483   0.757   3.440   0.330 -0.3205 -0.6150 -0.3743
 4493TIP3   OH213484   6.261   0.226   2.167 -0.4231 -0.0568  0.3835
 4493TIP3    H113485   6.213   0.144   2.177  0.3519 -0.7079 -0.9253
 4493TIP3    H213486   6.351   0.204   2.190  0.2377 -0.1799 -2.0325
 4494TIP3   OH213487   5.745   4.684   3.202 -0.2201  0.2811  0.1486
 4494TIP3    H113488   5.733   4.607   3.146 -0.4874  0.6161 -0.2610
 4494TIP3    H213489   5.790   4.747   3.147 -0.8563  0.7703  0.1729
 4495TIP3   OH213490   0.726   1.258   2.306 -0.3306 -0.3037  0.5376
 4495TIP3    H113491   0.645   1.307   2.295  0.9824  1.5424 -1.9622
 4495TIP3    H213492   0.750   1.273   2.398 -1.8909  0.6335  0.8344
 4496TIP3   OH213493   2.651   0.399   1.948 -0.2492 -0.2866  0.0697
 4496TIP3    H113494   2.726   0.445   1.912 -0.5625 -0.4292 -0.7754
 4496TIP3    H213495   2.577   0.459   1.935 -0.5348 -0.7329 -0.4114
 4497TIP3   OH213496   5.723   1.128   3.850 -0.3271  0.2423 -0.0282
 4497TIP3    H113497   5.767   1.209   3.825  1.6038 -0.2706  1.4975
 4497TIP3    H213498   5.762   1.062   3.792  0.3511 -0.0820  0.7874
 4498TIP3   OH213499   4.933   5.203   3.482  0.5759 -0.2401 -0.0276
 4498TIP3    H113500   4.929   5.281   3.537  1.4221 -0.4552  0.3481
 4498TIP3    H213501   4.985   5.140   3.532  0.0012 -1.0122 -0.3744
 4499TIP3   OH213502   0.676   3.289   2.267 -0.0223  0.6223 -0.1410
 4499TIP3    H113503   0.684   3.214   2.208  0.4575  1.4084 -1.1032
 4499TIP3    H213504   0.599   3.269   2.321 -0.2594 -0.2833 -0.7896
 4500TIP3   OH213505   3.782   1.983   5.073 -0.8551  0.1598 -0.0142
 4500TIP3    H113506   3.855   2.005   5.016 -1.3998  0.6755 -0.5353
 4500TIP3    H213507   3.821   1.967   5.159  0.0656 -1.3505 -0.6773
 4501TIP3   OH213508   5.582   0.399   2.823  0.1130  0.0523 -0.0579
 4501TIP3    H113509   5.646   0.442   2.765  0.4325  0.3621  0.5209
 4501TIP3    H213510   5.534   0.340   2.765 -0.5364  1.4082 -0.9429
 4502TIP3   OH213511   0.037   2.951   3.053 -0.0894 -0.5998 -0.3383
 4502TIP3    H113512   0.036   2.936   3.148  0.0966  0.6105 -0.1302
 4502TIP3    H213513  -0.051   2.927   3.025 -0.1433 -0.9837  0.1330
 4503TIP3   OH213514   2.084   4.849   0.667 -0.0815 -0.0698  0.1694
 4503TIP3    H113515   2.026   4.812   0.601 -0.1423 -1.2452  0.8576
 4503TIP3    H213516   2.098   4.778   0.729 -0.5356  1.1609  1.7642
 4504TIP3   OH213517   2.162   2.025   3.275  0.7040 -0.0025  0.3085
 4504TIP3    H113518   2.137   1.933   3.279  2.5818 -0.5417  0.3206
 4504TIP3    H213519   2.088   2.068   3.231 -0.9685 -1.1872  1.8346
 4505TIP3   OH213520   2.928   4.375   0.813  0.1678 -0.3450  0.3932
 4505TIP3    H113521   2.906   4.419   0.895  0.5879  0.9836 -0.1881
 4505TIP3    H213522   2.859   4.403   0.752  1.3758  0.9077 -0.4417
 4506TIP3   OH213523   6.034   1.498   0.444 -0.5262  0.1337  0.0143
 4506TIP3    H113524   6.014   1.407   0.422 -0.1692 -0.1223  0.7192
 4506TIP3    H213525   5.949   1.538   0.462 -0.7578  0.1615 -1.0922
 4507TIP3   OH213526   3.774   3.211   3.457  0.3144  0.1940  0.1997
 4507TIP3    H113527   3.796   3.125   3.420 -0.3966 -0.1964  0.6762
 4507TIP3    H213528   3.815   3.273   3.397 -0.7750 -0.4222 -1.2395
 4508TIP3   OH213529   1.555   3.662   4.500  0.6465 -0.5186  0.2463
 4508TIP3    H113530   1.466   3.696   4.494  1.4758  1.7430  0.1397
 4508TIP3    H213531   1.544   3.576   4.542 -1.8184 -1.5754 -2.2426
 4509TIP3   OH213532   3.638   3.770   4.120 -0.2455  0.3284 -0.2555
 4509TIP3    H113533   3.719   3.754   4.168 -0.2985 -1.5939 -0.7037
 4509TIP3    H213534   3.664   3.767   4.028 -0.7484  0.2024 -0.3957
 4510TIP3   OH213535   5.722   3.285   0.815  0.0814 -0.1410  0.1463
 4510TIP3    H113536   5.702   3.377   0.832 -0.1873  0.2054 -1.7293
 4510TIP3    H213537   5.817   3.280   0.823  0.0503  0.1910  0.7461
 4511TIP3   OH213538   3.160   5.182   3.188 -0.1221  0.2588  0.0246
 4511TIP3    H113539   3.230   5.215   3.246 -2.0712  1.7934  1.6586
 4511TIP3    H213540   3.130   5.102   3.230  0.0615  0.0720 -0.1984
 4512TIP3   OH213541   5.495   3.146   2.525 -0.0826 -0.0894  0.7973
 4512TIP3    H113542   5.542   3.181   2.449 -0.1621  1.4315  1.4213
 4512TIP3    H213543   5.498   3.051   2.512 -1.8470  0.1208 -2.1787
 4513TIP3   OH213544   4.820   2.861   4.554  0.3418  0.4991 -0.1158
 4513TIP3    H113545   4.811   2.813   4.637 -1.3262 -1.0935 -1.1610
 4513TIP3    H213546   4.746   2.920   4.552  0.2294  0.3479 -0.5761
 4514TIP3   OH213547   2.356   1.200   0.570 -0.1007  0.5795  0.0715
 4514TIP3    H113548   2.267   1.179   0.544  0.4681 -1.3992 -0.4771
 4514TIP3    H213549   2.349   1.222   0.663 -1.2982  1.6013 -0.2408
 4515TIP3   OH213550   5.899   1.909   1.785 -0.5924 -0.1223 -0.4551
 4515TIP3    H113551   5.968   1.941   1.843 -0.1304 -0.9765 -0.5177
 4515TIP3    H213552   5.843   1.856   1.842 -0.7947 -0.0123 -0.5523
 4516TIP3   OH213553   4.045   3.825   2.020  0.1028  0.4125 -0.3148
 4516TIP3    H113554   4.002   3.875   1.951 -0.6192  3.2274  2.0026
 4516TIP3    H213555   4.138   3.843   2.009  0.1425 -0.3689 -1.3974
 4517TIP3   OH213556   4.591   0.907   3.097 -0.1211  0.4217  0.0110
 4517TIP3    H113557   4.553   0.848   3.032 -0.6610  0.6604  0.1082
 4517TIP3    H213558   4.591   0.856   3.178  0.4959  0.1452 -0.1546
 4518TIP3   OH213559   1.372   1.073   1.707  0.0839 -0.0609  0.0388
 4518TIP3    H113560   1.395   0.994   1.658 -0.0446 -0.5290  0.7230
 4518TIP3    H213561   1.282   1.058   1.736  0.2145  0.1409  0.5551
 4519TIP3   OH213562   3.822   2.520   1.632 -0.2831  0.4119 -0.6875
 4519TIP3    H113563   3.880   2.446   1.652 -1.7344 -0.8067 -0.7955
 4519TIP3    H213564   3.854   2.555   1.549  2.1353  1.7213  0.6915
 4520TIP3   OH213565   3.209   1.478   1.220 -0.0741 -0.0644  0.1900
 4520TIP3    H113566   3.278   1.413   1.228  1.5574  1.5606  0.0323
 4520TIP3    H213567   3.128   1.430   1.238  1.1445 -1.8802  1.1099
 4521TIP3   OH213568   4.051   2.899   1.551  0.2542 -0.0446 -0.3431
 4521TIP3    H113569   4.028   2.856   1.634  0.6990 -0.2175 -0.3081
 4521TIP3    H213570   4.078   2.828   1.494  1.0166  0.1839 -0.2782
 4522TIP3   OH213571   4.466   3.975   2.140 -0.2274  0.9263 -0.7461
 4522TIP3    H113572   4.537   4.036   2.160 -0.7840  0.6777  2.7001
 4522TIP3    H213573   4.504   3.888   2.149 -0.0238  0.7156 -3.1809
 4523TIP3   OH213574   5.611   0.571   3.923  0.2530  0.3743  0.0559
 4523TIP3    H113575   5.619   0.620   4.005  2.5084 -0.1461  0.2132
 4523TIP3    H213576   5.701   0.565   3.890  0.1117 -3.4650 -0.0434
 4524TIP3   OH213577   1.737   0.477   3.079  0.3509 -0.6575  0.3491
 4524TIP3    H113578   1.776   0.415   3.018 -0.2720 -0.5930 -0.1249
 4524TIP3    H213579   1.643   0.456   3.078  0.1993 -0.0189  0.5383
 4525TIP3   OH213580   3.455   3.894   0.872 -0.5642 -0.0017  0.1200
 4525TIP3    H113581   3.380   3.867   0.925 -0.4710  0.9311  0.7588
 4525TIP3    H213582   3.467   3.824   0.809 -0.9163 -0.9771  1.1097
 4526TIP3   OH213583   4.135   4.456   0.616 -0.1780  0.2680 -0.2554
 4526TIP3    H113584   4.103   4.375   0.654 -2.6950  1.0154 -0.5897
 4526TIP3    H213585   4.075   4.474   0.544  1.9144  1.0955 -1.8829
 4527TIP3   OH213586   2.775   3.960   2.423  0.3230 -0.3251  0.6567
 4527TIP3    H113587   2.773   3.994   2.512  1.7713  0.4801  0.4097
 4527TIP3    H213588   2.775   3.864   2.434 -0.2239 -0.2463  1.4740
 4528TIP3   OH213589   1.869   1.321   4.058  0.1488  0.4119 -0.2639
 4528TIP3    H113590   1.799   1.259   4.035  1.2002 -1.9619  2.3098
 4528TIP3    H213591   1.934   1.311   3.988 -0.1517 -0.6594 -0.4047
 4529TIP3   OH213592   4.575   1.768   4.442 -0.0678 -0.2984  0.2604
 4529TIP3    H113593   4.483   1.793   4.449 -0.2786 -0.6257 -1.1016
 4529TIP3    H213594   4.610   1.777   4.531 -1.3351  0.1235  0.7225
 4530TIP3   OH213595   5.272   4.057   1.201  0.0836  0.6809 -0.0706
 4530TIP3    H113596   5.310   4.088   1.119 -1.6702 -0.5908 -1.4665
 4530TIP3    H213597   5.236   4.135   1.243  0.5085  1.2784 -0.8025
 4531TIP3   OH213598   0.021   0.606   4.112  0.5682 -0.2680  0.1186
 4531TIP3    H113599   0.101   0.577   4.155  0.8121  0.0943 -0.0839
 4531TIP3    H213600  -0.050   0.569   4.165  0.8498  0.8267  1.3022
 4532TIP3   OH213601   4.846   0.430   1.822 -0.0804  0.0553 -0.7628
 4532TIP3    H113602   4.894   0.411   1.903  0.7193  0.8234 -1.0423
 4532TIP3    H213603   4.758   0.452   1.850  0.0311 -0.2625 -0.1505
 4533TIP3   OH213604   1.707   4.970   2.165 -0.0189  0.4861 -0.0051
 4533TIP3    H113605   1.739   5.021   2.091 -1.3678  0.1221 -0.8668
 4533TIP3    H213606   1.613   4.984   2.165 -0.0392  0.6460  1.7874
 4534TIP3   OH213607   0.608   3.047   4.042 -0.5893 -0.2779  0.2455
 4534TIP3    H113608   0.693   3.040   3.998 -0.5832  2.5218 -0.3808
 4534TIP3    H213609   0.626   3.098   4.121 -1.4867 -0.6485  0.7008
 4535TIP3   OH213610   4.983   2.518   0.045 -0.4603  0.1647 -0.1668
 4535TIP3    H113611   4.925   2.578   0.092  0.8542  0.8488  0.6583
 4535TIP3    H213612   4.946   2.512  -0.043 -1.9763  0.2639  0.4388
 4536TIP3   OH213613   4.496   4.175   0.657  0.2586 -0.2534 -0.2458
 4536TIP3    H113614   4.534   4.125   0.586 -0.5423  0.6535 -1.3535
 4536TIP3    H213615   4.566   4.182   0.722  0.9308 -1.2804 -0.8336
 4537TIP3   OH213616   1.469   2.131   2.466 -0.0041  0.1302 -0.3734
 4537TIP3    H113617   1.451   2.204   2.525 -0.9046 -0.0039 -0.4809
 4537TIP3    H213618   1.507   2.064   2.522  0.6616  0.6047 -0.2433
 4538TIP3   OH213619   3.064   3.519   0.679  0.7628  0.0457  0.0311
 4538TIP3    H113620   2.992   3.495   0.621  0.3253  1.3567 -0.0040
 4538TIP3    H213621   3.030   3.505   0.767  0.4456  0.6557  0.0148
 4539TIP3   OH213622   6.071   4.428   4.090  1.2987 -0.1267 -0.6430
 4539TIP3    H113623   6.129   4.388   4.155 -0.4896 -1.1891  0.3639
 4539TIP3    H213624   6.016   4.356   4.059  1.3826  0.5821 -2.5650
 4540TIP3   OH213625   3.664   5.054   2.126  0.2752  0.0613 -0.4201
 4540TIP3    H113626   3.737   5.114   2.141 -0.1127  0.2884  0.6217
 4540TIP3    H213627   3.617   5.051   2.209 -1.3689  0.5165 -1.2820
 4541TIP3   OH213628   3.502   0.865   0.129 -0.0180 -0.2183 -0.4656
 4541TIP3    H113629   3.597   0.850   0.127  0.1546  0.6743  0.4684
 4541TIP3    H213630   3.481   0.879   0.221 -1.0494 -0.3055 -0.6748
 4542TIP3   OH213631   4.068   3.201   0.686  0.4626  0.1583  0.2049
 4542TIP3    H113632   4.148   3.169   0.728 -0.1176  0.2251  1.4137
 4542TIP3    H213633   4.037   3.127   0.634 -0.0687 -0.7982  1.7966
 4543TIP3   OH213634   0.621   0.107   2.053  0.1056 -0.3083 -0.3474
 4543TIP3    H113635   0.707   0.137   2.080 -0.3058 -1.6367  3.0203
 4543TIP3    H213636   0.638   0.040   1.987  1.6029 -0.0990 -0.1954
 4544TIP3   OH213637   1.503   1.986   4.124 -0.2295 -0.0402  0.1194
 4544TIP3    H113638   1.584   2.033   4.102 -0.6390  0.6777  0.1363
 4544TIP3    H213639   1.433   2.050   4.111 -0.8554 -0.8224 -0.4470
 4545TIP3   OH213640   5.199   5.962   2.321  0.3595 -0.2183 -0.1033
 4545TIP3    H113641   5.139   5.889   2.336  0.0462 -0.2370 -1.3322
 4545TIP3    H213642   5.278   5.940   2.371  0.0470 -1.0976  0.0126
 4546TIP3   OH213643   0.348   0.613   0.574  0.0839  0.7748  0.2596
 4546TIP3    H113644   0.342   0.705   0.599  0.4753  0.6410  0.8706
 4546TIP3    H213645   0.295   0.606   0.495 -0.1522  1.4731  0.3500
 4547TIP3   OH213646   1.882   0.903   3.305 -0.0864 -0.8043 -0.1506
 4547TIP3    H113647   1.876   0.920   3.399 -0.9595 -1.0721 -0.1533
 4547TIP3    H213648   1.814   0.839   3.288 -0.2378 -0.4144 -1.0513
 4548TIP3   OH213649   0.968   2.366   2.780  0.0464  0.3603  0.3563
 4548TIP3    H113650   0.903   2.346   2.712  0.3144 -0.4463  0.3272
 4548TIP3    H213651   0.925   2.345   2.862  1.4605 -4.0227  0.2275
 4549TIP3   OH213652   4.872   1.472   2.392 -0.6101 -0.2369  0.1170
 4549TIP3    H113653   4.800   1.431   2.441 -0.6486  0.4512  0.6552
 4549TIP3    H213654   4.847   1.564   2.385 -0.2677 -0.1918 -0.5981
 4550TIP3   OH213655   3.963   3.946   0.970  0.0303 -0.1241  0.2206
 4550TIP3    H113656   4.030   3.886   0.938  0.9834  0.9222  0.1943
 4550TIP3    H213657   3.904   3.959   0.895  0.8084  0.3256 -0.3256
 4551TIP3   OH213658   3.452   4.433   4.469 -0.3469  0.6494  0.6975
 4551TIP3    H113659   3.504   4.389   4.536  1.3445 -0.6026 -1.3196
 4551TIP3    H213660   3.362   4.408   4.488  0.1744 -0.2506  2.0686
 4552TIP3   OH213661   3.562   3.145   5.132  0.0265  0.4395  0.2724
 4552TIP3    H113662   3.566   3.106   5.045 -1.3033  0.4886  0.1691
 4552TIP3    H213663   3.635   3.105   5.180  2.5994  2.4616 -1.6429
 4553TIP3   OH213664   3.734   2.142   2.178  0.0462 -0.2766 -0.0334
 4553TIP3    H113665   3.734   2.231   2.144  0.6401  0.2252  1.2175
 4553TIP3    H213666   3.764   2.088   2.105  0.2060  0.6047 -0.6355
 4554TIP3   OH213667   2.711   2.031   0.164 -0.3224  0.3299  0.1027
 4554TIP3    H113668   2.667   2.011   0.246  0.7086  0.1715  0.6279
 4554TIP3    H213669   2.743   2.121   0.175  0.6643 -0.0377  0.2579
 4555TIP3   OH213670   3.987   2.431   4.558  0.6117 -0.0495 -0.5001
 4555TIP3    H113671   3.895   2.409   4.569  1.2539 -2.2616  1.3389
 4555TIP3    H213672   4.016   2.380   4.482  0.3603  0.5684 -1.0164
 4556TIP3   OH213673   1.686   1.183   5.017 -0.3508  0.0499 -0.4294
 4556TIP3    H113674   1.703   1.258   5.074  1.8435  0.2684 -1.2583
 4556TIP3    H213675   1.594   1.163   5.030 -0.5904  1.8476  1.0548
 4557TIP3   OH213676   4.544   2.271   2.286 -0.1291 -0.4553 -0.3410
 4557TIP3    H113677   4.590   2.349   2.256  0.9895 -0.9523  0.0429
 4557TIP3    H213678   4.540   2.281   2.381 -0.6456 -0.5174 -0.3535
 4558TIP3   OH213679   5.228   3.773   3.225  0.2098 -0.6253 -0.3015
 4558TIP3    H113680   5.288   3.847   3.215  0.2670 -0.6534 -0.1759
 4558TIP3    H213681   5.236   3.748   3.317  0.4015 -0.9692 -0.4102
 4559TIP3   OH213682   6.286   0.349   3.813 -0.2212  0.0842 -0.0602
 4559TIP3    H113683   6.354   0.308   3.866 -0.1275  0.1544 -0.1270
 4559TIP3    H213684   6.256   0.280   3.754 -0.5659 -0.0977  0.3129
 4560TIP3   OH213685   0.385   4.725   0.373  0.1790  0.1671  0.2316
 4560TIP3    H113686   0.403   4.641   0.416 -0.2090  0.2633  0.5896
 4560TIP3    H213687   0.468   4.748   0.330  0.0576 -0.7931 -0.5610
 4561TIP3   OH213688   0.590   3.887   2.219 -0.0656 -0.4765 -0.2065
 4561TIP3    H113689   0.629   3.803   2.244 -1.7971 -0.8408  1.4926
 4561TIP3    H213690   0.606   3.944   2.294 -3.4149 -0.9083  1.0287
 4562TIP3   OH213691   1.950   2.807   2.816 -0.0006  0.7057 -0.5430
 4562TIP3    H113692   2.024   2.749   2.800 -1.5026 -2.4696  2.6871
 4562TIP3    H213693   1.886   2.783   2.748  1.1968  2.3922 -2.3882
 4563TIP3   OH213694   4.845   1.963   1.402 -0.1701  0.0501  0.6053
 4563TIP3    H113695   4.914   2.001   1.456  1.3827 -0.1854 -1.1057
 4563TIP3    H213696   4.887   1.889   1.357 -1.8574 -0.8241  0.3728
 4564TIP3   OH213697   5.642   5.752   2.930 -0.2017  0.0056 -0.0763
 4564TIP3    H113698   5.678   5.664   2.922  0.5243  0.1575  1.2079
 4564TIP3    H213699   5.618   5.760   3.022 -1.9038  0.5573 -0.5362
 4565TIP3   OH213700   0.247   3.875   3.675  0.2847 -0.7213  0.3809
 4565TIP3    H113701   0.227   3.968   3.667 -1.8058 -1.0952  0.8241
 4565TIP3    H213702   0.278   3.850   3.588  1.2268  0.4463  0.3581
 4566TIP3   OH213703   2.536   2.613   0.189 -0.5257 -0.6035  0.0487
 4566TIP3    H113704   2.456   2.632   0.140 -0.0879  0.1449 -0.3965
 4566TIP3    H213705   2.508   2.605   0.280 -0.8108  1.9326  0.2372
 4567TIP3   OH213706   4.206   5.316   3.137  0.0287 -0.3430  0.7823
 4567TIP3    H113707   4.203   5.342   3.045  1.3835 -0.2060  0.7637
 4567TIP3    H213708   4.178   5.394   3.185 -3.7396 -1.2657  0.4410
 4568TIP3   OH213709   2.322   1.868   5.086  0.3940  0.3715  0.2667
 4568TIP3    H113710   2.293   1.780   5.109 -0.8391  0.8437  0.6087
 4568TIP3    H213711   2.244   1.910   5.048  0.7241  1.5682  0.8599
 4569TIP3   OH213712   3.994   2.935   2.448 -0.0554  0.1639 -0.1285
 4569TIP3    H113713   3.986   3.030   2.438 -0.1138  0.1027 -0.7101
 4569TIP3    H213714   4.075   2.913   2.401  0.4246  0.0327  0.7381
 4570TIP3   OH213715   5.406   3.700   4.194 -0.2765  0.3553  0.0881
 4570TIP3    H113716   5.369   3.700   4.106 -2.3804  0.7939  0.8984
 4570TIP3    H213717   5.485   3.754   4.188 -0.8565  1.0805 -1.3443
 4571TIP3   OH213718   0.093   5.122   1.513  0.1035 -0.7228 -0.2723
 4571TIP3    H113719   0.179   5.112   1.474  0.6148  1.2889  0.2279
 4571TIP3    H213720   0.032   5.094   1.445  1.0704  0.1117 -1.5314
 4572TIP3   OH213721   3.999   0.452   4.394  0.2250 -0.9594  0.1951
 4572TIP3    H113722   3.918   0.402   4.393 -0.7040  0.4506  0.8468
 4572TIP3    H213723   4.020   0.461   4.487  0.2652 -0.0118  0.1066
 4573TIP3   OH213724   1.050   4.466   2.688  0.7496 -0.1657  0.3262
 4573TIP3    H113725   1.041   4.375   2.660  0.8821  0.2417 -1.1289
 4573TIP3    H213726   1.130   4.497   2.645 -1.0723  1.5970 -2.0132
 4574TIP3   OH213727   5.247   5.234   1.189  0.0056 -0.4803  0.3456
 4574TIP3    H113728   5.266   5.239   1.095  0.5595 -1.7365  0.3766
 4574TIP3    H213729   5.315   5.287   1.230 -1.2644  1.5560 -0.0413
 4575TIP3   OH213730   1.388   2.824   1.143 -0.7305 -0.1267  0.6794
 4575TIP3    H113731   1.405   2.864   1.228  1.5439  0.4763  0.0189
 4575TIP3    H213732   1.422   2.735   1.151 -0.7194 -0.1404  0.4892
 4576TIP3   OH213733   5.910   5.914   1.419  0.4144  0.0307  0.1173
 4576TIP3    H113734   5.956   5.847   1.469  0.7841  1.1672  1.3611
 4576TIP3    H213735   5.879   5.869   1.341  1.9360 -1.2311  0.2024
 4577TIP3   OH213736   5.824   3.276   3.723  0.7163  0.1671 -0.0050
 4577TIP3    H113737   5.856   3.270   3.632  1.0060 -1.6461  0.1840
 4577TIP3    H213738   5.750   3.216   3.726  1.7577 -1.1026  1.3635
 4578TIP3   OH213739   1.008   3.891   2.433 -0.1392 -0.5466 -0.2249
 4578TIP3    H113740   1.026   3.962   2.371 -0.9436 -0.0198  0.1302
 4578TIP3    H213741   0.984   3.935   2.514  0.6355 -1.2350  0.3933
 4579TIP3   OH213742   3.199   3.449   4.096 -0.0124  0.0643 -0.0638
 4579TIP3    H113743   3.152   3.495   4.026 -0.7764  0.1635  0.4966
 4579TIP3    H213744   3.139   3.378   4.121  0.8148 -0.7727 -0.3857
 4580TIP3   OH213745   4.889   0.568   3.627  1.0210 -0.3590 -0.3467
 4580TIP3    H113746   4.976   0.577   3.666  1.2477  0.9998 -1.0768
 4580TIP3    H213747   4.869   0.655   3.593 -0.7411 -0.5813  0.0038
 4581TIP3   OH213748   3.866   5.503   4.087  0.0446 -0.2615  0.3258
 4581TIP3    H113749   3.958   5.500   4.111 -0.6179  0.4181  3.3885
 4581TIP3    H213750   3.851   5.593   4.060  0.0000  0.0793  1.4130
 4582TIP3   OH213751   5.667   2.542   0.515 -0.1561 -0.4311 -0.0384
 4582TIP3    H113752   5.750   2.587   0.499 -1.0870  0.7184 -2.1143
 4582TIP3    H213753   5.646   2.501   0.431 -2.2487  0.3471  0.0512
 4583TIP3   OH213754   3.738   1.679   0.142 -0.6226 -0.5260  0.3031
 4583TIP3    H113755   3.802   1.749   0.159 -0.7193 -0.9597  2.9936
 4583TIP3    H213756   3.662   1.725   0.105  0.0062  0.5058  0.2436
 4584TIP3   OH213757   1.136   5.705   4.935  0.6421 -0.3607  0.2269
 4584TIP3    H113758   1.208   5.739   4.882 -0.9740 -0.2104 -2.0155
 4584TIP3    H213759   1.109   5.779   4.989  0.7202  0.2757 -0.5805
 4585TIP3   OH213760   5.943   0.442   1.421 -0.0632  0.5451 -0.7306
 4585TIP3    H113761   6.036   0.443   1.397  0.1698  2.1890  0.0912
 4585TIP3    H213762   5.900   0.400   1.346  1.5385 -2.4276 -0.1335
 4586TIP3   OH213763   1.193   2.139   0.806 -0.1592  0.1172  0.4221
 4586TIP3    H113764   1.184   2.081   0.882  2.0050 -1.4863 -0.4304
 4586TIP3    H213765   1.275   2.185   0.821 -2.0765  3.6492  1.3646
 4587TIP3   OH213766   2.057   0.460   2.238 -0.2107 -0.0179 -0.6362
 4587TIP3    H113767   2.039   0.544   2.281 -1.9521 -0.9853  0.6301
 4587TIP3    H213768   2.015   0.467   2.153  0.1064  0.5627 -0.7523
 4588TIP3   OH213769   5.789   5.762   2.315 -0.3499  0.4314  0.0218
 4588TIP3    H113770   5.724   5.692   2.318  1.0982 -0.9603  0.4520
 4588TIP3    H213771   5.760   5.824   2.382 -0.3103 -1.0462  1.4708
 4589TIP3   OH213772   2.669   0.489   2.225  0.4446 -0.5336 -0.9189
 4589TIP3    H113773   2.643   0.435   2.150 -0.2420 -1.0972 -0.2888
 4589TIP3    H213774   2.761   0.510   2.208  0.3574 -0.8277 -1.8166
 4590TIP3   OH213775   3.546   3.560   1.751 -0.8231 -0.3790  0.6755
 4590TIP3    H113776   3.554   3.575   1.845 -3.7445 -1.9808  1.3086
 4590TIP3    H213777   3.486   3.628   1.720 -1.4938 -1.0747  0.4067
 4591TIP3   OH213778   2.309   3.217   4.478  0.0059 -1.1177 -0.3719
 4591TIP3    H113779   2.319   3.197   4.571  3.4816 -1.1214 -0.5834
 4591TIP3    H213780   2.281   3.135   4.438  1.5221 -2.0353  0.3466
 4592TIP3   OH213781   1.525   2.373   1.333  0.4598  0.4378  0.2981
 4592TIP3    H113782   1.550   2.313   1.403 -0.7181  0.6512  0.9283
 4592TIP3    H213783   1.435   2.397   1.353  0.3412  1.0767 -0.8986
 4593TIP3   OH213784   0.567   5.452   1.009 -0.6038  0.3949  0.4618
 4593TIP3    H113785   0.572   5.544   1.035 -1.1073  0.8182 -0.8704
 4593TIP3    H213786   0.474   5.430   1.017 -0.4913  0.0157  0.7259
 4594TIP3   OH213787   1.433   0.399   1.448 -0.7374 -0.1447  0.0485
 4594TIP3    H113788   1.450   0.493   1.451 -0.8615 -0.1503  1.5437
 4594TIP3    H213789   1.482   0.369   1.371  0.0192  0.9976  0.0536
 4595TIP3   OH213790   0.562   3.904   3.992 -0.6635  0.2603  0.1187
 4595TIP3    H113791   0.514   3.983   4.018  0.7964  0.7992  1.3033
 4595TIP3    H213792   0.521   3.834   4.043 -1.8970  0.2399 -0.8568
 4596TIP3   OH213793   1.250   0.362   2.741  0.1414 -0.1093 -0.0709
 4596TIP3    H113794   1.298   0.349   2.822 -0.2571 -0.5241  0.0998
 4596TIP3    H213795   1.222   0.274   2.715 -0.8238  0.1594  0.0218
 4597TIP3   OH213796   4.796   3.802   2.784  0.6196  0.2057  0.2103
 4597TIP3    H113797   4.793   3.761   2.870 -0.6556 -1.1813 -0.4403
 4597TIP3    H213798   4.778   3.731   2.723  0.9934  1.2522 -1.1769
 4598TIP3   OH213799   4.903   2.198   4.181 -0.0465  0.6677  0.1639
 4598TIP3    H113800   4.821   2.227   4.222 -1.7565 -1.5101 -1.4817
 4598TIP3    H213801   4.898   2.229   4.091  1.6746  1.7586  0.4046
 4599TIP3   OH213802   5.210   2.982   2.595 -0.0345  0.1572  0.0778
 4599TIP3    H113803   5.291   3.033   2.599  0.9767 -1.3663 -0.1573
 4599TIP3    H213804   5.174   3.001   2.508 -0.0448  0.9758  0.2487
 4600TIP3   OH213805   4.764   4.584   4.231  0.1170  0.2227  0.0511
 4600TIP3    H113806   4.723   4.670   4.229  0.3287  0.3441  0.6750
 4600TIP3    H213807   4.692   4.523   4.246 -0.1191  0.2184 -0.9890
 4601TIP3   OH213808   5.112   1.309   4.013 -0.0977  0.7455 -0.0024
 4601TIP3    H113809   5.063   1.323   4.095 -1.3963 -2.1838 -0.1535
 4601TIP3    H213810   5.172   1.383   4.009 -0.5042  1.4310  3.2233
 4602TIP3   OH213811   5.110   0.200   1.635  0.6593 -0.6315  0.5555
 4602TIP3    H113812   5.030   0.174   1.681  1.1941 -3.2527  0.1731
 4602TIP3    H213813   5.113   0.295   1.644 -2.1318 -0.5089  1.1516
 4603TIP3   OH213814   2.396   3.643   2.828  0.0756 -0.0862  0.2513
 4603TIP3    H113815   2.343   3.573   2.790 -0.5111  0.5794 -0.1697
 4603TIP3    H213816   2.422   3.697   2.754 -1.1989  1.3123  0.7773
 4604TIP3   OH213817   6.183   4.169   4.687  0.9178 -0.2083  0.5076
 4604TIP3    H113818   6.197   4.229   4.761  1.0435  0.0770  0.2561
 4604TIP3    H213819   6.180   4.226   4.610  0.3492 -0.4604  0.3361
 4605TIP3   OH213820   1.476   2.183   0.219  0.1247  0.0139  0.0052
 4605TIP3    H113821   1.563   2.172   0.257  1.1839  3.7020 -0.9244
 4605TIP3    H213822   1.421   2.211   0.292  0.0102 -1.0599  0.3455
 4606TIP3   OH213823   0.426   0.293   2.017  0.5032  0.9655 -0.0374
 4606TIP3    H113824   0.416   0.281   1.922 -1.2546  0.1603  0.2200
 4606TIP3    H213825   0.492   0.228   2.042 -0.3312 -0.0658 -0.4515
 4607TIP3   OH213826   3.005   5.101   1.038  0.3391 -0.4255  0.4034
 4607TIP3    H113827   3.019   5.013   1.074  0.8671 -0.2608  0.6038
 4607TIP3    H213828   2.915   5.099   1.005  0.9089 -1.6004 -1.2180
 4608TIP3   OH213829   1.188   3.263   1.815  0.4503 -0.1174 -0.3065
 4608TIP3    H113830   1.219   3.177   1.842  0.6384  0.0591  0.0505
 4608TIP3    H213831   1.095   3.264   1.836  0.2392 -0.5685 -1.1751
 4609TIP3   OH213832   2.099   1.749   4.090  0.4047 -0.2622  0.3183
 4609TIP3    H113833   2.125   1.821   4.148  0.7412  0.1264 -0.2944
 4609TIP3    H213834   2.182   1.709   4.063  0.2794 -0.2118 -0.1646
 4610TIP3   OH213835   5.342   5.869   2.053  0.4812  0.5158 -0.5079
 4610TIP3    H113836   5.307   5.790   2.094  0.2289  0.4596 -0.8286
 4610TIP3    H213837   5.411   5.898   2.113  0.1296  0.4257 -0.0555
 4611TIP3   OH213838   1.757   1.267   1.200  0.4078  0.3442 -0.7104
 4611TIP3    H113839   1.689   1.323   1.237  1.0986  0.4511  0.4623
 4611TIP3    H213840   1.810   1.240   1.276  1.8641  0.5327 -1.6063
 4612TIP3   OH213841   3.246   1.582   4.615  0.5081  0.4028 -0.1850
 4612TIP3    H113842   3.296   1.587   4.534  0.3609  0.4182 -0.2759
 4612TIP3    H213843   3.267   1.663   4.661 -1.0670  1.4335 -1.1831
 4613TIP3   OH213844   1.493   2.906   1.395 -0.2523 -0.0622 -0.2927
 4613TIP3    H113845   1.505   2.899   1.490 -1.8361  0.6290 -0.0006
 4613TIP3    H213846   1.497   3.000   1.378  1.2105 -0.2436 -1.1250
 4614TIP3   OH213847   0.827   1.308   3.780 -0.0304  0.3871 -0.1314
 4614TIP3    H113848   0.743   1.351   3.797 -0.4739 -0.8653  0.9771
 4614TIP3    H213849   0.857   1.280   3.867  0.2037 -1.6001 -0.8202
 4615TIP3   OH213850   5.117   1.517   1.742 -0.5552 -0.7500 -0.6315
 4615TIP3    H113851   5.175   1.465   1.799  0.2278 -1.4322 -1.9948
 4615TIP3    H213852   5.133   1.482   1.655 -1.1593  0.7897 -1.3865
 4616TIP3   OH213853   1.724   3.315   1.265 -0.0688  0.0811  0.3887
 4616TIP3    H113854   1.755   3.239   1.313  2.3598  0.6990 -0.0624
 4616TIP3    H213855   1.648   3.346   1.314 -2.7021 -3.8984 -0.6766
 4617TIP3   OH213856   2.551   2.568   4.551 -0.3978 -0.3880  0.1378
 4617TIP3    H113857   2.484   2.589   4.616 -0.8278  1.6421 -0.8676
 4617TIP3    H213858   2.618   2.636   4.563  1.0738 -1.8349  0.5083
 4618TIP3   OH213859   1.692   3.110   3.509 -0.1052  0.0210 -0.1796
 4618TIP3    H113860   1.604   3.121   3.474  0.7945 -0.2678 -2.7722
 4618TIP3    H213861   1.700   3.016   3.525 -0.3243  0.0697  0.2134
 4619TIP3   OH213862   1.332   2.581   4.889  0.2285  0.1793  0.4611
 4619TIP3    H113863   1.336   2.661   4.837  0.5549  0.2124  0.5336
 4619TIP3    H213864   1.422   2.568   4.921  0.3857 -0.6993 -0.2882
 4620TIP3   OH213865   3.775   1.201   3.868  0.0460  0.3136  0.6559
 4620TIP3    H113866   3.799   1.287   3.901  0.0634  0.3264  0.6100
 4620TIP3    H213867   3.797   1.203   3.775 -0.5448  0.4724  0.5162
 4621TIP3   OH213868   5.829   2.966   2.910 -0.5006  0.2617 -0.3781
 4621TIP3    H113869   5.748   2.929   2.943  0.3176 -1.0109  0.2972
 4621TIP3    H213870   5.812   3.060   2.904 -1.8323  0.0801  0.2758
 4622TIP3   OH213871   4.977   4.581   3.310 -0.2967 -0.7486 -0.0428
 4622TIP3    H113872   5.020   4.640   3.249 -1.0651 -1.1710 -1.0165
 4622TIP3    H213873   4.921   4.526   3.255 -0.5523 -1.5395  0.9773
 4623TIP3   OH213874   3.263   4.473   1.277 -0.7284 -0.2235 -0.2129
 4623TIP3    H113875   3.324   4.444   1.208 -0.5170 -0.1533 -0.0576
 4623TIP3    H213876   3.286   4.419   1.352 -0.1949  0.4760  0.1409
 4624TIP3   OH213877   5.055   4.216   3.250  0.5142  0.2655  0.7917
 4624TIP3    H113878   4.971   4.222   3.295 -0.0490 -0.6339 -0.1116
 4624TIP3    H213879   5.096   4.301   3.264 -2.3366  2.3512 -2.2642
 4625TIP3   OH213880   3.009   5.397   4.982  0.0581  0.3711  0.1697
 4625TIP3    H113881   2.987   5.310   4.949 -3.0775  0.7434  0.9849
 4625TIP3    H213882   3.057   5.380   5.063  1.3013 -0.5368 -0.7110
 4626TIP3   OH213883   5.959   2.396   3.613  0.0788  0.3301  0.1449
 4626TIP3    H113884   5.897   2.340   3.566  0.1317  0.6395 -0.3002
 4626TIP3    H213885   5.990   2.341   3.685  1.5165 -0.9314 -1.3189
 4627TIP3   OH213886   0.135   3.641   0.607  0.3896 -0.0262 -0.3982
 4627TIP3    H113887   0.218   3.689   0.607  0.5013 -0.1264  1.3736
 4627TIP3    H213888   0.103   3.647   0.517  1.6045  1.2518 -0.7796
 4628TIP3   OH213889   0.498   1.742   4.912 -0.0111 -0.1911 -0.2446
 4628TIP3    H113890   0.461   1.830   4.917  0.5863  0.1363 -1.2123
 4628TIP3    H213891   0.571   1.751   4.850  1.7242 -0.7884  1.6064
 4629TIP3   OH213892   3.609   1.632   2.299 -0.9602 -0.0406 -0.0899
 4629TIP3    H113893   3.671   1.672   2.361 -1.5769 -0.6282  0.9374
 4629TIP3    H213894   3.543   1.700   2.285  0.6118  1.1444 -2.3347
 4630TIP3   OH213895   2.140   4.482   4.453  0.4984  0.0108  0.1558
 4630TIP3    H113896   2.225   4.487   4.496  0.8943 -2.9935 -0.0750
 4630TIP3    H213897   2.158   4.441   4.368 -1.0854  0.0050 -0.2150
 4631TIP3   OH213898   1.202   4.068   0.392  0.1910 -0.0215 -0.3267
 4631TIP3    H113899   1.135   4.118   0.346  0.6283  0.8605 -0.0248
 4631TIP3    H213900   1.154   3.998   0.436 -0.3209 -0.4263 -1.4946
 4632TIP3   OH213901   1.669   4.772   3.806 -0.0376 -0.0917 -0.4140
 4632TIP3    H113902   1.672   4.759   3.711 -0.7320  0.8549 -0.5868
 4632TIP3    H213903   1.579   4.751   3.830  0.2865 -0.9016  0.1409
 4633TIP3   OH213904   1.699   1.857   2.251  0.9780  0.1593  0.1576
 4633TIP3    H113905   1.687   1.787   2.186 -0.0526  1.8629 -1.6029
 4633TIP3    H213906   1.610   1.885   2.272  1.3815  1.5908  0.0499
 4634TIP3   OH213907   4.843   1.401   0.580 -0.8234 -0.3170  0.0379
 4634TIP3    H113908   4.938   1.413   0.574 -0.9080  0.0421 -0.6806
 4634TIP3    H213909   4.832   1.312   0.613 -0.2166  0.3710  2.2910
 4635TIP3   OH213910   4.673   1.869   0.704 -0.5154  0.6838  0.2165
 4635TIP3    H113911   4.757   1.851   0.746 -1.1959 -0.5938  1.0816
 4635TIP3    H213912   4.672   1.964   0.693  1.0243  0.7278  0.1993
 4636TIP3   OH213913   0.911   3.858   3.635 -0.2684 -0.0547  0.0010
 4636TIP3    H113914   0.978   3.909   3.680 -0.0572  2.6485 -3.0485
 4636TIP3    H213915   0.831   3.876   3.685  0.5198 -0.0322  1.3145
 4637TIP3   OH213916   0.076   4.387   5.134  0.0164 -0.7311  0.3629
 4637TIP3    H113917   0.050   4.306   5.178  0.5267 -1.4188 -0.5809
 4637TIP3    H213918   0.152   4.363   5.081  1.3504  0.7935  1.4850
 4638TIP3   OH213919   1.736   4.917   0.669 -0.0492 -0.4044  0.4532
 4638TIP3    H113920   1.794   4.893   0.741 -0.1639  2.7820  1.7826
 4638TIP3    H213921   1.658   4.951   0.712 -0.4622  0.8025 -1.1781
 4639TIP3   OH213922   1.808   2.646   3.026 -0.4591 -0.3275  0.0474
 4639TIP3    H113923   1.833   2.675   2.938 -0.2725  0.2770  0.2972
 4639TIP3    H213924   1.890   2.642   3.074 -0.6020 -0.3011  0.2953
 4640TIP3   OH213925   1.379   5.515   3.890 -0.2279 -0.0329 -0.5258
 4640TIP3    H113926   1.457   5.462   3.911 -0.6126 -1.4826 -2.3882
 4640TIP3    H213927   1.308   5.451   3.885 -0.8534  0.7399 -2.1863
 4641TIP3   OH213928   6.109   1.400   4.045  0.3022 -0.0462  0.0546
 4641TIP3    H113929   6.198   1.434   4.035  0.1357  0.4086  0.1175
 4641TIP3    H213930   6.054   1.477   4.054 -0.3063 -0.2458 -1.5263
 4642TIP3   OH213931   2.954   1.779   4.401  0.1008  0.0535  0.2289
 4642TIP3    H113932   2.883   1.841   4.422  0.3179 -0.1397  1.6605
 4642TIP3    H213933   2.987   1.808   4.317 -0.4453  1.3056  0.4183
 4643TIP3   OH213934   4.491   3.840   3.534 -0.1932 -0.0321  0.1846
 4643TIP3    H113935   4.450   3.757   3.513 -2.8738  1.1353  0.4658
 4643TIP3    H213936   4.469   3.897   3.460  0.7979  0.7032  0.4347
 4644TIP3   OH213937   5.656   5.652   2.003 -0.2709 -0.2748 -0.4748
 4644TIP3    H113938   5.672   5.743   1.978  0.8901 -0.5015 -0.6144
 4644TIP3    H213939   5.662   5.603   1.922 -0.3209 -0.5499 -0.3134
 4645TIP3   OH213940   5.028   5.245   4.420  0.0530  0.1353  0.2731
 4645TIP3    H113941   4.997   5.277   4.504 -1.2023 -0.2144 -0.0377
 4645TIP3    H213942   5.007   5.314   4.358  1.6258  0.7056  0.3295
 4646TIP3   OH213943   3.485   4.984   2.895 -0.1092 -0.0440 -0.4225
 4646TIP3    H113944   3.484   4.926   2.819  1.6938 -0.2101 -0.3510
 4646TIP3    H213945   3.432   4.939   2.961 -0.4775 -0.5821 -1.0737
 4647TIP3   OH213946   2.207   3.475   4.471  0.2369  0.8264  0.5114
 4647TIP3    H113947   2.234   3.383   4.467  0.4819  0.9083  0.2007
 4647TIP3    H213948   2.176   3.488   4.560  1.7236  0.8732  1.0439
 4648TIP3   OH213949   0.260   4.977   0.295  0.7415  0.0370  0.2451
 4648TIP3    H113950   0.331   4.912   0.290  1.4889  0.7834  0.9735
 4648TIP3    H213951   0.180   4.924   0.294  1.3015 -0.8368 -0.2734
 4649TIP3   OH213952   5.475   0.995   0.204 -0.2944  0.4585  0.3938
 4649TIP3    H113953   5.412   1.063   0.228 -2.6754 -1.0150 -1.2764
 4649TIP3    H213954   5.485   1.004   0.109 -1.1555 -1.8391  0.0330
 4650TIP3   OH213955   4.819   3.833   1.251 -0.3581 -0.2211 -0.3551
 4650TIP3    H113956   4.887   3.834   1.183 -0.5923  1.5706 -0.5995
 4650TIP3    H213957   4.740   3.864   1.207 -0.8822 -0.4315  0.4051
 4651TIP3   OH213958   4.552   0.201   3.231 -0.3818 -0.3532 -0.0840
 4651TIP3    H113959   4.524   0.251   3.308  1.1834  2.0488 -0.9322
 4651TIP3    H213960   4.519   0.252   3.157  0.6416 -0.9801 -1.0006
 4652TIP3   OH213961   6.003   2.299   3.311  0.1148 -0.0648  0.2802
 4652TIP3    H113962   6.047   2.363   3.255  0.8956 -0.1170  0.8133
 4652TIP3    H213963   6.074   2.243   3.343 -0.4601 -0.7217  0.4366
 4653TIP3   OH213964   5.675   0.165   3.187  0.1626 -0.1052  0.3572
 4653TIP3    H113965   5.669   0.203   3.275 -1.0057 -0.8752  0.6322
 4653TIP3    H213966   5.684   0.241   3.129  1.2099  0.4002  1.1510
 4654TIP3   OH213967   5.072   2.668   0.371  0.1725  0.4835  0.0476
 4654TIP3    H113968   5.077   2.661   0.466 -0.6136  0.7569  0.1176
 4654TIP3    H213969   4.979   2.683   0.353  0.3049  0.3691 -0.7670
 4655TIP3   OH213970   0.257   2.255   0.303  0.1161 -0.5373 -0.0210
 4655TIP3    H113971   0.328   2.316   0.283 -0.7184  0.1037 -1.1191
 4655TIP3    H213972   0.182   2.288   0.255 -1.3984 -0.3145  2.3136
 4656TIP3   OH213973   3.852   4.515   2.485  0.2183 -0.3197  0.0996
 4656TIP3    H113974   3.851   4.419   2.491 -0.5765 -0.3126  0.1625
 4656TIP3    H213975   3.943   4.537   2.467  0.3622 -1.1038 -0.1451
 4657TIP3   OH213976   0.815   3.023   5.070  0.0281  1.2058 -0.4517
 4657TIP3    H113977   0.876   2.950   5.078 -0.4202  0.5818 -2.3277
 4657TIP3    H213978   0.853   3.080   5.003  0.2018  2.5774  0.7367
 4658TIP3   OH213979   2.553   1.455   2.161  0.0383 -0.0359 -0.2109
 4658TIP3    H113980   2.596   1.473   2.245  0.7068 -1.4169 -0.2196
 4658TIP3    H213981   2.618   1.481   2.095 -1.2916  3.1146 -0.4439
 4659TIP3   OH213982   2.744   3.671   4.441 -0.0338 -0.6475  0.3322
 4659TIP3    H113983   2.737   3.618   4.521  1.2471  0.6002  1.3400
 4659TIP3    H213984   2.750   3.761   4.473  0.1974 -0.0907 -1.2028
 4660TIP3   OH213985   0.627   1.159   4.928 -0.0805 -0.5878 -0.4914
 4660TIP3    H113986   0.596   1.227   4.868 -1.3715  0.0452  0.8412
 4660TIP3    H213987   0.547   1.115   4.958  0.4539 -0.4223  1.2813
 4661TIP3   OH213988   6.019   3.728   1.930  0.4859  0.2552  0.1415
 4661TIP3    H113989   6.103   3.770   1.911  0.0909  0.8508 -0.2966
 4661TIP3    H213990   5.953   3.793   1.907 -0.1186 -0.3954 -0.0049
 4662TIP3   OH213991   3.697   1.006   3.079 -0.1580 -0.2309 -0.4705
 4662TIP3    H113992   3.701   1.088   3.030  1.9972  0.5415  0.8515
 4662TIP3    H213993   3.772   0.955   3.048  0.8637 -0.0022  1.4751
 4663TIP3   OH213994   5.749   0.327   0.401 -0.3431 -0.2948 -0.2242
 4663TIP3    H113995   5.681   0.394   0.391 -1.1824 -1.0466  0.2591
 4663TIP3    H213996   5.831   0.376   0.403 -0.9950  0.8401  1.1291
 4664TIP3   OH213997   6.093   1.349   3.340 -0.7187  0.5551  0.0093
 4664TIP3    H113998   6.135   1.339   3.425 -1.6605 -0.5833  0.3715
 4664TIP3    H213999   6.006   1.384   3.360 -0.8447  0.5568 -0.5155
 4665TIP3   OH214000   3.416   5.600   4.536  0.1192  0.1724  0.5675
 4665TIP3    H114001   3.468   5.681   4.537  0.5286 -0.0851  0.3156
 4665TIP3    H214002   3.387   5.592   4.444  2.3147 -1.3767 -0.0574
 4666TIP3   OH214003   2.050   4.579   5.150 -0.0870  0.3413  0.7323
 4666TIP3    H114004   1.961   4.562   5.182  0.0036  0.6456  1.1541
 4666TIP3    H214005   2.089   4.492   5.143 -0.2129  0.2433  1.1661
 4667TIP3   OH214006   3.051   1.479   2.587 -0.0686  0.6696  0.3600
 4667TIP3    H114007   3.126   1.455   2.533  0.1010  1.2278  0.3415
 4667TIP3    H214008   3.032   1.400   2.638  0.3991  0.4589  0.2115
 4668TIP3   OH214009   1.334   2.422   4.446 -0.8614  0.1112 -0.3640
 4668TIP3    H114010   1.421   2.449   4.414 -1.5384  1.0885 -1.4636
 4668TIP3    H214011   1.338   2.327   4.447 -0.2621  0.0813 -1.9180
 4669TIP3   OH214012   4.942   2.064   2.357 -0.5827  0.1279 -0.1925
 4669TIP3    H114013   4.935   2.155   2.387 -1.3064  1.1935 -3.2007
 4669TIP3    H214014   4.851   2.036   2.344 -0.3351 -0.3804 -0.9141
 4670TIP3   OH214015   4.547   1.549   4.263  0.3022  0.1117 -0.2730
 4670TIP3    H114016   4.560   1.619   4.328 -0.6693 -0.6616  0.7912
 4670TIP3    H214017   4.452   1.536   4.261  0.3513 -0.0984 -1.6274
 4671TIP3   OH214018   3.330   0.212   1.469  0.0946 -0.5469  0.2183
 4671TIP3    H114019   3.320   0.307   1.483  1.0761 -0.3111 -0.5882
 4671TIP3    H214020   3.309   0.199   1.377  1.9672 -0.7875 -0.2166
 4672TIP3   OH214021   4.932   1.221   1.529  0.2548  0.3388 -0.2240
 4672TIP3    H114022   4.887   1.230   1.613 -0.0642 -0.4526 -0.3020
 4672TIP3    H214023   5.008   1.166   1.549  0.3960  0.4761 -0.3818
 4673TIP3   OH214024   4.712   2.928   3.289  0.4609 -0.1722 -0.0705
 4673TIP3    H114025   4.721   2.917   3.195 -2.5076  0.3862 -0.5058
 4673TIP3    H214026   4.737   2.842   3.325  3.9259  0.2649 -1.0326
 4674TIP3   OH214027   2.409   4.486   1.276  0.0206  0.0751 -0.0777
 4674TIP3    H114028   2.322   4.488   1.236  0.4964 -1.2641 -1.2678
 4674TIP3    H214029   2.470   4.491   1.202  0.9509 -0.1336  0.6490
 4675TIP3   OH214030   1.378   5.156   3.679 -0.4128 -0.3377  0.5589
 4675TIP3    H114031   1.319   5.107   3.737  0.8122 -1.8449  0.5950
 4675TIP3    H214032   1.355   5.127   3.591 -0.5969  0.0778  0.4659
 4676TIP3   OH214033   3.591   2.523   4.777  0.3460  0.2227 -0.2110
 4676TIP3    H114034   3.669   2.577   4.782  0.4927  0.2650 -2.2226
 4676TIP3    H214035   3.536   2.566   4.712 -1.5676  0.4091  1.4330
 4677TIP3   OH214036   4.604   4.745   0.432  0.1759  0.4625  0.0755
 4677TIP3    H114037   4.610   4.689   0.509  0.9584 -0.3928 -0.5884
 4677TIP3    H214038   4.510   4.748   0.412  0.1759 -1.2613 -0.3257
 4678TIP3   OH214039   2.343   0.685   2.988  0.9172 -0.5047 -0.4529
 4678TIP3    H114040   2.400   0.653   3.058  0.1396  1.1795  1.0529
 4678TIP3    H214041   2.272   0.729   3.034 -0.7411 -1.1037 -2.3054
 4679TIP3   OH214042   3.500   0.558   4.913  0.0217 -0.2654  0.4397
 4679TIP3    H114043   3.556   0.583   4.986  0.1616 -0.3994  0.3788
 4679TIP3    H214044   3.548   0.489   4.868 -0.1012 -0.2411  0.2687
 4680TIP3   OH214045   5.598   5.161   0.532 -0.0484  0.0354 -0.0093
 4680TIP3    H114046   5.666   5.206   0.481  1.3492  0.6636  2.2590
 4680TIP3    H214047   5.646   5.093   0.580 -0.6736  1.3430  2.6682
 4681TIP3   OH214048   1.349   4.247   4.322  0.2808 -0.1771  0.2036
 4681TIP3    H114049   1.307   4.161   4.331  0.7895 -0.2497  2.6302
 4681TIP3    H214050   1.440   4.231   4.348  0.2075  1.2047  1.4452
 4682TIP3   OH214051   5.259   3.503   0.434  0.7034  0.2034  0.3334
 4682TIP3    H114052   5.248   3.520   0.527  0.6203  1.1871  0.1542
 4682TIP3    H214053   5.180   3.457   0.408 -0.2902  1.8443  0.3146
 4683TIP3   OH214054   3.282   5.585   1.437 -0.1630  0.6505 -0.2267
 4683TIP3    H114055   3.283   5.677   1.409 -1.8491  0.3587 -1.3835
 4683TIP3    H214056   3.324   5.586   1.523  0.4477  2.4001 -0.5012
 4684TIP3   OH214057   5.516   1.818   3.725  0.4583 -0.0086  0.1817
 4684TIP3    H114058   5.580   1.794   3.659  0.0923  0.1137 -0.2187
 4684TIP3    H214059   5.454   1.875   3.680 -1.5214 -2.2799 -0.1781
 4685TIP3   OH214060   1.125   2.570   5.110  0.0184 -0.1272 -0.2516
 4685TIP3    H114061   1.184   2.600   5.041  0.8809  0.1029  0.5646
 4685TIP3    H214062   1.167   2.492   5.147 -1.0542 -1.0038 -0.7977
 4686TIP3   OH214063   2.025   5.536   4.640  0.2098  0.2407 -0.4988
 4686TIP3    H114064   2.042   5.510   4.731  0.3795  2.1278  0.0394
 4686TIP3    H214065   2.022   5.453   4.592 -0.8154 -0.8645  1.3714
 4687TIP3   OH214066   1.328   4.996   3.460 -0.0167 -0.5949 -0.1990
 4687TIP3    H114067   1.393   4.933   3.429 -0.5430 -2.0495  1.4542
 4687TIP3    H214068   1.244   4.957   3.437 -0.3475  0.3750 -0.6855
 4688TIP3   OH214069   4.161   5.355   2.874 -0.0651 -0.5710 -0.1795
 4688TIP3    H114070   4.167   5.420   2.804  2.3192 -0.4226  0.0705
 4688TIP3    H214071   4.099   5.289   2.841 -0.1655  0.2747 -1.7518
 4689TIP3   OH214072   1.319   0.523   3.930  0.3315  0.2425 -0.0331
 4689TIP3    H114073   1.310   0.606   3.882  0.9134 -0.1394 -0.8283
 4689TIP3    H214074   1.268   0.461   3.879  0.0676  0.0598  0.4493
 4690TIP3   OH214075   4.414   5.049   1.918  0.0736 -0.4116 -0.0749
 4690TIP3    H114076   4.495   5.100   1.918 -0.0458 -0.1650 -1.5589
 4690TIP3    H214077   4.385   5.049   2.009  0.0150  2.2888 -0.0193
 4691TIP3   OH214078   4.691   1.481   0.913  0.1937 -0.1232 -0.5668
 4691TIP3    H114079   4.731   1.545   0.854 -0.3625  1.4503  0.6862
 4691TIP3    H214080   4.754   1.410   0.917  1.3070  0.7838 -1.2549
 4692TIP3   OH214081   4.206   2.891   2.230  0.2102 -0.8894  0.4001
 4692TIP3    H114082   4.123   2.859   2.196 -0.5068  0.6571  0.6270
 4692TIP3    H214083   4.272   2.855   2.170 -0.5167 -2.7109  0.6270
 4693TIP3   OH214084   5.400   3.982   3.173 -0.1497 -0.3309 -0.0240
 4693TIP3    H114085   5.487   3.965   3.137  1.6053  2.2856  2.4874
 4693TIP3    H214086   5.365   4.052   3.118  0.3322  0.1671  0.2938
 4694TIP3   OH214087   2.850   1.677   1.265 -0.6004 -0.3618  0.7399
 4694TIP3    H114088   2.841   1.584   1.247  0.9481 -0.5216  0.7044
 4694TIP3    H214089   2.805   1.720   1.192 -0.4880 -1.0667  0.2446
 4695TIP3   OH214090   0.053   5.521   1.681  0.5725 -0.8059  0.9806
 4695TIP3    H114091   0.018   5.599   1.724  1.6162 -0.4863  1.2793
 4695TIP3    H214092  -0.012   5.500   1.614 -0.6651 -0.8061  2.1184
 4696TIP3   OH214093   4.015   3.269   1.992 -0.4509  1.0101 -0.4825
 4696TIP3    H114094   4.023   3.175   1.978 -1.7172  0.3618  2.3896
 4696TIP3    H214095   3.989   3.304   1.907 -0.6582 -1.3359 -1.4436
 4697TIP3   OH214096   4.975   1.954   0.535  0.2600 -0.2880 -0.0402
 4697TIP3    H114097   5.010   1.999   0.612  1.3692 -0.3520 -0.4932
 4697TIP3    H214098   4.885   1.985   0.528  1.2764  2.7864 -0.9884
 4698TIP3   OH214099   5.485   5.492   0.387  0.1168  0.4252  0.5822
 4698TIP3    H114100   5.450   5.505   0.299 -1.7857 -1.8244  0.9103
 4698TIP3    H214101   5.425   5.430   0.428  1.2998  0.9107  3.2774
 4699TIP3   OH214102   1.481   3.424   4.619 -0.1181  0.4679 -0.6584
 4699TIP3    H114103   1.537   3.347   4.615  0.0827  0.3977  1.8494
 4699TIP3    H214104   1.396   3.394   4.588 -0.0685 -0.8328  0.3860
 4700TIP3   OH214105   5.269   5.858   4.445 -0.1738 -0.7033 -0.0622
 4700TIP3    H114106   5.335   5.908   4.396 -0.8393  0.7934  0.5151
 4700TIP3    H214107   5.190   5.912   4.441 -0.9338 -1.7369  0.5677
 4701TIP3   OH214108   1.441   5.143   2.190 -0.6686  0.5775  0.2579
 4701TIP3    H114109   1.352   5.163   2.217 -0.7817 -0.0495  0.3662
 4701TIP3    H214110   1.463   5.211   2.126 -1.4727  0.3296 -0.2941
 4702TIP3   OH214111   4.358   1.501   4.977  0.5387  0.0483 -0.4516
 4702TIP3    H114112   4.389   1.422   5.021 -1.3618  0.2040  1.3287
 4702TIP3    H214113   4.422   1.568   4.997  1.0115 -0.5136 -0.0741
 4703TIP3   OH214114   3.826   3.553   3.795 -0.2745 -0.5603  0.3367
 4703TIP3    H114115   3.763   3.492   3.756 -0.9793  0.2090  0.2557
 4703TIP3    H214116   3.828   3.530   3.888  1.1415 -2.1670 -0.0175
 4704TIP3   OH214117   4.184   1.315   4.497 -0.2472  0.4526  0.5844
 4704TIP3    H114118   4.279   1.308   4.502 -0.2394  1.2888  3.6085
 4704TIP3    H214119   4.151   1.230   4.525 -0.4607 -0.0326 -1.0150
 4705TIP3   OH214120   4.892   0.613   2.489 -0.3223 -0.4457 -0.5228
 4705TIP3    H114121   4.970   0.615   2.434 -0.1615 -1.6540 -0.3697
 4705TIP3    H214122   4.830   0.558   2.441 -0.8464 -0.0193 -0.3422
 4706TIP3   OH214123   4.294   3.390   1.118 -0.0544 -0.3265  0.1333
 4706TIP3    H114124   4.215   3.385   1.173 -1.6486  1.6395 -1.7613
 4706TIP3    H214125   4.316   3.483   1.117  1.4198 -0.6576 -0.5758
 4707TIP3   OH214126   0.019   1.208   3.533 -0.4510  0.4960  0.4179
 4707TIP3    H114127   0.044   1.190   3.442 -2.1639  2.2614 -0.4615
 4707TIP3    H214128  -0.047   1.142   3.553 -0.0399  0.0759  0.4325
 4708TIP3   OH214129   5.252   4.028   3.396 -0.2689 -0.1912  0.2772
 4708TIP3    H114130   5.186   4.089   3.362  0.5062  0.7094  0.3365
 4708TIP3    H214131   5.308   4.008   3.320  1.3614  1.6883  0.8849
 4709TIP3   OH214132   5.947   3.921   3.482 -0.0125 -0.5302  0.0703
 4709TIP3    H114133   5.933   3.832   3.514 -0.0217 -0.4010  0.4344
 4709TIP3    H214134   5.886   3.975   3.533  0.2633 -0.2649  0.1242
 4710TIP3   OH214135   1.901   5.340   5.124  0.0646  0.1197 -0.2177
 4710TIP3    H114136   1.909   5.406   5.193 -1.2625 -0.1962  0.2616
 4710TIP3    H214137   1.823   5.290   5.147  1.0762 -1.6929 -0.5101
 4711TIP3   OH214138   1.864   1.574   2.132  0.0015  0.1894  0.3586
 4711TIP3    H114139   1.911   1.656   2.119  0.1877  0.1884  1.0309
 4711TIP3    H214140   1.779   1.588   2.088  0.9748 -0.1837 -1.7965
 4712TIP3   OH214141   1.375   5.371   3.462  0.2897  0.3330  0.0780
 4712TIP3    H114142   1.301   5.408   3.510  0.2533  0.1777  0.1413
 4712TIP3    H214143   1.436   5.343   3.530  0.7027  1.0584  0.0186
 4713TIP3   OH214144   5.410   3.899   2.600 -0.0090  0.9216 -0.5614
 4713TIP3    H114145   5.353   3.885   2.676 -0.7962  2.4257 -0.8347
 4713TIP3    H214146   5.356   3.948   2.539  0.7809  0.1479 -1.9172
 4714TIP3   OH214147   2.937   5.878   4.131 -0.6481  0.0234  0.0463
 4714TIP3    H114148   2.930   5.806   4.068 -0.4027  0.3899 -0.4049
 4714TIP3    H214149   3.024   5.915   4.115 -1.1182  0.9760 -0.3313
 4715TIP3   OH214150   5.158   4.710   3.889  0.0488 -0.4595 -0.6848
 4715TIP3    H114151   5.214   4.636   3.914  0.3916  0.0516  0.0918
 4715TIP3    H214152   5.216   4.786   3.892 -0.6723  0.0874  0.1639
 4716TIP3   OH214153   4.559   3.390   0.710  0.2527 -0.0859 -0.1064
 4716TIP3    H114154   4.489   3.344   0.755  0.9041  0.3833  1.4535
 4716TIP3    H214155   4.581   3.334   0.635 -2.0097 -0.0486 -0.8759
 4717TIP3   OH214156   4.210   0.881   2.240 -0.4363 -0.1620  0.8997
 4717TIP3    H114157   4.300   0.861   2.265  0.3387  0.8173 -0.9329
 4717TIP3    H214158   4.196   0.833   2.159 -1.3993  0.0905  0.9000
 4718TIP3   OH214159   2.317   1.362   1.884  0.6406 -0.2516 -0.0439
 4718TIP3    H114160   2.340   1.451   1.856 -1.4123  0.7330  1.1540
 4718TIP3    H214161   2.234   1.344   1.839 -0.6186 -0.2276  2.1574
 4719TIP3   OH214162   5.524   1.236   4.858 -0.2849 -0.0403  0.4887
 4719TIP3    H114163   5.585   1.303   4.828 -1.0894  1.3441  1.8466
 4719TIP3    H214164   5.558   1.154   4.820  1.0153  1.0261 -0.7545
 4720TIP3   OH214165   1.169   4.784   4.099 -0.2509  0.7335 -0.8925
 4720TIP3    H114166   1.073   4.781   4.096 -0.2565  0.4512 -0.4497
 4720TIP3    H214167   1.189   4.843   4.172 -0.0862 -0.2967 -0.0966
 4721TIP3   OH214168   3.394   1.064   3.569 -0.3908  0.5153 -0.5792
 4721TIP3    H114169   3.382   1.052   3.663 -0.1172  1.4595 -0.4129
 4721TIP3    H214170   3.474   1.117   3.562 -0.0805 -0.0318 -1.3690
 4722TIP3   OH214171   0.927   4.919   2.250 -0.3781 -0.7260 -0.8281
 4722TIP3    H114172   0.945   4.975   2.174 -2.2337  1.6814  0.3670
 4722TIP3    H214173   0.893   4.838   2.212 -2.3750  0.8286 -2.6670
 4723TIP3   OH214174   0.716   0.301   5.056  0.5379  0.1089 -0.5767
 4723TIP3    H114175   0.715   0.253   5.140 -0.7952 -0.3760 -0.8367
 4723TIP3    H214176   0.782   0.369   5.068  1.3072 -0.7743  0.4017
 4724TIP3   OH214177   4.767   5.335   1.360  0.1372  0.1657 -0.0400
 4724TIP3    H114178   4.832   5.317   1.293 -1.2283  0.6449 -1.5543
 4724TIP3    H214179   4.721   5.413   1.328 -1.9302 -0.8317  0.3880
 4725TIP3   OH214180   5.759   0.968   4.058  0.0420 -0.0112 -0.1569
 4725TIP3    H114181   5.741   1.027   3.985 -0.0228 -0.1641 -0.2658
 4725TIP3    H214182   5.841   0.926   4.035  0.3292  0.3829  0.1446
 4726TIP3   OH214183   0.057   5.080   4.344 -0.1285  0.3032 -0.2727
 4726TIP3    H114184  -0.001   5.004   4.344 -0.0845  0.2653  0.0241
 4726TIP3    H214185   0.050   5.115   4.433 -0.1492  0.6459 -0.4084
 4727TIP3   OH214186   4.803   0.803   4.621  0.8749  0.6935 -0.5348
 4727TIP3    H114187   4.747   0.776   4.693  0.8081  1.8212 -0.1387
 4727TIP3    H214188   4.824   0.722   4.575  0.8712 -0.0348  0.7080
 4728TIP3   OH214189   4.940   4.616   1.811 -0.3074  0.2823 -0.4294
 4728TIP3    H114190   5.019   4.578   1.773 -1.5011 -1.3404 -1.4069
 4728TIP3    H214191   4.904   4.671   1.741 -0.1194  0.9403 -0.0208
 4729TIP3   OH214192   5.434   3.968   1.426 -0.2154  0.3030 -0.3923
 4729TIP3    H114193   5.399   3.978   1.337 -0.8466  2.0988  0.0232
 4729TIP3    H214194   5.371   4.014   1.482  0.5638 -0.1532  0.8983
 4730TIP3   OH214195   1.019   0.044   4.938  0.0218  0.1517  0.2674
 4730TIP3    H114196   1.048   0.004   4.856 -0.8872  0.8938 -0.4385
 4730TIP3    H214197   1.058   0.131   4.938  0.6512 -0.1193  1.0065
 4731TIP3   OH214198   1.911   1.990   3.531  0.5192 -0.1294 -0.2487
 4731TIP3    H114199   1.820   2.009   3.555  0.3103 -0.7016 -0.5894
 4731TIP3    H214200   1.905   1.938   3.452  1.1632  0.1834 -0.5117
 4732TIP3   OH214201   1.251   4.813   0.879  0.7927 -0.5784 -1.0098
 4732TIP3    H114202   1.212   4.894   0.910  2.7749 -0.1574  0.5355
 4732TIP3    H214203   1.198   4.744   0.919 -0.5248 -0.0942 -1.8438
 4733TIP3   OH214204   1.893   2.252   0.921  0.0399  0.3512 -0.1608
 4733TIP3    H114205   1.901   2.282   1.012 -0.1755  0.7991 -0.2849
 4733TIP3    H214206   1.980   2.219   0.898  0.2062  0.6269  0.0726
 4734TIP3   OH214207   4.774   1.014   2.905  0.1039  0.0832  0.3005
 4734TIP3    H114208   4.711   0.963   2.854 -0.0218 -0.2369  0.7586
 4734TIP3    H214209   4.739   1.011   2.995  1.0617 -0.5713  0.6690
 4735TIP3   OH214210   0.827   5.970   1.982  0.3399 -0.7039 -0.1082
 4735TIP3    H114211   0.819   5.957   1.887 -1.4768  0.6914 -0.1941
 4735TIP3    H214212   0.754   5.920   2.019  0.5428 -0.5657  0.4853
 4736TIP3   OH214213   1.061   1.269   3.258  0.6044 -0.2682 -0.2500
 4736TIP3    H114214   1.032   1.187   3.297 -2.0570  0.6186 -0.1924
 4736TIP3    H214215   1.090   1.322   3.333  1.9689 -0.9710 -0.2511
 4737TIP3   OH214216   3.610   4.511   4.097 -0.7138 -0.2489 -0.6260
 4737TIP3    H114217   3.522   4.480   4.119 -1.5295  0.8542 -2.1839
 4737TIP3    H214218   3.605   4.606   4.108  0.2465 -0.1664 -0.8972
 4738TIP3   OH214219   4.502   3.741   1.573 -0.3606  0.3719  0.1876
 4738TIP3    H114220   4.577   3.751   1.632  0.7483 -0.3485 -1.0246
 4738TIP3    H214221   4.430   3.714   1.630  0.5746  0.0347  1.2633
 4739TIP3   OH214222   0.863   0.795   4.277 -0.6460  0.0889 -0.0558
 4739TIP3    H114223   0.872   0.856   4.203  0.3921  1.4844  1.1671
 4739TIP3    H214224   0.923   0.828   4.343 -1.9165 -0.8195  1.6398
 4740TIP3   OH214225   4.243   0.110   2.418 -0.1212  0.6740  0.1567
 4740TIP3    H114226   4.235   0.017   2.439  0.3091  0.8129  0.9817
 4740TIP3    H214227   4.299   0.145   2.487 -0.9681  1.7120  0.3394
 4741TIP3   OH214228   0.306   1.445   3.764 -0.0847  0.3755  0.0044
 4741TIP3    H114229   0.398   1.460   3.788 -0.1334 -0.2620  0.6340
 4741TIP3    H214230   0.264   1.529   3.776  0.1423  0.3546  1.0569
 4742TIP3   OH214231   2.033   5.461   0.348 -0.0899 -0.3346  1.0405
 4742TIP3    H114232   2.114   5.412   0.333 -0.0783 -0.3225  1.0648
 4742TIP3    H214233   2.060   5.537   0.400  0.1147  0.4229 -0.1464
 4743TIP3   OH214234   0.411   3.562   2.433 -0.0166 -0.1149  0.1978
 4743TIP3    H114235   0.493   3.597   2.467 -0.4539  1.3642 -0.1866
 4743TIP3    H214236   0.354   3.556   2.510  0.2285 -0.5182  0.3532
 4744TIP3   OH214237   3.513   2.529   4.277 -0.0380 -0.3409  0.2274
 4744TIP3    H114238   3.504   2.544   4.183 -0.7131  1.2431  0.5188
 4744TIP3    H214239   3.531   2.615   4.314 -2.1288 -0.5067  1.8162
 4745TIP3   OH214240   1.903   2.457   0.458 -0.0665  0.2874 -0.2702
 4745TIP3    H114241   1.993   2.475   0.486 -0.6622  0.3076  1.7466
 4745TIP3    H214242   1.885   2.368   0.490 -0.3258 -0.2905 -1.8968
 4746TIP3   OH214243   2.989   0.588   2.708 -0.0538  0.3393 -0.4180
 4746TIP3    H114244   2.931   0.537   2.653 -1.5384 -1.1826  2.3443
 4746TIP3    H214245   3.061   0.613   2.650 -0.3398 -3.0263 -2.4862
 4747TIP3   OH214246   0.328   0.968   1.935 -0.5032 -0.5412 -0.3687
 4747TIP3    H114247   0.413   1.011   1.924 -0.1094 -0.8952  1.0715
 4747TIP3    H214248   0.347   0.874   1.929 -0.8183 -0.6125 -0.2920
 4748TIP3   OH214249   0.983   4.214   2.092 -0.0096  0.1613  0.1123
 4748TIP3    H114250   0.905   4.197   2.145  1.2721  2.0727  2.8313
 4748TIP3    H214251   0.960   4.290   2.038  0.0190  0.9350  1.1557
 4749TIP3   OH214252   2.060   4.570   3.738 -0.0933  0.2668  0.1833
 4749TIP3    H114253   2.091   4.480   3.750  0.4311  0.1537 -1.7476
 4749TIP3    H214254   2.050   4.604   3.827  0.9401 -1.2830  0.9281
 4750TIP3   OH214255   2.236   5.607   3.955  0.1839 -0.4435 -0.0258
 4750TIP3    H114256   2.192   5.582   4.036 -0.5734  1.0699  0.0467
 4750TIP3    H214257   2.299   5.674   3.981 -1.9278  2.0674 -1.0005
 4751TIP3   OH214258   1.523   4.602   0.328  0.5959  0.2402 -0.0357
 4751TIP3    H114259   1.437   4.644   0.339  0.8415  0.3408  2.0564
 4751TIP3    H214260   1.585   4.675   0.334  0.8727  0.0176 -0.2132
 4752TIP3   OH214261   5.950   3.125   1.094 -0.3555  0.1157  0.2683
 4752TIP3    H114262   5.915   3.213   1.079 -1.7751 -0.4145  0.3582
 4752TIP3    H214263   6.034   3.140   1.138 -0.2899  1.4322 -0.2709
 4753TIP3   OH214264   1.037   2.275   3.131  0.4109  0.0395  0.2569
 4753TIP3    H114265   0.969   2.325   3.087  1.1469 -1.6183 -3.1040
 4753TIP3    H214266   0.991   2.199   3.168 -0.0170  0.6949  1.0936
 4754TIP3   OH214267   5.022   1.225   1.960  0.0842  0.2970  1.2113
 4754TIP3    H114268   5.111   1.260   1.956  0.1566  0.0220  0.1493
 4754TIP3    H214269   4.993   1.244   2.050  0.7389  1.5332  1.1868
 4755TIP3   OH214270   4.344   4.874   1.414  0.4702 -0.2359  0.4935
 4755TIP3    H114271   4.348   4.868   1.510  2.8112  0.8347  0.5187
 4755TIP3    H214272   4.423   4.829   1.384  0.9767  1.3980 -0.7811
 4756TIP3   OH214273   0.777   5.708   4.438 -0.1800 -0.2601 -0.6628
 4756TIP3    H114274   0.812   5.783   4.391  1.7457 -0.5608  0.2029
 4756TIP3    H214275   0.689   5.736   4.466 -0.0378  1.1369 -1.5250
 4757TIP3   OH214276   1.422   0.832   2.187  0.2438 -0.1722  0.5495
 4757TIP3    H114277   1.372   0.750   2.181 -1.0263  0.5993  0.1821
 4757TIP3    H214278   1.441   0.841   2.280 -2.5461  0.7566  1.1252
 4758TIP3   OH214279   2.732   0.318   3.893  0.0556  0.2388 -0.1448
 4758TIP3    H114280   2.750   0.407   3.863  0.7023  0.4754  0.8877
 4758TIP3    H214281   2.676   0.281   3.825 -1.6182  1.9793  0.2177
 4759TIP3   OH214282   3.126   2.096   1.361 -0.7041  0.8384 -0.0959
 4759TIP3    H114283   3.167   2.176   1.330  1.4671  0.5474  1.7553
 4759TIP3    H214284   3.187   2.026   1.335 -1.9740 -0.1038 -0.6582
 4760TIP3   OH214285   0.912   3.311   1.861 -0.4105 -0.3203 -0.1912
 4760TIP3    H114286   0.848   3.369   1.903 -1.7751  1.4385 -4.1098
 4760TIP3    H214287   0.867   3.227   1.854 -1.5200  0.2882 -0.9060
 4761TIP3   OH214288   5.426   4.864   3.154 -0.2750  0.1042 -0.6867
 4761TIP3    H114289   5.474   4.800   3.207 -1.0571 -1.0476 -1.3270
 4761TIP3    H214290   5.343   4.875   3.200  0.3192  1.6236  0.0845
 4762TIP3   OH214291   2.518   3.364   2.221 -0.6591  0.5049 -0.0119
 4762TIP3    H114292   2.457   3.363   2.294 -1.0269 -1.3439 -0.2870
 4762TIP3    H214293   2.462   3.351   2.143  0.0790 -2.1955 -0.1890
 4763TIP3   OH214294   2.914   1.328   3.065  0.3583 -0.0872  0.6077
 4763TIP3    H114295   2.869   1.255   3.022  1.8737 -0.6073 -0.1503
 4763TIP3    H214296   2.862   1.405   3.042  0.1357 -0.5987 -0.6818
 4764TIP3   OH214297   0.142   4.324   3.417  0.1418 -0.3309  0.1691
 4764TIP3    H114298   0.188   4.253   3.372  0.7663 -0.8337  1.5263
 4764TIP3    H214299   0.169   4.404   3.371  0.6261 -0.8325 -0.4370
 4765TIP3   OH214300   4.012   0.852   0.305  0.7934  0.1950  0.5289
 4765TIP3    H114301   4.035   0.824   0.216  0.0166 -0.2313  0.4577
 4765TIP3    H214302   3.932   0.805   0.325  0.1933  1.3373  0.9331
 4766TIP3   OH214303   5.783   5.784   1.689  0.3759 -0.3927 -0.1205
 4766TIP3    H114304   5.839   5.843   1.739  0.3671 -1.0959  0.7543
 4766TIP3    H214305   5.825   5.698   1.700 -1.0462 -1.0040  0.8632
 4767TIP3   OH214306   3.989   4.320   3.055  0.4394 -0.2442 -0.1654
 4767TIP3    H114307   4.020   4.285   2.971  2.3372 -0.9564  0.7566
 4767TIP3    H214308   3.926   4.255   3.085  1.4416 -1.1839 -0.0245
 4768TIP3   OH214309   3.648   5.345   0.496  0.2988 -0.2514  0.4021
 4768TIP3    H114310   3.739   5.325   0.519  1.3221  1.8245 -1.3914
 4768TIP3    H214311   3.645   5.440   0.491 -1.1671 -0.3190 -2.3772
 4769TIP3   OH214312   5.168   0.817   4.765  0.0162  0.3059  0.2197
 4769TIP3    H114313   5.113   0.877   4.715 -1.7998 -1.6154 -0.2603
 4769TIP3    H214314   5.237   0.791   4.704  0.4807  1.4063  0.2510
 4770TIP3   OH214315   4.201   0.548   1.595 -0.2556 -0.0053 -0.4279
 4770TIP3    H114316   4.233   0.551   1.505  0.1289  1.5093 -0.2541
 4770TIP3    H214317   4.150   0.466   1.599 -0.6606  0.1199 -2.1342
 4771TIP3   OH214318   3.581   4.507   2.381 -0.0874  0.1557  0.4132
 4771TIP3    H114319   3.671   4.540   2.380  0.4940 -1.3798  0.1851
 4771TIP3    H214320   3.560   4.499   2.474 -0.8833  2.7359  0.5362
 4772TIP3   OH214321   0.482   5.319   5.157  0.2131  0.1248  0.1449
 4772TIP3    H114322   0.463   5.283   5.243  2.0384 -0.2359  0.4381
 4772TIP3    H214323   0.430   5.265   5.096  0.5774 -1.0488  0.8409
 4773TIP3   OH214324   3.980   1.253   2.417 -0.4669 -0.4945 -0.2799
 4773TIP3    H114325   4.039   1.207   2.357 -0.7829  0.0634 -1.0328
 4773TIP3    H214326   4.034   1.324   2.454 -0.7785  0.3221 -1.3421
 4774TIP3   OH214327   3.559   1.540   4.920  0.0837  0.7848  0.1860
 4774TIP3    H114328   3.558   1.510   4.829  1.4563  0.8191  0.1486
 4774TIP3    H214329   3.589   1.631   4.915 -0.6944  1.0745  0.6051
 4775TIP3   OH214330   3.156   0.540   4.291  0.2290  0.3315 -0.8826
 4775TIP3    H114331   3.230   0.590   4.254  1.9556 -1.4906 -0.0527
 4775TIP3    H214332   3.196   0.480   4.354 -2.2015  0.6042  1.0797
 4776TIP3   OH214333   0.245   3.340   1.201 -0.4083 -0.4614  0.3167
 4776TIP3    H114334   0.256   3.261   1.150  0.4226 -0.6539  0.7888
 4776TIP3    H214335   0.186   3.315   1.272  0.1845 -0.7750  0.7056
 4777TIP3   OH214336   3.656   2.761   1.934 -0.1496 -0.8323  0.0155
 4777TIP3    H114337   3.581   2.701   1.934 -1.6702  0.9156  1.7298
 4777TIP3    H214338   3.681   2.766   2.026  2.0759 -1.2711 -0.5092
 4778TIP3   OH214339   5.096   0.905   2.006 -0.1883 -0.4115  0.1948
 4778TIP3    H114340   5.178   0.948   1.982  0.2776 -0.3639  1.7452
 4778TIP3    H214341   5.051   0.891   1.923  1.7411 -1.1750 -0.7777
 4779TIP3   OH214342   1.044   3.018   0.833 -0.1292  0.4093  0.3490
 4779TIP3    H114343   1.004   3.044   0.916  1.8077  0.6616  1.2672
 4779TIP3    H214344   1.111   2.954   0.858  0.4667  0.4584 -1.0378
 4780TIP3   OH214345   1.977   5.060   0.833 -0.0040 -0.0564 -0.1666
 4780TIP3    H114346   1.985   4.985   0.774  0.5371 -1.2792  1.4009
 4780TIP3    H214347   1.899   5.041   0.886 -0.6867  1.1857 -0.6671
 4781TIP3   OH214348   2.234   3.902   4.543 -0.0250 -0.5143 -0.1429
 4781TIP3    H114349   2.213   3.829   4.484  3.1861 -2.3536  0.7088
 4781TIP3    H214350   2.319   3.878   4.580 -0.1228  2.4133  2.3266
 4782TIP3   OH214351   1.000   1.863   3.069  0.2559 -0.3519  0.4205
 4782TIP3    H114352   1.053   1.884   3.145 -0.8226  1.3637  0.7536
 4782TIP3    H214353   0.950   1.943   3.051 -1.8527 -1.6992 -0.1383
 4783TIP3   OH214354   0.642   4.105   5.088 -0.4704  0.2080  0.4828
 4783TIP3    H114355   0.597   4.023   5.068 -2.5556  1.4564 -0.2684
 4783TIP3    H214356   0.617   4.125   5.178  1.6399 -0.8893  1.3931
 4784TIP3   OH214357   1.162   2.448   1.990 -0.3922 -0.6833  0.0236
 4784TIP3    H114358   1.220   2.484   1.923  0.5698 -2.4573 -0.1451
 4784TIP3    H214359   1.206   2.467   2.072 -1.7076  1.7432  0.2585
 4785TIP3   OH214360   2.315   4.638   4.953  0.6650  0.3888 -0.0509
 4785TIP3    H114361   2.253   4.629   5.026  1.2064  0.4657  0.4266
 4785TIP3    H214362   2.260   4.651   4.876  0.0328 -1.1971  0.0980
 4786TIP3   OH214363   3.862   2.972   3.292 -0.0080  0.0051 -0.1560
 4786TIP3    H114364   3.806   2.976   3.215  0.2411 -0.3706 -0.3593
 4786TIP3    H214365   3.938   2.920   3.265 -0.3458 -0.9265  0.6041
 4787TIP3   OH214366   1.852   3.079   0.928  0.1080 -0.0517  0.2284
 4787TIP3    H114367   1.767   3.039   0.947 -0.0266 -0.1066 -0.4667
 4787TIP3    H214368   1.891   3.022   0.862  0.0502  0.7802 -0.5397
 4788TIP3   OH214369   3.293   4.982   4.168 -0.3785 -0.1370  0.4475
 4788TIP3    H114370   3.205   4.951   4.190 -1.1060  1.4988 -0.0145
 4788TIP3    H214371   3.320   5.033   4.244  1.1267 -2.3528  1.5354
 4789TIP3   OH214372   2.857   1.030   2.969 -0.3573 -0.3676 -0.1359
 4789TIP3    H114373   2.914   1.081   2.911 -1.4253  0.4985 -0.4568
 4789TIP3    H214374   2.918   0.982   3.026  0.6889  0.8023 -0.2178
 4790TIP3   OH214375   4.294   1.956   4.085 -0.1223 -0.0119 -0.1935
 4790TIP3    H114376   4.256   1.989   4.003 -1.7216 -1.4911 -0.0947
 4790TIP3    H214377   4.321   1.867   4.065  0.1896 -0.1196  0.6864
 4791TIP3   OH214378   4.226   0.106   0.837 -0.2202 -0.4128 -0.7949
 4791TIP3    H114379   4.305   0.133   0.792  0.2627 -0.3839  0.0482
 4791TIP3    H214380   4.154   0.133   0.780  0.2382  2.2117 -0.2367
 4792TIP3   OH214381   1.737   0.725   0.411  0.0573  0.2949 -0.0814
 4792TIP3    H114382   1.706   0.725   0.320  1.2334  0.5594 -0.4895
 4792TIP3    H214383   1.705   0.809   0.447 -0.4873  0.1487 -0.2090
 4793TIP3   OH214384   0.032   4.716   3.643  0.6443 -0.0699 -0.5579
 4793TIP3    H114385   0.002   4.645   3.700 -0.2746 -0.3996 -1.4235
 4793TIP3    H214386   0.125   4.697   3.628  1.1790  0.5773  1.6001
 4794TIP3   OH214387   2.688   4.462   1.665  0.1921 -0.5881 -0.3321
 4794TIP3    H114388   2.773   4.419   1.667  0.6374  0.2594 -0.5735
 4794TIP3    H214389   2.680   4.495   1.576  0.2934  0.6585  0.1056
 4795TIP3   OH214390   5.548   2.703   1.629 -0.0766  0.0812 -0.3931
 4795TIP3    H114391   5.519   2.742   1.711  0.8208 -0.5685  0.2473
 4795TIP3    H214392   5.631   2.746   1.610  0.8348 -1.3630  0.2298
 4796TIP3   OH214393   5.626   3.628   2.931 -0.1784  0.0362  1.0289
 4796TIP3    H114394   5.612   3.539   2.963 -0.4505 -0.9111 -1.4681
 4796TIP3    H214395   5.712   3.626   2.890 -0.2307  0.8947  0.8559
 4797TIP3   OH214396   3.440   1.802   1.681  0.0860 -0.4494  0.5802
 4797TIP3    H114397   3.476   1.820   1.595 -0.1765 -0.5647  0.4462
 4797TIP3    H214398   3.469   1.713   1.701  0.8090 -0.1468  0.9524
 4798TIP3   OH214399   3.742   1.375   5.113 -0.4001 -0.2812  0.3287
 4798TIP3    H114400   3.754   1.470   5.116 -0.0632 -0.2435 -1.2750
 4798TIP3    H214401   3.785   1.343   5.192  1.7181  0.6954 -0.3763
 4799TIP3   OH214402   3.492   0.016   1.132  0.5743  0.4734  0.3281
 4799TIP3    H114403   3.553   0.089   1.138  1.1554 -0.0920  1.8444
 4799TIP3    H214404   3.547  -0.059   1.109  0.2604  0.1976  0.4678
 4800TIP3   OH214405   2.655   4.696   2.406 -0.7771  0.1918 -0.1683
 4800TIP3    H114406   2.714   4.677   2.479  1.7568 -0.2866 -2.1558
 4800TIP3    H214407   2.608   4.614   2.391  1.0377 -0.7626 -0.9820
 4801TIP3   OH214408   5.574   3.298   4.873  0.0197 -0.5139 -0.2444
 4801TIP3    H114409   5.478   3.303   4.871  0.0522  0.4955  0.4538
 4801TIP3    H214410   5.602   3.331   4.787 -0.2336 -0.1320 -0.1812
 4802TIP3   OH214411   4.076   0.672   4.813 -0.2330  0.0899  0.0802
 4802TIP3    H114412   4.086   0.736   4.742  0.8713 -0.5059 -0.3245
 4802TIP3    H214413   4.036   0.721   4.884 -0.8209  0.8486 -0.7475
 4803TIP3   OH214414   1.892   3.309   2.498  0.6211 -0.1286 -0.0027
 4803TIP3    H114415   1.969   3.277   2.544 -0.1560 -0.3031  1.2165
 4803TIP3    H214416   1.846   3.229   2.470  0.4851 -0.0401 -0.0347
 4804TIP3   OH214417   0.030   0.808   1.892 -0.0246 -0.4226  0.1293
 4804TIP3    H114418   0.040   0.813   1.797  2.2797 -1.6959  0.2279
 4804TIP3    H214419   0.093   0.871   1.926 -1.9423  1.2125  0.8751
 4805TIP3   OH214420   0.406   3.336   3.923 -0.5155  0.1586  0.7376
 4805TIP3    H114421   0.387   3.417   3.877  0.4869  1.1593  2.0039
 4805TIP3    H214422   0.368   3.348   4.010 -1.0359 -1.0725  0.7153
 4806TIP3   OH214423   5.752   2.677   4.047  0.2622  0.0311 -0.7556
 4806TIP3    H114424   5.753   2.581   4.045  0.0879 -0.0879  1.8486
 4806TIP3    H214425   5.660   2.700   4.056  0.4747  0.2607  1.3651
 4807TIP3   OH214426   1.596   1.630   2.078 -0.4153 -0.1637  0.0710
 4807TIP3    H114427   1.605   1.599   1.988 -0.8536 -1.0103  0.3094
 4807TIP3    H214428   1.506   1.609   2.102 -0.3049  0.0635  0.7077
 4808TIP3   OH214429   6.121   5.369   4.759 -0.0757  0.3110  0.3755
 4808TIP3    H114430   6.201   5.338   4.803  2.2974  2.5611 -2.0276
 4808TIP3    H214431   6.067   5.403   4.830  1.1887 -0.9937  2.0700
 4809TIP3   OH214432   2.737   1.008   1.437  0.1411  0.4016 -0.2336
 4809TIP3    H114433   2.736   1.077   1.504  1.4804  0.3399 -0.1171
 4809TIP3    H214434   2.738   1.056   1.354  1.3943  0.5488 -0.1482
 4810TIP3   OH214435   3.884   5.493   2.717  0.0474 -0.1237  0.2467
 4810TIP3    H114436   3.960   5.504   2.660 -0.3324  1.0101 -0.0518
 4810TIP3    H214437   3.827   5.432   2.670  0.4889 -0.5046  0.1964
 4811TIP3   OH214438   1.829   0.432   0.095 -0.2212 -0.1985  0.6079
 4811TIP3    H114439   1.906   0.417   0.040 -0.3573  1.2250 -0.0158
 4811TIP3    H214440   1.781   0.349   0.092  0.0028 -0.3080 -1.0568
 4812TIP3   OH214441   1.428   4.795   2.453 -0.3261 -0.6719  0.7476
 4812TIP3    H114442   1.354   4.841   2.413 -0.9245 -1.3312  1.0735
 4812TIP3    H214443   1.455   4.850   2.526  1.0741  0.7850 -0.7880
 4813TIP3   OH214444   4.416   0.891   2.786  0.0875  0.3495 -0.1455
 4813TIP3    H114445   4.368   0.919   2.708  1.4345 -0.3028 -1.2563
 4813TIP3    H214446   4.350   0.847   2.840 -0.8576  0.7607 -0.9276
 4814TIP3   OH214447   3.548   4.094   3.001  0.0773 -0.1801  0.0014
 4814TIP3    H114448   3.579   4.003   3.004 -1.0186 -0.6427 -1.6111
 4814TIP3    H214449   3.458   4.088   2.968  0.3078  1.5537 -1.0756
 4815TIP3   OH214450   6.320   5.169   0.145 -0.1078  0.4261  0.1814
 4815TIP3    H114451   6.257   5.170   0.073  1.1376  1.6519 -0.9498
 4815TIP3    H214452   6.362   5.083   0.138 -0.6406  0.1692  0.0562
 4816TIP3   OH214453   4.415   1.709   4.051 -0.2860  0.1237 -0.1111
 4816TIP3    H114454   4.473   1.706   3.975  0.5711 -0.7500  0.5569
 4816TIP3    H214455   4.474   1.698   4.126 -1.0432  1.4410  0.7290
 4817TIP3   OH214456   0.613   1.302   3.176 -0.7336  0.1892 -0.1966
 4817TIP3    H114457   0.686   1.364   3.179 -0.8245  0.2824  0.1268
 4817TIP3    H214458   0.650   1.221   3.212 -0.9535  0.4081  0.5359
 4818TIP3   OH214459   1.202   0.833   4.021 -0.3005 -0.0900  0.5318
 4818TIP3    H114460   1.145   0.760   4.043  0.1907 -0.2782  1.1961
 4818TIP3    H214461   1.252   0.803   3.945 -1.2988  0.1948 -0.2496
 4819TIP3   OH214462   1.903   1.062   0.420 -0.4538 -0.1490  0.1269
 4819TIP3    H114463   1.931   0.983   0.374 -0.1040 -0.4380  0.8231
 4819TIP3    H214464   1.823   1.036   0.465  0.4927 -0.5749  1.6181
 4820TIP3   OH214465   1.332   4.211   0.633  0.0427 -0.6700  0.2715
 4820TIP3    H114466   1.281   4.195   0.553  1.7409 -1.3552 -0.7393
 4820TIP3    H214467   1.322   4.304   0.650 -0.5957 -0.5680 -0.5771
 4821TIP3   OH214468   3.423   0.396   3.136  0.1097  0.0387 -0.2224
 4821TIP3    H114469   3.355   0.456   3.167  0.0837 -0.5388  0.9192
 4821TIP3    H214470   3.443   0.342   3.212  1.3904 -0.2391 -0.7300
 4822TIP3   OH214471   4.472   1.798   2.180 -0.1117 -0.6130  0.1999
 4822TIP3    H114472   4.496   1.856   2.251  0.9110 -0.4352 -0.2663
 4822TIP3    H214473   4.440   1.719   2.223 -0.4369 -0.1406  0.8391
 4823TIP3   OH214474   3.668   2.682   0.223  0.1679 -0.5059  0.2694
 4823TIP3    H114475   3.699   2.597   0.255  0.1840 -0.0669  1.4593
 4823TIP3    H214476   3.604   2.661   0.155  1.8060 -1.4553 -1.0583
 4824TIP3   OH214477   1.045   2.819   0.526 -0.3168 -0.2313 -0.0792
 4824TIP3    H114478   0.980   2.889   0.526 -1.0560 -0.8742  1.1691
 4824TIP3    H214479   1.010   2.754   0.586  1.0308 -1.0486 -0.1305
 4825TIP3   OH214480   6.163   0.970   1.362 -0.4411  0.2500 -0.5055
 4825TIP3    H114481   6.216   1.049   1.362  0.4994 -0.3653 -1.1170
 4825TIP3    H214482   6.073   1.001   1.355 -0.1036  1.2673 -0.4284
 4826TIP3   OH214483   5.969   5.497   4.510 -0.1974 -0.2864 -0.3102
 4826TIP3    H114484   5.980   5.455   4.596  1.2652 -1.4653 -1.0287
 4826TIP3    H214485   5.995   5.430   4.447 -0.1626  0.9250 -1.6398
 4827TIP3   OH214486   1.057   2.191   4.235  0.1027  0.1024 -0.3178
 4827TIP3    H114487   1.063   2.249   4.312  0.0769  0.2387 -0.4182
 4827TIP3    H214488   0.981   2.224   4.187 -0.1530 -0.2635 -0.1705
 4828TIP3   OH214489   6.288   0.716   3.138 -0.1545 -0.2485  0.3512
 4828TIP3    H114490   6.366   0.680   3.181  0.9546  0.1529 -1.2049
 4828TIP3    H214491   6.282   0.806   3.170 -0.5300 -0.5635  1.1748
 4829TIP3   OH214492   0.241   0.163   2.538 -0.4239  0.4088 -0.4866
 4829TIP3    H114493   0.290   0.190   2.460  3.4478 -0.8320  1.2828
 4829TIP3    H214494   0.207   0.076   2.516 -1.5818  1.1049 -1.5967
 4830TIP3   OH214495   4.833   0.287   0.887 -0.2496 -0.0687  0.0153
 4830TIP3    H114496   4.819   0.228   0.961 -0.9241 -1.1431 -0.9304
 4830TIP3    H214497   4.927   0.283   0.870  0.0130  0.6540  1.1605
 4831TIP3   OH214498   0.593   4.831   0.259 -0.2224  0.6344 -0.3999
 4831TIP3    H114499   0.669   4.885   0.236  0.0667  0.6631  0.5375
 4831TIP3    H214500   0.605   4.750   0.210 -0.3183  1.1688 -1.3196
 4832TIP3   OH214501   5.944   4.418   0.201  0.3671  0.2757  0.2824
 4832TIP3    H114502   6.038   4.420   0.219  0.6925  0.0385 -1.2190
 4832TIP3    H214503   5.903   4.421   0.287  1.6918  2.6151  0.9249
 4833TIP3   OH214504   0.925   3.101   1.064 -0.3717 -0.4689 -0.2151
 4833TIP3    H114505   0.941   3.102   1.159 -1.2316  1.9386 -0.0297
 4833TIP3    H214506   0.849   3.158   1.053 -1.2862 -1.9705 -2.2302
 4834TIP3   OH214507   0.874   3.721   1.517  0.5448  0.1631  0.7630
 4834TIP3    H114508   0.836   3.649   1.468  1.0709  0.4197 -0.0420
 4834TIP3    H214509   0.935   3.679   1.578  2.1834 -0.0046 -0.9070
 4835TIP3   OH214510   1.796   4.458   0.589 -0.0359 -0.0218  0.4379
 4835TIP3    H114511   1.833   4.415   0.512  1.7534  0.0376  1.2120
 4835TIP3    H214512   1.710   4.417   0.600  0.0392 -0.6499 -1.0676
 4836TIP3   OH214513   5.151   3.735   4.334 -0.7077 -0.4154  0.5504
 4836TIP3    H114514   5.173   3.775   4.418 -1.1438  0.1437  0.4073
 4836TIP3    H214515   5.236   3.722   4.290 -0.6080  2.0740 -0.1624
 4837TIP3   OH214516   3.464  -0.019   4.072 -0.4548  0.4126 -0.4671
 4837TIP3    H114517   3.468  -0.013   4.168 -0.0106 -1.7318 -0.3020
 4837TIP3    H214518   3.530   0.043   4.041  2.1178 -1.5052  0.7959
 4838TIP3   OH214519   0.716   4.275   2.801 -0.2001 -0.2241 -0.1525
 4838TIP3    H114520   0.783   4.251   2.737 -0.1278  1.4559 -0.7533
 4838TIP3    H214521   0.700   4.194   2.850  1.6124 -0.8987 -0.5779
 4839TIP3   OH214522   0.079   2.627   1.718 -0.0455 -0.3318 -0.0399
 4839TIP3    H114523  -0.014   2.625   1.740  0.0484  1.1653  0.6474
 4839TIP3    H214524   0.081   2.634   1.622 -0.8160  3.0194  0.0621
 4840TIP3   OH214525   1.890   4.104   4.311  0.3902  0.0977  0.0538
 4840TIP3    H114526   1.847   4.162   4.248 -0.9950 -0.1756  0.6926
 4840TIP3    H214527   1.828   4.031   4.322  1.7007 -1.0774 -0.0819
 4841TIP3   OH214528   6.258   0.343   1.683 -0.7367 -0.3627 -0.2627
 4841TIP3    H114529   6.210   0.344   1.765  1.1334 -0.1639  0.8998
 4841TIP3    H214530   6.339   0.295   1.703 -0.2780 -0.4057 -2.0129
 4842TIP3   OH214531   2.489   1.696   2.423 -0.1610  0.2504  0.2428
 4842TIP3    H114532   2.446   1.620   2.383  0.3944 -0.8033  1.5826
 4842TIP3    H214533   2.426   1.767   2.411 -0.1745 -0.0967 -2.1175
 4843TIP3   OH214534   4.764   2.788   1.978 -0.2041 -0.1883  0.5375
 4843TIP3    H114535   4.821   2.717   1.947 -0.7486  0.1626 -1.4482
 4843TIP3    H214536   4.692   2.790   1.915 -0.1969  2.1258  0.4976
 4844TIP3   OH214537   1.127   3.254   4.974 -0.1630 -0.1938  0.3471
 4844TIP3    H114538   1.130   3.278   5.067  0.9801  1.2582 -0.0415
 4844TIP3    H214539   1.133   3.158   4.975 -0.6894 -0.2486  1.7773
 4845TIP3   OH214540   2.538   4.086   4.138 -0.0075  0.5730  0.3339
 4845TIP3    H114541   2.486   4.013   4.105  1.4497 -0.4665  0.2204
 4845TIP3    H214542   2.514   4.160   4.082 -0.6627 -0.1096 -0.3193
 4846TIP3   OH214543   5.946   0.908   0.517  0.2915  0.1344 -0.1669
 4846TIP3    H114544   5.973   0.961   0.591  0.7127  0.6284 -0.6632
 4846TIP3    H214545   5.871   0.954   0.480  1.3601  1.0399 -1.2911
 4847TIP3   OH214546   4.536   2.030   1.475  0.3719 -0.9690  0.3969
 4847TIP3    H114547   4.551   2.060   1.385 -1.0378  0.6184  0.6393
 4847TIP3    H214548   4.603   1.964   1.490  2.9755  1.2373 -0.6249
 4848TIP3   OH214549   1.406   4.065   2.602 -0.4835 -0.4518 -0.6888
 4848TIP3    H114550   1.407   3.969   2.607  1.6542 -0.5911 -2.2389
 4848TIP3    H214551   1.403   4.084   2.508  0.4372  0.9735 -0.4589
 4849TIP3   OH214552   2.321   5.597   3.679 -0.3775 -0.1691 -0.3713
 4849TIP3    H114553   2.278   5.582   3.763 -0.7976 -0.8878 -0.7016
 4849TIP3    H214554   2.413   5.611   3.701 -0.2099 -1.7987  0.1211
 4850TIP3   OH214555   3.919   2.285   3.791 -0.2867  0.1217  0.3673
 4850TIP3    H114556   3.913   2.368   3.838 -0.5734 -0.0502  0.6426
 4850TIP3    H214557   3.899   2.219   3.857  3.7918 -0.5154  1.2365
 4851TIP3   OH214558   4.814   5.536   0.021  0.0107  0.3662 -0.0352
 4851TIP3    H114559   4.744   5.584   0.065 -0.5157 -0.5529  0.1461
 4851TIP3    H214560   4.887   5.539   0.083 -0.3893 -0.0346  0.4564
 4852TIP3   OH214561   2.752   2.518   3.684 -0.1477 -0.3874  0.1528
 4852TIP3    H114562   2.809   2.593   3.699  0.5802 -0.5220 -1.7165
 4852TIP3    H214563   2.663   2.553   3.694  0.0861  1.2878 -2.7410
 4853TIP3   OH214564   4.036   4.264   0.241  0.3451  0.1349 -0.1759
 4853TIP3    H114565   4.122   4.251   0.202  0.2926  1.0340 -0.6126
 4853TIP3    H214566   4.051   4.324   0.314  0.6409 -2.4051  2.0417
 4854TIP3   OH214567   5.783   0.538   2.701 -0.1865  0.3376 -0.9284
 4854TIP3    H114568   5.800   0.582   2.785 -1.3443  0.3898 -0.7065
 4854TIP3    H214569   5.867   0.544   2.654 -0.0968  2.1869 -0.6243
 4855TIP3   OH214570   5.508   1.414   1.801  0.1781 -0.2353 -0.3825
 4855TIP3    H114571   5.516   1.462   1.719 -0.1796 -1.2329 -1.0181
 4855TIP3    H214572   5.598   1.395   1.827  0.3613  1.2265  0.1810
 4856TIP3   OH214573   1.237   4.025   4.033  0.9289  0.5159  0.1176
 4856TIP3    H114574   1.256   4.031   3.939 -1.1931 -0.6582 -0.4534
 4856TIP3    H214575   1.277   3.943   4.061 -0.5896 -0.4455 -0.4006
 4857TIP3   OH214576   5.976   0.963   3.399 -0.0886  0.1917 -0.7573
 4857TIP3    H114577   6.059   0.983   3.443 -0.6244  0.3929  0.1790
 4857TIP3    H214578   5.927   1.045   3.403 -1.6007 -0.7407  1.5434
 4858TIP3   OH214579   5.112   0.132   3.300  0.0140  0.4258 -0.9483
 4858TIP3    H114580   5.144   0.067   3.362  0.6748 -0.7330 -2.4404
 4858TIP3    H214581   5.019   0.143   3.321 -0.4579 -2.0217 -1.4921
 4859TIP3   OH214582   1.556   1.038   0.713  0.3758 -0.0349  0.4435
 4859TIP3    H114583   1.463   1.025   0.733 -0.9294  3.8221 -2.0635
 4859TIP3    H214584   1.578   1.121   0.754  2.3836 -0.2297 -0.1254
 4860TIP3   OH214585   0.558   5.406   1.994  0.2263 -0.0602 -0.0138
 4860TIP3    H114586   0.633   5.395   2.052 -0.0353  0.3739  0.4065
 4860TIP3    H214587   0.565   5.332   1.933  2.1021  1.0377 -1.2279
 4861TIP3   OH214588   1.948   3.251   1.519  0.2596  0.3851 -0.0658
 4861TIP3    H114589   1.927   3.173   1.468 -0.9105 -0.9777  2.3292
 4861TIP3    H214590   2.035   3.233   1.555 -0.0448  0.1109  0.5531
 4862TIP3   OH214591   6.199   0.244   4.099 -0.1227 -0.0272  0.6280
 4862TIP3    H114592   6.174   0.305   4.029  1.3728 -1.1681 -0.9935
 4862TIP3    H214593   6.287   0.214   4.074 -0.7201 -2.6999  1.4287
 4863TIP3   OH214594   1.946   4.289   1.356  0.1117  0.1396 -0.1242
 4863TIP3    H114595   1.958   4.215   1.415 -1.2051  0.5788  0.7583
 4863TIP3    H214596   1.934   4.250   1.270  3.8800 -0.4488 -0.5347
 4864TIP3   OH214597   1.077   3.550   0.163  0.0636 -0.5745  0.4792
 4864TIP3    H114598   1.107   3.629   0.118  0.1721 -0.1392  1.2834
 4864TIP3    H214599   0.985   3.541   0.137 -0.2653  0.4504  1.2276
 4865TIP3   OH214600   2.500   4.591   1.007  0.1484  0.1257  0.7398
 4865TIP3    H114601   2.568   4.648   0.970 -1.3984  1.6641  0.0966
 4865TIP3    H214602   2.424   4.648   1.017 -1.0586 -1.5222  1.4572
 4866TIP3   OH214603   2.469   2.785   1.650 -0.2586 -0.1858  0.2737
 4866TIP3    H114604   2.523   2.714   1.617  0.5322  0.3444  0.3950
 4866TIP3    H214605   2.427   2.822   1.573  0.4549  0.1272  0.0241
 4867TIP3   OH214606   4.232   2.653   0.612  0.8972 -0.2526  0.7849
 4867TIP3    H114607   4.254   2.703   0.533  1.1353 -1.2184  0.2265
 4867TIP3    H214608   4.315   2.617   0.642  0.8375  0.2486  1.5935
 4868TIP3   OH214609   4.196   3.780   4.959  0.3401  0.6528  0.4557
 4868TIP3    H114610   4.117   3.834   4.961  0.2118  0.4660  0.4470
 4868TIP3    H214611   4.217   3.772   4.866 -0.7389 -0.9006  0.3067
 4869TIP3   OH214612   4.364   1.186   0.861  0.0656 -0.0292 -0.2125
 4869TIP3    H114613   4.383   1.123   0.791 -1.0670 -0.2975 -0.3046
 4869TIP3    H214614   4.270   1.203   0.852 -0.0594  0.0793  1.1162
 4870TIP3   OH214615   0.713   4.786   2.076 -0.0646 -0.9781 -0.2434
 4870TIP3    H114616   0.697   4.701   2.036  1.4716 -1.3403 -0.1533
 4870TIP3    H214617   0.672   4.781   2.162 -0.4255 -1.4326 -0.4382
 4871TIP3   OH214618   4.773   3.596   2.584  0.0310  0.3831 -0.7061
 4871TIP3    H114619   4.681   3.591   2.607 -0.2546 -0.5089 -1.9875
 4871TIP3    H214620   4.810   3.512   2.612  0.6107  0.9746  0.3777
 4872TIP3   OH214621   1.432   3.783   5.044  0.4962  0.5330 -0.1097
 4872TIP3    H114622   1.455   3.697   5.079  0.7340  0.0262 -1.4851
 4872TIP3    H214623   1.514   3.832   5.045  0.4393  0.6267  0.3079
 4873TIP3   OH214624   3.397   4.371   1.491 -0.4086 -0.3261  0.6011
 4873TIP3    H114625   3.466   4.437   1.491 -0.4873 -0.2440  0.7098
 4873TIP3    H214626   3.442   4.290   1.518 -0.0149 -0.6366 -0.8595
 4874TIP3   OH214627   2.225   2.334   2.432  0.0529  0.5890  0.4314
 4874TIP3    H114628   2.274   2.255   2.453  0.1718  0.7490  0.7625
 4874TIP3    H214629   2.268   2.403   2.482  0.4720  1.0193 -0.5028
 4875TIP3   OH214630   4.905   3.838   4.298  0.1871  0.4367 -0.1433
 4875TIP3    H114631   4.986   3.789   4.310 -0.1964 -0.4665 -1.0925
 4875TIP3    H214632   4.895   3.888   4.379  1.3051 -0.0050  0.2840
 4876TIP3   OH214633   3.083   0.233   1.981 -0.8496  0.1592  0.2032
 4876TIP3    H114634   3.032   0.156   2.004 -0.3222  0.1935  1.5459
 4876TIP3    H214635   3.121   0.263   2.063 -0.9446  1.7944 -0.3173
 4877TIP3   OH214636   2.295   4.788   1.397  0.4698 -0.0339  0.1422
 4877TIP3    H114637   2.294   4.779   1.492 -2.3594  1.6772  0.3804
 4877TIP3    H214638   2.283   4.699   1.364  2.1722 -0.7456  1.2900
 4878TIP3   OH214639   0.111   1.183   3.275  0.1544  0.0653  0.3878
 4878TIP3    H114640   0.189   1.230   3.302 -0.4642  1.1133  0.4089
 4878TIP3    H214641   0.074   1.237   3.205  0.6793 -1.5895 -1.2581
 4879TIP3   OH214642   1.416   5.116   5.104 -0.2026  0.6008  0.5990
 4879TIP3    H114643   1.459   5.193   5.141  0.4874  0.3811  0.2724
 4879TIP3    H214644   1.463   5.042   5.143  0.1479  0.3604 -0.2746
 4880TIP3   OH214645   0.522   3.709   1.610  0.1116  0.2386  0.1517
 4880TIP3    H114646   0.508   3.686   1.701  3.2422 -0.2965  0.6021
 4880TIP3    H214647   0.610   3.748   1.608 -0.4532  1.6282 -2.4106
 4881TIP3   OH214648   1.194   0.545   1.429  0.5961  0.2841 -0.5691
 4881TIP3    H114649   1.118   0.495   1.400  0.2325  1.6094 -2.0102
 4881TIP3    H214650   1.256   0.479   1.460 -0.5697 -0.9099 -0.7174
 4882TIP3   OH214651   3.074   1.391   0.861  0.0382 -0.1701  0.3357
 4882TIP3    H114652   2.985   1.370   0.832  0.0129  0.7379 -0.2877
 4882TIP3    H214653   3.076   1.365   0.953 -0.3538 -1.7155 -0.0636
 4883TIP3   OH214654   5.299   1.869   1.968  0.0493 -0.0565  0.0724
 4883TIP3    H114655   5.281   1.959   1.993 -2.6214  0.0139 -1.6750
 4883TIP3    H214656   5.394   1.863   1.968  0.3127  2.6930  0.4046
 4884TIP3   OH214657   4.244   5.230   2.439  0.0694 -0.3096  0.0767
 4884TIP3    H114658   4.256   5.249   2.345  1.8474 -0.8890  0.1516
 4884TIP3    H214659   4.311   5.283   2.482  1.6139 -2.5893  0.6986
 4885TIP3   OH214660   4.552   1.417   3.422 -0.5783 -0.0999 -0.3226
 4885TIP3    H114661   4.551   1.408   3.517 -1.7489 -1.4149 -0.4216
 4885TIP3    H214662   4.489   1.487   3.404 -0.3465  0.1595 -0.1386
 4886TIP3   OH214663   0.649   1.494   0.441  0.2447 -0.5285 -0.5151
 4886TIP3    H114664   0.561   1.532   0.444  0.2698 -0.4176 -1.1152
 4886TIP3    H214665   0.655   1.452   0.356  1.3947  1.0216 -1.2640
 4887TIP3   OH214666   0.267   4.570   4.162 -0.0761  0.4446  0.0593
 4887TIP3    H114667   0.271   4.563   4.067 -0.0953 -0.3823  0.1132
 4887TIP3    H214668   0.243   4.482   4.192 -1.9306  1.1196  0.7252
 4888TIP3   OH214669   0.988   4.183   0.254 -0.0654  0.0673 -0.4824
 4888TIP3    H114670   0.973   4.164   0.161 -0.7086  0.7010 -0.5101
 4888TIP3    H214671   0.922   4.248   0.277 -0.1894 -0.4001  0.5364
 4889TIP3   OH214672   2.339   5.020   2.943  0.3318  0.5377 -0.0865
 4889TIP3    H114673   2.384   4.970   3.012 -0.5361 -0.5353 -0.2648
 4889TIP3    H214674   2.280   4.956   2.903  0.2421  1.3593 -1.2989
 4890TIP3   OH214675   4.997   0.684   4.973 -0.0897  0.0897 -0.0207
 4890TIP3    H114676   5.029   0.623   4.906 -1.0605  0.7287 -1.0989
 4890TIP3    H214677   5.061   0.755   4.972 -0.5227  0.4821 -0.8622
 4891TIP3   OH214678   0.831   3.560   0.062 -0.1461 -0.3104 -0.3699
 4891TIP3    H114679   0.815   3.621  -0.010  0.5905 -0.7376 -0.9148
 4891TIP3    H214680   0.789   3.479   0.034 -0.5217 -0.2613  0.0388
 4892TIP3   OH214681   5.011   3.898   5.124  0.2249  0.0607 -0.2021
 4892TIP3    H114682   5.100   3.866   5.134  0.4650  0.9259  0.6396
 4892TIP3    H214683   4.961   3.850   5.190 -0.0074 -0.6394 -0.8715
 4893TIP3   OH214684   6.355   1.299   1.188  0.1183  0.2978  0.2069
 4893TIP3    H114685   6.275   1.250   1.168  1.1406 -0.8488 -1.3318
 4893TIP3    H214686   6.354   1.371   1.124  0.2612  0.3350  0.2472
 4894TIP3   OH214687   1.628   3.609   3.062 -0.1930 -0.6319  0.0075
 4894TIP3    H114688   1.569   3.684   3.060  0.1252 -0.3887 -1.0088
 4894TIP3    H214689   1.695   3.632   3.126 -0.1212 -0.0588 -0.2715
 4895TIP3   OH214690   2.250   4.838   3.361 -0.1971  0.7880  0.1500
 4895TIP3    H114691   2.300   4.757   3.372 -0.7286  0.3894 -0.3452
 4895TIP3    H214692   2.180   4.831   3.426 -1.4079 -0.0722 -1.1905
 4896TIP3   OH214693   5.257   3.776   5.137  0.0578 -0.1335  0.1377
 4896TIP3    H114694   5.320   3.846   5.118 -0.6685  0.8947  1.3881
 4896TIP3    H214695   5.312   3.701   5.159  0.8538 -0.0820 -1.4736
 4897TIP3   OH214696   0.390   2.669   2.265  0.4712  0.2119 -0.3825
 4897TIP3    H114697   0.361   2.579   2.281  0.5464 -0.0497 -1.6624
 4897TIP3    H214698   0.475   2.659   2.222  0.2012  0.8739 -1.0931
 4898TIP3   OH214699   5.132   2.805   2.169  0.6432  0.1597  0.3599
 4898TIP3    H114700   5.062   2.809   2.234 -0.6457  0.1441 -0.9759
 4898TIP3    H214701   5.196   2.870   2.198  0.4929 -0.4273  2.0652
 4899TIP3   OH214702   1.983   4.731   1.547  0.9960 -0.1894  0.6478
 4899TIP3    H114703   1.924   4.661   1.517  0.3894  0.4487  0.3285
 4899TIP3    H214704   2.052   4.734   1.481  0.9467 -0.3959  0.5860
 4900TIP3   OH214705   0.862   0.523   0.759  0.1041 -0.3410  0.0947
 4900TIP3    H114706   0.810   0.495   0.834 -0.0984  0.4058  0.2404
 4900TIP3    H214707   0.948   0.483   0.773  0.8461  1.7347  2.0317
 4901TIP3   OH214708   0.678   5.969   1.148 -0.0868  0.2985 -0.2991
 4901TIP3    H114709   0.604   6.000   1.199 -1.1102 -0.1544 -1.4788
 4901TIP3    H214710   0.652   5.884   1.115  0.5647  0.5509 -1.5352
 4902TIP3   OH214711   2.113   2.754   3.657 -0.1762 -0.1845 -0.2883
 4902TIP3    H114712   2.199   2.742   3.697 -0.8379 -1.2527  0.8619
 4902TIP3    H214713   2.092   2.668   3.620 -0.4674  0.2500 -1.1465
 4903TIP3   OH214714   1.092   3.445   2.061 -0.4264  0.0292  0.2512
 4903TIP3    H114715   1.069   3.432   2.153 -1.1771 -0.1343  0.0453
 4903TIP3    H214716   1.011   3.429   2.013  0.4884 -2.5341 -0.6613
 4904TIP3   OH214717   0.811   3.457   4.388 -0.4821  0.1627 -0.1705
 4904TIP3    H114718   0.774   3.545   4.395  1.0725  0.7052  2.1679
 4904TIP3    H214719   0.899   3.470   4.353 -0.7001 -0.6185 -1.0503
 4905TIP3   OH214720   4.473   3.996   1.436  0.5341  0.0147  0.3674
 4905TIP3    H114721   4.488   3.910   1.474 -0.0853 -0.0043  0.5736
 4905TIP3    H214722   4.532   4.055   1.483  1.5726 -0.4299 -0.3402
 4906TIP3   OH214723   3.383   4.087   2.120 -0.4960 -0.8604 -0.4389
 4906TIP3    H114724   3.411   4.091   2.028 -0.6572 -2.0526 -0.5493
 4906TIP3    H214725   3.441   4.149   2.165 -0.7196  0.0889 -1.4104
 4907TIP3   OH214726   1.049   2.068   4.601  0.8888  0.4256 -0.5187
 4907TIP3    H114727   1.020   2.159   4.603  1.0858  0.5128 -1.2846
 4907TIP3    H214728   0.996   2.024   4.668  0.9607  1.1463  0.0198
 4908TIP3   OH214729   4.771   5.759   2.309  0.5836 -0.1479 -0.1357
 4908TIP3    H114730   4.711   5.828   2.280  2.3317  1.9371  0.8854
 4908TIP3    H214731   4.824   5.740   2.231  0.6781  0.3227 -0.1909
 4909TIP3   OH214732   3.523   2.535   1.854 -0.2922 -0.0525 -0.6981
 4909TIP3    H114733   3.437   2.518   1.893 -0.4815  1.4737 -0.3873
 4909TIP3    H214734   3.504   2.556   1.763 -0.1823 -0.2540 -0.7689
 4910TIP3   OH214735   2.488   0.041   0.764 -0.1853 -0.5368  0.2831
 4910TIP3    H114736   2.445   0.054   0.849  2.2312  0.1368  1.4852
 4910TIP3    H214737   2.500   0.130   0.730  0.2795 -0.7057 -0.0003
 4911TIP3   OH214738   0.344   5.323   2.511 -0.2060 -0.3092  0.0154
 4911TIP3    H114739   0.407   5.273   2.564 -2.3254 -2.5249  0.6492
 4911TIP3    H214740   0.279   5.354   2.574 -2.3970 -2.4004 -1.0746
 4912TIP3   OH214741   5.362   1.546   3.565 -0.3062 -0.0901  0.4312
 4912TIP3    H114742   5.430   1.527   3.628 -0.2942 -1.0955  0.1317
 4912TIP3    H214743   5.289   1.488   3.589 -0.6162  0.1307  0.0496
 4913TIP3   OH214744   0.177   3.236   0.738 -0.3846 -0.0492 -0.2293
 4913TIP3    H114745   0.172   3.283   0.655 -0.1585  1.4453  0.5836
 4913TIP3    H214746   0.246   3.171   0.724  1.0234  1.4577 -0.6273
 4914TIP3   OH214747   4.846   3.355   0.741 -0.3581 -0.3715  0.5660
 4914TIP3    H114748   4.755   3.368   0.768 -0.5821 -1.8617  0.6112
 4914TIP3    H214749   4.846   3.376   0.648 -0.9320 -1.1104  0.3866
 4915TIP3   OH214750   3.737   5.541   2.269  0.2444  0.2636  0.6328
 4915TIP3    H114751   3.820   5.532   2.222  0.4145  1.0435  0.7694
 4915TIP3    H214752   3.700   5.453   2.270 -0.1701  0.3331 -1.7024
 4916TIP3   OH214753   4.763   4.416   1.899 -0.0257 -0.5995 -0.0010
 4916TIP3    H114754   4.785   4.323   1.907  0.7464 -0.7500 -2.7004
 4916TIP3    H214755   4.845   4.457   1.870 -0.9077  0.5340 -0.9615
 4917TIP3   OH214756   3.598   1.988   3.429  0.0851  0.1363  0.3423
 4917TIP3    H114757   3.672   2.042   3.401  0.0516 -0.9457 -2.0336
 4917TIP3    H214758   3.639   1.913   3.474  0.2088  1.1054  1.9461
 4918TIP3   OH214759   0.528   2.652   2.623 -0.2231  0.2045  0.1491
 4918TIP3    H114760   0.499   2.731   2.578  1.6478  0.4420 -0.7484
 4918TIP3    H214761   0.526   2.584   2.556 -0.5607 -0.2112  0.5736
 4919TIP3   OH214762   0.298   4.294   4.427 -0.4189 -0.2105 -0.0140
 4919TIP3    H114763   0.240   4.218   4.422  0.7134 -1.0522 -0.9572
 4919TIP3    H214764   0.239   4.369   4.416 -1.3246 -1.0439 -1.2470
 4920TIP3   OH214765   5.501   5.545   0.699 -0.8716 -0.3473  0.6340
 4920TIP3    H114766   5.548   5.572   0.778 -2.6080 -0.5915  1.7923
 4920TIP3    H214767   5.489   5.450   0.709  0.3689 -0.7040 -0.7819
 4921TIP3   OH214768   2.745   5.253   3.641  0.3962 -0.0364  0.4955
 4921TIP3    H114769   2.817   5.269   3.702 -0.5758 -1.5428  2.1338
 4921TIP3    H214770   2.728   5.159   3.648 -1.6634  0.2666  0.0987
 4922TIP3   OH214771   1.566   2.864   3.337  0.1536 -0.0532  0.2071
 4922TIP3    H114772   1.654   2.841   3.367 -0.1859 -0.1677  1.1377
 4922TIP3    H214773   1.569   2.853   3.242  1.2392  0.2600  0.1948
 4923TIP3   OH214774   1.958   3.861   0.567 -0.3625  0.3403  0.5128
 4923TIP3    H114775   1.942   3.798   0.637  0.1128 -0.7193 -0.3021
 4923TIP3    H214776   2.043   3.899   0.588 -0.3220  0.1855  0.6290
 4924TIP3   OH214777   3.613   5.445   4.222 -0.0356  0.1295 -0.2860
 4924TIP3    H114778   3.617   5.361   4.267  0.9627 -0.0474 -0.6781
 4924TIP3    H214779   3.704   5.469   4.207 -0.2308  2.0183  1.1503
 4925TIP3   OH214780   0.637   5.126   4.472  0.5434 -0.4936  0.3406
 4925TIP3    H114781   0.726   5.090   4.464  0.9283  0.9334 -3.3234
 4925TIP3    H214782   0.645   5.217   4.444 -2.1841 -0.5018 -0.7052
 4926TIP3   OH214783   3.560   1.068   4.425 -0.9317 -0.4728  0.0250
 4926TIP3    H114784   3.646   1.059   4.384 -1.4581 -0.7957 -1.0572
 4926TIP3    H214785   3.543   1.162   4.425 -0.2550 -0.3476  0.9457
 4927TIP3   OH214786   6.315   5.249   4.913 -0.0562 -0.0787  0.1852
 4927TIP3    H114787   6.361   5.164   4.912  0.2875  0.0306  2.2172
 4927TIP3    H214788   6.318   5.276   5.005 -0.9964  1.7022 -0.2770
 4928TIP3   OH214789   3.634   0.736   1.365  0.1563 -0.1152 -0.0302
 4928TIP3    H114790   3.702   0.697   1.420 -0.3911 -0.1223  0.6556
 4928TIP3    H214791   3.676   0.748   1.280  0.4260 -1.9151 -0.1735
 4929TIP3   OH214792   4.215   1.650   2.054 -0.7159 -0.4495 -0.1893
 4929TIP3    H114793   4.301   1.640   2.096 -0.0211 -0.0745 -1.4800
 4929TIP3    H214794   4.195   1.564   2.018  0.2691  0.0144 -1.9681
 4930TIP3   OH214795   0.284   5.587   4.721 -0.4333 -0.0544 -0.0309
 4930TIP3    H114796   0.217   5.575   4.789 -0.8146 -3.8416 -0.8464
 4930TIP3    H214797   0.242   5.643   4.656 -2.5648 -1.5419 -0.0611
 4931TIP3   OH214798   2.132   0.858   3.601  0.2768  0.6407  0.5468
 4931TIP3    H114799   2.113   0.793   3.668 -1.7339 -0.0546 -0.6032
 4931TIP3    H214800   2.056   0.916   3.602 -1.0790 -0.8037 -2.6247
 4932TIP3   OH214801   4.384   2.887   3.424  0.0856  0.2216  0.1142
 4932TIP3    H114802   4.472   2.924   3.420  0.5172 -0.8197 -2.8614
 4932TIP3    H214803   4.395   2.804   3.469  0.4497  0.5305  0.5988
 4933TIP3   OH214804   6.016   5.098   1.280  0.2477  0.4764 -0.1783
 4933TIP3    H114805   5.954   5.069   1.347 -0.4536 -1.6563 -1.6331
 4933TIP3    H214806   5.964   5.105   1.201  1.3062  1.7105 -0.8046
 4934TIP3   OH214807   3.559   5.878   2.291 -0.4536 -0.2091  0.1642
 4934TIP3    H114808   3.572   5.914   2.203  0.3846  0.2826  0.4771
 4934TIP3    H214809   3.491   5.812   2.280  0.9452 -1.5076 -1.2235
 4935TIP3   OH214810   3.157   3.066   4.294 -0.3847 -0.3203 -0.1722
 4935TIP3    H114811   3.157   2.980   4.252 -0.5910 -0.2853 -0.2425
 4935TIP3    H214812   3.247   3.097   4.284 -0.7641  0.3181 -1.8647
 4936TIP3   OH214813   5.280   0.776   4.462 -0.0648  0.0090  0.1428
 4936TIP3    H114814   5.345   0.835   4.423  0.7982 -0.0805  1.3993
 4936TIP3    H214815   5.205   0.782   4.403  0.9758  0.3157 -1.2062
 4937TIP3   OH214816   3.000   1.888   0.365  0.1414 -0.1763 -0.2402
 4937TIP3    H114817   2.977   1.912   0.275 -1.2409  1.8845  0.5869
 4937TIP3    H214818   2.992   1.969   0.414  0.7252 -1.2826  1.7886
 4938TIP3   OH214819   0.931   3.836   4.303 -0.1826 -0.3765 -0.2859
 4938TIP3    H114820   0.899   3.778   4.234 -0.9822 -1.2014  0.7335
 4938TIP3    H214821   0.941   3.921   4.261 -2.0363 -0.5195 -1.0855
 4939TIP3   OH214822   5.458   3.199   2.219 -0.2176 -0.3640 -0.0821
 4939TIP3    H114823   5.409   3.133   2.269  0.1100 -0.6002 -0.0642
 4939TIP3    H214824   5.482   3.154   2.138  0.4331 -0.4373  0.1397
 4940TIP3   OH214825   6.306   1.563   5.148  0.4468 -0.1526 -0.0472
 4940TIP3    H114826   6.217   1.532   5.131  0.7770 -0.5223 -1.2093
 4940TIP3    H214827   6.341   1.500   5.211  0.3184 -0.8067 -0.6088
 4941TIP3   OH214828   4.929   1.055   1.766 -0.1383  0.2071  0.4402
 4941TIP3    H114829   4.951   1.099   1.848  1.0506  0.6517 -0.1039
 4941TIP3    H214830   4.844   1.091   1.741  0.1393  1.0925  0.7617
 4942TIP3   OH214831   0.385   5.000   2.318 -0.3777 -0.6556  0.0841
 4942TIP3    H114832   0.336   5.055   2.379 -0.0243  1.2379 -1.2440
 4942TIP3    H214833   0.323   4.982   2.247 -0.3490 -1.6408  0.2945
 4943TIP3   OH214834   0.519   4.342   2.082 -0.3746 -0.1435 -0.5986
 4943TIP3    H114835   0.455   4.386   2.026 -1.1685  1.1716  1.2337
 4943TIP3    H214836   0.483   4.254   2.096 -0.5103 -0.2459 -1.5481
 4944TIP3   OH214837   0.921   2.791   2.653  0.6337 -0.0824 -0.2547
 4944TIP3    H114838   0.900   2.762   2.564  0.4875 -0.9091  0.0393
 4944TIP3    H214839   0.881   2.878   2.660  0.3788 -0.1420 -0.8929
 4945TIP3   OH214840   3.548   5.832   0.667  0.9647  0.1077  0.4203
 4945TIP3    H114841   3.558   5.924   0.641  0.3399 -0.1245 -0.7151
 4945TIP3    H214842   3.454   5.817   0.667  1.1046 -0.9161 -0.8581
 4946TIP3   OH214843   0.282   3.356   4.167  0.3205  0.1172  0.2660
 4946TIP3    H114844   0.260   3.281   4.223  0.2287  2.0478  2.9802
 4946TIP3    H214845   0.204   3.411   4.168  0.4141  0.3517 -1.6176
 4947TIP3   OH214846   1.535   2.595   0.323 -0.0837 -0.0960 -0.6712
 4947TIP3    H114847   1.441   2.611   0.325 -0.4677 -2.0829 -0.8380
 4947TIP3    H214848   1.552   2.547   0.404  0.7113 -0.0907 -0.8321
 4948TIP3   OH214849   1.261   5.757   4.531  0.3699 -0.0763 -0.2329
 4948TIP3    H114850   1.325   5.758   4.602  0.7531  1.0939 -0.5574
 4948TIP3    H214851   1.178   5.780   4.573  0.6611  0.9728 -0.1939
 4949TIP3   OH214852   1.054   3.818   2.879  0.0228 -0.0940 -0.5489
 4949TIP3    H114853   1.108   3.878   2.827  0.8671 -1.4166 -1.2400
 4949TIP3    H214854   1.110   3.742   2.894 -0.9786 -0.6616  0.4349
 4950TIP3   OH214855   0.470   3.484   4.545 -0.1260  0.8396 -0.4112
 4950TIP3    H114856   0.431   3.398   4.534  1.0489  0.3765 -1.0542
 4950TIP3    H214857   0.491   3.489   4.639 -2.5604  1.4958  0.1591
 4951TIP3   OH214858   3.302   5.042   0.987  0.8900 -0.6926  0.1086
 4951TIP3    H114859   3.301   4.970   1.050  0.9694 -0.7048  0.0961
 4951TIP3    H214860   3.215   5.081   0.994  0.9256 -0.6426  0.2840
 4952TIP3   OH214861   3.707   2.266   4.267  0.8692 -0.2522 -0.1612
 4952TIP3    H114862   3.704   2.299   4.357  1.9967 -1.8922  0.5241
 4952TIP3    H214863   3.682   2.174   4.275  0.7657 -0.3587 -1.5811
 4953TIP3   OH214864   4.122   0.308   1.681  0.6407  0.3327  0.7363
 4953TIP3    H114865   4.172   0.229   1.662 -0.3238 -0.1459  0.1041
 4953TIP3    H214866   4.030   0.283   1.667  0.3960  2.0222 -1.2968
 4954TIP3   OH214867   2.478   5.119   2.353 -0.2842 -0.5140  0.0707
 4954TIP3    H114868   2.438   5.095   2.437  0.8760 -0.2331  0.7256
 4954TIP3    H214869   2.558   5.067   2.349 -0.2131 -0.3499 -0.7589
 4955TIP3   OH214870   5.985   1.552   1.000  0.2186  0.2310 -0.1101
 4955TIP3    H114871   5.934   1.472   1.013  2.0423 -0.8599  0.7565
 4955TIP3    H214872   5.980   1.598   1.084 -2.5180  2.1544 -1.2067
 4956TIP3   OH214873   0.364   4.890   3.280 -0.0065 -0.1026  0.0271
 4956TIP3    H114874   0.411   4.814   3.248 -0.8979 -0.5435 -0.2487
 4956TIP3    H214875   0.417   4.921   3.354 -1.3455 -3.0551  2.4445
 4957TIP3   OH214876   1.651   2.708   4.614 -0.1651 -0.2125 -0.2205
 4957TIP3    H114877   1.559   2.724   4.635  0.2398  0.5935  1.0690
 4957TIP3    H214878   1.654   2.616   4.588 -1.1090 -0.6878  1.2309
 4958TIP3   OH214879   1.660   5.661   3.171 -0.2318 -0.2974 -0.5040
 4958TIP3    H114880   1.755   5.662   3.175 -0.1029 -1.2089 -2.3775
 4958TIP3    H214881   1.633   5.630   3.257  1.0751  1.3826  0.5691
 4959TIP3   OH214882   3.109   5.751   4.321 -0.3911 -0.4802 -0.4219
 4959TIP3    H114883   3.057   5.828   4.296 -0.5655 -0.5995 -0.4318
 4959TIP3    H214884   3.167   5.737   4.247  1.8770  1.5326  0.8353
 4960TIP3   OH214885   0.363   2.932   4.053 -0.2284 -0.4231  0.2349
 4960TIP3    H114886   0.339   2.967   4.139 -0.9176  0.8986 -0.4529
 4960TIP3    H214887   0.448   2.972   4.033 -0.3965 -0.1636  0.0197
 4961TIP3   OH214888   1.148   2.529   0.497  0.0042 -0.3116  0.1011
 4961TIP3    H114889   1.146   2.521   0.592 -1.4652 -1.0417  0.0370
 4961TIP3    H214890   1.104   2.612   0.480 -1.5865 -1.1239  0.0148
 4962TIP3   OH214891   2.981   1.959   2.023  0.5845  1.0703  0.4586
 4962TIP3    H114892   2.911   1.983   2.083  0.7746 -0.1076  1.1858
 4962TIP3    H214893   2.950   1.987   1.937 -1.9769 -1.6837  0.3176
 4963TIP3   OH214894   6.137   2.518   0.757 -0.4934  0.6951  0.2215
 4963TIP3    H114895   6.058   2.551   0.714 -0.2155  0.0832 -0.7956
 4963TIP3    H214896   6.202   2.587   0.743 -0.4730  0.6056 -0.1365
 4964TIP3   OH214897   5.810   0.272   2.491  0.2580 -0.2156 -0.0743
 4964TIP3    H114898   5.873   0.264   2.419  1.8147 -2.4014  1.3814
 4964TIP3    H214899   5.845   0.341   2.547  2.3632 -2.4028  1.5041
 4965TIP3   OH214900   5.255   3.320   2.616 -0.9374 -0.0295 -0.2182
 4965TIP3    H114901   5.350   3.307   2.626 -0.8818  0.9786  0.8224
 4965TIP3    H214902   5.237   3.297   2.525  0.7474  2.1959 -1.2137
 4966TIP3   OH214903   1.118   1.259   1.309 -0.0199 -0.4695  0.0398
 4966TIP3    H114904   1.165   1.290   1.386 -1.3461 -0.5379  0.9098
 4966TIP3    H214905   1.058   1.192   1.343 -1.7120  0.5490 -0.7743
 4967TIP3   OH214906   4.156   4.541   2.461  0.5255 -0.3204 -0.5807
 4967TIP3    H114907   4.223   4.541   2.529 -1.2587  0.3822  1.2713
 4967TIP3    H214908   4.126   4.632   2.457  0.1352 -0.4898 -1.8527
 4968TIP3   OH214909   3.416   5.967   0.273  0.5809  0.1127  0.1025
 4968TIP3    H114910   3.395   5.898   0.335  2.4928 -1.4489 -0.8522
 4968TIP3    H214911   3.489   6.015   0.313 -1.6370  2.6353  1.4175
 4969TIP3   OH214912   5.972   5.581   2.442 -0.4007  0.2326 -0.0775
 4969TIP3    H114913   6.035   5.600   2.373 -0.1044  1.3700  0.4664
 4969TIP3    H214914   5.896   5.545   2.397 -0.3881  1.3658 -1.0637
 4970TIP3   OH214915   1.508   1.470   4.482 -0.4387 -0.3982 -0.0630
 4970TIP3    H114916   1.465   1.499   4.403  0.3157  0.9531 -0.0034
 4970TIP3    H214917   1.558   1.392   4.456  0.2683  0.3737 -1.0590
 4971TIP3   OH214918   4.921   4.397   1.258 -0.1863 -0.2519 -0.5155
 4971TIP3    H114919   4.900   4.328   1.322 -0.1478 -0.6258 -0.8986
 4971TIP3    H214920   4.861   4.468   1.279  0.2744 -0.1122  0.3577
 4972TIP3   OH214921   4.081   1.952   2.304 -0.0492 -0.2116  0.0841
 4972TIP3    H114922   3.990   1.974   2.325 -0.1659 -0.6589  0.0617
 4972TIP3    H214923   4.083   1.949   2.208 -0.5105 -2.1873  0.0985
 4973TIP3   OH214924   3.993   5.066   1.828 -0.3727  0.7916  0.2912
 4973TIP3    H114925   3.920   5.019   1.867 -0.9270  1.6945  0.3866
 4973TIP3    H214926   4.071   5.031   1.870 -0.8993  1.1390  1.5868
 4974TIP3   OH214927   4.956   3.790   3.230 -0.9599 -0.0925 -0.1038
 4974TIP3    H114928   4.966   3.739   3.310  0.5501  1.3086  0.6768
 4974TIP3    H214929   5.045   3.798   3.195 -1.4376  0.2835 -1.2931
 4975TIP3   OH214930   1.511   5.045   0.772 -0.0459  0.3989  0.0864
 4975TIP3    H114931   1.510   4.999   0.856  1.5065  0.8342  0.3744
 4975TIP3    H214932   1.475   5.131   0.791  0.8957  0.7218  0.4667
 4976TIP3   OH214933   3.384   0.643   3.427  0.0366 -0.1066 -0.3260
 4976TIP3    H114934   3.310   0.701   3.443 -1.4607 -0.8629 -3.6661
 4976TIP3    H214935   3.351   0.556   3.448  1.3732 -0.1473  1.9524
 4977TIP3   OH214936   6.300   3.688   4.782 -0.1565 -0.3606  0.6280
 4977TIP3    H114937   6.222   3.671   4.835 -0.3288 -2.2363 -0.1482
 4977TIP3    H214938   6.373   3.680   4.843 -0.5084  0.8475  1.2415
 4978TIP3   OH214939   3.840   0.124   4.154  0.3230  0.6442  0.0523
 4978TIP3    H114940   3.838   0.219   4.139 -0.6414  0.4944 -0.8980
 4978TIP3    H214941   3.766   0.090   4.103  0.0242 -0.5055  1.2042
 4979TIP3   OH214942   4.174   1.451   2.819 -0.5586 -0.3599 -0.2936
 4979TIP3    H114943   4.213   1.365   2.830 -0.0023 -0.4445 -2.4336
 4979TIP3    H214944   4.233   1.511   2.865  0.7567 -0.7917 -1.3489
 4980TIP3   OH214945   0.127   5.701   3.685  0.2036  0.1622  0.0882
 4980TIP3    H114946   0.150   5.778   3.633 -1.1048  1.6214  1.5630
 4980TIP3    H214947   0.206   5.646   3.683  1.2652  1.6538 -0.7726
 4981TIP3   OH214948   0.972   5.724   2.703  0.0917 -0.0889 -0.1025
 4981TIP3    H114949   0.935   5.723   2.791  0.9539 -1.5590  0.2768
 4981TIP3    H214950   1.061   5.690   2.713  0.9553  1.6511 -1.2596
 4982TIP3   OH214951   5.642   5.717   3.462 -0.4343  0.1333  0.0402
 4982TIP3    H114952   5.688   5.731   3.545 -0.1134  0.6235 -0.2112
 4982TIP3    H214953   5.684   5.640   3.423 -1.6044 -1.0276  1.0263
 4983TIP3   OH214954   2.906   4.376   1.995 -0.5380  0.5884 -0.2175
 4983TIP3    H114955   2.912   4.382   1.900  2.4252 -0.9344 -0.2469
 4983TIP3    H214956   2.853   4.298   2.011  0.7951 -0.4418 -0.7028
 4984TIP3   OH214957   2.917   1.603   4.593 -0.2031  0.4910 -0.0403
 4984TIP3    H114958   3.002   1.559   4.586 -0.4910 -0.0845  0.0487
 4984TIP3    H214959   2.920   1.670   4.525 -0.0250 -0.1180 -0.6449
 4985TIP3   OH214960   4.437   3.885   3.821  0.2181 -0.3124  0.1610
 4985TIP3    H114961   4.453   3.974   3.855 -1.2082  0.0057  0.0567
 4985TIP3    H214962   4.465   3.889   3.730  0.6895 -0.1452  0.3057
 4986TIP3   OH214963   0.987   2.696   1.727 -0.2752 -0.6799 -0.0779
 4986TIP3    H114964   0.936   2.708   1.807 -0.5774 -0.1771 -0.3363
 4986TIP3    H214965   1.070   2.740   1.744 -1.0275  1.0664 -0.6838
 4987TIP3   OH214966   6.199   3.584   2.423  0.2177 -0.2450  0.2977
 4987TIP3    H114967   6.223   3.513   2.483  2.0317 -0.0216 -0.1059
 4987TIP3    H214968   6.270   3.587   2.359  0.1457  1.8810  0.2389
 4988TIP3   OH214969   5.063   0.474   1.647  0.1604  0.3714  0.6145
 4988TIP3    H114970   4.988   0.464   1.707  0.0434 -0.6266  0.3227
 4988TIP3    H214971   5.093   0.564   1.661 -0.3345  0.3953  1.6274
 4989TIP3   OH214972   4.522   5.671   2.829  0.0011 -0.1611  0.3766
 4989TIP3    H114973   4.534   5.582   2.862  2.0712 -0.1179 -0.1196
 4989TIP3    H214974   4.554   5.668   2.739 -0.6376  0.9191  0.0902
 4990TIP3   OH214975   3.300   4.450   0.056 -0.0107  0.7612 -0.3938
 4990TIP3    H114976   3.236   4.515   0.029  0.1947  0.1905 -2.4477
 4990TIP3    H214977   3.384   4.486   0.027  0.3609  0.6031  0.4814
 4991TIP3   OH214978   5.807   0.343   2.989 -0.6531  0.3187  0.2662
 4991TIP3    H114979   5.809   0.432   3.023  0.6652  1.4297 -2.4603
 4991TIP3    H214980   5.752   0.348   2.911  0.7085 -0.8876 -0.8215
 4992TIP3   OH214981   0.123   5.790   4.591  0.1015 -0.3643 -0.9801
 4992TIP3    H114982   0.147   5.842   4.667  0.1917 -1.9352  0.1235
 4992TIP3    H214983   0.032   5.765   4.607  0.5779 -1.9842 -0.5714
 4993TIP3   OH214984   3.674   1.494   1.036  0.3279 -0.1503  0.3452
 4993TIP3    H114985   3.766   1.515   1.019 -0.1416  1.6132 -0.2892
 4993TIP3    H214986   3.640   1.569   1.084 -0.9142 -0.5007  0.0743
 4994TIP3   OH214987   5.385   2.047   4.796  0.0465  0.4242  0.0048
 4994TIP3    H114988   5.475   2.023   4.776 -0.3410 -0.4892 -0.7342
 4994TIP3    H214989   5.370   2.127   4.746  0.2192  0.1697 -0.4585
 4995TIP3   OH214990   6.104   5.617   2.682  0.1843  0.1369 -0.0160
 4995TIP3    H114991   6.191   5.627   2.645 -0.0470  1.4236 -0.2636
 4995TIP3    H214992   6.046   5.605   2.607  0.3363 -2.8555  0.2135
 4996TIP3   OH214993   3.437   5.861   1.615 -0.2214 -0.4153 -0.3578
 4996TIP3    H114994   3.372   5.931   1.618  0.3685  0.1209  0.4224
 4996TIP3    H214995   3.505   5.893   1.556 -0.2917 -0.6539 -0.5751
 4997TIP3   OH214996   4.427   5.381   4.320  1.0948 -0.1176 -0.3365
 4997TIP3    H114997   4.485   5.425   4.383 -0.3551 -2.2725  2.7297
 4997TIP3    H214998   4.434   5.288   4.341 -2.2190 -0.6306 -0.9309
 4998TIP3   OH214999   2.645   5.260   1.777 -0.1627  0.4629  0.2503
 4998TIP3    H115000   2.629   5.185   1.721 -4.0989  0.5068  1.0416
 4998TIP3    H215001   2.671   5.222   1.861 -0.4568  0.0810  0.1697
 4999TIP3   OH215002   1.328   3.090   2.018 -0.3421 -0.7335  0.3201
 4999TIP3    H115003   1.316   2.996   2.036  1.5934 -1.3134 -1.1129
 4999TIP3    H215004   1.310   3.132   2.101 -0.9081 -2.4095  1.1023
 5000TIP3   OH215005   0.441   5.177   1.345  0.8875 -0.1513 -0.0444
 5000TIP3    H115006   0.392   5.099   1.320  0.0406  0.3158  0.1166
 5000TIP3    H215007   0.485   5.205   1.265  0.4564 -0.2648 -0.3232
 5001TIP3   OH215008   1.980   5.798   2.883  0.4573  0.7908  0.1016
 5001TIP3    H115009   2.005   5.888   2.903  0.7139  0.4415  1.4953
 5001TIP3    H215010   1.885   5.801   2.872  0.2814  1.0264  1.5187
 5002TIP3   OH215011   3.246   5.143   2.283 -0.2315  0.6181  0.3196
 5002TIP3    H115012   3.228   5.235   2.266  2.5761  1.1444 -0.2220
 5002TIP3    H215013   3.191   5.096   2.220 -0.1570  2.0159 -0.8457
 5003TIP3   OH215014   1.612   5.504   0.211  0.0728 -0.0152  0.1743
 5003TIP3    H115015   1.615   5.409   0.205 -0.2096  0.0275 -0.8608
 5003TIP3    H215016   1.556   5.522   0.287  0.7145 -0.6616  0.8191
 5004TIP3   OH215017   0.120   2.173   4.803 -0.1513  0.1407 -0.3495
 5004TIP3    H115018   0.029   2.199   4.794 -0.8675 -2.0173  0.0568
 5004TIP3    H215019   0.118   2.096   4.860  2.0821  0.8655  0.8466
 5005TIP3   OH215020   4.970   0.695   2.114  0.6347 -0.6625  0.1408
 5005TIP3    H115021   5.017   0.653   2.185  0.1360 -1.3847  0.0532
 5005TIP3    H215022   5.020   0.774   2.095  2.0001 -1.5867 -0.1957
 5006TIP3   OH215023   1.607   3.112   0.700 -0.0778  0.4841 -0.5445
 5006TIP3    H115024   1.691   3.139   0.663  2.0682 -1.4076  2.4443
 5006TIP3    H215025   1.610   3.017   0.702 -2.0508  0.3825  0.1974
 5007TIP3   OH215026   3.681   4.623   5.146  0.2187  0.5218  0.2396
 5007TIP3    H115027   3.631   4.662   5.074  1.0953  0.4253 -0.4505
 5007TIP3    H215028   3.615   4.590   5.206 -0.5405  0.8597 -0.3869
 5008TIP3   OH215029   0.258   1.776   0.755 -0.4652 -0.0878  0.2914
 5008TIP3    H115030   0.303   1.694   0.735  1.2759  0.5605  1.3392
 5008TIP3    H215031   0.207   1.795   0.677  1.6526 -0.4890 -1.2792
 5009TIP3   OH215032   3.363   2.926   3.052  0.3528  0.4089  0.1341
 5009TIP3    H115033   3.305   2.994   3.017  1.2751  0.4244 -1.4747
 5009TIP3    H215034   3.451   2.957   3.032  0.8549 -0.5045  0.8343
 5010TIP3   OH215035   4.088   0.020   3.245  0.0019  0.1554 -0.4424
 5010TIP3    H115036   4.002   0.017   3.287  0.7681 -0.0634  1.2163
 5010TIP3    H215037   4.120   0.108   3.264  0.3014  0.1084 -0.7272
 5011TIP3   OH215038   1.584   3.895   3.740 -0.6954  0.0974 -0.2870
 5011TIP3    H115039   1.593   3.836   3.665 -3.1518 -1.5629  0.6155
 5011TIP3    H215040   1.600   3.839   3.816 -0.5249  1.2210  0.5203
 5012TIP3   OH215041   0.988   3.607   3.718  0.3969  0.0871  0.0485
 5012TIP3    H115042   0.979   3.700   3.694 -0.0592 -0.0404 -0.2822
 5012TIP3    H215043   0.972   3.560   3.636  0.1050 -0.3043  0.3323
 5013TIP3   OH215044   4.004   3.638   4.698  0.2497 -0.4359 -0.2480
 5013TIP3    H115045   3.999   3.593   4.614  1.9716  0.8591 -1.1088
 5013TIP3    H215046   4.074   3.702   4.687 -1.2087  1.5854  1.3165
 5014TIP3   OH215047   2.285   4.513   1.958 -0.3044 -0.4266 -0.1565
 5014TIP3    H115048   2.380   4.522   1.956 -0.1045 -1.7661  1.5112
 5014TIP3    H215049   2.269   4.419   1.961 -1.6570 -0.2090  0.2253
 5015TIP3   OH215050   1.987   1.570   0.722  0.5046 -0.1435  0.8036
 5015TIP3    H115051   1.982   1.665   0.730 -2.6253  0.0578 -1.5630
 5015TIP3    H215052   2.010   1.554   0.631 -0.7055 -1.5676  0.7011
 5016TIP3   OH215053   5.758   5.650   5.028 -0.1383 -0.0823  0.1697
 5016TIP3    H115054   5.716   5.625   5.110  1.6271  1.2261  1.5560
 5016TIP3    H215055   5.801   5.733   5.047  1.6980 -0.5349 -1.5949
 5017TIP3   OH215056   0.928   0.315   4.555 -0.6581  0.3153  0.3572
 5017TIP3    H115057   0.911   0.224   4.580 -1.8560 -0.1100 -1.7418
 5017TIP3    H215058   1.016   0.333   4.589 -0.3917 -1.6177  0.8271
 5018TIP3   OH215059   0.199   4.998   2.115 -0.1772 -0.5408 -0.1433
 5018TIP3    H115060   0.163   4.914   2.087 -1.5260 -0.2900  0.7487
 5018TIP3    H215061   0.246   5.031   2.039 -0.9736 -1.3704 -1.0165
 5019TIP3   OH215062   0.956   3.442   0.380 -0.1590  0.7172 -0.0058
 5019TIP3    H115063   0.969   3.497   0.458  3.5615  0.8131 -0.5354
 5019TIP3    H215064   1.015   3.479   0.315 -1.3442 -0.8830 -2.0878
 5020TIP3   OH215065   3.447   5.630   1.765  0.4201 -0.2528 -0.1981
 5020TIP3    H115066   3.447   5.714   1.720 -0.1020  0.3700  0.9288
 5020TIP3    H215067   3.496   5.645   1.846 -1.1679 -0.5130  0.8810
 5021TIP3   OH215068   5.540   0.539   0.287 -0.0201 -0.0384  0.4899
 5021TIP3    H115069   5.499   0.453   0.284  0.8375 -0.4408 -1.8320
 5021TIP3    H215070   5.498   0.583   0.361 -3.2076 -1.1026 -0.5086
 5022TIP3   OH215071   2.535   0.330   4.894 -0.3879 -0.0331 -0.3422
 5022TIP3    H115072   2.601   0.395   4.919  0.0752 -0.2222 -1.0268
 5022TIP3    H215073   2.468   0.337   4.961  0.5680 -0.1931  0.6623
 5023TIP3   OH215074   1.528   0.890   2.437 -0.8351  0.0923  0.0548
 5023TIP3    H115075   1.464   0.919   2.502  0.1661 -1.1350  1.6603
 5023TIP3    H215076   1.569   0.813   2.476  0.5570 -0.0646 -1.5894
 5024TIP3   OH215077   5.656   1.558   0.217  0.2193  0.6838 -0.3472
 5024TIP3    H115078   5.715   1.631   0.201 -0.9541  1.5629 -0.7476
 5024TIP3    H215079   5.580   1.597   0.261 -1.5520  0.1915 -2.7507
 5025TIP3   OH215080   5.639   2.189   0.502  0.1638 -0.2719 -0.3011
 5025TIP3    H115081   5.544   2.194   0.515  0.3317 -0.2269  1.0889
 5025TIP3    H215082   5.675   2.201   0.590  1.4710 -0.0207 -0.8567
 5026TIP3   OH215083   0.476   2.335   0.848 -0.8503  0.2276 -0.7270
 5026TIP3    H115084   0.509   2.416   0.887 -1.1969 -0.0884  0.2581
 5026TIP3    H215085   0.530   2.266   0.886 -0.9819 -0.0607 -1.0620
 5027TIP3   OH215086   2.942   2.167   4.358  0.5421  0.5450  0.2371
 5027TIP3    H115087   2.873   2.222   4.394  0.5355  1.3824 -0.9842
 5027TIP3    H215088   2.969   2.111   4.431 -2.5740 -1.0320  0.3138
 5028TIP3   OH215089   5.071   1.416   3.376  0.3991  0.1827 -0.0147
 5028TIP3    H115090   4.976   1.428   3.380  0.3937  0.4427 -0.6549
 5028TIP3    H215091   5.101   1.422   3.466 -0.1029  0.9300  0.1097
 5029TIP3   OH215092   4.204   0.743   3.346  0.3311 -0.4243 -0.0199
 5029TIP3    H115093   4.119   0.786   3.359  1.2252  1.4948 -0.1868
 5029TIP3    H215094   4.225   0.760   3.254  1.2205 -0.2480  0.2103
 5030TIP3   OH215095   1.241   4.564   1.274  0.0111 -0.0338  0.3008
 5030TIP3    H115096   1.261   4.657   1.266 -1.5739  0.2799 -0.6216
 5030TIP3    H215097   1.248   4.546   1.367 -0.6410  1.2747  0.6353
 5031TIP3   OH215098   2.710   3.641   3.417  0.3540 -0.1624  0.2298
 5031TIP3    H115099   2.637   3.698   3.442  0.5359  0.1438  0.0738
 5031TIP3    H215100   2.711   3.573   3.485  0.2933  0.1664  0.5660
 5032TIP3   OH215101   4.807   2.573   2.339  0.4648  0.2704 -0.4847
 5032TIP3    H115102   4.841   2.662   2.337 -0.8760  0.7887 -1.0313
 5032TIP3    H215103   4.712   2.583   2.330  0.3320 -1.2380 -1.0368
 5033TIP3   OH215104   3.536   5.125   1.292  0.4491  0.0344  0.1639
 5033TIP3    H115105   3.504   5.205   1.251  0.8165  1.2083  2.0834
 5033TIP3    H215106   3.628   5.143   1.312  1.1347 -1.6325 -1.1779
 5034TIP3   OH215107   0.648   2.352   2.763 -0.5711  0.3909 -0.1009
 5034TIP3    H115108   0.582   2.284   2.772 -1.2262  1.1455  1.0417
 5034TIP3    H215109   0.642   2.380   2.671 -0.0906 -1.2482 -0.6710
 5035TIP3   OH215110   3.951   2.311   4.983  0.1900  0.6251 -0.0753
 5035TIP3    H115111   3.901   2.296   5.064  0.2665 -0.1588 -0.1652
 5035TIP3    H215112   3.890   2.287   4.913  0.2471  0.9481 -0.2342
 5036TIP3   OH215113   0.166   1.183   2.673 -0.0688  0.1108 -0.2966
 5036TIP3    H115114   0.127   1.112   2.723 -2.1318  0.0111 -1.9420
 5036TIP3    H215115   0.225   1.226   2.735 -1.4986 -0.8126  1.8160
 5037TIP3   OH215116   0.972   4.606   2.402  0.1629  0.5845  0.3370
 5037TIP3    H115117   1.006   4.655   2.477 -1.1476  1.0725  0.6482
 5037TIP3    H215118   1.010   4.518   2.411  0.0862  0.6572  1.5442
 5038TIP3   OH215119   2.508   4.225   3.701  0.0147  0.4045  0.5306
 5038TIP3    H115120   2.590   4.238   3.654  0.0103  1.4492  0.7912
 5038TIP3    H215121   2.440   4.245   3.637 -0.1660 -2.6053 -0.3841
 5039TIP3   OH215122   4.440   0.310   4.238 -0.1479 -0.0735 -0.4276
 5039TIP3    H115123   4.369   0.372   4.221  0.8490  1.0616 -0.5195
 5039TIP3    H215124   4.424   0.279   4.327  0.7001  2.1974  0.5813
 5040TIP3   OH215125   4.627   1.967   1.026  0.6589  0.0211  0.6771
 5040TIP3    H115126   4.708   1.925   1.058  0.5726 -0.6588  0.0215
 5040TIP3    H215127   4.578   1.896   0.986  0.5534  0.7685 -0.5566
 5041TIP3   OH215128   3.472   3.112   1.879 -0.6215 -0.2859 -0.2135
 5041TIP3    H115129   3.430   3.171   1.816 -0.3927  0.4352  0.2960
 5041TIP3    H215130   3.557   3.092   1.840 -0.0080  1.0679  0.3649
 5042TIP3   OH215131   5.823   4.779   1.149  0.4614  0.2501 -0.0473
 5042TIP3    H115132   5.862   4.779   1.236 -1.5282 -0.4671  0.9275
 5042TIP3    H215133   5.843   4.865   1.114  3.1017 -0.1740  0.2139
 5043TIP3   OH215134   5.123   0.514   4.643  0.2617 -0.0363 -0.4242
 5043TIP3    H115135   5.117   0.554   4.556 -0.5340 -1.1921 -0.9326
 5043TIP3    H215136   5.208   0.469   4.643  0.4687  0.3511 -0.4256
 5044TIP3   OH215137   4.629   4.170   0.899 -1.0001 -0.1124 -0.1004
 5044TIP3    H115138   4.717   4.140   0.877 -0.8086 -0.6182  1.2507
 5044TIP3    H215139   4.644   4.247   0.953 -1.3789 -0.3725  0.3748
 5045TIP3   OH215140   2.877   3.570   4.655 -0.1604 -0.1785 -0.6374
 5045TIP3    H115141   2.931   3.533   4.585 -1.1995  0.3758 -1.7677
 5045TIP3    H215142   2.938   3.618   4.710  0.8222 -1.4247 -0.5955
 5046TIP3   OH215143   3.524   3.639   2.419  0.5619  0.4134 -0.2270
 5046TIP3    H115144   3.518   3.732   2.397  0.4560 -0.2641 -3.6537
 5046TIP3    H215145   3.606   3.610   2.379 -0.2412 -1.2943 -0.7289
 5047TIP3   OH215146   5.511   5.450   4.789 -0.4371 -0.3564 -0.2488
 5047TIP3    H115147   5.505   5.498   4.706  0.0402  1.3958  0.6842
 5047TIP3    H215148   5.590   5.396   4.779  0.3937  0.8550 -0.4646
 5048TIP3   OH215149   1.973   3.813   4.816  0.2197 -0.1060 -0.2727
 5048TIP3    H115150   1.983   3.898   4.775  0.3862 -0.7395 -1.5907
 5048TIP3    H215151   1.880   3.792   4.805  0.4525 -0.7017 -1.2325
 5049TIP3   OH215152   3.929   3.609   4.953 -0.5802 -0.4368 -0.2564
 5049TIP3    H115153   3.938   3.612   4.857 -4.2342  1.4076 -0.7118
 5049TIP3    H215154   3.871   3.534   4.968 -0.7576 -0.1644  0.4206
 5050TIP3   OH215155   5.954   1.672   4.302  0.2092  0.2384  0.0316
 5050TIP3    H115156   6.043   1.664   4.268 -0.0953  0.2674 -0.8146
 5050TIP3    H215157   5.902   1.612   4.248 -0.2461  0.0613  0.6547
 5051TIP3   OH215158   1.175   0.456   3.525 -0.3214 -0.3014 -0.4396
 5051TIP3    H115159   1.135   0.453   3.613  1.8674 -1.8373  0.6025
 5051TIP3    H215160   1.117   0.402   3.471 -1.7018  0.6509  0.0407
 5052TIP3   OH215161   4.844   2.313   2.132 -0.1888 -0.1774 -0.1998
 5052TIP3    H115162   4.779   2.383   2.122  0.7707  1.0370  1.5209
 5052TIP3    H215163   4.865   2.314   2.225  1.2034 -1.5728 -0.4632
 5053TIP3   OH215164   2.601   0.993   0.107  0.3769  0.2993  0.2009
 5053TIP3    H115165   2.645   1.012   0.025 -2.0798  2.5606 -0.7275
 5053TIP3    H215166   2.514   1.033   0.099  0.2187  1.2025  4.1126
 5054TIP3   OH215167   6.326   1.850   3.394 -0.4333  0.1811 -0.1228
 5054TIP3    H115168   6.407   1.868   3.442 -2.0206  0.8243  2.5295
 5054TIP3    H215169   6.267   1.921   3.419 -2.2340 -0.9684 -0.9297
 5055TIP3   OH215170   3.736   0.423   2.769 -0.0430  0.5365  0.6745
 5055TIP3    H115171   3.642   0.411   2.784  0.0496  0.9379  1.6503
 5055TIP3    H215172   3.763   0.486   2.835  0.9221  0.4253  0.4023
 5056TIP3   OH215173   4.912   3.588   2.236  0.1644 -0.4827 -0.2832
 5056TIP3    H115174   4.983   3.624   2.289  0.7632 -0.3657 -1.1486
 5056TIP3    H215175   4.881   3.661   2.183 -2.2761  0.1234  1.7833
 5057TIP3   OH215176   0.652   0.618   2.566  0.3309 -0.2766  0.3656
 5057TIP3    H115177   0.687   0.531   2.549 -2.5344 -1.1717 -1.8344
 5057TIP3    H215178   0.626   0.650   2.479 -2.5135  0.9588  1.5592
 5058TIP3   OH215179   2.824   0.859   1.064  0.2649  0.1323  0.1958
 5058TIP3    H115180   2.782   0.805   1.130 -0.2262 -0.0438 -0.2575
 5058TIP3    H215181   2.907   0.814   1.045 -0.9619 -1.5452 -1.5570
 5059TIP3   OH215182   6.137   2.445   3.074  0.3014 -0.8963 -0.5689
 5059TIP3    H115183   6.171   2.357   3.087  1.7819 -0.3754 -0.7361
 5059TIP3    H215184   6.136   2.457   2.979 -1.7863 -1.4052 -0.6671
 5060TIP3   OH215185   6.264   5.104   1.723  0.1449 -0.2463 -0.2427
 5060TIP3    H115186   6.319   5.049   1.778 -0.7155  1.3748  2.4494
 5060TIP3    H215187   6.311   5.111   1.640  1.6868 -2.5604  0.3481
 5061TIP3   OH215188   6.244   1.502   1.982  0.4816 -0.0385 -0.4306
 5061TIP3    H115189   6.278   1.581   1.941  0.5593 -0.2530 -0.7872
 5061TIP3    H215190   6.311   1.436   1.966  0.0982 -0.3548 -0.7558
 5062TIP3   OH215191   5.894   4.178   2.152 -0.0071  0.1550  0.4387
 5062TIP3    H115192   5.822   4.162   2.092  1.2955 -1.5236 -0.7830
 5062TIP3    H215193   5.862   4.149   2.237 -1.8035  2.3366  0.5871
 5063TIP3   OH215194   0.841   1.937   1.884 -0.3969  0.6195 -0.3000
 5063TIP3    H115195   0.869   1.878   1.814 -0.0431  0.3345  0.0817
 5063TIP3    H215196   0.748   1.918   1.895 -0.2542  0.0402 -0.0866
 5064TIP3   OH215197   2.062   1.811   0.609  0.3706 -0.3103 -0.5243
 5064TIP3    H115198   2.105   1.857   0.537 -0.7296  1.0221 -0.3625
 5064TIP3    H215199   2.128   1.807   0.678  0.9576 -0.2978 -1.0752
 5065TIP3   OH215200   1.433   1.950   2.047 -0.5415 -0.1912  0.4455
 5065TIP3    H115201   1.428   1.944   2.142  2.5091  0.3640  0.7549
 5065TIP3    H215202   1.419   1.861   2.016  1.2328 -0.9403  1.6721
 5066TIP3   OH215203   2.454   5.099   4.882 -0.2308 -0.1383  0.0726
 5066TIP3    H115204   2.438   5.183   4.926  2.4951  1.1272 -1.1579
 5066TIP3    H215205   2.516   5.053   4.938  0.2722 -0.1948 -0.5187
 5067TIP3   OH215206   4.989   1.381   4.261 -0.4152  0.1830  0.3543
 5067TIP3    H115207   4.942   1.392   4.343 -0.8556 -1.0871  0.2980
 5067TIP3    H215208   5.068   1.435   4.272 -0.0971 -0.5281  1.9129
 5068TIP3   OH215209   4.745   0.812   2.055  0.9799 -0.0832  0.6935
 5068TIP3    H115210   4.834   0.791   2.082  1.3938 -0.8095 -1.1004
 5068TIP3    H215211   4.719   0.740   1.998 -0.3573  0.6543  0.3167
 5069TIP3   OH215212   6.066   1.964   4.739  0.7282 -0.1590 -0.0557
 5069TIP3    H115213   6.071   1.869   4.748  3.6882 -0.2726 -1.4837
 5069TIP3    H215214   6.069   1.979   4.644 -0.5380  1.3801  0.1085
 5070TIP3   OH215215   3.642   1.738   3.553 -0.2683 -0.1991  0.2964
 5070TIP3    H115216   3.550   1.714   3.560 -0.3860  0.1394 -0.0621
 5070TIP3    H215217   3.679   1.674   3.492 -0.1727 -0.5855  0.7558
 5071TIP3   OH215218   5.555   2.274   3.918 -0.6034  0.7775  0.0670
 5071TIP3    H115219   5.624   2.283   3.984 -0.8691  1.5531  0.2511
 5071TIP3    H215220   5.603   2.259   3.836 -0.1679  1.9492  0.0797
 5072TIP3   OH215221   3.814   1.489   2.184  0.1439  0.4759 -0.2245
 5072TIP3    H115222   3.735   1.539   2.203  0.2356  1.0549 -1.3164
 5072TIP3    H215223   3.837   1.512   2.094  2.3309  1.3951  0.4813
 5073TIP3   OH215224   5.542   4.209   5.039 -0.3479  0.6223 -0.1348
 5073TIP3    H115225   5.574   4.232   5.126 -0.7581  1.1033 -0.1129
 5073TIP3    H215226   5.579   4.122   5.023 -1.2221  0.0120  1.0047
 5074TIP3   OH215227   5.780   1.266   2.189  0.1470 -0.0578  0.1199
 5074TIP3    H115228   5.744   1.320   2.260 -1.4449  0.4943 -1.0559
 5074TIP3    H215229   5.709   1.206   2.166 -0.1500  1.1158 -2.3211
 5075TIP3   OH215230   2.470   5.150   4.428  0.2301  0.1080  0.2057
 5075TIP3    H115231   2.562   5.178   4.429 -0.5730  3.1161  0.5553
 5075TIP3    H215232   2.435   5.186   4.346 -0.8545 -0.1335  0.5498
 5076TIP3   OH215233   4.325   4.617   4.876 -0.3131 -0.0513 -0.1295
 5076TIP3    H115234   4.274   4.650   4.802  2.1092  0.0642 -1.8843
 5076TIP3    H215235   4.413   4.607   4.841  1.5682  2.2574  3.3089
 5077TIP3   OH215236   0.596   3.386   1.649  0.1916  0.5296  0.0803
 5077TIP3    H115237   0.504   3.411   1.643  0.4476  1.1597 -1.7777
 5077TIP3    H215238   0.637   3.455   1.701 -0.7622 -1.0172  3.0857
 5078TIP3   OH215239   2.725   5.529   2.041  0.4441 -0.7563  0.4645
 5078TIP3    H115240   2.749   5.503   1.952 -1.4890 -0.6886 -0.1285
 5078TIP3    H215241   2.728   5.447   2.091  0.4981 -0.9959  0.0752
 5079TIP3   OH215242   3.467   0.875   2.945 -0.2425 -0.1579  0.5825
 5079TIP3    H115243   3.425   0.839   3.023  2.8768 -1.3463  1.8481
 5079TIP3    H215244   3.547   0.917   2.978  0.1954  1.0140 -1.7865
 5080TIP3   OH215245   0.312   1.313   2.854  0.0204 -0.4610 -0.1928
 5080TIP3    H115246   0.402   1.343   2.845 -0.2380  0.4881  0.2851
 5080TIP3    H215247   0.315   1.247   2.923  0.1262  0.6758  0.9390
 5081TIP3   OH215248   4.459   2.638   3.542 -0.1770  0.0116 -0.0838
 5081TIP3    H115249   4.493   2.552   3.519  1.6075  0.2907  1.3555
 5081TIP3    H215250   4.364   2.626   3.541  0.0206 -1.9682  0.0604
 5082TIP3   OH215251   3.457   5.541   2.131  0.4600 -0.7761 -0.0465
 5082TIP3    H115252   3.423   5.596   2.202  0.3570 -1.8581  0.7637
 5082TIP3    H215253   3.545   5.516   2.160  0.7862 -0.4528 -0.7469
 5083TIP3   OH215254   6.131   2.835   0.571 -0.1395 -0.2163  0.0085
 5083TIP3    H115255   6.187   2.758   0.559  0.4540  0.3436 -0.9302
 5083TIP3    H215256   6.165   2.878   0.649  0.3115 -0.2474 -0.1657
 5084TIP3   OH215257   2.974   2.694   3.695 -0.1806 -0.0215  0.6435
 5084TIP3    H115258   2.962   2.778   3.739 -0.6041  0.0213  0.4440
 5084TIP3    H215259   3.007   2.717   3.608  0.1876 -0.0860  0.7626
 5085TIP3   OH215260   4.055   4.582   3.936 -0.2344  0.4234 -0.1089
 5085TIP3    H115261   4.071   4.570   4.030  0.5413  1.0906 -0.1446
 5085TIP3    H215262   3.962   4.606   3.931 -0.7701 -1.3417  0.3083
 5086TIP3   OH215263   1.761   0.270   4.547 -0.5632 -0.3369 -0.1483
 5086TIP3    H115264   1.736   0.356   4.581 -1.9951 -1.2307  1.1970
 5086TIP3    H215265   1.691   0.248   4.485 -0.3329 -0.6465 -0.3017
 5087TIP3   OH215266   1.558   3.220   1.013  0.2597  0.5891 -0.1542
 5087TIP3    H115267   1.560   3.125   1.003 -0.3849  0.6111 -0.5404
 5087TIP3    H215268   1.626   3.239   1.078 -1.8079 -0.4480  2.5033
 5088TIP3   OH215269   0.015   5.919   2.521  0.0863 -0.0494  0.4712
 5088TIP3    H115270  -0.058   5.978   2.503 -1.2587 -0.1431  4.6276
 5088TIP3    H215271   0.062   5.961   2.593  0.7968 -2.6085  1.6146
 5089TIP3   OH215272   0.739   1.779   3.660 -0.1541  0.3061  0.0131
 5089TIP3    H115273   0.661   1.799   3.712 -0.3102 -0.9218  0.2838
 5089TIP3    H215274   0.808   1.833   3.700 -0.5526  0.3208  0.7057
 5090TIP3   OH215275   0.776   2.706   3.658 -0.5394  0.0939 -0.3348
 5090TIP3    H115276   0.704   2.766   3.637 -1.2541  0.5164  2.8283
 5090TIP3    H215277   0.849   2.764   3.678 -0.3077 -0.2045 -0.3198
 5091TIP3   OH215278   2.499   0.030   4.629 -0.0273  0.2202 -0.2380
 5091TIP3    H115279   2.428   0.069   4.578 -0.6829  0.2632  0.6918
 5091TIP3    H215280   2.461   0.011   4.714  0.6685 -1.1844 -0.2076
 5092TIP3   OH215281   6.252   0.713   1.030 -0.2223 -0.1499 -0.3346
 5092TIP3    H115282   6.309   0.636   1.037 -0.2013 -0.2145 -1.1380
 5092TIP3    H215283   6.241   0.743   1.120 -0.0124 -0.9342 -0.0429
 5093TIP3   OH215284   3.240   5.313   0.532  0.0453  0.5380 -0.2255
 5093TIP3    H115285   3.148   5.326   0.553 -0.3050 -0.8818 -0.7924
 5093TIP3    H215286   3.241   5.237   0.473  1.5400  0.7429 -0.4936
 5094TIP3   OH215287   0.212   0.497   3.590 -0.0627 -0.3595 -0.7537
 5094TIP3    H115288   0.145   0.534   3.647 -0.2333 -1.3488 -0.2747
 5094TIP3    H215289   0.213   0.553   3.513 -1.2319 -0.1522 -0.6371
 5095TIP3   OH215290   2.232   0.210   3.011 -0.2567 -0.2535  0.0989
 5095TIP3    H115291   2.167   0.262   3.058  0.2267  0.4304  0.0275
 5095TIP3    H215292   2.312   0.263   3.014  0.7382 -1.7416  1.5209
 5096TIP3   OH215293   1.867   2.087   2.274  0.3205 -0.1474 -0.4724
 5096TIP3    H115294   1.906   2.050   2.354 -0.3685  0.2036  0.0347
 5096TIP3    H215295   1.810   2.018   2.241 -1.0828  0.4790  0.5580
 5097TIP3   OH215296   5.026   2.994   0.276  0.0023 -0.4973 -0.0871
 5097TIP3    H115297   5.003   2.910   0.235 -0.5499 -0.3894  0.0083
 5097TIP3    H215298   4.979   3.060   0.225 -0.4135 -0.3331  0.5008
 5098TIP3   OH215299   0.576   1.723   1.077  0.0613  0.2521 -0.6571
 5098TIP3    H115300   0.609   1.711   0.988  1.6913  0.5254 -0.1063
 5098TIP3    H215301   0.654   1.733   1.132 -0.8273 -1.4987  1.0629
 5099TIP3   OH215302   6.338   2.497   4.839 -0.2437 -0.4701  0.1035
 5099TIP3    H115303   6.256   2.536   4.870  0.2233  0.0921  0.6589
 5099TIP3    H215304   6.312   2.412   4.804 -1.0429 -0.3687  0.4181
 5100TIP3   OH215305   2.911   5.470   3.183  0.0464  0.3752  0.3150
 5100TIP3    H115306   2.890   5.416   3.260  1.7188  0.7257  1.0672
 5100TIP3    H215307   2.856   5.548   3.193 -0.1921  0.1472  0.8262
 5101TIP3   OH215308   0.509   0.466   1.280  0.6659 -0.1756  0.3347
 5101TIP3    H115309   0.476   0.451   1.368  0.3153  0.8941  0.4011
 5101TIP3    H215310   0.433   0.451   1.223  0.7876 -0.4704  0.2500
 5102TIP3   OH215311   4.270   1.046   3.251 -0.4478 -0.3338 -0.0643
 5102TIP3    H115312   4.348   1.075   3.297  0.6664 -2.6583 -0.3214
 5102TIP3    H215313   4.303   0.995   3.176 -2.1822 -1.0466 -0.4182
 5103TIP3   OH215314   1.783   3.683   3.273  0.0504 -0.5654  0.2454
 5103TIP3    H115315   1.802   3.606   3.327  0.5684  0.0053  0.8873
 5103TIP3    H215316   1.847   3.749   3.301  0.8287 -0.4798 -1.5603
 5104TIP3   OH215317   3.423   1.585   4.388 -0.5560 -0.0160 -0.4082
 5104TIP3    H115318   3.361   1.566   4.317  0.2267  0.4906 -1.2414
 5104TIP3    H215319   3.473   1.660   4.357  1.0381 -0.9225 -0.1101
 5105TIP3   OH215320   5.052   2.222   0.996  0.0329  0.3252 -0.7540
 5105TIP3    H115321   4.989   2.255   1.060 -1.4322  0.7881 -2.3635
 5105TIP3    H215322   5.136   2.255   1.027 -0.4849 -0.1802  1.3787
 5106TIP3   OH215323   5.754   1.504   2.707 -0.1255 -0.1999  0.0832
 5106TIP3    H115324   5.664   1.480   2.730 -0.0762 -0.5972 -0.1182
 5106TIP3    H215325   5.803   1.498   2.789 -0.4137  0.6864  0.3325
 5107TIP3   OH215326   2.995   5.769   2.866 -0.2519  0.2554 -0.3053
 5107TIP3    H115327   2.995   5.862   2.842 -0.0626 -0.2229 -2.3650
 5107TIP3    H215328   2.902   5.748   2.879 -0.2346  0.9041  1.0869
 5108TIP3   OH215329   4.964   3.691   3.905  0.0380 -0.0547 -0.2012
 5108TIP3    H115330   4.907   3.636   3.850  1.4293 -0.0136 -1.7863
 5108TIP3    H215331   5.025   3.629   3.946 -1.3481 -0.1456  1.8208
 5109TIP3   OH215332   5.240   2.756   0.912 -0.8494  0.1759 -0.2827
 5109TIP3    H115333   5.287   2.839   0.914 -1.0165  0.3404 -1.9709
 5109TIP3    H215334   5.303   2.691   0.943 -0.6577  0.8814  0.8492
 5110TIP3   OH215335   6.203   2.096   0.157 -0.4694  0.1515  0.0510
 5110TIP3    H115336   6.109   2.113   0.159 -0.6791 -0.9086 -0.2157
 5110TIP3    H215337   6.213   2.021   0.098  0.7296  1.2910 -1.2718
 5111TIP3   OH215338   5.489   4.464   4.864  0.1904 -0.0141 -0.1296
 5111TIP3    H115339   5.417   4.449   4.802  0.5133 -0.1692 -0.4655
 5111TIP3    H215340   5.497   4.381   4.912 -0.4104  0.2759  0.4924
 5112TIP3   OH215341   5.061   2.877   3.449  0.2707  0.0559  0.3492
 5112TIP3    H115342   4.998   2.906   3.515  0.4470 -0.3818  0.7125
 5112TIP3    H215343   5.126   2.827   3.498  1.2597  1.0426  0.0782
 5113TIP3   OH215344   2.703   1.495   4.786 -0.0148  0.4914 -0.0662
 5113TIP3    H115345   2.633   1.498   4.721 -0.0883  0.2559  0.0012
 5113TIP3    H215346   2.779   1.534   4.742 -0.2634  1.0111 -0.0426
 5114TIP3   OH215347   2.535   2.338   2.499 -0.3760  0.2466  0.8480
 5114TIP3    H115348   2.475   2.384   2.558 -2.1718  0.1055 -0.7541
 5114TIP3    H215349   2.604   2.401   2.481 -1.0752  1.1401  1.2086
 5115TIP3   OH215350   1.771   2.489   0.830  0.0842 -0.0882 -0.3347
 5115TIP3    H115351   1.826   2.411   0.829 -0.1934 -0.2897 -0.0430
 5115TIP3    H215352   1.683   2.457   0.811 -0.1154  0.0832  0.2598
 5116TIP3   OH215353   0.692   3.438   5.102 -0.2978 -0.2205 -0.5249
 5116TIP3    H115354   0.665   3.511   5.046 -1.8047  0.2026  0.7080
 5116TIP3    H215355   0.757   3.476   5.161 -0.7056  0.0150 -0.2204
 5117TIP3   OH215356   1.585   5.091   2.407  0.6143  0.3847 -0.1544
 5117TIP3    H115357   1.639   5.015   2.387 -2.1300 -1.3597 -1.6019
 5117TIP3    H215358   1.552   5.120   2.321  0.1263  2.0762  0.5578
 5118TIP3   OH215359   4.800   4.859   3.194 -0.3405 -0.2207  0.3783
 5118TIP3    H115360   4.811   4.878   3.287 -0.3548 -0.2142  0.3787
 5118TIP3    H215361   4.727   4.914   3.166  0.4227  0.6769  0.0871
 5119TIP3   OH215362   5.636   1.874   0.093 -0.3469 -0.2046  0.0397
 5119TIP3    H115363   5.563   1.890   0.034  1.8204  1.9403 -2.3081
 5119TIP3    H215364   5.628   1.941   0.161 -0.2762  0.3930 -0.5351
 5120TIP3   OH215365   4.359   2.643  -0.008 -0.5277  0.0258  0.2669
 5120TIP3    H115366   4.316   2.696   0.058 -1.6145  0.1025 -0.4681
 5120TIP3    H215367   4.452   2.646   0.014 -0.9524 -0.9158  2.4604
 5121TIP3   OH215368   4.131   2.067   3.397 -0.4071 -0.2549  0.0122
 5121TIP3    H115369   4.123   2.045   3.490  0.1216 -2.2197 -0.3579
 5121TIP3    H215370   4.208   2.124   3.393 -1.7437  1.7170  1.0113
 5122TIP3   OH215371   4.205   0.573   3.620 -0.6419  0.5761 -0.0806
 5122TIP3    H115372   4.280   0.534   3.575 -1.1260  0.1664 -0.5506
 5122TIP3    H215373   4.157   0.620   3.552 -0.5018  1.3373  0.3310
 5123TIP3   OH215374   1.913   3.302   1.844 -0.5575  0.6603 -0.1507
 5123TIP3    H115375   1.919   3.395   1.821  1.0292  0.8244  0.8056
 5123TIP3    H215376   1.900   3.258   1.760  1.4330  1.5407 -0.9810
 5124TIP3   OH215377   0.497   0.536   4.501  0.3255 -0.8126  0.1019
 5124TIP3    H115378   0.404   0.544   4.525  0.3179  0.0078 -0.1629
 5124TIP3    H215379   0.544   0.570   4.576  0.3239  1.0141 -0.6625
 5125TIP3   OH215380   0.200   5.112   3.151 -0.3371 -0.1802  0.3361
 5125TIP3    H115381   0.262   5.077   3.215 -0.5488 -0.4291  0.4066
 5125TIP3    H215382   0.203   5.207   3.163  0.5267 -0.1374 -0.1176
 5126TIP3   OH215383   4.056   3.393   1.233  0.3653  0.0583  0.5866
 5126TIP3    H115384   4.050   3.472   1.180  0.7154  0.2855  0.8820
 5126TIP3    H215385   3.992   3.405   1.303 -0.0328 -0.2025  0.2734
 5127TIP3   OH215386   0.491   2.952   4.724 -0.0058  0.2547  0.6558
 5127TIP3    H115387   0.478   2.954   4.819  1.3879 -0.6588  0.8926
 5127TIP3    H215388   0.585   2.969   4.713 -0.0327 -0.2911 -0.5094
 5128TIP3   OH215389   2.794   1.965   0.766  0.8944  0.1251  0.2427
 5128TIP3    H115390   2.761   1.938   0.852  0.9217  0.3642  0.3273
 5128TIP3    H215391   2.729   1.931   0.704  0.9473 -0.1685  0.3472
 5129TIP3   OH215392   1.788   4.929   0.990 -0.4980  0.7043  0.2570
 5129TIP3    H115393   1.848   4.869   1.034 -0.2372  0.1075 -0.8679
 5129TIP3    H215394   1.701   4.894   1.008 -0.3380 -0.2056 -0.6106
 5130TIP3   OH215395   0.231   1.092   1.378 -0.3003 -0.2473 -0.4179
 5130TIP3    H115396   0.162   1.143   1.420 -0.2556 -0.5389  0.0138
 5130TIP3    H215397   0.265   1.150   1.309  0.2303  0.5938  0.5237
 5131TIP3   OH215398   2.179   4.343   5.094 -0.3121  0.1564  0.0382
 5131TIP3    H115399   2.243   4.311   5.030 -1.1629  2.3140 -1.9942
 5131TIP3    H215400   2.225   4.337   5.178  1.4757 -1.0966 -0.9648
 5132TIP3   OH215401   2.695   3.135   3.878 -0.5574  0.3470  0.2279
 5132TIP3    H115402   2.600   3.134   3.865 -0.6388  0.6645  0.7500
 5132TIP3    H215403   2.707   3.183   3.960  0.0062 -0.4287  0.6080
 5133TIP3   OH215404   1.630   0.029   3.919  0.3852  0.1364  0.2206
 5133TIP3    H115405   1.547   0.043   3.873  0.4757  1.0816  0.3302
 5133TIP3    H215406   1.689   0.095   3.883  0.8796 -0.0562  0.6659
 5134TIP3   OH215407   0.369   0.222   2.789  0.3692 -0.1816  0.3536
 5134TIP3    H115408   0.328   0.185   2.710  2.3649  0.1335 -0.9112
 5134TIP3    H215409   0.357   0.317   2.780 -0.1818 -0.1909  0.9148
 5135TIP3   OH215410   4.724   1.945   1.663 -0.2655 -0.0026  0.0191
 5135TIP3    H115411   4.787   1.874   1.652  0.1878  0.4016 -0.0423
 5135TIP3    H215412   4.757   2.015   1.607 -0.4261  0.4428  0.4719
 5136TIP3   OH215413   0.976   4.031   4.950 -0.0955 -0.5163  0.0113
 5136TIP3    H115414   1.043   4.038   5.018 -1.9057  0.1434  1.8331
 5136TIP3    H215415   1.011   3.967   4.889  1.3757 -1.5972  1.8670
 5137TIP3   OH215416   0.975   0.182   4.220 -0.1110  1.0109 -0.0535
 5137TIP3    H115417   1.065   0.150   4.208 -0.3596 -0.1980  1.0846
 5137TIP3    H215418   0.937   0.178   4.132 -0.1218 -1.9704 -0.0404
 5138TIP3   OH215419   4.148   0.304   3.250 -0.3365  0.0111  0.1275
 5138TIP3    H115420   4.148   0.341   3.162 -0.3636  1.7623  0.8103
 5138TIP3    H215421   4.241   0.293   3.271 -0.2672  0.9058  0.3591
 5139TIP3   OH215422   4.102   4.479   1.996 -0.2913  0.1002 -0.6389
 5139TIP3    H115423   4.074   4.493   2.087  0.0387  0.6330 -0.6166
 5139TIP3    H215424   4.061   4.551   1.948  0.5466  0.5474 -0.7042
 5140TIP3   OH215425   4.065   2.585   4.110 -0.2019 -0.2951 -0.4543
 5140TIP3    H115426   4.044   2.587   4.017 -0.1338 -1.5088 -0.4994
 5140TIP3    H215427   3.984   2.556   4.152  0.1459 -1.0061 -0.2594
 5141TIP3   OH215428   3.221   0.129   4.315  0.1279 -0.5666  0.2438
 5141TIP3    H115429   3.290   0.145   4.380 -0.0491 -0.2813  0.3669
 5141TIP3    H215430   3.145   0.101   4.367 -0.4063  0.9020  0.2961
 5142TIP3   OH215431   5.156   0.573   0.114  0.1004  0.0354  0.2925
 5142TIP3    H115432   5.246   0.606   0.125 -0.0733  0.5171  0.2891
 5142TIP3    H215433   5.130   0.546   0.202  0.0632  0.3877  0.3928
 5143TIP3   OH215434   6.194   4.586   3.870  0.1740 -0.3318 -0.1151
 5143TIP3    H115435   6.162   4.532   3.943 -1.4686  0.3313 -0.3148
 5143TIP3    H215436   6.123   4.647   3.852  0.9862  0.2234 -1.5890
 5144TIP3   OH215437  -0.027   2.408   4.245 -0.3232  0.0934 -0.4906
 5144TIP3    H115438   0.035   2.346   4.207 -1.4648  0.1215 -2.5351
 5144TIP3    H215439   0.028   2.470   4.294  1.1837 -0.3224 -1.5848
 5145TIP3   OH215440   6.087   5.335   1.391 -0.0607  0.1914 -0.3073
 5145TIP3    H115441   6.042   5.304   1.470  1.2321  0.9434  0.7722
 5145TIP3    H215442   6.080   5.263   1.329  0.2612 -1.0557  1.0612
 5146TIP3   OH215443   1.316   2.156   1.245  0.2437 -0.0150  0.0241
 5146TIP3    H115444   1.337   2.153   1.338  1.4422 -0.9783 -0.2514
 5146TIP3    H215445   1.376   2.220   1.208  1.3573 -1.2794 -0.4329
 5147TIP3   OH215446   2.250   3.359   3.449  0.5113 -0.0789  0.0803
 5147TIP3    H115447   2.263   3.453   3.460 -0.5767 -0.0824  1.9619
 5147TIP3    H215448   2.211   3.349   3.363  0.3121  1.2286  0.0101
 5148TIP3   OH215449   2.039   1.156   0.859 -0.3151 -0.4082  0.4859
 5148TIP3    H115450   1.969   1.092   0.874 -0.5529 -0.1966  0.2726
 5148TIP3    H215451   2.051   1.157   0.764 -0.0068 -0.4584  0.5228
 5149TIP3   OH215452   5.431   3.545   2.440  0.2354 -0.1890 -0.0404
 5149TIP3    H115453   5.380   3.476   2.399 -1.5432  0.0563  1.6525
 5149TIP3    H215454   5.377   3.576   2.512  1.8400  1.6261  0.4703
 5150TIP3   OH215455   0.097   0.493  -0.002  0.2576  0.1953 -0.2599
 5150TIP3    H115456   0.075   0.483   0.090  0.3720 -0.4844 -0.3053
 5150TIP3    H215457   0.072   0.410  -0.042 -1.0013  0.9320 -1.0887
 5151TIP3   OH215458   4.937   3.179   0.089 -0.0484  0.4637 -0.0049
 5151TIP3    H115459   4.884   3.252   0.058  0.5053  0.2010 -1.6785
 5151TIP3    H215460   4.919   3.108   0.027  2.1110  0.3208 -0.5578
 5152TIP3   OH215461   0.919   2.872   4.836 -0.3147  0.4655  0.2965
 5152TIP3    H115462   0.864   2.813   4.887 -1.0067 -0.9623 -1.9991
 5152TIP3    H215463   0.857   2.921   4.781  0.5753 -1.3128 -2.4850
 5153TIP3   OH215464   2.796   4.159   3.576 -0.2761 -0.6865 -0.2032
 5153TIP3    H115465   2.869   4.128   3.630 -0.0993 -0.7548 -0.4829
 5153TIP3    H215466   2.807   4.115   3.492 -0.7476 -0.8466 -0.1869
 5154TIP3   OH215467   2.847   3.093   0.700  0.5787 -0.0176  0.6156
 5154TIP3    H115468   2.807   3.147   0.768 -0.0172 -1.0501  1.1114
 5154TIP3    H215469   2.837   3.003   0.731  0.2004 -0.5279 -0.8850
 5155TIP3   OH215470   2.252   3.170   0.676 -0.2037 -0.4180  0.7448
 5155TIP3    H115471   2.163   3.164   0.640 -0.3930  1.0500  0.8767
 5155TIP3    H215472   2.238   3.174   0.771 -0.1741  1.6666  0.7057
 5156TIP3   OH215473   3.091   4.927   1.287  0.1270  0.6765 -0.1616
 5156TIP3    H115474   3.022   4.960   1.345  0.4176  2.0116 -0.5405
 5156TIP3    H215475   3.170   4.973   1.315  0.2901  1.2810 -1.5369
 5157TIP3   OH215476   5.567   2.783   1.112  0.1831  0.3737 -0.0305
 5157TIP3    H115477   5.507   2.796   1.185 -0.9661  0.8880 -1.0434
 5157TIP3    H215478   5.590   2.872   1.084  1.0380  0.1825  0.0187
 5158TIP3   OH215479   1.526   5.507   2.276  0.2831  0.8117 -0.0432
 5158TIP3    H115480   1.602   5.483   2.328 -0.2712  1.4123  1.0895
 5158TIP3    H215481   1.524   5.444   2.205  2.0727  1.0333 -0.3425
 5159TIP3   OH215482   4.295   1.021   4.001 -0.0473 -0.4491 -0.0125
 5159TIP3    H115483   4.208   1.060   4.006  0.1048  0.0862 -1.1241
 5159TIP3    H215484   4.289   0.961   3.927  0.9507  0.7812 -1.1437
 5160TIP3   OH215485   5.917   1.611   3.278 -0.2869 -0.2260  0.3556
 5160TIP3    H115486   5.843   1.558   3.249  0.1900 -1.6611  1.6452
 5160TIP3    H215487   5.973   1.619   3.200 -0.0888 -2.1316  0.2612
 5161TIP3   OH215488   3.272   2.385   0.087  0.2805 -0.0083  0.0653
 5161TIP3    H115489   3.200   2.444   0.108 -1.0995 -1.0085 -1.5438
 5161TIP3    H215490   3.247   2.302   0.126  2.1659  0.3606  2.2440
 5162TIP3   OH215491   5.454   1.047   1.116 -0.3554 -0.0911 -0.0502
 5162TIP3    H115492   5.486   1.085   1.034 -0.1799  0.4947  0.2799
 5162TIP3    H215493   5.506   0.967   1.127 -0.3809 -0.1726 -0.5062
 5163TIP3   OH215494   1.039   5.390   0.102  0.0399 -0.3530 -0.3600
 5163TIP3    H115495   0.990   5.469   0.123  1.5005  0.0218  2.0912
 5163TIP3    H215496   1.121   5.422   0.063  1.2683 -0.4334  1.9386
 5164TIP3   OH215497   3.900   4.566   3.420 -0.5389  0.2304  0.1814
 5164TIP3    H115498   3.954   4.504   3.469 -0.4711  0.9546  1.0394
 5164TIP3    H215499   3.862   4.624   3.486 -1.8729  0.1345 -0.4650
 5165TIP3   OH215500   2.119   3.771   3.843  0.1539 -0.1873  0.3810
 5165TIP3    H115501   2.127   3.833   3.915  0.3666 -0.2415  0.4034
 5165TIP3    H215502   2.054   3.707   3.873 -1.5515  1.0957 -0.4010
 5166TIP3   OH215503   4.137   1.708   4.666  0.1431  0.1122 -0.6092
 5166TIP3    H115504   4.099   1.748   4.744  0.2874 -1.1099  0.1187
 5166TIP3    H215505   4.098   1.620   4.662  1.5263 -0.5251 -0.8409
 5167TIP3   OH215506   2.790   2.013   2.231  0.1186 -0.0059  0.5407
 5167TIP3    H115507   2.845   1.992   2.307  1.0557  2.4296  0.6595
 5167TIP3    H215508   2.790   2.109   2.228 -0.6841 -0.0028 -1.9832
 5168TIP3   OH215509   6.201   5.681   4.832 -0.0608  0.1063  0.2416
 5168TIP3    H115510   6.285   5.644   4.860  0.1084 -0.3390 -0.8096
 5168TIP3    H215511   6.137   5.611   4.849 -0.1604  0.2874  0.6366
 5169TIP3   OH215512   2.998   1.076   0.549  0.4275 -0.2843 -0.0819
 5169TIP3    H115513   2.971   1.160   0.587 -0.3959  0.2395 -1.7586
 5169TIP3    H215514   3.023   1.023   0.625 -2.9968  0.0253  1.4387
 5170TIP3   OH215515   5.796   1.049   1.026 -0.7772 -0.1947  0.3540
 5170TIP3    H115516   5.740   0.979   1.060  0.5464 -2.1117 -1.2090
 5170TIP3    H215517   5.873   1.004   0.993  0.3083  2.0754 -0.3916
 5171TIP3   OH215518   5.307   0.964   0.760  0.4806 -0.6247  0.3248
 5171TIP3    H115519   5.390   1.008   0.776 -0.6790  1.6294  0.4423
 5171TIP3    H215520   5.306   0.948   0.666  0.5973  0.2842  0.1654
 5172TIP3   OH215521   1.819   1.395   2.569  0.0226  0.2046  0.3543
 5172TIP3    H115522   1.897   1.423   2.520 -1.1029  1.3600 -0.8946
 5172TIP3    H215523   1.746   1.431   2.518 -1.4081 -2.0244  0.6943
 5173TIP3   OH215524   2.580   4.944   4.674 -0.0280 -0.2068  0.2084
 5173TIP3    H115525   2.549   4.863   4.634  2.5941 -1.2029 -0.0614
 5173TIP3    H215526   2.532   4.950   4.756 -2.5555 -0.2984 -1.1694
 5174TIP3   OH215527   5.819   5.460   4.134 -0.1386 -0.1816 -0.2752
 5174TIP3    H115528   5.756   5.453   4.062  0.0528  1.9844 -0.7299
 5174TIP3    H215529   5.771   5.432   4.212 -1.2337  0.1106 -0.8368
 5175TIP3   OH215530   5.086   0.745   4.273  0.5051 -0.7610 -0.2288
 5175TIP3    H115531   5.001   0.739   4.230  1.1658 -0.3630 -1.6382
 5175TIP3    H215532   5.084   0.676   4.340 -1.1385 -0.3508  0.1985
 5176TIP3   OH215533   4.994   2.624   4.251 -0.2064 -0.0207  0.2089
 5176TIP3    H115534   4.927   2.574   4.204 -0.9348 -1.3451  2.4832
 5176TIP3    H215535   5.076   2.600   4.209 -0.8697 -0.6091 -0.7986
 5177TIP3   OH215536   5.291   3.121   3.621 -0.2332 -0.2421  0.3061
 5177TIP3    H115537   5.241   3.155   3.695  1.4420  0.4019  1.1783
 5177TIP3    H215538   5.252   3.163   3.544 -2.0227 -0.9575  0.7754
 5178TIP3   OH215539   1.924   3.258   3.512  0.2810 -0.4974 -0.7455
 5178TIP3    H115540   1.841   3.214   3.533  0.7711 -0.1484  2.4155
 5178TIP3    H215541   1.986   3.187   3.498 -0.2299 -0.7540 -1.8455
 5179TIP3   OH215542   4.143   2.375   1.923  0.3473 -0.0339 -0.0767
 5179TIP3    H115543   4.065   2.384   1.976  1.3399 -2.5211  2.0544
 5179TIP3    H215544   4.114   2.326   1.845 -0.4039  0.0493  0.1454
 5180TIP3   OH215545   5.325   2.283   4.356  0.1458 -0.1203 -0.4702
 5180TIP3    H115546   5.336   2.226   4.432 -0.8043  1.1785  0.7017
 5180TIP3    H215547   5.238   2.322   4.368  0.3240  0.7586 -1.7854
 5181TIP3   OH215548   0.852   3.854   2.694  0.0012  0.1418 -0.2704
 5181TIP3    H115549   0.881   3.945   2.690 -0.3795  0.3111  0.5769
 5181TIP3    H215550   0.894   3.819   2.773  0.1303 -0.4110 -0.5843
 5182TIP3   OH215551   3.235   2.720   3.804 -0.5079  0.7487 -0.2810
 5182TIP3    H115552   3.150   2.704   3.764  0.9134 -1.1041 -2.8427
 5182TIP3    H215553   3.258   2.638   3.847  0.0679  1.1745  0.2482
 5183TIP3   OH215554   3.216   4.071   0.850 -0.1660  0.0052 -0.4975
 5183TIP3    H115555   3.236   4.008   0.781 -0.7133 -1.4223  0.6131
 5183TIP3    H215556   3.223   4.022   0.931 -2.3021  0.9089  0.3165
 5184TIP3   OH215557   2.508   1.033   3.586 -0.4752 -0.3622 -0.2908
 5184TIP3    H115558   2.526   1.124   3.565  1.3723 -0.8065 -0.8573
 5184TIP3    H215559   2.414   1.022   3.570 -0.4941  1.1266 -1.3832
 5185TIP3   OH215560   5.428   5.538   3.049 -0.0835  0.4189  0.0633
 5185TIP3    H115561   5.425   5.631   3.028  0.3183  0.1347 -1.3338
 5185TIP3    H215562   5.434   5.494   2.964 -0.6784 -0.9043  0.6797
 5186TIP3   OH215563   2.096   4.425   0.634  0.4728  0.5863 -0.2808
 5186TIP3    H115564   2.010   4.398   0.666  0.3152 -0.4446 -1.5023
 5186TIP3    H215565   2.078   4.496   0.573  0.3939 -0.1519 -1.1377
 5187TIP3   OH215566   1.189   4.895   2.376  0.4193  0.1657 -0.1102
 5187TIP3    H115567   1.100   4.896   2.339  1.0765 -1.6481 -1.8887
 5187TIP3    H215568   1.236   4.961   2.326  0.6868 -0.5945 -0.8752
 5188TIP3   OH215569   4.754   4.997   3.434 -0.5471  0.1110  0.3461
 5188TIP3    H115570   4.808   5.073   3.450 -2.0397  1.6025 -1.2298
 5188TIP3    H215571   4.667   5.021   3.468 -0.8709 -1.1906  0.5099
 5189TIP3   OH215572   5.838   5.950   3.313 -0.2296 -0.1823 -0.0872
 5189TIP3    H115573   5.842   5.868   3.263 -1.6483 -1.5106  1.7911
 5189TIP3    H215574   5.909   6.003   3.278  0.1625 -1.8382 -2.0223
 5190TIP3   OH215575   3.700   0.603   3.013  0.2074 -0.0135 -0.5295
 5190TIP3    H115576   3.672   0.648   3.092  0.9878 -1.5250  0.6457
 5190TIP3    H215577   3.621   0.593   2.961 -0.1843  1.6489 -0.2996
 5191TIP3   OH215578   5.450   4.599   0.722 -0.3784  0.5548  0.5300
 5191TIP3    H115579   5.459   4.529   0.787 -0.2523 -0.6514 -0.7353
 5191TIP3    H215580   5.532   4.648   0.729  0.8328 -1.1855 -0.4972
 5192TIP3   OH215581   1.608   1.522   1.608 -0.0030 -0.3578  0.2057
 5192TIP3    H115582   1.518   1.549   1.589  0.3019  2.1434  1.7736
 5192TIP3    H215583   1.600   1.432   1.638 -1.8682 -0.4936 -0.5611
 5193TIP3   OH215584   3.141   1.347   0.066  0.3349  0.2012 -0.2600
 5193TIP3    H115585   3.111   1.324   0.154 -1.6005 -0.2622 -0.9905
 5193TIP3    H215586   3.158   1.263   0.024 -1.4797  0.2671 -1.1994
 5194TIP3   OH215587   2.834   5.270   4.614  0.1508  0.6380  0.3317
 5194TIP3    H115588   2.884   5.350   4.627  1.8509 -0.0636 -1.4405
 5194TIP3    H215589   2.861   5.238   4.528  0.2318 -2.3294  1.3557
 5195TIP3   OH215590   1.642   4.573   2.631 -0.2088  0.3100  0.5984
 5195TIP3    H115591   1.607   4.628   2.561  0.1749  0.1263  0.2587
 5195TIP3    H215592   1.644   4.630   2.708 -2.8781 -0.1439  1.0845
 5196TIP3   OH215593   6.084   0.089   4.446 -0.6523  0.2547  0.0007
 5196TIP3    H115594   6.040   0.142   4.512 -0.7739 -2.3685  2.2340
 5196TIP3    H215595   6.156   0.143   4.414 -0.1334  1.4035  2.8845
 5197TIP3   OH215596   4.574   4.274   4.864 -0.5268  0.2222 -0.1479
 5197TIP3    H115597   4.626   4.331   4.922  1.0110 -1.5135  0.2886
 5197TIP3    H215598   4.586   4.311   4.777  1.0467  0.2275  0.0264
 5198TIP3   OH215599   2.160   4.516   2.714 -0.1488 -0.1316 -0.0549
 5198TIP3    H115600   2.159   4.563   2.797 -2.4069 -1.8392  1.0070
 5198TIP3    H215601   2.080   4.543   2.670  0.2512 -0.4067 -0.9825
 5199TIP3   OH215602   1.676   0.652   0.141 -0.6049 -0.2044 -0.2251
 5199TIP3    H115603   1.675   0.716   0.070 -3.2585 -0.5057 -0.5831
 5199TIP3    H215604   1.727   0.579   0.107 -0.4988  0.3093 -1.2023
 5200TIP3   OH215605   5.131   2.963   2.868  0.1168 -0.2975  0.5925
 5200TIP3    H115606   5.089   3.015   2.800 -0.0800 -1.4875 -0.2260
 5200TIP3    H215607   5.072   2.889   2.881  1.9101 -2.0595 -0.6313
 5201TIP3   OH215608   5.827   5.081   4.347  0.5991  0.3135  0.1770
 5201TIP3    H115609   5.761   5.139   4.384  1.0820  0.1583  1.3073
 5201TIP3    H215610   5.778   5.005   4.315  0.3137 -0.3504  2.0745
 5202TIP3   OH215611   5.887   4.397   0.487  0.0861 -0.5718  0.1801
 5202TIP3    H115612   5.961   4.419   0.543  0.0042 -0.8267  0.3919
 5202TIP3    H215613   5.818   4.370   0.548 -0.3495  0.1384  0.0185
 5203TIP3   OH215614   6.290   0.256   4.817  0.2249  0.3466 -0.3184
 5203TIP3    H115615   6.285   0.351   4.804  1.7292  0.9076  2.3735
 5203TIP3    H215616   6.238   0.240   4.895 -0.1989 -1.1142 -0.8799
 5204TIP3   OH215617   4.870   3.245   1.567  0.3279 -0.8822 -0.6273
 5204TIP3    H115618   4.874   3.316   1.631 -0.0144  0.0298 -1.5798
 5204TIP3    H215619   4.806   3.183   1.603 -0.0215 -0.2720 -0.1925
 5205TIP3   OH215620   5.974   3.750   2.409  0.3667  0.3872  0.0940
 5205TIP3    H115621   6.022   3.667   2.404 -0.2457 -0.0267  0.9686
 5205TIP3    H215622   5.960   3.775   2.317 -1.7747 -1.8420 -0.2859
 5206TIP3   OH215623   2.077   5.021   3.271 -0.2345 -0.1102 -0.4890
 5206TIP3    H115624   2.119   5.104   3.246 -1.9376  1.2664  1.0038
 5206TIP3    H215625   2.150   4.963   3.293  0.9745  1.7648  0.7260
 5207TIP3   OH215626   3.908   1.996   2.000 -0.3625  0.3500 -0.0263
 5207TIP3    H115627   3.892   2.014   1.908  0.6013  3.0165  0.2465
 5207TIP3    H215628   3.992   1.949   2.002  0.1147  1.1769 -0.4616
 5208TIP3   OH215629   1.574   4.121   2.139  0.1606  0.3098  0.2557
 5208TIP3    H115630   1.557   4.215   2.133  1.1007  0.5384  0.9659
 5208TIP3    H215631   1.661   4.115   2.177  0.4855 -0.8455 -0.6229
 5209TIP3   OH215632   4.530   4.017   4.384  0.4867 -0.3441 -0.5680
 5209TIP3    H115633   4.574   3.953   4.328  0.3406  0.3738 -1.5263
 5209TIP3    H215634   4.441   4.024   4.349  1.1521  2.1070 -2.0347
 5210TIP3   OH215635   1.722   5.359   3.544  0.3229  0.2996  0.3918
 5210TIP3    H115636   1.774   5.303   3.486 -1.7286 -0.5100 -0.7586
 5210TIP3    H215637   1.786   5.398   3.603  2.3166 -0.1094 -1.3787
 5211TIP3   OH215638   3.049   1.470   3.271  0.5199 -0.0810 -0.0260
 5211TIP3    H115639   2.974   1.508   3.225  0.7037  0.8389  0.4178
 5211TIP3    H215640   3.034   1.375   3.266  0.2051  0.0256 -1.4022
 5212TIP3   OH215641   0.250   0.569   4.599 -0.0161 -0.0898  0.4165
 5212TIP3    H115642   0.274   0.503   4.664 -0.2090  0.3375  0.9235
 5212TIP3    H215643   0.228   0.647   4.650  0.6926  0.5244 -0.2031
 5213TIP3   OH215644   5.109   5.038   2.625  0.2360  0.4190 -0.2573
 5213TIP3    H115645   5.126   4.957   2.673 -1.1080 -1.0870 -2.1590
 5213TIP3    H215646   5.015   5.036   2.608  0.4165  1.6625 -1.5962
 5214TIP3   OH215647   2.681   0.291   4.341  0.1013 -0.1847  0.2872
 5214TIP3    H115648   2.699   0.198   4.330 -0.0224 -0.1679 -0.0518
 5214TIP3    H215649   2.650   0.299   4.431  0.8565 -0.3558  0.5685
 5215TIP3   OH215650   4.663   3.284   3.568  0.0459 -0.0672  0.5452
 5215TIP3    H115651   4.641   3.217   3.634  1.3392  0.0480  1.1208
 5215TIP3    H215652   4.630   3.248   3.486 -1.7075 -0.1624  1.2595
 5216TIP3   OH215653   0.636   2.434   2.488 -0.2472  0.8335 -0.6975
 5216TIP3    H115654   0.590   2.386   2.419 -1.7756  0.4214  0.5499
 5216TIP3    H215655   0.717   2.385   2.502 -1.5316 -1.1770  0.1920
 5217TIP3   OH215656   1.368   3.787   2.685  0.0140 -0.1185 -0.2440
 5217TIP3    H115657   1.395   3.747   2.602  0.6752 -0.8917  0.3307
 5217TIP3    H215658   1.279   3.819   2.668  0.3161  0.1729 -1.3908
 5218TIP3   OH215659   3.563   5.118   4.676  0.3971 -0.3763  0.2849
 5218TIP3    H115660   3.620   5.139   4.602 -0.5803 -0.3729 -0.4941
 5218TIP3    H215661   3.549   5.202   4.719 -0.2668 -0.0876 -0.4577
 5219TIP3   OH215662   5.457   2.590   0.976  0.1678  0.4948 -0.3583
 5219TIP3    H115663   5.467   2.614   0.884 -0.3144  0.0350 -0.5349
 5219TIP3    H215664   5.503   2.659   1.024  0.4070  0.7473 -0.9404
 5220TIP3   OH215665   5.348   2.003   0.932  0.4661 -0.4107 -0.3210
 5220TIP3    H115666   5.341   2.029   1.024  0.0114  0.3391 -0.5566
 5220TIP3    H215667   5.286   1.932   0.922 -1.1044  0.9341 -0.5342
 5221TIP3   OH215668   4.149   0.854   1.260 -0.7433 -0.1665  0.5298
 5221TIP3    H115669   4.200   0.931   1.234 -1.1887 -0.4764 -1.4147
 5221TIP3    H215670   4.132   0.867   1.353 -0.9406  2.1599  0.2349
 5222TIP3   OH215671   6.059   1.890   4.474  0.4272 -0.3249 -0.4144
 5222TIP3    H115672   5.970   1.921   4.458  0.4929 -0.1160 -0.3835
 5222TIP3    H215673   6.058   1.798   4.446 -0.5068 -1.1428  2.0424
 5223TIP3   OH215674   5.927   3.400   1.370 -0.4254 -0.1024  0.3827
 5223TIP3    H115675   5.832   3.385   1.372 -0.2924 -2.1214 -2.4528
 5223TIP3    H215676   5.964   3.318   1.402  0.3676  0.0385 -0.1550
 5224TIP3   OH215677   1.884   1.313   3.389  0.4785 -0.1271  0.0082
 5224TIP3    H115678   1.788   1.311   3.384  0.0225 -4.0723  3.8393
 5224TIP3    H215679   1.912   1.241   3.333  1.1398  0.3769 -0.3147
 5225TIP3   OH215680   2.602   1.145   1.830  0.0135 -0.1423  0.0031
 5225TIP3    H115681   2.558   1.224   1.797 -1.0048 -0.9289 -0.5453
 5225TIP3    H215682   2.682   1.139   1.778  0.6321  1.0930  0.7587
 5226TIP3   OH215683   0.132   5.383   3.195  0.1058  0.1508  0.5740
 5226TIP3    H115684   0.063   5.419   3.251  1.3515  2.3854  0.7654
 5226TIP3    H215685   0.107   5.409   3.107 -0.2207 -0.6364  0.4265
 5227TIP3   OH215686   0.559   3.870   1.211  0.0826 -0.3405  0.1287
 5227TIP3    H115687   0.589   3.917   1.289  0.7025 -2.1151  0.9948
 5227TIP3    H215688   0.522   3.939   1.155 -1.0012  0.9068  2.2454
 5228TIP3   OH215689   5.120   5.328   0.734 -0.4968 -0.8228 -0.2227
 5228TIP3    H115690   5.175   5.322   0.813 -0.4268  1.0541 -0.0791
 5228TIP3    H215691   5.162   5.269   0.671  1.5575  0.3068 -0.0179
 5229TIP3   OH215692   3.214   3.364   1.687 -0.2527  0.3060  0.0682
 5229TIP3    H115693   3.227   3.414   1.605  1.1819 -0.8809 -0.4796
 5229TIP3    H215694   3.213   3.431   1.755  1.2152  1.1736 -0.6897
 5230TIP3   OH215695   1.539   0.512   4.540 -0.4564 -0.2383 -0.1884
 5230TIP3    H115696   1.477   0.576   4.575 -0.2463 -0.5182  0.7339
 5230TIP3    H215697   1.521   0.432   4.590 -0.0380 -0.6068 -0.6222
 5231TIP3   OH215698   3.833   2.362   2.631  0.4522 -0.5596  0.1176
 5231TIP3    H115699   3.884   2.413   2.694  1.8362 -1.6146 -0.1004
 5231TIP3    H215700   3.819   2.278   2.675  0.2592 -0.8269 -0.4572
 5232TIP3   OH215701   1.235   2.767   1.903  0.2383 -0.0380  0.4461
 5232TIP3    H115702   1.308   2.706   1.917 -2.0081 -3.2310 -0.6400
 5232TIP3    H215703   1.209   2.792   1.992  0.8318 -1.1989  0.9806
 5233TIP3   OH215704   4.303   1.548   1.214  0.1824  0.5106  1.3791
 5233TIP3    H115705   4.324   1.595   1.294  3.0359  0.0462  0.9970
 5233TIP3    H215706   4.384   1.548   1.164 -0.8249 -1.3856 -0.4195
 5234TIP3   OH215707   1.914   5.458   3.173  0.3670  0.1379  0.8537
 5234TIP3    H115708   1.935   5.548   3.198  0.8120 -0.1942  1.7152
 5234TIP3    H215709   1.970   5.404   3.229  0.9485 -0.6575 -0.4277
 5235TIP3   OH215710   3.772   0.784   0.092  0.5009 -0.3749 -0.5842
 5235TIP3    H115711   3.774   0.697   0.132 -2.3067 -0.3309 -0.1577
 5235TIP3    H215712   3.817   0.773   0.008  1.7489 -1.7715  0.2222
 5236TIP3   OH215713   3.686   0.821   4.827  0.0211  0.3523  0.2600
 5236TIP3    H115714   3.614   0.836   4.765  0.5146 -1.9236 -0.9796
 5236TIP3    H215715   3.735   0.748   4.789  0.9454 -0.4824  2.8513
 5237TIP3   OH215716   4.379   5.869   2.063 -0.4478  0.1464  0.0810
 5237TIP3    H115717   4.412   5.779   2.063 -0.6823  0.0607  0.3992
 5237TIP3    H215718   4.442   5.918   2.117 -1.4921 -0.2636  1.7335
 5238TIP3   OH215719   2.945   0.710   3.354  0.1833  0.1067 -0.1317
 5238TIP3    H115720   2.910   0.656   3.425  0.6559  1.3076  1.0769
 5238TIP3    H215721   2.914   0.668   3.274 -1.6466 -0.4595  0.8070
 5239TIP3   OH215722   2.556   3.151   0.925  0.2785  0.1320 -0.4191
 5239TIP3    H115723   2.461   3.153   0.938  0.0592  0.0854 -1.8117
 5239TIP3    H215724   2.569   3.087   0.855  1.4872 -0.9809  0.7853
 5240TIP3   OH215725   6.328   0.633   3.843  0.2506 -0.1583 -0.2299
 5240TIP3    H115726   6.333   0.545   3.805  0.3760  0.5588 -1.9583
 5240TIP3    H215727   6.294   0.619   3.931 -4.0820 -1.6459 -1.8375
 5241TIP3   OH215728   5.513   4.352   3.297 -0.3442  0.1276 -0.3885
 5241TIP3    H115729   5.567   4.274   3.314 -0.3950  0.5476  2.0810
 5241TIP3    H215730   5.504   4.354   3.202 -0.4798 -2.9739 -0.5571
 5242TIP3   OH215731   5.149   2.040   2.918  0.2880 -0.1238  0.4218
 5242TIP3    H115732   5.155   1.945   2.908 -0.4902 -0.1446  0.0772
 5242TIP3    H215733   5.094   2.068   2.845 -0.2108  0.4938  1.0210
 5243TIP3   OH215734   5.477   0.105   2.393  0.2744  0.2031 -0.1686
 5243TIP3    H115735   5.542   0.036   2.380 -0.7293 -0.6024 -1.1137
 5243TIP3    H215736   5.522   0.186   2.368  0.8973 -0.3515 -0.8857
 5244TIP3   OH215737   4.760   1.726   5.014  0.0999  0.0921  0.4631
 5244TIP3    H115738   4.850   1.695   5.013 -0.0401 -0.7053  3.4805
 5244TIP3    H215739   4.707   1.648   4.995  0.0047  0.1132  0.6314
 5245TIP3   OH215740   4.083   5.798   3.380 -0.5729  0.2986  0.2169
 5245TIP3    H115741   4.173   5.818   3.406 -0.2528 -1.6428  0.7058
 5245TIP3    H215742   4.050   5.881   3.345  1.2880  1.1317  0.3104
 5246TIP3   OH215743   1.581   1.905   0.371 -0.2253 -0.2551  0.4226
 5246TIP3    H115744   1.543   1.947   0.448 -1.5473 -1.6662  0.5827
 5246TIP3    H215745   1.647   1.845   0.406  0.6073  0.5532  0.2894
 5247TIP3   OH215746   2.472   4.116   2.708  0.3773  0.7494  0.3193
 5247TIP3    H115747   2.393   4.149   2.664  0.7032 -0.1501 -0.9981
 5247TIP3    H215748   2.542   4.173   2.676  0.7844 -0.5285 -1.2139
 5248TIP3   OH215749   4.369   0.386   1.839 -0.7110 -0.1008 -0.5404
 5248TIP3    H115750   4.312   0.393   1.762 -1.2890 -0.2659 -0.1386
 5248TIP3    H215751   4.335   0.310   1.886 -0.0809 -0.2671 -0.3477
 5249TIP3   OH215752   5.618   0.649   1.920  0.1961  0.1479  0.2413
 5249TIP3    H115753   5.645   0.719   1.861  0.3857 -0.5717 -0.5434
 5249TIP3    H215754   5.527   0.631   1.896  0.1200  0.1840  0.5020
 5250TIP3   OH215755   1.865   0.163   0.976  0.3021 -0.0595  0.1255
 5250TIP3    H115756   1.950   0.150   0.932  0.9316 -0.5932  1.4521
 5250TIP3    H215757   1.845   0.256   0.961  1.5905  0.3180  0.5705
 5251TIP3   OH215758   3.422   1.110   1.056 -0.1310  0.4803  0.1376
 5251TIP3    H115759   3.437   1.039   0.993 -0.6167  1.3632 -1.0002
 5251TIP3    H215760   3.486   1.177   1.033  0.5847  0.2900  1.4537
 5252TIP3   OH215761   3.106   3.272   5.069 -0.4499 -0.2769  0.5439
 5252TIP3    H115762   3.155   3.216   5.129  1.1088  0.0180 -0.4108
 5252TIP3    H215763   3.157   3.353   5.064 -0.4132 -0.3687 -1.3058
 5253TIP3   OH215764   4.563   3.252   2.163 -0.0732  0.0741 -0.9238
 5253TIP3    H115765   4.502   3.197   2.213  0.8703  0.3856  0.6265
 5253TIP3    H215766   4.591   3.196   2.091 -0.8130 -0.7054 -0.6352
 5254TIP3   OH215767   0.635   0.188   0.722 -0.1133 -0.0843 -0.8039
 5254TIP3    H115768   0.629   0.182   0.817 -2.6422  0.6247 -0.8439
 5254TIP3    H215769   0.617   0.280   0.702 -1.9697 -0.6629 -2.0549
 5255TIP3   OH215770   0.281   2.437   3.111 -0.0587  0.0894 -0.0036
 5255TIP3    H115771   0.344   2.430   3.040 -0.2550 -0.5572 -0.1198
 5255TIP3    H215772   0.226   2.511   3.087 -0.0344 -0.0363 -0.4554
 5256TIP3   OH215773   3.780   5.244   4.046  0.3020 -0.1438  0.1255
 5256TIP3    H115774   3.826   5.328   4.046  0.4590 -0.2278 -0.2527
 5256TIP3    H215775   3.822   5.194   3.977 -0.1033 -0.3642  0.0368
 5257TIP3   OH215776   2.392   4.858   0.670  0.5350 -0.2712  0.3535
 5257TIP3    H115777   2.437   4.942   0.662 -0.7882  0.2892 -2.7046
 5257TIP3    H215778   2.300   4.879   0.652  0.0692 -2.2784  0.2058
 5258TIP3   OH215779   3.082   5.444   0.919 -0.1783  0.6628 -0.7054
 5258TIP3    H115780   3.006   5.486   0.959  0.3843  0.6436  0.4040
 5258TIP3    H215781   3.155   5.467   0.975  0.7320  1.0340 -1.9900
 5259TIP3   OH215782   2.168   0.993   0.349 -0.6337 -0.2012  0.0418
 5259TIP3    H115783   2.082   1.018   0.315 -0.4125  0.0205 -0.3640
 5259TIP3    H215784   2.149   0.927   0.415 -0.9741 -1.8972 -1.6801
 5260TIP3   OH215785   6.153   1.000   1.884  0.6156 -0.6995  0.6509
 5260TIP3    H115786   6.124   0.950   1.960  1.4969  1.0445  2.2070
 5260TIP3    H215787   6.246   0.978   1.875  1.3706  1.5003  2.1728
 5261TIP3   OH215788   0.521   4.943   0.839  0.3211 -0.0644  0.3742
 5261TIP3    H115789   0.468   4.924   0.916 -0.6413  0.5578 -0.1028
 5261TIP3    H215790   0.498   4.874   0.777  1.6065 -0.9599  0.8639
 5262TIP3   OH215791   2.405   0.041   2.421 -0.1409 -0.0491  0.0660
 5262TIP3    H115792   2.344   0.044   2.347  0.4371 -1.0684 -0.4815
 5262TIP3    H215793   2.434  -0.050   2.424 -0.7312 -0.2110  2.0558
 5263TIP3   OH215794   1.081   2.538   4.343 -0.3901 -0.2427 -0.2606
 5263TIP3    H115795   1.042   2.618   4.377  2.6037 -0.4098  4.3218
 5263TIP3    H215796   1.175   2.552   4.348  0.2694 -3.8243  0.2103
 5264TIP3   OH215797   4.547   2.751   1.783 -0.2804 -0.0708  0.2326
 5264TIP3    H115798   4.606   2.709   1.721  0.8814  2.0373 -0.1944
 5264TIP3    H215799   4.461   2.748   1.740  0.3758  0.7401 -1.2216
 5265TIP3   OH215800   3.878   3.505   2.473  0.1712  0.4108 -0.4143
 5265TIP3    H115801   3.807   3.454   2.434 -1.1808  1.1549  0.9197
 5265TIP3    H215802   3.923   3.443   2.530  0.4762 -0.0231 -1.1196
 5266TIP3   OH215803   0.484   1.988   1.326  0.0106 -0.1947 -0.1180
 5266TIP3    H115804   0.400   1.943   1.321 -0.4747  0.6143  0.5063
 5266TIP3    H215805   0.517   1.988   1.236 -1.4517  0.9779 -0.6778
 5267TIP3   OH215806   3.572   2.045   4.169 -0.0714  0.3678  0.2207
 5267TIP3    H115807   3.487   2.067   4.131 -0.6300  0.8469  1.6968
 5267TIP3    H215808   3.623   2.013   4.095 -1.6323 -0.2449 -0.6417
 5268TIP3   OH215809   1.026   4.094   4.192  0.1540  0.4108  0.2150
 5268TIP3    H115810   1.091   4.057   4.132  0.3723  1.0854  0.0309
 5268TIP3    H215811   1.072   4.100   4.276  0.1814  0.4606  0.1961
 5269TIP3   OH215812   3.942   0.948   2.065 -0.4225  0.1261  0.9095
 5269TIP3    H115813   3.994   0.896   2.126  2.3863  1.9361  0.2360
 5269TIP3    H215814   3.959   0.909   1.979  1.4331  1.8330  0.4446
 5270TIP3   OH215815   2.474   5.562   2.190  0.1133 -0.2870 -0.1516
 5270TIP3    H115816   2.567   5.537   2.187 -0.1256 -1.7330  2.0985
 5270TIP3    H215817   2.428   5.490   2.148 -0.0515  0.0862 -0.6158
 5271TIP3   OH215818   0.574   2.526   1.018  0.6241  0.1409  0.6504
 5271TIP3    H115819   0.536   2.612   1.038  0.0720  0.2577 -0.7431
 5271TIP3    H215820   0.660   2.528   1.060 -0.3267  0.4188  2.6727
 5272TIP3   OH215821   3.070   2.586   0.908 -0.2458  0.3081  0.1401
 5272TIP3    H115822   3.109   2.667   0.875 -0.7437  1.1113  1.4651
 5272TIP3    H215823   3.025   2.612   0.988 -1.9581 -0.9279 -0.3593
 5273TIP3   OH215824   3.808   4.505   3.011 -0.0344 -0.0771 -0.0083
 5273TIP3    H115825   3.736   4.450   2.983 -1.4361  0.2418  2.6688
 5273TIP3    H215826   3.871   4.445   3.051  0.0565 -0.0880 -0.1652
 5274TIP3   OH215827   5.536   3.803   1.599 -0.6540 -0.1453 -0.0128
 5274TIP3    H115828   5.498   3.716   1.592  0.7499 -0.6660 -1.7057
 5274TIP3    H215829   5.498   3.852   1.526  0.8013 -0.2801 -0.9103
 5275TIP3   OH215830   2.084   2.254   2.210  0.1634  0.0753  0.4371
 5275TIP3    H115831   2.002   2.221   2.247 -1.0361  0.4581 -1.6800
 5275TIP3    H215832   2.133   2.287   2.286 -0.7278 -1.9868  2.0032
 5276TIP3   OH215833   5.146   0.354   2.389 -0.7779 -0.5813 -0.2672
 5276TIP3    H115834   5.185   0.292   2.450 -0.2079  0.7198  0.7496
 5276TIP3    H215835   5.064   0.313   2.363 -0.8827 -1.3293  1.1218
 5277TIP3   OH215836   2.984   3.585   1.997 -0.1349  0.1089 -0.6414
 5277TIP3    H115837   3.054   3.520   2.006 -0.1790  0.0785 -0.5132
 5277TIP3    H215838   2.974   3.621   2.085 -1.2191 -0.8650 -0.3419
 5278TIP3   OH215839   5.219   4.050   1.541 -0.1779 -0.3089 -0.5397
 5278TIP3    H115840   5.172   4.130   1.519 -1.8096 -0.6322  1.4310
 5278TIP3    H215841   5.164   4.008   1.607  1.9846 -1.7009  0.4706
 5279TIP3   OH215842   4.116   0.425   4.895 -1.2656 -0.3843  0.2775
 5279TIP3    H115843   4.111   0.516   4.865 -3.5177 -0.2589  0.8394
 5279TIP3    H215844   4.166   0.429   4.977  0.8625 -0.0751 -0.9558
 5280TIP3   OH215845   1.729   1.475   2.867 -0.5476 -0.2933  0.1738
 5280TIP3    H115846   1.782   1.436   2.797 -1.2868 -1.7240  0.3604
 5280TIP3    H215847   1.774   1.451   2.947 -0.0639  0.7720  0.2318
 5281TIP3   OH215848   4.360   0.306   3.683 -0.3061  0.0132 -0.0942
 5281TIP3    H115849   4.339   0.297   3.776  1.0726 -0.0051  0.2378
 5281TIP3    H215850   4.411   0.386   3.678  0.9994 -0.8167 -0.5698
 5282TIP3   OH215851   3.968   5.428   2.162  0.4287 -0.3943  1.1242
 5282TIP3    H115852   3.964   5.349   2.216  0.9184 -0.9299  0.4032
 5282TIP3    H215853   3.897   5.418   2.099 -0.7668  0.6902  2.2284
 5283TIP3   OH215854   0.238   2.663   1.234  0.0725  0.3478  0.3774
 5283TIP3    H115855   0.180   2.631   1.304 -0.9104 -0.0192 -0.5683
 5283TIP3    H215856   0.252   2.586   1.178 -0.0414  0.8906 -0.4114
 5284TIP3   OH215857   5.033   2.389   1.534 -0.7012  0.2528  0.1450
 5284TIP3    H115858   5.050   2.323   1.467 -0.4459  2.1117 -1.7428
 5284TIP3    H215859   4.955   2.436   1.502  0.2272  2.0607  0.3902
 5285TIP3   OH215860   0.302   5.527   1.920  0.0528  0.3313 -0.3702
 5285TIP3    H115861   0.388   5.487   1.935 -0.0527  0.5217  0.8508
 5285TIP3    H215862   0.254   5.462   1.869  0.5302 -0.2941 -0.0365
 5286TIP3   OH215863   1.452   0.723   2.816 -0.2183 -0.2683  0.2093
 5286TIP3    H115864   1.477   0.632   2.798 -2.5719 -0.7516 -1.1381
 5286TIP3    H215865   1.535   0.769   2.830  1.1351 -2.2884 -0.6862
 5287TIP3   OH215866   5.570   2.721   4.547  0.2086  0.5446 -0.0859
 5287TIP3    H115867   5.586   2.755   4.459  1.8361 -0.8880 -0.3912
 5287TIP3    H215868   5.475   2.727   4.557 -0.1059  0.2040 -2.1939
 5288TIP3   OH215869   6.095   4.053   2.384  0.1560  0.1648 -0.0493
 5288TIP3    H115870   6.099   4.031   2.290  0.4289 -1.2636  0.2772
 5288TIP3    H215871   6.001   4.058   2.402  0.0952  0.0853 -0.3243
 5289TIP3   OH215872   1.727   2.692   1.365 -0.7830  0.1397 -0.4537
 5289TIP3    H115873   1.687   2.709   1.450  0.2507  0.1993  0.0281
 5289TIP3    H215874   1.652   2.684   1.305 -1.4714  1.7632  0.1287
 5290TIP3   OH215875   3.763   5.312   2.000  0.2879  0.1285 -0.4219
 5290TIP3    H115876   3.673   5.282   2.009  0.4562 -0.2710 -0.0067
 5290TIP3    H215877   3.769   5.345   1.910  0.1213 -1.2314 -0.9644
 5291TIP3   OH215878   0.170   0.131   4.485  0.1225  0.2570  0.0600
 5291TIP3    H115879   0.156   0.063   4.419 -0.3715  1.7679 -1.4946
 5291TIP3    H215880   0.215   0.087   4.557  0.5168 -1.5219 -1.2086
 5292TIP3   OH215881   0.690   2.350   0.020  0.0801 -0.1956  0.5841
 5292TIP3    H115882   0.747   2.283  -0.019 -0.4190 -0.1150 -0.3251
 5292TIP3    H215883   0.693   2.333   0.114  0.9631 -0.6933  0.4732
 5293TIP3   OH215884   1.792   3.716   5.131  0.1299 -0.0597 -0.0219
 5293TIP3    H115885   1.876   3.747   5.165 -0.4392  1.4338  0.1133
 5293TIP3    H215886   1.729   3.782   5.160 -1.0029 -0.8398 -0.6298
 5294TIP3   OH215887   5.365   3.442   2.139  0.1264 -0.6750 -0.4176
 5294TIP3    H115888   5.451   3.476   2.115  0.3966  0.1153  1.5057
 5294TIP3    H215889   5.383   3.356   2.177  0.1616 -0.2250  0.6070
 5295TIP3   OH215890   0.538   0.582   4.761  0.1055 -0.9257 -0.4144
 5295TIP3    H115891   0.602   0.511   4.768 -1.6775 -2.8920 -2.3739
 5295TIP3    H215892   0.464   0.553   4.814 -0.6128 -0.5185 -1.1770
 5296TIP3   OH215893   5.400   1.734   2.343 -0.0776  0.2014 -0.8095
 5296TIP3    H115894   5.350   1.653   2.330 -0.1754  0.3882 -1.6238
 5296TIP3    H215895   5.477   1.706   2.393 -0.3476 -0.3070 -0.6668
 5297TIP3   OH215896   2.769   1.057   4.940 -0.1021  0.4226 -0.1496
 5297TIP3    H115897   2.794   1.134   4.992  1.2112 -0.6604  0.9054
 5297TIP3    H215898   2.715   1.005   5.000  1.1563 -0.6831  0.0933
 5298TIP3   OH215899   3.634   3.562   3.230 -0.2224 -0.0537  0.2289
 5298TIP3    H115900   3.682   3.547   3.149 -1.1236  0.2728 -0.3842
 5298TIP3    H215901   3.688   3.522   3.298  0.6376 -0.1709 -0.5029
 5299TIP3   OH215902   3.809   2.697   2.799 -0.8734  0.0186 -0.0382
 5299TIP3    H115903   3.747   2.637   2.840 -0.6868 -0.2897 -0.2096
 5299TIP3    H215904   3.782   2.784   2.830 -0.0893 -0.2841  1.6009
 5300TIP3   OH215905   0.151   0.608   0.841  0.2401 -0.4175  0.2694
 5300TIP3    H115906   0.120   0.536   0.896  0.8727 -0.2074  0.9281
 5300TIP3    H215907   0.154   0.572   0.753 -0.3474 -0.9087  0.4465
 5301TIP3   OH215908   6.112   4.110   3.821  0.4338  0.6929 -0.2268
 5301TIP3    H115909   6.081   4.038   3.876  2.3225  0.6802  0.8961
 5301TIP3    H215910   6.038   4.171   3.818 -0.5614 -0.4417  0.2832
 5302TIP3   OH215911   1.175   3.215   3.595 -0.1059  0.4922  0.3146
 5302TIP3    H115912   1.121   3.181   3.523 -1.0854 -0.8868  1.6400
 5302TIP3    H215913   1.113   3.243   3.661  0.7815  1.7547  0.6536
 5303TIP3   OH215914   5.481   4.989   4.867 -0.3991  0.2474  0.1917
 5303TIP3    H115915   5.387   4.996   4.887 -0.6791 -0.4652 -0.7868
 5303TIP3    H215916   5.511   4.915   4.921 -0.2917  0.7422  0.8261
 5304TIP3   OH215917   2.813   3.419   2.515 -0.1221 -0.4248 -0.0270
 5304TIP3    H115918   2.783   3.358   2.448  0.2997  0.1722 -0.7711
 5304TIP3    H215919   2.894   3.379   2.549  0.0670 -0.3607 -0.3994
 5305TIP3   OH215920   3.330   1.410   3.669 -0.1038  0.0836 -0.1258
 5305TIP3    H115921   3.341   1.378   3.580 -2.2769  0.1651 -0.4836
 5305TIP3    H215922   3.387   1.487   3.675 -0.5273  0.5527 -1.7191
 5306TIP3   OH215923   1.931   4.854   2.327  0.3967 -0.0306 -0.2452
 5306TIP3    H115924   1.844   4.875   2.291  0.2987  2.3363  1.1329
 5306TIP3    H215925   1.922   4.872   2.421  2.3606  0.2065 -0.0661
 5307TIP3   OH215926   1.072   0.917   0.936 -0.2960 -0.2911 -0.6582
 5307TIP3    H115927   1.011   0.973   0.984 -0.9367 -1.4686 -0.0505
 5307TIP3    H215928   1.065   0.832   0.979  0.4718 -0.9042 -1.7045
 5308TIP3   OH215929   1.766   0.624   3.385 -0.0992 -0.3904  0.0439
 5308TIP3    H115930   1.701   0.693   3.372 -0.1445 -0.6301 -1.1556
 5308TIP3    H215931   1.727   0.565   3.449 -1.0746 -0.5355 -0.6686
 5309TIP3   OH215932   2.296   0.925   1.645 -0.7631 -0.0934 -0.3666
 5309TIP3    H115933   2.235   0.852   1.634 -0.6211 -0.1983 -0.4543
 5309TIP3    H215934   2.373   0.901   1.593 -2.0135  1.6158 -3.3087
 5310TIP3   OH215935   2.946   3.726   3.724 -0.1451 -0.5102  0.1453
 5310TIP3    H115936   2.940   3.694   3.814 -0.2137 -2.0599 -0.3736
 5310TIP3    H215937   2.987   3.654   3.676  1.2216  0.8532 -0.8082
 5311TIP3   OH215938   0.079   4.821   0.849  0.0077 -0.4086 -0.3030
 5311TIP3    H115939   0.060   4.730   0.828 -1.5924 -0.4392  0.9826
 5311TIP3    H215940   0.052   4.870   0.771  1.1838 -1.0393 -1.1264
 5312TIP3   OH215941   4.141  -0.010   0.176 -0.0603 -0.0157  0.2725
 5312TIP3    H115942   4.100   0.071   0.145  0.0185  0.2029  0.7404
 5312TIP3    H215943   4.234   0.001   0.157 -0.2524 -0.6999 -1.2080
 5313TIP3   OH215944   0.693   2.243   3.549 -0.8398 -0.0666  0.0837
 5313TIP3    H115945   0.645   2.276   3.625 -2.3480 -1.9362  0.0133
 5313TIP3    H215946   0.773   2.296   3.547 -0.2512 -0.5627  3.5322
 5314TIP3   OH215947   2.829   2.809   1.223 -0.3032  0.1806 -0.3045
 5314TIP3    H115948   2.902   2.870   1.225 -0.1835  0.0904 -1.4142
 5314TIP3    H215949   2.819   2.780   1.314  0.6909  0.6012 -0.0558
 5315TIP3   OH215950   0.191   2.970   0.579  0.0350 -0.5152 -0.3872
 5315TIP3    H115951   0.269   2.994   0.630  0.4118  1.3800 -1.7595
 5315TIP3    H215952   0.226   2.929   0.500 -0.4998 -2.2008  0.2141
 5316TIP3   OH215953   2.910   1.074   4.053 -0.3612 -0.1730 -0.0895
 5316TIP3    H115954   2.831   1.021   4.052 -0.1265 -0.5460  0.4757
 5316TIP3    H215955   2.960   1.042   4.128  0.5262 -0.2299 -0.6881
 5317TIP3   OH215956   0.817   5.186   4.270 -0.2688  0.6481  0.7779
 5317TIP3    H115957   0.851   5.271   4.300  0.1225  1.3111 -1.3795
 5317TIP3    H215958   0.868   5.166   4.192 -1.7351 -0.6097  0.0882
 5318TIP3   OH215959   2.952   1.262   4.802  0.1365 -0.4043  0.0920
 5318TIP3    H115960   3.029   1.293   4.754  0.0149  2.3587  1.4670
 5318TIP3    H215961   2.988   1.207   4.872  0.6996 -0.7024 -0.4260
 5319TIP3   OH215962   0.768   0.913   0.728 -0.0187  0.0797  0.2810
 5319TIP3    H115963   0.726   0.951   0.806  0.7277  2.6381 -0.4517
 5319TIP3    H215964   0.825   0.983   0.696  1.6095 -1.8063 -1.1444
 5320TIP3   OH215965   4.659   0.855   1.335 -0.0591 -0.3527 -0.5100
 5320TIP3    H115966   4.667   0.792   1.264 -0.5477  0.8437 -1.6704
 5320TIP3    H215967   4.663   0.940   1.292 -1.6631  0.4049  0.7255
 5321TIP3   OH215968   2.205   2.662   1.725  0.4286 -0.7379  0.0021
 5321TIP3    H115969   2.258   2.715   1.666  0.1080 -0.6460 -0.2071
 5321TIP3    H215970   2.249   2.577   1.726  1.2396 -0.3169  0.7512
 5322TIP3   OH215971   5.920   4.981   2.742  0.1407 -0.6617  0.1597
 5322TIP3    H115972   5.939   4.928   2.665  2.6198  1.2025 -0.6505
 5322TIP3    H215973   5.985   5.051   2.740 -2.0791  1.6453  1.9177
 5323TIP3   OH215974   2.540   0.277   0.001 -0.3607 -0.0591  0.6770
 5323TIP3    H115975   2.566   0.186   0.018  0.3968  0.0365  0.0737
 5323TIP3    H215976   2.477   0.297   0.071 -1.7598 -1.5494 -0.0773
 5324TIP3   OH215977   0.184   0.218   3.519  0.8127 -0.5870  0.3385
 5324TIP3    H115978   0.197   0.299   3.567  0.0155 -0.3996  0.2583
 5324TIP3    H215979   0.269   0.175   3.520  1.2618  0.2915  0.3013
 5325TIP3   OH215980   1.579   2.600   4.963  0.3010 -0.7427  0.3416
 5325TIP3    H115981   1.599   2.630   4.874  0.1194 -2.3684 -0.2875
 5325TIP3    H215982   1.568   2.681   5.014  0.8310  0.2187 -1.0060
 5326TIP3   OH215983   3.380   4.714   4.618  0.0861 -1.1237  0.5133
 5326TIP3    H115984   3.325   4.694   4.542 -0.8566  0.5118  0.7251
 5326TIP3    H215985   3.468   4.722   4.582 -0.3158 -0.5854 -0.3948
 5327TIP3   OH215986   2.049   5.841   4.878  0.2785 -0.2904 -0.3601
 5327TIP3    H115987   2.138   5.848   4.842  0.7614 -0.3083  0.8012
 5327TIP3    H215988   1.993   5.829   4.801  1.1266  1.0842 -1.2238
 5328TIP3   OH215989   3.470   2.625   4.566  0.3063  0.2893  0.4847
 5328TIP3    H115990   3.423   2.666   4.493 -1.0389  1.5859  1.9876
 5328TIP3    H215991   3.443   2.533   4.564 -0.7991  0.6066  0.1487
 5329TIP3   OH215992   1.395   2.168   1.513 -0.1164  0.2939  0.1805
 5329TIP3    H115993   1.379   2.189   1.605  2.0730 -0.8623  0.9141
 5329TIP3    H215994   1.472   2.111   1.515 -0.1275  0.0748 -2.3735
 5330TIP3   OH215995   3.660   1.519   3.873 -0.5556 -0.1247  0.0910
 5330TIP3    H115996   3.753   1.506   3.894 -0.8276 -2.3664  0.2168
 5330TIP3    H215997   3.656   1.506   3.778 -0.9443 -1.9094  0.3109
 5331TIP3   OH215998   4.570   5.557   4.138  0.3923  0.0975  0.9480
 5331TIP3    H115999   4.520   5.487   4.180  0.1857 -0.4860 -0.2150
 5331TIP3    H216000   4.603   5.610   4.210  0.7312 -1.3207  1.8682
 5332TIP3   OH216001   0.113   5.864   1.824 -0.1079  0.2534 -0.0847
 5332TIP3    H116002   0.026   5.865   1.784  0.8219  0.1566 -2.2366
 5332TIP3    H216003   0.140   5.956   1.826  1.0736  0.0542 -2.6894
 5333TIP3   OH216004   6.201   4.338   4.904  0.1589  0.3336 -0.1518
 5333TIP3    H116005   6.120   4.386   4.888  0.6973  0.9460 -1.1446
 5333TIP3    H216006   6.239   4.379   4.982 -1.1612 -0.8915  1.1904
 5334TIP3   OH216007   1.604   5.521   2.963 -0.5205  0.2444 -0.0997
 5334TIP3    H116008   1.691   5.508   2.924 -0.3111  0.7957  0.1784
 5334TIP3    H216009   1.620   5.568   3.045 -1.0001 -0.5369  0.4545
 5335TIP3   OH216010   3.679   5.886   1.124 -0.3469 -0.3070 -0.0885
 5335TIP3    H116011   3.677   5.901   1.029 -0.4373 -2.2419 -0.4303
 5335TIP3    H216012   3.728   5.960   1.159  0.3105  0.0723 -1.7334
 5336TIP3   OH216013   1.818   5.814   2.585 -0.2291 -0.2894  0.0222
 5336TIP3    H116014   1.822   5.894   2.533 -0.4221  1.0334  1.9192
 5336TIP3    H216015   1.906   5.777   2.579  0.1477  0.5911 -0.1294
 5337TIP3   OH216016   5.656   3.266   1.207  0.7696  0.5789 -0.2888
 5337TIP3    H116017   5.640   3.256   1.301  2.3860  2.0805  0.1871
 5337TIP3    H216018   5.608   3.345   1.183 -1.4334 -0.9326 -1.2700
 5338TIP3   OH216019   1.212   2.004   1.033  0.4039  0.3362  0.3869
 5338TIP3    H116020   1.286   2.017   1.091  1.1105  0.1524 -0.4540
 5338TIP3    H216021   1.175   1.920   1.060 -0.6962  1.3168  2.0698
 5339TIP3   OH216022   4.369   4.317   4.633 -0.2356  0.2739 -0.3079
 5339TIP3    H116023   4.343   4.280   4.717  0.5406  0.5137  0.0504
 5339TIP3    H216024   4.331   4.258   4.568  0.4337 -0.8076  0.2395
 5340TIP3   OH216025   0.154   4.589   3.870  0.3519 -0.0663 -0.1410
 5340TIP3    H116026   0.144   4.669   3.818  0.0685  0.8153  1.2093
 5340TIP3    H216027   0.066   4.567   3.899  0.4168 -0.9269 -0.5790
 5341TIP3   OH216028   2.672   1.127   1.176 -0.2411 -0.1512  0.1283
 5341TIP3    H116029   2.615   1.053   1.157 -0.4438 -0.1199  0.6269
 5341TIP3    H216030   2.658   1.187   1.103  1.2575 -1.3718 -1.2727
 5342TIP3   OH216031   4.344   3.306   2.690  0.1481  0.0660 -0.5312
 5342TIP3    H116032   4.430   3.343   2.709  1.2681 -2.2038 -0.9383
 5342TIP3    H216033   4.358   3.212   2.684 -2.0606 -0.2457 -2.2620
 5343TIP3   OH216034   2.114   0.696   0.043 -0.2244 -0.3469  0.4210
 5343TIP3    H116035   2.126   0.738  -0.043 -0.9870 -1.9221 -0.5011
 5343TIP3    H216036   2.090   0.606   0.022 -2.6063 -0.2240  2.2528
 5344TIP3   OH216037   4.512   1.284   1.086  0.2797  0.1928  0.1783
 5344TIP3    H116038   4.534   1.375   1.064 -1.3520  0.4832 -0.3620
 5344TIP3    H216039   4.464   1.251   1.011  2.1171 -1.6585 -0.2870
 5345TIP3   OH216040   5.051   2.666   4.521 -0.0328  0.2821  0.4856
 5345TIP3    H116041   4.995   2.726   4.571 -0.4813  1.6294 -1.5304
 5345TIP3    H216042   5.007   2.657   4.436  2.2340  0.4807 -0.7763
 5346TIP3   OH216043   0.542   3.476   0.064  0.4756  0.1449 -0.6008
 5346TIP3    H116044   0.530   3.505   0.154  0.2121 -0.8773 -0.2993
 5346TIP3    H216045   0.607   3.406   0.068  0.3188 -0.0439 -1.1723
 5347TIP3   OH216046   0.821   2.232   2.024 -0.4009 -0.1117  0.0650
 5347TIP3    H116047   0.839   2.183   1.944 -1.1220 -1.5935  0.7745
 5347TIP3    H216048   0.789   2.166   2.086  0.1098  0.9938  1.5684
 5348TIP3   OH216049   5.768   1.039   1.477  0.5351 -0.5192  0.1425
 5348TIP3    H116050   5.796   0.989   1.400  3.4206  0.9086  0.1694
 5348TIP3    H216051   5.827   1.010   1.546 -0.4374  0.0095  1.2166
 5349TIP3   OH216052   0.835   0.177   4.001 -0.0166 -0.4115 -0.2376
 5349TIP3    H116053   0.785   0.247   3.961  0.4133 -0.4254 -0.8162
 5349TIP3    H216054   0.784   0.098   3.984 -1.3767 -0.0609  1.9005
 5350TIP3   OH216055   0.916   4.982   4.462 -0.3583  0.1482  0.2566
 5350TIP3    H116056   0.981   5.051   4.447  1.2949 -1.5706 -0.8503
 5350TIP3    H216057   0.897   4.947   4.375  0.1601 -1.9332  0.9418
 5351TIP3   OH216058   1.873   5.108   1.339  0.5382  0.1602  0.6487
 5351TIP3    H116059   1.964   5.111   1.367  0.2309  0.1252  1.6764
 5351TIP3    H216060   1.828   5.054   1.404 -0.1378 -0.1957 -0.0878
 5352TIP3   OH216061   1.337   3.894   0.044 -0.3525 -0.3924  0.4021
 5352TIP3    H116062   1.373   3.856   0.124 -0.8025 -0.3223  0.6418
 5352TIP3    H216063   1.330   3.820  -0.016 -0.1425 -0.4710  0.4716
 5353TIP3   OH216064   0.512   2.265   2.306 -0.1164 -0.3313 -0.0206
 5353TIP3    H116065   0.456   2.295   2.235 -0.4692  1.8568  1.0881
 5353TIP3    H216066   0.586   2.223   2.261 -2.4953 -3.3057 -1.5084
 5354TIP3   OH216067   5.199   2.773   5.031  0.2827 -0.2817 -0.1076
 5354TIP3    H116068   5.261   2.811   5.094  0.7976 -1.1949 -0.0540
 5354TIP3    H216069   5.222   2.816   4.948  0.9908 -0.6036 -0.0881
 5355TIP3   OH216070   1.816   3.746   4.272  0.1994  0.4861  0.2424
 5355TIP3    H116071   1.729   3.786   4.281 -0.4237 -0.8868  0.5800
 5355TIP3    H216072   1.863   3.774   4.351 -0.3429  0.3037  0.6405
 5356TIP3   OH216073   0.895   4.828   1.662  0.3049  0.1970 -0.6925
 5356TIP3    H116074   0.955   4.879   1.607  1.0774 -1.2692 -1.2891
 5356TIP3    H216075   0.953   4.768   1.710 -0.5463  0.0056  0.1095
 5357TIP3   OH216076   2.912   0.821   4.831 -0.1213 -0.0015  0.1957
 5357TIP3    H116077   3.001   0.844   4.855  0.4253  0.5455 -2.1310
 5357TIP3    H216078   2.860   0.898   4.852 -0.0244 -0.2299  1.3226
 5358TIP3   OH216079   3.911   3.698   4.109 -0.2484 -0.2543 -0.0770
 5358TIP3    H116080   3.965   3.770   4.074 -0.4309 -0.3005 -0.4564
 5358TIP3    H216081   3.936   3.693   4.201  0.4682 -0.3315 -0.2685
 5359TIP3   OH216082   2.102   0.157   0.833 -0.6176  0.4162 -0.1572
 5359TIP3    H116083   2.186   0.130   0.871 -0.8402  0.9050  0.7013
 5359TIP3    H216084   2.090   0.097   0.759  1.2520  1.3429 -1.3025
 5360TIP3   OH216085   0.461   0.888   2.816 -0.0011  0.2104  0.2515
 5360TIP3    H116086   0.407   0.846   2.884 -0.2316 -0.1472 -0.1400
 5360TIP3    H216087   0.441   0.981   2.823  0.6275  0.2751  1.2334
 5361TIP3   OH216088   3.682   5.280   5.026  0.4529  0.5736  0.1169
 5361TIP3    H116089   3.668   5.332   4.946 -0.2779  0.5074  0.1977
 5361TIP3    H216090   3.769   5.306   5.056  0.8799  0.3617 -0.8784
 5362TIP3   OH216091   5.364   3.200   4.578  0.5412  0.0970 -0.0118
 5362TIP3    H116092   5.311   3.213   4.499  0.0168  1.6169  0.5428
 5362TIP3    H216093   5.434   3.266   4.571  0.4356  0.3117  0.8260
 5363TIP3   OH216094   0.630   3.614   1.077  0.1831  0.5368 -0.0199
 5363TIP3    H116095   0.555   3.653   1.121 -0.3220 -0.1737 -0.2334
 5363TIP3    H216096   0.593   3.570   1.000  0.9301  0.9287 -0.6100
 5364TIP3   OH216097   0.860   2.120   3.786 -0.5339  0.0481  0.6343
 5364TIP3    H116098   0.900   2.034   3.801  0.0524  0.3621  0.9146
 5364TIP3    H216099   0.768   2.101   3.767 -0.4473 -0.6273  0.8650
 5365TIP3   OH216100   5.372   2.692   3.315 -0.3428  0.3115 -0.3074
 5365TIP3    H116101   5.427   2.623   3.353 -0.4479 -0.3502 -1.3053
 5365TIP3    H216102   5.360   2.755   3.385 -2.0968 -1.7643  1.4168
 5366TIP3   OH216103   2.592   1.285   4.907  0.6831 -1.0720  0.2739
 5366TIP3    H116104   2.596   1.296   5.002  3.0452 -1.4481  0.2724
 5366TIP3    H216105   2.596   1.375   4.873 -2.4860 -0.7496  0.4778
 5367TIP3   OH216106   0.426   1.298   3.569 -0.1630 -0.1782  0.1555
 5367TIP3    H116107   0.457   1.387   3.554  0.8210 -0.4290  0.6188
 5367TIP3    H216108   0.395   1.298   3.660 -0.6317 -0.1819 -0.0019
 5368TIP3   OH216109   4.787   4.109   3.317 -0.1764  0.0111  0.4868
 5368TIP3    H116110   4.793   4.055   3.238  0.3703  1.7185 -0.6899
 5368TIP3    H216111   4.837   4.061   3.382  2.6917  0.3285 -1.2920
 5369TIP3   OH216112   4.013   1.383   1.380 -0.0817  0.4833 -0.7195
 5369TIP3    H116113   3.998   1.477   1.367 -0.4303  0.2298 -2.5200
 5369TIP3    H216114   3.926   1.344   1.375 -0.0042  0.1120  0.6494
 5370TIP3   OH216115   6.260   3.854   2.520  0.4017  0.2570  0.0424
 5370TIP3    H116116   6.180   3.899   2.492  0.3305 -0.4973 -1.0801
 5370TIP3    H216117   6.240   3.761   2.504  0.4686 -0.2239  2.4397
 5371TIP3   OH216118   0.041   1.952   3.120 -0.2983  0.2209 -0.3534
 5371TIP3    H116119  -0.021   1.921   3.185  0.0251  0.0969 -0.0990
 5371TIP3    H216120   0.055   1.877   3.062  0.8145 -0.2674  0.5154
 5372TIP3   OH216121   0.611   5.471   4.971  0.1986  0.1869  0.3522
 5372TIP3    H116122   0.640   5.418   4.897 -0.2443  0.4222  0.0040
 5372TIP3    H216123   0.575   5.407   5.033  0.3407  0.0108  0.2548
 5373TIP3   OH216124   5.653   2.177   4.739  0.2176  0.7041  0.5258
 5373TIP3    H116125   5.729   2.226   4.769 -0.1929  0.4015  2.1291
 5373TIP3    H216126   5.621   2.226   4.663  0.6066  2.1815  1.2791
 5374TIP3   OH216127   1.631   3.204   2.657  0.0083 -0.1126 -0.2938
 5374TIP3    H116128   1.677   3.272   2.707  0.8605 -0.6934 -0.2562
 5374TIP3    H216129   1.701   3.152   2.618 -0.6407 -0.1451 -1.4680
 5375TIP3   OH216130   4.791   5.596   2.577  0.0404 -0.2173 -0.3071
 5375TIP3    H116131   4.808   5.661   2.508  0.5959 -0.6322 -0.5662
 5375TIP3    H216132   4.796   5.646   2.659  1.6814 -0.1426 -0.4215
 5376TIP3   OH216133   1.077   5.533   1.259 -0.1653 -0.3772 -0.2657
 5376TIP3    H116134   1.161   5.509   1.220 -0.4097 -0.2249 -0.8870
 5376TIP3    H216135   1.033   5.587   1.193 -0.0785  0.9160  0.6712
 5377TIP3   OH216136   3.204   3.098   2.010 -0.3095 -0.1632 -0.8186
 5377TIP3    H116137   3.213   3.069   2.101  1.0352  0.4024 -0.7477
 5377TIP3    H216138   3.246   3.030   1.958 -3.5238 -1.9445 -1.3489
 5378TIP3   OH216139   0.756   4.204   2.233  0.6576  0.0202 -0.0631
 5378TIP3    H116140   0.686   4.269   2.238  1.1992  0.9213 -2.5333
 5378TIP3    H216141   0.737   4.142   2.303 -2.6206  0.2225 -0.6337
 5379TIP3   OH216142   1.237   2.447   2.414  0.1744  0.6169 -0.0909
 5379TIP3    H116143   1.176   2.520   2.413 -0.3063  0.2255 -0.1018
 5379TIP3    H216144   1.198   2.383   2.353  1.5464  1.1182 -1.5478
 5380TIP3   OH216145   6.048   4.666   0.928 -0.2928 -0.5885 -0.0954
 5380TIP3    H116146   5.963   4.621   0.928 -0.6711  0.0973  0.8035
 5380TIP3    H216147   6.026   4.759   0.937  0.5670 -0.5135  1.8081
 5381TIP3   OH216148   5.345   5.134   0.158  0.6538  0.4417 -0.0770
 5381TIP3    H116149   5.397   5.057   0.179 -0.4428  0.3635  2.7775
 5381TIP3    H216150   5.256   5.101   0.149  0.5463  1.0451 -1.6335
 5382TIP3   OH216151   5.377   0.822   3.526 -0.1102  0.3548  0.3321
 5382TIP3    H116152   5.370   0.796   3.434 -0.1185  0.8212  0.1944
 5382TIP3    H216153   5.401   0.742   3.573 -0.8350 -0.0454  0.0259
 5383TIP3   OH216154   3.080   2.545   0.169  0.1984  0.0031  0.4063
 5383TIP3    H116155   3.112   2.635   0.176  2.8398 -0.9125  1.1557
 5383TIP3    H216156   3.045   2.525   0.257 -2.2526  0.8482 -0.2860
 5384TIP3   OH216157   0.580   2.286   4.024 -0.4866 -0.1369 -0.6043
 5384TIP3    H116158   0.561   2.243   4.108  1.6148 -0.9366 -0.4902
 5384TIP3    H216159   0.537   2.371   4.031  1.8853  1.0224  2.4969
 5385TIP3   OH216160   1.366   0.066   1.335 -0.2576  0.4425  0.3609
 5385TIP3    H116161   1.377   0.068   1.430  3.4809 -1.7704  0.1645
 5385TIP3    H216162   1.447   0.104   1.301 -1.2021  0.5042 -1.9990
 5386TIP3   OH216163   0.214   3.368   2.374  0.0235 -0.1062 -0.5299
 5386TIP3    H116164   0.143   3.369   2.438  0.4918  2.0365  0.0201
 5386TIP3    H216165   0.252   3.456   2.378  1.8627 -0.7818 -1.7622
 5387TIP3   OH216166   4.614   3.549   3.302  0.2658 -0.6158  0.0339
 5387TIP3    H116167   4.703   3.577   3.321  0.1702 -0.1772 -0.1723
 5387TIP3    H216168   4.623   3.483   3.234  0.3856 -0.1088 -0.4447
 5388TIP3   OH216169   0.042   0.854   1.616  0.5350  0.6807  0.1228
 5388TIP3    H116170   0.006   0.771   1.585 -2.3392  0.9365  2.2984
 5388TIP3    H216171   0.137   0.846   1.603  0.1968 -2.1644 -1.3898
 5389TIP3   OH216172   3.353   4.821   0.364 -0.8256  0.2345  0.4159
 5389TIP3    H116173   3.314   4.747   0.318 -0.7266 -0.2631  1.1208
 5389TIP3    H216174   3.395   4.783   0.441  1.6353  0.6519 -0.6209
 5390TIP3   OH216175   3.062   1.627   2.964  0.1663  0.3320  0.6875
 5390TIP3    H116176   3.099   1.704   3.007 -0.7493  0.2961  1.5676
 5390TIP3    H216177   3.049   1.564   3.034  0.2215 -0.3654  0.0886
 5391TIP3   OH216178   4.607   3.481   2.034 -0.6206 -0.0572  0.2260
 5391TIP3    H116179   4.571   3.471   1.945 -2.6876  2.2657  0.6744
 5391TIP3    H216180   4.581   3.401   2.079 -1.5595 -0.2838 -0.6737
 5392TIP3   OH216181   2.132   5.633   0.521 -0.1817  0.1711  0.1819
 5392TIP3    H116182   2.079   5.712   0.521 -0.3305  0.1222 -1.7811
 5392TIP3    H216183   2.220   5.663   0.497 -0.4494 -0.3209 -1.5707
 5393TIP3   OH216184   1.571   5.552   1.402  0.0747 -0.3141 -0.1531
 5393TIP3    H116185   1.637   5.595   1.456  0.4783 -1.3557  0.2066
 5393TIP3    H216186   1.530   5.624   1.353  0.8705  0.4488  0.2602
 5394TIP3   OH216187   4.191   5.666   5.020 -0.0372  0.0060 -0.0796
 5394TIP3    H116188   4.113   5.639   4.972 -0.7395  0.8899  0.5325
 5394TIP3    H216189   4.200   5.760   5.001  0.0162  0.2369  1.0315
 5395TIP3   OH216190   5.226   0.078   2.260 -0.2578  0.4236  0.1778
 5395TIP3    H116191   5.315   0.065   2.294  0.1379 -1.3840 -1.3515
 5395TIP3    H216192   5.237   0.077   2.165 -2.0198 -1.0595 -0.0682
 5396TIP3   OH216193   1.656   1.111   2.382  0.4583  0.0273 -0.6703
 5396TIP3    H116194   1.621   1.022   2.379  2.6288 -0.9413  0.5023
 5396TIP3    H216195   1.598   1.158   2.441 -0.5028 -0.6966 -1.0228
 5397TIP3   OH216196   4.096   3.412   2.680 -0.2148  0.7055  0.5014
 5397TIP3    H116197   4.113   3.506   2.679  0.0079  0.7073 -2.2414
 5397TIP3    H216198   4.183   3.372   2.683 -0.2844  0.5764  0.8620
 5398TIP3   OH216199   4.481   3.497   3.545  0.3536 -0.1900  0.4903
 5398TIP3    H116200   4.514   3.522   3.459  1.1222  0.4090  0.9486
 5398TIP3    H216201   4.552   3.444   3.583  0.7432  0.9533  1.4132
 5399TIP3   OH216202   0.083   1.266   2.187  0.0317 -0.0166  0.2293
 5399TIP3    H116203   0.040   1.204   2.246 -0.2971 -0.0178 -0.0148
 5399TIP3    H216204   0.098   1.216   2.107 -0.4052  0.2754 -0.0368
 5400TIP3   OH216205   4.280   3.026   0.820  0.5912  0.0630  0.1139
 5400TIP3    H116206   4.336   3.010   0.744 -0.1272  0.1153 -0.4482
 5400TIP3    H216207   4.272   2.941   0.863  0.9247  0.0130  0.0743
 5401TIP3   OH216208   4.184   5.699   0.795  0.1919 -0.4782 -0.1126
 5401TIP3    H116209   4.106   5.666   0.839  1.9182 -1.4703  2.4641
 5401TIP3    H216210   4.215   5.625   0.742 -0.4216 -0.1646 -0.9388
 5402TIP3   OH216211   2.110   2.119   0.828  0.3531  0.5134 -0.3930
 5402TIP3    H116212   2.136   2.152   0.742 -0.1180 -0.2444 -0.8332
 5402TIP3    H216213   2.154   2.034   0.836 -0.4884  0.0729 -0.3582
 5403TIP3   OH216214   1.439   0.821   1.620 -0.3074 -0.4346 -0.0204
 5403TIP3    H116215   1.476   0.808   1.533 -0.0845 -1.8971  0.2794
 5403TIP3    H216216   1.494   0.770   1.678  1.5409  2.9803  1.5487
 5404TIP3   OH216217   4.586   1.772   2.872 -0.2743  0.2906  0.1639
 5404TIP3    H116218   4.539   1.793   2.791  1.4742 -0.2485 -1.0681
 5404TIP3    H216219   4.645   1.847   2.885 -0.6826  0.4624  1.0655
 5405TIP3   OH216220   4.878   3.427   3.501 -0.3611 -0.6435 -0.6497
 5405TIP3    H116221   4.906   3.397   3.414  0.0482 -0.1496 -0.6902
 5405TIP3    H216222   4.814   3.362   3.529 -1.5539 -0.0758 -1.9150
 5406TIP3   OH216223   2.663   1.213   0.492  0.1810 -0.2044 -0.0056
 5406TIP3    H116224   2.588   1.175   0.537  1.2159 -1.6417  0.6143
 5406TIP3    H216225   2.730   1.221   0.560  1.3114 -1.0566 -0.9688
 5407TIP3   OH216226   0.100   5.527   0.419  0.0420  0.1021 -0.2815
 5407TIP3    H116227   0.068   5.543   0.508 -0.6180  1.5920 -0.7498
 5407TIP3    H216228   0.030   5.478   0.377  0.3908 -0.6795  0.0194
 5408TIP3   OH216229   3.291   4.298   0.500  0.3844 -0.7936 -0.4462
 5408TIP3    H116230   3.374   4.276   0.458  1.3271  0.4260  0.7291
 5408TIP3    H216231   3.227   4.239   0.459  1.8070 -1.7212 -1.3916
 5409TIP3   OH216232   1.875   4.317   2.732 -0.2009  0.6336 -0.3217
 5409TIP3    H116233   1.927   4.397   2.736 -0.2485  0.7867 -2.1747
 5409TIP3    H216234   1.786   4.344   2.757 -0.8642  1.8134 -3.5771
 5410TIP3   OH216235   0.293   3.100   4.279 -0.1812 -0.8336 -0.2595
 5410TIP3    H116236   0.219   3.039   4.278 -1.2077  0.3746 -0.2868
 5410TIP3    H216237   0.364   3.050   4.318 -1.3402 -1.6753  0.8722
 5411TIP3   OH216238   2.765   0.619   1.282  0.6690  0.4721 -0.1686
 5411TIP3    H116239   2.752   0.565   1.203  1.4718  1.0825 -0.7408
 5411TIP3    H216240   2.710   0.578   1.348  1.1673 -0.9902 -0.6194
 5412TIP3   OH216241   2.971   3.049   1.004  0.5534  1.1256 -0.1762
 5412TIP3    H116242   2.986   3.043   1.098 -0.7087 -0.7381 -0.0623
 5412TIP3    H216243   3.059   3.042   0.965  0.8905 -0.2778  0.7850
 5413TIP3   OH216244   2.352   4.809   1.099 -0.2887  0.4808 -0.1369
 5413TIP3    H116245   2.385   4.802   1.189  2.4837  2.9623 -0.7671
 5413TIP3    H216246   2.362   4.902   1.078 -2.9884  0.3881 -2.3198
 5414TIP3   OH216247   0.889   1.449   4.788  0.2627  0.3231 -0.0827
 5414TIP3    H116248   0.911   1.437   4.695 -3.1028  2.8354 -1.4165
 5414TIP3    H216249   0.947   1.388   4.834  1.8078 -1.3809 -3.8168
 5415TIP3   OH216250   2.103   1.042   1.837 -0.8582 -0.0015 -0.0512
 5415TIP3    H116251   2.054   0.963   1.858  1.0727 -0.7849  1.8789
 5415TIP3    H216252   2.188   1.010   1.805  0.4321  1.1779  1.9414
 5416TIP3   OH216253   5.181   5.563   3.306 -0.1360 -0.4661  0.5692
 5416TIP3    H116254   5.187   5.522   3.219  1.1035 -1.3021  1.0204
 5416TIP3    H216255   5.097   5.608   3.305  0.0657 -0.0396 -1.2451
 5417TIP3   OH216256   1.414   3.548   2.787  0.0271  0.1991  0.6425
 5417TIP3    H116257   1.396   3.641   2.779  0.8354  0.4433  1.4556
 5417TIP3    H216258   1.333   3.510   2.820 -0.6081  0.4601 -0.5923
 5418TIP3   OH216259   4.595   4.364   1.641  0.0140  0.0464 -0.2897
 5418TIP3    H116260   4.672   4.397   1.595  0.3118 -0.0148  0.1659
 5418TIP3    H216261   4.531   4.435   1.633  0.4764  0.5285  0.2401
 5419TIP3   OH216262   4.697   3.067   1.686  0.0745 -0.6823 -0.2386
 5419TIP3    H116263   4.648   2.985   1.680  1.8479 -1.8457  0.3388
 5419TIP3    H216264   4.779   3.043   1.729  1.4996  1.0104 -1.8347
 5420TIP3   OH216265   3.680   2.844   3.513  0.2870 -0.4671  0.6059
 5420TIP3    H116266   3.633   2.924   3.537 -0.0592 -0.2748 -0.6228
 5420TIP3    H216267   3.664   2.835   3.419 -0.9199 -2.7856  0.9598
 5421TIP3   OH216268   3.395   4.123   1.238  0.1373  0.0943  0.1729
 5421TIP3    H116269   3.432   4.206   1.207 -1.1891  0.6854  0.1011
 5421TIP3    H216270   3.303   4.143   1.257  0.1314 -1.0127  1.5240
 5422TIP3   OH216271   1.836   5.218   4.525  0.3541  0.2093 -0.1863
 5422TIP3    H116272   1.817   5.285   4.460 -1.0912 -1.5031 -1.6413
 5422TIP3    H216273   1.926   5.235   4.551  0.2733  2.2359 -1.0336
 5423TIP3   OH216274   5.046   1.539   2.831  0.0725 -0.1400 -0.3313
 5423TIP3    H116275   5.039   1.467   2.768  0.6066  1.1540 -1.9294
 5423TIP3    H216276   4.989   1.512   2.904  0.1606 -2.1031 -0.9241
 5424TIP3   OH216277   2.714   2.882   0.922 -0.4181 -0.3265  0.2261
 5424TIP3    H116278   2.764   2.905   1.000 -1.1189 -2.2858  1.3152
 5424TIP3    H216279   2.779   2.843   0.863 -0.5392 -3.0821  1.7278
 5425TIP3   OH216280   0.457   4.116   3.040  0.5494 -0.3812 -0.6830
 5425TIP3    H116281   0.414   4.076   2.965  2.0321 -0.4174 -1.5500
 5425TIP3    H216282   0.550   4.097   3.027  0.8321 -0.4339  1.1977
 5426TIP3   OH216283   1.664   5.913   2.779 -0.1517  0.4385 -0.2682
 5426TIP3    H116284   1.696   5.862   2.705 -2.9434 -0.9186 -0.6734
 5426TIP3    H216285   1.699   6.000   2.765  1.1321 -0.2952 -2.0193
 5427TIP3   OH216286   3.317   5.752   2.219 -0.3069  0.3837 -0.4212
 5427TIP3    H116287   3.306   5.762   2.313 -1.7332  2.0275 -0.7218
 5427TIP3    H216288   3.236   5.708   2.190  0.2295 -0.3416 -0.8723
 5428TIP3   OH216289   0.080   2.038   0.313  0.2984 -0.2910 -0.2994
 5428TIP3    H116290   0.165   2.081   0.311 -0.2083  0.8289  0.7768
 5428TIP3    H216291   0.043   2.054   0.226  1.1655 -0.7825 -0.7730
 5429TIP3   OH216292   0.159   4.556   3.056 -0.3057  0.0945  0.3495
 5429TIP3    H116293   0.232   4.507   3.019  0.0675  1.0884 -0.2785
 5429TIP3    H216294   0.179   4.564   3.149 -0.5981 -1.3041  0.5550
 5430TIP3   OH216295   3.337   3.449   4.414  0.0047 -0.0371 -0.0942
 5430TIP3    H116296   3.269   3.507   4.446 -0.0135  1.3911 -2.4822
 5430TIP3    H216297   3.417   3.501   4.417  0.3895 -0.6014 -0.3107
 5431TIP3   OH216298   4.869   0.038   1.391 -0.0559 -0.1382 -0.0374
 5431TIP3    H116299   4.889  -0.029   1.455  0.3339  0.8623  0.9118
 5431TIP3    H216300   4.853   0.117   1.442 -0.8445  0.4290 -1.1057
 5432TIP3   OH216301   2.927   1.525   4.948 -0.5238  0.6383  0.3278
 5432TIP3    H116302   2.834   1.524   4.927 -0.4054 -1.6423 -0.3587
 5432TIP3    H216303   2.957   1.436   4.929  1.8891  1.4161  0.1624
 5433TIP3   OH216304   0.827   1.695  -0.025 -0.5143 -0.5707 -0.3034
 5433TIP3    H116305   0.753   1.738   0.016 -1.8969 -2.0513 -1.1329
 5433TIP3    H216306   0.862   1.637   0.042 -1.2185 -1.1512 -0.4241
 5434TIP3   OH216307   6.246   5.964   4.853 -0.4379 -0.1124 -0.4282
 5434TIP3    H116308   6.189   5.891   4.829  0.2546 -0.1086 -2.2656
 5434TIP3    H216309   6.254   5.958   4.948 -2.0857 -1.1425 -0.3102
 5435TIP3   OH216310   2.249   5.689   2.664  0.3036  0.5574  0.3995
 5435TIP3    H116311   2.236   5.680   2.759  0.5860  0.7039  0.4538
 5435TIP3    H216312   2.247   5.599   2.631 -1.1294  0.5816  0.3605
 5436TIP3   OH216313   6.035   1.648   3.524  0.2462  0.1264  0.1511
 5436TIP3    H116314   6.130   1.642   3.509  0.3989 -1.3467  1.4051
 5436TIP3    H216315   5.997   1.620   3.441  0.9151  0.2416 -0.2059
 5437TIP3   OH216316   1.600   0.494   2.796 -0.0396  0.0655 -0.2319
 5437TIP3    H116317   1.612   0.409   2.754 -0.1264  0.5156 -1.1898
 5437TIP3    H216318   1.689   0.522   2.819  0.2417  0.7622 -2.0416
 5438TIP3   OH216319   4.252   3.430   1.598  0.0337 -0.3859  0.0724
 5438TIP3    H116320   4.251   3.521   1.570  0.1256 -0.6652 -0.8780
 5438TIP3    H216321   4.327   3.392   1.552  1.2736 -0.4779  2.0152
 5439TIP3   OH216322   2.032   2.664   2.135 -0.3121  0.2280  0.2324
 5439TIP3    H116323   2.024   2.602   2.207  2.7792 -1.2368 -0.5198
 5439TIP3    H216324   1.983   2.624   2.063 -1.2799  0.4467  0.7549
 5440TIP3   OH216325   0.585   4.438   4.039  0.1497  0.3328 -0.4326
 5440TIP3    H116326   0.535   4.363   4.070 -1.0386  0.7934 -1.1723
 5440TIP3    H216327   0.677   4.413   4.054 -0.2796 -0.4406  1.1224
 5441TIP3   OH216328   5.165   4.698   2.045  0.3346  0.0905 -0.3365
 5441TIP3    H116329   5.108   4.629   2.080  1.3198 -1.9653 -2.4712
 5441TIP3    H216330   5.113   4.740   1.976 -0.0137  1.0399  0.4883
 5442TIP3   OH216331   0.030   3.036   1.626 -0.3245  0.0557 -0.0257
 5442TIP3    H116332   0.121   3.037   1.657  0.0175  1.5195 -0.9282
 5442TIP3    H216333   0.004   3.128   1.627 -1.3349 -0.1938 -1.0779
 5443TIP3   OH216334   2.362   1.814   0.262  0.3635 -0.2657  0.1589
 5443TIP3    H116335   2.359   1.863   0.344 -1.1485  0.7655 -0.4732
 5443TIP3    H216336   2.391   1.878   0.197  2.0596 -1.2008 -0.0796
 5444TIP3   OH216337   4.035   1.621   3.653 -0.1275 -0.5983  0.4880
 5444TIP3    H116338   4.117   1.574   3.665  0.4970 -0.4714 -2.5471
 5444TIP3    H216339   3.983   1.566   3.594 -0.3469  1.2961 -1.2263
 5445TIP3   OH216340   2.467   5.413   0.758  0.0549  0.0983  0.0481
 5445TIP3    H116341   2.509   5.401   0.844 -2.2131 -0.3788  1.1566
 5445TIP3    H216342   2.440   5.325   0.733  0.1349  0.3333 -0.8803
 5446TIP3   OH216343   1.705   4.663   1.329 -0.2594 -0.0998  0.0527
 5446TIP3    H116344   1.751   4.599   1.382  2.3404  2.7719  1.5892
 5446TIP3    H216345   1.667   4.724   1.391 -0.7557  1.0938 -1.3533
 5447TIP3   OH216346   0.619   1.961   1.610 -0.1965 -0.4456 -0.6147
 5447TIP3    H116347   0.549   1.924   1.555 -0.9152 -0.0787  0.0322
 5447TIP3    H216348   0.621   2.054   1.586 -2.2796  0.3054  1.7252
 5448TIP3   OH216349   0.212   4.148   3.627  0.1113  0.5349 -0.6588
 5448TIP3    H116350   0.223   4.212   3.698  1.1009  2.1640 -2.2221
 5448TIP3    H216351   0.160   4.193   3.561 -2.1471 -1.4813 -0.4348
 5449TIP3   OH216352   3.631   4.695   0.147 -0.1470  0.1783 -0.1417
 5449TIP3    H116353   3.578   4.769   0.118 -1.4104 -0.3676  0.6815
 5449TIP3    H216354   3.610   4.625   0.085 -0.9695 -0.2494  0.5928
 5450TIP3   OH216355   5.237   0.977   2.886  0.2734 -0.5668  0.2947
 5450TIP3    H116356   5.212   1.068   2.873  0.3148 -0.6030 -0.0703
 5450TIP3    H216357   5.160   0.936   2.924  0.0243 -0.5211 -0.1523
 5451TIP3   OH216358   3.571   0.817   0.457  0.2992  0.1306  0.6040
 5451TIP3    H116359   3.659   0.791   0.431  0.2693 -0.6865  1.2799
 5451TIP3    H216360   3.582   0.903   0.497  0.5171  0.8499 -0.9307
 5452TIP3   OH216361   3.455   4.616   2.861  0.5016 -0.1239 -0.2030
 5452TIP3    H116362   3.427   4.526   2.876  0.5431 -0.3311 -1.2988
 5452TIP3    H216363   3.538   4.609   2.815 -0.0563  0.4529 -1.3440
 5453TIP3   OH216364   1.036   0.647   2.963  0.8733 -0.4322  0.1017
 5453TIP3    H116365   0.961   0.620   2.911  0.8432  0.3808 -0.2897
 5453TIP3    H216366   1.109   0.646   2.901  0.8262  0.5911  0.0228
 5454TIP3   OH216367   2.733   5.196   0.412  0.1904 -0.3675 -0.3180
 5454TIP3    H116368   2.812   5.167   0.458 -0.4755 -2.7886 -0.5391
 5454TIP3    H216369   2.665   5.136   0.443 -2.2428  3.0437  1.6740
 5455TIP3   OH216370   0.533   1.693   1.477 -0.2992 -0.1337  0.4166
 5455TIP3    H116371   0.549   1.610   1.432  0.9286  0.7086 -0.7811
 5455TIP3    H216372   0.454   1.728   1.437 -0.2380 -0.2466  0.1933
 5456TIP3   OH216373   2.162   1.485   3.899 -0.1531  0.1463  0.0173
 5456TIP3    H116374   2.256   1.503   3.895  0.3087 -1.4887  2.0439
 5456TIP3    H216375   2.156   1.390   3.896 -1.8159  0.2400 -0.5311
 5457TIP3   OH216376   1.719   4.567   3.373 -0.2800  0.5749 -0.3383
 5457TIP3    H116377   1.751   4.563   3.464  1.0957  1.2914 -0.7545
 5457TIP3    H216378   1.789   4.527   3.322 -1.0196  0.2391 -1.0953
 5458TIP3   OH216379   1.615   3.107   1.913  0.8704 -0.3732  0.1603
 5458TIP3    H116380   1.586   3.123   1.824  0.9498  0.4432  0.2776
 5458TIP3    H216381   1.536   3.112   1.966  1.0258  0.5749  0.3150
 5459TIP3   OH216382   1.710   0.156   0.078 -0.4075  0.0556 -0.2649
 5459TIP3    H116383   1.747   0.182   0.162 -1.4370  0.5110  0.0637
 5459TIP3    H216384   1.747   0.069   0.061  1.0207  0.5993 -0.1038
 5460TIP3   OH216385   0.400   4.581   5.054  0.1160  0.0471 -0.1189
 5460TIP3    H116386   0.379   4.601   4.963  0.8694  1.5603 -0.0047
 5460TIP3    H216387   0.495   4.572   5.055  0.1018 -0.0624  0.4899
 5461TIP3   OH216388   0.539   3.200   1.457  0.0343 -0.0475  0.2982
 5461TIP3    H116389   0.469   3.230   1.400 -2.8608 -2.6248  2.1854
 5461TIP3    H216390   0.562   3.276   1.510 -1.1848  0.9015 -0.5011
 5462TIP3   OH216391   0.644   1.529   3.852 -0.1024 -0.1831  0.3519
 5462TIP3    H116392   0.626   1.600   3.791  0.0352 -0.7100 -0.3198
 5462TIP3    H216393   0.591   1.549   3.929 -0.4462  0.3818 -0.0287
 5463TIP3   OH216394   4.101   3.885   1.309  0.4775  0.0942  0.5132
 5463TIP3    H116395   4.068   3.974   1.314  0.6218  0.2387 -0.7748
 5463TIP3    H216396   4.026   3.830   1.331 -0.0826  0.4909 -0.3566
 5464TIP3   OH216397   5.413   3.120   1.359  0.4541  0.0730  0.3924
 5464TIP3    H116398   5.370   3.139   1.276  1.7655 -1.4308 -0.6931
 5464TIP3    H216399   5.373   3.039   1.389  0.8189 -0.0339  0.6001
 5465TIP3   OH216400   2.773   1.626   0.505  0.0185  0.3934 -0.0526
 5465TIP3    H116401   2.745   1.713   0.535  0.0804  0.1895  0.6072
 5465TIP3    H216402   2.739   1.620   0.415 -1.5471  0.4023  0.5003
 5466TIP3   OH216403   3.912   2.437   3.526 -0.4000 -0.5809 -0.4933
 5466TIP3    H116404   3.952   2.382   3.593 -1.4487  0.1060  0.7435
 5466TIP3    H216405   3.968   2.515   3.522 -0.0951 -0.8094 -0.7405
 5467TIP3   OH216406   3.055   4.859   0.235 -0.0800 -0.0773  0.5200
 5467TIP3    H116407   3.007   4.937   0.208 -0.5373 -0.3395  0.5588
 5467TIP3    H216408   3.080   4.877   0.325 -0.4737 -0.1090  0.6388
 5468TIP3   OH216409   3.396   5.867   1.978 -0.2429 -0.1766 -0.2412
 5468TIP3    H116410   3.492   5.871   1.981 -0.2839  3.0748  1.5833
 5468TIP3    H216411   3.371   5.834   2.064 -0.8130 -2.1147 -1.1085
 5469TIP3   OH216412   0.612   3.283   0.705  0.1222 -0.1702  1.1350
 5469TIP3    H116413   0.647   3.368   0.733  0.8671  0.4942 -1.4746
 5469TIP3    H216414   0.690   3.231   0.686 -0.2105  0.1659 -1.5378
 5470TIP3   OH216415   5.836   0.297   1.209  0.2188  0.7400 -0.0677
 5470TIP3    H116416   5.893   0.222   1.190 -0.7185  0.3006 -1.2181
 5470TIP3    H216417   5.811   0.330   1.123 -0.4541  1.5501  0.4341
 5471TIP3   OH216418   5.023   4.180   4.302 -0.5192 -0.0975 -0.5609
 5471TIP3    H116419   4.931   4.160   4.287 -0.6326 -0.1005  0.0939
 5471TIP3    H216420   5.046   4.243   4.234 -0.7429 -0.8255 -1.3160
 5472TIP3   OH216421   6.105   0.718   2.934 -0.3399 -0.5655 -0.0323
 5472TIP3    H116422   6.177   0.698   2.994  0.3595 -0.2335 -0.7443
 5472TIP3    H216423   6.027   0.711   2.988  0.3384  0.6477  1.1759
 5473TIP3   OH216424   2.884   2.695   2.609  0.0746 -0.0595 -0.0543
 5473TIP3    H116425   2.843   2.781   2.601  1.1172  0.3949 -0.8131
 5473TIP3    H216426   2.974   2.714   2.635  0.6537 -0.8271 -1.3693
 5474TIP3   OH216427   6.048   1.540   0.149  0.3707  0.3457 -0.2083
 5474TIP3    H116428   6.071   1.540   0.242  3.3100  1.4212 -0.8474
 5474TIP3    H216429   5.980   1.606   0.141  0.1103  0.2758  1.1519
 5475TIP3   OH216430   3.457   1.977   1.887 -0.4302 -0.2636 -0.1758
 5475TIP3    H116431   3.412   1.943   1.964  0.8795 -1.5975  0.0325
 5475TIP3    H216432   3.444   1.911   1.820  1.3184 -0.7701 -0.0588
 5476TIP3   OH216433   6.144   4.309   1.782 -0.1863  0.1750  0.5950
 5476TIP3    H116434   6.067   4.275   1.737  1.6069 -0.8066 -1.9233
 5476TIP3    H216435   6.124   4.298   1.875 -2.4781 -1.4012 -0.0059
 5477TIP3   OH216436   2.845   2.269   0.221  0.1881  0.1878 -0.1862
 5477TIP3    H116437   2.902   2.344   0.205  1.2738 -0.6570 -0.3498
 5477TIP3    H216438   2.864   2.242   0.311 -0.4694  0.3244  0.0015
 5478TIP3   OH216439   2.323   4.828   2.363  0.4945 -0.1244 -0.1459
 5478TIP3    H116440   2.352   4.740   2.384 -0.2843 -0.1728  0.7733
 5478TIP3    H216441   2.324   4.874   2.447 -1.8537 -0.0669 -0.1075
 5479TIP3   OH216442   5.293   2.925   1.540  0.0503  0.1956 -0.5740
 5479TIP3    H116443   5.247   2.996   1.585 -0.2131  0.8902 -1.8705
 5479TIP3    H216444   5.228   2.855   1.534  0.1019  0.0780  0.1325
 5480TIP3   OH216445   4.288   0.867   0.341  0.4052 -0.0196 -0.2849
 5480TIP3    H116446   4.291   0.778   0.377  0.3481 -0.1355 -0.5663
 5480TIP3    H216447   4.199   0.897   0.359  1.0111  0.7711  1.6913
 5481TIP3   OH216448   6.274   2.617   1.031  0.1002  0.5523 -0.3218
 5481TIP3    H116449   6.239   2.705   1.046 -0.2847  0.5051 -0.9273
 5481TIP3    H216450   6.207   2.574   0.978  0.9509  0.3686 -1.2569
 5482TIP3   OH216451   2.480   5.367   1.587  0.2980 -0.4053 -0.2316
 5482TIP3    H116452   2.473   5.272   1.577  2.4848 -0.6876  0.4056
 5482TIP3    H216453   2.535   5.379   1.665 -0.4329  1.3981  0.0428
 5483TIP3   OH216454   2.842   3.754   5.071  0.2608  0.0883 -0.1671
 5483TIP3    H116455   2.780   3.819   5.036  0.2923  0.0230 -0.3436
 5483TIP3    H216456   2.872   3.706   4.994  0.0553 -0.2966 -0.0059
 5484TIP3   OH216457   1.211   4.504   4.708  0.3221 -0.4062 -0.1327
 5484TIP3    H116458   1.153   4.454   4.651  0.0588  0.6270 -0.7922
 5484TIP3    H216459   1.158   4.526   4.785  0.6785 -1.8014  0.5463
 5485TIP3   OH216460   5.585   0.663   1.531  0.5268  0.0192  0.1072
 5485TIP3    H116461   5.544   0.744   1.501 -0.4997  0.0901  1.6144
 5485TIP3    H216462   5.628   0.686   1.613  0.4940 -0.8836  0.3880
 5486TIP3   OH216463   4.620   5.096   2.792  0.1922  0.3692  0.1268
 5486TIP3    H116464   4.588   5.069   2.878  1.8230  0.0174  0.6597
 5486TIP3    H216465   4.541   5.103   2.738 -0.8668  0.6122  1.6406
 5487TIP3   OH216466   5.815   3.275   0.090  0.1168 -0.0226  0.5106
 5487TIP3    H116467   5.799   3.199   0.147  0.9794  0.6325  1.6842
 5487TIP3    H216468   5.863   3.336   0.146 -0.9224  1.5771 -0.2879
 5488TIP3   OH216469   1.321   0.912   2.650  0.1105 -0.5967 -0.1780
 5488TIP3    H116470   1.232   0.938   2.673 -0.0823 -0.7994 -0.6964
 5488TIP3    H216471   1.357   0.876   2.731 -0.5641 -1.2948 -0.1795
 5489TIP3   OH216472   5.649   2.894   3.341  0.8348  0.0296  0.2764
 5489TIP3    H116473   5.695   2.829   3.395 -0.7368  0.4936  2.3191
 5489TIP3    H216474   5.561   2.897   3.379  0.0653  1.4121 -1.5040
 5490TIP3   OH216475   3.434   4.701   0.590  0.6110 -0.0678  0.4194
 5490TIP3    H116476   3.400   4.624   0.637  0.1733  0.5315  1.0996
 5490TIP3    H216477   3.408   4.775   0.644  0.6474  0.5957 -0.4611
 5491TIP3   OH216478   5.593   2.033   2.265  0.0876  0.5877 -0.7632
 5491TIP3    H116479   5.562   1.975   2.196 -1.1707  0.9996 -0.5592
 5491TIP3    H216480   5.633   1.974   2.330 -0.0137  0.0785 -1.1588
 5492TIP3   OH216481   1.778   2.319   2.167  0.3559 -0.1215  0.3055
 5492TIP3    H116482   1.688   2.326   2.135  0.7483  0.7233 -0.6460
 5492TIP3    H216483   1.779   2.236   2.216 -1.0249  0.0375  0.6522
 5493TIP3   OH216484   4.299   4.129   4.217  0.2874  0.1679  0.0603
 5493TIP3    H116485   4.254   4.168   4.142 -0.8777 -1.3403 -0.0658
 5493TIP3    H216486   4.387   4.166   4.213  0.0488  0.6680 -1.6332
 5494TIP3   OH216487   2.086   2.526   1.056  0.1522  0.1178  0.1930
 5494TIP3    H116488   2.043   2.536   1.141 -1.5495 -0.1654 -0.6082
 5494TIP3    H216489   2.173   2.492   1.078 -0.5204 -0.6979  1.7887
 5495TIP3   OH216490   2.514   2.499   3.209  0.2823 -0.2536 -0.2626
 5495TIP3    H116491   2.476   2.511   3.122 -1.9625  0.1624  0.7151
 5495TIP3    H216492   2.451   2.539   3.269  1.8421 -0.3996  1.5604
 5496TIP3   OH216493   4.137   0.260   0.611 -0.6375  0.6850  0.1664
 5496TIP3    H116494   4.215   0.304   0.646 -1.1430  2.5395 -0.8724
 5496TIP3    H216495   4.172   0.197   0.548  0.0795  0.3528  0.8789
 5497TIP3   OH216496   1.370   1.314   4.033  0.0604 -0.7401 -0.3076
 5497TIP3    H116497   1.301   1.377   4.055 -0.1387 -1.5014  1.4495
 5497TIP3    H216498   1.430   1.363   3.977 -0.5377  0.7429  0.2786
 5498TIP3   OH216499   3.488   0.381   2.885  0.0162  0.0393 -0.8285
 5498TIP3    H116500   3.453   0.373   2.974  1.8106  1.5420  0.1054
 5498TIP3    H216501   3.492   0.292   2.852 -1.5918 -0.4602  0.2120
 5499TIP3   OH216502   0.678   3.133   2.052 -0.2350 -0.0537 -0.1186
 5499TIP3    H116503   0.722   3.049   2.061  0.7415  0.4838  0.3558
 5499TIP3    H216504   0.626   3.125   1.973  0.2117 -0.9477 -0.3302
 5500TIP3   OH216505   1.952   1.499   4.904 -0.0351 -0.4388  0.0165
 5500TIP3    H116506   1.986   1.556   4.834 -0.9712 -0.2523 -0.2959
 5500TIP3    H216507   1.904   1.431   4.857 -1.0950 -0.0324  0.4950
 5501TIP3   OH216508   3.201   2.104   3.859  0.8747  0.4429 -0.0343
 5501TIP3    H116509   3.262   2.031   3.865  0.3720  0.0269  0.1054
 5501TIP3    H216510   3.234   2.157   3.786 -0.1085 -1.2245 -1.7785
 5502TIP3   OH216511   3.633   4.834   1.385 -0.3605  0.3722  0.1699
 5502TIP3    H116512   3.618   4.928   1.392 -0.7326  0.3658 -0.4389
 5502TIP3    H216513   3.686   4.812   1.461  1.7910  1.5100 -0.9002
 5503TIP3   OH216514   2.889   4.971   4.356  0.2291  0.0347 -0.0966
 5503TIP3    H116515   2.846   4.959   4.440  0.5611  0.8262  0.1940
 5503TIP3    H216516   2.848   5.049   4.318 -1.3257 -1.4068 -1.5862
 5504TIP3   OH216517   5.106   2.100   4.316  0.0564 -0.0402  0.0349
 5504TIP3    H116518   5.117   2.169   4.381  2.6602 -1.0823  0.8238
 5504TIP3    H216519   5.060   2.143   4.243  1.0880  2.3855  0.7057
 5505TIP3   OH216520   2.002   0.928   2.706 -0.2204 -0.1171 -0.0988
 5505TIP3    H116521   1.957   0.999   2.661  0.3597  1.3649  1.5294
 5505TIP3    H216522   2.077   0.907   2.650 -1.2517 -0.5909 -1.3681
 5506TIP3   OH216523   5.781   5.843   4.540  0.4425 -0.6238  0.1351
 5506TIP3    H116524   5.785   5.794   4.622 -0.0671 -1.5583 -0.3886
 5506TIP3    H216525   5.819   5.784   4.475  0.6065  0.0110 -0.3530
 5507TIP3   OH216526   0.102   1.166   3.800  0.7319 -0.2959 -0.1299
 5507TIP3    H116527   0.102   1.256   3.767 -2.7170 -0.4124 -0.8737
 5507TIP3    H216528   0.131   1.114   3.725 -2.1760 -0.1098 -1.5548
 5508TIP3   OH216529   2.100   1.836   3.659  0.2892  0.0332  0.4222
 5508TIP3    H116530   2.074   1.892   3.732 -1.4027  0.1261 -0.2069
 5508TIP3    H216531   2.054   1.873   3.583  2.0380 -0.0330 -0.7288
 5509TIP3   OH216532   4.398   1.685   3.758  0.0878  0.4051 -0.1673
 5509TIP3    H116533   4.326   1.742   3.785 -0.4383 -0.7752  1.0418
 5509TIP3    H216534   4.476   1.726   3.796 -0.2150  0.5860  0.2696
 5510TIP3   OH216535   2.840   3.605   1.075 -0.1322  0.3042 -0.3447
 5510TIP3    H116536   2.881   3.602   1.162  0.6288  1.2081 -0.6558
 5510TIP3    H216537   2.747   3.620   1.093  0.0231  0.4929  0.3206
 5511TIP3   OH216538   0.384   3.639   1.852 -0.3000 -0.0134 -0.2385
 5511TIP3    H116539   0.395   3.557   1.901  1.1728  0.0873 -0.3579
 5511TIP3    H216540   0.341   3.698   1.914  1.1865 -0.0153  0.8560
 5512TIP3   OH216541   1.314   1.870   1.443 -0.5141 -0.2957 -0.7801
 5512TIP3    H116542   1.237   1.813   1.434 -1.8563  1.2988  0.0153
 5512TIP3    H216543   1.306   1.906   1.531  0.9458  0.2106 -0.8378
 5513TIP3   OH216544   1.609   4.698   3.127 -0.3949 -0.2520 -0.3103
 5513TIP3    H116545   1.547   4.638   3.084  0.2594 -1.8561  0.8870
 5513TIP3    H216546   1.662   4.642   3.183 -0.3432  1.5709  1.6020
 5514TIP3   OH216547   3.412   1.140   4.872  0.1223  0.5243 -0.1642
 5514TIP3    H116548   3.387   1.107   4.958  1.0261  1.1801  0.3535
 5514TIP3    H216549   3.494   1.187   4.886  1.4514 -1.1531 -1.7257
 5515TIP3   OH216550   0.451   1.781   4.383 -0.2283 -0.7367  0.1911
 5515TIP3    H116551   0.535   1.737   4.398 -0.3837 -1.1909 -0.2159
 5515TIP3    H216552   0.469   1.873   4.399  0.3786 -0.8175  0.0166
 5516TIP3   OH216553   6.155   2.858   1.347  0.4280  0.4120  0.0201
 5516TIP3    H116554   6.135   2.765   1.340  0.6321  0.2690  1.1021
 5516TIP3    H216555   6.130   2.881   1.436 -1.0413  1.7641 -0.7020
 5517TIP3   OH216556   5.441   2.576   2.628  0.5743  0.0721  0.2766
 5517TIP3    H116557   5.397   2.543   2.706  0.3978  1.8160  0.9604
 5517TIP3    H216558   5.515   2.517   2.615 -0.0014 -0.8662  1.1279
 5518TIP3   OH216559   6.295   4.557   3.297  0.4939  0.5988  0.0904
 5518TIP3    H116560   6.269   4.638   3.341 -1.9004  1.4274 -2.5082
 5518TIP3    H216561   6.343   4.586   3.219  2.2813 -0.6766  0.6548
 5519TIP3   OH216562   5.824   2.874   1.624 -0.4552 -0.3270  0.1647
 5519TIP3    H116563   5.874   2.806   1.578  0.8082  0.1108  0.8404
 5519TIP3    H216564   5.839   2.953   1.571 -1.6693 -0.4862 -0.4481
 5520TIP3   OH216565   2.900   0.933   2.585 -0.0984  0.2442 -0.5317
 5520TIP3    H116566   2.875   0.913   2.675 -1.9055  1.1773 -0.7886
 5520TIP3    H216567   2.862   1.019   2.568  0.8104  0.3891 -1.9658
 5521TIP3   OH216568   1.339   4.532   0.939 -0.3564  0.1311  0.2372
 5521TIP3    H116569   1.305   4.525   1.028 -2.1884  2.0781 -0.2296
 5521TIP3    H216570   1.420   4.582   0.948 -0.5038  0.2685  0.8365
 5522TIP3   OH216571   5.729   2.461   0.847 -0.0732  0.0321 -0.0046
 5522TIP3    H116572   5.673   2.528   0.807  0.7244  0.5850 -0.2258
 5522TIP3    H216573   5.734   2.486   0.939 -0.9947 -0.6018  0.2407
 5523TIP3   OH216574   0.309   4.169   3.260  0.2384  0.0256  0.0728
 5523TIP3    H116575   0.365   4.114   3.206  0.6124  0.6393 -0.1772
 5523TIP3    H216576   0.368   4.235   3.296 -0.4884  1.3888 -1.1055
 5524TIP3   OH216577   0.732   4.528   2.014  0.5130 -0.7560  0.1373
 5524TIP3    H116578   0.666   4.467   2.046 -0.9524  0.8648  0.3290
 5524TIP3    H216579   0.797   4.472   1.972  0.0610 -2.5632  1.6811
 5525TIP3   OH216580   1.175   0.664   5.158 -0.1651 -0.5431 -0.1787
 5525TIP3    H116581   1.087   0.639   5.130 -1.8652  1.0720  3.1412
 5525TIP3    H216582   1.176   0.760   5.154  0.9078 -0.4587  1.1161
 5526TIP3   OH216583   2.764   2.475   0.903  0.5134  0.2954 -0.4320
 5526TIP3    H116584   2.846   2.523   0.889  2.7325 -2.9301  0.4980
 5526TIP3    H216585   2.761   2.459   0.997 -0.0447 -1.4723 -0.7197
 5527TIP3   OH216586   3.308   3.491   0.563 -0.5435  0.4889  0.5078
 5527TIP3    H116587   3.227   3.516   0.607 -1.3389  1.0777 -1.1668
 5527TIP3    H216588   3.306   3.395   0.559 -0.6496  0.4520  1.3426
 5528TIP3   OH216589   2.562   0.722   4.774  0.0054 -0.4580  0.0574
 5528TIP3    H116590   2.496   0.664   4.812 -1.1206  0.8990  0.2620
 5528TIP3    H216591   2.553   0.804   4.822 -0.7130  0.9769 -2.3408
 5529TIP3   OH216592   0.845   5.663   2.938  0.1105 -0.3744  0.7449
 5529TIP3    H116593   0.854   5.699   3.027  0.2217 -2.2409  1.5394
 5529TIP3    H216594   0.829   5.570   2.952  0.4700 -0.7642 -1.2240
 5530TIP3   OH216595   2.920   0.573   3.597  0.0048 -0.0120  0.3030
 5530TIP3    H116596   2.939   0.574   3.691  0.2072 -1.3016  0.3026
 5530TIP3    H216597   2.847   0.511   3.589 -1.2100  1.4370 -0.2098
 5531TIP3   OH216598   2.460   3.957   1.655  0.1291  0.0430  0.1901
 5531TIP3    H116599   2.426   3.888   1.598  0.8978 -0.1168 -0.0994
 5531TIP3    H216600   2.383   3.996   1.696 -0.3901 -0.2675 -0.4779
 5532TIP3   OH216601   2.421   2.532   2.111  0.5402  0.2870 -0.5418
 5532TIP3    H116602   2.455   2.502   2.027 -1.1300 -1.4813 -0.6670
 5532TIP3    H216603   2.366   2.607   2.090 -0.2973 -0.4759 -1.1320
 5533TIP3   OH216604   0.567   1.423   2.868  0.0813  0.1671  0.0914
 5533TIP3    H116605   0.642   1.479   2.849 -0.3460  0.1381 -1.9419
 5533TIP3    H216606   0.604   1.347   2.913  0.8811  1.2977  1.4067
 5534TIP3   OH216607   4.147   4.600   3.686  0.1405 -0.1430 -0.0912
 5534TIP3    H116608   4.134   4.596   3.781 -0.2868  0.9160 -0.0909
 5534TIP3    H216609   4.187   4.686   3.671  1.0598 -0.6756 -0.7900
 5535TIP3   OH216610   0.025   1.417   2.846  0.0162 -0.1653 -0.1898
 5535TIP3    H116611   0.071   1.501   2.837 -0.6237  0.4318  1.6934
 5535TIP3    H216612   0.093   1.354   2.866  0.2564  0.3499  0.6553
 5536TIP3   OH216613   5.318   0.416   0.580  0.0625 -0.9312 -0.2059
 5536TIP3    H116614   5.321   0.511   0.571  1.0330 -1.1314 -2.7703
 5536TIP3    H216615   5.246   0.401   0.641 -0.8829  1.3991 -0.6227
 5537TIP3   OH216616   4.944   3.686   4.607  0.4256 -0.1320  0.3305
 5537TIP3    H116617   4.851   3.690   4.628  0.5448 -0.4972  0.9689
 5537TIP3    H216618   4.986   3.742   4.672  0.3778  2.9793 -2.0842
 5538TIP3   OH216619   2.503   2.686   0.867  0.1853  0.3600  0.3929
 5538TIP3    H116620   2.552   2.629   0.809  0.2516  2.2692 -1.5216
 5538TIP3    H216621   2.562   2.758   0.886 -0.6330  0.8945  0.9997
 5539TIP3   OH216622   6.064   5.833   2.227  0.2743  0.3262  0.1263
 5539TIP3    H116623   6.100   5.748   2.250 -0.9760 -0.3104 -0.1956
 5539TIP3    H216624   5.978   5.835   2.269 -0.0313  1.1176 -0.5053
 5540TIP3   OH216625   6.199   2.539   3.588  0.4263 -0.7487  0.2521
 5540TIP3    H116626   6.240   2.522   3.503 -0.4542 -0.4908 -0.2343
 5540TIP3    H216627   6.116   2.491   3.584 -1.0228  1.6309 -0.2275
 5541TIP3   OH216628   2.659   2.821   0.050  0.2590 -0.1233 -0.2850
 5541TIP3    H116629   2.621   2.757   0.110  1.7014 -1.0282 -0.3135
 5541TIP3    H216630   2.721   2.871   0.103 -0.9910  1.4327 -0.2105
 5542TIP3   OH216631   4.580   2.327   1.723 -0.6099 -0.0367  0.1888
 5542TIP3    H116632   4.532   2.279   1.790 -1.4588 -2.1009 -1.7811
 5542TIP3    H216633   4.668   2.291   1.725 -0.4261  0.4248  0.6554
 5543TIP3   OH216634   1.925   4.354   3.271  0.5757 -0.3690 -0.0603
 5543TIP3    H116635   1.971   4.428   3.311  2.6622 -1.8911  0.5435
 5543TIP3    H216636   1.970   4.340   3.187 -0.6779 -0.1394 -0.7862
 5544TIP3   OH216637   3.606   3.084   0.119 -0.0189 -0.5370  0.0907
 5544TIP3    H116638   3.573   3.032   0.192 -1.2701  0.6273  0.3991
 5544TIP3    H216639   3.548   3.160   0.116  1.8318  0.9445 -0.2310
 5545TIP3   OH216640   5.788   3.746   4.925 -0.2862  0.2752 -0.1273
 5545TIP3    H116641   5.879   3.726   4.947 -0.6085 -1.4120 -0.2403
 5545TIP3    H216642   5.795   3.795   4.842  0.4990 -0.0628 -0.2754
 5546TIP3   OH216643   5.165   1.132   4.326 -0.3155  0.1071 -0.2204
 5546TIP3    H116644   5.190   1.223   4.342  2.0916 -0.9395  3.2234
 5546TIP3    H216645   5.215   1.106   4.249  0.0367  1.3007 -0.4090
 5547TIP3   OH216646   4.440   2.128   1.848 -0.1192  0.4064 -0.5558
 5547TIP3    H116647   4.381   2.109   1.921 -0.3150 -1.1995 -1.0834
 5547TIP3    H216648   4.437   2.049   1.794 -0.3206  1.7086 -2.5577
 5548TIP3   OH216649   5.952   0.825   1.040 -0.3166 -0.1291  0.4856
 5548TIP3    H116650   5.933   0.738   1.074 -0.9973 -0.0082  0.4462
 5548TIP3    H216651   6.014   0.811   0.969  0.2608 -0.4890  1.0607
 5549TIP3   OH216652   1.886   3.501   4.888 -0.1042 -0.2698 -0.7401
 5549TIP3    H116653   1.885   3.594   4.911  0.1670  0.1496 -2.3353
 5549TIP3    H216654   1.799   3.469   4.912 -0.0544  0.2673  0.2174
 5550TIP3   OH216655   4.263   4.482   2.925  0.6739  0.3626 -0.2461
 5550TIP3    H116656   4.249   4.389   2.941  1.9470 -0.0093 -1.0806
 5550TIP3    H216657   4.183   4.525   2.955  0.3322 -0.9303  0.7555
 5551TIP3   OH216658   3.000   0.747   2.413  0.0942  0.6953 -0.0016
 5551TIP3    H116659   2.971   0.818   2.471  2.7352 -0.1395  2.5683
 5551TIP3    H216660   2.954   0.670   2.444  0.4086  0.5135  0.0162
 5552TIP3   OH216661   2.477   2.079   1.658  0.3902  0.0677 -0.0633
 5552TIP3    H116662   2.407   2.140   1.677 -1.4074 -2.0949  0.6865
 5552TIP3    H216663   2.441   2.022   1.589  1.8125 -0.4553 -0.4144
 5553TIP3   OH216664   2.633   2.988   2.072 -0.1655 -0.1583 -0.0837
 5553TIP3    H116665   2.580   2.926   2.023 -1.0502 -0.3894  1.1139
 5553TIP3    H216666   2.595   3.074   2.054  0.1137 -0.1297 -0.5463
 5554TIP3   OH216667   3.739   4.498   4.458 -0.1530 -0.2324  0.3156
 5554TIP3    H116668   3.664   4.449   4.426  0.6175 -0.2940 -1.5310
 5554TIP3    H216669   3.701   4.568   4.512 -1.5257 -0.3337 -0.4731
 5555TIP3   OH216670   0.911   1.511   0.420 -0.3287  0.2487 -0.5469
 5555TIP3    H116671   0.949   1.565   0.490 -0.4384 -0.0964 -0.2165
 5555TIP3    H216672   0.819   1.500   0.445 -0.0331 -1.0841  0.0236
 5556TIP3   OH216673   4.755   3.938   3.111 -0.0020 -0.0171  0.0502
 5556TIP3    H116674   4.670   3.895   3.119  0.2939 -0.4623  0.9331
 5556TIP3    H216675   4.818   3.868   3.129  0.4739  0.8974  2.1969
 5557TIP3   OH216676   0.485   2.900   1.357  0.1005 -0.0702  0.3140
 5557TIP3    H116677   0.461   2.839   1.426 -1.2828 -1.1472 -1.0527
 5557TIP3    H216678   0.450   2.985   1.386 -0.8312 -0.5925  0.7608
 5558TIP3   OH216679   1.065   4.433   1.102 -0.4019  0.0828  0.7806
 5558TIP3    H116680   1.137   4.440   1.165  0.1219 -0.3648  0.2431
 5558TIP3    H216681   1.032   4.522   1.094 -0.1661  0.2249  1.3338
 5559TIP3   OH216682   3.325   6.000   4.985  0.0793  0.5195 -0.1338
 5559TIP3    H116683   3.334   5.967   4.895  1.5784  0.0726  0.1510
 5559TIP3    H216684   3.296   5.925   5.035  0.0853  0.5382 -0.1020
 5560TIP3   OH216685   2.096   2.537   3.462  0.4927 -0.0314 -0.5132
 5560TIP3    H116686   2.082   2.445   3.484 -1.9210  0.6089  1.0705
 5560TIP3    H216687   2.011   2.567   3.428  1.2198  1.6246 -0.9929
 5561TIP3   OH216688   2.273   3.073   0.935 -0.2445 -0.2824  0.5120
 5561TIP3    H116689   2.208   3.100   1.000 -3.0716  1.4417 -2.7060
 5561TIP3    H216690   2.254   2.981   0.918 -1.4203 -0.0001  0.1852
 5562TIP3   OH216691   0.933   4.729   1.394  0.9182 -0.0764  0.1764
 5562TIP3    H116692   0.904   4.803   1.448  0.8615  0.6974 -0.8757
 5562TIP3    H216693   0.871   4.726   1.322  0.7581 -1.3496  0.3430
 5563TIP3   OH216694   0.161   5.552   2.335  0.1953  0.0633  0.0231
 5563TIP3    H116695   0.112   5.593   2.264 -0.5944 -0.0924  0.4592
 5563TIP3    H216696   0.214   5.484   2.292  0.3860  0.5452 -0.5140
 5564TIP3   OH216697   5.161   3.551   2.008  0.1107  0.0932 -0.1986
 5564TIP3    H116698   5.230   3.500   2.049 -0.2253  0.2390  0.5557
 5564TIP3    H216699   5.092   3.487   1.990  0.3096  0.0047 -0.6725
 5565TIP3   OH216700   1.453   0.233   2.055  0.3650 -0.2943 -0.7360
 5565TIP3    H116701   1.367   0.274   2.063  0.4253 -0.3262  0.1420
 5565TIP3    H216702   1.481   0.218   2.145  0.1492 -2.6563 -0.9891
 5566TIP3   OH216703   3.906   0.442   2.249  0.5018 -0.5933  0.4447
 5566TIP3    H116704   3.872   0.519   2.203  0.3443  0.5032  2.3045
 5566TIP3    H216705   3.976   0.410   2.192 -1.7653 -1.3095 -2.1757
 5567TIP3   OH216706   3.047   2.819   2.996 -0.6020 -0.6094 -0.1243
 5567TIP3    H116707   3.090   2.864   3.068  0.8403 -1.5866 -0.3247
 5567TIP3    H216708   2.972   2.776   3.036 -0.9433  0.4419  0.4036
 5568TIP3   OH216709   3.962   5.612   0.931  0.0193  0.2125  0.4116
 5568TIP3    H116710   3.882   5.638   0.886 -0.0444  1.4619  1.1834
 5568TIP3    H216711   3.933   5.591   1.020  0.6058  1.4146  0.9209
 5569TIP3   OH216712   2.713   2.784   4.777 -0.3943  0.1915  0.1336
 5569TIP3    H116713   2.778   2.853   4.760 -0.4886  0.2783  0.1256
 5569TIP3    H216714   2.761   2.703   4.762 -0.7359  0.2578 -1.5681
 5570TIP3   OH216715   0.659   5.578   3.694 -0.3817  0.1045  0.3230
 5570TIP3    H116716   0.736   5.521   3.700 -0.7615 -0.6015 -1.1427
 5570TIP3    H216717   0.694   5.665   3.680  0.1600 -0.3114 -0.9900
 5571TIP3   OH216718   2.226   3.281   2.328 -0.1169  0.0916 -0.4546
 5571TIP3    H116719   2.169   3.243   2.261 -0.1681 -0.5070 -0.0768
 5571TIP3    H216720   2.237   3.211   2.392  2.2202 -0.3217 -1.2221
 5572TIP3   OH216721   4.664   0.333   1.337  0.6946 -0.5680  0.3012
 5572TIP3    H116722   4.686   0.284   1.416  1.0658  0.1332  0.6429
 5572TIP3    H216723   4.582   0.377   1.358  0.2616 -1.1814 -0.0721
 5573TIP3   OH216724   2.601   1.031   0.824 -0.7623 -0.1124  0.1281
 5573TIP3    H116725   2.551   0.984   0.890  2.2204 -0.4126  2.3829
 5573TIP3    H216726   2.616   0.966   0.755 -2.0857 -0.4666  0.1573
 5574TIP3   OH216727   2.809   4.502   1.405 -0.9475 -0.3813  0.1306
 5574TIP3    H116728   2.893   4.545   1.393 -1.2846  0.1143 -0.5859
 5574TIP3    H216729   2.765   4.512   1.321 -0.8308 -2.6541 -0.2620
 5575TIP3   OH216730   4.459   1.939   0.309 -0.2102  0.3175 -0.0720
 5575TIP3    H116731   4.446   1.880   0.235  2.3895 -0.9232  0.3646
 5575TIP3    H216732   4.417   1.895   0.383 -0.9811  0.5509 -0.3600
 5576TIP3   OH216733   6.207   2.985   0.254 -0.1367 -0.8310 -0.7377
 5576TIP3    H116734   6.201   2.974   0.159  1.6475 -0.3468 -0.9416
 5576TIP3    H216735   6.264   2.914   0.282  1.4067  0.4801 -0.4065
 5577TIP3   OH216736   1.847   3.213   5.044  0.6018  0.4462 -0.7607
 5577TIP3    H116737   1.772   3.183   4.992  0.2146 -2.0106  1.0143
 5577TIP3    H216738   1.822   3.301   5.072 -1.1158  0.1395 -1.1754
 5578TIP3   OH216739   4.294   5.036   0.772  0.5188 -0.1974 -0.2853
 5578TIP3    H116740   4.224   5.028   0.708  0.6913 -1.5217 -0.3351
 5578TIP3    H216741   4.271   4.974   0.841  2.0338 -1.2960 -0.7057
 5579TIP3   OH216742   0.250   1.924   3.436  0.6446  0.2143  0.4645
 5579TIP3    H116743   0.272   1.858   3.370  1.9298  2.0339 -1.0380
 5579TIP3    H216744   0.332   1.971   3.451  0.1528  0.4844  2.7038
 5580TIP3   OH216745   4.870   1.627   0.725  0.4165  0.4254  0.3922
 5580TIP3    H116746   4.844   1.550   0.675 -0.8794  0.8452  0.3941
 5580TIP3    H216747   4.959   1.607   0.756  0.4943 -0.6216 -0.4669
 5581TIP3   OH216748   0.526   4.034   3.558  0.2981 -0.3217 -0.5164
 5581TIP3    H116749   0.482   4.116   3.580  0.5152 -0.3335 -0.0131
 5581TIP3    H216750   0.470   3.994   3.491 -0.9886 -0.7907  0.7717
 5582TIP3   OH216751   4.504   4.452   4.272 -0.3579  0.3292  0.0992
 5582TIP3    H116752   4.435   4.471   4.208  1.2204 -0.0361 -1.8355
 5582TIP3    H216753   4.534   4.364   4.248  0.6977  0.4350  0.9654
 5583TIP3   OH216754   6.026   0.447   0.342  0.1450 -0.7140 -0.2388
 5583TIP3    H116755   5.999   0.534   0.310 -0.2311 -1.1237 -1.0755
 5583TIP3    H216756   6.100   0.465   0.399 -0.3540  0.2214  0.1509
 5584TIP3   OH216757   1.379   1.405   2.448  0.0833 -0.0183 -0.2740
 5584TIP3    H116758   1.290   1.382   2.424 -0.3989  2.7603 -1.5266
 5584TIP3    H216759   1.384   1.389   2.543 -1.9447  0.3531 -0.0718
 5585TIP3   OH216760   0.733   2.742   2.948 -0.4181  0.1560 -0.1919
 5585TIP3    H116761   0.686   2.682   2.889  0.4325  0.1556 -0.8889
 5585TIP3    H216762   0.711   2.829   2.916 -1.5696  0.2419  0.7570
 5586TIP3   OH216763   4.026   1.921   1.229  0.5959  0.4417 -0.1154
 5586TIP3    H116764   4.064   2.008   1.215  0.6415  0.2511 -1.2602
 5586TIP3    H216765   4.101   1.862   1.224  0.5490  0.3257  0.5585
 5587TIP3   OH216766   0.518   2.611   1.903 -0.0372 -0.6470 -0.0316
 5587TIP3    H116767   0.567   2.600   1.821  0.6416  1.8680 -0.0383
 5587TIP3    H216768   0.513   2.705   1.915 -0.8879 -0.9461  2.4066
 5588TIP3   OH216769   0.548   4.677   3.023  0.4491 -0.0694 -0.4249
 5588TIP3    H116770   0.532   4.771   3.011  0.7131 -0.0217 -0.4289
 5588TIP3    H216771   0.572   4.645   2.936 -3.6606 -1.0120 -1.4032
 5589TIP3   OH216772   3.091   4.202   1.258 -0.0734  0.9313 -0.7325
 5589TIP3    H116773   3.118   4.225   1.169 -2.6536  1.6029 -1.4324
 5589TIP3    H216774   2.997   4.184   1.251 -0.4379  1.3583  1.9306
 5590TIP3   OH216775   3.367   1.420   3.140  0.4920  0.6105  0.0426
 5590TIP3    H116776   3.308   1.364   3.090  1.3111  0.0752 -0.3341
 5590TIP3    H216777   3.454   1.404   3.102  1.2664 -0.3676  2.0932
 5591TIP3   OH216778   4.860   5.533   0.361 -0.1482  0.1257 -0.1869
 5591TIP3    H116779   4.807   5.596   0.408  0.5400  0.7054 -0.1733
 5591TIP3    H216780   4.797   5.468   0.328 -0.5245 -1.3315  3.0211
 5592TIP3   OH216781   0.362   2.457   0.007 -0.3304  0.0448  0.1801
 5592TIP3    H116782   0.373   2.468   0.101 -0.0418  1.2110  0.0207
 5592TIP3    H216783   0.345   2.363  -0.004  0.7655 -0.3113  1.2854
 5593TIP3   OH216784   4.165   5.932   4.952 -0.2507  0.0128 -0.3086
 5593TIP3    H116785   4.131   5.950   4.865 -0.8045 -0.1320 -0.1325
 5593TIP3    H216786   4.254   5.968   4.952 -0.5283  0.7262 -0.6758
 5594TIP3   OH216787   3.005   2.524   1.947  0.3534  0.1140 -0.2120
 5594TIP3    H116788   3.005   2.574   2.029  0.8831 -1.9333  1.1283
 5594TIP3    H216789   2.957   2.444   1.969  1.6812 -1.0782 -1.4881
 5595TIP3   OH216790   0.044   4.923   0.083  0.0655 -0.3567 -0.5544
 5595TIP3    H116791   0.126   4.909   0.036  0.2637 -1.4675  0.0909
 5595TIP3    H216792  -0.021   4.874   0.032 -0.3126  0.9176 -1.3383
 5596TIP3   OH216793   0.720   1.209   2.853 -0.0694 -0.1899 -0.2736
 5596TIP3    H116794   0.663   1.151   2.904 -1.1903  0.5249 -0.6669
 5596TIP3    H216795   0.793   1.229   2.912  0.3093 -1.8992 -0.0974
 5597TIP3   OH216796   0.016   0.712   5.119  0.0605  0.3111  0.1693
 5597TIP3    H116797   0.104   0.750   5.122 -0.5794  2.0500 -1.2904
 5597TIP3    H216798   0.031   0.620   5.099  1.5921  0.1501  1.7752
 5598TIP3   OH216799   1.013   0.445   3.156 -0.2678 -0.2167 -0.0942
 5598TIP3    H116800   0.919   0.464   3.163 -0.3830 -0.5956 -0.5169
 5598TIP3    H216801   1.046   0.514   3.097 -0.0491  0.6158  0.9780
 5599TIP3   OH216802   2.415   3.658   1.922  0.0648 -0.0051  0.1854
 5599TIP3    H116803   2.350   3.589   1.911 -1.0513  1.1238 -0.6898
 5599TIP3    H216804   2.494   3.625   1.879 -1.3902  0.4649 -3.1545
 5600TIP3   OH216805   6.018   5.440   3.871  0.3146  0.0060 -0.4922
 5600TIP3    H116806   6.006   5.482   3.956  0.7657 -1.8204  0.5143
 5600TIP3    H216807   6.111   5.451   3.851  0.1450  0.7306 -0.9508
 5601TIP3   OH216808   3.368   0.766   1.274 -0.1837 -0.1803 -0.0969
 5601TIP3    H116809   3.377   0.789   1.182  2.1151  0.0988  0.1357
 5601TIP3    H216810   3.458   0.756   1.305 -0.8271  1.0292  2.4419
 5602TIP3   OH216811   3.893   4.703   2.148 -0.8121  0.0761 -0.5634
 5602TIP3    H116812   3.918   4.642   2.217 -0.3219  0.8353 -0.0650
 5602TIP3    H216813   3.898   4.789   2.189 -1.9991  0.4261 -1.1083
 5603TIP3   OH216814   3.184   1.500   3.908  0.0633  0.2271  0.1770
 5603TIP3    H116815   3.153   1.525   3.821 -0.1641  1.4059  0.5791
 5603TIP3    H216816   3.156   1.409   3.918 -1.3792  0.5926 -0.3206
 5604TIP3   OH216817   0.942   3.936   3.080 -0.3706 -0.3239  0.3120
 5604TIP3    H116818   0.990   3.911   3.159  0.8080  1.5983  0.2768
 5604TIP3    H216819   0.990   3.894   3.008  1.7526  1.9907  0.2260
 5605TIP3   OH216820   5.556   4.676   3.844 -0.7018  0.3864 -0.0977
 5605TIP3    H116821   5.582   4.597   3.891  2.7755  0.7449 -1.1506
 5605TIP3    H216822   5.521   4.734   3.912 -2.3739 -1.5798  0.8426
 5606TIP3   OH216823   2.366   0.609   2.445 -0.4556 -0.1791  0.7393
 5606TIP3    H116824   2.392   0.583   2.357  0.7236 -1.7894  1.5200
 5606TIP3    H216825   2.445   0.645   2.484 -1.6684  3.5535  0.2020
 5607TIP3   OH216826   0.443   5.403   3.100  0.1279 -0.3886  0.3242
 5607TIP3    H116827   0.409   5.437   3.183 -0.6861  0.0805 -0.1983
 5607TIP3    H216828   0.407   5.461   3.033 -1.3401 -2.2954 -0.6132
 5608TIP3   OH216829   5.988   1.971   2.662  0.1754 -0.9402 -0.1499
 5608TIP3    H116830   5.951   2.040   2.607  1.5268 -0.9473 -1.1128
 5608TIP3    H216831   5.940   1.978   2.744  0.5979  1.5076 -0.0147
 5609TIP3   OH216832   0.159   3.830   2.860 -0.3523  0.0432 -0.1745
 5609TIP3    H116833   0.218   3.755   2.870  0.0195 -0.2751 -3.5328
 5609TIP3    H216834   0.207   3.890   2.802 -0.3534  3.3237  2.8996
 5610TIP3   OH216835   0.285   0.926   2.459 -0.7048 -0.3975 -0.4809
 5610TIP3    H116836   0.236   0.946   2.379  0.1043 -0.6670 -1.0597
 5610TIP3    H216837   0.220   0.888   2.518 -2.0056  2.5687  0.1752
 5611TIP3   OH216838   2.053   3.025   1.745  0.8780  0.6126 -0.0076
 5611TIP3    H116839   2.065   2.995   1.834  2.6384  0.9433 -0.0826
 5611TIP3    H216840   2.039   2.946   1.694 -0.9727  0.4842  0.6460
 5612TIP3   OH216841   2.757   1.222   1.583  0.3493  0.0590  0.3967
 5612TIP3    H116842   2.746   1.315   1.602 -0.4898  0.2039 -0.7167
 5612TIP3    H216843   2.846   1.202   1.611  0.5605  1.2055  0.5792
 5613TIP3   OH216844   4.023   5.478   1.485  0.0482  0.0486 -0.0270
 5613TIP3    H116845   4.103   5.425   1.479  0.8195  0.9612  1.4122
 5613TIP3    H216846   3.964   5.427   1.540  0.5560  0.3974  0.8543
 5614TIP3   OH216847   0.564   5.361   4.330  0.1647  0.2239  0.1977
 5614TIP3    H116848   0.522   5.446   4.319 -0.2825  0.4963  3.1958
 5614TIP3    H216849   0.651   5.381   4.364  1.9873 -0.4424 -3.5689
 5615TIP3   OH216850   3.560   2.864   4.138  0.6228 -0.3099  0.5807
 5615TIP3    H116851   3.590   2.918   4.212  1.3263  0.4475 -0.2416
 5615TIP3    H216852   3.508   2.924   4.084 -1.4074 -1.2861  1.3278
 5616TIP3   OH216853   3.358   3.188   0.797  0.4005 -0.2825 -0.2169
 5616TIP3    H116854   3.356   3.248   0.871  1.6330  0.0852 -0.4473
 5616TIP3    H216855   3.267   3.162   0.784 -0.0461  0.8747  0.4280
 5617TIP3   OH216856   4.403   1.703   4.725 -0.2480 -0.1220 -0.3379
 5617TIP3    H116857   4.309   1.700   4.713 -0.4370  1.0436  0.7237
 5617TIP3    H216858   4.419   1.779   4.781  1.3932  0.2035 -1.1707
 5618TIP3   OH216859   3.983   1.475   0.337 -0.0815  0.7711 -0.2814
 5618TIP3    H116860   3.918   1.454   0.405  1.1275 -1.2472  0.3050
 5618TIP3    H216861   4.021   1.558   0.366  0.1848  0.1053  1.3697
 5619TIP3   OH216862   4.823   1.512   3.608 -0.0431  0.4560 -0.1909
 5619TIP3    H116863   4.829   1.417   3.597 -1.9687  0.1767  0.6893
 5619TIP3    H216864   4.832   1.525   3.702 -2.0172  0.8682 -0.0113
 5620TIP3   OH216865   1.657   0.465   0.459 -0.5309  0.4025 -0.2794
 5620TIP3    H116866   1.635   0.463   0.553 -2.0490  0.9486 -0.5912
 5620TIP3    H216867   1.679   0.556   0.442 -2.4012  0.7923 -0.8634
 5621TIP3   OH216868   2.199   2.289   3.910 -0.2548  0.0639 -0.2561
 5621TIP3    H116869   2.244   2.254   3.987 -1.1576 -2.7806 -0.9083
 5621TIP3    H216870   2.127   2.341   3.946  0.3463  0.1925  0.7890
 5622TIP3   OH216871   3.231   1.810   3.139  0.1420 -0.2891  0.8125
 5622TIP3    H116872   3.311   1.860   3.155  0.1478 -0.0816  0.1562
 5622TIP3    H216873   3.186   1.809   3.224  0.5435  0.1157  1.0337
 5623TIP3   OH216874   2.075   1.996   3.888 -0.1088 -0.3854 -0.0006
 5623TIP3    H116875   2.087   2.074   3.941 -0.2470 -0.7091  0.5239
 5623TIP3    H216876   2.048   1.929   3.951 -0.2866 -0.7756 -0.4857
 5624TIP3   OH216877   5.295   2.373   1.081  0.4961  0.3820  0.6582
 5624TIP3    H116878   5.354   2.429   1.030  0.7839  0.3959  1.0038
 5624TIP3    H216879   5.291   2.414   1.167 -0.9635  1.0499  0.3025
 5625TIP3   OH216880   4.204   2.729   3.858 -0.4394 -0.1224 -0.2888
 5625TIP3    H116881   4.138   2.796   3.875 -0.6711 -0.2656 -0.5916
 5625TIP3    H216882   4.279   2.753   3.912 -1.5049 -1.1523  1.7388
 5626TIP3   OH216883   3.359   3.197   3.888  0.1183 -0.1582 -0.0763
 5626TIP3    H116884   3.340   3.104   3.906 -0.8643  0.1332  0.5161
 5626TIP3    H216885   3.273   3.239   3.889  0.6441  0.9607  0.9094
 5627TIP3   OH216886   1.314   5.002   3.911  0.2918 -0.6937  0.0873
 5627TIP3    H116887   1.339   5.090   3.938 -0.9525 -0.5068  0.7153
 5627TIP3    H216888   1.360   4.944   3.973  1.1194 -0.5075 -0.3348
 5628TIP3   OH216889   5.301   1.727   1.187 -0.2927 -0.0267 -0.1410
 5628TIP3    H116890   5.349   1.744   1.269  1.0009 -0.6324 -0.7397
 5628TIP3    H216891   5.334   1.642   1.158 -1.3130 -0.1687 -0.9017
 5629TIP3   OH216892   5.383   0.369   3.726 -0.5183 -0.2264 -0.7873
 5629TIP3    H116893   5.312   0.360   3.663 -0.7967 -0.7158 -0.4095
 5629TIP3    H216894   5.422   0.454   3.706 -1.6605  0.3817 -0.5354
 5630TIP3   OH216895   3.582   5.336   2.325 -0.2270  0.6155  0.6224
 5630TIP3    H116896   3.521   5.398   2.366 -0.6651  0.2596  0.5208
 5630TIP3    H216897   3.548   5.250   2.350 -0.7226  0.3821 -0.7880
 5631TIP3   OH216898   1.307   4.318   2.466  0.4201  0.2637  0.4458
 5631TIP3    H116899   1.346   4.249   2.413 -0.4867  0.5978 -0.6818
 5631TIP3    H216900   1.212   4.305   2.458  0.2382  1.3499  0.5932
 5632TIP3   OH216901   3.123   1.886   0.757  0.4712 -0.2728  0.1710
 5632TIP3    H116902   3.121   1.807   0.703 -1.5489  0.2235 -0.5796
 5632TIP3    H216903   3.103   1.957   0.696 -0.5417  0.4669  1.3155
 5633TIP3   OH216904   0.815   4.720   4.462  0.0717  0.7074 -0.1414
 5633TIP3    H116905   0.767   4.771   4.397 -1.4057  0.4568  0.7073
 5633TIP3    H216906   0.839   4.785   4.529 -1.2915  0.4223  0.6488
 5634TIP3   OH216907   5.621   2.796   3.063 -0.2059 -0.6155 -0.1106
 5634TIP3    H116908   5.533   2.823   3.037 -0.8501 -1.2593  1.3105
 5634TIP3    H216909   5.623   2.806   3.158 -0.1834 -4.5383  0.4740
 5635TIP3   OH216910   5.774   5.969   2.818 -0.2582  0.1193  0.0807
 5635TIP3    H116911   5.741   5.882   2.842 -1.4140 -0.2171 -2.5021
 5635TIP3    H216912   5.867   5.955   2.801 -0.6782 -0.9452 -1.5614
 5636TIP3   OH216913   3.211   1.310   0.459 -0.2887 -0.1109 -0.0292
 5636TIP3    H116914   3.251   1.314   0.546  0.2622 -1.9323 -0.1713
 5636TIP3    H216915   3.172   1.223   0.454 -1.5711  0.5018 -1.0837
 5637TIP3   OH216916   4.554   1.665   2.548  0.3681  0.6417 -0.4356
 5637TIP3    H116917   4.525   1.576   2.528  0.2729  0.6991 -0.5489
 5637TIP3    H216918   4.485   1.702   2.602 -0.0710  0.9962 -1.2281
 5638TIP3   OH216919   6.040   4.726   2.865 -0.0573 -0.0141  0.1859
 5638TIP3    H116920   6.132   4.731   2.893 -0.6379  0.5755  2.1190
 5638TIP3    H216921   6.028   4.801   2.807  1.2569 -1.4248 -2.0522
 5639TIP3   OH216922   1.534   5.118   3.261 -0.1641  0.3814 -0.1896
 5639TIP3    H116923   1.474   5.182   3.222  0.3998  1.1395  0.1437
 5639TIP3    H216924   1.503   5.107   3.351 -1.1884 -1.0173 -0.6834
 5640TIP3   OH216925   1.171   3.292   0.214  0.4596  0.6782 -0.2955
 5640TIP3    H116926   1.124   3.374   0.200  1.6326  1.5472  0.7423
 5640TIP3    H216927   1.248   3.298   0.157 -0.3099 -0.4637 -1.5099
 5641TIP3   OH216928   3.738   2.948   2.803  0.5756  0.1176 -0.6982
 5641TIP3    H116929   3.652   2.933   2.762  0.7084 -1.6458 -0.3972
 5641TIP3    H216930   3.782   3.009   2.744 -0.5908  0.4527 -1.2562
 5642TIP3   OH216931   5.997   4.918   0.893 -0.5917  0.6847  0.5285
 5642TIP3    H116932   5.935   4.977   0.936  0.9071  2.2725  0.6144
 5642TIP3    H216933   5.991   4.941   0.800 -0.9576  0.0423  0.3928
 5643TIP3   OH216934   0.874   1.679   1.778  0.5035  0.2429 -0.5805
 5643TIP3    H116935   0.942   1.630   1.825  0.0999 -0.8082 -1.0563
 5643TIP3    H216936   0.797   1.671   1.833  0.3269 -0.0316 -0.8627
 5644TIP3   OH216937   1.240   5.214   1.482 -0.3526 -0.1465 -0.2096
 5644TIP3    H116938   1.335   5.219   1.474 -0.4135 -0.8181 -1.5873
 5644TIP3    H216939   1.214   5.302   1.509  0.7930 -0.4557  2.1979
 5645TIP3   OH216940   5.163   4.045   1.962  0.2962  0.3457 -0.6251
 5645TIP3    H116941   5.258   4.058   1.953  0.2115  0.9719 -0.6358
 5645TIP3    H216942   5.147   4.055   2.056  0.0824  1.3845 -0.7599
 5646TIP3   OH216943   1.748   4.439   3.927  0.1896 -0.3283 -0.0255
 5646TIP3    H116944   1.689   4.435   3.852 -0.1482 -0.9026  0.2664
 5646TIP3    H216945   1.820   4.495   3.898 -0.7029  0.7569 -0.2355
 5647TIP3   OH216946   4.396   0.713   2.472 -0.2682  0.3256  0.2746
 5647TIP3    H116947   4.442   0.724   2.389  1.6387  0.8101  1.3474
 5647TIP3    H216948   4.369   0.802   2.497 -0.0352  0.2998  0.6190
 5648TIP3   OH216949   3.112   3.168   0.699  0.3686 -0.1745 -0.3118
 5648TIP3    H116950   3.025   3.129   0.694 -0.4270  1.5162 -0.3937
 5648TIP3    H216951   3.118   3.224   0.622  1.2283  0.2904  0.0797
 5649TIP3   OH216952   1.388   5.186   0.056  0.3433  0.3092  0.0059
 5649TIP3    H116953   1.340   5.236   0.122  0.3605  1.9402 -1.1546
 5649TIP3    H216954   1.381   5.239  -0.023  0.7226 -1.3669 -1.1903
 5650TIP3   OH216955   0.304   3.125   3.328  0.0683 -0.2394  0.2096
 5650TIP3    H116956   0.249   3.191   3.286 -0.3914 -0.1440  0.9492
 5650TIP3    H216957   0.355   3.174   3.393 -1.4221 -0.8040  1.8905
 5651TIP3   OH216958   1.691   1.940   4.504 -0.1665  0.3398 -0.2692
 5651TIP3    H116959   1.773   1.896   4.484  0.0125  0.5270  0.0441
 5651TIP3    H216960   1.636   1.872   4.544  0.0605  0.3716  0.0921
 5652TIP3   OH216961   0.530   4.256   1.428 -0.1105  0.3447  0.1138
 5652TIP3    H116962   0.575   4.173   1.443  0.4985  0.9633  1.9696
 5652TIP3    H216963   0.595   4.323   1.450 -0.9242  1.3065 -0.3217
 5653TIP3   OH216964   2.897   2.172   0.464 -0.1809  0.1436 -0.1951
 5653TIP3    H116965   2.925   2.205   0.549  1.9201  0.8824 -1.1171
 5653TIP3    H216966   2.809   2.138   0.480 -0.8087  2.3987  1.7462
 5654TIP3   OH216967   6.154   4.739   0.689  0.1661 -0.0290 -0.3039
 5654TIP3    H116968   6.135   4.708   0.778  1.1369 -1.8933 -0.6813
 5654TIP3    H216969   6.088   4.697   0.634  1.6371 -1.7380 -0.8599
 5655TIP3   OH216970   2.007   4.072   0.298  0.0635 -0.1147 -0.0037
 5655TIP3    H116971   2.068   4.140   0.324 -0.4887  0.9108 -1.2847
 5655TIP3    H216972   1.931   4.084   0.355 -0.0811  0.4362 -0.3072
 5656TIP3   OH216973   4.033   2.988   1.959 -0.3481 -0.4601  0.3079
 5656TIP3    H116974   4.128   3.000   1.960 -0.2865 -0.5768  2.6685
 5656TIP3    H216975   4.019   2.904   1.916  0.5806 -0.3270 -0.2788
 5657TIP3   OH216976   5.387   1.463   1.099  0.4741 -0.5683  0.1336
 5657TIP3    H116977   5.302   1.419   1.097  0.0334  0.2666 -0.0997
 5657TIP3    H216978   5.417   1.462   1.009  0.6751 -0.7955  0.2032
 5658TIP3   OH216979   0.839   2.248   5.014 -0.0859  0.6864 -0.7179
 5658TIP3    H116980   0.753   2.209   5.030  0.2809 -0.0922 -0.6228
 5658TIP3    H216981   0.846   2.317   5.081  0.2867 -0.7221  0.7652
 5659TIP3   OH216982   5.989   2.501   4.639  0.2759 -0.1049  0.2920
 5659TIP3    H116983   5.973   2.587   4.600  2.2304 -0.2834 -1.0423
 5659TIP3    H216984   5.953   2.507   4.727  2.6695  3.0219  1.2287
 5660TIP3   OH216985   2.715   5.549   0.858 -0.1764 -0.1946  0.2496
 5660TIP3    H116986   2.703   5.639   0.888  0.2957 -0.4071  1.1434
 5660TIP3    H216987   2.723   5.555   0.763  2.2254  0.9955  0.4646
 5661TIP3   OH216988   3.145   0.249   0.042 -0.1312  0.3345 -0.5111
 5661TIP3    H116989   3.189   0.232   0.125 -0.8218 -1.8411 -0.5239
 5661TIP3    H216990   3.211   0.295  -0.011  1.1074 -0.2441  0.4754
 5662TIP3   OH216991   5.906   5.894   0.625  0.5766  0.2242  0.1252
 5662TIP3    H116992   5.868   5.934   0.704  0.9301 -0.2472  0.5438
 5662TIP3    H216993   5.837   5.899   0.560  0.3943  0.9448  0.3556
 5663TIP3   OH216994   6.304   2.692   2.513  0.4675  0.7769  0.6085
 5663TIP3    H116995   6.331   2.714   2.603 -0.1440 -0.9789  1.2705
 5663TIP3    H216996   6.227   2.636   2.525  1.4216 -0.9744 -0.9283
 5664TIP3   OH216997   4.853   4.956   1.149  0.2896  0.3076 -0.0030
 5664TIP3    H116998   4.801   4.926   1.074  0.9781 -0.0881 -0.3420
 5664TIP3    H216999   4.943   4.930   1.126  0.3208 -1.2572  1.6690
 5665TIP3   OH217000   1.214   2.922   1.682 -0.0591  0.0205 -0.6140
 5665TIP3    H117001   1.235   2.869   1.759 -0.3967  0.4729 -0.2020
 5665TIP3    H217002   1.131   2.965   1.704 -0.6105 -0.5244 -1.5861
 5666TIP3   OH217003   4.532   0.843   0.591 -0.4807 -0.4319  0.7180
 5666TIP3    H117004   4.521   0.915   0.530  1.3362 -1.8806 -1.4748
 5666TIP3    H217005   4.446   0.800   0.592 -1.2188  0.9872  1.0942
 5667TIP3   OH217006   3.360   0.147   0.251 -0.0273 -0.4371  0.1668
 5667TIP3    H117007   3.374   0.218   0.313  0.6436  1.0340 -1.5788
 5667TIP3    H217008   3.438   0.092   0.259  0.8089  0.6210 -0.4498
 5668TIP3   OH217009   1.675   1.795   1.463  0.1752  0.0578  0.2154
 5668TIP3    H117010   1.733   1.720   1.449 -1.0935 -1.7796  3.8169
 5668TIP3    H217011   1.621   1.799   1.384  0.6024 -2.5310 -0.2737
 5669TIP3   OH217012   2.263   3.841   0.915  0.2819 -0.6241  0.6989
 5669TIP3    H117013   2.180   3.845   0.963  1.1197  0.4949  2.0966
 5669TIP3    H217014   2.240   3.867   0.826 -0.8198 -0.0550  1.1350
 5670TIP3   OH217015   4.562   2.051   4.748  0.5373  0.3527 -0.4547
 5670TIP3    H117016   4.614   2.096   4.814  1.1210  0.3785 -0.9246
 5670TIP3    H217017   4.619   1.983   4.713 -1.0834 -2.4695  1.9461
 5671TIP3   OH217018   0.458   5.287   1.585 -0.1436  0.2087 -0.1560
 5671TIP3    H117019   0.382   5.308   1.639  0.4020  1.4707  0.1488
 5671TIP3    H217020   0.421   5.243   1.509 -1.1281  0.2986  0.2516
 5672TIP3   OH217021   1.050   2.938   2.180  0.9991  0.0768 -0.2017
 5672TIP3    H117022   0.996   3.017   2.187  0.8925  0.0862 -1.0159
 5672TIP3    H217023   1.038   2.909   2.090  0.9310 -0.9500  0.1254
 5673TIP3   OH217024   3.618   4.161   2.429 -0.1039  0.8242 -0.2634
 5673TIP3    H117025   3.562   4.129   2.500 -0.0880  0.2723 -0.4976
 5673TIP3    H217026   3.605   4.256   2.429 -2.2326  0.5940 -1.3126
 5674TIP3   OH217027   3.898   0.708   4.229  0.2847 -0.5968 -0.5348
 5674TIP3    H117028   3.943   0.630   4.260  1.0783  0.1574  0.2721
 5674TIP3    H217029   3.866   0.685   4.142  0.2255 -1.9162 -0.1711
 5675TIP3   OH217030   1.799   3.520   1.618  0.5431 -0.3972 -0.1193
 5675TIP3    H117031   1.876   3.573   1.640 -0.0450  0.4133  0.0837
 5675TIP3    H217032   1.834   3.440   1.581  1.4935 -0.1989  0.3097
 5676TIP3   OH217033   4.263   5.129   4.974  0.0319  0.7388 -0.6509
 5676TIP3    H117034   4.273   5.108   5.067 -1.1567  0.3200 -0.6035
 5676TIP3    H217035   4.285   5.048   4.928  1.6133  1.2170 -0.8260
 5677TIP3   OH217036   4.438   5.417   2.890  0.2129  0.0277  0.4265
 5677TIP3    H117037   4.504   5.368   2.938 -0.5990 -0.9853  0.5544
 5677TIP3    H217038   4.356   5.370   2.908 -0.4008  0.7456 -0.4186
 5678TIP3   OH217039  -0.032   3.332   4.778  0.2664 -0.1343 -0.2791
 5678TIP3    H117040  -0.023   3.240   4.753 -1.5542 -1.0687  2.1082
 5678TIP3    H217041   0.055   3.357   4.808  0.4197 -1.6753  0.6800
 5679TIP3   OH217042   1.658   2.240   4.163 -0.4858 -0.4636 -0.3684
 5679TIP3    H117043   1.674   2.312   4.102  1.0454 -2.1628 -2.0635
 5679TIP3    H217044   1.573   2.261   4.202 -1.3942  0.8784 -2.8440
 5680TIP3   OH217045   5.899   4.550   2.726  0.0371  0.2138 -0.5515
 5680TIP3    H117046   5.954   4.615   2.770 -0.8085 -0.9167  2.3880
 5680TIP3    H217047   5.810   4.584   2.736 -0.3969 -1.2089  0.8450
 5681TIP3   OH217048   2.090   4.656   0.448 -0.2649  0.0177  0.3704
 5681TIP3    H117049   2.035   4.668   0.371  0.6912  0.4732 -0.2573
 5681TIP3    H217050   2.174   4.626   0.413  0.5777  1.3929  1.1073
 5682TIP3   OH217051   6.244   2.279   5.102  0.1032  0.0971 -0.0616
 5682TIP3    H117052   6.222   2.279   5.009  0.2313 -0.0013 -0.0915
 5682TIP3    H217053   6.173   2.228   5.143  0.9110 -1.2927 -0.3133
 5683TIP3   OH217054   4.787   4.488   2.184  0.3697 -0.0007  0.6545
 5683TIP3    H117055   4.706   4.502   2.134  1.0252  3.1146  0.2295
 5683TIP3    H217056   4.837   4.426   2.132  0.7730  2.6394 -2.4918
 5684TIP3   OH217057   4.468   3.007   2.931 -0.4622 -0.1685  0.0351
 5684TIP3    H117058   4.515   2.937   2.885 -0.0232  0.4431 -0.4576
 5684TIP3    H217059   4.508   3.009   3.017 -0.1198 -0.1777 -0.1212
 5685TIP3   OH217060   0.729   4.877   4.221 -0.2730  0.2562 -0.0754
 5685TIP3    H117061   0.670   4.802   4.211  1.3586 -0.9709 -1.2240
 5685TIP3    H217062   0.672   4.951   4.240 -2.1235 -0.9557 -0.6554
 5686TIP3   OH217063   3.658   4.233   5.009  0.3002 -0.4760  0.1560
 5686TIP3    H117064   3.727   4.187   5.057  0.6755  0.2295  0.2973
 5686TIP3    H217065   3.697   4.316   4.983 -0.6342  0.1466  0.6607
 5687TIP3   OH217066   1.493   3.619   1.211  0.6505  0.4070 -0.0701
 5687TIP3    H117067   1.511   3.533   1.250 -0.3140  0.5353  0.7079
 5687TIP3    H217068   1.399   3.618   1.193  0.6965  1.1651 -0.3961
 5688TIP3   OH217069   3.854   3.938   4.371  0.2027  0.1527 -0.4545
 5688TIP3    H117070   3.819   4.026   4.382 -1.5225 -0.5352 -0.2397
 5688TIP3    H217071   3.926   3.950   4.308 -0.6265  1.5690 -1.2110
 5689TIP3   OH217072   5.885   1.217   4.121  0.0044 -0.0739  0.2127
 5689TIP3    H117073   5.973   1.190   4.094  0.3783  0.7266  0.6052
 5689TIP3    H217074   5.837   1.135   4.130  0.9555 -0.5884  0.8092
 5690TIP3   OH217075   3.404   3.270   0.182 -0.1596  0.1282  0.3795
 5690TIP3    H117076   3.394   3.281   0.276  2.5524  0.1729  0.7354
 5690TIP3    H217077   3.424   3.358   0.150 -0.6548  0.0380 -0.2046
 5691TIP3   OH217078   0.923   5.597   0.845 -0.7221 -0.5220  0.4207
 5691TIP3    H117079   0.936   5.625   0.936  1.8730 -0.8467  0.2128
 5691TIP3    H217080   0.870   5.517   0.853  0.2248 -1.0632  1.7535
 5692TIP3   OH217081   2.290   1.646   1.864 -0.1018  0.7539  0.3444
 5692TIP3    H117082   2.347   1.695   1.805  3.7330 -3.3187  0.1003
 5692TIP3    H217083   2.321   1.669   1.952  0.0277  0.5995  0.3402
 5693TIP3   OH217084   5.130   1.114   0.903 -0.2521  0.1524  0.0348
 5693TIP3    H117085   5.171   1.045   0.851 -1.5370  1.0702 -2.3100
 5693TIP3    H217086   5.148   1.089   0.994  2.2498 -1.4104 -0.8049
 5694TIP3   OH217087   0.998   2.860   3.690 -0.5696 -0.3639 -0.1092
 5694TIP3    H117088   1.085   2.821   3.704 -0.7103 -1.9110 -2.8099
 5694TIP3    H217089   0.994   2.875   3.596 -1.8202  3.3910  0.3569
 5695TIP3   OH217090   2.766   3.419   1.483 -0.0133  0.1379  0.3117
 5695TIP3    H117091   2.767   3.478   1.558  1.9104  0.6446 -0.0769
 5695TIP3    H217092   2.746   3.333   1.520  1.7637  0.2163  1.5635
 5696TIP3   OH217093   5.594   3.523   0.333 -0.3605 -0.2842 -0.4092
 5696TIP3    H117094   5.673   3.572   0.358 -0.6183 -0.1836  0.2402
 5696TIP3    H217095   5.527   3.590   0.322 -0.8052 -0.4996  0.8350
 5697TIP3   OH217096   0.154   4.030   4.377 -0.4366 -0.0759  0.1744
 5697TIP3    H117097   0.110   4.044   4.461 -0.5669  1.7851 -0.1454
 5697TIP3    H217098   0.212   3.956   4.391 -0.1414  0.4663  2.0391
 5698TIP3   OH217099   2.670   4.308   0.972  0.0786  0.1313  0.3500
 5698TIP3    H117100   2.651   4.388   0.922 -1.2336 -0.5957 -0.3838
 5698TIP3    H217101   2.590   4.292   1.023  1.4565  0.9467  2.9013
 5699TIP3   OH217102   4.758   0.221   1.566 -0.3549 -0.2139  0.0079
 5699TIP3    H117103   4.760   0.282   1.640 -1.5394  1.1829 -1.0458
 5699TIP3    H217104   4.745   0.135   1.606 -0.0257  0.3869  1.4606
 5700TIP3   OH217105   5.120   5.592   4.363  0.0889  0.6440 -0.1134
 5700TIP3    H117106   5.199   5.569   4.313 -0.1560  1.1459 -0.7392
 5700TIP3    H217107   5.147   5.666   4.417  0.3706  0.0632  0.5575
 5701TIP3   OH217108   4.792   1.688   2.121 -0.1573 -0.5763 -0.1543
 5701TIP3    H117109   4.855   1.639   2.068 -0.4894  0.5120 -1.6261
 5701TIP3    H217110   4.783   1.772   2.076 -0.8706  0.1987  1.3577
 5702TIP3   OH217111   2.775   5.816   0.077 -0.4036 -0.1515 -0.1487
 5702TIP3    H117112   2.767   5.720   0.074 -0.4668 -0.1382 -0.4063
 5702TIP3    H217113   2.863   5.834   0.046 -0.3426 -0.1323  0.0314
 5703TIP3   OH217114   6.272   1.348   3.138 -0.4697 -0.6116 -0.2067
 5703TIP3    H117115   6.194   1.355   3.193 -0.3692  0.1597 -0.1509
 5703TIP3    H217116   6.277   1.433   3.094 -0.6063 -1.2511 -1.4876
 5704TIP3   OH217117   3.749   4.672   3.647  0.3045  0.2245 -0.0850
 5704TIP3    H117118   3.656   4.695   3.637  0.1497  0.6796  2.0044
 5704TIP3    H217119   3.749   4.605   3.715  1.5502  0.4506  0.1526
 5705TIP3   OH217120   2.143   2.052   1.281  0.4773  0.1848 -0.0977
 5705TIP3    H117121   2.190   2.114   1.226 -0.5390  0.7577 -0.3557
 5705TIP3    H217122   2.208   2.022   1.345  1.6979 -0.5605 -1.6459
 5706TIP3   OH217123   5.300   3.557   4.780 -0.1416  0.5110  0.2492
 5706TIP3    H117124   5.262   3.568   4.693  0.0290 -1.9282 -0.2214
 5706TIP3    H217125   5.234   3.591   4.840 -0.7901  1.1229 -0.7883
 5707TIP3   OH217126   2.952   0.868   1.682 -0.6186 -0.2215 -0.2666
 5707TIP3    H117127   2.949   0.859   1.587  0.0688  1.6025 -0.5157
 5707TIP3    H217128   2.933   0.961   1.698  2.3499  0.2909  1.1084
 5708TIP3   OH217129   0.741   2.077   2.237  0.1327  0.1768  0.1093
 5708TIP3    H117130   0.711   2.088   2.328  1.1613  0.9075  0.3705
 5708TIP3    H217131   0.835   2.095   2.240  0.1583  0.3326 -1.1253
 5709TIP3   OH217132   2.220   2.400   0.113 -0.3284 -0.3196 -0.3485
 5709TIP3    H117133   2.253   2.431   0.029  1.7014 -0.7351  0.2350
 5709TIP3    H217134   2.223   2.477   0.170 -4.0125  0.6122 -1.1603
 5710TIP3   OH217135   6.210   3.481   4.965  0.0662 -0.0859 -0.0693
 5710TIP3    H117136   6.241   3.420   4.898  1.0992  0.8925 -0.5108
 5710TIP3    H217137   6.265   3.463   5.041  0.5713  0.4765 -0.2944
 5711TIP3   OH217138   1.718   3.521   0.553  0.0855 -0.2733 -0.1952
 5711TIP3    H117139   1.643   3.570   0.586 -0.3730  0.5050 -2.2616
 5711TIP3    H217140   1.793   3.558   0.600 -0.3697  1.7723 -0.9807
 5712TIP3   OH217141   1.645   4.350   2.895  0.2213  0.0980  0.2009
 5712TIP3    H117142   1.592   4.352   2.815  0.7902  0.9382 -0.1585
 5712TIP3    H217143   1.610   4.420   2.949  2.0478  1.8467 -0.7617
 5713TIP3   OH217144   1.068   0.924   2.257 -0.3050  0.2707 -0.0760
 5713TIP3    H117145   1.122   0.852   2.289 -0.3785  0.0599 -0.4196
 5713TIP3    H217146   1.058   0.982   2.333 -1.1598 -0.6230  0.5216
 5714TIP3   OH217147   1.250   5.694   2.680  1.1155  0.4884  0.1270
 5714TIP3    H117148   1.244   5.776   2.729  0.5478  0.1492  0.6386
 5714TIP3    H217149   1.335   5.658   2.705  0.9454  0.4475  0.6750
 5715TIP3   OH217150   4.870   4.730   4.758 -0.5814 -0.0571 -0.1117
 5715TIP3    H117151   4.871   4.779   4.840  0.3885 -0.3286  0.0495
 5715TIP3    H217152   4.900   4.792   4.692 -3.3493  0.8134 -0.6882
 5716TIP3   OH217153   1.609   5.043   1.741  0.3819  0.3727  0.2644
 5716TIP3    H117154   1.638   5.134   1.730 -0.2144  0.3603 -1.8961
 5716TIP3    H217155   1.514   5.049   1.744  0.0337 -0.3914 -4.0082
 5717TIP3   OH217156   3.908   0.038   3.568  0.8535 -0.1290  0.1579
 5717TIP3    H117157   3.893  -0.007   3.484  0.6934 -2.1876  1.2308
 5717TIP3    H217158   3.932   0.127   3.543 -3.8341  0.8641 -2.0484
 5718TIP3   OH217159   0.161   1.195   4.990 -0.3269 -0.0780  0.0533
 5718TIP3    H117160   0.186   1.280   5.025 -4.2200  1.5397 -0.5480
 5718TIP3    H217161   0.118   1.151   5.063  0.6280 -1.0975  0.0297
 5719TIP3   OH217162   1.178   3.304   3.085 -0.2408  0.2889 -0.0154
 5719TIP3    H117163   1.225   3.387   3.092  0.1706 -0.0249  1.1147
 5719TIP3    H217164   1.245   3.241   3.058 -0.7587  0.4911 -1.9156
 5720TIP3   OH217165   1.694   3.795   4.804  0.1917 -0.1485 -0.4484
 5720TIP3    H117166   1.672   3.818   4.894 -1.7256  0.0531 -0.9254
 5720TIP3    H217167   1.610   3.776   4.763  0.8880  0.9265 -2.5100
 5721TIP3   OH217168   2.661   0.909   2.801  0.1563 -0.3433 -0.4067
 5721TIP3    H117169   2.719   0.952   2.863 -1.8077 -0.3880  1.5672
 5721TIP3    H217170   2.657   0.818   2.830 -0.5378 -0.4387 -0.7673
 5722TIP3   OH217171   6.332   1.716   1.842 -0.0563  0.6933 -0.3831
 5722TIP3    H117172   6.280   1.786   1.804  0.3103  0.8253 -0.6531
 5722TIP3    H217173   6.388   1.686   1.770  0.1904  0.5076 -0.1192
 5723TIP3   OH217174   0.229   1.487   2.080  0.2090 -0.1173  0.2006
 5723TIP3    H117175   0.199   1.402   2.113  0.6415 -0.8440 -1.1995
 5723TIP3    H217176   0.235   1.475   1.985  2.2302  0.8533  0.1586
 5724TIP3   OH217177   2.515   5.020   0.094 -0.7547 -0.3504  0.0440
 5724TIP3    H117178   2.489   4.942   0.143 -0.3170  0.9004  2.3771
 5724TIP3    H217179   2.454   5.088   0.121  0.8537  0.9469  0.6277
 5725TIP3   OH217180   6.049   0.707   2.370  0.7312  0.1804  0.1583
 5725TIP3    H117181   6.009   0.642   2.311 -0.0101  1.9510 -1.3921
 5725TIP3    H217182   6.045   0.666   2.456 -0.5303 -1.4749 -0.6188
 5726TIP3   OH217183   2.900   1.100   0.951  0.5380 -0.0523 -0.5639
 5726TIP3    H117184   2.983   1.104   0.997  0.0334 -1.1341  0.5149
 5726TIP3    H217185   2.855   1.024   0.990 -0.6833  0.1320 -1.5509
 5727TIP3   OH217186   6.170   3.958   5.035  0.2988  0.0754  0.0784
 5727TIP3    H117187   6.202   3.893   5.099  0.9924  1.2403  0.9595
 5727TIP3    H217188   6.091   3.994   5.076 -1.1599 -1.4513 -1.2402
 5728TIP3   OH217189   4.729   1.489   1.695  0.5547 -0.0609 -0.3400
 5728TIP3    H117190   4.749   1.422   1.761 -0.3924 -1.7837 -1.7305
 5728TIP3    H217191   4.636   1.508   1.707  0.4245 -0.2359 -1.0235
 5729TIP3   OH217192   3.705   5.137   0.053 -0.1606  0.1377  0.5890
 5729TIP3    H117193   3.716   5.224   0.013 -0.9894 -0.2804 -0.6217
 5729TIP3    H217194   3.649   5.153   0.129 -0.8660  0.5877 -0.0093
 5730TIP3   OH217195   2.480   1.529   4.623  0.4286  0.1101 -0.6583
 5730TIP3    H117196   2.436   1.460   4.573 -2.7300  0.8698  0.8314
 5730TIP3    H217197   2.451   1.611   4.584  0.7587  0.6631  0.2148
 5731TIP3   OH217198   4.977   0.317   5.156  0.0635 -0.3409 -0.2333
 5731TIP3    H117199   5.002   0.366   5.078 -0.5288 -0.3248 -0.4165
 5731TIP3    H217200   4.936   0.237   5.123 -1.2189  0.1761  0.0303
 5732TIP3   OH217201   1.177   5.666   0.608 -0.3592 -0.5544  0.4376
 5732TIP3    H117202   1.108   5.621   0.558  1.4970 -0.1318 -2.7967
 5732TIP3    H217203   1.150   5.758   0.608  1.3220  0.1305 -3.3679
 5733TIP3   OH217204   2.611   0.573   1.515 -0.3064  0.2925 -0.0342
 5733TIP3    H117205   2.537   0.515   1.534 -0.3421  0.1796 -0.5058
 5733TIP3    H217206   2.667   0.566   1.592  0.1153 -1.0375 -0.4462
 5734TIP3   OH217207   4.995   0.112   0.190 -0.2273  0.0191  0.6689
 5734TIP3    H117208   4.955   0.027   0.173 -0.0215  0.0584 -0.0589
 5734TIP3    H217209   5.074   0.113   0.135 -0.1855  0.6422  0.7314
 5735TIP3   OH217210   1.574   5.575   3.422 -0.0098  0.3062  0.1725
 5735TIP3    H117211   1.648   5.531   3.464  2.6371  0.1835 -4.0058
 5735TIP3    H217212   1.504   5.509   3.420  0.9725 -0.7934  1.2282
 5736TIP3   OH217213   5.798   4.121   1.895 -0.1528  0.4657  0.2079
 5736TIP3    H117214   5.816   4.194   1.836 -0.1440  0.6298  0.4155
 5736TIP3    H217215   5.727   4.073   1.852 -0.6718  1.0151  0.4435
 5737TIP3   OH217216   6.185   4.588   2.225 -0.6882 -0.1222 -0.3684
 5737TIP3    H117217   6.205   4.506   2.179 -0.8916 -0.6422  0.4519
 5737TIP3    H217218   6.125   4.563   2.294  0.0978  0.5324  0.5847
 5738TIP3   OH217219   6.266   3.544   0.732 -0.5506 -0.0034 -0.2551
 5738TIP3    H117220   6.350   3.576   0.699 -0.5246 -0.4625 -0.6452
 5738TIP3    H217221   6.201   3.588   0.678 -0.4733 -1.9930 -2.1127
 5739TIP3   OH217222   0.774   5.300   3.967 -0.7012 -0.9754  0.4029
 5739TIP3    H117223   0.737   5.235   3.907 -0.8610 -0.7984  0.3087
 5739TIP3    H217224   0.733   5.280   4.051 -1.6009 -0.3065  0.1418
 5740TIP3   OH217225   2.361   4.856   1.921 -0.1329 -0.2507 -0.3763
 5740TIP3    H117226   2.341   4.804   1.999  0.1309  0.7252  0.3785
 5740TIP3    H217227   2.434   4.912   1.949 -0.7687  0.9086 -0.9510
 5741TIP3   OH217228   3.937   0.665   3.945 -0.0876 -0.3000 -0.5315
 5741TIP3    H117229   4.025   0.703   3.946  0.4171 -1.4354 -0.6587
 5741TIP3    H217230   3.941   0.597   3.877 -0.0545 -2.6742  1.7058
 5742TIP3   OH217231   4.518   1.890   5.159 -0.6899 -0.0697  0.7434
 5742TIP3    H117232   4.552   1.802   5.179 -1.3953 -0.7866 -0.9617
 5742TIP3    H217233   4.596   1.945   5.151 -0.1653 -0.8018  0.7185
 5743TIP3   OH217234   5.866   3.547   2.090  0.5485  0.1803  0.1709
 5743TIP3    H117235   5.934   3.500   2.139 -0.2830 -1.8837 -0.5525
 5743TIP3    H217236   5.915   3.605   2.032  1.6510 -0.2246  0.6507
 5744TIP3   OH217237   1.603   5.270   3.786  0.1951  0.1336 -0.3997
 5744TIP3    H117238   1.658   5.270   3.708  0.2939  0.3034 -0.3306
 5744TIP3    H217239   1.522   5.227   3.758  0.4079 -0.2313 -0.4653
 5745TIP3   OH217240   4.933   4.316   0.444 -0.4643  0.4629  0.1497
 5745TIP3    H117241   5.007   4.334   0.503 -0.0766  0.2987 -0.2808
 5745TIP3    H217242   4.892   4.238   0.481 -1.3755  1.4391  1.2821
 5746TIP3   OH217243   3.058   5.801   1.718 -0.0921 -0.3564  0.1739
 5746TIP3    H117244   3.104   5.730   1.762 -0.8146 -1.7654 -1.2632
 5746TIP3    H217245   3.116   5.877   1.727  0.9617 -1.2488  1.2240
 5747TIP3   OH217246   6.016   3.057   2.249 -0.5889 -0.5288  0.4192
 5747TIP3    H117247   5.957   3.112   2.198  0.8208  0.2644 -0.4360
 5747TIP3    H217248   6.079   3.118   2.287  1.9846 -1.5585 -1.8380
 5748TIP3   OH217249   1.475   5.818   3.387  0.3495  0.0581 -0.7535
 5748TIP3    H117250   1.381   5.800   3.394  0.1789  1.2045  0.4006
 5748TIP3    H217251   1.516   5.732   3.386 -0.6404 -0.4547  0.4453
 5749TIP3   OH217252   3.738   2.875   2.521 -0.0005 -0.3978 -0.4367
 5749TIP3    H117253   3.731   2.787   2.557  0.0593 -0.2022  0.0486
 5749TIP3    H217254   3.831   2.887   2.503  0.0416 -0.2844 -0.1364
 5750TIP3   OH217255   0.943   3.025   1.754 -0.4382  0.2342 -0.7036
 5750TIP3    H117256   0.879   3.044   1.686 -0.9252  1.9528  0.1783
 5750TIP3    H217257   0.897   2.968   1.815 -0.6721  0.3348 -0.7839
 5751TIP3   OH217258   3.852   3.369   4.848 -0.3207 -0.0579  0.1400
 5751TIP3    H117259   3.812   3.285   4.872 -1.3035  1.1292  3.2667
 5751TIP3    H217260   3.779   3.421   4.815 -0.5328  0.6383  1.5892
 5752TIP3   OH217261   6.345   3.186   0.371  0.2638  0.0109 -0.6421
 5752TIP3    H117262   6.292   3.244   0.426  0.6626  0.4611 -0.7328
 5752TIP3    H217263   6.283   3.118   0.343  0.3434 -0.9668  1.3999
 5753TIP3   OH217264   3.561   2.563   1.586 -0.1356  0.3996  0.3596
 5753TIP3    H117265   3.568   2.564   1.490 -0.7575  1.9397  0.3006
 5753TIP3    H217266   3.643   2.525   1.615 -0.7366 -2.0523 -0.8074
 5754TIP3   OH217267   5.824   5.668   4.343  0.1114 -0.0027 -0.1493
 5754TIP3    H117268   5.871   5.669   4.260  1.0296  1.8366  0.3273
 5754TIP3    H217269   5.852   5.587   4.386 -0.3355 -0.9510 -1.5676
 5755TIP3   OH217270   2.610   0.634   2.583  0.1304  0.2131  0.2742
 5755TIP3    H117271   2.628   0.543   2.558  1.7434  0.5856 -0.0709
 5755TIP3    H217272   2.641   0.641   2.673 -0.8282  0.2093  0.6151
 5756TIP3   OH217273   5.174   1.440   1.499 -0.0899  0.0179 -0.0440
 5756TIP3    H117274   5.144   1.351   1.476  2.7405 -0.7425 -1.2649
 5756TIP3    H217275   5.196   1.479   1.414  3.0353  0.1253  0.7043
 5757TIP3   OH217276   4.939   3.215   0.934  0.0190 -0.0582  0.3386
 5757TIP3    H117277   4.852   3.196   0.968  0.4349 -2.6564  0.1429
 5757TIP3    H217278   4.925   3.277   0.862 -1.5171  0.4261  1.0292
 5758TIP3   OH217279   2.638   2.200   4.762  0.0622  0.1852 -0.1515
 5758TIP3    H117280   2.546   2.176   4.751  0.0842 -0.0278  0.1056
 5758TIP3    H217281   2.658   2.173   4.852  0.4195  0.0843 -0.2613
 5759TIP3   OH217282   2.132   0.550   2.846  0.3100 -0.1081  0.1049
 5759TIP3    H117283   2.155   0.605   2.771  1.0114 -0.2451  0.2151
 5759TIP3    H217284   2.174   0.592   2.921 -1.0446  0.4784  0.5683
 5760TIP3   OH217285   2.205   3.962   0.673  0.3187  0.0249  0.3211
 5760TIP3    H117286   2.186   4.049   0.707 -0.5922  0.0887 -0.3098
 5760TIP3    H217287   2.293   3.969   0.635  0.4971  0.4979  0.8184
 5761TIP3   OH217288   6.230   0.367   2.443  0.0683  1.0978  0.0192
 5761TIP3    H117289   6.320   0.387   2.471  0.5513 -0.7010 -0.1012
 5761TIP3    H217290   6.235   0.362   2.348 -0.7547  3.4625 -0.2147
 5762TIP3   OH217291   1.415   2.517   0.003 -0.0859  0.6878  0.2216
 5762TIP3    H117292   1.457   2.431   0.006 -0.2604  0.5440 -1.0318
 5762TIP3    H217293   1.353   2.516   0.076  0.2779 -0.0503  0.5285
 5763TIP3   OH217294   6.189   4.708   0.194  0.4216  0.6393  0.6423
 5763TIP3    H117295   6.256   4.656   0.238  1.0546  1.2801  0.4603
 5763TIP3    H217296   6.207   4.695   0.101 -0.8649 -0.6536  0.5389
 5764TIP3   OH217297   4.724   1.302   1.919 -0.4738 -0.4756 -0.1794
 5764TIP3    H117298   4.697   1.226   1.971  0.7163 -1.3713 -0.7958
 5764TIP3    H217299   4.727   1.374   1.981  0.1300 -1.3441  0.8347
 5765TIP3   OH217300   5.586   4.660   2.058 -0.9510  0.4739  0.7296
 5765TIP3    H117301   5.568   4.572   2.091  0.4862 -0.1337 -0.0057
 5765TIP3    H217302   5.521   4.715   2.100 -0.7180 -0.6488  2.6803
 5766TIP3   OH217303   5.108   2.920   4.125 -0.1530  0.2991 -0.0396
 5766TIP3    H117304   5.028   2.931   4.177  0.1658  0.6216  0.3868
 5766TIP3    H217305   5.169   2.875   4.183  0.8175  2.2238  0.5249
 5767TIP3   OH217306   5.258   5.213   4.108 -0.3079  0.4839  0.0163
 5767TIP3    H117307   5.209   5.185   4.186  1.6034 -0.9354  0.7715
 5767TIP3    H217308   5.350   5.205   4.133  0.3827 -0.5675 -2.5630
 5768TIP3   OH217309   2.714   1.773   1.652  0.1792 -0.0476  0.5533
 5768TIP3    H117310   2.623   1.743   1.653 -0.5560  1.9180 -0.7858
 5768TIP3    H217311   2.712   1.856   1.604  2.6550  0.1858  0.6866
 5769TIP3   OH217312   5.047   3.637   3.464 -0.3046  0.0944  0.1552
 5769TIP3    H117313   4.989   3.569   3.496 -0.7360  0.4495  0.1334
 5769TIP3    H217314   5.127   3.626   3.515 -0.4097 -0.3573  0.2252
 5770TIP3   OH217315   3.736   1.127   1.036  0.2846 -0.2281 -0.1773
 5770TIP3    H117316   3.822   1.165   1.055 -0.6560  3.0585 -1.8468
 5770TIP3    H217317   3.739   1.105   0.943 -1.4403  2.4851 -0.9737
 5771TIP3   OH217318   5.848   0.893   2.038  0.6515  0.5650 -0.2960
 5771TIP3    H117319   5.860   0.810   1.992  0.6563  0.1303  0.4781
 5771TIP3    H217320   5.773   0.878   2.095  0.6506  1.0956 -0.1526
 5772TIP3   OH217321   0.447   3.315   3.480 -0.2221  0.5374  0.2511
 5772TIP3    H117322   0.461   3.409   3.473 -0.5859  0.5102 -1.0500
 5772TIP3    H217323   0.529   3.276   3.450 -0.2053  0.4411  0.4224
 5773TIP3   OH217324   2.316   2.232   4.173 -0.0415  0.2922  0.2025
 5773TIP3    H117325   2.317   2.322   4.203  0.2454  0.1095  0.7549
 5773TIP3    H217326   2.394   2.225   4.117 -0.2743  0.4879 -0.1448
 5774TIP3   OH217327   6.087   2.486   1.325 -0.1441  0.1579  0.3011
 5774TIP3    H117328   6.054   2.480   1.235  0.3113 -2.1650  0.2311
 5774TIP3    H217329   6.009   2.500   1.378 -0.6276 -0.2099 -0.2975
 5775TIP3   OH217330   3.544   1.897   2.710 -0.0268  0.0488  0.4924
 5775TIP3    H117331   3.498   1.977   2.735 -1.5193 -1.1160  1.6565
 5775TIP3    H217332   3.611   1.885   2.778  0.3160  0.3985  0.2175
 5776TIP3   OH217333   4.008   1.287   4.285 -0.0574  0.1759 -0.3864
 5776TIP3    H117334   3.966   1.372   4.296  0.1603  0.3576 -0.9385
 5776TIP3    H217335   4.072   1.283   4.357 -0.8957 -0.0380  0.3634
 5777TIP3   OH217336   1.480   3.418   0.308 -0.4484  0.4767 -0.2559
 5777TIP3    H117337   1.462   3.350   0.243 -1.0767  0.7962 -0.4285
 5777TIP3    H217338   1.575   3.418   0.318 -0.5430 -1.6805  1.1082
 5778TIP3   OH217339   1.930   1.558   3.241 -0.2541 -0.4132 -0.1272
 5778TIP3    H117340   1.946   1.466   3.261 -2.1749 -0.6676  0.3950
 5778TIP3    H217341   1.939   1.564   3.146 -0.1983 -1.1373 -0.1725
 5779TIP3   OH217342   0.300   5.355   4.090 -1.3011 -0.1129 -0.1507
 5779TIP3    H117343   0.277   5.265   4.110  0.0076 -0.3318  0.4714
 5779TIP3    H217344   0.371   5.376   4.151  0.6512  0.2598 -2.4107
 5780TIP3   OH217345   0.414   0.394   3.785 -0.3990  0.3950 -0.0585
 5780TIP3    H117346   0.457   0.458   3.842 -0.7743 -0.4421  1.2069
 5780TIP3    H217347   0.365   0.447   3.722 -0.3422  1.3491  0.6734
 5781TIP3   OH217348   4.386   3.196   0.190 -0.1026  0.2938 -0.0147
 5781TIP3    H117349   4.398   3.278   0.238 -1.2164  0.2621  0.3535
 5781TIP3    H217350   4.306   3.209   0.140  0.5979  0.0170 -1.2475
 5782TIP3   OH217351   4.748   3.443   1.151  0.0207 -0.1496 -0.2572
 5782TIP3    H117352   4.734   3.349   1.155 -0.2592 -0.1008  0.0068
 5782TIP3    H217353   4.809   3.461   1.223  0.4621 -0.1974 -0.6235
 5783TIP3   OH217354   0.692   4.041   1.423 -0.4394  0.3404  0.3224
 5783TIP3    H117355   0.767   4.000   1.380 -1.3491 -0.2291 -0.7804
 5783TIP3    H217356   0.704   4.022   1.516  1.1916  0.9747  0.2687
 5784TIP3   OH217357   3.233   0.662   3.918 -0.1507  0.1561  0.2523
 5784TIP3    H117358   3.298   0.641   3.850 -1.8164  2.7568 -2.3598
 5784TIP3    H217359   3.164   0.597   3.906  0.1147 -0.1328  0.2830
 5785TIP3   OH217360   5.403   0.718   0.132 -0.4030 -0.2431 -0.3249
 5785TIP3    H117361   5.457   0.797   0.138 -0.4630 -0.2125 -0.1978
 5785TIP3    H217362   5.459   0.648   0.166 -0.0360 -0.4042 -1.2397
 5786TIP3   OH217363   6.082   0.144   1.450 -0.0504  0.2375 -0.0569
 5786TIP3    H117364   6.042   0.089   1.517  1.1288 -0.3516  0.1798
 5786TIP3    H217365   6.137   0.205   1.499  0.4300  0.1251 -0.4505
 5787TIP3   OH217366   4.032   5.451   3.544  0.0705  0.5370 -0.0602
 5787TIP3    H117367   4.030   5.409   3.458 -1.7787  0.5295 -0.0538
 5787TIP3    H217368   4.047   5.544   3.524 -0.2360  0.5185 -0.3976
 5788TIP3   OH217369   3.240   0.515   2.606 -0.1155 -0.4651  0.5756
 5788TIP3    H117370   3.221   0.441   2.663  1.3669 -0.8900  0.5785
 5788TIP3    H217371   3.297   0.572   2.658  0.6000 -0.4618 -0.1756
 5789TIP3   OH217372   0.555   2.345   3.292 -0.1532 -0.7521  0.0047
 5789TIP3    H117373   0.583   2.436   3.286  0.7947 -1.0257  0.1726
 5789TIP3    H217374   0.595   2.313   3.373 -0.6668 -1.2573  0.0651
 5790TIP3   OH217375   4.003   1.021   2.581 -0.3395 -0.1578  0.4023
 5790TIP3    H117376   3.977   1.110   2.557 -2.4589 -1.1773 -1.4138
 5790TIP3    H217377   3.946   0.998   2.654 -0.0842 -0.1978  0.5927
 5791TIP3   OH217378   3.191   0.314   4.093  0.5992  0.3874  0.0513
 5791TIP3    H117379   3.193   0.246   4.161 -1.8885 -0.1555 -0.3205
 5791TIP3    H217380   3.159   0.392   4.137 -0.3362  0.2195 -0.2836
 5792TIP3   OH217381   5.388   3.611   1.470  0.5679 -0.0519 -0.0768
 5792TIP3    H117382   5.380   3.518   1.491  1.5359  0.1446  1.3201
 5792TIP3    H217383   5.406   3.613   1.376 -0.8362 -1.1766 -0.3962
 5793TIP3   OH217384   0.432   4.318   2.531 -0.2029 -0.0601  0.0699
 5793TIP3    H117385   0.415   4.232   2.492  0.2610 -0.1413  0.0360
 5793TIP3    H217386   0.524   4.336   2.510 -0.5108  0.8061 -0.6133
 5794TIP3   OH217387   3.795   4.021   2.852 -0.4538  0.3361 -0.4629
 5794TIP3    H117388   3.882   4.026   2.814  0.0492 -0.2706  0.5820
 5794TIP3    H217389   3.770   3.929   2.844  0.6580 -0.3560  2.7367
 5795TIP3   OH217390   6.175   5.719   4.082  0.5938  0.4881 -0.4199
 5795TIP3    H117391   6.247   5.713   4.019  1.6243 -0.7591  0.8354
 5795TIP3    H217392   6.210   5.683   4.163 -1.3016  0.2898  0.3628
 5796TIP3   OH217393   2.315   0.087   0.985  0.0315 -0.0300  0.3132
 5796TIP3    H117394   2.296   0.168   1.032 -0.4638 -0.0277  0.1153
 5796TIP3    H217395   2.282   0.017   1.042  1.0678 -0.1449  0.7979
 5797TIP3   OH217396   5.067   3.169   0.464 -0.1188 -0.4378  0.5238
 5797TIP3    H117397   5.058   3.249   0.412  2.1778 -1.3666 -1.4920
 5797TIP3    H217398   5.057   3.098   0.401 -0.4961 -1.7216  1.9751
 5798TIP3   OH217399   6.281   0.728   0.586  0.3515  0.3526  0.0318
 5798TIP3    H117400   6.234   0.790   0.531 -2.8454  0.4811  2.6012
 5798TIP3    H217401   6.313   0.780   0.660 -1.1228 -0.6798  1.4887
 5799TIP3   OH217402   3.254   5.796   0.871 -0.0629 -0.0211  0.2957
 5799TIP3    H117403   3.169   5.753   0.859 -0.0160  0.5985 -3.8987
 5799TIP3    H217404   3.315   5.725   0.892 -1.1765 -0.8443  0.8379
 5800TIP3   OH217405   3.891   3.031   4.634 -0.0347  1.1490 -0.5312
 5800TIP3    H117406   3.916   2.999   4.547 -0.2821 -1.6459  0.3270
 5800TIP3    H217407   3.797   3.045   4.628 -0.0763  0.8192 -0.6881
 5801TIP3   OH217408   5.847   4.016   4.491 -0.5676 -0.3553  0.2602
 5801TIP3    H117409   5.854   3.941   4.432 -0.3829  0.0759 -0.2783
 5801TIP3    H217410   5.925   4.012   4.546 -0.2889 -0.2624 -0.1260
 5802TIP3   OH217411   1.269   2.374   0.982 -0.0854 -0.1438 -0.5385
 5802TIP3    H117412   1.265   2.407   1.071 -1.6219  2.4037 -1.4119
 5802TIP3    H217413   1.205   2.303   0.980  2.0343 -2.2506  0.9848
 5803TIP3   OH217414   0.694   4.247   4.422 -0.2417  0.0454  0.3129
 5803TIP3    H117415   0.646   4.210   4.348 -0.2817 -0.1022  0.4119
 5803TIP3    H217416   0.715   4.337   4.394 -1.2735  0.3890  0.5780
 5804TIP3   OH217417   3.473   2.997   3.619 -0.8744  0.1525  0.2816
 5804TIP3    H117418   3.394   3.009   3.672 -0.8273  0.1545  0.3530
 5804TIP3    H217419   3.544   3.030   3.675 -0.4597 -2.3335  1.3606
 5805TIP3   OH217420   5.425   2.791   1.331  0.1524  0.0631 -0.2631
 5805TIP3    H117421   5.389   2.841   1.405 -0.5159 -1.7055  0.6767
 5805TIP3    H217422   5.389   2.703   1.343  0.5784 -0.4292 -2.3497
 5806TIP3   OH217423   0.395   0.065   1.361 -0.1455  0.9600  0.3436
 5806TIP3    H117424   0.432   0.085   1.275  0.8955  0.9737  0.7733
 5806TIP3    H217425   0.389  -0.031   1.362 -0.0738  0.9544  0.2900
 5807TIP3   OH217426   2.863   1.337   3.679 -0.7566  0.5291 -0.2941
 5807TIP3    H117427   2.865   1.428   3.651  0.4802  1.2211  1.7885
 5807TIP3    H217428   2.954   1.310   3.681 -1.0575 -0.5496 -0.2724
 5808TIP3   OH217429   0.835   0.704   1.923 -0.3831  0.1989  0.2632
 5808TIP3    H117430   0.799   0.618   1.944 -1.7661  0.5318 -0.5649
 5808TIP3    H217431   0.833   0.708   1.828  4.1518 -0.6306 -0.0526
 5809TIP3   OH217432   3.406   1.648   3.895 -0.5750 -0.0335 -0.3318
 5809TIP3    H117433   3.329   1.592   3.900 -0.7063  0.2538  2.0568
 5809TIP3    H217434   3.480   1.588   3.894 -0.7469 -0.3250  1.2958
 5810TIP3   OH217435   6.176   1.079   2.265  0.7970 -0.0513  0.0231
 5810TIP3    H117436   6.152   1.011   2.202 -1.3152  2.2274 -1.8598
 5810TIP3    H217437   6.152   1.161   2.222  1.2791  1.8017  2.9834
 5811TIP3   OH217438   0.604   3.854   1.949  0.3580 -0.5239  0.3422
 5811TIP3    H117439   0.574   3.763   1.951  0.0712 -0.4803 -0.8517
 5811TIP3    H217440   0.619   3.877   2.040 -1.0327 -1.2931  0.7850
 5812TIP3   OH217441   6.117   3.140   1.948  0.2052  0.1235  0.1726
 5812TIP3    H117442   6.046   3.076   1.954  1.0743 -0.7627  1.2674
 5812TIP3    H217443   6.169   3.126   2.027  2.2964 -0.1055 -1.1666
 5813TIP3   OH217444   5.920   3.374   2.609  0.2450 -0.2863 -0.0286
 5813TIP3    H117445   5.863   3.349   2.535  1.1828  0.6195 -1.0955
 5813TIP3    H217446   5.956   3.291   2.639 -0.0404 -0.6643 -0.6869
 5814TIP3   OH217447   1.405   0.319   4.664  0.5446  0.2325 -0.0951
 5814TIP3    H117448   1.346   0.344   4.593  0.1227  1.0374  0.5178
 5814TIP3    H217449   1.403   0.223   4.664  0.4580  0.2202 -1.0812
 5815TIP3   OH217450   0.336   5.138   1.907  0.3185  0.3983 -0.1378
 5815TIP3    H117451   0.422   5.132   1.864 -0.0906  0.3492 -0.9663
 5815TIP3    H217452   0.284   5.192   1.849 -0.7040 -0.9058 -0.4847
 5816TIP3   OH217453   1.271   0.636   4.308  0.6179  0.2479 -0.0105
 5816TIP3    H117454   1.178   0.615   4.317  0.1123  0.8218 -2.7621
 5816TIP3    H217455   1.314   0.552   4.294  0.1103  0.1402 -1.0516
 5817TIP3   OH217456   2.700   2.091   3.121 -0.8472 -0.3093  0.3806
 5817TIP3    H117457   2.606   2.073   3.127 -0.7553 -1.7245 -1.4389
 5817TIP3    H217458   2.708   2.153   3.049 -0.5317  1.6621  2.0362
 5818TIP3   OH217459   0.456   4.011   0.897 -0.1496 -0.3000 -0.2242
 5818TIP3    H117460   0.391   3.942   0.914  1.2978 -2.0065 -1.2396
 5818TIP3    H217461   0.482   4.042   0.984 -2.3805  0.5411  0.2017
 5819TIP3   OH217462   1.807   4.903   4.206 -0.3504  0.4217  0.0344
 5819TIP3    H117463   1.843   4.816   4.224  0.0693  0.2843 -1.3030
 5819TIP3    H217464   1.770   4.932   4.289 -0.2015 -0.8956  0.5841
 5820TIP3   OH217465   4.909   4.762   1.577  0.6297 -0.1270  0.1455
 5820TIP3    H117466   4.931   4.840   1.627  2.3038 -0.5918  0.1954
 5820TIP3    H217467   4.977   4.756   1.509  0.3551 -1.3497 -0.0571
 5821TIP3   OH217468   3.907   1.450   3.991  0.5578  0.2085  0.0190
 5821TIP3    H117469   3.883   1.503   4.067  1.2709  3.6308 -1.9335
 5821TIP3    H217470   4.002   1.446   3.993  0.5511 -0.2647 -0.3236
 5822TIP3   OH217471   3.406   3.267   1.335  0.1437 -0.0977  0.0543
 5822TIP3    H117472   3.316   3.294   1.358  0.3957  0.8129  0.0251
 5822TIP3    H217473   3.453   3.350   1.326  0.9260 -0.5684 -0.1945
 5823TIP3   OH217474   3.755   5.705   1.710  0.1564 -0.1237 -0.1634
 5823TIP3    H117475   3.828   5.765   1.694  1.2177 -1.6939 -1.5381
 5823TIP3    H217476   3.703   5.710   1.630 -0.8025  0.3553  0.4778
 5824TIP3   OH217477   3.594   3.689   1.476 -0.1094  0.3291  0.2062
 5824TIP3    H117478   3.660   3.730   1.532  0.8818 -0.3702 -0.4409
 5824TIP3    H217479   3.614   3.596   1.478 -2.6896 -0.3290  2.1247
 5825TIP3   OH217480   1.504   0.567   0.963  0.6775  0.0270  0.2338
 5825TIP3    H117481   1.579   0.555   1.022  1.0587  0.8415 -0.0760
 5825TIP3    H217482   1.460   0.645   0.996 -0.1388 -0.5245  0.4997
 5826TIP3   OH217483   0.852   0.750   1.372  0.6288  0.0227  0.3096
 5826TIP3    H117484   0.856   0.842   1.347  0.7343 -0.5449 -1.9440
 5826TIP3    H217485   0.758   0.730   1.376  0.6127  0.0841  0.2258
 5827TIP3   OH217486   5.613   5.820   3.192 -0.1886  0.5645 -0.1631
 5827TIP3    H117487   5.615   5.747   3.254  1.6622 -0.4913 -1.3732
 5827TIP3    H217488   5.652   5.893   3.239 -1.8174  0.7717  0.9700
 5828TIP3   OH217489   2.272   2.452   4.878 -0.5319  0.0875 -0.4635
 5828TIP3    H117490   2.275   2.358   4.857 -0.4083  0.0222 -0.1580
 5828TIP3    H217491   2.317   2.459   4.962  1.5200  0.7138 -1.5430
 5829TIP3   OH217492   6.039   1.992   4.190 -0.8193  0.1458 -0.1168
 5829TIP3    H117493   6.012   2.084   4.186  0.4128  0.5325  0.0813
 5829TIP3    H217494   6.033   1.970   4.283 -0.4685  0.2318 -0.0728
 5830TIP3   OH217495   4.027   1.007   3.364  0.0437  0.0063 -0.0829
 5830TIP3    H117496   3.973   1.078   3.329  0.2816 -0.6817 -1.9474
 5830TIP3    H217497   4.117   1.032   3.342  0.1834 -0.5616 -0.1690
 5831TIP3   OH217498   3.141   2.218   4.992 -0.9740  0.4888 -0.1379
 5831TIP3    H117499   3.108   2.282   5.054 -1.6382  0.1752 -0.1616
 5831TIP3    H217500   3.136   2.134   5.038 -0.5139  0.3908 -0.2578
 5832TIP3   OH217501   1.965   2.986   0.294 -0.2812  0.7111 -0.1922
 5832TIP3    H117502   1.901   2.922   0.326  0.0780  0.4048 -0.0709
 5832TIP3    H217503   1.974   2.965   0.201  1.6425 -1.0646  0.2954
 5833TIP3   OH217504   3.166   0.490   3.464  0.2665 -0.3163  0.3953
 5833TIP3    H117505   3.090   0.541   3.493 -1.2537 -1.9882 -0.4082
 5833TIP3    H217506   3.136   0.446   3.384  1.9569 -1.3625  0.2813
 5834TIP3   OH217507   4.404   2.220   3.942 -0.4177  0.7647 -0.0112
 5834TIP3    H117508   4.331   2.163   3.916 -0.5728  1.2635 -0.6942
 5834TIP3    H217509   4.376   2.257   4.026 -0.2414 -0.2808  0.5254
 5835TIP3   OH217510   4.394   0.315   0.682 -0.2126  0.1261  0.4691
 5835TIP3    H117511   4.456   0.251   0.717  2.5894  0.3009 -3.5363
 5835TIP3    H217512   4.392   0.385   0.748  1.7557 -1.1192  1.9772
 5836TIP3   OH217513   2.421   4.529   3.197  0.0006 -0.6375  0.0146
 5836TIP3    H117514   2.441   4.608   3.147 -0.8680  0.1322  0.8476
 5836TIP3    H217515   2.421   4.557   3.288  0.6876 -1.8361  0.4066
 5837TIP3   OH217516   2.124   1.898   2.363  0.5577 -0.1709 -0.3201
 5837TIP3    H117517   2.154   1.886   2.273 -0.5230  4.2603 -1.5292
 5837TIP3    H217518   2.037   1.859   2.365  0.1337  0.6492 -1.6000
 5838TIP3   OH217519   2.995   2.449   0.677  0.1202  0.1682  0.4656
 5838TIP3    H117520   2.934   2.383   0.710 -0.1785  0.6783  0.9580
 5838TIP3    H217521   3.032   2.489   0.756  0.5812  0.3287  0.1717
 5839TIP3   OH217522   4.646   4.342   1.106 -0.0451 -0.7797 -0.0546
 5839TIP3    H117523   4.650   4.428   1.147 -0.9479 -1.5889  1.8337
 5839TIP3    H217524   4.556   4.312   1.120  0.5420 -2.4881  0.3388
 5840TIP3   OH217525   3.718   2.055   0.330 -0.5513 -0.6649 -0.2516
 5840TIP3    H117526   3.701   2.001   0.253 -0.4579  0.9474 -1.4428
 5840TIP3    H217527   3.668   2.135   0.315  1.6754  0.8522 -0.0005
 5841TIP3   OH217528   2.193   2.382   1.994 -0.5372  0.0537  0.6760
 5841TIP3    H117529   2.210   2.421   2.080  0.6293  1.8536 -0.2891
 5841TIP3    H217530   2.154   2.297   2.013 -0.5299  0.4974  2.9711
 5842TIP3   OH217531   0.477   5.702   2.728 -0.2500 -0.0642  0.2910
 5842TIP3    H117532   0.488   5.793   2.700 -1.7709  0.4618  1.2885
 5842TIP3    H217533   0.512   5.650   2.655 -1.1261  1.2913 -1.1620
 5843TIP3   OH217534   3.516   1.327   0.886  0.1858 -0.6411  0.3040
 5843TIP3    H117535   3.574   1.309   0.812 -0.8677 -1.2107 -0.4137
 5843TIP3    H217536   3.566   1.388   0.941  1.8653 -1.8944  0.2586
 5844TIP3   OH217537   4.232   2.359   2.374 -0.3313 -0.1624  0.0088
 5844TIP3    H117538   4.219   2.391   2.285 -0.6502 -0.8713 -0.2133
 5844TIP3    H217539   4.273   2.431   2.420  0.2494  0.0585 -0.8321
 5845TIP3   OH217540   2.048   4.311   3.044  0.2936 -0.4611 -0.1119
 5845TIP3    H117541   2.023   4.223   3.017  2.1272 -1.5711  1.5697
 5845TIP3    H217542   2.134   4.325   3.006  0.1162  0.5433 -0.1817
 5846TIP3   OH217543   3.725   3.313   1.900  0.1696 -0.2584 -0.2962
 5846TIP3    H117544   3.734   3.229   1.855  0.1620 -0.1748 -0.4559
 5846TIP3    H217545   3.709   3.290   1.991 -1.9896 -0.5028 -0.6830
 5847TIP3   OH217546   3.660   4.007   1.378 -0.2158  0.2465  0.0423
 5847TIP3    H117547   3.648   4.087   1.429 -0.0164  0.0718  0.3645
 5847TIP3    H217548   3.723   3.955   1.428  2.3955  1.3925 -1.8657
 5848TIP3   OH217549   5.061   4.534   4.754 -0.4339 -0.6664 -0.9162
 5848TIP3    H117550   5.036   4.459   4.700 -3.6930 -0.4093  0.0194
 5848TIP3    H217551   4.984   4.590   4.754  0.2678  0.4947  2.0643
 5849TIP3   OH217552   2.323   4.579   4.022  0.3965  0.5250 -0.1519
 5849TIP3    H117553   2.365   4.577   3.936  1.5839 -0.0648  0.4209
 5849TIP3    H217554   2.249   4.638   4.011  0.0705 -0.1180 -1.7866
 5850TIP3   OH217555   2.954   3.520   3.341 -0.0890  0.3768 -0.4059
 5850TIP3    H117556   2.880   3.575   3.319 -1.7387 -0.9702  1.4515
 5850TIP3    H217557   2.918   3.431   3.343  1.8666 -0.4750 -0.6569
 5851TIP3   OH217558   1.837   4.496   1.518  0.0242  0.2513  0.1319
 5851TIP3    H117559   1.866   4.430   1.455  0.2783  0.0788  0.4270
 5851TIP3    H217560   1.841   4.452   1.603  1.9775  1.1806  0.5702
 5852TIP3   OH217561   2.528   0.885   3.230 -0.1452 -0.2111  0.0440
 5852TIP3    H117562   2.601   0.938   3.261  0.1033 -0.1323 -0.6662
 5852TIP3    H217563   2.473   0.873   3.307  0.9667 -0.8526  0.7634
 5853TIP3   OH217564   4.027   4.457   2.258  0.8113  0.1489  0.0038
 5853TIP3    H117565   4.001   4.365   2.264  1.8200 -0.0983  0.8361
 5853TIP3    H217566   4.087   4.470   2.332  1.2641  1.2777 -0.5376
 5854TIP3   OH217567   0.402   2.713   4.875  0.1566  0.6875  0.4828
 5854TIP3    H117568   0.417   2.797   4.918  0.2530  0.4878  0.8404
 5854TIP3    H217569   0.490   2.678   4.860  0.1116 -0.5511  2.7067
 5855TIP3   OH217570   1.870   0.339   3.330  0.1926 -0.0769  0.2050
 5855TIP3    H117571   1.812   0.387   3.271 -0.3721 -1.3295 -0.3040
 5855TIP3    H217572   1.830   0.347   3.416 -0.1305  0.0030  0.0472
 5856TIP3   OH217573   2.732   2.762   1.796  0.1477 -0.5882 -0.1745
 5856TIP3    H117574   2.713   2.679   1.839 -1.8114  0.4969  1.1861
 5856TIP3    H217575   2.652   2.785   1.749  1.2104 -0.2285 -1.9296
 5857TIP3   OH217576   3.508   0.098   2.852  0.3648  0.2027 -1.0667
 5857TIP3    H117577   3.586   0.046   2.831 -0.0323 -0.2823 -1.3721
 5857TIP3    H217578   3.441   0.032   2.872  0.1228  0.6211 -0.4802
 5858TIP3   OH217579   1.596   2.849   4.351  0.4375 -0.7794  0.1441
 5858TIP3    H117580   1.675   2.833   4.299 -0.2973 -0.6213 -1.0687
 5858TIP3    H217581   1.608   2.797   4.430  0.1711 -3.7790 -1.6222
 5859TIP3   OH217582   5.118   4.001   0.184 -0.2927  0.0278  0.5534
 5859TIP3    H117583   5.209   4.029   0.195 -1.1386  2.8578  1.1253
 5859TIP3    H217584   5.085   3.991   0.273 -0.7216 -0.4050  0.3513
 5860TIP3   OH217585   5.412   1.292   1.466 -0.8043 -0.3638  1.0216
 5860TIP3    H117586   5.492   1.283   1.414  0.2516 -3.5539  2.9367
 5860TIP3    H217587   5.426   1.372   1.516  0.4418 -0.0062  0.1613
 5861TIP3   OH217588   3.421   1.460   5.157  0.9617  0.4046  0.1809
 5861TIP3    H117589   3.496   1.450   5.099 -0.0538 -1.8871 -0.8356
 5861TIP3    H217590   3.397   1.553   5.149  0.9788  0.2418 -2.9516
 5862TIP3   OH217591   0.188   2.080   2.569  0.1878 -0.3185 -0.1415
 5862TIP3    H117592   0.171   2.027   2.490 -0.5223  1.9011 -1.5893
 5862TIP3    H217593   0.154   2.167   2.546 -2.7542 -0.2118  3.6740
 5863TIP3   OH217594   5.838   2.774   0.378 -0.3090 -0.4425 -0.1653
 5863TIP3    H117595   5.894   2.713   0.426 -1.8608 -0.4364  1.8196
 5863TIP3    H217596   5.874   2.860   0.400  0.2174 -0.5100 -0.7245
 5864TIP3   OH217597   0.081   1.788   4.469  0.7157  0.9553  0.0018
 5864TIP3    H117598   0.116   1.789   4.558 -2.6022  1.6261  1.4470
 5864TIP3    H217599   0.037   1.703   4.462  0.1286  1.3068 -0.6476
 5865TIP3   OH217600   0.193   3.601   2.600 -0.6122 -0.1475  0.5358
 5865TIP3    H117601   0.252   3.585   2.673 -0.2713 -0.6827  0.1458
 5865TIP3    H217602   0.113   3.635   2.641  0.7129  2.7393  0.9049
 5866TIP3   OH217603   6.209   3.222   2.369  0.4843 -0.0478 -0.1469
 5866TIP3    H117604   6.226   3.254   2.457 -0.4366 -0.6371  0.2575
 5866TIP3    H217605   6.293   3.186   2.340  1.0012  0.8698  0.1652
 5867TIP3   OH217606   1.054   5.425   2.970  0.0594  0.6187 -0.3707
 5867TIP3    H117607   1.006   5.427   2.888  0.5232  0.6349 -0.6456
 5867TIP3    H217608   1.144   5.404   2.945 -0.0938 -0.9124  0.2755
 5868TIP3   OH217609   1.904   4.106   0.755  0.2667 -0.4819  0.1324
 5868TIP3    H117610   1.984   4.158   0.768 -1.0414  1.5786  0.3620
 5868TIP3    H217611   1.872   4.134   0.669 -0.2775 -1.2209  0.0920
 5869TIP3   OH217612   6.032   4.242   3.442 -0.1385  0.0327  0.6052
 5869TIP3    H117613   5.998   4.155   3.463  2.3801 -1.0064  0.6838
 5869TIP3    H217614   5.997   4.262   3.355  0.5653 -1.8002 -0.1355
 5870TIP3   OH217615   4.600   1.241   3.031 -0.1079 -0.0837  0.4998
 5870TIP3    H117616   4.566   1.330   3.041 -0.2062  0.1902 -1.7759
 5870TIP3    H217617   4.694   1.253   3.017  0.0751 -0.4431  1.3735
 5871TIP3   OH217618   5.471   3.344   0.513 -0.4904 -0.1379 -0.0648
 5871TIP3    H117619   5.537   3.389   0.461  1.7928 -0.9712  1.9494
 5871TIP3    H217620   5.388   3.379   0.481  0.6978 -0.4818 -4.1119
 5872TIP3   OH217621   5.148   4.958   0.106  0.1353  0.1743 -0.0860
 5872TIP3    H117622   5.153   4.873   0.063  1.0996  0.3656 -0.3786
 5872TIP3    H217623   5.059   4.962   0.141 -0.5212 -0.2043 -1.6127
 5873TIP3   OH217624   5.529   4.294   3.773 -0.4244 -0.1468  0.0018
 5873TIP3    H117625   5.593   4.250   3.830 -1.1524 -0.5925  0.4903
 5873TIP3    H217626   5.573   4.374   3.746  0.2231 -0.2854  0.5969
 5874TIP3   OH217627   2.374   3.162   5.107  0.3503 -0.6690 -0.3028
 5874TIP3    H117628   2.293   3.185   5.062 -0.6995 -0.7777  1.4288
 5874TIP3    H217629   2.354   3.173   5.200  1.2392 -3.8847  0.4158
 5875TIP3   OH217630   2.111   1.745   3.296 -0.2865 -0.2533 -0.1214
 5875TIP3    H117631   2.172   1.728   3.224 -0.6263 -1.9606 -0.0558
 5875TIP3    H217632   2.041   1.681   3.283 -0.9341  0.1947  1.0658
 5876TIP3   OH217633   2.033   3.491   1.012 -0.5326  0.0237  0.2656
 5876TIP3    H117634   2.047   3.411   0.962 -1.1146 -1.9180  2.9715
 5876TIP3    H217635   2.121   3.521   1.035 -0.1854  1.5986 -2.6480
 5877TIP3   OH217636   4.393   1.148   4.829 -0.2900 -0.1273  0.1619
 5877TIP3    H117637   4.328   1.094   4.874 -1.3112  0.3094 -0.7287
 5877TIP3    H217638   4.360   1.238   4.837  2.2314  0.7239  3.0891
 5878TIP3   OH217639   0.888   0.047   2.685  0.8147 -0.4858 -0.0627
 5878TIP3    H117640   0.852  -0.004   2.613  1.2236  1.5371 -1.8058
 5878TIP3    H217641   0.814   0.065   2.742 -0.3086  0.7135 -1.8017
 5879TIP3   OH217642   4.658   3.160   0.971  0.0213  0.3361  0.4000
 5879TIP3    H117643   4.575   3.159   1.018  0.5167 -0.6711  1.3224
 5879TIP3    H217644   4.634   3.160   0.879 -0.9924  0.4381  0.6549
 5880TIP3   OH217645   0.947   0.582   0.418  0.0129  0.3539 -0.4276
 5880TIP3    H117646   1.039   0.574   0.394  0.5057  0.3343  1.3070
 5880TIP3    H217647   0.920   0.666   0.383  0.4204 -0.0397 -1.7328
 5881TIP3   OH217648   2.968   1.644  -0.015  0.0629  0.1791 -0.3251
 5881TIP3    H117649   2.984   1.560  -0.058  0.5876  0.0076  0.1977
 5881TIP3    H217650   2.974   1.624   0.079 -0.2176  0.7182 -0.1934
 5882TIP3   OH217651   4.492   2.610   4.207  0.5293 -0.2244  0.6365
 5882TIP3    H117652   4.580   2.612   4.244  0.6164 -0.7633  0.4712
 5882TIP3    H217653   4.451   2.532   4.246  0.1559 -0.0306  0.6422
 5883TIP3   OH217654   1.263   2.261   3.290 -0.0324 -0.0816  0.8349
 5883TIP3    H117655   1.188   2.272   3.232 -0.3890  0.6432  1.4184
 5883TIP3    H217656   1.240   2.185   3.343  0.1299 -0.5176  0.2915
 5884TIP3   OH217657   2.903   3.804   1.809  0.2485 -0.7289 -0.3736
 5884TIP3    H117658   2.815   3.806   1.771 -0.1200 -0.2410  0.4885
 5884TIP3    H217659   2.901   3.731   1.871  0.9714 -1.7815 -1.5414
 5885TIP3   OH217660   0.766   3.626   3.078 -0.5457 -0.2365 -0.2606
 5885TIP3    H117661   0.789   3.555   3.138 -1.2013 -0.7094 -0.5568
 5885TIP3    H217662   0.758   3.584   2.992 -0.4866  0.2779 -0.5264
 5886TIP3   OH217663   1.031   5.435   2.238 -0.2414  0.1992  0.2254
 5886TIP3    H117664   1.021   5.517   2.286  1.6360  0.6515 -0.0764
 5886TIP3    H217665   0.951   5.427   2.186 -0.6459  1.5996  0.5923
 5887TIP3   OH217666   6.036   3.689   2.868 -0.2104 -0.3761  0.5838
 5887TIP3    H117667   5.998   3.697   2.956  1.6339  0.4781  1.3615
 5887TIP3    H217668   6.113   3.746   2.870 -0.1034 -0.3605 -1.5955
 5888TIP3   OH217669   0.055   0.866   3.678 -0.0108  0.0363  0.6192
 5888TIP3    H117670   0.034   0.803   3.748 -0.0954 -0.5185  0.1017
 5888TIP3    H217671  -0.021   0.863   3.620 -0.4039  1.2794  1.0547
 5889TIP3   OH217672   3.017   1.806   0.988 -0.2379 -0.3140  0.7805
 5889TIP3    H117673   2.922   1.805   1.000 -0.3694  0.0264 -0.1571
 5889TIP3    H217674   3.029   1.826   0.895  0.7465 -0.6693  0.8235
 5890TIP3   OH217675   3.169   1.789   2.427  0.0390 -0.0760  0.4697
 5890TIP3    H117676   3.100   1.853   2.445  0.3412 -0.2645  2.6373
 5890TIP3    H217677   3.133   1.706   2.460  0.8769 -0.3820  0.6328
 5891TIP3   OH217678   4.772   5.499   3.075 -0.2438  0.0688  0.1488
 5891TIP3    H117679   4.819   5.473   2.996  1.5332  0.1652  1.1239
 5891TIP3    H217680   4.715   5.425   3.095 -0.8828  0.1296 -1.3113
 5892TIP3   OH217681   1.784   3.004   1.650  0.3023 -0.2850 -0.2771
 5892TIP3    H117682   1.844   3.010   1.725 -0.6580 -1.6838  0.6570
 5892TIP3    H217683   1.724   3.077   1.661 -0.7027 -1.2921  1.1467
 5893TIP3   OH217684   5.293   0.864   4.141  0.1732 -0.0914 -0.5217
 5893TIP3    H117685   5.209   0.847   4.184  1.3781 -1.5732  1.3701
 5893TIP3    H217686   5.290   0.810   4.062 -1.3222  1.2416 -1.4404
 5894TIP3   OH217687   5.330   2.574   1.936 -0.6940 -0.0760 -0.1126
 5894TIP3    H117688   5.407   2.519   1.921  0.0069  1.2335 -1.5966
 5894TIP3    H217689   5.268   2.545   1.869 -0.6638  0.3286 -0.3159
 5895TIP3   OH217690   0.378   4.688   4.424  0.4591  0.0906  0.0585
 5895TIP3    H117691   0.312   4.620   4.438 -0.1991  0.8119  0.5384
 5895TIP3    H217692   0.451   4.663   4.480  1.5077 -1.8513 -2.0138
 5896TIP3   OH217693   5.275   0.808   5.022 -0.4208  0.3135  0.1319
 5896TIP3    H117694   5.364   0.784   4.993 -0.0031  1.1700  0.6733
 5896TIP3    H217695   5.231   0.837   4.942  0.1495  0.9539  0.0406
 5897TIP3   OH217696   5.313   3.527   2.825 -0.3987  0.2275 -0.7342
 5897TIP3    H117697   5.243   3.532   2.759 -1.5799 -0.9159  0.3879
 5897TIP3    H217698   5.369   3.456   2.796  0.4918  1.3181 -1.7799
 5898TIP3   OH217699   5.039   5.988   1.870  0.2590 -0.2648  0.2271
 5898TIP3    H117700   5.007   5.999   1.781  0.1105  1.8790  0.4969
 5898TIP3    H217701   5.085   5.904   1.869  2.3275  0.7620 -2.5181
 5899TIP3   OH217702   5.787   1.596   0.482 -0.4405  0.1489 -0.1426
 5899TIP3    H117703   5.722   1.528   0.501  0.9408 -0.5111  2.7584
 5899TIP3    H217704   5.744   1.677   0.507 -1.1353  0.0744 -1.0323
 5900TIP3   OH217705   2.536   2.342   4.032  0.1507  0.2122  0.6893
 5900TIP3    H117706   2.556   2.433   4.051 -1.0856  0.3472  1.5047
 5900TIP3    H217707   2.535   2.336   3.937  0.2717  1.0499  0.6320
 5901TIP3   OH217708   5.713   4.111   4.235  0.8058 -0.1174 -0.1109
 5901TIP3    H117709   5.686   4.023   4.262  0.7698 -0.0624  0.0364
 5901TIP3    H217710   5.780   4.136   4.299 -0.4658  0.6824  0.9473
 5902TIP3   OH217711   2.754   3.966   0.330 -0.5951  0.6112 -0.3432
 5902TIP3    H117712   2.799   3.883   0.345 -1.4397  0.3629  0.9629
 5902TIP3    H217713   2.755   4.009   0.415 -0.5773  1.7548 -0.8984
 5903TIP3   OH217714   2.501   3.519   4.582  0.4089 -0.1677  0.0534
 5903TIP3    H117715   2.514   3.449   4.645 -1.4684  0.5536  1.3403
 5903TIP3    H217716   2.452   3.478   4.510  0.5102 -0.4770  0.1621
 5904TIP3   OH217717   0.152   2.138   1.919 -0.3311  0.3368  0.7741
 5904TIP3    H117718   0.078   2.086   1.889 -0.5079  0.8251  0.3626
 5904TIP3    H217719   0.117   2.191   1.991 -0.6554  1.3270 -0.0902
 5905TIP3   OH217720   0.970   3.204   0.623 -0.7553 -0.1791  0.7509
 5905TIP3    H117721   1.005   3.143   0.687 -0.9412  0.1394  1.1604
 5905TIP3    H217722   0.923   3.269   0.675  1.2503  1.5575  0.5205
 5906TIP3   OH217723   3.885   2.481   1.363  0.3234 -0.3002 -0.1333
 5906TIP3    H117724   3.931   2.516   1.287  2.3085  1.4485  1.7351
 5906TIP3    H217725   3.913   2.389   1.368  0.6560 -0.2661 -1.1083
 5907TIP3   OH217726   3.955   2.602   0.035  0.0722 -0.2472 -0.0805
 5907TIP3    H117727   3.880   2.554   0.070  0.3820 -1.1711 -0.6619
 5907TIP3    H217728   3.973   2.669   0.101 -1.0737 -0.1994  0.2041
 5908TIP3   OH217729   1.729   2.114   3.321  0.2165  0.4898 -0.4755
 5908TIP3    H117730   1.638   2.141   3.313  0.1074 -0.0356 -1.1076
 5908TIP3    H217731   1.730   2.023   3.291  0.9335  0.4699 -0.4198
 5909TIP3   OH217732   3.760   1.146   2.135  0.2138  0.3607 -0.1445
 5909TIP3    H117733   3.807   1.228   2.149  1.0895 -0.2182  0.4597
 5909TIP3    H217734   3.829   1.082   2.118 -0.3644 -0.4796  0.5967
 5910TIP3   OH217735   2.246   3.409   0.226 -0.4259 -0.1169  0.1668
 5910TIP3    H117736   2.278   3.458   0.150  0.4503 -0.1318  0.5192
 5910TIP3    H217737   2.167   3.455   0.253 -0.2478  0.4124 -0.2030
 5911TIP3   OH217738   3.780   2.416   0.887 -0.3830  0.2735 -0.5713
 5911TIP3    H117739   3.869   2.391   0.861 -1.1513 -0.2509 -2.9892
 5911TIP3    H217740   3.764   2.367   0.968  1.0509 -0.6553 -0.8069
 5912TIP3   OH217741   4.838   0.061   0.720  0.0975  0.1735 -0.2741
 5912TIP3    H117742   4.865   0.098   0.804 -0.0360 -0.3992  0.0285
 5912TIP3    H217743   4.847   0.133   0.657  1.9540  0.1333 -0.1098
 5913TIP3   OH217744   1.072   5.672   0.238  0.3641 -0.4929 -0.1234
 5913TIP3    H117745   1.002   5.737   0.233  0.9806  0.1358 -0.8170
 5913TIP3    H217746   1.152   5.723   0.233  0.8899 -1.1912  0.8214
 5914TIP3   OH217747   2.144   4.101   3.766  0.4734  0.2607  0.3928
 5914TIP3    H117748   2.177   4.042   3.699  1.0511  0.1520  0.7575
 5914TIP3    H217749   2.136   4.046   3.845  0.9525  0.6381  0.7157
 5915TIP3   OH217750   1.067   3.872   0.090 -0.1351  0.3118  0.2204
 5915TIP3    H117751   1.162   3.882   0.095 -0.2897  2.2645 -0.1781
 5915TIP3    H217752   1.050   3.859  -0.003 -0.2534 -0.4623  0.3385
 5916TIP3   OH217753   5.943   1.317   4.392 -0.4638 -0.7174  0.1863
 5916TIP3    H117754   5.879   1.335   4.324  0.7240 -0.4288 -0.8878
 5916TIP3    H217755   6.004   1.255   4.352  0.3095 -0.4772  0.9535
 5917TIP3   OH217756   3.376   3.286   2.823 -0.0911 -1.2450  0.0875
 5917TIP3    H117757   3.338   3.374   2.824 -0.3165 -1.3404  0.4617
 5917TIP3    H217758   3.377   3.261   2.731  1.4758 -0.2283 -0.2097
 5918TIP3   OH217759   5.455   1.892   2.821  0.3706  0.6222 -0.4927
 5918TIP3    H117760   5.470   1.871   2.913  0.3496  2.2348 -0.0950
 5918TIP3    H217761   5.373   1.848   2.799 -1.7549  3.2944  1.4148
 5919TIP3   OH217762   0.312   4.721   3.575  0.7517  0.0919 -0.3629
 5919TIP3    H117763   0.346   4.809   3.589  1.3040 -0.1855  0.0764
 5919TIP3    H217764   0.350   4.669   3.645  0.9367 -0.6284 -0.9831
 5920TIP3   OH217765   4.223   3.686   1.484  0.3504  0.2955  0.2458
 5920TIP3    H117766   4.177   3.756   1.530 -0.5904 -0.0959 -0.0703
 5920TIP3    H217767   4.238   3.722   1.397  0.7881  0.4807  0.3962
 5921TIP3   OH217768   3.527   2.454   3.442  0.4866  0.6686 -0.2814
 5921TIP3    H117769   3.610   2.424   3.478  0.3185 -0.6314 -0.9148
 5921TIP3    H217770   3.470   2.467   3.518  1.1657  1.2671  0.1287
 5922TIP3   OH217771   3.233   1.540   4.198 -0.8112 -0.0134  0.2045
 5922TIP3    H117772   3.168   1.493   4.250 -2.0054 -0.0299 -1.2464
 5922TIP3    H217773   3.208   1.524   4.107  0.4232  1.1099 -0.3736
 5923TIP3   OH217774   3.283   3.567   0.982  0.1849 -0.0664 -0.3073
 5923TIP3    H117775   3.205   3.515   0.963  0.3370  0.1428 -1.6084
 5923TIP3    H217776   3.293   3.624   0.905  2.3720 -1.0332 -0.8075
 5924TIP3   OH217777   4.106   1.040   0.507 -0.2548 -0.2910 -0.1062
 5924TIP3    H117778   4.150   1.125   0.504  0.7679 -0.8077  0.0676
 5924TIP3    H217779   4.058   1.035   0.424 -1.8141  1.2179  0.6250
 5925TIP3   OH217780   2.595   4.761   1.535 -0.0051  0.6428 -0.2113
 5925TIP3    H117781   2.612   4.745   1.442 -1.0080  1.3163 -0.5304
 5925TIP3    H217782   2.532   4.693   1.559  0.5602  0.2158  0.0966
 5926TIP3   OH217783   5.301   2.717   4.593  0.3054 -1.0183  0.1847
 5926TIP3    H117784   5.274   2.790   4.649  1.6554 -0.4456  0.1386
 5926TIP3    H217785   5.219   2.680   4.561 -0.4572  1.8559 -1.5555
 5927TIP3   OH217786   1.305   4.768   4.639 -0.0820  0.1366  0.0689
 5927TIP3    H117787   1.345   4.798   4.557  2.0578  1.3961  1.4677
 5927TIP3    H217788   1.311   4.672   4.635  1.5360  0.2323 -0.5608
 5928TIP3   OH217789   3.748   0.607   4.671 -0.4281  0.7849 -0.5206
 5928TIP3    H117790   3.803   0.663   4.617  0.8991 -0.5093 -0.5484
 5928TIP3    H217791   3.696   0.556   4.608  0.8332 -0.4367 -0.6225
 5929TIP3   OH217792   6.231   5.214   4.158 -0.3418  0.0228 -0.0649
 5929TIP3    H117793   6.157   5.258   4.202 -0.2256  0.7811 -0.5970
 5929TIP3    H217794   6.287   5.185   4.229 -0.4787  0.6556  0.3117
 5930TIP3   OH217795   2.080   1.846   1.573  0.2964 -0.0541  0.8559
 5930TIP3    H117796   2.029   1.786   1.628 -0.7506  0.2257  0.2026
 5930TIP3    H217797   2.132   1.896   1.636 -0.6377  0.0309  1.5919
 5931TIP3   OH217798   3.182   0.735   1.458 -0.2844 -0.1860  0.2722
 5931TIP3    H117799   3.248   0.778   1.404 -0.0754 -1.1610 -0.2680
 5931TIP3    H217800   3.107   0.794   1.455  1.1823  2.0693  2.6505
 5932TIP3   OH217801   6.288   2.737   3.901  0.0780  0.1241 -0.0883
 5932TIP3    H117802   6.322   2.658   3.859 -0.7840  0.9374 -2.4836
 5932TIP3    H217803   6.202   2.711   3.934 -0.3244  0.0762 -1.1163
 5933TIP3   OH217804   1.513   5.707   4.087 -0.6613 -0.4143 -0.4628
 5933TIP3    H117805   1.469   5.781   4.129 -1.7349 -1.3267  0.0697
 5933TIP3    H217806   1.444   5.642   4.074  0.5863 -2.0444  0.7421
 5934TIP3   OH217807   4.616   3.891   0.478 -0.3270 -0.1723  0.0689
 5934TIP3    H117808   4.539   3.860   0.526  1.0077 -2.4577  0.9341
 5934TIP3    H217809   4.624   3.830   0.404  0.5833  0.0722 -0.0478
 5935TIP3   OH217810   2.348   5.666   0.680 -0.2089 -0.1179 -0.7462
 5935TIP3    H117811   2.257   5.640   0.692 -0.4860  1.3844  0.9090
 5935TIP3    H217812   2.399   5.595   0.719 -0.6987 -0.5914 -0.9615
 5936TIP3   OH217813   5.658   3.154   4.358 -0.4271 -0.2485 -0.2631
 5936TIP3    H117814   5.622   3.236   4.324  0.5583  0.1987 -0.2583
 5936TIP3    H217815   5.741   3.143   4.312  1.6221  1.0407  2.7750
 5937TIP3   OH217816   2.869   2.304   2.014 -0.1109  0.7177  0.1998
 5937TIP3    H117817   2.869   2.276   2.106  2.0305 -0.7787 -0.1710
 5937TIP3    H217818   2.780   2.333   1.998 -1.3128 -1.6074  2.0243
 5938TIP3   OH217819   4.324   2.422   0.200  0.1156  0.2039 -0.1424
 5938TIP3    H117820   4.321   2.415   0.295 -1.1080  0.9498 -0.1078
 5938TIP3    H217821   4.414   2.446   0.180 -0.1311  2.3517  1.0301
 5939TIP3   OH217822   0.061   2.279   2.142  0.2198 -0.1227  0.5588
 5939TIP3    H117823  -0.010   2.339   2.119  1.1088  0.1450 -1.6820
 5939TIP3    H217824   0.019   2.214   2.200 -2.2877 -0.8838 -1.8668
 5940TIP3   OH217825   0.735   0.475   3.135 -0.4137  0.2188 -0.0379
 5940TIP3    H117826   0.739   0.469   3.039  2.7267 -3.1368  0.0892
 5940TIP3    H217827   0.676   0.404   3.161  1.3588 -1.1025  0.5238
 5941TIP3   OH217828   0.214   5.170   0.533  0.5161 -0.1226 -0.1926
 5941TIP3    H117829   0.261   5.114   0.471  0.5037  0.2286 -0.5257
 5941TIP3    H217830   0.174   5.238   0.478  0.7791  0.3857  0.2324
 5942TIP3   OH217831   4.961   1.125   0.307 -0.1605  0.2846 -0.1768
 5942TIP3    H117832   4.989   1.088   0.223 -1.5031 -0.3704 -0.3616
 5942TIP3    H217833   5.042   1.135   0.357  0.6695  0.7820 -1.5847
 5943TIP3   OH217834   2.877   0.077   4.090  0.2623  0.2000 -0.1802
 5943TIP3    H117835   2.828   0.158   4.076 -1.5371 -0.5240  1.4986
 5943TIP3    H217836   2.814   0.007   4.070  1.2337 -0.7874  0.1027
 5944TIP3   OH217837   5.624   0.292   4.943 -0.1806 -0.3799  0.1909
 5944TIP3    H117838   5.676   0.345   5.004 -2.9186  2.0893  0.5748
 5944TIP3    H217839   5.576   0.230   4.999  0.8228 -1.3570  0.0115
 5945TIP3   OH217840   4.677   0.425   1.055  0.1347 -0.1686 -0.2522
 5945TIP3    H117841   4.745   0.392   0.996  0.0473 -0.4233 -0.2128
 5945TIP3    H217842   4.700   0.388   1.141 -0.6958 -1.2182 -0.4544
 5946TIP3   OH217843   3.929   4.567   5.066 -0.3793  0.1118 -0.1363
 5946TIP3    H117844   3.837   4.591   5.077 -0.1805  0.7890  0.1016
 5946TIP3    H217845   3.961   4.555   5.156 -0.1750  0.1152 -0.2077
 5947TIP3   OH217846   5.343   0.955   0.472  0.3868  0.4752 -0.1745
 5947TIP3    H117847   5.378   1.038   0.507 -0.5433  0.4042  0.9919
 5947TIP3    H217848   5.364   0.958   0.379 -0.4769  2.4982 -0.3643
 5948TIP3   OH217849   4.704   0.897   4.362  0.2707 -0.2079  0.8022
 5948TIP3    H117850   4.726   0.819   4.311 -0.8590  0.0149 -0.0713
 5948TIP3    H217851   4.743   0.881   4.448  3.0545 -0.1788 -0.3577
 5949TIP3   OH217852   5.675   1.186   3.164 -0.3768  0.0030  0.0252
 5949TIP3    H117853   5.606   1.250   3.183 -0.2137  0.2972 -0.3516
 5949TIP3    H217854   5.629   1.102   3.162 -0.8528  0.2689 -0.8554
 5950TIP3   OH217855   1.992   3.881   3.244 -0.4570 -0.5569 -0.2439
 5950TIP3    H117856   1.940   3.910   3.170 -0.1029  0.2633 -0.1812
 5950TIP3    H217857   2.029   3.961   3.281 -0.7019 -0.9381  0.8787
 5951TIP3   OH217858   1.424   3.230   4.266 -0.2503  0.2381 -0.3671
 5951TIP3    H117859   1.436   3.154   4.323  1.1972  0.0048 -0.9491
 5951TIP3    H217860   1.349   3.276   4.304 -0.9227 -1.2617  0.2165
 5952TIP3   OH217861   6.297   1.583   1.280 -0.2096 -0.0720 -0.4353
 5952TIP3    H117862   6.264   1.663   1.238  1.3939  0.7654 -0.1496
 5952TIP3    H217863   6.231   1.563   1.346 -0.2082  1.5539  0.1148
 5953TIP3   OH217864   4.352   5.922   1.208 -0.3180  0.1851  0.3632
 5953TIP3    H117865   4.380   5.979   1.135 -1.6077  0.7119  0.2485
 5953TIP3    H217866   4.367   5.975   1.286 -1.5222  0.7106  0.2560
 5954TIP3   OH217867   3.673   0.865   5.108  0.3296 -0.7205 -0.5446
 5954TIP3    H117868   3.659   0.871   5.013 -1.2738 -1.8501 -0.4206
 5954TIP3    H217869   3.676   0.771   5.126  2.3825 -0.5444  0.3324
 5955TIP3   OH217870   2.325   1.473   3.588  0.5224 -0.3941  0.2119
 5955TIP3    H117871   2.257   1.459   3.522  0.2311 -0.5342  0.5366
 5955TIP3    H217872   2.346   1.385   3.620  0.0461 -0.2627  0.9093
 5956TIP3   OH217873   0.248   4.535   2.478  0.1354 -0.2061  0.1451
 5956TIP3    H117874   0.300   4.461   2.509  0.8974  0.9436  1.8051
 5956TIP3    H217875   0.165   4.496   2.451  0.7093 -1.7281  0.4588
 5957TIP3   OH217876   0.163   0.881   2.166 -0.0196 -0.1378  0.1725
 5957TIP3    H117877   0.223   0.903   2.094  3.2367  3.0246  3.4320
 5957TIP3    H217878   0.093   0.946   2.159 -1.0878 -1.3534 -1.3415
 5958TIP3   OH217879   3.911  -0.007   4.383 -0.1221 -0.0074 -0.2109
 5958TIP3    H117880   3.989   0.047   4.398 -0.9859  0.9412  0.9820
 5958TIP3    H217881   3.883   0.016   4.294  0.1096  0.7502 -0.0913
 5959TIP3   OH217882   5.376   5.883   4.701 -0.1396  0.4956 -0.4944
 5959TIP3    H117883   5.317   5.867   4.628 -3.9035  2.1014  1.9193
 5959TIP3    H217884   5.371   5.803   4.754  0.3056  0.4394 -0.5293
 5960TIP3   OH217885   5.668   4.756   0.682 -0.3126  0.4202  0.3509
 5960TIP3    H117886   5.677   4.720   0.594  1.3356 -1.3896  1.1652
 5960TIP3    H217887   5.724   4.834   0.682 -1.6045  1.3734 -0.6250
 5961TIP3   OH217888   6.339   2.883   2.739  0.3698  0.5971  0.1506
 5961TIP3    H117889   6.385   2.966   2.757  1.1400  0.0881  0.6174
 5961TIP3    H217890   6.268   2.881   2.803  1.1562  0.2929  1.0463
 5962TIP3   OH217891   2.357   4.664   4.538  0.1149  0.0837  0.6764
 5962TIP3    H117892   2.444   4.628   4.556  1.6146  3.0085 -0.1556
 5962TIP3    H217893   2.372   4.734   4.475 -2.9889  0.2001 -0.0971
 5963TIP3   OH217894   2.076   4.313   4.077 -0.1291 -0.0924  0.0294
 5963TIP3    H117895   1.995   4.269   4.101  0.5927 -1.9372 -0.6875
 5963TIP3    H217896   2.057   4.406   4.087 -1.2758 -0.5286  3.1266
 5964TIP3   OH217897   3.067   5.634   2.189 -0.6779 -0.2328 -0.1995
 5964TIP3    H117898   2.985   5.679   2.210 -1.6841 -2.4828  1.1070
 5964TIP3    H217899   3.048   5.541   2.205  2.7025 -0.7174  2.2530
 5965TIP3   OH217900   3.085   1.475   2.258 -1.0810  0.4384  0.0679
 5965TIP3    H117901   3.153   1.536   2.229 -1.7629  1.2605  0.1489
 5965TIP3    H217902   3.104   1.393   2.213 -0.1068  0.6952  0.0066
 5966TIP3   OH217903   6.081   1.902   3.713 -0.4975  0.3438  0.2452
 5966TIP3    H117904   6.107   1.944   3.631 -0.2250 -0.2351  0.0277
 5966TIP3    H217905   6.132   1.821   3.715 -0.7189  0.2162  0.8490
 5967TIP3   OH217906   0.666   0.761   4.930 -0.0817 -0.4063  0.2856
 5967TIP3    H117907   0.631   0.695   4.870  0.3818  0.0789 -0.5505
 5967TIP3    H217908   0.639   0.732   5.017 -0.4657 -1.3240 -0.1262
 5968TIP3   OH217909   2.130   0.175   1.325 -0.2821  0.5424  0.1551
 5968TIP3    H117910   2.099   0.232   1.254 -1.6659  0.0921  0.3737
 5968TIP3    H217911   2.054   0.165   1.383 -0.3213 -2.0837 -0.2309
 5969TIP3   OH217912   0.785   4.847   2.946  0.2919 -0.8646 -0.1403
 5969TIP3    H117913   0.800   4.786   3.018  1.7340 -0.2236  0.1435
 5969TIP3    H217914   0.803   4.797   2.867 -0.1392 -1.2465  0.0005
 5970TIP3   OH217915   3.067   5.596   0.235 -0.2659 -0.0617 -0.6882
 5970TIP3    H117916   3.019   5.571   0.314 -0.7736  1.0602 -0.6150
 5970TIP3    H217917   3.121   5.670   0.263  0.8628 -0.7632 -0.9838
 5971TIP3   OH217918   5.714   5.151   4.008  0.0299 -0.0946  0.2936
 5971TIP3    H117919   5.731   5.235   3.966 -0.6011 -0.8226 -1.4983
 5971TIP3    H217920   5.784   5.094   3.976 -1.0218 -0.9193 -0.5670
 5972TIP3   OH217921   6.026   3.991   0.696  0.0171 -0.9731  0.1959
 5972TIP3    H117922   6.015   4.025   0.784 -1.0870 -0.7922  0.0107
 5972TIP3    H217923   5.956   4.034   0.645 -0.1892 -2.0581 -0.4663
 5973TIP3   OH217924   3.256   2.535   3.349 -0.0911 -0.0306  0.2529
 5973TIP3    H117925   3.349   2.544   3.366 -0.0167  1.5942 -0.7836
 5973TIP3    H217926   3.250   2.475   3.275  0.2217  0.7587 -0.4242
 5974TIP3   OH217927   3.878   4.909   1.132  0.2413  0.4304  0.9130
 5974TIP3    H117928   3.957   4.895   1.184 -1.0549 -2.1728  2.3532
 5974TIP3    H217929   3.911   4.927   1.044  2.4418  1.8425  1.9203
 5975TIP3   OH217930   4.066   0.690   0.522  0.2562 -0.2642  0.2174
 5975TIP3    H117931   3.998   0.694   0.588  0.0557  0.1068 -0.0072
 5975TIP3    H217932   4.028   0.734   0.445  0.6222 -0.3485 -0.0162
 5976TIP3   OH217933   2.490   3.700   2.219 -0.3290  0.5662 -0.6539
 5976TIP3    H117934   2.428   3.627   2.227  0.2246  0.2147  0.7056
 5976TIP3    H217935   2.501   3.712   2.125 -1.3122 -0.3442 -0.9084
 5977TIP3   OH217936   1.249   4.701   2.862  0.7073 -0.1623 -0.0840
 5977TIP3    H117937   1.192   4.645   2.915  1.3067 -0.8003 -0.1026
 5977TIP3    H217938   1.195   4.725   2.786  0.2332 -0.1860  0.2401
 5978TIP3   OH217939   3.452   0.973   4.656  0.2958  0.3323 -0.3056
 5978TIP3    H117940   3.500   0.996   4.576  1.2623  2.6164  0.8482
 5978TIP3    H217941   3.456   1.051   4.710  0.2233 -1.3350  2.2873
 5979TIP3   OH217942   2.991   1.338   4.282 -0.3106 -0.1476  0.9890
 5979TIP3    H117943   3.030   1.266   4.232  1.7119  2.2647 -1.2012
 5979TIP3    H217944   3.046   1.348   4.359 -0.2790 -0.5777  1.0226
 5980TIP3   OH217945   4.319   5.544   0.284 -0.1429 -0.4741 -0.2962
 5980TIP3    H117946   4.227   5.521   0.278 -0.1087 -1.2395  1.4667
 5980TIP3    H217947   4.362   5.490   0.217 -0.8928 -0.5518 -0.7205
 5981TIP3   OH217948   0.263   3.191   1.906  0.4079  0.3473 -0.3611
 5981TIP3    H117949   0.265   3.108   1.953 -0.3285 -0.5306 -1.8026
 5981TIP3    H217950   0.292   3.169   1.817 -0.7795  1.4195 -1.0525
 5982TIP3   OH217951   2.380   1.766   2.767  0.4748  0.2849 -0.1652
 5982TIP3    H117952   2.349   1.679   2.742 -0.0046  0.4700 -0.2278
 5982TIP3    H217953   2.306   1.824   2.746  0.7013  0.6687  0.1051
 5983TIP3   OH217954   3.016   1.180   3.351 -0.7169 -0.4346  0.2702
 5983TIP3    H117955   3.068   1.100   3.349  0.5691  0.3636  0.7631
 5983TIP3    H217956   3.034   1.218   3.437  0.2404  1.3729 -0.6791
 5984TIP3   OH217957   5.788   1.356   1.823 -0.0095 -1.0105 -0.2126
 5984TIP3    H117958   5.837   1.388   1.898 -1.3047  0.9733 -0.1434
 5984TIP3    H217959   5.809   1.263   1.819  1.2813 -0.8557  1.6599
 5985TIP3   OH217960   3.234   2.011   2.120 -0.8304 -0.4686 -0.4678
 5985TIP3    H117961   3.231   2.106   2.133  0.1153 -0.6012  0.8708
 5985TIP3    H217962   3.145   1.988   2.092 -0.6614  1.0043 -2.4121
 5986TIP3   OH217963   1.111   3.011   4.462 -0.7475 -0.0541 -0.1457
 5986TIP3    H117964   1.088   3.070   4.533  1.9366 -0.0342  0.8369
 5986TIP3    H217965   1.116   3.067   4.384  0.2951  0.7588  0.4823
 5987TIP3   OH217966   0.448   1.357   2.236 -0.1706 -0.2846 -0.3857
 5987TIP3    H117967   0.435   1.452   2.236  0.1267 -0.0873  3.2808
 5987TIP3    H217968   0.367   1.322   2.272  0.0337 -1.3610 -0.9515
 5988TIP3   OH217969   5.493   2.964   4.449 -0.1868  0.1427  0.1852
 5988TIP3    H117970   5.544   3.031   4.404  0.0480 -1.0003 -1.3378
 5988TIP3    H217971   5.457   3.008   4.526 -1.2673  2.4215 -1.5302
 5989TIP3   OH217972   0.404   1.136   1.569  0.0588  0.0667 -0.4282
 5989TIP3    H117973   0.330   1.125   1.510 -0.7251  1.0779  0.3236
 5989TIP3    H217974   0.389   1.221   1.611  0.6574 -0.5363  1.0995
 5990TIP3   OH217975   5.118   4.214   3.755 -0.3595  0.4616 -0.2401
 5990TIP3    H117976   5.166   4.201   3.837  0.4810  1.8746 -0.4786
 5990TIP3    H217977   5.075   4.130   3.739  0.3727 -0.1934  1.0564
 5991TIP3   OH217978   0.268   4.372   4.953 -0.1975  0.0342 -0.0563
 5991TIP3    H117979   0.320   4.303   4.912 -0.9993 -0.5293 -0.1573
 5991TIP3    H217980   0.332   4.430   4.993  0.4853 -1.0789  0.5140
 5992TIP3   OH217981   1.095   5.924   0.604  0.0981  0.4527  0.6195
 5992TIP3    H117982   1.056   5.967   0.527  3.1201  1.9023 -0.2724
 5992TIP3    H217983   1.067   5.977   0.678 -1.9205 -0.2824  0.4346
 5993TIP3   OH217984   5.510   0.366   4.704  0.4617 -0.1088  0.1417
 5993TIP3    H117985   5.497   0.447   4.656  1.7829  0.3062  0.4290
 5993TIP3    H217986   5.538   0.394   4.791  1.5620 -0.8501  0.0509
 5994TIP3   OH217987   1.805   4.499   3.642  0.0049  0.1154  0.1394
 5994TIP3    H117988   1.889   4.542   3.657 -0.4411  1.2025 -0.3389
 5994TIP3    H217989   1.824   4.406   3.648  1.3275  0.3349 -0.3452
 5995TIP3   OH217990   3.070   1.192   1.922  0.4310  0.2722 -0.3020
 5995TIP3    H117991   3.162   1.196   1.946  0.1626  0.9280  0.7073
 5995TIP3    H217992   3.023   1.190   2.006 -0.4772  0.2842 -0.7941
 5996TIP3   OH217993   5.322   2.383   3.771  0.5578 -0.2584 -0.0662
 5996TIP3    H117994   5.403   2.352   3.811  0.5729  1.1063  1.0228
 5996TIP3    H217995   5.252   2.350   3.827  0.5297  0.8942  0.6027
 5997TIP3   OH217996   1.455   3.773   0.890 -0.4197 -0.2044 -0.2399
 5997TIP3    H117997   1.516   3.845   0.898 -1.0311  0.2931 -0.0080
 5997TIP3    H217998   1.385   3.792   0.953 -1.0567 -0.5136 -0.8318
 5998TIP3   OH217999   1.874   1.912   0.860 -0.8029  0.5329 -0.1216
 5998TIP3    H118000   1.906   1.966   0.932 -0.1772 -1.5284  1.2297
 5998TIP3    H218001   1.939   1.922   0.791  0.3468  0.0274  0.8570
 5999TIP3   OH218002   5.642   3.240   1.482 -0.2191  0.8403 -0.2803
 5999TIP3    H118003   5.680   3.153   1.492 -0.1252  1.0855  2.0223
 5999TIP3    H218004   5.548   3.225   1.473  0.0217  0.4082 -2.6692
 6000TIP3   OH218005   4.519   5.973   3.938  0.3653 -0.2153  0.0091
 6000TIP3    H118006   4.480   5.902   3.887 -1.6812  0.9541 -0.1879
 6000TIP3    H218007   4.519   5.942   4.028 -2.5494  0.2659  0.2566
 6001TIP3   OH218008   0.442   1.175   0.426 -0.2142  0.0492 -0.5893
 6001TIP3    H118009   0.474   1.085   0.438 -1.3688 -0.1506  1.6875
 6001TIP3    H218010   0.417   1.180   0.334 -0.1585 -2.0030 -0.7575
 6002TIP3   OH218011   4.152   0.960   0.929 -0.1919 -0.1337 -0.3385
 6002TIP3    H118012   4.217   0.979   0.996  0.6315 -1.3244 -0.7656
 6002TIP3    H218013   4.198   0.976   0.846 -0.3678 -1.1784 -0.6466
 6003TIP3   OH218014   2.805   3.266   0.937 -0.2472  0.0257 -0.2476
 6003TIP3    H118015   2.854   3.188   0.963  0.6731  0.2282 -1.3159
 6003TIP3    H218016   2.720   3.256   0.981  0.5217 -0.6105  1.1633
 6004TIP3   OH218017   5.530   3.894   3.982  0.1822  0.1582 -0.1453
 6004TIP3    H118018   5.587   3.880   3.906 -1.0457 -0.8410 -0.9265
 6004TIP3    H218019   5.448   3.850   3.958 -0.3254  0.0678  1.6576
 6005TIP3   OH218020   3.523   2.079   3.756 -0.5353  0.7023 -0.2183
 6005TIP3    H118021   3.452   2.062   3.818 -0.3936 -1.3242 -0.5698
 6005TIP3    H218022   3.574   1.999   3.754  1.7547  2.0584 -0.0715
 6006TIP3   OH218023   0.103   1.832   0.513  0.0854  0.0533 -0.3415
 6006TIP3    H118024   0.094   1.901   0.447 -1.2983  0.7739  0.5485
 6006TIP3    H218025   0.025   1.778   0.502  0.1589 -0.1858  0.2828
 6007TIP3   OH218026   1.238   3.119   1.283 -0.0056  0.0156 -0.6186
 6007TIP3    H118027   1.211   3.123   1.191 -2.0797  0.3430 -0.0479
 6007TIP3    H218028   1.204   3.035   1.314 -2.5236  1.4240  0.7121
 6008TIP3   OH218029   3.241   5.936   4.143  0.5025  0.1083  0.5369
 6008TIP3    H118030   3.304   5.983   4.088  1.4155 -1.9840 -0.2970
 6008TIP3    H218031   3.275   5.945   4.232  1.3117  0.0535  0.2418
 6009TIP3   OH218032   2.835   4.088   2.672  0.4382 -0.5038 -0.5088
 6009TIP3    H118033   2.819   4.156   2.737 -0.5958 -1.1309 -0.0737
 6009TIP3    H218034   2.908   4.038   2.707 -0.2314 -0.9557  0.2973
 6010TIP3   OH218035   4.289   3.870   2.615 -0.0762 -0.4624 -0.0133
 6010TIP3    H118036   4.375   3.908   2.634 -0.2695  0.1364 -0.3021
 6010TIP3    H218037   4.263   3.911   2.533 -1.3903  0.6561  0.9287
 6011TIP3   OH218038   3.461   0.228   3.345 -0.3175 -0.0454  0.4592
 6011TIP3    H118039   3.387   0.169   3.348  0.2161 -0.7108  0.8077
 6011TIP3    H218040   3.508   0.212   3.427 -0.0908  0.7619  0.4991
 6012TIP3   OH218041   0.636   3.593   4.888  0.7314  0.1013  0.2478
 6012TIP3    H118042   0.544   3.614   4.870  0.4910 -0.2802  1.0051
 6012TIP3    H218043   0.674   3.675   4.918  0.7203  0.3338 -0.3538
 6013TIP3   OH218044   5.142   1.831   4.056 -0.6150 -0.3368  0.5586
 6013TIP3    H118045   5.047   1.839   4.048 -0.9207 -2.4188  1.3124
 6013TIP3    H218046   5.161   1.860   4.145 -0.6237 -0.4255  0.5898
 6014TIP3   OH218047   3.961   1.460   4.704 -0.3506  0.0382 -0.2333
 6014TIP3    H118048   4.036   1.401   4.694 -0.1473  0.4910 -1.6502
 6014TIP3    H218049   3.887   1.413   4.666 -0.5944 -0.0509  0.3485
 6015TIP3   OH218050   3.874   0.523   3.668  0.1691 -0.0750 -0.0315
 6015TIP3    H118051   3.923   0.600   3.640  0.1939 -0.6899 -1.8192
 6015TIP3    H218052   3.783   0.546   3.655  0.2081 -0.6440 -1.5143
 6016TIP3   OH218053   1.021   5.453   4.230 -0.1256  0.6238 -0.0883
 6016TIP3    H118054   0.971   5.480   4.153 -0.4791  1.4801  0.4166
 6016TIP3    H218055   1.097   5.511   4.231 -0.6365  1.3287  0.7334
 6017TIP3   OH218056   3.829   0.938   2.770 -0.0500 -0.7155 -0.3918
 6017TIP3    H118057   3.833   1.027   2.805 -2.4141 -0.8072  0.2953
 6017TIP3    H218058   3.894   0.890   2.821 -0.0648  0.2237  0.5618
 6018TIP3   OH218059   2.980   4.887   2.907  0.2720  0.0897  0.2481
 6018TIP3    H118060   2.996   4.819   2.842  1.8681 -0.4045  1.1090
 6018TIP3    H218061   2.975   4.968   2.856 -1.7470 -0.6267 -0.7986
 6019TIP3   OH218062   1.727   2.799   3.548 -0.3804  0.4389  0.5197
 6019TIP3    H118063   1.819   2.807   3.525 -0.8141 -0.2951 -1.7684
 6019TIP3    H218064   1.726   2.798   3.643  1.8608  1.5014  0.6185
 6020TIP3   OH218065   1.102   0.236   3.806  0.2300  0.0812  0.6441
 6020TIP3    H118066   1.057   0.314   3.774  0.0581 -0.6206 -0.9011
 6020TIP3    H218067   1.050   0.207   3.881 -0.7443  0.4146  0.1130
 6021TIP3   OH218068   4.650   1.281   3.913  0.4276  0.5494  0.4283
 6021TIP3    H118069   4.678   1.262   4.003 -0.8484 -0.7475  0.5833
 6021TIP3    H218070   4.654   1.197   3.869 -1.8216  0.5676  0.0896
 6022TIP3   OH218071   1.680   3.029   4.906 -0.2108  0.2883  0.5370
 6022TIP3    H118072   1.628   2.981   4.969 -0.3970 -2.8021 -1.7159
 6022TIP3    H218073   1.770   3.000   4.922 -0.2690 -0.6041 -0.5371
 6023TIP3   OH218074   2.737   5.624   5.135  0.4209  0.0999  0.2717
 6023TIP3    H118075   2.647   5.625   5.101  0.1104 -0.2556  1.0580
 6023TIP3    H218076   2.762   5.532   5.133  0.0548 -0.0601  1.8504
 6024TIP3   OH218077   5.406   3.749   0.312 -0.1388  0.7360  0.1068
 6024TIP3    H118078   5.400   3.838   0.277 -1.6186  0.7222  0.2472
 6024TIP3    H218079   5.316   3.727   0.336  0.0240 -1.1647 -0.8377
 6025TIP3   OH218080   1.995   5.442   1.745  0.1050  0.5826  0.4949
 6025TIP3    H118081   1.995   5.537   1.760  0.1245  0.6851 -0.1329
 6025TIP3    H218082   2.026   5.432   1.655  1.7419 -0.1279  1.1093
 6026TIP3   OH218083   5.325   4.778   0.513  0.6444 -0.4360 -0.3945
 6026TIP3    H118084   5.236   4.755   0.486 -0.1334  1.9174 -0.0928
 6026TIP3    H218085   5.360   4.698   0.551 -1.7632 -1.1557  0.5231
 6027TIP3   OH218086   4.249   2.283   0.446  0.5192 -0.0222  0.2125
 6027TIP3    H118087   4.219   2.205   0.398 -0.5441 -0.5434  1.6431
 6027TIP3    H218088   4.318   2.250   0.504  0.0836  0.0797  0.8030
 6028TIP3   OH218089   5.604   0.954   4.485  0.1084 -0.5869 -0.1910
 6028TIP3    H118090   5.581   1.046   4.469  0.8479 -0.2167  0.7691
 6028TIP3    H218091   5.575   0.908   4.406 -1.5831  0.2300 -0.0902
 6029TIP3   OH218092   6.098   0.267   2.965 -0.2820  0.2712  0.3219
 6029TIP3    H118093   6.071   0.183   3.002 -1.1784  0.8659  1.0606
 6029TIP3    H218094   6.018   0.319   2.963 -0.0182  0.6780 -1.3575
 6030TIP3   OH218095   4.522   3.225   1.843  0.7071 -0.1676 -0.2452
 6030TIP3    H118096   4.583   3.180   1.785  0.8125  1.2153 -1.2430
 6030TIP3    H218097   4.526   3.317   1.817  0.2358  0.3962  1.5005
 6031TIP3   OH218098   2.202   5.861   1.317 -0.2382 -0.0696 -0.1067
 6031TIP3    H118099   2.192   5.897   1.229 -0.1834 -1.6994 -0.8233
 6031TIP3    H218100   2.276   5.908   1.354  1.2831 -0.9682 -1.8534
 6032TIP3   OH218101   4.505   0.539   0.843  0.3733  0.3769  0.1594
 6032TIP3    H118102   4.577   0.572   0.790  0.9908  0.4940  1.0479
 6032TIP3    H218103   4.547   0.506   0.922 -0.3025 -1.7205 -0.2990
 6033TIP3   OH218104   2.644   0.913   5.134  0.5300  0.0869 -0.9426
 6033TIP3    H118105   2.588   0.919   5.211  0.8046 -2.1280 -0.4875
 6033TIP3    H218106   2.704   0.840   5.153  1.6634  0.5134 -2.5950
 6034TIP3   OH218107   2.862   2.264   2.307 -0.4140 -0.0893 -0.4605
 6034TIP3    H118108   2.931   2.272   2.373 -1.7470 -1.1444  1.1333
 6034TIP3    H218109   2.795   2.327   2.336 -0.4955  0.3290 -1.5245
 6035TIP3   OH218110   5.195   3.416   2.340 -0.4719 -0.7341  0.5272
 6035TIP3    H118111   5.108   3.456   2.343 -1.4700 -2.7164 -0.3947
 6035TIP3    H218112   5.230   3.440   2.254 -0.0194  0.1616  0.9436
 6036TIP3   OH218113   5.871   5.321   2.282 -0.2309  0.2493 -0.5155
 6036TIP3    H118114   5.958   5.294   2.251 -0.8748 -0.3541 -1.8637
 6036TIP3    H218115   5.833   5.243   2.321 -0.3361  0.3986 -0.3161
 6037TIP3   OH218116   1.020   3.702   3.431 -0.5719 -0.0964  0.4195
 6037TIP3    H118117   1.022   3.785   3.480  1.2059  0.0458  0.1712
 6037TIP3    H218118   0.927   3.682   3.422 -0.9973  0.6528  2.5349
 6038TIP3   OH218119   2.981   0.571   5.099 -0.8563  0.0086 -0.6859
 6038TIP3    H118120   3.001   0.529   5.016  1.9431  1.6640 -0.9893
 6038TIP3    H218121   3.035   0.524   5.163 -1.5799 -0.0772 -0.1291
 6039TIP3   OH218122   3.770   3.296   1.090  0.3226  0.5711 -0.5025
 6039TIP3    H118123   3.858   3.302   1.053  0.0573 -0.0792 -1.2594
 6039TIP3    H218124   3.779   3.236   1.164  1.2731  3.4021  1.8618
 6040TIP3   OH218125   2.213   2.379   3.185  0.4067 -0.0070  0.3892
 6040TIP3    H118126   2.225   2.325   3.263  0.3406 -0.8483 -0.1740
 6040TIP3    H218127   2.261   2.333   3.116  3.4970  2.4968  0.6483
 6041TIP3   OH218128   5.453   5.626   0.133 -0.8621  0.0945 -0.1661
 6041TIP3    H118129   5.407   5.606   0.051 -0.3202 -0.9250 -0.2406
 6041TIP3    H218130   5.501   5.707   0.116 -1.3624  0.2993 -0.6019
 6042TIP3   OH218131   6.103   2.921   3.204  0.0972  0.3841 -0.1622
 6042TIP3    H118132   6.074   3.010   3.185 -1.1986  0.4108  1.6698
 6042TIP3    H218133   6.118   2.920   3.299  2.6310 -0.6805 -0.4954
 6043TIP3   OH218134   2.055   0.683   3.805  0.0602 -0.6827  0.0378
 6043TIP3    H118135   2.059   0.657   3.897 -1.7277  2.3029  1.1142
 6043TIP3    H218136   1.972   0.647   3.773 -0.1708 -0.2290  0.1263
 6044TIP3   OH218137   1.298   3.960   3.710 -0.3737 -0.1322  0.3430
 6044TIP3    H118138   1.306   4.039   3.656 -0.5455 -0.2437  0.1565
 6044TIP3    H218139   1.388   3.928   3.719 -0.3799 -0.2749 -0.1167
 6045TIP3   OH218140   4.685   2.499   3.158 -0.2692 -0.2423 -0.1699
 6045TIP3    H118141   4.680   2.551   3.238 -1.6151 -0.9954  0.2761
 6045TIP3    H218142   4.764   2.446   3.168  0.6753  1.0907 -0.2727
 6046TIP3   OH218143   6.100   0.531   4.235 -0.3561  0.4998 -0.0326
 6046TIP3    H118144   6.143   0.466   4.291 -0.7942  2.3307  2.6066
 6046TIP3    H218145   6.007   0.525   4.258 -0.4858  1.5678 -0.2216
 6047TIP3   OH218146   1.708   3.266   4.614 -0.0333 -0.2725 -0.2482
 6047TIP3    H118147   1.800   3.291   4.603 -0.5294  1.0580 -1.8432
 6047TIP3    H218148   1.708   3.171   4.603  1.2958 -0.4894  1.1630
 6048TIP3   OH218149   0.288   3.559   2.878 -0.1074  0.0961  0.0205
 6048TIP3    H118150   0.308   3.467   2.895  1.4672 -0.0515 -2.1636
 6048TIP3    H218151   0.303   3.603   2.961 -2.0412 -1.7214  1.4502
 6049TIP3   OH218152   3.932   4.364   3.655  0.0519 -0.0610 -0.2799
 6049TIP3    H118153   3.985   4.286   3.671  0.9367  0.4698 -0.5458
 6049TIP3    H218154   3.986   4.437   3.687 -0.2248  0.5562 -1.1785
 6050TIP3   OH218155   0.702   1.869   0.118  0.0432  0.0610  0.2341
 6050TIP3    H118156   0.727   1.834   0.203  0.1471 -2.2397 -0.6728
 6050TIP3    H218157   0.631   1.931   0.137  0.5539  0.1239  2.0323
 6051TIP3   OH218158   4.441   5.597   3.376  0.2254  0.3454 -0.4210
 6051TIP3    H118159   4.525   5.603   3.420  0.1709 -0.1903 -0.2293
 6051TIP3    H218160   4.426   5.503   3.367 -1.4861  0.3145  1.7719
 6052TIP3   OH218161   1.565   0.671   1.813  0.4883 -0.0042  0.8834
 6052TIP3    H118162   1.480   0.631   1.834  0.6336 -0.4310  0.6787
 6052TIP3    H218163   1.629   0.620   1.863  0.6339  0.2362  0.9406
 6053TIP3   OH218164   2.008   4.584   2.130 -0.3278 -0.2561  0.3861
 6053TIP3    H118165   2.049   4.503   2.160  3.6195  0.5364 -2.1293
 6053TIP3    H218166   2.063   4.654   2.166 -2.2430  1.2691  0.5514
 6054TIP3   OH218167   4.165   1.301   4.899 -0.2076 -0.3734 -0.3897
 6054TIP3    H118168   4.113   1.279   4.976  0.1617 -0.8102 -0.2601
 6054TIP3    H218169   4.218   1.376   4.927  1.1213 -1.5438  0.3268
 6055TIP3   OH218170   4.514   3.619   0.472 -0.1453 -0.1858 -0.2545
 6055TIP3    H118171   4.493   3.630   0.565  2.3234  0.4410  0.3171
 6055TIP3    H218172   4.466   3.688   0.427 -1.3515 -0.4812  0.5520
 6056TIP3   OH218173   6.016   0.420   0.881 -0.1929  0.3030 -0.4437
 6056TIP3    H118174   6.107   0.419   0.852 -0.3055 -1.4569 -0.8578
 6056TIP3    H218175   5.968   0.378   0.809 -0.9505 -1.1457  0.8597
 6057TIP3   OH218176   6.046   3.699   0.645 -0.0020  0.0570  0.3284
 6057TIP3    H118177   6.007   3.690   0.558  1.0105  0.5801 -0.1933
 6057TIP3    H218178   6.057   3.793   0.658 -1.5044  0.1017  1.6696
 6058TIP3   OH218179   6.047   0.650   4.005 -0.5090 -0.2734 -0.3777
 6058TIP3    H118180   6.011   0.737   4.021  0.4244  0.1361 -0.4393
 6058TIP3    H218181   6.090   0.626   4.087  2.6069  1.0093 -1.4928
 6059TIP3   OH218182   5.681   4.286   0.188  0.2734 -0.5000 -0.6055
 6059TIP3    H118183   5.636   4.331   0.117 -0.6074 -1.3295 -0.5920
 6059TIP3    H218184   5.772   4.315   0.181 -0.4125  2.0708  0.0468
 6060TIP3   OH218185   2.668   4.005   4.778  0.0753 -0.0239 -0.3018
 6060TIP3    H118186   2.707   4.047   4.855  0.2705 -0.1726 -0.3163
 6060TIP3    H218187   2.606   3.942   4.814 -1.4767  1.4369 -0.3040
 6061TIP3   OH218188   4.726   3.842   2.433 -0.3844 -0.1031 -0.3500
 6061TIP3    H118189   4.767   3.764   2.472 -1.1202  0.3243  1.3548
 6061TIP3    H218190   4.697   3.813   2.347  0.1606 -1.4683 -0.1034
 6062TIP3   OH218191   1.943   0.775   1.825 -0.2980 -0.4334  0.0351
 6062TIP3    H118192   1.962   0.742   1.913 -2.7635 -3.0373 -0.2694
 6062TIP3    H218193   1.858   0.820   1.835  0.6505  1.6063 -0.5741
 6063TIP3   OH218194   4.054   5.068   0.274  0.0028 -0.1338 -0.1033
 6063TIP3    H118195   4.072   5.033   0.186 -1.1439  1.7374 -1.1611
 6063TIP3    H218196   3.976   5.020   0.303 -0.0594 -0.2475 -0.4461
 6064TIP3   OH218197   3.810   3.945   2.478  0.1891  0.1353  0.0482
 6064TIP3    H118198   3.805   3.912   2.388  4.0478  0.2806 -0.3722
 6064TIP3    H218199   3.748   4.018   2.480  0.7571  0.8016 -2.8268
 6065TIP3   OH218200   5.353   1.202   0.306 -0.5083  0.0463 -0.1369
 6065TIP3    H118201   5.299   1.177   0.381  0.1716  2.5194  1.2813
 6065TIP3    H218202   5.310   1.279   0.270 -1.0557 -1.3517 -2.6261
 6066TIP3   OH218203   0.631   1.632   3.177 -0.0597 -0.1103  0.3703
 6066TIP3    H118204   0.723   1.613   3.158  0.4513  1.9256  0.5548
 6066TIP3    H218205   0.596   1.666   3.094 -0.8897 -1.6090  0.0796
 6067TIP3   OH218206   1.370   4.746   0.636 -0.3634  0.2450  0.1512
 6067TIP3    H118207   1.316   4.759   0.714  0.7915 -1.3662  1.2897
 6067TIP3    H218208   1.456   4.780   0.662 -0.2931  0.9343 -0.9294
 6068TIP3   OH218209   3.139   2.759   3.495  0.1616  0.6607  0.7276
 6068TIP3    H118210   3.113   2.687   3.438  1.0394  1.4056 -0.6955
 6068TIP3    H218211   3.207   2.722   3.551 -0.8767 -0.1445  1.5012
 6069TIP3   OH218212   0.470   1.802   2.549 -0.6321 -0.0025 -0.2830
 6069TIP3    H118213   0.380   1.774   2.531 -0.7496 -0.2487  0.6668
 6069TIP3    H218214   0.506   1.822   2.462 -1.8583  0.9039 -0.6210
 6070TIP3   OH218215   0.330   0.325   1.051 -0.2212 -0.1270 -0.5686
 6070TIP3    H118216   0.394   0.271   1.098 -1.7668 -1.7115 -0.1450
 6070TIP3    H218217   0.266   0.262   1.017 -1.1900  1.3239 -1.5640
 6071TIP3   OH218218   4.727   1.086   2.098  0.3048 -0.2670  0.2751
 6071TIP3    H118219   4.738   0.992   2.083 -0.9712 -0.9326  2.9594
 6071TIP3    H218220   4.809   1.114   2.140 -0.4147 -0.8926  2.1946
 6072TIP3   OH218221   2.072   1.218   0.577  0.5654 -0.1260 -0.4402
 6072TIP3    H118222   2.010   1.167   0.524 -2.9657  0.8374  2.3168
 6072TIP3    H218223   2.063   1.308   0.545 -0.8430  0.2905  0.9767
 6073TIP3   OH218224   4.681   5.893   4.980  0.0142 -0.2971 -0.1143
 6073TIP3    H118225   4.720   5.888   5.067 -0.7020  0.4784  0.2683
 6073TIP3    H218226   4.636   5.810   4.968  0.7125 -0.6911 -0.0461
 6074TIP3   OH218227   2.919   0.739   1.908  0.0980  0.0081 -0.8409
 6074TIP3    H118228   2.837   0.780   1.935  0.3464  0.7806 -1.2465
 6074TIP3    H218229   2.941   0.781   1.825  1.8128  1.0877  0.1131
 6075TIP3   OH218230   6.007   5.111   0.378 -0.6272  0.0788  0.5353
 6075TIP3    H118231   5.941   5.178   0.362 -1.3144 -0.7637 -0.2965
 6075TIP3    H218232   6.008   5.100   0.473 -2.2874 -0.4549  0.5175
 6076TIP3   OH218233   5.145   5.078   1.877 -0.2453  0.2663  0.2796
 6076TIP3    H118234   5.157   5.172   1.867 -1.4297  0.3816 -0.3510
 6076TIP3    H218235   5.228   5.046   1.910  0.0025  1.6126  1.0245
 6077TIP3   OH218236   1.981   0.850   0.841 -0.3973 -0.1112 -0.0374
 6077TIP3    H118237   1.900   0.881   0.800 -0.4531  0.8690  0.7612
 6077TIP3    H218238   1.956   0.829   0.930 -0.1561 -1.6731 -0.3142
 6078TIP3   OH218239   2.106   2.018   0.394 -0.7326  0.1017 -0.2801
 6078TIP3    H118240   2.136   2.081   0.328 -0.3061  0.6180  0.4022
 6078TIP3    H218241   2.037   1.969   0.349 -0.4000  0.3922 -1.1386
 6079TIP3   OH218242   4.133   5.752   2.500 -0.1372 -0.0894 -0.2203
 6079TIP3    H118243   4.134   5.747   2.404 -0.9483 -1.1042 -0.1915
 6079TIP3    H218244   4.085   5.833   2.519 -0.6111 -0.2552 -0.6752
 6080TIP3   OH218245   4.955   0.858   0.651  0.2334 -0.1867 -0.2954
 6080TIP3    H118246   4.999   0.779   0.619  0.0423 -0.0472 -0.9024
 6080TIP3    H218247   4.899   0.886   0.579 -0.7790 -0.2970  0.4332
 6081TIP3   OH218248   1.139   1.298   1.819 -0.1922 -0.2339  0.1495
 6081TIP3    H118249   1.114   1.210   1.791  0.8044 -1.3646  2.5634
 6081TIP3    H218250   1.222   1.286   1.865 -0.2651  1.9058  0.9468
 6082TIP3   OH218251   4.078   4.572   1.359  0.3574 -0.2309  0.2045
 6082TIP3    H118252   4.066   4.499   1.299 -0.5511  0.7997 -0.9418
 6082TIP3    H218253   4.131   4.635   1.310 -0.6654  0.7677  0.3215
 6083TIP3   OH218254   0.728   1.953   0.394  0.0799 -0.4864  0.7251
 6083TIP3    H118255   0.700   1.936   0.484  1.5029 -0.6427  1.1710
 6083TIP3    H218256   0.802   1.893   0.380 -0.2327 -0.5923 -0.6123
 6084TIP3   OH218257   0.602   0.683   1.460 -0.1592  0.0105 -0.1379
 6084TIP3    H118258   0.577   0.664   1.370  0.6019 -1.1464 -0.1211
 6084TIP3    H218259   0.523   0.662   1.511 -0.5191  0.4553 -0.4975
 6085TIP3   OH218260   2.785   4.983   3.740  0.8659 -0.1805  0.2149
 6085TIP3    H118261   2.833   4.989   3.823  1.0323 -1.0719  0.1894
 6085TIP3    H218262   2.850   5.007   3.674  1.1579 -0.9016  0.2253
 6086TIP3   OH218263   1.916   3.191   4.246  0.2951  0.0774 -0.1383
 6086TIP3    H118264   1.953   3.206   4.333  0.1663  0.5205 -0.1555
 6086TIP3    H218265   1.858   3.266   4.232 -0.7711 -0.6897 -0.0202
 6087TIP3   OH218266   1.624   2.918   3.790 -0.2087 -0.2050 -0.3755
 6087TIP3    H118267   1.707   2.959   3.816  0.3644 -0.4070 -1.7638
 6087TIP3    H218268   1.591   2.975   3.721 -0.3124 -1.0898 -1.0724
 6088TIP3   OH218269   3.648   2.852   5.034 -0.4216 -0.0700 -0.0253
 6088TIP3    H118270   3.592   2.894   4.969  1.4147  1.4187 -0.7405
 6088TIP3    H218271   3.654   2.761   5.006 -0.2248  0.3883 -1.5719
 6089TIP3   OH218272   1.350   4.989   2.734  0.5042  0.1746  0.3325
 6089TIP3    H118273   1.258   4.967   2.749  0.7315  0.5386  2.6055
 6089TIP3    H218274   1.348   5.058   2.667 -0.8343 -0.0672  0.0998
 6090TIP3   OH218275   6.148   0.291   5.099 -0.2325 -0.2989 -0.4909
 6090TIP3    H118276   6.073   0.292   5.158  2.0625  0.5877  2.6451
 6090TIP3    H218277   6.176   0.383   5.093  1.1915 -0.7166 -0.7377
 6091TIP3   OH218278   1.000   0.796   4.938  0.1727 -0.0717 -0.0567
 6091TIP3    H118279   0.936   0.866   4.925 -0.7556 -0.6906  1.0207
 6091TIP3    H218280   1.084   0.836   4.914 -0.5434  0.8654 -1.1615
 6092TIP3   OH218281   3.992   4.638   1.673  0.4194 -0.3844 -0.0246
 6092TIP3    H118282   4.042   4.610   1.596  0.3373 -2.0431  0.4978
 6092TIP3    H218283   4.057   4.678   1.731  0.9569 -1.4605  0.1393
 6093TIP3   OH218284   0.054   3.980   0.273  0.0789  0.2095  0.0878
 6093TIP3    H118285   0.073   3.887   0.281 -0.7208  0.1232  1.2181
 6093TIP3    H218286   0.014   3.989   0.186  0.8628 -0.3543 -0.3461
 6094TIP3   OH218287   1.992   3.287   4.594  0.0379  0.1244 -0.4648
 6094TIP3    H118288   2.039   3.361   4.632 -1.4742  0.8460  0.1160
 6094TIP3    H218289   1.950   3.323   4.516 -3.2912  0.9014  1.4427
 6095TIP3   OH218290   2.850   1.831   4.722  0.0199  0.4543  0.3371
 6095TIP3    H118291   2.827   1.879   4.642 -0.8218  0.2523  0.4437
 6095TIP3    H218292   2.868   1.742   4.692  1.8659  0.8854  0.1020
 6096TIP3   OH218293   1.599   0.439   5.110  0.2051 -0.0426  0.1179
 6096TIP3    H118294   1.568   0.498   5.179 -0.0061  0.8224 -0.6806
 6096TIP3    H218295   1.520   0.399   5.075  0.2732 -0.1496  0.0856
 6097TIP3   OH218296   0.080   5.746   2.930 -0.3052 -0.1103  0.1397
 6097TIP3    H118297   0.030   5.802   2.870 -0.2885 -0.3446 -0.0950
 6097TIP3    H218298   0.074   5.790   3.015  0.0677  0.4800 -0.1284
 6098TIP3   OH218299   5.470   4.860   1.735  0.1181  0.2573  0.4298
 6098TIP3    H118300   5.474   4.926   1.803  0.6531  1.1240 -0.4188
 6098TIP3    H218301   5.387   4.877   1.690  1.2054  1.7726 -1.1379
 6099TIP3   OH218302   2.333   0.058  -0.000 -0.1290  0.1700  0.2490
 6099TIP3    H118303   2.304   0.097   0.082 -4.7888 -0.7515 -0.6721
 6099TIP3    H218304   2.351  -0.034   0.022  4.0784  0.9588  1.0554
 6100TIP3   OH218305   1.985   1.471   0.452  0.1957  0.1838  0.2186
 6100TIP3    H118306   2.023   1.513   0.375 -1.3428 -0.1082 -0.7437
 6100TIP3    H218307   1.890   1.474   0.437 -0.1405  0.0226  2.0633
 6101TIP3   OH218308   3.543   0.047   2.161  0.5519  0.3917 -0.5698
 6101TIP3    H118309   3.531   0.093   2.244 -0.1070  1.1878 -1.1017
 6101TIP3    H218310   3.565  -0.043   2.187  2.1796  1.0362  0.4839
 6102TIP3   OH218311   0.619   0.717   3.554  0.0203  0.1149  0.2936
 6102TIP3    H118312   0.545   0.770   3.526  0.2822  0.2538 -0.1393
 6102TIP3    H218313   0.696   0.767   3.527  0.2777 -0.8940 -0.9060
 6103TIP3   OH218314   1.941   2.259   1.201  0.0523  0.3630  0.4846
 6103TIP3    H118315   1.983   2.180   1.234  0.1423 -0.0146 -0.5164
 6103TIP3    H218316   1.963   2.326   1.266  1.7211  0.0488  0.2855
 6104TIP3   OH218317   2.689   3.405   3.114  0.1968 -0.0791  0.2637
 6104TIP3    H118318   2.762   3.463   3.092 -0.2132  0.1964 -0.3957
 6104TIP3    H218319   2.694   3.334   3.050 -0.5537  0.3324 -0.2677
 6105TIP3   OH218320   0.866   1.978   4.891 -0.0908  0.0244  0.2048
 6105TIP3    H118321   0.932   1.910   4.883  0.0546  0.2042 -0.1466
 6105TIP3    H218322   0.905   2.042   4.952  0.0798  0.1516 -0.0353
 6106TIP3   OH218323   0.428   2.800   3.632  0.2749  0.0116  0.3860
 6106TIP3    H118324   0.480   2.878   3.649  0.4598  0.1168 -0.5767
 6106TIP3    H218325   0.407   2.805   3.538 -0.7716 -0.4451  0.5784
 6107TIP3   OH218326   5.936   2.940   0.897  0.2241 -0.0082  0.0432
 6107TIP3    H118327   6.020   2.959   0.856  0.8910  1.5292  1.9836
 6107TIP3    H218328   5.920   3.014   0.956 -0.5288 -2.1384  2.7339
 6108TIP3   OH218329   5.773   3.316   2.385 -0.7891 -0.2246 -0.2507
 6108TIP3    H118330   5.789   3.369   2.307  0.5887  0.4515  0.4613
 6108TIP3    H218331   5.751   3.229   2.351  0.8098 -0.2221 -1.3828
 6109TIP3   OH218332   4.281   0.163   5.039  0.0660 -0.1840 -0.0809
 6109TIP3    H118333   4.331   0.082   5.042  0.6366 -0.0170 -2.6338
 6109TIP3    H218334   4.314   0.215   5.113  0.2714 -1.9004  1.0973
 6110TIP3   OH218335   4.864   2.633   3.672 -0.1918 -0.6863  0.5218
 6110TIP3    H118336   4.829   2.552   3.708 -1.4018 -0.6582 -0.5221
 6110TIP3    H218337   4.927   2.604   3.605  0.2944 -0.7478  1.0006
 6111TIP3   OH218338   3.969   3.349   2.247  0.9601  0.0017  0.5964
 6111TIP3    H118339   3.875   3.365   2.238  1.2573  0.5322 -2.6376
 6111TIP3    H218340   3.999   3.324   2.160  3.8754  0.0431  1.4498
 6112TIP3   OH218341   2.304   1.286   0.818  0.3222  0.2680 -0.5354
 6112TIP3    H118342   2.293   1.379   0.797 -0.2414  0.4175  0.3977
 6112TIP3    H218343   2.215   1.252   0.823  0.5274 -0.3010 -0.7492
 6113TIP3   OH218344   1.845   1.184   2.214  1.0404  0.3793  0.1472
 6113TIP3    H118345   1.780   1.190   2.284  0.5488  0.7337 -0.3283
 6113TIP3    H218346   1.929   1.178   2.259  0.5563 -2.5166  0.8317
 6114TIP3   OH218347   6.335   5.259   2.263 -0.1973  0.0084  0.0800
 6114TIP3    H118348   6.376   5.209   2.334 -0.8209 -2.4189 -1.1426
 6114TIP3    H218349   6.242   5.237   2.269 -0.2896 -0.0769 -1.3368
 6115TIP3   OH218350   5.679   0.303   3.714 -0.3697 -0.1295 -0.1369
 6115TIP3    H118351   5.598   0.308   3.764  0.3323 -0.9416  1.1483
 6115TIP3    H218352   5.739   0.363   3.760  0.6500 -1.7683  0.7700
 6116TIP3   OH218353   0.703   3.269   1.073  0.4239 -0.2771  0.4464
 6116TIP3    H118354   0.631   3.206   1.074  0.5886 -0.4853 -0.1213
 6116TIP3    H218355   0.674   3.341   1.129 -1.5199  1.0668 -2.1054
 6117TIP3   OH218356   0.192   5.928   4.826  0.3492  0.1909  0.3194
 6117TIP3    H118357   0.098   5.925   4.848  0.2236  2.1525  0.2041
 6117TIP3    H218358   0.236   5.931   4.911  0.3372 -0.8854  0.3772
 6118TIP3   OH218359   3.578   4.080   0.675  0.8450  0.2269  0.2849
 6118TIP3    H118360   3.562   4.076   0.581 -1.0616  1.4712  0.5073
 6118TIP3    H218361   3.508   4.027   0.714  1.9938 -0.8162  0.9932
 6119TIP3   OH218362   4.832   2.270   3.414 -0.1402  0.1557  0.2027
 6119TIP3    H118363   4.785   2.186   3.416 -0.3437  0.2130 -1.2340
 6119TIP3    H218364   4.855   2.282   3.322  1.3778  0.8764  0.6556
 6120TIP3   OH218365   1.154   2.564   0.769 -0.0685  0.1934 -0.2977
 6120TIP3    H118366   1.180   2.500   0.835 -1.2470 -0.2720 -0.2804
 6120TIP3    H218367   1.067   2.593   0.795  0.2231  1.4329 -0.5942
 6121TIP3   OH218368   6.310   3.916   1.548 -0.0558  0.3488 -0.2952
 6121TIP3    H118369   6.265   3.904   1.465  0.7195  1.2179 -0.8518
 6121TIP3    H218370   6.403   3.920   1.525  0.1122  1.5301  0.4856
 6122TIP3   OH218371   2.679   0.757   0.324 -0.6560  0.5849  0.3389
 6122TIP3    H118372   2.741   0.707   0.377 -1.4689 -1.1828 -0.3061
 6122TIP3    H218373   2.628   0.691   0.277 -0.8891  2.0578 -1.6006
 6123TIP3   OH218374   3.992   3.421   4.367  0.0200  0.1899 -0.6032
 6123TIP3    H118375   3.949   3.500   4.399 -0.2148 -0.1511 -0.0614
 6123TIP3    H218376   4.013   3.371   4.446 -1.2751 -1.0364 -0.9929
 6124TIP3   OH218377   5.373   2.288   1.392  0.3753  0.0379  0.0892
 6124TIP3    H118378   5.375   2.374   1.350  0.1594 -0.1870 -0.3820
 6124TIP3    H218379   5.459   2.281   1.435  0.0262  0.8929  0.9601
 6125TIP3   OH218380   0.788   2.783   2.304 -0.0688 -0.0983 -0.0358
 6125TIP3    H118381   0.846   2.838   2.251  1.2330 -0.4157  0.9919
 6125TIP3    H218382   0.741   2.729   2.241  1.0469 -0.0997 -0.8899
 6126TIP3   OH218383   0.254   1.521   3.184 -0.3641  0.0314 -0.5592
 6126TIP3    H118384   0.285   1.434   3.210 -1.9521 -0.3453  0.1880
 6126TIP3    H218385   0.306   1.582   3.236 -1.9224 -0.6341  1.9395
 6127TIP3   OH218386   0.166   0.167   3.003 -0.4317 -0.3401  0.7737
 6127TIP3    H118387   0.245   0.193   2.955  0.3581 -1.1534  1.5672
 6127TIP3    H218388   0.145   0.080   2.968 -2.8738  1.1227 -1.6690
 6128TIP3   OH218389   5.724   1.865   0.534  0.6456  0.1281  0.8906
 6128TIP3    H118390   5.791   1.890   0.597 -0.3250  1.7242  1.3603
 6128TIP3    H218391   5.712   1.943   0.479 -0.8845 -0.0555  0.9005
 6129TIP3   OH218392   6.146   5.438   1.921  0.3977 -0.3594  0.1071
 6129TIP3    H118393   6.150   5.401   1.833  0.2295  1.4428 -0.6966
 6129TIP3    H218394   6.235   5.433   1.954  0.3441 -1.6199  0.1086
 6130TIP3   OH218395   4.216   3.163   4.495 -0.4288 -0.6106  0.1157
 6130TIP3    H118396   4.201   3.082   4.544  1.1720 -0.6056  0.6561
 6130TIP3    H218397   4.140   3.217   4.515 -1.2775 -1.7692  0.1437
 6131TIP3   OH218398   4.464   4.069   2.925  0.3092 -0.4113  0.2895
 6131TIP3    H118399   4.527   4.109   2.986 -0.3555 -0.4578  1.0171
 6131TIP3    H218400   4.392   4.132   2.921 -0.4508 -1.2165  0.9309
 6132TIP3   OH218401   6.282   4.926   0.374  0.0076 -0.5674  0.0112
 6132TIP3    H118402   6.213   4.993   0.374  0.4263 -0.0736  2.0089
 6132TIP3    H218403   6.261   4.870   0.299 -1.1076  1.0216 -0.9275
 6133TIP3   OH218404   5.608   4.986   0.027 -0.1000 -0.6793 -0.2490
 6133TIP3    H118405   5.699   4.975   0.055 -0.0504  0.3660  0.0425
 6133TIP3    H218406   5.559   4.923   0.079  0.2110  0.0974  1.0244
 6134TIP3   OH218407   0.515   1.914   2.273 -0.7591  0.1716 -0.3549
 6134TIP3    H118408   0.601   1.934   2.236 -1.0866 -1.3419 -2.1067
 6134TIP3    H218409   0.454   1.967   2.222 -0.8829  1.6187  1.2094
 6135TIP3   OH218410   1.048   1.047   2.517  0.3691  0.5942 -0.8076
 6135TIP3    H118411   1.040   1.024   2.609 -2.0631  1.0099 -0.8303
 6135TIP3    H218412   1.067   1.141   2.517  0.7736  0.5129 -0.7328
 6136TIP3   OH218413   4.643   5.904   4.191  0.0452  0.0660  0.6458
 6136TIP3    H118414   4.710   5.862   4.245  0.8523 -0.7219 -0.8845
 6136TIP3    H218415   4.692   5.954   4.126 -0.8898  1.0976  0.7046
 6137TIP3   OH218416   3.515   5.127   3.177  0.0984  0.1731  0.3559
 6137TIP3    H118417   3.466   5.170   3.107 -1.1673  1.3339  1.8907
 6137TIP3    H218418   3.492   5.035   3.170 -1.6367  0.5661  0.4717
 6138TIP3   OH218419   2.969   2.493   3.358  0.2382 -0.0427  0.4115
 6138TIP3    H118420   2.955   2.414   3.410  0.4717 -1.4565 -1.5361
 6138TIP3    H218421   3.064   2.500   3.350  0.2232 -1.0970 -1.4752
 6139TIP3   OH218422   4.189   4.853   3.648  0.1859 -0.4003 -0.6308
 6139TIP3    H118423   4.149   4.887   3.728 -0.4533  1.0187 -1.5202
 6139TIP3    H218424   4.136   4.889   3.577  0.9450 -1.3422 -1.7171
 6140TIP3   OH218425   1.887   1.102   4.498 -0.4491 -0.0335  0.6262
 6140TIP3    H118426   1.961   1.042   4.497 -0.2087  0.1055 -2.8544
 6140TIP3    H218427   1.926   1.189   4.494 -0.8390  0.2671  2.4151
 6141TIP3   OH218428   0.080   4.025   5.039  0.3684  0.0717 -0.4560
 6141TIP3    H118429  -0.014   4.017   5.023 -0.0620 -1.2753  2.2196
 6141TIP3    H218430   0.086   4.071   5.123  2.1046 -0.0003 -0.5093
 6142TIP3   OH218431   1.531   4.591   4.062 -0.5197 -0.2682 -0.0999
 6142TIP3    H118432   1.504   4.596   4.154 -0.2136 -0.7939  0.0266
 6142TIP3    H218433   1.613   4.541   4.064 -0.2342  0.1690 -0.6076
 6143TIP3   OH218434   0.527   4.977   2.975 -0.3964  0.1262 -0.2538
 6143TIP3    H118435   0.617   4.983   2.943  0.5138 -1.5746  1.7518
 6143TIP3    H218436   0.525   5.037   3.049 -1.4853  1.5021 -1.3554
 6144TIP3   OH218437   3.092   5.119   1.838 -0.0862 -0.1559  0.2888
 6144TIP3    H118438   3.038   5.097   1.762 -0.8205  3.8932 -0.5894
 6144TIP3    H218439   3.134   5.202   1.815  2.4477 -0.5092  3.0220
 6145TIP3   OH218440   1.895   0.051   4.448  0.8698  0.0366  0.1589
 6145TIP3    H118441   1.850   0.124   4.490  1.4203  0.0122  0.8198
 6145TIP3    H218442   1.831   0.014   4.388  1.5285  3.0874 -2.7641
 6146TIP3   OH218443   4.965   1.234   1.239  0.3420  0.0858 -0.1801
 6146TIP3    H118444   5.035   1.170   1.224  1.9479  1.5651  0.5243
 6146TIP3    H218445   4.947   1.227   1.333 -0.7953 -0.5763 -0.4344
 6147TIP3   OH218446   0.785   3.477   2.857  1.2466 -0.1933 -0.1956
 6147TIP3    H118447   0.719   3.431   2.806  0.4654  0.2411  0.4038
 6147TIP3    H218448   0.841   3.408   2.892 -0.4847 -0.8156  1.5020
 6148TIP3   OH218449  -0.010   5.194   0.923 -0.5933  0.7206  0.0949
 6148TIP3    H118450  -0.007   5.221   0.831 -0.7904  1.4650  0.3035
 6148TIP3    H218451   0.079   5.165   0.942 -0.6094  0.3279 -0.3973
 6149TIP3   OH218452   2.448   1.389   0.366 -0.4718  0.3421  0.2320
 6149TIP3    H118453   2.526   1.380   0.311 -1.5476 -3.3758 -0.9755
 6149TIP3    H218454   2.467   1.336   0.443 -0.7867  1.7282  1.2893
 6150TIP3   OH218455   5.155   4.230   4.547  0.3629 -0.2349 -0.4610
 6150TIP3    H118456   5.109   4.241   4.464  1.5163  2.3294 -0.8462
 6150TIP3    H218457   5.234   4.181   4.525  1.2291  1.4021 -1.1582
 6151TIP3   OH218458   1.429   2.574   1.882  0.6081  0.5304 -0.1162
 6151TIP3    H118459   1.504   2.525   1.849  0.4546  0.1418  0.1022
 6151TIP3    H218460   1.416   2.539   1.970 -1.4503 -1.3065 -1.0558
 6152TIP3   OH218461   0.982   1.287   2.162  0.2532  0.3200 -0.5909
 6152TIP3    H118462   0.908   1.227   2.173  1.3140 -0.8268  0.5938
 6152TIP3    H218463   1.056   1.230   2.143  1.3763  1.2084  0.9811
 6153TIP3   OH218464   4.467   3.953   0.893  0.6550 -0.3873  0.0548
 6153TIP3    H118465   4.500   4.043   0.886  0.6656 -0.1509  2.4631
 6153TIP3    H218466   4.519   3.914   0.963  0.5245 -2.2353 -0.8339
 6154TIP3   OH218467   5.792   0.791   3.279 -0.1483 -0.2886  0.3846
 6154TIP3    H118468   5.873   0.835   3.305 -0.0383 -1.1107  1.5079
 6154TIP3    H218469   5.722   0.853   3.301  0.0913 -0.0829  0.5654
 6155TIP3   OH218470   1.946   2.763   0.075  0.2779 -0.8167 -0.5694
 6155TIP3    H118471   1.969   2.690   0.132  0.8868 -0.4260 -0.3175
 6155TIP3    H218472   2.006   2.756   0.001  1.9134  0.7661  0.5443
 6156TIP3   OH218473   4.381   5.056   2.658  0.0274  0.1959 -0.0649
 6156TIP3    H118474   4.325   5.101   2.594 -0.8396  1.4269  1.4862
 6156TIP3    H218475   4.321   5.029   2.727  1.0223 -0.6305  0.4910
 6157TIP3   OH218476   3.680   5.878   2.034 -0.8664 -0.0521 -0.6283
 6157TIP3    H118477   3.730   5.797   2.049 -0.8502  0.0244 -0.2622
 6157TIP3    H218478   3.739   5.934   1.983 -0.9042 -0.2971 -0.9474
 6158TIP3   OH218479   2.030   5.527   2.074 -0.5282 -0.6103  0.0018
 6158TIP3    H118480   1.949   5.477   2.060 -0.3073 -0.5916 -1.4686
 6158TIP3    H218481   2.037   5.583   1.997 -0.6727  1.6238  1.4915
 6159TIP3   OH218482   0.728   4.495   0.716  0.5241  0.4390  0.9717
 6159TIP3    H118483   0.730   4.563   0.649 -1.3523 -0.2253  0.1876
 6159TIP3    H218484   0.821   4.476   0.732  1.0600  0.8030 -1.2592
 6160TIP3   OH218485   0.227   3.397   4.841 -0.4376  0.3043 -0.3243
 6160TIP3    H118486   0.259   3.307   4.855  0.4089  0.5345 -0.7434
 6160TIP3    H218487   0.226   3.436   4.929  0.7144  0.3803 -0.3325
 6161TIP3   OH218488   0.269   3.833   2.030  0.3995 -0.0236 -0.0760
 6161TIP3    H118489   0.293   3.753   2.076  1.6130  1.0870  1.3311
 6161TIP3    H218490   0.218   3.883   2.094  1.2218  1.1012 -0.2710
 6162TIP3   OH218491   2.338   2.090   3.683  0.2572 -0.5129 -0.0932
 6162TIP3    H118492   2.375   2.014   3.638 -3.0166 -1.7945 -0.9077
 6162TIP3    H218493   2.257   2.057   3.722  0.0075  2.0144  1.7194
 6163TIP3   OH218494   1.350   4.877   3.050  0.0265  0.7230 -0.5306
 6163TIP3    H118495   1.307   4.821   2.986  0.6458  1.8102 -1.9723
 6163TIP3    H218496   1.305   4.961   3.042  0.0883  0.8624  0.5071
 6164TIP3   OH218497   0.132   3.318   3.260  0.5256  0.2888 -0.4850
 6164TIP3    H118498   0.100   3.378   3.193 -0.8641 -1.4536 -1.4880
 6164TIP3    H218499   0.146   3.372   3.337  0.0418  1.9948 -1.5486
 6165TIP3   OH218500   2.411   5.610   1.182  0.0276  0.3998  0.0236
 6165TIP3    H118501   2.341   5.560   1.139 -0.8475  1.9408 -0.4098
 6165TIP3    H218502   2.390   5.606   1.275 -1.8813  2.5262 -0.2202
 6166TIP3   OH218503   0.959   2.380   1.817  0.4088 -0.0630  0.4996
 6166TIP3    H118504   1.006   2.305   1.781 -1.4050 -1.5704  1.1042
 6166TIP3    H218505   1.008   2.404   1.895 -0.0799 -1.9670  1.4415
 6167TIP3   OH218506   1.948   1.826   2.061 -0.5866  0.4414 -0.5132
 6167TIP3    H118507   1.889   1.891   2.023  0.6977  0.6178 -2.3411
 6167TIP3    H218508   2.030   1.873   2.074 -0.4055 -0.1620  0.6667
 6168TIP3   OH218509   3.652   1.420   4.677 -0.4084  0.4841 -0.3355
 6168TIP3    H118510   3.702   1.380   4.606  1.0594 -0.5490  1.1898
 6168TIP3    H218511   3.642   1.512   4.652 -0.8488 -0.0670 -2.3278
 6169TIP3   OH218512   3.292   1.828   4.151 -0.5718  0.4859  0.1909
 6169TIP3    H118513   3.300   1.733   4.163  0.2501  0.2045 -2.1057
 6169TIP3    H218514   3.198   1.845   4.150 -0.7356 -0.3815  0.1368
 6170TIP3   OH218515   2.982   4.150   3.764 -1.0550  0.4567 -0.4015
 6170TIP3    H118516   2.905   4.166   3.818 -1.6326  0.6540 -1.2738
 6170TIP3    H218517   3.056   4.174   3.820 -1.6402  0.6510  0.2984
 6171TIP3   OH218518   4.771   3.841   1.669 -0.0519 -0.3109  0.0060
 6171TIP3    H118519   4.841   3.826   1.605 -0.2107 -0.4791 -0.1277
 6171TIP3    H218520   4.741   3.930   1.651  0.3647 -0.1085  0.2918
 6172TIP3   OH218521   3.238   4.831   2.539 -0.6453 -0.2035 -0.4401
 6172TIP3    H118522   3.184   4.909   2.547 -0.3117  0.2126 -1.8951
 6172TIP3    H218523   3.179   4.758   2.557 -0.9789  0.3578  0.8644
 6173TIP3   OH218524   5.384   4.063   0.179  0.2276 -0.1416 -0.2848
 6173TIP3    H118525   5.464   4.085   0.225 -0.4385  1.2725  0.2448
 6173TIP3    H218526   5.412   4.042   0.090  1.2069 -0.0177 -0.0163
 6174TIP3   OH218527   2.984   3.295   4.197 -0.1850  0.6107 -0.2365
 6174TIP3    H118528   2.996   3.247   4.279 -0.1545 -0.4179 -0.8232
 6174TIP3    H218529   2.925   3.367   4.219 -1.6876 -0.7530  0.2894
 6175TIP3   OH218530   5.187   1.013   1.738  0.4106  0.5024  0.1059
 6175TIP3    H118531   5.201   1.063   1.657 -1.4276  0.7862 -0.0813
 6175TIP3    H218532   5.092   1.017   1.752  0.4689 -1.2133  1.2149
 6176TIP3   OH218533   5.943   1.677   0.745  0.1659  0.6327  0.3293
 6176TIP3    H118534   5.946   1.640   0.833  0.1298  0.3765  0.2230
 6176TIP3    H218535   5.891   1.615   0.694  1.2263  0.1391 -0.1804
 6177TIP3   OH218536   3.879   5.657   3.711 -0.4719  0.3842 -0.1807
 6177TIP3    H118537   3.819   5.582   3.711 -0.3825  0.3145 -0.4672
 6177TIP3    H218538   3.872   5.694   3.624 -0.8285  0.9667  0.0877
 6178TIP3   OH218539   3.643   1.241   1.568 -0.2738 -0.6732  0.3582
 6178TIP3    H118540   3.674   1.252   1.478 -0.0587  1.0556  0.6032
 6178TIP3    H218541   3.678   1.157   1.596  0.6667 -0.6798 -0.7717
 6179TIP3   OH218542   1.859   4.668   0.165 -0.2459  0.4048 -0.2284
 6179TIP3    H118543   1.836   4.654   0.073 -1.3334 -0.9814  0.2186
 6179TIP3    H218544   1.786   4.719   0.201 -0.2757  0.1579  0.0705
 6180TIP3   OH218545   1.784   0.414   2.330  0.0484  0.0696  0.6652
 6180TIP3    H118546   1.805   0.466   2.407  1.4944  1.1183 -0.3795
 6180TIP3    H218547   1.857   0.353   2.321 -0.4751 -0.5469  0.5321
 6181TIP3   OH218548   2.523   2.666   3.709  0.3423 -0.2817 -0.2508
 6181TIP3    H118549   2.469   2.698   3.781  0.1210 -0.5490 -0.2984
 6181TIP3    H218550   2.501   2.723   3.635  1.4283  0.7671  0.1829
 6182TIP3   OH218551   5.404   4.851   2.845 -0.4740  0.1173 -0.0516
 6182TIP3    H118552   5.495   4.877   2.857  0.2282 -1.7737 -0.7964
 6182TIP3    H218553   5.372   4.834   2.934  0.9137 -2.1588  0.1099
 6183TIP3   OH218554   5.456   2.071   1.657  0.5902 -0.3265  0.0793
 6183TIP3    H118555   5.426   2.161   1.671  0.4628 -0.2101 -0.8752
 6183TIP3    H218556   5.538   2.065   1.708  0.7475  0.4140 -0.0790
 6184TIP3   OH218557   1.321   1.901   4.356 -0.3010 -0.2361  0.0562
 6184TIP3    H118558   1.365   1.853   4.427  0.2289 -0.9499 -0.7427
 6184TIP3    H218559   1.373   1.881   4.278 -0.0268  1.6891 -0.3008
 6185TIP3   OH218560   1.971   0.946   4.855  0.2250 -0.2306  0.5810
 6185TIP3    H118561   1.890   0.914   4.816  0.2338 -0.4323  0.7335
 6185TIP3    H218562   1.965   0.925   4.947 -0.3053  1.2735  0.9270
 6186TIP3   OH218563   1.275   1.190   3.094 -0.3484  0.1499 -0.4081
 6186TIP3    H118564   1.213   1.248   3.138 -0.6425 -1.1365  0.9617
 6186TIP3    H218565   1.223   1.112   3.072  0.7894 -1.0577  0.9757
 6187TIP3   OH218566   5.433   3.372   3.634 -0.9603  0.4403 -0.0577
 6187TIP3    H118567   5.427   3.280   3.661  1.1430  0.5104  0.7753
 6187TIP3    H218568   5.446   3.369   3.539  1.7514 -0.3049  0.2647
 6188TIP3   OH218569   2.729   4.152   2.042  0.1315  0.7227 -0.0890
 6188TIP3    H118570   2.661   4.200   1.994  1.2391  1.4332 -0.9991
 6188TIP3    H218571   2.683   4.078   2.081 -1.2524  1.4446 -0.2840
 6189TIP3   OH218572   5.385   2.640   0.136  0.3290 -0.0072 -0.5644
 6189TIP3    H118573   5.336   2.629   0.055 -0.0926 -2.5289 -0.0416
 6189TIP3    H218574   5.357   2.726   0.170 -2.3457 -0.5421 -1.2210
 6190TIP3   OH218575   5.403   2.253   2.027 -0.0036  0.5694 -0.1380
 6190TIP3    H118576   5.314   2.283   2.045 -1.2003 -2.7169  0.0987
 6190TIP3    H218577   5.445   2.250   2.114 -0.7073 -0.7201  0.1823
 6191TIP3   OH218578   3.622   4.198   1.573  0.1995  0.4039 -0.2079
 6191TIP3    H118579   3.613   4.166   1.663  0.0013 -0.1255 -0.4169
 6191TIP3    H218580   3.661   4.285   1.583 -0.6415  0.7177  0.4422
 6192TIP3   OH218581   1.157   1.474   4.076  0.4804 -0.2917 -0.1767
 6192TIP3    H118582   1.145   1.532   4.001  1.8894 -2.6499 -2.3938
 6192TIP3    H218583   1.105   1.397   4.056  0.7973 -0.9520  1.3679
 6193TIP3   OH218584   0.269   5.096   4.152 -0.1045 -0.3159 -0.3791
 6193TIP3    H118585   0.206   5.099   4.225  1.9058 -0.5825  1.4828
 6193TIP3    H218586   0.219   5.063   4.078 -2.1735 -0.4098  0.9820
 6194TIP3   OH218587   2.909   2.952   2.119 -0.4000  0.2888  0.2337
 6194TIP3    H118588   2.938   2.965   2.209 -0.2541  1.5141  0.0260
 6194TIP3    H218589   2.818   2.983   2.119 -0.0651  1.3026 -0.2670
 6195TIP3   OH218590   4.472   0.148   1.977  0.2728  0.0050 -0.5520
 6195TIP3    H118591   4.506   0.189   2.056  0.3723 -0.6357 -0.2532
 6195TIP3    H218592   4.416   0.077   2.009  0.5782 -0.4694 -1.0525
 6196TIP3   OH218593   3.413   4.844   1.176  0.3358  0.4549 -0.3966
 6196TIP3    H118594   3.379   4.781   1.113 -0.1801  0.0151  0.3051
 6196TIP3    H218595   3.417   4.795   1.259 -0.3496  1.4186  0.2248
 6197TIP3   OH218596   4.779   2.713   0.308  0.0160 -0.0269 -0.0394
 6197TIP3    H118597   4.748   2.661   0.234 -1.0888  1.0636 -0.3794
 6197TIP3    H218598   4.725   2.792   0.307  1.0801  0.7666  0.9496
 6198TIP3   OH218599   5.187   5.599   5.076  0.1063  0.1802 -0.2538
 6198TIP3    H118600   5.188   5.563   5.165 -2.9740  1.4851  0.4492
 6198TIP3    H218601   5.254   5.667   5.077 -1.5804  1.9698  2.0242
 6199TIP3   OH218602   3.516   2.608   4.011 -0.0871  0.1196 -0.1853
 6199TIP3    H118603   3.503   2.696   4.045  0.0676  1.1606 -2.6373
 6199TIP3    H218604   3.509   2.617   3.916 -1.7195 -2.7863 -0.4654
 6200TIP3   OH218605   5.940   0.569   1.126  0.0942 -0.2094 -0.2932
 6200TIP3    H118606   5.936   0.534   1.038  1.0051  0.6719 -0.7068
 6200TIP3    H218607   6.002   0.513   1.172 -0.1643 -0.4939 -0.2868
 6201TIP3   OH218608   4.878   3.170   3.729 -0.2671  0.4414  0.1157
 6201TIP3    H118609   4.912   3.082   3.740  0.2685  0.2071 -2.7705
 6201TIP3    H218610   4.783   3.160   3.736 -0.1837 -0.2813  0.2927
 6202TIP3   OH218611   5.856   4.861   3.029  1.0640  0.1514 -0.1532
 6202TIP3    H118612   5.898   4.947   3.026 -0.0238  0.6982 -0.4254
 6202TIP3    H218613   5.861   4.829   2.939 -0.6986  1.0510 -0.6219
 6203TIP3   OH218614   6.021   4.057   0.084 -0.2362 -0.1307 -0.2343
 6203TIP3    H118615   5.938   4.009   0.085  0.8980 -2.2306 -0.3684
 6203TIP3    H218616   6.088   3.989   0.082  1.6363  1.3313  3.0233
 6204TIP3   OH218617   2.932   0.773   4.561 -0.3508 -0.2739  0.1491
 6204TIP3    H118618   3.027   0.777   4.546 -0.7251  0.9406 -2.4877
 6204TIP3    H218619   2.922   0.792   4.654  2.0053 -0.7842  0.5846
 6205TIP3   OH218620   3.368   4.691   1.408  0.1029  0.0377  0.0035
 6205TIP3    H118621   3.442   4.659   1.458 -1.1132  0.0934  1.9360
 6205TIP3    H218622   3.334   4.613   1.363  1.6582  0.1323 -1.4533
 6206TIP3   OH218623   1.780   3.498   2.310  0.0844 -0.7561  1.0237
 6206TIP3    H118624   1.776   3.462   2.222  1.1516  0.8103  0.2825
 6206TIP3    H218625   1.841   3.441   2.357  0.8244 -0.6447  0.2326
 6207TIP3   OH218626   5.845   2.174   2.519 -0.4717 -0.2912  0.5336
 6207TIP3    H118627   5.786   2.236   2.563  0.9098  1.5496 -0.0499
 6207TIP3    H218628   5.844   2.202   2.427 -2.3135 -3.2583 -0.4675
 6208TIP3   OH218629   4.789   3.461   3.833 -0.4603  0.0293  0.3032
 6208TIP3    H118630   4.759   3.422   3.750 -2.0632  0.5789  0.5799
 6208TIP3    H218631   4.836   3.390   3.877 -1.8390 -1.1044  0.0425
 6209TIP3   OH218632   4.626   5.740   0.080 -0.3987  0.1507 -0.1203
 6209TIP3    H118633   4.669   5.818   0.044 -0.1219  0.6095  1.1777
 6209TIP3    H218634   4.537   5.744   0.044  0.2474 -0.1894 -1.8950
 6210TIP3   OH218635   4.425   5.371   0.118 -0.8951  0.1846  0.2112
 6210TIP3    H118636   4.495   5.365   0.054 -1.3328 -2.2854 -0.1435
 6210TIP3    H218637   4.344   5.366   0.067 -1.2695 -0.3132  0.8295
 6211TIP3   OH218638   0.688   3.040   1.604  0.0876 -0.0196  0.7293
 6211TIP3    H118639   0.634   3.080   1.535 -0.5217 -0.0622  1.1721
 6211TIP3    H218640   0.717   2.957   1.566  2.5747  1.4048 -0.7689
 6212TIP3   OH218641   5.309   5.180   4.723 -0.4273 -0.2736  0.0662
 6212TIP3    H118642   5.317   5.225   4.639 -0.4080 -1.2815 -0.4975
 6212TIP3    H218643   5.363   5.231   4.783  0.2420 -0.0012 -0.7409
 6213TIP3   OH218644   5.841   0.165   3.986 -0.0642  0.3485 -0.0942
 6213TIP3    H118645   5.858   0.115   3.906 -0.6975  0.4927 -0.3189
 6213TIP3    H218646   5.900   0.125   4.051 -1.6601 -1.7881  0.1619
 6214TIP3   OH218647   4.259   5.950   0.269  0.6708  0.1144 -0.0430
 6214TIP3    H118648   4.258   5.875   0.211  0.2077 -0.0696  0.1961
 6214TIP3    H218649   4.189   6.007   0.236 -1.7021 -1.3596  2.0718
 6215TIP3   OH218650   4.224   4.251   1.908  0.3419 -0.2073 -0.1497
 6215TIP3    H118651   4.317   4.245   1.929  0.3648 -0.0085 -0.1922
 6215TIP3    H218652   4.199   4.339   1.938  0.5540  0.4056 -1.6760
 6216TIP3   OH218653   5.295   0.706   1.901 -0.0937  0.5761  0.1311
 6216TIP3    H118654   5.200   0.715   1.897 -0.4323 -1.4090  1.7769
 6216TIP3    H218655   5.314   0.627   1.851  0.6934  0.9536 -0.1754
 6217TIP3   OH218656   5.815   4.680   4.853 -0.0642  0.5040  0.0511
 6217TIP3    H118657   5.765   4.697   4.773 -1.2607  0.4891  0.7689
 6217TIP3    H218658   5.857   4.595   4.839 -1.0570  0.0467 -0.1790
 6218TIP3   OH218659   5.068   0.437   0.343  0.1741 -0.3232 -0.6869
 6218TIP3    H118660   5.107   0.359   0.383 -0.1077  0.0968  0.4336
 6218TIP3    H218661   4.984   0.408   0.309 -0.4492 -0.2747  0.7498
 6219TIP3   OH218662   1.115   3.548   3.231  0.0597 -0.0160  0.0612
 6219TIP3    H118663   1.080   3.604   3.301 -1.4637 -1.0121  0.1433
 6219TIP3    H218664   1.047   3.482   3.217  0.3476  0.1076 -2.3274
 6220TIP3   OH218665   5.773   4.488   3.924  0.0669  0.1309 -0.0867
 6220TIP3    H118666   5.817   4.405   3.908 -1.7727 -0.8498 -0.3275
 6220TIP3    H218667   5.831   4.553   3.884  1.9877 -0.8853  0.8819
 6221TIP3   OH218668   1.692   1.481   4.776 -0.2290  0.0101  0.3334
 6221TIP3    H118669   1.631   1.407   4.779  1.0369 -1.0644  0.3158
 6221TIP3    H218670   1.736   1.473   4.692  0.1488  0.6046  0.4645
 6222TIP3   OH218671   3.191   4.379   3.680 -0.9457  0.7390 -0.0240
 6222TIP3    H118672   3.264   4.432   3.712 -1.2976  0.8816  0.5692
 6222TIP3    H218673   3.202   4.295   3.724 -1.1258  0.7541  0.0510
 6223TIP3   OH218674   5.441   5.827   2.755  0.3013 -0.3451  0.5393
 6223TIP3    H118675   5.353   5.810   2.786  0.4681  1.4752  2.2032
 6223TIP3    H218676   5.498   5.776   2.812  0.3723 -1.6778 -0.6589
 6224TIP3   OH218677   2.560   2.606   4.038 -0.4765  0.1322 -0.0984
 6224TIP3    H118678   2.590   2.678   4.094  1.1038  0.0161 -0.7328
 6224TIP3    H218679   2.474   2.635   4.006  0.5406  2.2359 -1.1266
 6225TIP3   OH218680   4.280   3.784   4.353  1.0839  0.3655 -0.1761
 6225TIP3    H118681   4.325   3.788   4.437 -1.8343 -0.3855  1.5536
 6225TIP3    H218682   4.332   3.722   4.301  2.4946  0.2083  1.3324
 6226TIP3   OH218683   4.258   2.126  -0.003 -0.3479 -0.3333  0.1030
 6226TIP3    H118684   4.231   2.187   0.065  2.2118 -2.2510  3.1152
 6226TIP3    H218685   4.210   2.046   0.015  0.2210 -0.8103 -0.4383
 6227TIP3   OH218686   0.321   3.158   4.910  0.5048  0.5072  0.2633
 6227TIP3    H118687   0.302   3.110   4.991  1.7088  0.3364  0.4589
 6227TIP3    H218688   0.414   3.181   4.916  1.4364 -1.9611 -2.3187
 6228TIP3   OH218689   3.463   4.126   3.702  0.1275 -0.3664 -0.1165
 6228TIP3    H118690   3.439   4.181   3.628  0.3634 -0.5789 -0.3492
 6228TIP3    H218691   3.398   4.147   3.769  1.2397  1.5387  0.4631
 6229TIP3   OH218692   3.407   4.484   3.846 -0.6216  0.8813 -0.2301
 6229TIP3    H118693   3.462   4.500   3.769 -0.8341  1.5671 -0.2515
 6229TIP3    H218694   3.394   4.571   3.884 -3.5591  1.0952 -1.4885
 6230TIP3   OH218695   0.992   0.413   1.065 -0.1133  0.2410  0.2732
 6230TIP3    H118696   1.048   0.373   1.132  0.8467 -0.8443 -1.1218
 6230TIP3    H218697   0.905   0.376   1.082  0.5114 -1.5795 -0.2421
 6231TIP3   OH218698   3.251   2.948   4.610 -0.1866 -0.3744 -0.2388
 6231TIP3    H118699   3.262   2.941   4.705  0.4705 -1.0399 -0.3539
 6231TIP3    H218700   3.311   3.017   4.584 -1.4061  0.8218 -0.0108
 6232TIP3   OH218701   5.197   4.113   4.021  0.0448 -0.2268  0.4699
 6232TIP3    H118702   5.128   4.051   4.000 -2.5492  2.5243  0.1030
 6232TIP3    H218703   5.269   4.060   4.054 -1.8960 -3.3617  0.0067
 6233TIP3   OH218704   4.164   1.754   2.924 -0.0472  0.0280  0.5999
 6233TIP3    H118705   4.084   1.764   2.874 -0.0982  0.0667  0.6883
 6233TIP3    H218706   4.141   1.694   2.995 -0.1860  0.5652  1.0231
 6234TIP3   OH218707   2.286   1.205   3.667  0.0126  0.4490 -0.6560
 6234TIP3    H118708   2.270   1.159   3.585 -1.8846  0.1765 -0.1819
 6234TIP3    H218709   2.209   1.186   3.721  0.0814  2.5489  0.3008
 6235TIP3   OH218710   1.433   3.135   3.434 -0.2943 -0.0967 -0.9016
 6235TIP3    H118711   1.373   3.210   3.430 -1.9133 -1.3505 -1.6811
 6235TIP3    H218712   1.444   3.109   3.342  0.5121 -0.6253 -0.6677
 6236TIP3   OH218713   4.095   2.142   4.639  0.1374  0.8035  0.1660
 6236TIP3    H118714   4.187   2.168   4.640  0.3561  0.0846 -0.2541
 6236TIP3    H218715   4.055   2.194   4.570  0.0506  1.6573  0.8383
 6237TIP3   OH218716   5.707   2.834   0.811  0.0063  0.3071  0.1011
 6237TIP3    H118717   5.729   2.920   0.778 -0.7222  0.0093 -1.2209
 6237TIP3    H218718   5.704   2.844   0.906  1.8519  1.2570  0.0811
 6238TIP3   OH218719   1.871   1.664   4.464  0.6544 -0.8650 -0.2180
 6238TIP3    H118720   1.851   1.638   4.374  0.7306 -0.1645 -0.4397
 6238TIP3    H218721   1.888   1.581   4.509  0.8243 -1.2073 -0.8951
 6239TIP3   OH218722   0.311   2.512   3.822  0.4082 -0.1439  0.3356
 6239TIP3    H118723   0.219   2.496   3.802  0.4857 -1.1088  0.7347
 6239TIP3    H218724   0.315   2.607   3.838 -0.8663 -0.3354  2.0582
 6240TIP3   OH218725   4.257   2.780   4.142 -0.4745 -0.1973 -0.1665
 6240TIP3    H118726   4.189   2.713   4.132  0.2678 -0.5810 -4.2839
 6240TIP3    H218727   4.335   2.731   4.167 -0.9491 -0.1317  1.6040
 6241TIP3   OH218728   1.596   5.439   1.094  0.8607 -0.3979  0.1196
 6241TIP3    H118729   1.636   5.522   1.120  2.1331 -1.4658  1.8497
 6241TIP3    H218730   1.666   5.374   1.108 -0.8796 -2.0974  1.4156
 6242TIP3   OH218731   3.390   1.908   3.917 -0.0015  0.0533  0.1376
 6242TIP3    H118732   3.393   1.817   3.886  1.6622  0.1243  0.0499
 6242TIP3    H218733   3.363   1.900   4.009 -0.6916 -0.4533 -0.0951
 6243TIP3   OH218734   5.548   0.373   4.121 -0.0948 -0.6008  0.5263
 6243TIP3    H118735   5.532   0.429   4.046 -0.7921 -1.2855  0.1477
 6243TIP3    H218736   5.599   0.427   4.181  0.4675 -0.0510 -0.4306
 6244TIP3   OH218737   3.836   0.642   1.535 -0.2953 -0.3243 -0.4333
 6244TIP3    H118738   3.909   0.644   1.597  0.3534 -0.0294 -1.1872
 6244TIP3    H218739   3.826   0.550   1.512 -0.5458 -0.4339  0.1271
 6245TIP3   OH218740   2.166   3.697   2.457  0.1178 -0.3138 -0.5229
 6245TIP3    H118741   2.204   3.747   2.530  0.8116  0.4292 -1.3815
 6245TIP3    H218742   2.072   3.709   2.467  0.1778 -0.4871  0.4297
 6246TIP3   OH218743   5.945   5.645   1.919  0.3747  0.3727 -0.1720
 6246TIP3    H118744   6.022   5.590   1.930  0.5815  0.6568 -0.1874
 6246TIP3    H218745   5.898   5.639   2.002 -0.5848 -1.2970 -0.7673
 6247TIP3   OH218746   2.402   4.159   2.422 -1.0924 -0.1384  0.1052
 6247TIP3    H118747   2.385   4.086   2.363  0.6486 -0.7393  0.2972
 6247TIP3    H218748   2.315   4.190   2.448 -1.8870 -0.4353 -2.0345
 6248TIP3   OH218749   1.397   1.726   4.831 -0.6180 -0.0422 -0.2458
 6248TIP3    H118750   1.492   1.737   4.840 -0.6371 -0.9819  1.5350
 6248TIP3    H218751   1.364   1.815   4.821  0.2186  0.6857  2.4121
 6249TIP3   OH218752   0.259   2.975   5.144 -0.5727  0.4495  0.6420
 6249TIP3    H118753   0.261   3.005   5.234 -1.8381 -2.1864  1.6499
 6249TIP3    H218754   0.348   2.945   5.126 -0.6940 -0.5464  1.6225
 6250TIP3   OH218755   4.147   3.876   1.634 -0.1748 -0.0208 -0.0641
 6250TIP3    H118756   4.074   3.937   1.623  0.0108  0.2843  0.3246
 6250TIP3    H218757   4.217   3.930   1.672 -0.3602 -0.6909  1.3084
 6251TIP3   OH218758   2.446   1.144   4.108 -1.0529  0.2612 -0.1485
 6251TIP3    H118759   2.441   1.238   4.090 -3.0325  0.3306  0.4936
 6251TIP3    H218760   2.468   1.105   4.024 -0.4035  1.2740 -0.4748
 6252TIP3   OH218761   0.195   4.564   1.641  0.4997 -0.0699  0.3065
 6252TIP3    H118762   0.221   4.473   1.627  1.3064  0.2280 -0.2447
 6252TIP3    H218763   0.229   4.586   1.728  0.4483 -0.2436  0.3704
 6253TIP3   OH218764   3.461   2.507   3.764  0.3900 -0.2433  0.2720
 6253TIP3    H118765   3.542   2.454   3.765  0.6672  0.0883 -1.7463
 6253TIP3    H218766   3.393   2.446   3.735  0.5616  0.2876 -1.2904
 6254TIP3   OH218767   0.845   3.008   3.880  0.7363  0.6284 -0.5959
 6254TIP3    H118768   0.909   2.993   3.949 -1.2585  0.1136  1.2508
 6254TIP3    H218769   0.865   2.943   3.813  1.6901  0.0097  0.2634
 6255TIP3   OH218770   1.849   5.252   2.718  0.4987  0.1239  0.6281
 6255TIP3    H118771   1.874   5.341   2.743 -1.1041  0.7441  0.1488
 6255TIP3    H218772   1.883   5.241   2.629 -2.7790  1.8965 -1.0502
 6256TIP3   OH218773   3.379   5.288   4.868 -0.3719 -0.1176 -0.8571
 6256TIP3    H118774   3.357   5.205   4.911  1.5562 -0.9894 -1.4140
 6256TIP3    H218775   3.334   5.355   4.920 -1.4930 -1.4526 -0.0281
 6257TIP3   OH218776   6.101   1.845   2.890 -0.0099 -0.3560  0.3884
 6257TIP3    H118777   6.191   1.872   2.872  0.4589 -2.3567 -0.5636
 6257TIP3    H218778   6.082   1.779   2.823 -3.1657  1.8837 -1.1946
 6258TIP3   OH218779   1.075   4.178   2.930  0.2378 -0.7289 -0.0082
 6258TIP3    H118780   1.033   4.193   2.845 -1.2027  1.4299  1.0122
 6258TIP3    H218781   1.003   4.152   2.988  0.5389  1.2602  1.3484
 6259TIP3   OH218782   0.967   3.908   0.682 -0.0874 -0.3744  0.0269
 6259TIP3    H118783   0.907   3.963   0.732  0.9617  1.2544 -0.4451
 6259TIP3    H218784   0.921   3.889   0.601  0.2012  1.3272 -0.5718
 6260TIP3   OH218785   1.456   2.163   0.870 -0.1762  0.1688 -0.0990
 6260TIP3    H118786   1.456   2.259   0.863  0.0225  0.0698 -1.7833
 6260TIP3    H218787   1.542   2.142   0.907 -0.5685  0.6638  1.1663
 6261TIP3   OH218788   1.868   4.667   0.760 -0.6910  0.1642  0.0332
 6261TIP3    H118789   1.839   4.632   0.676 -0.1888  0.0662 -0.1021
 6261TIP3    H218790   1.925   4.600   0.797 -0.1250  0.6174  0.0020
 6262TIP3   OH218791   3.311   4.518   4.863  0.1431  0.4679  0.5411
 6262TIP3    H118792   3.274   4.579   4.927 -0.4518  1.2309 -0.5025
 6262TIP3    H218793   3.351   4.575   4.797 -0.9943 -0.2237 -0.7949
 6263TIP3   OH218794   3.887   2.174   1.358 -0.1083 -0.0767 -0.1870
 6263TIP3    H118795   3.970   2.130   1.375 -0.4635 -0.8941 -0.4916
 6263TIP3    H218796   3.831   2.147   1.431 -0.6477 -0.9933 -0.9197
 6264TIP3   OH218797   5.710   0.173   2.092 -0.2618 -0.1884 -0.0300
 6264TIP3    H118798   5.696   0.262   2.124  0.4963 -0.3381  0.7518
 6264TIP3    H218799   5.646   0.162   2.021  1.4588  1.9235 -2.0574
 6265TIP3   OH218800   4.171   4.915   2.871  0.1101  0.3557  0.2238
 6265TIP3    H118801   4.198   4.834   2.914 -0.9659 -0.6455 -0.8811
 6265TIP3    H218802   4.087   4.937   2.911 -2.0620 -1.8250 -2.6368
 6266TIP3   OH218803   2.994   1.336   1.295  0.0087 -0.1352  0.0828
 6266TIP3    H118804   2.911   1.374   1.324 -0.3373 -1.3536  0.7630
 6266TIP3    H218805   2.982   1.241   1.306  1.8055 -0.2865  1.0512
 6267TIP3   OH218806   1.578   0.581   0.701  0.0632  0.3297 -0.0579
 6267TIP3    H118807   1.566   0.568   0.795  0.0624 -1.8888 -0.2916
 6267TIP3    H218808   1.490   0.595   0.667  0.1691  2.1808  0.3707
 6268TIP3   OH218809   6.173   3.280   4.266  0.1021 -0.1328  0.9541
 6268TIP3    H118810   6.192   3.194   4.227  1.5689 -0.1036  1.5312
 6268TIP3    H218811   6.237   3.289   4.337 -2.0926  0.0679  3.0429
 6269TIP3   OH218812   1.624   2.427   1.723  0.6185 -0.2905  0.2490
 6269TIP3    H118813   1.684   2.364   1.763  0.5938 -0.6882 -0.3305
 6269TIP3    H218814   1.653   2.433   1.631 -2.9208 -3.9663 -1.4043
 6270TIP3   OH218815   5.867   1.153   4.897 -0.4938 -0.3593  0.5917
 6270TIP3    H118816   5.895   1.191   4.814 -1.5700  1.0676  0.8485
 6270TIP3    H218817   5.864   1.227   4.957 -2.4697 -0.8630  1.1746
 6271TIP3   OH218818   3.409   3.317   4.933 -0.3020  0.3023  0.3464
 6271TIP3    H118819   3.484   3.266   4.903  0.7196  2.3368 -0.7588
 6271TIP3    H218820   3.340   3.300   4.869  0.6263  1.6311 -1.0822
 6272TIP3   OH218821   2.126   0.678   2.567 -0.0348 -0.1864 -0.5645
 6272TIP3    H118822   2.063   0.659   2.498 -1.5667 -1.9789  1.2251
 6272TIP3    H218823   2.211   0.661   2.527 -0.8456 -0.5851 -2.1858
 6273TIP3   OH218824   3.069   0.567   1.015  0.3485 -0.0801  0.1145
 6273TIP3    H118825   3.095   0.659   1.009  2.0899 -0.5823 -1.0490
 6273TIP3    H218826   3.079   0.545   1.107  0.2852  0.8087  0.3407
 6274TIP3   OH218827   0.254   3.987   1.797  0.6208  0.1029 -0.8306
 6274TIP3    H118828   0.261   3.950   1.885  1.8165  1.0758 -0.4809
 6274TIP3    H218829   0.168   4.029   1.795  1.1935  1.4451  0.4660
 6275TIP3   OH218830   5.692   2.116   1.857 -0.1824  0.1466 -0.3577
 6275TIP3    H118831   5.670   2.210   1.857 -1.8929 -0.2159 -1.0919
 6275TIP3    H218832   5.772   2.111   1.805 -0.7404  1.0929 -1.3753
 6276TIP3   OH218833   3.954   1.116   0.806  0.1446  0.2726  0.1112
 6276TIP3    H118834   4.011   1.054   0.853 -0.3941  1.1036  1.9357
 6276TIP3    H218835   4.014   1.183   0.773  0.4756 -0.0535  0.0378
 6277TIP3   OH218836   0.138   4.715   1.392  0.0320  0.0898  0.2085
 6277TIP3    H118837   0.045   4.729   1.375 -0.1654  0.6398  1.6582
 6277TIP3    H218838   0.140   4.662   1.472  0.9547 -1.1101 -0.5742
 6278TIP3   OH218839   1.911   0.054   4.111 -0.2242  0.1124  0.5254
 6278TIP3    H118840   1.930  -0.038   4.097 -0.2212  0.3273 -0.9985
 6278TIP3    H218841   1.986   0.101   4.073 -0.4926  0.7608  0.7709
 6279TIP3   OH218842   1.621   4.599   1.932 -1.0278 -0.5436 -0.6816
 6279TIP3    H118843   1.540   4.567   1.974 -0.8221 -1.3725 -0.8841
 6279TIP3    H218844   1.676   4.521   1.926 -0.1366  0.0548 -0.3865
 6280TIP3   OH218845   2.636   4.370   0.029  0.4613 -0.0596  0.0420
 6280TIP3    H118846   2.696   4.415  -0.030  0.5970  0.9298  0.8996
 6280TIP3    H218847   2.687   4.298   0.065  0.3566 -0.7135 -1.0745
 6281TIP3   OH218848   5.522   5.243   0.783  0.4223  0.1450  0.1837
 6281TIP3    H118849   5.577   5.183   0.832  1.2723  0.9421  0.2427
 6281TIP3    H218850   5.515   5.204   0.696  0.1147 -0.5422  0.5104
 6282TIP3   OH218851   5.246   1.474   4.841  0.4041  0.5235  0.1693
 6282TIP3    H118852   5.294   1.435   4.914 -0.0044  0.6599  0.5146
 6282TIP3    H218853   5.309   1.533   4.799  0.1498  1.7264  1.4309
 6283TIP3   OH218854   6.209   0.945   0.405  0.7606 -0.0232  0.0025
 6283TIP3    H118855   6.210   0.928   0.311  0.0446  0.3378 -0.0766
 6283TIP3    H218856   6.116   0.945   0.429  0.9662 -0.7563  0.8341
 6284TIP3   OH218857   5.253   4.992   2.318 -0.0078 -0.3619 -0.1837
 6284TIP3    H118858   5.287   4.992   2.408 -0.0724  0.1197 -0.1533
 6284TIP3    H218859   5.214   5.079   2.308 -0.1352 -0.4698 -0.6290
 6285TIP3   OH218860   2.786   2.239   3.863  0.2759  0.1758 -0.3048
 6285TIP3    H118861   2.766   2.265   3.954 -0.2929 -1.8731  0.1991
 6285TIP3    H218862   2.701   2.236   3.820  0.5158  0.8422 -0.8404
 6286TIP3   OH218863   0.106   2.899   1.300  0.1146  0.1485 -0.2601
 6286TIP3    H118864   0.011   2.906   1.307  0.1067  0.5169 -0.7257
 6286TIP3    H218865   0.121   2.813   1.259 -0.1599  1.4048 -3.1937
 6287TIP3   OH218866   5.331   4.289   1.765 -0.6576 -0.0219 -0.5476
 6287TIP3    H118867   5.408   4.291   1.709  0.2457 -0.1916  0.6444
 6287TIP3    H218868   5.331   4.200   1.802 -0.9988  0.2126  0.0285
 6288TIP3   OH218869   5.883   0.930   2.375  0.1448  0.0180  0.9845
 6288TIP3    H118870   5.899   0.939   2.281  0.7969 -0.1307  1.0812
 6288TIP3    H218871   5.948   0.866   2.404 -0.3047 -0.2241  1.4682
 6289TIP3   OH218872   3.490   4.359   2.625 -0.0956 -0.0666  0.2520
 6289TIP3    H118873   3.551   4.411   2.677  2.3686 -1.4305 -1.1057
 6289TIP3    H218874   3.489   4.273   2.667 -1.0132 -0.1076  0.1734
 6290TIP3   OH218875   3.432   0.244   4.827  0.8515 -0.2081  0.3569
 6290TIP3    H118876   3.348   0.238   4.782  1.8336  1.8464 -1.9941
 6290TIP3    H218877   3.409   0.263   4.918 -1.2149 -1.0774  0.0593
 6291TIP3   OH218878   0.521   0.586   3.960  0.5862  0.5008  0.3288
 6291TIP3    H118879   0.585   0.617   4.025  0.4349  1.7876 -0.0992
 6291TIP3    H218880   0.447   0.647   3.969  0.6521  0.8408 -1.1786
 6292TIP3   OH218881   1.630   3.408   4.881  0.4548  0.3340  0.0057
 6292TIP3    H118882   1.556   3.451   4.839  1.3170  1.0063 -0.8723
 6292TIP3    H218883   1.679   3.368   4.809  1.1512  0.2336  0.5179
 6293TIP3   OH218884   0.821   1.344   0.757  0.2554 -0.6315 -0.2871
 6293TIP3    H118885   0.787   1.273   0.704  0.2612 -0.7568 -0.1228
 6293TIP3    H218886   0.743   1.391   0.787  0.2264 -0.9116  0.0795
 6294TIP3   OH218887   2.809   2.682   3.079  0.2209 -0.3213 -0.2363
 6294TIP3    H118888   2.781   2.672   3.170 -0.0493  0.9255 -0.1587
 6294TIP3    H218889   2.729   2.701   3.031  0.7117  2.3317 -0.1647
 6295TIP3   OH218890   3.203   1.433   4.895 -0.3540 -0.2014  0.3048
 6295TIP3    H118891   3.286   1.428   4.848 -1.8895 -3.4391 -2.4944
 6295TIP3    H218892   3.168   1.519   4.873  1.1367  0.2337 -0.4966
 6296TIP3   OH218893   0.782   0.921   3.453  0.2476 -0.4112  0.3770
 6296TIP3    H118894   0.717   0.992   3.453  0.3354 -0.2805 -1.9059
 6296TIP3    H218895   0.865   0.965   3.469  0.0465 -0.3263  1.2684
 6297TIP3   OH218896   6.180   0.778   4.456  0.3613 -0.1466 -0.1503
 6297TIP3    H118897   6.227   0.695   4.462  0.3649 -0.2700 -1.5151
 6297TIP3    H218898   6.178   0.798   4.362  0.5373  1.4910  0.1560
 6298TIP3   OH218899   5.530   2.318   3.338  0.6244  0.3035  1.0784
 6298TIP3    H118900   5.598   2.341   3.273 -0.6070 -0.0946 -0.4049
 6298TIP3    H218901   5.545   2.225   3.356  0.1494  0.0639  0.3053
 6299TIP3   OH218902   6.267   1.662   0.358  0.3491 -0.3432 -0.7713
 6299TIP3    H118903   6.197   1.662   0.424 -0.3607 -0.1721 -1.4973
 6299TIP3    H218904   6.263   1.575   0.319  0.4363 -0.2834 -0.9146
 6300TIP3   OH218905   2.493   4.236   1.595  0.1155 -0.1669  0.0172
 6300TIP3    H118906   2.559   4.241   1.526  1.8638 -1.1899  1.5380
 6300TIP3    H218907   2.481   4.142   1.610 -1.1920  0.0133  0.2614
 6301TIP3   OH218908   0.320   3.348   1.660  0.0970 -0.2527 -0.3809
 6301TIP3    H118909   0.282   3.353   1.748  1.1025 -0.5985  0.0888
 6301TIP3    H218910   0.259   3.294   1.610 -1.8282  1.9870 -0.6533
 6302TIP3   OH218911   0.355   3.280   2.921 -0.4157  0.3354 -0.1614
 6302TIP3    H118912   0.407   3.247   2.994 -0.6149 -1.2977 -0.7010
 6302TIP3    H218913   0.411   3.270   2.844 -0.4222  1.4780 -0.3306
 6303TIP3   OH218914   1.724   2.744   1.885  0.2607  0.1754  0.1479
 6303TIP3    H118915   1.783   2.669   1.882  0.0483  0.0189 -0.1441
 6303TIP3    H218916   1.674   2.733   1.966 -1.4583 -1.2877 -1.0550
 6304TIP3   OH218917   3.623   2.741   3.759 -0.2382  0.0824 -0.1104
 6304TIP3    H118918   3.647   2.782   3.675  1.6052 -1.0354 -0.1699
 6304TIP3    H218919   3.589   2.655   3.734  0.6486 -0.3950  0.2897
 6305TIP3   OH218920   0.380   5.745   2.428  0.1364  0.7161 -1.1530
 6305TIP3    H118921   0.305   5.697   2.464  1.5263  0.4324  1.6331
 6305TIP3    H218922   0.404   5.694   2.351  0.1220 -1.8460  0.3885
 6306TIP3   OH218923   0.877   1.056   4.894 -0.1631 -0.7341 -0.2714
 6306TIP3    H118924   0.794   1.095   4.921 -0.4543 -0.5964 -1.3061
 6306TIP3    H218925   0.865   1.038   4.800  1.0512 -0.4777 -0.4897
 6307TIP3   OH218926   6.293   4.194   0.425  0.0590  0.0339  0.5463
 6307TIP3    H118927   6.204   4.161   0.436  0.2526 -0.2487  1.3250
 6307TIP3    H218928   6.349   4.118   0.436  0.4301  0.3135  0.6276
 6308TIP3   OH218929   5.850   2.700   3.172  0.5288  0.2394  0.2468
 6308TIP3    H118930   5.929   2.744   3.141  0.0140  0.2486 -1.1118
 6308TIP3    H218931   5.779   2.743   3.126  0.0167 -2.1395 -1.3609
 6309TIP3   OH218932   1.303   0.634   0.657 -0.2435 -0.5331  0.6943
 6309TIP3    H118933   1.289   0.543   0.631  0.6444 -0.0362 -1.8622
 6309TIP3    H218934   1.215   0.670   0.665 -0.7263 -0.6362 -2.5307
 6310TIP3   OH218935   5.332   4.759   3.523  0.0767  0.1957 -0.3514
 6310TIP3    H118936   5.394   4.754   3.451 -1.4723  1.2064 -1.8253
 6310TIP3    H218937   5.330   4.670   3.559  0.8931 -0.3295 -1.5426
 6311TIP3   OH218938   1.519   0.217   4.379 -0.3088  0.6169  0.3677
 6311TIP3    H118939   1.562   0.164   4.313 -0.2876  0.7163  0.3024
 6311TIP3    H218940   1.507   0.302   4.338 -2.8547 -0.0984 -0.5653
 6312TIP3   OH218941   0.270   4.908   5.121  0.0215  0.7349 -0.0270
 6312TIP3    H118942   0.218   4.828   5.125  1.6598 -0.3613  0.9632
 6312TIP3    H218943   0.206   4.979   5.117 -1.4932 -0.5890 -0.1435
 6313TIP3   OH218944   3.451   2.975   1.231  0.6744 -0.4148 -0.1506
 6313TIP3    H118945   3.447   3.065   1.199  0.2664  0.0612  1.1704
 6313TIP3    H218946   3.532   2.970   1.281  0.9407 -0.9333 -0.6189
 6314TIP3   OH218947   2.000   5.839   1.503  0.0861 -0.0768  0.0186
 6314TIP3    H118948   2.046   5.899   1.561  0.5392  0.4360 -0.8396
 6314TIP3    H218949   2.061   5.824   1.431 -0.5711 -0.4557 -0.4742
 6315TIP3   OH218950   0.502   2.026   3.476 -0.5329  0.1999  0.3998
 6315TIP3    H118951   0.555   1.953   3.443 -0.0693  0.5403  0.3872
 6315TIP3    H218952   0.565   2.084   3.518 -0.8178  0.8791 -0.0914
 6316TIP3   OH218953   1.627   0.224   1.675  0.4814 -0.0245 -0.3641
 6316TIP3    H118954   1.666   0.275   1.604  1.2223 -1.2905 -0.9012
 6316TIP3    H218955   1.555   0.176   1.633  0.5219 -0.3011 -0.1240
 6317TIP3   OH218956   2.609   0.562   2.866  0.2073 -1.1220 -0.0548
 6317TIP3    H118957   2.565   0.522   2.942  2.0354 -2.2236  0.4831
 6317TIP3    H218958   2.692   0.515   2.859  1.3851  0.9795 -0.9430
 6318TIP3   OH218959   4.134   5.881   1.021  0.1803 -0.2610 -0.1932
 6318TIP3    H118960   4.127   5.804   0.965 -1.1552 -0.3461  0.0667
 6318TIP3    H218961   4.175   5.849   1.101  0.8407 -0.4176 -0.5839
 6319TIP3   OH218962   5.387   0.673   2.163 -0.2695  0.3557  0.2012
 6319TIP3    H118963   5.383   0.579   2.145  0.0992  0.7560 -2.3205
 6319TIP3    H218964   5.333   0.713   2.096  1.5039  2.0900 -0.2999
 6320TIP3   OH218965   6.022   5.535   1.675 -0.0172 -0.1115 -0.3788
 6320TIP3    H118966   5.988   5.448   1.694  0.6757 -0.1516  0.7671
 6320TIP3    H218967   5.991   5.589   1.748  1.7589  0.0051  0.3140
 6321TIP3   OH218968   2.771   1.542   3.251 -0.2819  0.6495  0.3711
 6321TIP3    H118969   2.741   1.626   3.215 -1.3953  0.8165  1.6171
 6321TIP3    H218970   2.690   1.491   3.263  0.2922 -0.2541  0.4987
 6322TIP3   OH218971   1.943   2.399   2.608  0.8556 -0.0543  0.1043
 6322TIP3    H118972   1.887   2.328   2.639  1.8735 -0.8825  0.0862
 6322TIP3    H218973   2.014   2.404   2.672 -0.5454  2.7514  1.6193
 6323TIP3   OH218974   6.197   4.223   0.866 -0.1935 -0.2947  0.2864
 6323TIP3    H118975   6.125   4.173   0.904 -1.6076  0.3983 -1.3219
 6323TIP3    H218976   6.259   4.157   0.835  0.1038 -0.8894  2.0854
 6324TIP3   OH218977   5.986   3.593   5.070 -0.1062  0.1073 -0.0587
 6324TIP3    H118978   6.069   3.551   5.047  0.4331 -0.4730  2.5914
 6324TIP3    H218979   5.921   3.524   5.060  0.2554 -0.3959  0.8652
 6325TIP3   OH218980   5.387   5.840   1.018 -0.3422  0.2014  0.5110
 6325TIP3    H118981   5.414   5.757   0.978  1.3557  0.1947  1.5815
 6325TIP3    H218982   5.345   5.814   1.100  0.0131  0.3853  0.7524
 6326TIP3   OH218983   5.806   2.724   2.655  0.2556  0.2566  0.2887
 6326TIP3    H118984   5.798   2.819   2.642 -0.6442  0.2212  0.5136
 6326TIP3    H218985   5.896   2.704   2.630  0.3261  1.1023 -0.1716
 6327TIP3   OH218986   5.891   1.563   1.297  0.3254 -0.5757 -0.5507
 6327TIP3    H118987   5.896   1.541   1.389 -2.3419  0.4887 -0.0488
 6327TIP3    H218988   5.798   1.580   1.281  0.7877 -0.0478 -3.2656
 6328TIP3   OH218989   3.239   4.655   4.355 -0.2884  0.2120 -0.4365
 6328TIP3    H118990   3.179   4.701   4.297  0.3783  3.9549  1.5219
 6328TIP3    H218991   3.325   4.690   4.334  0.3047 -0.2754  1.0463
 6329TIP3   OH218992   3.261   5.844   3.885 -0.1787 -0.0066 -0.4908
 6329TIP3    H118993   3.256   5.852   3.980  1.0714 -0.3604 -0.3776
 6329TIP3    H218994   3.347   5.805   3.869  0.2495  1.4004 -1.8326
 6330TIP3   OH218995   1.316   0.755   3.780  0.6655  0.0567  0.1742
 6330TIP3    H118996   1.240   0.770   3.724  1.2691 -1.1958 -1.0376
 6330TIP3    H218997   1.382   0.817   3.747  0.3091  0.9271  1.0278
 6331TIP3   OH218998   3.018   4.577   2.421 -0.6577 -0.7171  0.1986
 6331TIP3    H118999   2.973   4.605   2.341  0.4487 -1.2063 -0.6172
 6331TIP3    H219000   3.095   4.529   2.390 -0.0249 -0.6280  1.5576
 6332TIP3   OH219001   2.876   2.530   4.261  0.1683 -0.0408 -0.0908
 6332TIP3    H119002   2.871   2.602   4.198  0.6340  0.8623  0.8637
 6332TIP3    H219003   2.786   2.520   4.294  0.1307  0.2132 -0.1166
 6333TIP3   OH219004   2.478   5.134   0.730 -0.0437  0.1167 -0.6366
 6333TIP3    H119005   2.515   5.141   0.641  0.7495 -1.8091 -0.5020
 6333TIP3    H219006   2.553   5.115   0.785 -0.6898  0.2609  0.3066
 6334TIP3   OH219007   4.075   3.950   4.218 -0.0738  0.1299  0.4621
 6334TIP3    H119008   4.135   3.889   4.262 -0.5078 -0.2462  0.5506
 6334TIP3    H219009   4.131   4.018   4.182  0.5529 -0.9317 -0.6413
 6335TIP3   OH219010   1.317   5.329   3.167  0.1571  0.3144  0.0024
 6335TIP3    H119011   1.291   5.415   3.133  2.3408  1.0689  0.0277
 6335TIP3    H219012   1.336   5.346   3.260 -0.0581 -0.3613  0.1712
 6336TIP3   OH219013   2.930   2.937   2.378 -0.1537 -0.2674 -0.7318
 6336TIP3    H119014   2.871   2.960   2.450 -0.6650  1.0559 -1.5346
 6336TIP3    H219015   3.018   2.946   2.414 -0.4152 -0.6817  0.0235
 6337TIP3   OH219016   3.588   0.347   3.753 -0.2378  0.9379  0.4720
 6337TIP3    H119017   3.628   0.289   3.688 -0.2074  0.9108  0.5149
 6337TIP3    H219018   3.493   0.334   3.741 -0.3068  2.5809 -1.0727
 6338TIP3   OH219019   4.974   2.018   1.899  0.3485 -0.0982  0.0003
 6338TIP3    H119020   5.015   2.026   1.986 -1.6513 -0.3654  1.0143
 6338TIP3    H219021   4.898   1.962   1.914  0.0255 -0.2346 -1.9701
 6339TIP3   OH219022   3.605   2.540   1.307  0.1789 -0.0588  0.3528
 6339TIP3    H119023   3.698   2.530   1.325  0.5507  1.1949 -0.7330
 6339TIP3    H219024   3.595   2.518   1.215 -0.6925 -0.6653  0.5763
 6340TIP3   OH219025   4.786   0.976   0.457  0.3523  0.4914  0.3242
 6340TIP3    H119026   4.848   1.011   0.394  0.6052 -2.4135 -1.2037
 6340TIP3    H219027   4.700   0.987   0.416  0.2778  0.6638  0.5224
 6341TIP3   OH219028   2.721   5.744   3.492 -0.0912 -0.5950 -0.0789
 6341TIP3    H119029   2.657   5.675   3.480 -1.3411  0.5189  0.0178
 6341TIP3    H219030   2.750   5.768   3.404 -3.0027  1.7844 -0.5410
 6342TIP3   OH219031   5.925   0.923   5.020 -0.2673  0.3932 -0.1992
 6342TIP3    H119032   5.873   0.981   4.964 -2.8866 -1.7503 -0.1772
 6342TIP3    H219033   5.938   0.844   4.967 -0.1510 -0.4909  1.1140
 6343TIP3   OH219034   4.896   2.789   2.584 -0.0316  0.8422  0.0549
 6343TIP3    H119035   4.884   2.766   2.492  0.1127  2.1093 -0.2995
 6343TIP3    H219036   4.989   2.773   2.600  0.0060  0.8958 -0.1042
 6344TIP3   OH219037   0.479   3.578   3.532 -0.1035 -0.2559  0.1642
 6344TIP3    H119038   0.490   3.589   3.626 -1.4819 -0.3672  0.3550
 6344TIP3    H219039   0.460   3.667   3.500 -2.1228 -0.5643  0.3814
 6345TIP3   OH219040   3.769   5.223   3.097  0.1159 -0.3390 -0.8571
 6345TIP3    H119041   3.688   5.259   3.133  0.9684  0.0446  0.8000
 6345TIP3    H219042   3.742   5.144   3.050 -1.2176 -0.1749 -0.3927
 6346TIP3   OH219043   4.522   4.277   2.681 -0.1961  0.0503  0.1357
 6346TIP3    H119044   4.592   4.342   2.690 -0.2443 -0.1905  3.4798
 6346TIP3    H219045   4.554   4.201   2.729 -1.7574 -0.9652 -0.3572
 6347TIP3   OH219046   2.961   2.115   4.011  0.0354  0.2768 -0.1768
 6347TIP3    H119047   2.905   2.161   3.949 -1.2690 -0.8383  0.1418
 6347TIP3    H219048   3.046   2.109   3.967 -0.4725  0.7436 -1.2494
 6348TIP3   OH219049   0.247   3.490   0.273 -0.4259 -0.6927 -0.2066
 6348TIP3    H119050   0.309   3.560   0.293 -1.5029  0.2510 -0.1087
 6348TIP3    H219051   0.274   3.457   0.187  0.2284 -0.3275 -0.1461
 6349TIP3   OH219052   1.977   2.702   3.968 -0.1392 -0.2211 -0.3837
 6349TIP3    H119053   1.944   2.791   3.954  0.8921 -0.0479 -2.0343
 6349TIP3    H219054   1.959   2.657   3.885  0.2712 -1.2516  0.0746
 6350TIP3   OH219055   3.288   3.801   4.120 -0.0847  0.2073 -0.3227
 6350TIP3    H119056   3.278   3.809   4.215 -1.3438  0.2771 -0.4446
 6350TIP3    H219057   3.365   3.745   4.109 -0.5836 -0.7553  0.7626
 6351TIP3   OH219058   0.481   0.676   1.834  0.3132 -0.6265  0.1594
 6351TIP3    H119059   0.546   0.613   1.865  0.0862 -1.2391 -0.5719
 6351TIP3    H219060   0.523   0.761   1.845  0.9523 -0.9634  0.3943
 6352TIP3   OH219061   1.100   0.713   3.472 -0.3451  0.5226  0.3338
 6352TIP3    H119062   1.082   0.706   3.378  1.2506 -0.9647  0.0773
 6352TIP3    H219063   1.153   0.636   3.492 -0.2604  1.0443  2.3824
 6353TIP3   OH219064   0.319   5.827   1.117  0.6531  0.2969  0.4031
 6353TIP3    H119065   0.311   5.922   1.107  2.8444  0.4519 -0.3278
 6353TIP3    H219066   0.289   5.809   1.206 -2.0279  1.3129 -0.1751
 6354TIP3   OH219067   0.115   1.100   1.981 -0.7741  0.4144  0.0885
 6354TIP3    H119068   0.092   1.153   1.905 -1.2221 -0.8043 -0.6561
 6354TIP3    H219069   0.202   1.066   1.961 -0.6143  0.6317  0.4195
 6355TIP3   OH219070   0.722   4.779   4.914 -0.4453 -0.4638  0.1669
 6355TIP3    H119071   0.701   4.693   4.878  2.0231 -1.3495  0.6797
 6355TIP3    H219072   0.782   4.819   4.851  0.2820 -0.1167  1.0472
 6356TIP3   OH219073   0.479   3.465   0.908  0.2237 -0.1016  0.3945
 6356TIP3    H119074   0.510   3.375   0.900  3.5524  0.9737 -0.1901
 6356TIP3    H219075   0.416   3.475   0.836  0.8439 -1.5644 -0.3929
 6357TIP3   OH219076   0.897   1.771   0.671  0.4310  0.1754  0.3323
 6357TIP3    H119077   0.904   1.856   0.715 -0.1850 -0.5630  1.9388
 6357TIP3    H219078   0.952   1.779   0.594 -0.2893  2.3264 -0.0228
 6358TIP3   OH219079   3.496   0.600   3.813  0.3758  0.1585 -0.2755
 6358TIP3    H119080   3.524   0.564   3.729  1.2868  1.3102 -0.4878
 6358TIP3    H219081   3.523   0.534   3.878  2.3623  0.5914 -0.6087
 6359TIP3   OH219082   0.671   4.736   2.523 -0.0256  0.2473  0.2583
 6359TIP3    H119083   0.613   4.793   2.573 -0.4850  0.5531 -0.6061
 6359TIP3    H219084   0.758   4.753   2.559 -0.4617 -0.2715  1.6171
 6360TIP3   OH219085   1.907   3.401   3.216 -0.2427  0.0227  0.3397
 6360TIP3    H119086   1.976   3.340   3.242  1.1720  0.0053 -2.9762
 6360TIP3    H219087   1.953   3.484   3.201 -1.4516  0.8016  0.7877
 6361TIP3   OH219088   4.602   0.037   1.777  0.2167 -0.4665 -0.1820
 6361TIP3    H119089   4.560   0.072   1.856 -0.0836  0.1597 -0.6118
 6361TIP3    H219090   4.578  -0.055   1.776 -0.1963 -0.3673  0.1946
 6362TIP3   OH219091   2.834   3.900   1.159  0.8825 -0.8111 -0.0690
 6362TIP3    H119092   2.786   3.860   1.231  1.3058 -0.8966  0.1632
 6362TIP3    H219093   2.922   3.862   1.163  0.6515 -1.5403 -1.1998
 6363TIP3   OH219094   0.596   0.916   1.826 -0.8583  0.0842 -0.6681
 6363TIP3    H119095   0.612   0.977   1.754 -0.3929 -0.3175 -0.9092
 6363TIP3    H219096   0.667   0.932   1.888  0.3213 -1.4627 -1.5799
 6364TIP3   OH219097   3.273   4.241   2.827 -0.3342 -0.0596  0.1826
 6364TIP3    H119098   3.206   4.192   2.875 -0.2415  1.5699  2.1076
 6364TIP3    H219099   3.313   4.176   2.769 -0.7092 -2.0739  2.0358
 6365TIP3   OH219100   4.868   1.075   4.622 -1.0877  0.1234 -0.4210
 6365TIP3    H119101   4.958   1.049   4.604 -1.2066 -0.2050 -0.5455
 6365TIP3    H219102   4.823   0.993   4.645 -0.6074  0.6428  2.9044
 6366TIP3   OH219103   6.079   1.084   2.530  0.9003 -0.1990 -0.1073
 6366TIP3    H119104   6.096   1.093   2.437 -1.9176 -0.6831 -0.7377
 6366TIP3    H219105   6.025   1.159   2.553 -1.0706 -1.6744  0.3625
 6367TIP3   OH219106   0.909   1.605   3.097 -0.0186 -0.0720  0.4539
 6367TIP3    H119107   0.964   1.586   3.173 -2.3322  0.2536  2.3183
 6367TIP3    H219108   0.919   1.699   3.083  0.7562 -0.2092  0.0507
 6368TIP3   OH219109   4.148   3.210   1.728  0.1320  0.0482 -0.0269
 6368TIP3    H119110   4.125   3.165   1.647 -0.5353  0.7531 -0.2437
 6368TIP3    H219111   4.165   3.300   1.702 -0.7947  0.4581  0.6942
 6369TIP3   OH219112   2.446   1.772   3.896 -0.2456 -0.2330  0.1968
 6369TIP3    H119113   2.415   1.787   3.807  1.2772  1.1447 -0.1496
 6369TIP3    H219114   2.501   1.694   3.889  2.3290  1.5089 -0.8113
 6370TIP3   OH219115   2.956   2.693   2.195  0.3531 -0.8944 -0.6846
 6370TIP3    H119116   2.993   2.780   2.182 -0.9254 -0.1021  0.6770
 6370TIP3    H219117   2.863   2.708   2.210  0.2272 -2.4221  0.3321
 6371TIP3   OH219118   0.320   1.913   1.605 -0.2617  0.1507 -0.0272
 6371TIP3    H119119   0.346   2.000   1.636  2.2432 -0.1013 -1.1399
 6371TIP3    H219120   0.264   1.930   1.529 -0.9932  0.7734  0.6416
 6372TIP3   OH219121   2.873   5.021   2.640 -0.2815  0.0974  0.2678
 6372TIP3    H119122   2.808   4.980   2.583 -0.9255  0.0289  1.0261
 6372TIP3    H219123   2.946   5.042   2.582 -0.3248 -1.2502 -0.3179
 6373TIP3   OH219124   6.191   5.881   1.712 -0.3614 -0.4369 -0.1009
 6373TIP3    H119125   6.178   5.815   1.644 -0.6179  0.5419 -1.0401
 6373TIP3    H219126   6.103   5.895   1.748 -0.6474  0.6391 -1.1361
 6374TIP3   OH219127   0.468   1.430   2.606 -0.3126 -0.7785  0.3311
 6374TIP3    H119128   0.461   1.342   2.571  2.2559 -0.5959 -0.9368
 6374TIP3    H219129   0.508   1.419   2.692 -0.3344 -0.8856  0.3274
 6375TIP3   OH219130   6.154   3.641   3.431 -0.0075 -0.4411 -0.2298
 6375TIP3    H119131   6.064   3.625   3.458 -0.3435  1.8898  0.1914
 6375TIP3    H219132   6.205   3.630   3.511  0.0625 -1.3233 -0.3784
 6376TIP3   OH219133   2.256   3.638   1.098  0.3128 -0.0645  0.7774
 6376TIP3    H119134   2.283   3.705   1.034 -0.3840  0.4714  1.0283
 6376TIP3    H219135   2.307   3.658   1.176  0.2638  0.0467  0.7820
 6377TIP3   OH219136   4.309   1.783   4.420  0.3348 -0.3559  0.2305
 6377TIP3    H119137   4.297   1.709   4.360  0.3850  0.4494 -0.7992
 6377TIP3    H219138   4.227   1.786   4.470  0.1830 -0.8689  0.0256
 6378TIP3   OH219139   1.935   4.137   5.050 -0.0793  0.5849 -0.1493
 6378TIP3    H119140   1.980   4.202   4.997 -1.2922  1.0781 -0.6121
 6378TIP3    H219141   1.987   4.057   5.040  1.2819  1.4025  0.2220
 6379TIP3   OH219142   0.133   0.222   3.974 -0.0231  0.4737  0.0268
 6379TIP3    H119143   0.202   0.268   4.022  1.4662 -0.4099 -1.1526
 6379TIP3    H219144   0.174   0.140   3.947 -1.9682 -0.6723  0.3690
 6380TIP3   OH219145   2.549   5.030   3.846 -0.3880 -0.9082 -0.3194
 6380TIP3    H119146   2.637   5.022   3.808 -0.1694 -2.7417  0.4697
 6380TIP3    H219147   2.562   5.011   3.939 -1.4219  0.3152  0.1084
 6381TIP3   OH219148   0.375   3.016   0.803 -0.2914 -0.3262 -0.3486
 6381TIP3    H119149   0.442   3.047   0.742 -0.6141 -0.1696 -0.6289
 6381TIP3    H219150   0.407   3.042   0.889  0.6281 -1.3664 -0.3462
 6382TIP3   OH219151   2.284   4.761   1.674  0.9881  0.5021 -0.4219
 6382TIP3    H119152   2.327   4.676   1.686  0.1248  0.2093  0.8016
 6382TIP3    H219153   2.317   4.814   1.746 -0.4198  0.3745  0.3525
 6383TIP3   OH219154   1.863   2.772   4.253 -0.8198 -0.1252 -0.3442
 6383TIP3    H119155   1.919   2.710   4.300 -1.4880 -0.4546  0.0294
 6383TIP3    H219156   1.898   2.773   4.163  0.0904  0.0557  0.0025
 6384TIP3   OH219157   3.410   4.201   3.456 -0.5140 -0.3593 -0.5508
 6384TIP3    H119158   3.485   4.182   3.399 -1.0355  3.3104 -2.7102
 6384TIP3    H219159   3.336   4.159   3.413 -0.4021 -0.3310 -0.7710
 6385TIP3   OH219160   6.231   1.438   0.936 -0.0933  0.5183 -0.2140
 6385TIP3    H119161   6.150   1.472   0.975 -1.1355 -0.6516 -1.2883
 6385TIP3    H219162   6.246   1.494   0.860 -1.2306 -0.6881 -1.3745
 6386TIP3   OH219163   0.712   0.594   4.180 -0.0976  0.2306 -0.3432
 6386TIP3    H119164   0.720   0.540   4.259 -2.8804  1.0755  0.6456
 6386TIP3    H219165   0.753   0.677   4.205  1.2409 -0.2932 -0.7098
 6387TIP3   OH219166   4.647   5.376   3.651 -0.3864  0.1406  0.2402
 6387TIP3    H119167   4.739   5.400   3.637 -0.2677 -0.1800  0.4588
 6387TIP3    H219168   4.634   5.386   3.745 -0.0114 -1.7278  0.5305
 6388TIP3   OH219169   4.957   5.194   4.729  0.2388  0.1232  0.6729
 6388TIP3    H119170   4.893   5.171   4.797  0.6953 -0.9079  0.7871
 6388TIP3    H219171   5.040   5.202   4.777  0.4617 -0.0625  0.3243
 6389TIP3   OH219172   1.014   5.898   3.831  0.3553  0.0743 -0.3927
 6389TIP3    H119173   1.020   5.993   3.835  0.6338  0.0439  0.0458
 6389TIP3    H219174   1.080   5.867   3.895 -0.1530 -0.3950 -0.0874
 6390TIP3   OH219175   3.900   1.681   1.193  0.4203  0.2419 -0.2551
 6390TIP3    H119176   3.919   1.775   1.198 -0.7832  0.4499  0.9739
 6390TIP3    H219177   3.867   1.658   1.280  3.2548 -1.9441  0.4136
 6391TIP3   OH219178   2.916   1.215   2.557  0.3213  0.2806  0.1365
 6391TIP3    H119179   2.847   1.262   2.510  1.2963  0.5921 -1.0356
 6391TIP3    H219180   2.984   1.200   2.492  1.5018  0.2400  1.3222
 6392TIP3   OH219181   2.020   0.388   1.152 -0.4632  0.1653 -0.4812
 6392TIP3    H119182   1.928   0.396   1.177 -0.1728 -0.7287  0.9810
 6392TIP3    H219183   2.054   0.477   1.157 -0.6800  0.1678  1.3781
 6393TIP3   OH219184   1.916   5.179   3.492  0.2487 -0.2676  0.5270
 6393TIP3    H119185   1.977   5.195   3.564  0.8365  0.3400 -0.0934
 6393TIP3    H219186   1.968   5.136   3.425 -0.5607 -1.8667  0.8770
 6394TIP3   OH219187   4.160   5.646   3.748 -0.1643 -0.0000 -0.2212
 6394TIP3    H119188   4.071   5.683   3.747 -0.4492 -0.6696 -0.0537
 6394TIP3    H219189   4.151   5.561   3.707  0.1129 -0.6859  1.0901
 6395TIP3   OH219190   3.802   0.075   2.444 -0.4224  0.1357 -0.0342
 6395TIP3    H119191   3.707   0.059   2.446 -0.4953  0.5665  0.1478
 6395TIP3    H219192   3.817   0.136   2.516  0.0367 -0.1441  0.1112
 6396TIP3   OH219193   1.765   1.619   3.484  0.1060  0.0584  0.5892
 6396TIP3    H119194   1.809   1.556   3.428  0.2909 -1.1911  2.0745
 6396TIP3    H219195   1.834   1.656   3.538 -0.2639  0.1165  1.0323
 6397TIP3   OH219196   5.152   4.572   0.657 -0.3423 -0.1714  0.0220
 6397TIP3    H119197   5.215   4.605   0.721  0.6491 -0.6982 -0.6592
 6397TIP3    H219198   5.068   4.610   0.684  0.5286  1.9712 -0.0536
 6398TIP3   OH219199   3.614   4.808   0.902 -0.0954  0.3336 -0.2732
 6398TIP3    H119200   3.549   4.825   0.835 -1.0335  0.6978  0.7162
 6398TIP3    H219201   3.635   4.715   0.891  1.8689  0.9388 -2.8653
 6399TIP3   OH219202   3.179   2.413   1.367 -0.2487 -0.3312  0.0537
 6399TIP3    H119203   3.175   2.440   1.459 -0.7521 -0.0123 -0.0547
 6399TIP3    H219204   3.088   2.393   1.344 -0.1002 -0.5910 -0.3235
 6400TIP3   OH219205   0.454   0.301   1.726  0.4862 -0.3692  0.3085
 6400TIP3    H119206   0.546   0.328   1.722  0.8644 -1.6212 -0.0603
 6400TIP3    H219207   0.419   0.325   1.640  1.4623 -3.0616 -0.9700
 6401TIP3   OH219208   5.257   0.784   1.557  0.3270 -0.0744  0.2250
 6401TIP3    H119209   5.342   0.805   1.517  0.5441  1.4260  1.4044
 6401TIP3    H219210   5.255   0.834   1.638 -2.2958  1.1213 -0.4624
 6402TIP3   OH219211   2.028   3.596   4.181  0.2778  0.2329  0.2722
 6402TIP3    H119212   1.952   3.647   4.208  0.3598 -0.3262  1.6398
 6402TIP3    H219213   2.005   3.562   4.094  1.2371  4.6590 -2.0491
 6403TIP3   OH219214   1.396   3.276   3.753 -1.0469 -0.0358  0.3217
 6403TIP3    H119215   1.322   3.254   3.696  1.4752 -1.6406 -2.5843
 6403TIP3    H219216   1.449   3.336   3.701 -0.5833  1.7202  2.6478
 6404TIP3   OH219217   1.748   3.349   2.094 -0.1782 -0.6222  0.3677
 6404TIP3    H119218   1.666   3.307   2.066 -0.1205 -0.9918  0.7530
 6404TIP3    H219219   1.807   3.338   2.019 -0.1822 -1.1816  0.4470
 6405TIP3   OH219220   4.337   0.650   0.487  0.7640 -0.4674  0.2967
 6405TIP3    H119221   4.343   0.555   0.490  1.9621 -0.3952  0.8276
 6405TIP3    H219222   4.253   0.671   0.528  0.3719 -1.2970 -0.0696
 6406TIP3   OH219223   2.876   2.405   3.088 -0.5547 -0.4189 -0.0284
 6406TIP3    H119224   2.896   2.424   3.180  1.4651 -1.4128 -0.2117
 6406TIP3    H219225   2.865   2.491   3.048  1.4087  0.1789  0.5829
 6407TIP3   OH219226   5.209   2.513   1.700  0.5292  0.3873  0.3409
 6407TIP3    H119227   5.202   2.598   1.656 -1.5787 -0.0527 -0.2939
 6407TIP3    H219228   5.157   2.454   1.646  1.8526 -1.3076  0.8399
 6408TIP3   OH219229   4.460   4.596   2.424 -0.2849 -0.8186  0.7818
 6408TIP3    H119230   4.429   4.524   2.369  1.3905 -1.1991  0.2748
 6408TIP3    H219231   4.435   4.571   2.513  0.5650 -2.2085  0.6527
 6409TIP3   OH219232   4.624   3.554   0.940  0.0227 -0.4935 -0.3996
 6409TIP3    H119233   4.590   3.491   0.875 -1.0923 -1.8186  1.3587
 6409TIP3    H219234   4.676   3.500   1.000  0.1347  0.5031  0.4154
 6410TIP3   OH219235   0.310   4.870   1.572  0.4244 -0.2679 -0.0157
 6410TIP3    H119236   0.259   4.791   1.553 -1.1955  0.7884 -0.1768
 6410TIP3    H219237   0.270   4.906   1.651  1.8782 -0.1852  0.7163
 6411TIP3   OH219238   2.842   2.967   0.303  0.3714  0.5407  0.1481
 6411TIP3    H119239   2.895   2.996   0.229  0.8068  0.1807  0.3126
 6411TIP3    H219240   2.751   2.976   0.272  0.5537 -1.4787 -1.2003
 6412TIP3   OH219241   1.258   4.265   5.173  0.6170 -0.4382  0.4662
 6412TIP3    H119242   1.288   4.233   5.088  0.0678  1.2795 -0.4270
 6412TIP3    H219243   1.274   4.359   5.170 -0.7908 -0.1252  1.6752
 6413TIP3   OH219244   0.554   0.882   3.141  0.3074  0.1606  0.2868
 6413TIP3    H119245   0.630   0.852   3.092  0.0178 -0.5546  0.2641
 6413TIP3    H219246   0.499   0.804   3.150  0.4684  0.2070  1.9592
 6414TIP3   OH219247   5.244   4.399   3.368 -0.3468 -0.2322  0.8060
 6414TIP3    H119248   5.338   4.395   3.356 -0.3218  0.5656  0.6669
 6414TIP3    H219249   5.232   4.427   3.459 -0.4017  1.5241  0.2933
 6415TIP3   OH219250   4.191   2.086   3.867 -0.2943 -0.2809 -0.1167
 6415TIP3    H119251   4.218   2.044   3.785 -3.9439 -1.5928 -0.8253
 6415TIP3    H219252   4.149   2.168   3.839  1.1058  0.8062  0.7790
 6416TIP3   OH219253   2.863   4.963   4.631 -0.6774  0.1713  0.0921
 6416TIP3    H119254   2.781   5.005   4.654 -1.0827 -0.9565  0.7456
 6416TIP3    H219255   2.843   4.869   4.628  0.2907 -0.0365 -0.9701
 6417TIP3   OH219256   3.681   3.331   3.696 -0.0924  0.1058 -0.0780
 6417TIP3    H119257   3.685   3.272   3.620 -1.0113 -1.6472  1.1578
 6417TIP3    H219258   3.614   3.293   3.752 -0.0400  1.8407  1.2411
 6418TIP3   OH219259   5.806   3.117   5.171  0.3014 -0.4182  0.2060
 6418TIP3    H119260   5.838   3.032   5.202 -1.1191 -0.6580  1.1572
 6418TIP3    H219261   5.735   3.095   5.110 -0.4831  0.0510  0.9152
 6419TIP3   OH219262   4.370   4.606   0.245  0.7862 -0.0942  0.2678
 6419TIP3    H119263   4.422   4.574   0.171 -0.4347 -0.8288 -0.3008
 6419TIP3    H219264   4.283   4.568   0.232  0.4481  0.0340  1.9042
 6420TIP3   OH219265   3.432   5.284   0.879  0.3091  0.0614  0.1066
 6420TIP3    H119266   3.377   5.214   0.914  1.5165 -1.3933 -0.7381
 6420TIP3    H219267   3.461   5.251   0.794  2.9741  0.4319  0.7797
 6421TIP3   OH219268   1.832   4.914   2.607 -0.4149 -0.8727  0.1978
 6421TIP3    H119269   1.926   4.929   2.620 -0.3447 -1.2320  0.1045
 6421TIP3    H219270   1.794   4.923   2.694 -0.3422 -0.3794  0.1809
 6422TIP3   OH219271   1.007   1.523   2.322  0.0044 -0.3507  0.0248
 6422TIP3    H119272   0.968   1.596   2.273  1.0164 -0.2587 -0.6708
 6422TIP3    H219273   1.038   1.463   2.254  0.2785 -0.8424  0.5806
 6423TIP3   OH219274   2.292   1.683   1.206 -0.3339 -0.5051 -0.2843
 6423TIP3    H119275   2.317   1.614   1.268 -1.0756 -2.0332 -1.6010
 6423TIP3    H219276   2.362   1.682   1.140  0.7281  1.4688  0.7212
 6424TIP3   OH219277   4.189   1.450   3.923 -0.1051  0.7121  0.2079
 6424TIP3    H119278   4.213   1.436   3.832  0.7437 -1.8152  0.7157
 6424TIP3    H219279   4.255   1.402   3.973 -0.3009  2.3556  2.2022
 6425TIP3   OH219280   4.595   2.398   3.483 -0.8092  0.0083 -0.0085
 6425TIP3    H119281   4.590   2.399   3.578  0.3415 -0.9724  0.0820
 6425TIP3    H219282   4.675   2.350   3.463 -2.5598 -2.5921 -1.4842
 6426TIP3   OH219283   2.292   1.533   0.066 -0.2878 -0.2712  0.6784
 6426TIP3    H119284   2.385   1.520   0.050 -0.3716 -1.7175  1.2328
 6426TIP3    H219285   2.288   1.605   0.129  0.6695 -2.3398  3.2300
 6427TIP3   OH219286   0.383   0.012   2.176  0.3714 -0.6180  0.4468
 6427TIP3    H119287   0.467   0.022   2.129  0.4050 -2.4859  0.0634
 6427TIP3    H219288   0.366   0.100   2.212  0.7011  0.7630 -2.4492
 6428TIP3   OH219289   3.323   1.077   1.374 -0.1055 -0.8412 -0.3552
 6428TIP3    H119290   3.382   1.031   1.434  0.4404 -0.9394 -0.9554
 6428TIP3    H219291   3.378   1.102   1.300 -0.5180  0.3121 -0.2946
 6429TIP3   OH219292   1.544   1.883   1.713 -0.4438  0.2657 -0.0430
 6429TIP3    H119293   1.570   1.798   1.748 -0.3852  0.1574 -0.3503
 6429TIP3    H219294   1.567   1.879   1.621 -2.8026 -0.3644 -0.6869
 6430TIP3   OH219295   0.247   1.629   3.997 -0.3166 -0.3991  0.3445
 6430TIP3    H119296   0.340   1.647   4.012 -0.2879  0.8475 -1.0800
 6430TIP3    H219297   0.204   1.660   4.076  0.6184 -3.2997  2.1715
 6431TIP3   OH219298   5.517   3.563   1.798  0.2200  0.1231  0.5735
 6431TIP3    H119299   5.586   3.512   1.756 -0.3681  0.1466 -0.4540
 6431TIP3    H219300   5.554   3.588   1.883  0.6327 -1.7337  0.9825
 6432TIP3   OH219301   1.249   5.620   4.200  0.0251  0.0602  0.2875
 6432TIP3    H119302   1.187   5.686   4.167  1.0650  0.5861 -0.6844
 6432TIP3    H219303   1.275   5.652   4.286 -0.8205 -0.0115  0.5789
 6433TIP3   OH219304   0.767   2.030   0.724  0.1015  0.0398 -0.3486
 6433TIP3    H119305   0.684   1.999   0.759  0.8026 -0.2459  1.1218
 6433TIP3    H219306   0.824   2.039   0.800  1.3038  0.6209 -1.2752
 6434TIP3   OH219307   1.637   5.230   0.195  0.0059  0.2378  0.2708
 6434TIP3    H119308   1.699   5.187   0.137  0.0064 -0.9582  1.1220
 6434TIP3    H219309   1.551   5.209   0.158  0.0463  0.5349  0.0042
 6435TIP3   OH219310   6.344   1.731   3.744  0.1220  0.0407  0.4389
 6435TIP3    H119311   6.312   1.644   3.767 -0.2026 -0.1350 -0.5941
 6435TIP3    H219312   6.347   1.779   3.827  2.4581 -1.6058  1.4158
 6436TIP3   OH219313   5.372   2.946   3.142 -0.6705 -0.3935 -0.1018
 6436TIP3    H119314   5.368   2.932   3.236 -1.0318 -2.0894 -0.3385
 6436TIP3    H219315   5.297   2.897   3.107  0.5058 -1.3355 -1.4174
 6437TIP3   OH219316   5.673   5.226   4.836  0.2180  0.4155  0.1991
 6437TIP3    H119317   5.626   5.152   4.875 -0.3907  0.1875 -0.9185
 6437TIP3    H219318   5.763   5.217   4.868 -0.4281  0.7948  2.2909
 6438TIP3   OH219319   4.955   4.097   1.279  0.3799  0.0602 -0.4956
 6438TIP3    H119320   4.967   4.149   1.359 -1.7033  1.0439 -0.7534
 6438TIP3    H219321   4.915   4.016   1.309  2.9324 -1.1935 -0.1865
 6439TIP3   OH219322   2.475   3.578   3.904  0.9582  0.0678 -0.1676
 6439TIP3    H119323   2.396   3.525   3.917  0.1879  0.5856 -2.3442
 6439TIP3    H219324   2.481   3.631   3.984 -0.5590 -0.4049  0.2986
 6440TIP3   OH219325   0.986   5.759   4.638  0.0362  0.0336  0.7639
 6440TIP3    H119326   0.914   5.749   4.574  0.9490  1.1854 -0.5060
 6440TIP3    H219327   0.958   5.831   4.694  0.9579  1.7862 -0.9207
 6441TIP3   OH219328   1.069   4.519   1.524  0.0625  0.1304 -0.1208
 6441TIP3    H119329   1.009   4.450   1.497  0.5428 -0.7224  0.8959
 6441TIP3    H219330   1.028   4.600   1.493 -1.0774 -0.5121 -0.3612
 6442TIP3   OH219331   0.484   0.036   3.336  0.0493 -0.0049 -0.2055
 6442TIP3    H119332   0.560   0.027   3.278  1.4190 -0.8141  1.6199
 6442TIP3    H219333   0.432  -0.043   3.318  0.5226 -0.3104 -0.2563
 6443TIP3   OH219334   4.399   4.915   4.740  0.5343  0.1416  0.0944
 6443TIP3    H119335   4.474   4.858   4.760 -0.0169 -1.7824 -2.7593
 6443TIP3    H219336   4.430   4.972   4.669  0.0716  1.2459  0.7435
 6444TIP3   OH219337   2.241   2.169   4.795 -0.2471  0.1770  0.0341
 6444TIP3    H119338   2.213   2.185   4.704  0.1129  0.0660 -0.0974
 6444TIP3    H219339   2.252   2.074   4.800  1.2711  0.3127 -0.2627
 6445TIP3   OH219340   3.336   0.402   1.758  0.1560  0.0019  0.2389
 6445TIP3    H119341   3.416   0.387   1.707  0.3911  1.5644  0.1257
 6445TIP3    H219342   3.348   0.347   1.836  2.0064  1.2290  0.8920
 6446TIP3   OH219343   4.283   0.977   0.701  0.4904  0.3337  0.4390
 6446TIP3    H119344   4.258   0.885   0.705 -1.7341  0.9180  1.2145
 6446TIP3    H219345   4.222   1.015   0.638  1.6140  1.2228 -0.1296
 6447TIP3   OH219346   3.791   3.842   5.102 -0.6032  0.1635 -0.2665
 6447TIP3    H119347   3.840   3.782   5.046  0.2849 -1.3344  1.9672
 6447TIP3    H219348   3.856   3.907   5.129 -0.1524 -0.9670  1.5094
 6448TIP3   OH219349   4.931   1.502   1.252  0.0182 -0.0351 -0.5255
 6448TIP3    H119350   4.928   1.413   1.219 -0.2150  0.4629 -1.9050
 6448TIP3    H219351   4.863   1.506   1.319 -0.6215 -0.6289 -1.1337
 6449TIP3   OH219352   2.532   2.789   2.952  0.0224 -0.2596  0.1829
 6449TIP3    H119353   2.489   2.821   3.031 -0.1213 -1.1341  0.4649
 6449TIP3    H219354   2.569   2.868   2.911 -0.4753  0.2834  0.7657
 6450TIP3   OH219355   1.368   5.799   4.773  0.4558 -0.2412 -0.3111
 6450TIP3    H119356   1.432   5.746   4.822  0.6007 -0.1914 -0.4456
 6450TIP3    H219357   1.394   5.889   4.791  0.0167 -0.2081  0.1757
 6451TIP3   OH219358   3.273   3.055   0.026 -0.1841 -0.2730  0.5138
 6451TIP3    H119359   3.320   3.130   0.063  0.0719 -0.5455  0.7511
 6451TIP3    H219360   3.298   3.054  -0.067 -0.4811  0.1507  0.4254
 6452TIP3   OH219361   1.855   5.248   0.441  0.3358 -0.6618 -0.1185
 6452TIP3    H119362   1.910   5.327   0.440 -0.0133 -0.4138  0.3653
 6452TIP3    H219363   1.816   5.246   0.354  0.7454 -0.5852 -0.3099
 6453TIP3   OH219364   0.413   4.874   1.078  0.9380 -0.0858 -0.4266
 6453TIP3    H119365   0.495   4.850   1.120  0.8272 -0.3151 -0.3437
 6453TIP3    H219366   0.361   4.794   1.075  1.2288 -0.2525 -1.6643
 6454TIP3   OH219367   2.285   2.364   0.797  0.0242 -0.3529 -0.0594
 6454TIP3    H119368   2.296   2.393   0.887  0.0052  1.4783 -0.6124
 6454TIP3    H219369   2.374   2.352   0.764  0.0383 -0.6114  0.0692
 6455TIP3   OH219370   5.639   3.508   5.106  0.2152  0.3770  0.3251
 6455TIP3    H119371   5.692   3.470   5.036 -0.7846 -0.9478  0.2514
 6455TIP3    H219372   5.649   3.446   5.179  0.4258  1.2097  1.0243
 6456TIP3   OH219373   1.750   4.930   3.542  0.2275  0.0276  0.3584
 6456TIP3    H119374   1.763   5.024   3.534 -0.2773  0.2070  1.4838
 6456TIP3    H219375   1.836   4.895   3.565  0.0880  0.4230  1.5277
 6457TIP3   OH219376   2.844   3.926   3.427  0.5964 -0.4446 -0.7854
 6457TIP3    H119377   2.782   3.855   3.445 -0.5983  0.5098 -1.0128
 6457TIP3    H219378   2.900   3.929   3.505 -0.1152 -0.8417 -0.2451
 6458TIP3   OH219379   2.546   4.555   1.873 -0.0636 -0.3893 -0.0046
 6458TIP3    H119380   2.592   4.512   1.800 -1.3274 -0.0044 -1.0560
 6458TIP3    H219381   2.586   4.642   1.878 -0.7364 -0.0074 -1.0042
 6459TIP3   OH219382   5.998   4.944   0.154  0.3573 -0.1438 -0.8263
 6459TIP3    H119383   6.062   4.881   0.185  0.0254  0.2139  0.6523
 6459TIP3    H219384   5.993   5.010   0.224 -1.7654 -0.2794 -0.7922
 6460TIP3   OH219385   4.662   3.133   4.900 -0.1483 -0.0221 -0.1811
 6460TIP3    H119386   4.755   3.124   4.880 -0.4325 -2.8650 -0.6325
 6460TIP3    H219387   4.659   3.165   4.990  1.2811 -0.3936  0.0111
 6461TIP3   OH219388   3.105   1.714   2.063 -0.4462 -0.1447  0.6244
 6461TIP3    H119389   3.067   1.802   2.072 -2.9660 -1.2947  2.3471
 6461TIP3    H219390   3.050   1.671   1.997 -1.5037 -1.4587  2.2788
 6462TIP3   OH219391   1.605   1.483   3.224 -0.1767  0.1054 -0.1603
 6462TIP3    H119392   1.659   1.404   3.222 -1.2425 -0.6424 -2.3565
 6462TIP3    H219393   1.554   1.476   3.305  0.4544 -0.9367  0.1674
 6463TIP3   OH219394   1.601   1.966   2.865 -0.9867 -0.0285 -0.1734
 6463TIP3    H119395   1.594   1.945   2.772  0.7072  0.1924 -0.3795
 6463TIP3    H219396   1.511   1.982   2.892 -1.6042 -0.9220 -1.5697
 6464TIP3   OH219397   1.411   0.617   0.142 -0.1185  0.2903 -0.1100
 6464TIP3    H119398   1.408   0.706   0.105 -0.5147  0.3220 -0.0018
 6464TIP3    H219399   1.504   0.602   0.159  0.0522  0.3525 -0.9310
 6465TIP3   OH219400   3.978   4.991   3.046 -0.4333  0.0964  0.4135
 6465TIP3    H119401   4.012   5.003   3.135 -1.4240  1.6315  0.6328
 6465TIP3    H219402   3.885   4.971   3.059  0.0643 -3.1659 -0.1961
 6466TIP3   OH219403   6.321   2.323   0.862  0.4102  0.4650 -0.2322
 6466TIP3    H119404   6.313   2.250   0.801  0.9122  1.4336 -1.4915
 6466TIP3    H219405   6.271   2.394   0.822 -1.0163  0.5247  1.5058
 6467TIP3   OH219406   0.644   1.671   1.999 -0.6678 -0.1301 -0.3103
 6467TIP3    H119407   0.580   1.652   2.068 -2.5950  0.9398 -1.6774
 6467TIP3    H219408   0.622   1.760   1.971  1.2047  0.1107 -1.1184
 6468TIP3   OH219409   0.035   1.126   0.563  0.1051 -0.4186  0.4844
 6468TIP3    H119410  -0.008   1.156   0.643 -1.6571 -0.3835 -0.4354
 6468TIP3    H219411  -0.019   1.054   0.532  1.0888 -0.7980 -0.3752
 6469TIP3   OH219412   2.653   3.209   4.988  0.0670 -0.2377 -0.5117
 6469TIP3    H119413   2.650   3.290   5.039  0.6341 -0.6562  0.2058
 6469TIP3    H219414   2.608   3.144   5.042  1.1284 -0.8135 -0.2934
 6470TIP3   OH219415   6.156   0.923   5.188  0.1286  0.4971  0.4973
 6470TIP3    H119416   6.215   0.851   5.166 -1.5244 -0.8481  0.2991
 6470TIP3    H219417   6.069   0.893   5.159 -0.3473  3.4348 -1.6067
 6471TIP3   OH219418   3.313   1.014   2.757 -0.6330  0.6327  0.2467
 6471TIP3    H119419   3.347   0.955   2.825 -2.2992 -0.4392  0.1842
 6471TIP3    H219420   3.291   0.957   2.684 -0.5527  1.5674 -0.5275
 6472TIP3   OH219421   4.476   3.762   0.712 -0.2476  0.1846  0.4502
 6472TIP3    H119422   4.457   3.827   0.781 -0.1985 -1.2988  1.9144
 6472TIP3    H219423   4.571   3.749   0.717 -0.2057  0.2883 -0.1030
 6473TIP3   OH219424   0.614   5.198   1.797 -0.5401  0.0049 -0.0210
 6473TIP3    H119425   0.664   5.119   1.815 -1.1354 -0.0139  1.6830
 6473TIP3    H219426   0.588   5.189   1.705  0.4793 -1.1476 -0.2221
 6474TIP3   OH219427   3.061   1.043   1.340 -0.5332  0.3233  0.2827
 6474TIP3    H119428   3.026   0.954   1.348  0.4189 -0.2412 -1.3077
 6474TIP3    H219429   3.148   1.039   1.379 -0.0384  0.2444 -0.8013
 6475TIP3   OH219430   5.324   0.419   5.073 -0.1556 -0.4575 -0.5508
 6475TIP3    H119431   5.284   0.364   5.140 -0.7890  0.5765 -0.0554
 6475TIP3    H219432   5.299   0.378   4.990 -1.4772 -0.3588 -0.2199
 6476TIP3   OH219433   6.269   0.735   1.291  0.0328 -0.0233 -0.2024
 6476TIP3    H119434   6.245   0.691   1.372  0.2274 -0.3129 -0.3006
 6476TIP3    H219435   6.229   0.821   1.298 -0.0346 -0.0811  0.1588
 6477TIP3   OH219436   4.504   2.563   0.610  0.1479 -0.5258 -0.2425
 6477TIP3    H119437   4.594   2.581   0.585  0.2021 -0.7132 -0.1869
 6477TIP3    H219438   4.507   2.545   0.704 -0.1163  0.5704 -0.0180
 6478TIP3   OH219439   3.437   5.938   1.265  0.1855  0.1291 -0.0374
 6478TIP3    H119440   3.512   5.904   1.216  0.4604  3.3437 -2.1458
 6478TIP3    H219441   3.473   6.007   1.320 -0.6286 -1.4154  2.6159
 6479TIP3   OH219442   1.921   0.601   0.696 -0.2155  0.1662  0.0608
 6479TIP3    H119443   1.860   0.674   0.705 -0.6583 -0.0953 -0.7080
 6479TIP3    H219444   1.976   0.626   0.621 -2.3610 -1.6132 -2.2793
 6480TIP3   OH219445   6.266   4.111   3.522  0.5285 -0.2905  0.2675
 6480TIP3    H119446   6.236   4.102   3.613 -2.0228 -0.5656 -0.5358
 6480TIP3    H219447   6.284   4.021   3.494  0.2676 -0.3104  0.1656
 6481TIP3   OH219448   1.306   5.872   3.701 -0.7390  0.3360  0.3634
 6481TIP3    H119449   1.315   5.785   3.662 -1.9088  0.8942 -1.2915
 6481TIP3    H219450   1.260   5.857   3.783 -3.5697 -0.4384 -1.2151
 6482TIP3   OH219451   3.988   1.903   4.156 -0.3003 -0.0728 -0.3968
 6482TIP3    H119452   3.970   1.810   4.174  0.4440 -0.2937 -0.7417
 6482TIP3    H219453   4.084   1.908   4.151 -0.3599  0.6053 -0.9343
 6483TIP3   OH219454   3.280   2.325   3.664 -0.2982 -0.4503 -0.3943
 6483TIP3    H119455   3.195   2.365   3.681 -0.3717 -0.7353 -0.0737
 6483TIP3    H219456   3.262   2.256   3.600 -0.6592 -1.7640  1.0261
 6484TIP3   OH219457   2.793   5.752   2.181 -0.3030  0.7477 -0.7947
 6484TIP3    H119458   2.767   5.685   2.119  1.3108  1.2663 -2.1110
 6484TIP3    H219459   2.848   5.812   2.130 -0.9824  2.5997  0.5299
 6485TIP3   OH219460   4.552   5.637   4.924 -0.2392 -0.7619  0.0809
 6485TIP3    H119461   4.504   5.554   4.919  0.2380 -1.0454  0.1702
 6485TIP3    H219462   4.639   5.617   4.890  0.6089 -0.8612  2.1291
 6486TIP3   OH219463   5.135   2.093   2.152  0.1178 -0.0205  0.2119
 6486TIP3    H119464   5.202   2.042   2.198 -1.4216 -0.2996  2.2991
 6486TIP3    H219465   5.062   2.096   2.213 -2.9028 -2.0007 -2.9527
 6487TIP3   OH219466   2.151   3.221   1.974 -0.8435  0.3113  0.0752
 6487TIP3    H119467   2.079   3.224   1.911 -1.5832  1.0572  0.9279
 6487TIP3    H219468   2.118   3.166   2.045  0.3995 -1.4479 -0.6486
 6488TIP3   OH219469   6.216   3.446   0.056  0.0008  0.1775 -0.0902
 6488TIP3    H119470   6.247   3.536   0.057  2.7812 -0.6731 -0.4407
 6488TIP3    H219471   6.128   3.450   0.094  0.3530  2.8907  0.6541
 6489TIP3   OH219472   1.188   4.846   1.219  0.6963 -0.4723 -0.0553
 6489TIP3    H119473   1.095   4.822   1.222  1.2339 -2.7511  2.0537
 6489TIP3    H219474   1.189   4.933   1.179 -2.3765 -0.2107  0.1769
 6490TIP3   OH219475   3.301   1.059   0.269 -0.0626  0.1319 -0.7471
 6490TIP3    H119476   3.378   1.109   0.242  0.9286 -0.5701  0.6309
 6490TIP3    H219477   3.256   1.038   0.187  0.9237  0.9901 -1.5427
 6491TIP3   OH219478   4.225   0.721   3.870  0.1462  0.6024 -0.0013
 6491TIP3    H119479   4.195   0.803   3.830  0.2227  0.4857 -0.3061
 6491TIP3    H219480   4.229   0.659   3.796  1.9940  0.8399 -0.1473
 6492TIP3   OH219481   2.804   2.502   4.724 -0.2724  0.0038  0.6971
 6492TIP3    H119482   2.850   2.474   4.803 -0.0293 -1.3783  0.0968
 6492TIP3    H219483   2.719   2.458   4.729 -0.9574  1.3477  1.0640
 6493TIP3   OH219484   4.020   5.271   4.911  0.7614  0.8765 -0.3800
 6493TIP3    H119485   4.081   5.210   4.953  1.2938  1.8764  0.3484
 6493TIP3    H219486   3.967   5.305   4.982  0.8450  1.6737 -0.6857
 6494TIP3   OH219487   4.474   5.676   2.315 -0.0504  0.2018  0.4306
 6494TIP3    H119488   4.526   5.687   2.235 -0.8230 -0.1206 -0.1302
 6494TIP3    H219489   4.514   5.601   2.359  1.4225  1.3814  1.2135
 6495TIP3   OH219490   2.392   2.807   0.397  0.0674  0.4188 -0.4865
 6495TIP3    H119491   2.467   2.820   0.455  1.2021  0.6087 -1.9695
 6495TIP3    H219492   2.350   2.893   0.394 -0.2618  0.3046  0.3704
 6496TIP3   OH219493   5.558   5.548   4.531 -0.3231 -0.5480 -0.4233
 6496TIP3    H119494   5.492   5.573   4.467 -0.1852 -1.9372 -1.1608
 6496TIP3    H219495   5.602   5.472   4.492  2.6042  1.0659 -0.5422
 6497TIP3   OH219496   4.594   1.162   0.625 -0.6090 -0.0151  0.3518
 6497TIP3    H119497   4.528   1.232   0.631 -1.9824 -1.2525  0.3325
 6497TIP3    H219498   4.576   1.119   0.541  0.4167 -0.2046  0.2167
 6498TIP3   OH219499   2.338   3.376   3.053 -0.2442  0.0890  0.0095
 6498TIP3    H119500   2.288   3.405   2.977 -0.6443  1.4828  0.7646
 6498TIP3    H219501   2.395   3.307   3.019 -1.6193 -0.5158 -1.1718
 6499TIP3   OH219502   2.952   0.601   3.879  0.4415  0.3115  0.5638
 6499TIP3    H119503   2.862   0.633   3.879 -0.1168 -1.1731  1.0305
 6499TIP3    H219504   2.978   0.602   3.971  0.1942 -1.0789  0.6714
 6500TIP3   OH219505   4.364   5.912   2.850 -0.1535 -0.0878 -0.5106
 6500TIP3    H119506   4.423   5.838   2.840 -1.4571 -1.0438 -1.3467
 6500TIP3    H219507   4.299   5.902   2.781 -2.6566 -0.3802  1.7044
 6501TIP3   OH219508   2.972   2.461   4.500 -0.5852 -0.6536 -0.1258
 6501TIP3    H119509   2.914   2.475   4.424  0.2597 -1.4273 -0.9249
 6501TIP3    H219510   2.921   2.494   4.574 -0.7341  1.8453 -1.2280
 6502TIP3   OH219511   4.912   2.551   0.956  0.0201  0.0052 -0.1958
 6502TIP3    H119512   5.002   2.563   0.986 -0.0504 -2.2412  1.0931
 6502TIP3    H219513   4.865   2.627   0.990  1.1783  0.6222  0.0823
 6503TIP3   OH219514   3.638   1.201   3.513 -0.5498  0.0343  0.0198
 6503TIP3    H119515   3.684   1.129   3.556 -0.4865  0.1012  0.0638
 6503TIP3    H219516   3.678   1.206   3.426 -1.9975 -1.3863 -0.7870
 6504TIP3   OH219517   1.031   3.248   3.830 -0.1252 -0.0507 -0.4352
 6504TIP3    H119518   0.944   3.231   3.792  0.1311  0.4375 -1.2792
 6504TIP3    H219519   1.044   3.177   3.893 -1.3835  0.1986  0.1430
 6505TIP3   OH219520   1.813   4.976   3.100 -0.3388  0.0948  0.2717
 6505TIP3    H119521   1.775   5.058   3.066  1.1561  0.3240 -0.9146
 6505TIP3    H219522   1.893   5.004   3.145 -0.5298 -0.5933  1.0652
 6506TIP3   OH219523   1.335   1.482   0.771  0.4378  0.1167 -0.0147
 6506TIP3    H119524   1.268   1.550   0.759  0.0848 -0.1163  0.6011
 6506TIP3    H219525   1.412   1.529   0.801  0.1141  0.2181  0.6728
 6507TIP3   OH219526   0.663   2.535   4.809  0.2449  0.9439  0.1449
 6507TIP3    H119527   0.756   2.521   4.796  0.0710  0.8709 -1.1137
 6507TIP3    H219528   0.625   2.447   4.803  0.0398  1.0306  0.1657
 6508TIP3   OH219529   0.054   5.459   4.020  0.1574 -0.4949  0.2055
 6508TIP3    H119530   0.149   5.449   4.027  0.5030  2.5995  1.4350
 6508TIP3    H219531   0.022   5.438   4.108  0.2876  2.5794  1.0958
 6509TIP3   OH219532   1.799   0.173   2.005 -0.3692 -0.8468 -0.4747
 6509TIP3    H119533   1.767   0.160   2.094  0.6325  1.4971  0.3153
 6509TIP3    H219534   1.753   0.251   1.974  1.4467  0.1449 -0.8449
 6510TIP3   OH219535   3.563   3.686   3.620  0.3083  0.5324  0.5434
 6510TIP3    H119536   3.509   3.686   3.699 -1.2054  2.8854 -0.4141
 6510TIP3    H219537   3.622   3.760   3.631 -1.0885  1.9894 -1.2076
 6511TIP3   OH219538   3.774   0.973   1.629  0.7896  0.0600 -0.1960
 6511TIP3    H119539   3.832   0.959   1.555 -0.9341 -0.8830 -1.4336
 6511TIP3    H219540   3.795   0.903   1.690  0.3040 -0.8725 -1.0775
 6512TIP3   OH219541   2.832   0.651   0.045  0.1844  0.1967  0.1752
 6512TIP3    H119542   2.862   0.564   0.071 -0.2610  0.1544  0.5672
 6512TIP3    H219543   2.741   0.654   0.073  0.3958  1.0514  0.8059
 6513TIP3   OH219544   1.662   1.535   5.067 -0.5912  0.0832  0.2308
 6513TIP3    H119545   1.697   1.468   5.127 -3.2461 -0.5730  1.1616
 6513TIP3    H219546   1.707   1.518   4.984  1.8116 -0.1778  1.4823
 6514TIP3   OH219547   4.047   4.174   0.670  0.3268 -0.1011 -0.1529
 6514TIP3    H119548   4.050   4.137   0.582 -1.5462  0.7055 -0.5930
 6514TIP3    H219549   3.975   4.129   0.713  0.3154  0.5233  0.4980
 6515TIP3   OH219550   5.699   4.472   3.015  0.2523  0.2503  0.3774
 6515TIP3    H119551   5.723   4.474   2.922  2.0642 -1.9273  0.7146
 6515TIP3    H219552   5.604   4.467   3.015  0.2462 -0.4583 -1.4263
 6516TIP3   OH219553   0.478   2.751   0.772 -0.0180  1.1655  0.0780
 6516TIP3    H119554   0.448   2.800   0.849 -1.4275  0.9630 -0.3133
 6516TIP3    H219555   0.434   2.667   0.779 -0.6516  1.3582 -1.2499
 6517TIP3   OH219556   5.959   2.503   0.415 -0.1527  0.1675  1.0543
 6517TIP3    H119557   6.054   2.510   0.421 -0.1097  2.0088 -0.8445
 6517TIP3    H219558   5.943   2.408   0.410  1.7480 -0.1209 -0.6500
 6518TIP3   OH219559   6.155   0.031   3.209 -0.1057 -0.3362  0.2252
 6518TIP3    H119560   6.170  -0.024   3.132 -1.0327 -0.0682 -0.1645
 6518TIP3    H219561   6.242   0.062   3.234  0.3140 -1.2027 -0.1259
 6519TIP3   OH219562   5.921   5.064   1.974  0.4058 -0.3021  0.1952
 6519TIP3    H119563   5.874   4.980   1.971  1.7399 -1.0498 -1.1063
 6519TIP3    H219564   5.900   5.106   1.891 -0.4053  0.7914  0.9181
 6520TIP3   OH219565   5.520   1.183   0.891  0.5098  0.3301  0.1951
 6520TIP3    H119566   5.591   1.182   0.827 -1.3218 -0.8571 -1.9409
 6520TIP3    H219567   5.470   1.262   0.872 -0.4879 -0.4202 -0.4118
 6521TIP3   OH219568   2.390   0.585   1.869 -0.2585 -0.2291  1.1315
 6521TIP3    H119569   2.308   0.600   1.918  0.0884 -0.2857  1.7439
 6521TIP3    H219570   2.414   0.671   1.836 -1.9434 -0.6080 -1.3253
 6522TIP3   OH219571   4.789   2.281   2.917 -0.4339 -0.5613  0.5528
 6522TIP3    H119572   4.783   2.375   2.933  2.7021  0.1054 -1.4321
 6522TIP3    H219573   4.783   2.273   2.821 -0.8489 -2.4418  0.7014
 6523TIP3   OH219574   5.569   3.635   2.076 -0.2085 -0.6850 -0.0735
 6523TIP3    H119575   5.662   3.654   2.091 -0.1633 -1.3388  0.5400
 6523TIP3    H219576   5.523   3.699   2.131 -0.0733 -1.6504  1.2151
 6524TIP3   OH219577   2.664   0.368   2.584  0.2279  0.5737  0.2507
 6524TIP3    H119578   2.598   0.300   2.592 -2.0955  2.7114  0.2709
 6524TIP3    H219579   2.714   0.363   2.665 -0.5916 -0.4185  0.7104
 6525TIP3   OH219580   5.721   3.127   4.639  1.0134  0.3908 -0.4833
 6525TIP3    H119581   5.771   3.180   4.577  0.1620 -0.8885 -2.3688
 6525TIP3    H219582   5.631   3.156   4.628  0.9003  0.4455  0.5153
 6526TIP3   OH219583   0.794   3.240   3.683  0.2740  0.4556  0.1065
 6526TIP3    H119584   0.784   3.146   3.698 -1.8619  0.3776 -1.3526
 6526TIP3    H219585   0.767   3.253   3.592  2.7655  2.2016 -0.4788
 6527TIP3   OH219586   0.219   1.698   1.364  0.1737 -0.0895 -0.4655
 6527TIP3    H119587   0.193   1.629   1.302  1.4416 -0.8477 -0.1819
 6527TIP3    H219588   0.141   1.753   1.371 -1.2241 -1.9982  0.0153
 6528TIP3   OH219589   4.981   3.452   1.331 -0.5214 -0.1304  0.3029
 6528TIP3    H119590   4.943   3.536   1.356  1.1832  0.8252 -0.1745
 6528TIP3    H219591   5.052   3.474   1.270 -0.8612 -2.0054 -0.8624
 6529TIP3   OH219592   0.534   2.663   4.495  0.1595  0.2299 -0.4093
 6529TIP3    H119593   0.556   2.628   4.582  0.7086  3.6485  0.9832
 6529TIP3    H219594   0.606   2.634   4.439 -0.6243 -2.7609 -0.0590
 6530TIP3   OH219595   2.047   5.481   0.716  0.2518  0.1535  0.1284
 6530TIP3    H119596   2.075   5.521   0.634 -0.8275  0.7103  0.0141
 6530TIP3    H219597   2.066   5.388   0.705  0.9795  0.3521 -0.3786
 6531TIP3   OH219598   3.177   1.846   1.692  0.1262  0.4365 -0.0989
 6531TIP3    H119599   3.264   1.808   1.702  0.3493  0.9901  0.0602
 6531TIP3    H219600   3.151   1.822   1.602 -0.2321 -1.0927  0.3731
 6532TIP3   OH219601   4.474   0.244   4.800  0.3529  0.1792 -0.0991
 6532TIP3    H119602   4.395   0.255   4.852  0.0262 -0.9983 -0.3137
 6532TIP3    H219603   4.545   0.271   4.859 -0.1507  0.6905  0.2898
 6533TIP3   OH219604   3.230   0.865   4.511  0.2198  0.3952  0.3712
 6533TIP3    H119605   3.234   0.829   4.423 -1.0749  0.2538  0.3452
 6533TIP3    H219606   3.321   0.884   4.534  0.8125 -1.6321 -0.1280
 6534TIP3   OH219607   0.417   4.637   1.347  0.1973 -0.5716 -0.1155
 6534TIP3    H119608   0.325   4.662   1.337  0.4236 -0.0068 -0.8621
 6534TIP3    H219609   0.434   4.648   1.441  0.2224  1.9635 -0.3475
 6535TIP3   OH219610   5.866   0.379   4.199 -0.5594 -0.1873 -0.4576
 6535TIP3    H119611   5.862   0.309   4.133 -2.3244 -1.4366  0.8541
 6535TIP3    H219612   5.829   0.455   4.154  0.5282 -0.3070 -1.6311
 6536TIP3   OH219613   3.811   2.678   4.839 -0.0504 -0.6922  0.0747
 6536TIP3    H119614   3.809   2.608   4.905 -0.0321  0.9138  1.8758
 6536TIP3    H219615   3.880   2.737   4.870  0.4431 -0.2288 -1.8007
 6537TIP3   OH219616   0.083   3.182   3.987 -0.2882 -0.0462 -0.6736
 6537TIP3    H119617   0.056   3.107   4.040  1.8701 -0.1898  0.3068
 6537TIP3    H219618   0.130   3.239   4.048 -0.5491  1.3872 -1.7541
 6538TIP3   OH219619   6.053   2.377   4.394 -0.2960 -0.2555  0.0335
 6538TIP3    H119620   6.050   2.420   4.479 -0.9917  0.9531 -0.5843
 6538TIP3    H219621   6.144   2.387   4.365 -0.4060  0.6484 -0.0201
 6539TIP3   OH219622   4.718   1.049   2.404  0.1238  0.0347  0.2636
 6539TIP3    H119623   4.684   1.136   2.424  1.6988  0.9006 -0.6650
 6539TIP3    H219624   4.813   1.058   2.409  0.4768 -0.8256 -2.7584
 6540TIP3   OH219625   3.035   3.193   1.799 -0.1829  0.3598 -0.2124
 6540TIP3    H119626   3.106   3.247   1.765 -0.8048  0.8666 -0.7408
 6540TIP3    H219627   3.078   3.127   1.853  0.5782  1.6212  0.7926
 6541TIP3   OH219628   5.787   1.898   2.449  0.1481 -0.4493  0.6875
 6541TIP3    H119629   5.798   1.992   2.435  0.5400 -0.3446  1.6566
 6541TIP3    H219630   5.764   1.890   2.541  2.0603 -1.4560  1.1245
 6542TIP3   OH219631   6.309   4.009   0.753  0.1298  0.0801 -1.0318
 6542TIP3    H119632   6.300   3.941   0.819 -0.4989  0.9081 -0.2322
 6542TIP3    H219633   6.227   4.006   0.704  0.4602 -0.3129 -1.5682
 6543TIP3   OH219634   5.478   0.620   2.448  0.1278 -0.5690 -0.5136
 6543TIP3    H119635   5.567   0.602   2.417  0.0676 -2.3042  0.2131
 6543TIP3    H219636   5.425   0.623   2.369  0.7899  0.3881 -0.9491
 6544TIP3   OH219637   4.161   1.712   2.441 -0.3360 -0.0326 -0.2422
 6544TIP3    H119638   4.123   1.787   2.395  0.9780  0.6486 -0.2682
 6544TIP3    H219639   4.192   1.748   2.525  1.6007 -0.1799 -0.8337
 6545TIP3   OH219640   0.437   4.946   4.832 -0.2246 -0.4106 -0.4813
 6545TIP3    H119641   0.505   4.913   4.891 -2.1869 -0.0412  2.1671
 6545TIP3    H219642   0.479   5.017   4.784  1.0362  0.4907  1.8001
 6546TIP3   OH219643   3.149   4.311   0.965  0.2508 -0.2384  0.3748
 6546TIP3    H119644   3.079   4.339   0.905  1.1721 -0.6385 -0.9376
 6546TIP3    H219645   3.195   4.242   0.917  1.8660  0.3774  0.9720
 6547TIP3   OH219646   3.093   2.029   2.880 -0.6173  0.0664  0.3282
 6547TIP3    H119647   3.051   1.944   2.867 -0.9548  0.1702  0.7277
 6547TIP3    H219648   3.124   2.027   2.970  2.3730 -0.9302 -0.6003
 6548TIP3   OH219649   5.118   4.243   2.429 -0.3235 -0.3316 -0.4963
 6548TIP3    H119650   5.146   4.311   2.368 -0.1498 -0.7425 -0.8742
 6548TIP3    H219651   5.025   4.260   2.442  0.2631  1.8203  1.7399
 6549TIP3   OH219652   3.683   3.151   2.539  0.0988  0.5592 -0.1813
 6549TIP3    H119653   3.744   3.170   2.611  0.8624 -0.2123 -0.6103
 6549TIP3    H219654   3.691   3.056   2.526 -0.0916  0.6816 -1.2225
 6550TIP3   OH219655   6.006   1.610   1.987  0.1985 -0.2812 -0.5117
 6550TIP3    H119656   6.094   1.572   1.987  0.3149 -0.0573 -1.6150
 6550TIP3    H219657   6.003   1.663   2.067  1.6819  1.0391 -1.2441
 6551TIP3   OH219658   3.283   1.090   4.298 -0.5066 -0.1127  0.2397
 6551TIP3    H119659   3.344   1.162   4.315 -1.6042  0.8758  0.0812
 6551TIP3    H219660   3.335   1.027   4.248  0.3420  0.7854 -0.0492
 6552TIP3   OH219661   5.262   3.735   1.153 -0.2726  0.0849  0.0438
 6552TIP3    H119662   5.207   3.753   1.229  0.5806  0.8929  0.4934
 6552TIP3    H219663   5.298   3.820   1.129  0.7789 -0.4219 -0.2274
 6553TIP3   OH219664   1.207   1.614   4.562 -0.4924 -0.4720  0.7044
 6553TIP3    H119665   1.240   1.563   4.488  0.4621  0.5213  0.4073
 6553TIP3    H219666   1.168   1.692   4.522 -1.0323 -0.4863  1.1906
 6554TIP3   OH219667   4.629   5.392   2.472 -0.2873 -0.4079  0.6384
 6554TIP3    H119668   4.670   5.478   2.482 -1.6998  0.1543  2.0405
 6554TIP3    H219669   4.646   5.368   2.381  1.4116  0.6596  0.6220
 6555TIP3   OH219670   1.290   1.943   1.720  0.0078 -0.2669 -0.8216
 6555TIP3    H119671   1.381   1.914   1.722 -0.3843 -1.5017 -0.2362
 6555TIP3    H219672   1.241   1.873   1.762 -1.1981  0.4801 -0.9280
 6556TIP3   OH219673   3.020   1.903   4.168  0.1315  0.2110 -0.3471
 6556TIP3    H119674   2.973   1.846   4.106 -2.3255  0.5000  1.1241
 6556TIP3    H219675   3.000   1.992   4.138  0.2223  0.3348 -0.0368
 6557TIP3   OH219676   4.118   4.758   0.427  0.4034 -0.3362 -0.0985
 6557TIP3    H119677   4.040   4.711   0.397  0.4277  0.9637 -2.4631
 6557TIP3    H219678   4.168   4.774   0.348  1.6317  1.4181  0.9676
 6558TIP3   OH219679   4.668   1.152   1.683 -0.6540 -0.0153  0.1183
 6558TIP3    H119680   4.647   1.228   1.737 -0.1557  0.4294 -0.3107
 6558TIP3    H219681   4.614   1.162   1.605  0.6607  0.8279 -0.7267
 6559TIP3   OH219682   5.257   1.605   2.074 -0.3392  0.0848  0.5108
 6559TIP3    H119683   5.214   1.574   2.153 -1.2287  0.2251  0.0950
 6559TIP3    H219684   5.229   1.696   2.065 -2.1323 -0.5702 -1.1893
 6560TIP3   OH219685   4.867   2.580   1.435  0.1417  0.0269 -0.6205
 6560TIP3    H119686   4.839   2.614   1.350  1.2429  0.0638 -0.9915
 6560TIP3    H219687   4.937   2.640   1.463  0.9391 -0.9323 -0.4867
 6561TIP3   OH219688   3.780   0.294   4.457 -0.1703  0.8643  0.2410
 6561TIP3    H119689   3.836   0.303   4.533  0.7433 -1.8543 -0.0104
 6561TIP3    H219690   3.739   0.208   4.467 -0.7769  0.8508 -1.8397
 6562TIP3   OH219691   3.659   1.367   0.638 -0.0290 -0.1124 -0.2862
 6562TIP3    H119692   3.630   1.432   0.574 -0.1736  1.8518  1.6270
 6562TIP3    H219693   3.750   1.391   0.657 -0.5111  0.5296  1.4836
 6563TIP3   OH219694   1.891   5.763   4.674 -0.0969 -0.1470 -0.3858
 6563TIP3    H119695   1.800   5.735   4.683  0.2567 -0.6784  2.5355
 6563TIP3    H219696   1.937   5.685   4.645 -0.1192 -0.9154  1.4712
 6564TIP3   OH219697   2.124   0.835   4.079 -0.2419 -0.1765 -0.2706
 6564TIP3    H119698   2.212   0.827   4.116 -0.3238 -0.4689 -0.1370
 6564TIP3    H219699   2.069   0.778   4.133 -0.5047 -0.0385 -0.3868
 6565TIP3   OH219700   3.345   5.401   2.496  0.0128 -0.4150  0.2088
 6565TIP3    H119701   3.328   5.328   2.556 -0.9174 -0.8227 -0.5163
 6565TIP3    H219702   3.287   5.470   2.526  0.8979  0.0557  0.8982
 6566TIP3   OH219703   2.325   2.725   1.234 -0.8455 -0.3087 -0.4798
 6566TIP3    H119704   2.412   2.763   1.223 -1.9089  2.1789 -0.7967
 6566TIP3    H219705   2.280   2.742   1.152 -1.8819 -0.9082 -0.0629
 6567TIP3   OH219706   2.242   3.023   0.399 -0.1949  0.2869  0.4615
 6567TIP3    H119707   2.165   2.970   0.379  0.4651 -0.1172 -1.1352
 6567TIP3    H219708   2.239   3.095   0.337 -0.4440  1.4937  1.8378
 6568TIP3   OH219709   0.047   3.706   0.941 -0.0162  0.2990 -0.2930
 6568TIP3    H119710  -0.040   3.741   0.963  0.6353  0.7881  1.7480
 6568TIP3    H219711   0.034   3.660   0.858 -1.6684  2.4895 -1.3666
 6569TIP3   OH219712   2.869   0.274   4.837  0.0358 -0.1267 -0.4446
 6569TIP3    H119713   2.884   0.369   4.843  0.0443 -0.1758  0.3705
 6569TIP3    H219714   2.776   0.264   4.858 -0.2667 -0.1934 -1.7296
 6570TIP3   OH219715   2.489   2.878   4.929  0.1212 -0.6010 -0.0597
 6570TIP3    H119716   2.495   2.938   5.003 -0.4286 -0.9034  0.2392
 6570TIP3    H219717   2.580   2.860   4.905  0.3101 -0.6676  0.6772
 6571TIP3   OH219718   4.591   0.425   0.481  0.6251  0.8515 -0.3270
 6571TIP3    H119719   4.601   0.484   0.556  1.5075  0.6057 -0.2454
 6571TIP3    H219720   4.666   0.366   0.487 -0.1644 -0.2033 -0.4825
 6572TIP3   OH219721   3.480   4.371   1.115 -0.1955  0.1072 -0.0690
 6572TIP3    H119722   3.566   4.411   1.101 -1.0944  2.0458 -0.3934
 6572TIP3    H219723   3.456   4.335   1.030 -0.7564  1.8298 -0.6892
 6573TIP3   OH219724   6.256   4.887   4.104  0.0603 -0.2947  0.1346
 6573TIP3    H119725   6.172   4.898   4.060 -0.3009  0.0242  0.8875
 6573TIP3    H219726   6.321   4.907   4.037 -0.4787  3.5757  0.5309
 6574TIP3   OH219727   5.528   1.217   4.433 -0.5355  0.3747  0.0233
 6574TIP3    H119728   5.462   1.283   4.456 -1.9332 -0.7715 -0.5190
 6574TIP3    H219729   5.548   1.235   4.341 -0.6853  0.2409 -0.0363
 6575TIP3   OH219730   0.151   4.396   2.168 -0.4247  0.8683  0.7688
 6575TIP3    H119731   0.219   4.459   2.188 -0.9552  1.8825 -0.5230
 6575TIP3    H219732   0.197   4.312   2.159  0.3802  1.1887  1.7173
 6576TIP3   OH219733   1.121   0.494   4.715 -0.1054 -0.4219  0.3031
 6576TIP3    H119734   1.102   0.581   4.680 -0.3096  0.3820  2.2678
 6576TIP3    H219735   1.216   0.494   4.730  0.1651 -1.1825 -1.2445
 6577TIP3   OH219736   5.413   2.972   5.087 -0.7162 -0.1435  0.3537
 6577TIP3    H119737   5.390   3.063   5.106 -0.5268  0.3731 -1.7414
 6577TIP3    H219738   5.501   2.976   5.050 -0.6859 -1.1862  0.2687
 6578TIP3   OH219739   2.997   1.674   1.786  0.1440  0.3905  0.2049
 6578TIP3    H119740   3.067   1.737   1.796 -1.0769  1.7054  0.8343
 6578TIP3    H219741   3.003   1.645   1.695  2.5947 -0.9279  0.7136
 6579TIP3   OH219742   4.260   5.525   4.495 -0.4047 -0.3528 -0.6475
 6579TIP3    H119743   4.292   5.440   4.467 -0.8484 -0.3238 -1.2476
 6579TIP3    H219744   4.215   5.508   4.578 -0.5457 -0.7103 -0.7977
 6580TIP3   OH219745   3.126   4.915   0.520 -0.1254 -0.6299  0.2862
 6580TIP3    H119746   3.213   4.909   0.479 -0.2424 -0.1038 -0.0538
 6580TIP3    H219747   3.108   4.826   0.551 -0.9589 -1.6579 -2.7313
 6581TIP3   OH219748   2.291   1.201   2.488 -0.1179  0.1670 -0.1782
 6581TIP3    H119749   2.241   1.138   2.540  2.6789 -0.0895  2.4875
 6581TIP3    H219750   2.344   1.147   2.430 -0.6867  0.3000 -0.8340
 6582TIP3   OH219751   0.901   3.231   2.901  0.1422 -0.4029 -0.0662
 6582TIP3    H119752   0.995   3.220   2.916  0.4446  0.1934 -1.4141
 6582TIP3    H219753   0.889   3.212   2.808 -0.7546  1.5325 -0.3804
 6583TIP3   OH219754   0.383   4.793   3.982  0.2216  0.6207  0.3843
 6583TIP3    H119755   0.456   4.842   3.945  0.3998  0.1584  0.1119
 6583TIP3    H219756   0.412   4.771   4.071  0.0218  1.2502  0.6094
 6584TIP3   OH219757   3.518   2.267   0.246  0.0134 -0.3791  0.4505
 6584TIP3    H119758   3.493   2.215   0.169  0.4490 -0.9134  0.6594
 6584TIP3    H219759   3.471   2.226   0.318 -0.3679  0.1016  0.4780
 6585TIP3   OH219760   5.710   4.116   1.468 -0.4781  0.9648  0.3238
 6585TIP3    H119761   5.798   4.148   1.447 -0.7444  0.6857 -1.3726
 6585TIP3    H219762   5.724   4.030   1.507 -0.0025  0.6765 -0.4623
 6586TIP3   OH219763   5.168   4.444   3.076  0.0775  0.2288  0.1533
 6586TIP3    H119764   5.185   4.473   3.166  0.3578  0.1651  0.1229
 6586TIP3    H219765   5.091   4.388   3.082  0.0980  0.2235  0.3551
 6587TIP3   OH219766   5.211   3.891   4.541 -0.2425 -0.2921  0.3180
 6587TIP3    H119767   5.261   3.871   4.621  0.5924 -0.2674 -0.1905
 6587TIP3    H219768   5.268   3.948   4.490  0.8079 -3.1271 -1.9373
 6588TIP3   OH219769   0.791   4.972   1.876  0.4842 -0.4076  0.3551
 6588TIP3    H119770   0.765   4.892   1.923  2.1519 -0.0065  2.0751
 6588TIP3    H219771   0.823   4.941   1.792  0.9727 -1.5510  0.9352
 6589TIP3   OH219772   4.159   4.930   2.082 -0.1579 -0.3519 -0.7903
 6589TIP3    H119773   4.091   4.937   2.149  0.0520  0.1976 -0.6332
 6589TIP3    H219774   4.227   4.991   2.110  0.2976 -0.7221 -1.0731
 6590TIP3   OH219775   4.780   2.512   4.457  0.1177 -0.2765  0.3929
 6590TIP3    H119776   4.734   2.595   4.473 -0.4065 -0.5615  0.4036
 6590TIP3    H219777   4.823   2.492   4.540  1.4187  0.6888 -0.0268
 6591TIP3   OH219778   2.030   1.727   1.268  0.4716  0.2149 -0.3907
 6591TIP3    H119779   2.046   1.704   1.360 -0.8744 -0.4506 -0.2965
 6591TIP3    H219780   2.117   1.733   1.229  1.1564  2.1876  1.3015
 6592TIP3   OH219781   3.597   4.220   4.675  0.1570 -0.3127 -0.4477
 6592TIP3    H119782   3.644   4.143   4.709 -0.4575 -1.3822 -1.8930
 6592TIP3    H219783   3.637   4.294   4.720  2.3905 -1.2758 -0.6949
 6593TIP3   OH219784   0.068   4.121   3.143 -0.0665  0.5410 -0.0672
 6593TIP3    H119785   0.035   4.064   3.213  0.3123  0.9866  0.4912
 6593TIP3    H219786   0.151   4.155   3.178  0.1305  0.7614 -0.7435
 6594TIP3   OH219787   2.875   1.212   2.172 -0.0630  0.1030 -0.0792
 6594TIP3    H119788   2.904   1.139   2.226  0.0445  0.1616 -0.0569
 6594TIP3    H219789   2.782   1.195   2.157  0.1008 -0.3753 -0.6015
 6595TIP3   OH219790   0.584   5.928   4.807  0.0942  0.4137  0.3892
 6595TIP3    H119791   0.527   5.857   4.837 -1.0253  0.7093 -0.9467
 6595TIP3    H219792   0.534   5.972   4.738  1.9049  0.7407 -0.7796
 6596TIP3   OH219793   6.078   5.892   0.071 -0.2894  1.4277  0.2465
 6596TIP3    H119794   6.092   5.866  -0.020 -0.6757  0.2653  0.5002
 6596TIP3    H219795   6.086   5.810   0.121 -0.0671  2.0480  1.2600
 6597TIP3   OH219796   3.899   2.548   3.122 -0.3485 -0.3440 -0.3131
 6597TIP3    H119797   3.935   2.630   3.089 -0.0460 -0.6035 -0.6458
 6597TIP3    H219798   3.806   2.566   3.136  0.1029  0.7188  1.7783
 6598TIP3   OH219799   5.054   3.549   4.152 -0.5091  0.3093 -0.2324
 6598TIP3    H119800   4.959   3.557   4.160 -0.6393 -0.5311 -0.8031
 6598TIP3    H219801   5.087   3.636   4.174 -1.3140  0.2576  1.4087
 6599TIP3   OH219802   2.223   0.129   2.722  0.0385  0.0360 -0.0961
 6599TIP3    H119803   2.209   0.221   2.699  2.2308  0.4778  0.1318
 6599TIP3    H219804   2.219   0.127   2.817  0.7366  0.0559 -0.0596
 6600TIP3   OH219805   5.221   5.603   3.977 -0.6005  0.0723 -0.0614
 6600TIP3    H119806   5.258   5.673   4.030 -0.2463  0.1164 -0.3602
 6600TIP3    H219807   5.175   5.648   3.906 -1.1214  0.0147  0.2303
 6601TIP3   OH219808   0.571   5.706   0.454 -0.2917  0.3806 -0.1268
 6601TIP3    H119809   0.596   5.622   0.494  0.5055  0.7517  0.1642
 6601TIP3    H219810   0.629   5.770   0.494 -0.5150  0.9920 -0.7619
 6602TIP3   OH219811   2.079   4.809   3.575  0.0977 -0.0554 -0.1156
 6602TIP3    H119812   2.119   4.859   3.646  1.4000 -0.5336 -0.4839
 6602TIP3    H219813   2.013   4.754   3.619 -1.5755  2.1016  0.2594
 6603TIP3   OH219814   0.395   2.606   2.903 -0.0869  0.0489 -0.2066
 6603TIP3    H119815   0.428   2.616   2.814  1.8165  0.1265  0.4566
 6603TIP3    H219816   0.361   2.692   2.927 -1.0409 -0.0931 -0.9983
 6604TIP3   OH219817   6.124   3.090   4.589  0.1697  0.0219  0.1704
 6604TIP3    H119818   6.196   3.107   4.528  1.4218  0.4285  1.6976
 6604TIP3    H219819   6.156   3.020   4.646  0.0029  1.2373  1.8399
 6605TIP3   OH219820   2.435   3.334   2.485 -0.2757  0.0253 -0.3228
 6605TIP3    H119821   2.346   3.319   2.516  0.2633 -1.4730  0.6252
 6605TIP3    H219822   2.454   3.424   2.510 -1.2349  0.0946  0.2058
 6606TIP3   OH219823   4.959   3.121   2.711  0.0583 -0.0176 -0.3960
 6606TIP3    H119824   4.870   3.087   2.717 -0.2794  1.0313  0.9199
 6606TIP3    H219825   4.980   3.116   2.617 -1.6107  0.2965 -0.8166
 6607TIP3   OH219826   0.575   1.112   4.190  0.4570 -0.8536  0.3443
 6607TIP3    H119827   0.636   1.151   4.253 -0.9666  0.5967  0.9012
 6607TIP3    H219828   0.578   1.171   4.115 -2.4728  1.1400  1.5839
 6608TIP3   OH219829   5.134   4.739   2.412  0.2415  0.0357 -0.2572
 6608TIP3    H119830   5.045   4.753   2.380  0.3698  0.8046 -0.2942
 6608TIP3    H219831   5.178   4.822   2.397  0.5850  0.0992  1.0062
 6609TIP3   OH219832   0.085   2.134   4.363  0.6079 -0.2949  0.3976
 6609TIP3    H119833   0.030   2.121   4.440  1.9362 -0.7623  1.2963
 6609TIP3    H219834   0.040   2.084   4.293  1.3281 -3.1165  1.7909
 6610TIP3   OH219835   3.795   0.132   1.348 -0.3148 -0.2945 -0.6817
 6610TIP3    H119836   3.848   0.054   1.329  1.2401  0.5732 -0.0370
 6610TIP3    H219837   3.715   0.097   1.386  0.6672 -1.5806  0.3251
 6611TIP3   OH219838   1.942   2.085   1.614  0.0209  0.3908 -0.2189
 6611TIP3    H119839   1.953   1.994   1.585  0.1517  0.3804 -0.1343
 6611TIP3    H219840   2.021   2.105   1.663  0.2646  0.7492 -0.7464
 6612TIP3   OH219841   2.628   1.270   3.510 -0.3761  0.1260  0.2671
 6612TIP3    H119842   2.667   1.276   3.422 -2.1755  2.8611 -0.4642
 6612TIP3    H219843   2.700   1.291   3.570  0.5671 -0.4726 -0.6169
 6613TIP3   OH219844   1.957   3.561   3.891  0.7045 -0.1070 -0.2586
 6613TIP3    H119845   1.889   3.508   3.932  0.1888  0.1261 -0.8030
 6613TIP3    H219846   2.000   3.501   3.829  1.5392 -0.4840  0.6420
 6614TIP3   OH219847   1.333   1.975   4.742 -0.1982 -0.4572  0.0489
 6614TIP3    H119848   1.290   2.015   4.667  0.7288 -0.2855 -0.3995
 6614TIP3    H219849   1.333   2.044   4.809 -2.2333 -1.0329  0.7214
 6615TIP3   OH219850   5.324   2.419   3.488 -0.4430 -0.1173 -0.0355
 6615TIP3    H119851   5.416   2.395   3.476 -0.3438  0.4601 -0.5146
 6615TIP3    H219852   5.302   2.388   3.575 -1.0338 -4.1402 -1.3796
 6616TIP3   OH219853   5.637   1.897   4.755  0.0941 -0.2248 -0.3429
 6616TIP3    H119854   5.660   1.983   4.719  0.4176 -0.5085 -0.8430
 6616TIP3    H219855   5.636   1.839   4.678  0.0988 -0.7084  0.0183
 6617TIP3   OH219856   4.559   1.203   1.445  0.2336 -0.2506 -0.3255
 6617TIP3    H119857   4.616   1.167   1.377  2.9178  2.4554  0.2625
 6617TIP3    H219858   4.483   1.237   1.397  1.6194  0.7590 -1.9092
 6618TIP3   OH219859   0.347   2.396   2.521  0.0380  0.1166 -0.1312
 6618TIP3    H119860   0.284   2.438   2.461  0.8719 -0.2005 -1.2678
 6618TIP3    H219861   0.391   2.330   2.467 -0.4703 -1.4914  1.3244
 6619TIP3   OH219862   1.862   4.703   3.978 -0.6150 -0.5517  0.4287
 6619TIP3    H119863   1.781   4.731   3.935 -0.2338 -0.9116 -0.5306
 6619TIP3    H219864   1.903   4.785   4.006  0.2207 -0.1287 -1.8736
 6620TIP3   OH219865   5.137   1.124   0.521  0.5327 -0.4236  0.2691
 6620TIP3    H119866   5.176   1.036   0.523  1.0796 -0.1712  1.0742
 6620TIP3    H219867   5.060   1.117   0.577  1.1312 -0.1408  1.1395
 6621TIP3   OH219868   2.841   2.748   4.108 -0.3054  0.2585 -0.1331
 6621TIP3    H119869   2.813   2.776   4.020  0.2236  1.9189  0.1866
 6621TIP3    H219870   2.791   2.804   4.167  0.8200  0.5557  0.5605
 6622TIP3   OH219871   6.349   0.402   2.999 -0.2799  0.2935  0.0517
 6622TIP3    H119872   6.381   0.313   2.983  0.9712  0.7738 -0.2102
 6622TIP3    H219873   6.257   0.399   2.970  0.1318 -0.5424 -1.2937
 6623TIP3   OH219874   5.763   1.748   2.938 -0.1412  0.2889  0.1695
 6623TIP3    H119875   5.786   1.694   3.013 -0.8471 -0.6044 -0.2407
 6623TIP3    H219876   5.735   1.832   2.976  0.4948  0.2131  0.8308
 6624TIP3   OH219877   0.978   1.277   4.046  0.5792  0.3683  0.5723
 6624TIP3    H119878   0.988   1.188   4.013  1.8827  0.5778  0.3456
 6624TIP3    H219879   0.901   1.273   4.102  1.6515 -1.3400  2.0437
 6625TIP3   OH219880   3.010   1.755   5.078  0.0069  0.5424  0.3030
 6625TIP3    H119881   3.087   1.768   5.022 -0.1637  0.3223  0.0140
 6625TIP3    H219882   2.966   1.679   5.041  0.1229  0.1273  1.0036
 6626TIP3   OH219883   3.659   1.990   2.924  0.2786  0.0233 -0.5922
 6626TIP3    H119884   3.573   2.019   2.955 -0.6721 -1.8272 -1.3455
 6626TIP3    H219885   3.711   1.980   3.004 -0.1964  1.1157 -0.1246
 6627TIP3   OH219886   5.418   2.364   0.573  0.5583 -0.5903  0.2276
 6627TIP3    H119887   5.345   2.426   0.580  1.2794  0.2196  0.9616
 6627TIP3    H219888   5.471   2.397   0.501 -0.3905 -1.8710 -1.1249
 6628TIP3   OH219889   2.718   5.716   2.857  0.1002 -0.2354 -0.3196
 6628TIP3    H119890   2.673   5.639   2.892  0.6599 -0.9702 -1.1958
 6628TIP3    H219891   2.699   5.715   2.763 -1.9648  2.0917 -0.0540
 6629TIP3   OH219892   2.042   5.314   2.522 -0.6062  0.2337  0.4732
 6629TIP3    H119893   2.008   5.400   2.496 -2.0500 -0.5708 -0.4375
 6629TIP3    H219894   2.121   5.334   2.573 -0.9648  2.0942  0.3793
 6630TIP3   OH219895   5.294   0.211   2.581 -0.4467  0.1613 -0.1346
 6630TIP3    H119896   5.361   0.174   2.524 -1.6131  0.9292 -2.1077
 6630TIP3    H219897   5.319   0.303   2.591  0.2909 -0.1826  1.4780
 6631TIP3   OH219898   1.196   3.028   4.044  0.2070  0.1678  0.3077
 6631TIP3    H119899   1.197   3.115   4.083 -0.8464  0.6275 -0.6373
 6631TIP3    H219900   1.132   2.979   4.097  2.5303 -0.8316  2.3768
 6632TIP3   OH219901   5.625   4.638   1.763 -0.1356 -0.4525 -0.4535
 6632TIP3    H119902   5.592   4.727   1.747 -0.5468 -0.3914  0.6018
 6632TIP3    H219903   5.611   4.625   1.857  2.7099 -0.4985  0.0288
 6633TIP3   OH219904   2.803   0.539   1.730  0.6375 -0.0687 -0.8255
 6633TIP3    H119905   2.830   0.617   1.780  1.8255 -0.7001 -0.4349
 6633TIP3    H219906   2.885   0.494   1.710 -0.0636 -1.6092 -0.4000
 6634TIP3   OH219907   5.427   4.536   0.338  0.1745 -0.4052  0.0620
 6634TIP3    H119908   5.393   4.488   0.414 -0.3896  0.0181  0.0796
 6634TIP3    H219909   5.369   4.511   0.266 -1.6457  2.0187  0.5450
 6635TIP3   OH219910   4.607   2.920   1.461  0.0682  1.0778  0.4736
 6635TIP3    H119911   4.549   2.996   1.458 -0.4749  0.7047  1.1506
 6635TIP3    H219912   4.553   2.847   1.430 -0.2702  0.4765  2.3378
 6636TIP3   OH219913   5.298   4.685   4.913  0.5310 -0.4116 -0.3570
 6636TIP3    H119914   5.347   4.604   4.923 -0.5963 -1.1578 -0.7030
 6636TIP3    H219915   5.206   4.658   4.913  0.0970  0.9508  0.3723
 6637TIP3   OH219916   3.586   1.363   3.012 -0.0061 -0.0358 -0.7369
 6637TIP3    H119917   3.656   1.427   3.000  2.4390 -2.0667  1.4298
 6637TIP3    H219918   3.575   1.323   2.926 -1.3160  2.8468 -2.0355
 6638TIP3   OH219919   4.666   5.166   1.896 -0.1471 -0.4169  0.3140
 6638TIP3    H119920   4.734   5.218   1.855  0.2627 -0.3568  1.0459
 6638TIP3    H219921   4.701   5.077   1.897 -0.6558 -0.6296 -0.5318
 6639TIP3   OH219922   5.715   3.057   2.340 -0.2698 -0.0443 -0.1633
 6639TIP3    H119923   5.741   2.983   2.284 -1.1302 -0.4744 -0.0006
 6639TIP3    H219924   5.743   3.030   2.428  0.1487  0.1858 -0.2209
 6640TIP3   OH219925   5.807   1.421   0.814  0.2160 -0.1133 -0.4731
 6640TIP3    H119926   5.815   1.363   0.890 -4.5564 -0.6560 -0.0639
 6640TIP3    H219927   5.759   1.497   0.846  0.7957  1.1187 -2.3433
   6.33860   5.97609   5.17545   0.00000   0.00000  -2.11287   0.00000  -2.11287  -2.98805
