        76  EXT
         1         1  SER       N              -1.0360000000        6.8070000000       16.1160000000  PROA      1              94.4600000000
         2         1  SER       CA             -1.5540000000        6.1220000000       14.9360000000  PROA      1              95.1200000000
         3         1  SER       C              -0.7700000000        4.8450000000       14.6510000000  PROA      1              96.3300000000
         4         1  SER       CB             -1.5050000000        7.0430000000       13.7170000000  PROA      1              91.9400000000
         5         1  SER       O               0.4290000000        4.7710000000       14.9270000000  PROA      1              94.9300000000
         6         1  SER       OG             -0.1720000000        7.2090000000       13.2650000000  PROA      1              63.5900000000
         7         2  GLY       N              -1.4020000000        3.6090000000       14.5610000000  PROA      2              94.0900000000
         8         2  GLY       CA             -0.7790000000        2.3330000000       14.2450000000  PROA      2              94.7100000000
         9         2  GLY       C              -0.0040000000        2.3540000000       12.9410000000  PROA      2              95.7500000000
        10         2  GLY       O              -0.1170000000        3.3020000000       12.1610000000  PROA      2              95.0100000000
        11         3  ASP       N               0.8430000000        1.5990000000       12.8160000000  PROA      3              96.1900000000
        12         3  ASP       CA              1.5400000000        1.4390000000       11.5440000000  PROA      3              96.2600000000
        13         3  ASP       C               0.5510000000        1.3140000000       10.3880000000  PROA      3              96.4900000000
        14         3  ASP       CB              2.4600000000        0.2170000000       11.5840000000  PROA      3              95.1100000000
        15         3  ASP       O              -0.5680000000        0.8290000000       10.5710000000  PROA      3              95.7200000000
        16         3  ASP       CG              3.5380000000        0.3210000000       12.6490000000  PROA      3              90.1500000000
        17         3  ASP       OD1             3.9260000000        1.4520000000       13.0150000000  PROA      3              87.6100000000
        18         3  ASP       OD2             4.0060000000       -0.7360000000       13.1230000000  PROA      3              87.9400000000
        19         4  SER       N               1.0560000000        1.7050000000        9.3000000000  PROA      4              95.4900000000
        20         4  SER       CA              0.2660000000        1.4470000000        8.1000000000  PROA      4              95.3900000000
        21         4  SER       C              -0.0120000000       -0.0430000000        7.9310000000  PROA      4              95.8800000000
        22         4  SER       CB              0.9820000000        1.9850000000        6.8610000000  PROA      4              94.2900000000
        23         4  SER       O               0.7770000000       -0.8810000000        8.3710000000  PROA      4              95.1800000000
        24         4  SER       OG              1.2390000000        3.3720000000        6.9900000000  PROA      4              88.5000000000
        25         5  GLY       N              -1.3080000000       -0.4230000000        7.5590000000  PROA      5              95.2100000000
        26         5  GLY       CA             -1.6250000000       -1.8050000000        7.2320000000  PROA      5              94.9500000000
        27         5  GLY       C              -0.7420000000       -2.3760000000        6.1380000000  PROA      5              95.6400000000
        28         5  GLY       O               0.0600000000       -1.6560000000        5.5400000000  PROA      5              94.9500000000
        29         6  PRO       N              -0.8490000000       -3.6160000000        5.8980000000  PROA      6              97.2800000000
        30         6  PRO       CA             -0.1660000000       -4.2060000000        4.7440000000  PROA      6              97.3100000000
        31         6  PRO       C              -0.6650000000       -3.6480000000        3.4140000000  PROA      6              97.7500000000
        32         6  PRO       CB             -0.4910000000       -5.6970000000        4.8670000000  PROA      6              96.8100000000
        33         6  PRO       O              -1.7660000000       -3.0940000000        3.3460000000  PROA      6              97.5800000000
        34         6  PRO       CG             -1.6300000000       -5.7610000000        5.8330000000  PROA      6              94.7700000000
        35         6  PRO       CD             -1.7540000000       -4.4290000000        6.5140000000  PROA      6              94.3800000000
        36         7  GLY       N               0.1780000000       -3.7420000000        2.4190000000  PROA      7              96.4800000000
        37         7  GLY       CA             -0.2280000000       -3.2680000000        1.1060000000  PROA      7              96.4600000000
        38         7  GLY       C              -1.3200000000       -4.1130000000        0.4780000000  PROA      7              97.2600000000
        39         7  GLY       O              -1.5870000000       -5.2280000000        0.9300000000  PROA      7              97.0600000000
        40         8  ASP       N              -2.0330000000       -3.5530000000       -0.5200000000  PROA      8              96.6900000000
        41         8  ASP       CA             -3.0250000000       -4.2620000000       -1.3230000000  PROA      8              96.8500000000
        42         8  ASP       C              -2.4080000000       -5.4790000000       -2.0090000000  PROA      8              97.5700000000
        43         8  ASP       CB             -3.6410000000       -3.3260000000       -2.3650000000  PROA      8              96.1500000000
        44         8  ASP       O              -1.2170000000       -5.4810000000       -2.3260000000  PROA      8              97.4600000000
        45         8  ASP       CG             -4.5070000000       -2.2410000000       -1.7490000000  PROA      8              93.1700000000
        46         8  ASP       OD1            -4.8620000000       -2.3480000000       -0.5550000000  PROA      8              92.9900000000
        47         8  ASP       OD2            -4.8380000000       -1.2710000000       -2.4650000000  PROA      8              92.4000000000
        48         9  PRO       N              -3.1630000000       -6.4870000000       -2.2990000000  PROA      9              96.7400000000
        49         9  PRO       CA             -2.6340000000       -7.5690000000       -3.1310000000  PROA      9              96.7200000000
        50         9  PRO       C              -2.2320000000       -7.0980000000       -4.5270000000  PROA      9              97.3600000000
        51         9  PRO       CB             -3.7990000000       -8.5600000000       -3.2040000000  PROA      9              96.0100000000
        52         9  PRO       O              -2.7470000000       -6.0870000000       -5.0130000000  PROA      9              97.2300000000
        53         9  PRO       CG             -4.7540000000       -8.1040000000       -2.1490000000  PROA      9              92.7600000000
        54         9  PRO       CD             -4.4780000000       -6.6600000000       -1.8460000000  PROA      9              92.8800000000
        55        10  GLY       N              -1.0990000000       -7.6460000000       -5.1720000000  PROA      10             95.6900000000
        56        10  GLY       CA             -0.6980000000       -7.3190000000       -6.5310000000  PROA      10             95.7800000000
        57        10  GLY       C              -1.7710000000       -7.6240000000       -7.5590000000  PROA      10             96.8000000000
        58        10  GLY       O              -2.7260000000       -8.3480000000       -7.2710000000  PROA      10             96.7000000000
        59        11  ASP       N              -1.7790000000       -7.1230000000       -8.8120000000  PROA      11             96.5400000000
        60        11  ASP       CA             -2.6750000000       -7.3830000000       -9.9350000000  PROA      11             96.8000000000
        61        11  ASP       C              -2.6230000000       -8.8510000000      -10.3510000000  PROA      11             97.2800000000
        62        11  ASP       CB             -2.3190000000       -6.4870000000      -11.1230000000  PROA      11             95.8800000000
        63        11  ASP       O              -1.5590000000       -9.4730000000      -10.3200000000  PROA      11             97.0900000000
        64        11  ASP       CG             -2.5550000000       -5.0120000000      -10.8450000000  PROA      11             91.1900000000
        65        11  ASP       OD1            -3.3250000000       -4.6820000000       -9.9180000000  PROA      11             90.9800000000
        66        11  ASP       OD2            -1.9680000000       -4.1730000000      -11.5630000000  PROA      11             90.4600000000
        67        12  SER       N              -3.6220000000       -9.5330000000      -10.5040000000  PROA      12             96.3700000000
        68        12  SER       CA             -3.6690000000      -10.9110000000      -10.9840000000  PROA      12             96.2500000000
        69        12  SER       C              -2.9870000000      -11.0470000000      -12.3410000000  PROA      12             96.7700000000
        70        12  SER       CB             -5.1160000000      -11.3960000000      -11.0790000000  PROA      12             94.5500000000
        71        12  SER       O              -2.9980000000      -10.1110000000      -13.1440000000  PROA      12             96.3800000000
        72        12  SER       OG             -5.8440000000      -10.6240000000      -12.0180000000  PROA      12             85.6400000000
        73        13  GLY       N              -1.8000000000      -11.8300000000      -12.6530000000  PROA      13             95.2300000000
        74        13  GLY       CA             -1.0540000000      -12.0700000000      -13.8780000000  PROA      13             94.2000000000
        75        13  GLY       C              -1.9450000000      -12.3430000000      -15.0760000000  PROA      13             94.9100000000
        76        13  GLY       O              -3.1320000000      -12.6350000000      -14.9190000000  PROA      13             92.9400000000
