* SET NIONTYPES = 1
* SET NPOSTOT = 35
* SET NNEGTOT = 32
* SET NIONTOT = 67
*  DATE:     6/13/26      6:21:48      CREATED BY USER: charmm-gui
*
        67  EXT
         1         1  LIT       LIT           -20.2806366112       24.1209451177      -11.9726327513  IONS      1               1.0000000000
         2         2  LIT       LIT           -32.8564955375        8.4953191796       -8.8459755764  IONS      2               1.0000000000
         3         3  LIT       LIT             5.5658876928      -29.7402108293       28.8146534916  IONS      3               1.0000000000
         4         4  LIT       LIT             5.1482090423        3.5478911898        2.8774698717  IONS      4               1.0000000000
         5         5  LIT       LIT           -27.9218313853      -12.9631790853       -7.6486404005  IONS      5               1.0000000000
         6         6  LIT       LIT            30.9901776736      -18.2104973892      -24.5250836275  IONS      6               1.0000000000
         7         7  LIT       LIT           -20.0229357359      -14.2490019772      -15.6076175623  IONS      7               1.0000000000
         8         8  LIT       LIT           -27.8846803648       17.8551578952      -25.0992832975  IONS      8               1.0000000000
         9         9  LIT       LIT            12.8555907368       12.2369513441       42.4217954194  IONS      9               1.0000000000
        10        10  LIT       LIT           -13.4651376057        7.1070477807       36.3026728157  IONS      10              1.0000000000
        11        11  LIT       LIT             8.7612127317      -26.8179962116       16.3375447952  IONS      11              1.0000000000
        12        12  LIT       LIT             8.4630434733       -2.6042323445       14.1424531081  IONS      12              1.0000000000
        13        13  LIT       LIT            18.2334654958      -13.4156255272       38.9958962974  IONS      13              1.0000000000
        14        14  LIT       LIT           -34.6608836293        7.7899437988      -22.0790645203  IONS      14              1.0000000000
        15        15  LIT       LIT            27.0541363988       30.7975511916      -12.0323322001  IONS      15              1.0000000000
        16        16  LIT       LIT           -24.4209289150       -1.9265091235        7.7938930295  IONS      16              1.0000000000
        17        17  LIT       LIT           -14.4861560953       36.8857756734       23.3925757290  IONS      17              1.0000000000
        18        18  LIT       LIT            -6.1979540990      -29.9474320076       -3.1303444286  IONS      18              1.0000000000
        19        19  LIT       LIT           -16.7026913855      -21.3793092948      -25.9987676985  IONS      19              1.0000000000
        20        20  LIT       LIT           -20.8269639229      -18.7697040461       20.1347730801  IONS      20              1.0000000000
        21        21  LIT       LIT             5.3631936679      -30.8291008696      -28.9458866302  IONS      21              1.0000000000
        22        22  LIT       LIT            -5.9261671191       22.7031350913      -12.9959421713  IONS      22              1.0000000000
        23        23  LIT       LIT             6.7349682450      -24.6038730479      -21.3737606836  IONS      23              1.0000000000
        24        24  LIT       LIT           -37.2223669699       21.1460831592       -5.2444868705  IONS      24              1.0000000000
        25        25  LIT       LIT            25.1211887567       12.5348823110       -4.0282326676  IONS      25              1.0000000000
        26        26  LIT       LIT             2.2954610871      -21.7112489886      -23.2805183049  IONS      26              1.0000000000
        27        27  LIT       LIT            10.9182962670       19.7904053752       22.5751457741  IONS      27              1.0000000000
        28        28  LIT       LIT            23.5157623422        9.8986092756       24.8615640495  IONS      28              1.0000000000
        29        29  LIT       LIT           -15.1042433916      -28.5719945063      -14.2945839545  IONS      29              1.0000000000
        30        30  LIT       LIT           -21.8929352581      -39.3699299906       -3.8099385615  IONS      30              1.0000000000
        31        31  LIT       LIT           -23.0671402475      -31.8385589697       -3.3475813913  IONS      31              1.0000000000
        32        32  LIT       LIT            -4.1505695005       12.9192743493        3.7160969098  IONS      32              1.0000000000
        33        33  LIT       LIT            30.0598657932      -20.0776170876      -29.6451328163  IONS      33              1.0000000000
        34        34  LIT       LIT           -14.9982506684        9.1371083513       -2.6645712962  IONS      34              1.0000000000
        35        35  LIT       LIT            15.6193212200      -24.5943133918      -34.3620113480  IONS      35              1.0000000000
        36        36  CLA       CLA           -34.7507232948       12.3355023060       -5.1458677126  IONS      36             -1.0000000000
        37        37  CLA       CLA            11.6495953445       17.7850562830       37.7625256146  IONS      37             -1.0000000000
        38        38  CLA       CLA            -9.8444525421       -4.9769398865       -6.8009782982  IONS      38             -1.0000000000
        39        39  CLA       CLA           -16.8981261027       32.2979857129       23.5537829202  IONS      39             -1.0000000000
        40        40  CLA       CLA             2.6468651846      -24.4553655707       -0.3700406145  IONS      40             -1.0000000000
        41        41  CLA       CLA            -2.2525303429        6.4029937226       26.7855411808  IONS      41             -1.0000000000
        42        42  CLA       CLA            23.3895369627       10.7038052803       14.5852893363  IONS      42             -1.0000000000
        43        43  CLA       CLA            37.8530523524        8.2360526787      -15.1343415999  IONS      43             -1.0000000000
        44        44  CLA       CLA            15.2582190468       42.9189408897       -0.0310437121  IONS      44             -1.0000000000
        45        45  CLA       CLA            13.7605803245       -4.8709241017       22.9324497272  IONS      45             -1.0000000000
        46        46  CLA       CLA            -7.7452900707        1.8001792694       14.5649583965  IONS      46             -1.0000000000
        47        47  CLA       CLA             1.1239843236      -27.1966193377      -16.3527822247  IONS      47             -1.0000000000
        48        48  CLA       CLA            32.9480990223        9.2625985891       24.9991614033  IONS      48             -1.0000000000
        49        49  CLA       CLA           -24.0680694917      -30.0782141640      -12.4355714685  IONS      49             -1.0000000000
        50        50  CLA       CLA           -12.8976283351       10.3735552866       -9.5878198806  IONS      50             -1.0000000000
        51        51  CLA       CLA           -37.5572498898        2.7062710978        4.6927712229  IONS      51             -1.0000000000
        52        52  CLA       CLA             9.7866155700       22.8411142676       26.9475830171  IONS      52             -1.0000000000
        53        53  CLA       CLA             1.8077284631       12.1409920883       -4.1191174149  IONS      53             -1.0000000000
        54        54  CLA       CLA           -22.1745453976      -17.8713397876      -23.6509544740  IONS      54             -1.0000000000
        55        55  CLA       CLA            33.8388376818      -13.4998125316       18.5898099831  IONS      55             -1.0000000000
        56        56  CLA       CLA             6.5385518491        7.0356568930       38.9122267481  IONS      56             -1.0000000000
        57        57  CLA       CLA           -30.1062706137       -8.1834298298      -12.5883019266  IONS      57             -1.0000000000
        58        58  CLA       CLA            -6.3207041858       -6.5786494683      -40.2345570916  IONS      58             -1.0000000000
        59        59  CLA       CLA            14.7784163483      -19.5814761928      -31.5090495293  IONS      59             -1.0000000000
        60        60  CLA       CLA            14.9276602173      -27.5474107389       35.8695388161  IONS      60             -1.0000000000
        61        61  CLA       CLA           -20.8217610180      -20.2590210509      -16.2029281912  IONS      61             -1.0000000000
        62        62  CLA       CLA           -28.4686238051      -33.0628528863        1.6520565714  IONS      62             -1.0000000000
        63        63  CLA       CLA            23.6364127105       19.2698029950      -25.3681925961  IONS      63             -1.0000000000
        64        64  CLA       CLA             0.5263963765      -35.2712520086      -31.4767141793  IONS      64             -1.0000000000
        65        65  CLA       CLA           -23.4043003331       -0.7965752065      -38.1133831701  IONS      65             -1.0000000000
        66        66  CLA       CLA             2.2796465734      -24.1768985294      -28.7867680837  IONS      66             -1.0000000000
        67        67  CLA       CLA           -26.7472859142       -8.5950712776       -9.9539866913  IONS      67             -1.0000000000
