Title t= 307.00000 step= 153500
29212
    1ASP      N    1   3.083   1.609   2.700
    1ASP    HT1    2   3.058   1.510   2.680
    1ASP    HT2    3   3.093   1.624   2.802
    1ASP    HT3    4   3.168   1.634   2.644
    1ASP     CA    5   2.982   1.710   2.655
    1ASP     HA    6   3.015   1.810   2.682
    1ASP     CB    7   2.962   1.701   2.499
    1ASP    HB1    8   2.873   1.752   2.457
    1ASP    HB2    9   2.945   1.596   2.467
    1ASP     CG   10   3.088   1.757   2.428
    1ASP    OD1   11   3.176   1.813   2.498
    1ASP    OD2   12   3.104   1.750   2.306
    1ASP      C   13   2.850   1.694   2.728
    1ASP      O   14   2.806   1.789   2.790
    2GLY      N   15   2.784   1.575   2.719
    2GLY     HN   16   2.829   1.492   2.687
    2GLY     CA   17   2.649   1.561   2.764
    2GLY    HA1   18   2.635   1.619   2.854
    2GLY    HA2   19   2.645   1.456   2.788
    2GLY      C   20   2.535   1.595   2.677
    2GLY      O   21   2.549   1.666   2.574
    3ASP      N   22   2.415   1.547   2.708
    3ASP     HN   23   2.411   1.488   2.788
    3ASP     CA   24   2.290   1.571   2.632
    3ASP     HA   25   2.309   1.545   2.529
    3ASP     CB   26   2.181   1.496   2.694
    3ASP    HB1   27   2.076   1.524   2.673
    3ASP    HB2   28   2.192   1.498   2.805
    3ASP     CG   29   2.201   1.351   2.652
    3ASP    OD1   30   2.149   1.255   2.720
    3ASP    OD2   31   2.259   1.313   2.548
    3ASP      C   32   2.242   1.712   2.611
    3ASP      O   33   2.256   1.794   2.703
    4GLY      N   34   2.176   1.742   2.494
    4GLY     HN   35   2.160   1.671   2.426
    4GLY     CA   36   2.120   1.878   2.485
    4GLY    HA1   37   2.117   1.900   2.379
    4GLY    HA2   38   2.185   1.951   2.531
    4GLY      C   39   1.977   1.885   2.544
    4GLY      O   40   1.937   1.777   2.587
    5PRO      N   41   1.902   1.992   2.539
    5PRO     CD   42   1.959   2.124   2.517
    5PRO    HD1   43   1.993   2.131   2.412
    5PRO    HD2   44   2.044   2.149   2.584
    5PRO     CA   45   1.767   1.997   2.595
    5PRO     HA   46   1.784   2.005   2.701
    5PRO     CB   47   1.717   2.131   2.551
    5PRO    HB1   48   1.640   2.166   2.623
    5PRO    HB2   49   1.679   2.120   2.447
    5PRO     CG   50   1.840   2.218   2.549
    5PRO    HG1   51   1.831   2.302   2.477
    5PRO    HG2   52   1.858   2.256   2.651
    5PRO      C   53   1.674   1.878   2.570
    5PRO      O   54   1.636   1.840   2.458
    6GLY      N   55   1.630   1.815   2.683
    6GLY     HN   56   1.632   1.868   2.767
    6GLY     CA   57   1.525   1.704   2.683
    6GLY    HA1   58   1.553   1.636   2.762
    6GLY    HA2   59   1.509   1.656   2.588
    6GLY      C   60   1.390   1.770   2.709
    6GLY      O   61   1.369   1.884   2.675
    7ASP      N   62   1.290   1.700   2.769
    7ASP     HN   63   1.305   1.604   2.789
    7ASP     CA   64   1.176   1.768   2.824
    7ASP     HA   65   1.157   1.863   2.775
    7ASP     CB   66   1.054   1.666   2.829
    7ASP    HB1   67   0.973   1.701   2.896
    7ASP    HB2   68   1.097   1.571   2.868
    7ASP     CG   69   0.999   1.640   2.695
    7ASP    OD1   70   0.912   1.553   2.682
    7ASP    OD2   71   1.019   1.718   2.599
    7ASP      C   72   1.215   1.800   2.969
    7ASP      O   73   1.257   1.715   3.046
    8PRO      N   74   1.206   1.925   3.010
    8PRO     CD   75   1.240   2.042   2.936
    8PRO    HD1   76   1.159   2.074   2.867
    8PRO    HD2   77   1.334   2.022   2.880
    8PRO     CA   78   1.187   1.949   3.154
    8PRO     HA   79   1.283   1.936   3.203
    8PRO     CB   80   1.163   2.096   3.160
    8PRO    HB1   81   1.203   2.144   3.252
    8PRO    HB2   82   1.054   2.113   3.146
    8PRO     CG   83   1.253   2.146   3.044
    8PRO    HG1   84   1.223   2.247   3.010
    8PRO    HG2   85   1.356   2.159   3.082
    8PRO      C   86   1.086   1.856   3.231
    8PRO      O   87   0.985   1.819   3.170
    9GLY      N   88   1.110   1.817   3.353
    9GLY     HN   89   1.202   1.834   3.388
    9GLY     CA   90   1.022   1.746   3.448
    9GLY    HA1   91   1.075   1.717   3.538
    9GLY    HA2   92   0.973   1.665   3.397
    9GLY      C   93   0.910   1.840   3.488
    9GLY      O   94   0.910   1.961   3.449
   10ASP      N   95   0.814   1.793   3.574
   10ASP     HN   96   0.814   1.694   3.590
   10ASP     CA   97   0.702   1.868   3.633
   10ASP     HA   98   0.657   1.916   3.548
   10ASP     CB   99   0.590   1.778   3.687
   10ASP    HB1  100   0.517   1.858   3.713
   10ASP    HB2  101   0.610   1.711   3.773
   10ASP     CG  102   0.520   1.697   3.578
   10ASP    OD1  103   0.521   1.726   3.460
   10ASP    OD2  104   0.447   1.602   3.621
   10ASP      C  105   0.748   1.971   3.729
   10ASP      O  106   0.806   1.946   3.832
   11GLY      N  107   0.702   2.096   3.710
   11GLY     HN  108   0.658   2.111   3.622
   11GLY     CA  109   0.702   2.205   3.802
   11GLY    HA1  110   0.772   2.178   3.879
   11GLY    HA2  111   0.602   2.227   3.839
   11GLY      C  112   0.763   2.329   3.745
   11GLY    OT1  113   0.869   2.326   3.680
   11GLY    OT2  114   0.696   2.435   3.758
   12LIT    LIT  115   0.969   0.062   1.176
   13LIT    LIT  116   6.707   0.589   0.747
   14LIT    LIT  117   4.838   1.604   5.440
   15LIT    LIT  118   0.670   5.127   2.634
   16LIT    LIT  119   0.831   2.519   3.636
   17LIT    LIT  120   4.686   6.600   3.112
   18LIT    LIT  121   2.566   2.246   3.707
   19LIT    LIT  122   1.548   4.424   0.673
   20LIT    LIT  123   2.297   4.433   0.157
   21LIT    LIT  124   1.136   5.974   4.015
   22LIT    LIT  125   4.938   1.215   4.664
   23LIT    LIT  126   3.182   6.689   1.900
   24LIT    LIT  127   3.559   0.960   0.042
   25LIT    LIT  128   0.223   3.021   2.637
   26LIT    LIT  129   0.390   1.561   3.419
   27LIT    LIT  130   1.684   0.329   3.343
   28LIT    LIT  131   1.175   6.246   5.503
   29LIT    LIT  132   5.526   2.493   3.538
   30LIT    LIT  133   0.287   0.947   2.294
   31LIT    LIT  134   5.439   2.061   2.293
   32LIT    LIT  135   6.221   5.560   5.744
   33LIT    LIT  136   3.633   4.387   2.947
   34LIT    LIT  137   6.908   1.507   4.681
   35LIT    LIT  138   0.911   1.014   2.308
   36LIT    LIT  139   6.884   5.947   2.687
   37LIT    LIT  140   2.940   5.980   3.644
   38LIT    LIT  141   0.236   1.531   0.411
   39LIT    LIT  142   3.271   1.837   2.349
   40LIT    LIT  143   2.334   4.801   2.553
   41LIT    LIT  144   1.647   1.499   4.465
   42LIT    LIT  145   2.173   1.140   2.564
   43CLA    CLA  146   2.202   4.672   2.423
   44CLA    CLA  147   1.979   0.576   4.023
   45CLA    CLA  148   2.603   3.059   3.495
   46CLA    CLA  149   1.389   6.787   5.758
   47CLA    CLA  150   0.652   1.160   3.261
   48CLA    CLA  151   4.235   6.544   1.586
   49CLA    CLA  152   1.709   4.893   3.696
   50CLA    CLA  153   1.251   2.921   2.629
   51CLA    CLA  154   5.743   1.079   2.082
   52CLA    CLA  155   2.531   4.860   3.785
   53CLA    CLA  156   2.658   1.820   3.643
   54CLA    CLA  157   2.605   1.899   0.970
   55CLA    CLA  158   5.501   1.382   4.499
   56CLA    CLA  159   0.307   1.609   4.997
   57CLA    CLA  160   3.479   1.716   5.172
   58CLA    CLA  161   3.786   4.444   3.120
   59CLA    CLA  162   4.582   0.569   2.136
   60CLA    CLA  163   3.823   0.113   2.647
   61CLA    CLA  164   1.692   1.323   2.049
   62CLA    CLA  165   2.343   0.394   2.117
   63CLA    CLA  166   2.550   5.471   4.963
   64CLA    CLA  167   3.029   4.780   0.607
   65CLA    CLA  168   6.290   4.661   4.787
   66CLA    CLA  169   0.869   4.664   2.135
   67CLA    CLA  170   6.676   1.287  -0.016
   68CLA    CLA  171   5.089   3.520   4.744
   69CLA    CLA  172   3.393   4.637   3.833
   70TIP3   OH2  173   2.932   5.081   0.622
   70TIP3    H1  174   2.960   4.993   0.594
   70TIP3    H2  175   2.861   5.103   0.562
   71TIP3   OH2  176   2.538   0.959   1.304
   71TIP3    H1  177   2.474   0.929   1.369
   71TIP3    H2  178   2.484   0.984   1.228
   72TIP3   OH2  179   2.159   6.074   3.536
   72TIP3    H1  180   2.065   6.075   3.552
   72TIP3    H2  181   2.174   5.993   3.488
   73TIP3   OH2  182   4.846   4.453   4.580
   73TIP3    H1  183   4.753   4.474   4.583
   73TIP3    H2  184   4.881   4.508   4.509
   74TIP3   OH2  185   0.962   0.936   0.243
   74TIP3    H1  186   1.000   1.014   0.282
   74TIP3    H2  187   0.876   0.928   0.284
   75TIP3   OH2  188   5.671   2.647   1.424
   75TIP3    H1  189   5.576   2.635   1.420
   75TIP3    H2  190   5.690   2.713   1.357
   76TIP3   OH2  191   2.868   5.361   5.243
   76TIP3    H1  192   2.775   5.377   5.258
   76TIP3    H2  193   2.873   5.337   5.150
   77TIP3   OH2  194   2.720   1.878   1.745
   77TIP3    H1  195   2.813   1.885   1.766
   77TIP3    H2  196   2.696   1.788   1.768
   78TIP3   OH2  197   1.612   3.733   3.585
   78TIP3    H1  198   1.618   3.646   3.546
   78TIP3    H2  199   1.588   3.717   3.676
   79TIP3   OH2  200   3.596   1.566   1.550
   79TIP3    H1  201   3.637   1.652   1.542
   79TIP3    H2  202   3.512   1.575   1.504
   80TIP3   OH2  203   2.113   1.335   5.769
   80TIP3    H1  204   2.096   1.428   5.752
   80TIP3    H2  205   2.114   1.329   5.865
   81TIP3   OH2  206   6.692   4.293   2.451
   81TIP3    H1  207   6.701   4.380   2.491
   81TIP3    H2  208   6.625   4.305   2.384
   82TIP3   OH2  209   3.165   4.816   4.716
   82TIP3    H1  210   3.134   4.740   4.766
   82TIP3    H2  211   3.153   4.890   4.774
   83TIP3   OH2  212   0.506   2.300   0.434
   83TIP3    H1  213   0.555   2.254   0.366
   83TIP3    H2  214   0.522   2.249   0.513
   84TIP3   OH2  215   4.140   2.013   3.713
   84TIP3    H1  216   4.165   1.970   3.631
   84TIP3    H2  217   4.080   1.951   3.755
   85TIP3   OH2  218   0.485   1.317   1.201
   85TIP3    H1  219   0.464   1.389   1.259
   85TIP3    H2  220   0.402   1.297   1.156
   86TIP3   OH2  221   2.336   0.301   0.101
   86TIP3    H1  222   2.402   0.369   0.111
   86TIP3    H2  223   2.313   0.277   0.191
   87TIP3   OH2  224   1.152   0.044   1.588
   87TIP3    H1  225   1.114  -0.042   1.568
   87TIP3    H2  226   1.227   0.023   1.645
   88TIP3   OH2  227   2.859   5.398   4.925
   88TIP3    H1  228   2.846   5.388   4.831
   88TIP3    H2  229   2.775   5.430   4.958
   89TIP3   OH2  230   1.091   4.992   0.388
   89TIP3    H1  231   1.127   5.080   0.391
   89TIP3    H2  232   1.129   4.948   0.464
   90TIP3   OH2  233   4.021   2.883   3.166
   90TIP3    H1  234   4.070   2.814   3.122
   90TIP3    H2  235   3.930   2.870   3.137
   91TIP3   OH2  236   7.082   0.998   1.254
   91TIP3    H1  237   7.139   0.933   1.296
   91TIP3    H2  238   7.039   0.950   1.184
   92TIP3   OH2  239   6.615   2.737   5.434
   92TIP3    H1  240   6.594   2.830   5.429
   92TIP3    H2  241   6.632   2.721   5.527
   93TIP3   OH2  242   3.130   1.827   3.731
   93TIP3    H1  243   3.112   1.764   3.661
   93TIP3    H2  244   3.224   1.844   3.723
   94TIP3   OH2  245   0.902   3.473   5.345
   94TIP3    H1  246   0.850   3.537   5.394
   94TIP3    H2  247   0.899   3.505   5.255
   95TIP3   OH2  248   0.047   1.562   0.517
   95TIP3    H1  249  -0.041   1.537   0.490
   95TIP3    H2  250   0.042   1.571   0.612
   96TIP3   OH2  251   5.851   4.592   4.477
   96TIP3    H1  252   5.924   4.536   4.452
   96TIP3    H2  253   5.891   4.673   4.509
   97TIP3   OH2  254   0.778   4.229   4.533
   97TIP3    H1  255   0.752   4.154   4.480
   97TIP3    H2  256   0.702   4.288   4.531
   98TIP3   OH2  257   0.327   3.807   1.118
   98TIP3    H1  258   0.395   3.833   1.056
   98TIP3    H2  259   0.309   3.716   1.098
   99TIP3   OH2  260   1.892   3.510   4.471
   99TIP3    H1  261   1.910   3.452   4.545
   99TIP3    H2  262   1.802   3.540   4.485
  100TIP3   OH2  263   2.347   3.997   4.538
  100TIP3    H1  264   2.326   4.087   4.563
  100TIP3    H2  265   2.281   3.974   4.473
  101TIP3   OH2  266   6.255   3.595   2.263
  101TIP3    H1  267   6.305   3.671   2.233
  101TIP3    H2  268   6.285   3.523   2.207
  102TIP3   OH2  269   0.526   2.533   1.116
  102TIP3    H1  270   0.553   2.443   1.129
  102TIP3    H2  271   0.543   2.551   1.024
  103TIP3   OH2  272   6.467   0.180   1.544
  103TIP3    H1  273   6.373   0.183   1.558
  103TIP3    H2  274   6.479   0.108   1.481
  104TIP3   OH2  275   0.292   2.485   3.885
  104TIP3    H1  276   0.358   2.464   3.951
  104TIP3    H2  277   0.300   2.579   3.872
  105TIP3   OH2  278   4.908   5.846   1.782
  105TIP3    H1  279   4.890   5.765   1.735
  105TIP3    H2  280   4.955   5.900   1.719
  106TIP3   OH2  281   0.726   0.039   4.954
  106TIP3    H1  282   0.728   0.108   4.889
  106TIP3    H2  283   0.759   0.080   5.034
  107TIP3   OH2  284   6.293   6.345   4.081
  107TIP3    H1  285   6.351   6.320   4.008
  107TIP3    H2  286   6.319   6.434   4.102
  108TIP3   OH2  287   1.944   5.553   0.434
  108TIP3    H1  288   2.011   5.583   0.496
  108TIP3    H2  289   1.896   5.485   0.482
  109TIP3   OH2  290   7.078   2.425   5.765
  109TIP3    H1  291   7.076   2.352   5.704
  109TIP3    H2  292   6.994   2.469   5.752
  110TIP3   OH2  293   2.242   1.021   3.652
  110TIP3    H1  294   2.173   0.970   3.610
  110TIP3    H2  295   2.311   0.957   3.670
  111TIP3   OH2  296   5.989   2.024   0.351
  111TIP3    H1  297   6.083   2.042   0.359
  111TIP3    H2  298   5.982   1.967   0.274
  112TIP3   OH2  299   4.193   5.477   2.623
  112TIP3    H1  300   4.175   5.434   2.707
  112TIP3    H2  301   4.121   5.450   2.566
  113TIP3   OH2  302   1.499   6.369   1.663
  113TIP3    H1  303   1.418   6.317   1.663
  113TIP3    H2  304   1.483   6.437   1.597
  114TIP3   OH2  305   4.016   6.677   0.238
  114TIP3    H1  306   4.005   6.598   0.291
  114TIP3    H2  307   3.927   6.703   0.214
  115TIP3   OH2  308   1.296   5.842   2.619
  115TIP3    H1  309   1.362   5.774   2.630
  115TIP3    H2  310   1.213   5.799   2.640
  116TIP3   OH2  311   1.070   1.061   4.093
  116TIP3    H1  312   1.032   1.061   4.181
  116TIP3    H2  313   1.031   1.136   4.050
  117TIP3   OH2  314   5.104   5.712   2.818
  117TIP3    H1  315   5.132   5.650   2.752
  117TIP3    H2  316   5.147   5.684   2.899
  118TIP3   OH2  317   6.656   1.440   0.265
  118TIP3    H1  318   6.740   1.408   0.299
  118TIP3    H2  319   6.640   1.387   0.186
  119TIP3   OH2  320   3.128   2.959   3.013
  119TIP3    H1  321   3.072   3.009   2.954
  119TIP3    H2  322   3.102   2.988   3.101
  120TIP3   OH2  323   3.406   4.760   1.386
  120TIP3    H1  324   3.351   4.710   1.446
  120TIP3    H2  325   3.345   4.794   1.321
  121TIP3   OH2  326   4.650   0.879   0.213
  121TIP3    H1  327   4.675   0.795   0.251
  121TIP3    H2  328   4.636   0.860   0.120
  122TIP3   OH2  329   3.357   3.244   4.911
  122TIP3    H1  330   3.369   3.149   4.920
  122TIP3    H2  331   3.265   3.254   4.887
  123TIP3   OH2  332   7.039   5.404   0.855
  123TIP3    H1  333   7.035   5.392   0.760
  123TIP3    H2  334   7.100   5.477   0.868
  124TIP3   OH2  335   4.102   6.383   1.347
  124TIP3    H1  336   4.120   6.456   1.406
  124TIP3    H2  337   4.182   6.376   1.295
  125TIP3   OH2  338   3.204   2.465   5.441
  125TIP3    H1  339   3.295   2.464   5.411
  125TIP3    H2  340   3.183   2.558   5.451
  126TIP3   OH2  341   1.867   6.137   1.467
  126TIP3    H1  342   1.857   6.042   1.467
  126TIP3    H2  343   1.956   6.152   1.498
  127TIP3   OH2  344   6.334   3.833   2.936
  127TIP3    H1  345   6.250   3.845   2.981
  127TIP3    H2  346   6.327   3.887   2.857
  128TIP3   OH2  347   1.420   2.213   5.828
  128TIP3    H1  348   1.440   2.152   5.757
  128TIP3    H2  349   1.491   2.199   5.891
  129TIP3   OH2  350   3.324   1.331   0.129
  129TIP3    H1  351   3.239   1.290   0.109
  129TIP3    H2  352   3.301   1.411   0.177
  130TIP3   OH2  353   4.924   6.136   1.626
  130TIP3    H1  354   4.964   6.059   1.586
  130TIP3    H2  355   4.944   6.127   1.719
  131TIP3   OH2  356   7.118   0.500   3.987
  131TIP3    H1  357   7.174   0.497   4.065
  131TIP3    H2  358   7.131   0.415   3.945
  132TIP3   OH2  359   4.661   2.161   2.889
  132TIP3    H1  360   4.740   2.112   2.869
  132TIP3    H2  361   4.680   2.250   2.860
  133TIP3   OH2  362   0.586   2.661   2.102
  133TIP3    H1  363   0.509   2.605   2.090
  133TIP3    H2  364   0.657   2.613   2.059
  134TIP3   OH2  365   3.971   1.946   5.170
  134TIP3    H1  366   3.948   2.004   5.243
  134TIP3    H2  367   4.010   1.870   5.213
  135TIP3   OH2  368   2.435   6.707   3.735
  135TIP3    H1  369   2.414   6.733   3.825
  135TIP3    H2  370   2.394   6.621   3.725
  136TIP3   OH2  371   1.132   4.546   3.248
  136TIP3    H1  372   1.186   4.526   3.324
  136TIP3    H2  373   1.043   4.548   3.282
  137TIP3   OH2  374   4.534   0.341   2.488
  137TIP3    H1  375   4.486   0.310   2.565
  137TIP3    H2  376   4.472   0.396   2.441
  138TIP3   OH2  377   5.572   1.846   0.505
  138TIP3    H1  378   5.587   1.807   0.419
  138TIP3    H2  379   5.655   1.835   0.552
  139TIP3   OH2  380   0.242   2.159   4.183
  139TIP3    H1  381   0.305   2.130   4.118
  139TIP3    H2  382   0.165   2.185   4.133
  140TIP3   OH2  383   3.198   3.910   3.132
  140TIP3    H1  384   3.230   3.997   3.156
  140TIP3    H2  385   3.263   3.876   3.072
  141TIP3   OH2  386   7.267   6.621   5.672
  141TIP3    H1  387   7.267   6.576   5.756
  141TIP3    H2  388   7.176   6.619   5.643
  142TIP3   OH2  389   0.648   4.775   2.338
  142TIP3    H1  390   0.716   4.792   2.404
  142TIP3    H2  391   0.692   4.789   2.254
  143TIP3   OH2  392   7.093   5.411   1.615
  143TIP3    H1  393   7.034   5.486   1.627
  143TIP3    H2  394   7.136   5.427   1.531
  144TIP3   OH2  395   5.462   0.649   0.199
  144TIP3    H1  396   5.533   0.661   0.136
  144TIP3    H2  397   5.494   0.582   0.259
  145TIP3   OH2  398   6.765   5.215   4.762
  145TIP3    H1  399   6.737   5.246   4.676
  145TIP3    H2  400   6.708   5.261   4.824
  146TIP3   OH2  401   4.231   2.121   5.583
  146TIP3    H1  402   4.215   2.030   5.610
  146TIP3    H2  403   4.224   2.172   5.663
  147TIP3   OH2  404   7.089   1.319   5.737
  147TIP3    H1  405   7.087   1.272   5.653
  147TIP3    H2  406   7.017   1.381   5.731
  148TIP3   OH2  407   5.587   0.622   2.280
  148TIP3    H1  408   5.537   0.699   2.254
  148TIP3    H2  409   5.533   0.548   2.250
  149TIP3   OH2  410   1.144   2.233   4.256
  149TIP3    H1  411   1.230   2.198   4.232
  149TIP3    H2  412   1.131   2.307   4.196
  150TIP3   OH2  413   0.867   5.456   3.008
  150TIP3    H1  414   0.953   5.495   2.991
  150TIP3    H2  415   0.805   5.511   2.960
  151TIP3   OH2  416   1.727   0.379   4.143
  151TIP3    H1  417   1.692   0.437   4.211
  151TIP3    H2  418   1.786   0.434   4.092
  152TIP3   OH2  419   2.736   3.045   4.940
  152TIP3    H1  420   2.812   2.987   4.949
  152TIP3    H2  421   2.687   3.010   4.866
  153TIP3   OH2  422   6.608   3.692   3.508
  153TIP3    H1  423   6.560   3.620   3.467
  153TIP3    H2  424   6.662   3.728   3.438
  154TIP3   OH2  425   0.797   4.589   5.763
  154TIP3    H1  426   0.802   4.532   5.687
  154TIP3    H2  427   0.879   4.573   5.810
  155TIP3   OH2  428   4.390   5.026   5.446
  155TIP3    H1  429   4.383   5.105   5.499
  155TIP3    H2  430   4.357   5.051   5.359
  156TIP3   OH2  431   0.092   4.979   5.309
  156TIP3    H1  432   0.177   4.944   5.282
  156TIP3    H2  433   0.107   5.073   5.319
  157TIP3   OH2  434   0.181   4.773   1.727
  157TIP3    H1  435   0.177   4.754   1.821
  157TIP3    H2  436   0.164   4.867   1.720
  158TIP3   OH2  437   2.733   6.521   0.046
  158TIP3    H1  438   2.785   6.469  -0.016
  158TIP3    H2  439   2.643   6.492   0.032
  159TIP3   OH2  440   3.420   6.860   3.051
  159TIP3    H1  441   3.491   6.924   3.055
  159TIP3    H2  442   3.444   6.802   2.978
  160TIP3   OH2  443   0.219   2.365   0.030
  160TIP3    H1  444   0.123   2.360   0.027
  160TIP3    H2  445   0.242   2.327   0.115
  161TIP3   OH2  446   5.332   3.227   1.461
  161TIP3    H1  447   5.373   3.271   1.535
  161TIP3    H2  448   5.257   3.283   1.439
  162TIP3   OH2  449   2.553   5.658   4.194
  162TIP3    H1  450   2.565   5.596   4.122
  162TIP3    H2  451   2.459   5.664   4.206
  163TIP3   OH2  452   6.168   5.681   0.987
  163TIP3    H1  453   6.243   5.725   1.026
  163TIP3    H2  454   6.207   5.613   0.931
  164TIP3   OH2  455   3.381   5.074   2.010
  164TIP3    H1  456   3.443   5.088   2.081
  164TIP3    H2  457   3.298   5.057   2.053
  165TIP3   OH2  458   3.364   6.196   1.182
  165TIP3    H1  459   3.458   6.202   1.166
  165TIP3    H2  460   3.354   6.119   1.238
  166TIP3   OH2  461   6.591   1.198   5.260
  166TIP3    H1  462   6.559   1.176   5.172
  166TIP3    H2  463   6.587   1.115   5.308
  167TIP3   OH2  464   5.790   4.280   2.773
  167TIP3    H1  465   5.872   4.287   2.822
  167TIP3    H2  466   5.757   4.192   2.794
  168TIP3   OH2  467   4.714   5.246   3.884
  168TIP3    H1  468   4.745   5.226   3.972
  168TIP3    H2  469   4.766   5.321   3.856
  169TIP3   OH2  470   3.021   1.791   1.455
  169TIP3    H1  471   3.016   1.752   1.368
  169TIP3    H2  472   2.957   1.862   1.454
  170TIP3   OH2  473   4.414   1.665   3.266
  170TIP3    H1  474   4.385   1.720   3.193
  170TIP3    H2  475   4.460   1.725   3.325
  171TIP3   OH2  476   4.408   4.474   0.487
  171TIP3    H1  477   4.480   4.493   0.427
  171TIP3    H2  478   4.399   4.379   0.484
  172TIP3   OH2  479   4.714   2.222   5.358
  172TIP3    H1  480   4.795   2.197   5.403
  172TIP3    H2  481   4.644   2.194   5.417
  173TIP3   OH2  482   6.692   0.097   4.725
  173TIP3    H1  483   6.656   0.115   4.638
  173TIP3    H2  484   6.662   0.171   4.779
  174TIP3   OH2  485   5.565   4.220   1.903
  174TIP3    H1  486   5.527   4.139   1.936
  174TIP3    H2  487   5.555   4.283   1.975
  175TIP3   OH2  488   4.472   6.595   0.823
  175TIP3    H1  489   4.543   6.535   0.800
  175TIP3    H2  490   4.398   6.565   0.770
  176TIP3   OH2  491   4.963   5.572   1.501
  176TIP3    H1  492   4.984   5.589   1.593
  176TIP3    H2  493   4.877   5.612   1.488
  177TIP3   OH2  494   1.713   4.070   1.579
  177TIP3    H1  495   1.756   4.142   1.532
  177TIP3    H2  496   1.747   4.076   1.668
  178TIP3   OH2  497   2.586   4.797   3.246
  178TIP3    H1  498   2.598   4.803   3.340
  178TIP3    H2  499   2.496   4.827   3.231
  179TIP3   OH2  500   6.851   3.847   0.616
  179TIP3    H1  501   6.844   3.925   0.561
  179TIP3    H2  502   6.782   3.789   0.583
  180TIP3   OH2  503   2.388   2.272   2.978
  180TIP3    H1  504   2.300   2.306   2.995
  180TIP3    H2  505   2.412   2.309   2.893
  181TIP3   OH2  506   4.893   6.508   5.039
  181TIP3    H1  507   4.982   6.481   5.018
  181TIP3    H2  508   4.837   6.456   4.982
  182TIP3   OH2  509   6.169   6.310   3.088
  182TIP3    H1  510   6.152   6.310   2.994
  182TIP3    H2  511   6.132   6.392   3.119
  183TIP3   OH2  512   6.887   6.660   0.304
  183TIP3    H1  513   6.840   6.743   0.300
  183TIP3    H2  514   6.931   6.653   0.219
  184TIP3   OH2  515   5.373   4.873   3.058
  184TIP3    H1  516   5.441   4.864   2.992
  184TIP3    H2  517   5.408   4.936   3.121
  185TIP3   OH2  518   3.595   1.918   2.652
  185TIP3    H1  519   3.515   1.952   2.692
  185TIP3    H2  520   3.614   1.978   2.580
  186TIP3   OH2  521   3.630   0.714   2.870
  186TIP3    H1  522   3.653   0.651   2.802
  186TIP3    H2  523   3.580   0.782   2.825
  187TIP3   OH2  524   5.538   5.338   3.260
  187TIP3    H1  525   5.487   5.358   3.339
  187TIP3    H2  526   5.512   5.406   3.197
  188TIP3   OH2  527   2.569   0.249   4.736
  188TIP3    H1  528   2.504   0.189   4.697
  188TIP3    H2  529   2.542   0.257   4.827
  189TIP3   OH2  530   5.134   0.271   1.007
  189TIP3    H1  531   5.140   0.230   1.093
  189TIP3    H2  532   5.049   0.315   1.008
  190TIP3   OH2  533   1.183   1.327   5.200
  190TIP3    H1  534   1.264   1.277   5.210
  190TIP3    H2  535   1.170   1.331   5.105
  191TIP3   OH2  536   1.858   2.116   1.463
  191TIP3    H1  537   1.924   2.100   1.396
  191TIP3    H2  538   1.798   2.180   1.423
  192TIP3   OH2  539   2.716   0.769   0.095
  192TIP3    H1  540   2.734   0.801   0.006
  192TIP3    H2  541   2.661   0.838   0.134
  193TIP3   OH2  542   0.349   2.939   0.054
  193TIP3    H1  543   0.442   2.932   0.079
  193TIP3    H2  544   0.305   2.872   0.106
  194TIP3   OH2  545   3.312   4.611   2.461
  194TIP3    H1  546   3.258   4.543   2.421
  194TIP3    H2  547   3.276   4.622   2.549
  195TIP3   OH2  548   2.095   0.485   1.057
  195TIP3    H1  549   2.189   0.472   1.048
  195TIP3    H2  550   2.085   0.579   1.075
  196TIP3   OH2  551   2.813   2.957   2.166
  196TIP3    H1  552   2.794   2.863   2.171
  196TIP3    H2  553   2.889   2.970   2.223
  197TIP3   OH2  554   6.486   4.428   3.953
  197TIP3    H1  555   6.525   4.347   3.920
  197TIP3    H2  556   6.545   4.456   4.023
  198TIP3   OH2  557   1.170   4.925   3.979
  198TIP3    H1  558   1.228   4.984   3.931
  198TIP3    H2  559   1.171   4.958   4.069
  199TIP3   OH2  560   6.785   2.943   4.119
  199TIP3    H1  561   6.726   3.005   4.076
  199TIP3    H2  562   6.769   2.860   4.074
  200TIP3   OH2  563   3.240   1.622   5.362
  200TIP3    H1  564   3.252   1.713   5.389
  200TIP3    H2  565   3.309   1.608   5.297
  201TIP3   OH2  566   6.995   5.269  -0.003
  201TIP3    H1  567   7.028   5.316  -0.079
  201TIP3    H2  568   7.072   5.254   0.051
  202TIP3   OH2  569   5.418   3.818   5.023
  202TIP3    H1  570   5.330   3.823   4.986
  202TIP3    H2  571   5.452   3.733   4.994
  203TIP3   OH2  572   0.110   5.982   2.558
  203TIP3    H1  573   0.079   5.946   2.475
  203TIP3    H2  574   0.080   5.919   2.624
  204TIP3   OH2  575   2.306   1.331   0.516
  204TIP3    H1  576   2.332   1.333   0.609
  204TIP3    H2  577   2.238   1.265   0.511
  205TIP3   OH2  578   2.963   1.383   2.605
  205TIP3    H1  579   2.954   1.293   2.636
  205TIP3    H2  580   2.917   1.384   2.521
  206TIP3   OH2  581   6.979   4.140   3.034
  206TIP3    H1  582   7.039   4.200   3.077
  206TIP3    H2  583   6.892   4.165   3.067
  207TIP3   OH2  584   2.592   3.800   0.946
  207TIP3    H1  585   2.672   3.843   0.914
  207TIP3    H2  586   2.600   3.801   1.041
  208TIP3   OH2  587   3.239   3.850   0.269
  208TIP3    H1  588   3.222   3.846   0.175
  208TIP3    H2  589   3.335   3.851   0.276
  209TIP3   OH2  590   1.416   4.695   0.931
  209TIP3    H1  591   1.510   4.703   0.949
  209TIP3    H2  592   1.379   4.778   0.959
  210TIP3   OH2  593   0.479   4.132   1.726
  210TIP3    H1  594   0.496   4.080   1.647
  210TIP3    H2  595   0.432   4.072   1.784
  211TIP3   OH2  596   3.365   2.971   3.686
  211TIP3    H1  597   3.331   2.963   3.597
  211TIP3    H2  598   3.404   2.885   3.704
  212TIP3   OH2  599   0.955   5.800   3.552
  212TIP3    H1  600   0.920   5.844   3.475
  212TIP3    H2  601   1.045   5.778   3.528
  213TIP3   OH2  602   1.780   4.038   3.354
  213TIP3    H1  603   1.863   4.081   3.375
  213TIP3    H2  604   1.716   4.080   3.411
  214TIP3   OH2  605   2.479   1.941   2.035
  214TIP3    H1  606   2.472   1.967   1.943
  214TIP3    H2  607   2.403   1.885   2.050
  215TIP3   OH2  608   1.265   1.485   4.925
  215TIP3    H1  609   1.193   1.548   4.925
  215TIP3    H2  610   1.338   1.532   4.965
  216TIP3   OH2  611   4.259   6.687   2.826
  216TIP3    H1  612   4.176   6.642   2.842
  216TIP3    H2  613   4.266   6.751   2.897
  217TIP3   OH2  614   4.449   6.202   4.517
  217TIP3    H1  615   4.511   6.131   4.533
  217TIP3    H2  616   4.407   6.179   4.434
  218TIP3   OH2  617   2.148   1.692   1.538
  218TIP3    H1  618   2.102   1.776   1.547
  218TIP3    H2  619   2.240   1.713   1.556
  219TIP3   OH2  620   4.723   0.790   1.402
  219TIP3    H1  621   4.808   0.783   1.358
  219TIP3    H2  622   4.664   0.736   1.349
  220TIP3   OH2  623   5.889   5.695   1.085
  220TIP3    H1  624   5.911   5.776   1.038
  220TIP3    H2  625   5.953   5.631   1.052
  221TIP3   OH2  626   0.867   6.017   5.755
  221TIP3    H1  627   0.834   6.017   5.665
  221TIP3    H2  628   0.901   6.105   5.768
  222TIP3   OH2  629   1.475   1.749   2.251
  222TIP3    H1  630   1.540   1.753   2.321
  222TIP3    H2  631   1.503   1.677   2.195
  223TIP3   OH2  632   1.769   2.781   4.746
  223TIP3    H1  633   1.677   2.778   4.719
  223TIP3    H2  634   1.769   2.749   4.836
  224TIP3   OH2  635   0.186   2.735   5.696
  224TIP3    H1  636   0.135   2.656   5.709
  224TIP3    H2  637   0.265   2.706   5.651
  225TIP3   OH2  638   3.779   1.245   3.665
  225TIP3    H1  639   3.760   1.179   3.731
  225TIP3    H2  640   3.762   1.329   3.708
  226TIP3   OH2  641   4.145   0.722   0.908
  226TIP3    H1  642   4.069   0.738   0.962
  226TIP3    H2  643   4.127   0.637   0.866
  227TIP3   OH2  644   2.661   1.873   2.296
  227TIP3    H1  645   2.602   1.844   2.227
  227TIP3    H2  646   2.747   1.879   2.254
  228TIP3   OH2  647   5.998   4.959   2.796
  228TIP3    H1  648   5.952   5.009   2.862
  228TIP3    H2  649   6.054   5.023   2.751
  229TIP3   OH2  650   5.015   0.077   5.719
  229TIP3    H1  651   5.062   0.152   5.755
  229TIP3    H2  652   4.960   0.046   5.791
  230TIP3   OH2  653   1.260  -0.013   0.439
  230TIP3    H1  654   1.297   0.026   0.360
  230TIP3    H2  655   1.177   0.033   0.452
  231TIP3   OH2  656   5.406   3.720   1.541
  231TIP3    H1  657   5.352   3.702   1.464
  231TIP3    H2  658   5.465   3.645   1.546
  232TIP3   OH2  659   5.142   1.432   3.020
  232TIP3    H1  660   5.078   1.495   3.052
  232TIP3    H2  661   5.224   1.457   3.062
  233TIP3   OH2  662   4.878   1.559   4.923
  233TIP3    H1  663   4.896   1.625   4.856
  233TIP3    H2  664   4.791   1.581   4.956
  234TIP3   OH2  665   1.668   2.783   2.489
  234TIP3    H1  666   1.668   2.703   2.437
  234TIP3    H2  667   1.581   2.821   2.474
  235TIP3   OH2  668   2.801   5.855   5.360
  235TIP3    H1  669   2.792   5.949   5.369
  235TIP3    H2  670   2.895   5.841   5.345
  236TIP3   OH2  671   3.409   3.461   2.200
  236TIP3    H1  672   3.417   3.407   2.121
  236TIP3    H2  673   3.367   3.542   2.170
  237TIP3   OH2  674   5.250   3.080   4.544
  237TIP3    H1  675   5.205   3.039   4.618
  237TIP3    H2  676   5.238   3.174   4.557
  238TIP3   OH2  677   7.074   1.765   5.288
  238TIP3    H1  678   7.047   1.725   5.205
  238TIP3    H2  679   7.086   1.857   5.268
  239TIP3   OH2  680   5.145   5.820   5.527
  239TIP3    H1  681   5.066   5.792   5.482
  239TIP3    H2  682   5.120   5.901   5.571
  240TIP3   OH2  683   3.972   3.723   3.080
  240TIP3    H1  684   3.970   3.679   3.165
  240TIP3    H2  685   3.974   3.651   3.016
  241TIP3   OH2  686  -0.058   6.478   3.267
  241TIP3    H1  687  -0.019   6.561   3.296
  241TIP3    H2  688   0.017   6.422   3.246
  242TIP3   OH2  689   2.707   5.843   5.660
  242TIP3    H1  690   2.672   5.813   5.744
  242TIP3    H2  691   2.709   5.764   5.605
  243TIP3   OH2  692   4.475   1.316   2.606
  243TIP3    H1  693   4.505   1.349   2.521
  243TIP3    H2  694   4.420   1.386   2.641
  244TIP3   OH2  695   5.524   6.306   0.792
  244TIP3    H1  696   5.555   6.348   0.711
  244TIP3    H2  697   5.501   6.217   0.765
  245TIP3   OH2  698   0.779   4.854   4.311
  245TIP3    H1  699   0.684   4.863   4.318
  245TIP3    H2  700   0.808   4.939   4.280
  246TIP3   OH2  701   0.435   0.058   0.330
  246TIP3    H1  702   0.359   0.054   0.388
  246TIP3    H2  703   0.438   0.149   0.300
  247TIP3   OH2  704   3.404   2.148   4.070
  247TIP3    H1  705   3.401   2.157   3.975
  247TIP3    H2  706   3.493   2.173   4.094
  248TIP3   OH2  707   6.489   5.890   1.667
  248TIP3    H1  708   6.433   5.857   1.597
  248TIP3    H2  709   6.433   5.951   1.715
  249TIP3   OH2  710   3.538   5.496   1.895
  249TIP3    H1  711   3.473   5.471   1.961
  249TIP3    H2  712   3.589   5.417   1.880
  250TIP3   OH2  713   3.584   2.578   5.100
  250TIP3    H1  714   3.583   2.578   5.004
  250TIP3    H2  715   3.676   2.588   5.123
  251TIP3   OH2  716   1.057   0.480   2.613
  251TIP3    H1  717   0.992   0.453   2.677
  251TIP3    H2  718   1.140   0.482   2.662
  252TIP3   OH2  719   1.646   5.097   5.276
  252TIP3    H1  720   1.635   5.087   5.371
  252TIP3    H2  721   1.621   5.188   5.258
  253TIP3   OH2  722   2.679   4.646   1.916
  253TIP3    H1  723   2.683   4.684   2.003
  253TIP3    H2  724   2.770   4.644   1.886
  254TIP3   OH2  725   3.278   4.011   4.922
  254TIP3    H1  726   3.343   4.053   4.978
  254TIP3    H2  727   3.200   4.066   4.930
  255TIP3   OH2  728   5.662   5.018   0.539
  255TIP3    H1  729   5.746   5.058   0.518
  255TIP3    H2  730   5.604   5.044   0.467
  256TIP3   OH2  731   1.293   0.850   1.759
  256TIP3    H1  732   1.385   0.830   1.745
  256TIP3    H2  733   1.289   0.946   1.761
  257TIP3   OH2  734   1.701   6.145   0.401
  257TIP3    H1  735   1.685   6.178   0.312
  257TIP3    H2  736   1.679   6.219   0.457
  258TIP3   OH2  737   5.799   6.597   3.080
  258TIP3    H1  738   5.740   6.554   3.142
  258TIP3    H2  739   5.883   6.599   3.125
  259TIP3   OH2  740   3.857   2.449   5.096
  259TIP3    H1  741   3.855   2.371   5.151
  259TIP3    H2  742   3.929   2.502   5.131
  260TIP3   OH2  743   1.155   6.037   0.348
  260TIP3    H1  744   1.133   6.104   0.283
  260TIP3    H2  745   1.235   6.069   0.388
  261TIP3   OH2  746   3.800   1.202   4.910
  261TIP3    H1  747   3.799   1.248   4.827
  261TIP3    H2  748   3.722   1.146   4.908
  262TIP3   OH2  749   2.874   1.064   3.049
  262TIP3    H1  750   2.843   1.090   3.136
  262TIP3    H2  751   2.969   1.066   3.056
  263TIP3   OH2  752   0.893   0.780   3.006
  263TIP3    H1  753   0.916   0.830   3.085
  263TIP3    H2  754   0.824   0.831   2.964
  264TIP3   OH2  755   4.643   0.934   2.556
  264TIP3    H1  756   4.577   0.974   2.499
  264TIP3    H2  757   4.688   0.871   2.500
  265TIP3   OH2  758   5.809   1.569   2.130
  265TIP3    H1  759   5.848   1.583   2.044
  265TIP3    H2  760   5.718   1.595   2.120
  266TIP3   OH2  761   1.246   0.537   0.922
  266TIP3    H1  762   1.161   0.575   0.900
  266TIP3    H2  763   1.267   0.574   1.008
  267TIP3   OH2  764   4.714   5.815   0.190
  267TIP3    H1  765   4.665   5.850   0.116
  267TIP3    H2  766   4.783   5.879   0.205
  268TIP3   OH2  767   6.594   4.640   3.580
  268TIP3    H1  768   6.561   4.662   3.493
  268TIP3    H2  769   6.534   4.683   3.640
  269TIP3   OH2  770   7.118   5.125   1.244
  269TIP3    H1  771   7.154   5.143   1.157
  269TIP3    H2  772   7.194   5.108   1.299
  270TIP3   OH2  773   4.928   2.200   3.426
  270TIP3    H1  774   4.963   2.289   3.419
  270TIP3    H2  775   4.876   2.201   3.506
  271TIP3   OH2  776   1.308   2.621   4.762
  271TIP3    H1  777   1.258   2.610   4.843
  271TIP3    H2  778   1.273   2.702   4.723
  272TIP3   OH2  779   6.882   5.003   1.358
  272TIP3    H1  780   6.967   5.036   1.331
  272TIP3    H2  781   6.886   4.909   1.341
  273TIP3   OH2  782   4.092   4.120   1.827
  273TIP3    H1  783   4.098   4.214   1.843
  273TIP3    H2  784   4.176   4.085   1.855
  274TIP3   OH2  785   4.816   3.572   0.619
  274TIP3    H1  786   4.782   3.483   0.623
  274TIP3    H2  787   4.813   3.596   0.526
  275TIP3   OH2  788   1.306   3.868   2.745
  275TIP3    H1  789   1.359   3.921   2.804
  275TIP3    H2  790   1.320   3.778   2.774
  276TIP3   OH2  791   4.429   2.993   4.855
  276TIP3    H1  792   4.351   3.009   4.801
  276TIP3    H2  793   4.395   2.953   4.935
  277TIP3   OH2  794   1.396   2.439   0.622
  277TIP3    H1  795   1.373   2.472   0.709
  277TIP3    H2  796   1.485   2.404   0.633
  278TIP3   OH2  797   5.463   3.975   1.957
  278TIP3    H1  798   5.478   3.921   2.034
  278TIP3    H2  799   5.430   3.914   1.890
  279TIP3   OH2  800   3.827   2.775   5.196
  279TIP3    H1  801   3.785   2.860   5.182
  279TIP3    H2  802   3.811   2.756   5.288
  280TIP3   OH2  803   3.619   3.967   3.189
  280TIP3    H1  804   3.677   4.042   3.197
  280TIP3    H2  805   3.544   3.988   3.244
  281TIP3   OH2  806   1.577   0.040   1.971
  281TIP3    H1  807   1.501   0.093   1.946
  281TIP3    H2  808   1.545  -0.015   2.042
  282TIP3   OH2  809   0.046   1.261   4.461
  282TIP3    H1  810   0.096   1.209   4.524
  282TIP3    H2  811   0.080   1.350   4.471
  283TIP3   OH2  812   1.899   1.534   4.242
  283TIP3    H1  813   1.983   1.490   4.252
  283TIP3    H2  814   1.918   1.612   4.191
  284TIP3   OH2  815   3.409   2.659   5.819
  284TIP3    H1  816   3.391   2.727   5.753
  284TIP3    H2  817   3.496   2.680   5.851
  285TIP3   OH2  818   6.816   1.553   3.373
  285TIP3    H1  819   6.879   1.621   3.349
  285TIP3    H2  820   6.784   1.579   3.459
  286TIP3   OH2  821   0.404   0.509   1.553
  286TIP3    H1  822   0.435   0.582   1.605
  286TIP3    H2  823   0.472   0.442   1.562
  287TIP3   OH2  824   0.581   0.092   2.001
  287TIP3    H1  825   0.582   0.100   2.097
  287TIP3    H2  826   0.615   0.004   1.984
  288TIP3   OH2  827   5.493   3.038   3.676
  288TIP3    H1  828   5.549   3.090   3.618
  288TIP3    H2  829   5.456   3.101   3.737
  289TIP3   OH2  830   4.794   4.931   2.994
  289TIP3    H1  831   4.756   5.009   3.036
  289TIP3    H2  832   4.819   4.875   3.067
  290TIP3   OH2  833   5.550   1.698   0.268
  290TIP3    H1  834   5.457   1.683   0.284
  290TIP3    H2  835   5.593   1.619   0.300
  291TIP3   OH2  836   5.875   2.523   4.117
  291TIP3    H1  837   5.889   2.456   4.184
  291TIP3    H2  838   5.922   2.600   4.150
  292TIP3   OH2  839   5.267   1.657   1.629
  292TIP3    H1  840   5.227   1.723   1.686
  292TIP3    H2  841   5.333   1.704   1.579
  293TIP3   OH2  842   3.550   3.459   2.478
  293TIP3    H1  843   3.500   3.456   2.559
  293TIP3    H2  844   3.491   3.500   2.414
  294TIP3   OH2  845   2.702   0.740   1.349
  294TIP3    H1  846   2.636   0.806   1.328
  294TIP3    H2  847   2.665   0.690   1.422
  295TIP3   OH2  848   6.397   3.150   2.541
  295TIP3    H1  849   6.375   3.101   2.463
  295TIP3    H2  850   6.441   3.229   2.509
  296TIP3   OH2  851   6.735   4.973   1.919
  296TIP3    H1  852   6.678   4.899   1.940
  296TIP3    H2  853   6.757   4.961   1.826
  297TIP3   OH2  854   1.000   6.606   5.422
  297TIP3    H1  855   1.014   6.682   5.365
  297TIP3    H2  856   1.078   6.604   5.478
  298TIP3   OH2  857   4.655   1.314   5.794
  298TIP3    H1  858   4.709   1.236   5.808
  298TIP3    H2  859   4.576   1.297   5.846
  299TIP3   OH2  860   6.888   5.698   3.061
  299TIP3    H1  861   6.942   5.774   3.084
  299TIP3    H2  862   6.798   5.729   3.072
  300TIP3   OH2  863   1.959   5.281   4.839
  300TIP3    H1  864   1.999   5.363   4.811
  300TIP3    H2  865   1.916   5.248   4.760
  301TIP3   OH2  866   3.172   5.714   4.607
  301TIP3    H1  867   3.090   5.701   4.654
  301TIP3    H2  868   3.205   5.626   4.592
  302TIP3   OH2  869   5.476   0.170   2.156
  302TIP3    H1  870   5.434   0.235   2.100
  302TIP3    H2  871   5.414   0.097   2.159
  303TIP3   OH2  872   1.911   1.174   4.546
  303TIP3    H1  873   1.913   1.172   4.642
  303TIP3    H2  874   1.837   1.231   4.525
  304TIP3   OH2  875   5.705   2.640   5.549
  304TIP3    H1  876   5.753   2.560   5.528
  304TIP3    H2  877   5.625   2.634   5.496
  305TIP3   OH2  878   5.389   0.325   5.436
  305TIP3    H1  879   5.427   0.260   5.495
  305TIP3    H2  880   5.339   0.275   5.373
  306TIP3   OH2  881   0.596   5.639   0.608
  306TIP3    H1  882   0.584   5.708   0.542
  306TIP3    H2  883   0.620   5.687   0.688
  307TIP3   OH2  884   4.959   3.165   4.732
  307TIP3    H1  885   4.914   3.099   4.678
  307TIP3    H2  886   4.995   3.226   4.668
  308TIP3   OH2  887   5.723   1.785   5.534
  308TIP3    H1  888   5.641   1.741   5.514
  308TIP3    H2  889   5.715   1.871   5.494
  309TIP3   OH2  890   5.588   2.926   1.308
  309TIP3    H1  891   5.650   2.973   1.364
  309TIP3    H2  892   5.525   2.993   1.281
  310TIP3   OH2  893   0.362   6.787   0.962
  310TIP3    H1  894   0.333   6.837   0.886
  310TIP3    H2  895   0.413   6.715   0.926
  311TIP3   OH2  896   3.966   6.593   3.218
  311TIP3    H1  897   3.956   6.681   3.255
  311TIP3    H2  898   3.880   6.552   3.228
  312TIP3   OH2  899   0.477   0.394   1.832
  312TIP3    H1  900   0.485   0.328   1.763
  312TIP3    H2  901   0.555   0.381   1.887
  313TIP3   OH2  902   2.986   6.054   0.159
  313TIP3    H1  903   3.066   6.085   0.116
  313TIP3    H2  904   2.945   6.132   0.194
  314TIP3   OH2  905  -0.045   0.867   4.953
  314TIP3    H1  906   0.043   0.887   4.922
  314TIP3    H2  907  -0.032   0.824   5.038
  315TIP3   OH2  908   1.388   4.612   4.996
  315TIP3    H1  909   1.424   4.645   5.078
  315TIP3    H2  910   1.407   4.518   4.998
  316TIP3   OH2  911   2.975   5.392   1.338
  316TIP3    H1  912   2.959   5.358   1.250
  316TIP3    H2  913   2.958   5.486   1.331
  317TIP3   OH2  914   1.051   0.966   5.588
  317TIP3    H1  915   0.985   0.990   5.652
  317TIP3    H2  916   1.081   1.049   5.552
  318TIP3   OH2  917   3.209   1.094   4.368
  318TIP3    H1  918   3.194   1.007   4.331
  318TIP3    H2  919   3.141   1.104   4.435
  319TIP3   OH2  920   2.744   2.601   5.579
  319TIP3    H1  921   2.806   2.557   5.521
  319TIP3    H2  922   2.799   2.644   5.645
  320TIP3   OH2  923   6.785   2.124  -0.012
  320TIP3    H1  924   6.847   2.193   0.012
  320TIP3    H2  925   6.761   2.084   0.071
  321TIP3   OH2  926   3.455   3.142   0.876
  321TIP3    H1  927   3.533   3.087   0.875
  321TIP3    H2  928   3.382   3.082   0.861
  322TIP3   OH2  929   6.879   3.785   5.162
  322TIP3    H1  930   6.825   3.864   5.171
  322TIP3    H2  931   6.969   3.818   5.160
  323TIP3   OH2  932   3.906   1.523   0.370
  323TIP3    H1  933   3.979   1.475   0.409
  323TIP3    H2  934   3.946   1.605   0.340
  324TIP3   OH2  935   2.474   2.616   0.276
  324TIP3    H1  936   2.471   2.587   0.367
  324TIP3    H2  937   2.516   2.702   0.279
  325TIP3   OH2  938   2.418   4.799   0.421
  325TIP3    H1  939   2.387   4.876   0.469
  325TIP3    H2  940   2.352   4.785   0.353
  326TIP3   OH2  941   4.288   1.789   2.430
  326TIP3    H1  942   4.217   1.844   2.397
  326TIP3    H2  943   4.270   1.702   2.396
  327TIP3   OH2  944   1.813   5.538   1.260
  327TIP3    H1  945   1.880   5.605   1.273
  327TIP3    H2  946   1.752   5.550   1.333
  328TIP3   OH2  947   4.897   5.361   0.003
  328TIP3    H1  948   4.837   5.433   0.021
  328TIP3    H2  949   4.850   5.282   0.027
  329TIP3   OH2  950   3.518   4.290   1.154
  329TIP3    H1  951   3.602   4.316   1.115
  329TIP3    H2  952   3.461   4.274   1.079
  330TIP3   OH2  953   0.605   6.832   5.698
  330TIP3    H1  954   0.552   6.910   5.680
  330TIP3    H2  955   0.589   6.813   5.790
  331TIP3   OH2  956   1.812   0.886   4.579
  331TIP3    H1  957   1.799   0.980   4.566
  331TIP3    H2  958   1.809   0.875   4.674
  332TIP3   OH2  959   1.562   1.541   0.399
  332TIP3    H1  960   1.513   1.615   0.434
  332TIP3    H2  961   1.638   1.534   0.456
  333TIP3   OH2  962   1.310   0.740   0.724
  333TIP3    H1  963   1.290   0.653   0.758
  333TIP3    H2  964   1.227   0.786   0.724
  334TIP3   OH2  965   0.995   5.622   2.364
  334TIP3    H1  966   1.050   5.600   2.289
  334TIP3    H2  967   1.044   5.589   2.440
  335TIP3   OH2  968   4.445   4.431   4.418
  335TIP3    H1  969   4.523   4.420   4.364
  335TIP3    H2  970   4.474   4.487   4.490
  336TIP3   OH2  971   5.502   5.877   0.510
  336TIP3    H1  972   5.472   5.787   0.500
  336TIP3    H2  973   5.516   5.908   0.421
  337TIP3   OH2  974   1.674   0.979   1.494
  337TIP3    H1  975   1.580   0.984   1.513
  337TIP3    H2  976   1.716   1.008   1.574
  338TIP3   OH2  977   6.826   4.057   1.316
  338TIP3    H1  978   6.872   4.018   1.242
  338TIP3    H2  979   6.859   4.147   1.320
  339TIP3   OH2  980   2.718   1.339   1.827
  339TIP3    H1  981   2.714   1.302   1.739
  339TIP3    H2  982   2.668   1.420   1.821
  340TIP3   OH2  983   0.504   1.137   0.968
  340TIP3    H1  984   0.458   1.179   1.040
  340TIP3    H2  985   0.434   1.099   0.914
  341TIP3   OH2  986   0.929   3.891   2.529
  341TIP3    H1  987   0.872   3.957   2.568
  341TIP3    H2  988   0.925   3.909   2.435
  342TIP3   OH2  989   4.161   2.660   4.129
  342TIP3    H1  990   4.171   2.574   4.089
  342TIP3    H2  991   4.093   2.648   4.194
  343TIP3   OH2  992   6.292   0.435   1.365
  343TIP3    H1  993   6.226   0.366   1.376
  343TIP3    H2  994   6.263   0.505   1.424
  344TIP3   OH2  995   1.236   1.361   2.704
  344TIP3    H1  996   1.256   1.313   2.624
  344TIP3    H2  997   1.140   1.372   2.702
  345TIP3   OH2  998   4.136   6.095   4.474
  345TIP3    H1  999   4.163   6.179   4.438
  345TIP3    H2 1000   4.202   6.033   4.443
  346TIP3   OH2 1001   0.812   4.236   1.850
  346TIP3    H1 1002   0.724   4.210   1.875
  346TIP3    H2 1003   0.844   4.288   1.923
  347TIP3   OH2 1004   2.475   1.849   4.198
  347TIP3    H1 1005   2.421   1.822   4.272
  347TIP3    H2 1006   2.460   1.781   4.132
  348TIP3   OH2 1007   6.727   3.930   3.290
  348TIP3    H1 1008   6.743   3.997   3.356
  348TIP3    H2 1009   6.691   3.977   3.215
  349TIP3   OH2 1010   3.107   0.445   0.561
  349TIP3    H1 1011   3.119   0.406   0.474
  349TIP3    H2 1012   3.088   0.371   0.618
  350TIP3   OH2 1013   6.058   6.085   0.606
  350TIP3    H1 1014   6.005   6.123   0.675
  350TIP3    H2 1015   6.076   5.996   0.636
  351TIP3   OH2 1016   4.733   5.408   5.346
  351TIP3    H1 1017   4.672   5.336   5.327
  351TIP3    H2 1018   4.688   5.487   5.317
  352TIP3   OH2 1019   1.496   5.916   0.374
  352TIP3    H1 1020   1.590   5.900   0.376
  352TIP3    H2 1021   1.477   5.938   0.283
  353TIP3   OH2 1022   1.122   5.967   5.849
  353TIP3    H1 1023   1.029   5.970   5.828
  353TIP3    H2 1024   1.128   5.897   5.915
  354TIP3   OH2 1025   5.501   0.334   4.103
  354TIP3    H1 1026   5.563   0.261   4.112
  354TIP3    H2 1027   5.553   0.411   4.124
  355TIP3   OH2 1028   1.793   3.868   5.500
  355TIP3    H1 1029   1.853   3.799   5.472
  355TIP3    H2 1030   1.734   3.881   5.426
  356TIP3   OH2 1031   2.256   1.195   3.846
  356TIP3    H1 1032   2.286   1.275   3.803
  356TIP3    H2 1033   2.251   1.130   3.776
  357TIP3   OH2 1034   1.246   0.865   3.712
  357TIP3    H1 1035   1.250   0.866   3.617
  357TIP3    H2 1036   1.334   0.894   3.740
  358TIP3   OH2 1037   5.284   2.343   5.686
  358TIP3    H1 1038   5.353   2.405   5.709
  358TIP3    H2 1039   5.216   2.357   5.753
  359TIP3   OH2 1040   6.372   2.533   5.619
  359TIP3    H1 1041   6.316   2.595   5.573
  359TIP3    H2 1042   6.450   2.583   5.641
  360TIP3   OH2 1043   7.114   6.537   2.612
  360TIP3    H1 1044   7.156   6.559   2.695
  360TIP3    H2 1045   7.160   6.459   2.581
  361TIP3   OH2 1046   0.399   1.422   5.742
  361TIP3    H1 1047   0.396   1.481   5.667
  361TIP3    H2 1048   0.309   1.391   5.753
  362TIP3   OH2 1049   6.574   4.514   4.988
  362TIP3    H1 1050   6.659   4.559   4.992
  362TIP3    H2 1051   6.542   4.531   4.899
  363TIP3   OH2 1052   1.033   0.328   0.160
  363TIP3    H1 1053   1.098   0.332   0.231
  363TIP3    H2 1054   1.083   0.343   0.080
  364TIP3   OH2 1055   1.965   4.037   4.254
  364TIP3    H1 1056   1.901   4.107   4.270
  364TIP3    H2 1057   1.921   3.958   4.286
  365TIP3   OH2 1058   6.115   4.363   3.877
  365TIP3    H1 1059   6.130   4.449   3.839
  365TIP3    H2 1060   6.141   4.301   3.809
  366TIP3   OH2 1061   3.109   1.923   3.321
  366TIP3    H1 1062   3.126   1.833   3.350
  366TIP3    H2 1063   3.017   1.938   3.341
  367TIP3   OH2 1064   4.427   5.469   2.426
  367TIP3    H1 1065   4.358   5.457   2.490
  367TIP3    H2 1066   4.390   5.530   2.361
  368TIP3   OH2 1067   1.557   0.341   4.605
  368TIP3    H1 1068   1.547   0.275   4.537
  368TIP3    H2 1069   1.639   0.318   4.649
  369TIP3   OH2 1070   1.375   6.462   3.487
  369TIP3    H1 1071   1.301   6.432   3.539
  369TIP3    H2 1072   1.356   6.430   3.398
  370TIP3   OH2 1073   6.561   2.919   0.377
  370TIP3    H1 1074   6.627   2.987   0.391
  370TIP3    H2 1075   6.530   2.933   0.288
  371TIP3   OH2 1076   3.774   4.718   2.215
  371TIP3    H1 1077   3.721   4.645   2.185
  371TIP3    H2 1078   3.759   4.723   2.309
  372TIP3   OH2 1079   1.446   4.069   1.523
  372TIP3    H1 1080   1.540   4.072   1.540
  372TIP3    H2 1081   1.439   4.061   1.428
  373TIP3   OH2 1082   1.412   5.032   5.160
  373TIP3    H1 1083   1.318   5.026   5.171
  373TIP3    H2 1084   1.439   5.104   5.217
  374TIP3   OH2 1085   1.525   3.711   3.856
  374TIP3    H1 1086   1.546   3.790   3.905
  374TIP3    H2 1087   1.581   3.643   3.893
  375TIP3   OH2 1088   3.876   2.428   1.280
  375TIP3    H1 1089   3.892   2.507   1.229
  375TIP3    H2 1090   3.951   2.371   1.261
  376TIP3   OH2 1091   0.414   5.252   4.346
  376TIP3    H1 1092   0.368   5.224   4.426
  376TIP3    H2 1093   0.347   5.248   4.278
  377TIP3   OH2 1094   0.994   2.270   5.576
  377TIP3    H1 1095   0.982   2.247   5.484
  377TIP3    H2 1096   1.053   2.346   5.574
  378TIP3   OH2 1097   6.836   3.262   3.705
  378TIP3    H1 1098   6.780   3.280   3.630
  378TIP3    H2 1099   6.924   3.284   3.676
  379TIP3   OH2 1100   0.672   5.434   5.276
  379TIP3    H1 1101   0.733   5.506   5.263
  379TIP3    H2 1102   0.647   5.441   5.368
  380TIP3   OH2 1103   1.592   1.385   4.793
  380TIP3    H1 1104   1.545   1.391   4.877
  380TIP3    H2 1105   1.684   1.401   4.816
  381TIP3   OH2 1106   4.331   0.819   5.503
  381TIP3    H1 1107   4.329   0.724   5.491
  381TIP3    H2 1108   4.261   0.836   5.566
  382TIP3   OH2 1109   2.691   0.806   2.637
  382TIP3    H1 1110   2.699   0.711   2.648
  382TIP3    H2 1111   2.701   0.841   2.726
  383TIP3   OH2 1112   1.280   5.789   4.026
  383TIP3    H1 1113   1.331   5.794   3.945
  383TIP3    H2 1114   1.331   5.838   4.090
  384TIP3   OH2 1115   4.459   5.947   0.518
  384TIP3    H1 1116   4.460   6.005   0.595
  384TIP3    H2 1117   4.539   5.895   0.527
  385TIP3   OH2 1118   5.523   0.721   5.293
  385TIP3    H1 1119   5.507   0.761   5.207
  385TIP3    H2 1120   5.539   0.629   5.274
  386TIP3   OH2 1121   3.908   4.126   5.408
  386TIP3    H1 1122   3.912   4.062   5.478
  386TIP3    H2 1123   3.995   4.123   5.367
  387TIP3   OH2 1124   6.489   4.692   5.884
  387TIP3    H1 1125   6.448   4.608   5.905
  387TIP3    H2 1126   6.580   4.681   5.911
  388TIP3   OH2 1127   0.810   4.847   3.345
  388TIP3    H1 1128   0.862   4.883   3.417
  388TIP3    H2 1129   0.721   4.843   3.380
  389TIP3   OH2 1130   2.070   1.207   1.604
  389TIP3    H1 1131   2.155   1.226   1.644
  389TIP3    H2 1132   2.035   1.292   1.579
  390TIP3   OH2 1133   0.201   1.453   3.465
  390TIP3    H1 1134   0.186   1.427   3.556
  390TIP3    H2 1135   0.117   1.491   3.437
  391TIP3   OH2 1136   4.032   5.676   5.253
  391TIP3    H1 1137   4.049   5.668   5.159
  391TIP3    H2 1138   4.020   5.587   5.283
  392TIP3   OH2 1139   2.583   4.783   5.233
  392TIP3    H1 1140   2.516   4.852   5.237
  392TIP3    H2 1141   2.569   4.740   5.149
  393TIP3   OH2 1142   3.442   2.594   3.329
  393TIP3    H1 1143   3.503   2.591   3.255
  393TIP3    H2 1144   3.359   2.619   3.289
  394TIP3   OH2 1145   6.345   3.107   4.032
  394TIP3    H1 1146   6.309   3.132   4.117
  394TIP3    H2 1147   6.301   3.024   4.010
  395TIP3   OH2 1148   3.122   5.490   3.956
  395TIP3    H1 1149   3.060   5.538   4.010
  395TIP3    H2 1150   3.183   5.452   4.018
  396TIP3   OH2 1151   4.600   0.027   5.266
  396TIP3    H1 1152   4.575  -0.065   5.258
  396TIP3    H2 1153   4.674   0.026   5.327
  397TIP3   OH2 1154   2.273   4.502   2.153
  397TIP3    H1 1155   2.212   4.547   2.095
  397TIP3    H2 1156   2.236   4.513   2.241
  398TIP3   OH2 1157   0.204   2.166   2.571
  398TIP3    H1 1158   0.266   2.238   2.584
  398TIP3    H2 1159   0.231   2.126   2.488
  399TIP3   OH2 1160   0.368   1.955   0.353
  399TIP3    H1 1161   0.313   2.032   0.339
  399TIP3    H2 1162   0.435   1.961   0.285
  400TIP3   OH2 1163   3.955   6.083   5.575
  400TIP3    H1 1164   3.878   6.026   5.570
  400TIP3    H2 1165   4.002   6.053   5.653
  401TIP3   OH2 1166   0.612   2.873   4.513
  401TIP3    H1 1167   0.680   2.916   4.461
  401TIP3    H2 1168   0.579   2.803   4.458
  402TIP3   OH2 1169   3.662   0.360   1.270
  402TIP3    H1 1170   3.628   0.446   1.293
  402TIP3    H2 1171   3.595   0.298   1.300
  403TIP3   OH2 1172   4.348   5.639   5.158
  403TIP3    H1 1173   4.413   5.572   5.180
  403TIP3    H2 1174   4.284   5.634   5.229
  404TIP3   OH2 1175   6.647   5.290   4.521
  404TIP3    H1 1176   6.679   5.379   4.506
  404TIP3    H2 1177   6.681   5.240   4.447
  405TIP3   OH2 1178   6.433   3.465   2.636
  405TIP3    H1 1179   6.339   3.470   2.618
  405TIP3    H2 1180   6.473   3.449   2.550
  406TIP3   OH2 1181   1.145   1.750   0.243
  406TIP3    H1 1182   1.089   1.676   0.270
  406TIP3    H2 1183   1.230   1.710   0.226
  407TIP3   OH2 1184   5.721   3.831   1.131
  407TIP3    H1 1185   5.633   3.799   1.154
  407TIP3    H2 1186   5.719   3.924   1.150
  408TIP3   OH2 1187   0.348   2.797   3.304
  408TIP3    H1 1188   0.281   2.730   3.316
  408TIP3    H2 1189   0.419   2.772   3.363
  409TIP3   OH2 1190   2.223   4.019   2.364
  409TIP3    H1 1191   2.134   4.055   2.357
  409TIP3    H2 1192   2.270   4.080   2.420
  410TIP3   OH2 1193   1.952   3.690   2.430
  410TIP3    H1 1194   1.866   3.719   2.401
  410TIP3    H2 1195   1.934   3.616   2.488
  411TIP3   OH2 1196   3.627   2.780   1.896
  411TIP3    H1 1197   3.664   2.773   1.808
  411TIP3    H2 1198   3.532   2.786   1.882
  412TIP3   OH2 1199   6.905   6.464   3.791
  412TIP3    H1 1200   6.860   6.543   3.819
  412TIP3    H2 1201   6.882   6.453   3.699
  413TIP3   OH2 1202   4.631   3.603   2.288
  413TIP3    H1 1203   4.600   3.651   2.365
  413TIP3    H2 1204   4.565   3.535   2.274
  414TIP3   OH2 1205   6.370   4.274   5.678
  414TIP3    H1 1206   6.452   4.227   5.687
  414TIP3    H2 1207   6.311   4.213   5.633
  415TIP3   OH2 1208   5.339   1.148   2.831
  415TIP3    H1 1209   5.261   1.193   2.864
  415TIP3    H2 1210   5.321   1.131   2.739
  416TIP3   OH2 1211   6.317   3.920   3.850
  416TIP3    H1 1212   6.387   3.905   3.913
  416TIP3    H2 1213   6.360   3.913   3.765
  417TIP3   OH2 1214   0.439   4.400   0.316
  417TIP3    H1 1215   0.490   4.408   0.397
  417TIP3    H2 1216   0.359   4.449   0.334
  418TIP3   OH2 1217   6.812   6.437   3.524
  418TIP3    H1 1218   6.736   6.393   3.562
  418TIP3    H2 1219   6.774   6.508   3.471
  419TIP3   OH2 1220   3.347   0.853   2.269
  419TIP3    H1 1221   3.387   0.795   2.204
  419TIP3    H2 1222   3.258   0.819   2.280
  420TIP3   OH2 1223   6.803   5.833   3.898
  420TIP3    H1 1224   6.805   5.827   3.994
  420TIP3    H2 1225   6.822   5.745   3.868
  421TIP3   OH2 1226   0.375   4.460   2.744
  421TIP3    H1 1227   0.312   4.388   2.744
  421TIP3    H2 1228   0.460   4.418   2.756
  422TIP3   OH2 1229   0.201   3.896   5.181
  422TIP3    H1 1230   0.215   3.967   5.243
  422TIP3    H2 1231   0.277   3.839   5.193
  423TIP3   OH2 1232   4.816   0.030   1.539
  423TIP3    H1 1233   4.811  -0.061   1.510
  423TIP3    H2 1234   4.784   0.080   1.464
  424TIP3   OH2 1235   5.255   4.518   0.578
  424TIP3    H1 1236   5.238   4.566   0.659
  424TIP3    H2 1237   5.279   4.430   0.607
  425TIP3   OH2 1238   0.943   3.636   1.250
  425TIP3    H1 1239   0.951   3.549   1.209
  425TIP3    H2 1240   1.034   3.664   1.261
  426TIP3   OH2 1241   0.569   6.687   3.903
  426TIP3    H1 1242   0.490   6.740   3.892
  426TIP3    H2 1243   0.543   6.599   3.875
  427TIP3   OH2 1244   0.094   6.582   1.597
  427TIP3    H1 1245   0.088   6.564   1.504
  427TIP3    H2 1246   0.060   6.670   1.607
  428TIP3   OH2 1247   6.859   4.813   2.639
  428TIP3    H1 1248   6.843   4.748   2.570
  428TIP3    H2 1249   6.825   4.895   2.604
  429TIP3   OH2 1250   1.430   2.113   4.893
  429TIP3    H1 1251   1.345   2.071   4.879
  429TIP3    H2 1252   1.416   2.204   4.865
  430TIP3   OH2 1253   3.721   0.203   0.457
  430TIP3    H1 1254   3.779   0.260   0.406
  430TIP3    H2 1255   3.661   0.263   0.501
  431TIP3   OH2 1256   2.208   4.767   4.511
  431TIP3    H1 1257   2.253   4.708   4.450
  431TIP3    H2 1258   2.195   4.715   4.590
  432TIP3   OH2 1259   3.918   5.859   4.340
  432TIP3    H1 1260   3.975   5.845   4.264
  432TIP3    H2 1261   3.841   5.903   4.304
  433TIP3   OH2 1262   6.481   5.232   5.595
  433TIP3    H1 1263   6.546   5.249   5.662
  433TIP3    H2 1264   6.437   5.316   5.581
  434TIP3   OH2 1265   4.621   1.924   5.385
  434TIP3    H1 1266   4.634   1.833   5.411
  434TIP3    H2 1267   4.703   1.949   5.342
  435TIP3   OH2 1268   2.803   2.628   4.913
  435TIP3    H1 1269   2.755   2.569   4.855
  435TIP3    H2 1270   2.755   2.625   4.996
  436TIP3   OH2 1271   7.136   2.274   0.401
  436TIP3    H1 1272   7.167   2.185   0.420
  436TIP3    H2 1273   7.120   2.313   0.486
  437TIP3   OH2 1274   2.490   2.858   1.739
  437TIP3    H1 1275   2.547   2.811   1.678
  437TIP3    H2 1276   2.423   2.794   1.764
  438TIP3   OH2 1277   4.315   2.601   1.164
  438TIP3    H1 1278   4.339   2.534   1.100
  438TIP3    H2 1279   4.386   2.598   1.228
  439TIP3   OH2 1280   0.427   6.054   5.314
  439TIP3    H1 1281   0.384   6.052   5.229
  439TIP3    H2 1282   0.355   6.052   5.377
  440TIP3   OH2 1283   0.300   3.648   2.122
  440TIP3    H1 1284   0.367   3.583   2.102
  440TIP3    H2 1285   0.292   3.647   2.217
  441TIP3   OH2 1286   2.627   3.527   5.435
  441TIP3    H1 1287   2.585   3.612   5.443
  441TIP3    H2 1288   2.697   3.541   5.371
  442TIP3   OH2 1289   6.781   4.503   0.708
  442TIP3    H1 1290   6.688   4.495   0.731
  442TIP3    H2 1291   6.807   4.587   0.746
  443TIP3   OH2 1292   4.274   4.820   1.515
  443TIP3    H1 1293   4.333   4.838   1.441
  443TIP3    H2 1294   4.190   4.858   1.489
  444TIP3   OH2 1295   6.772   3.001   3.602
  444TIP3    H1 1296   6.808   2.924   3.558
  444TIP3    H2 1297   6.846   3.038   3.650
  445TIP3   OH2 1298   4.498   5.716   4.644
  445TIP3    H1 1299   4.579   5.694   4.598
  445TIP3    H2 1300   4.476   5.637   4.693
  446TIP3   OH2 1301   2.373   5.849   1.806
  446TIP3    H1 1302   2.397   5.939   1.783
  446TIP3    H2 1303   2.456   5.807   1.830
  447TIP3   OH2 1304   5.828   3.090   3.962
  447TIP3    H1 1305   5.793   3.177   3.939
  447TIP3    H2 1306   5.922   3.097   3.945
  448TIP3   OH2 1307   6.985   6.283   3.398
  448TIP3    H1 1308   6.915   6.335   3.440
  448TIP3    H2 1309   7.047   6.348   3.366
  449TIP3   OH2 1310   3.791   6.671   1.112
  449TIP3    H1 1311   3.758   6.584   1.090
  449TIP3    H2 1312   3.885   6.659   1.125
  450TIP3   OH2 1313   4.897   4.904   1.489
  450TIP3    H1 1314   4.861   4.888   1.576
  450TIP3    H2 1315   4.886   4.821   1.443
  451TIP3   OH2 1316   7.188   6.242   0.503
  451TIP3    H1 1317   7.205   6.325   0.547
  451TIP3    H2 1318   7.275   6.212   0.475
  452TIP3   OH2 1319   4.743   0.734   4.288
  452TIP3    H1 1320   4.656   0.726   4.248
  452TIP3    H2 1321   4.797   0.672   4.239
  453TIP3   OH2 1322   6.421   0.947   3.389
  453TIP3    H1 1323   6.386   1.030   3.356
  453TIP3    H2 1324   6.497   0.972   3.441
  454TIP3   OH2 1325   0.482   2.998   1.310
  454TIP3    H1 1326   0.403   3.024   1.357
  454TIP3    H2 1327   0.508   3.076   1.261
  455TIP3   OH2 1328   4.820   5.117   4.096
  455TIP3    H1 1329   4.907   5.150   4.120
  455TIP3    H2 1330   4.819   5.027   4.128
  456TIP3   OH2 1331   4.124   6.596   4.082
  456TIP3    H1 1332   4.040   6.568   4.045
  456TIP3    H2 1333   4.188   6.573   4.016
  457TIP3   OH2 1334   3.947   1.625   2.711
  457TIP3    H1 1335   3.931   1.699   2.653
  457TIP3    H2 1336   4.017   1.575   2.669
  458TIP3   OH2 1337   2.523   2.381   2.516
  458TIP3    H1 1338   2.473   2.459   2.491
  458TIP3    H2 1339   2.461   2.309   2.502
  459TIP3   OH2 1340   5.854   6.365   3.373
  459TIP3    H1 1341   5.922   6.332   3.432
  459TIP3    H2 1342   5.809   6.287   3.342
  460TIP3   OH2 1343   4.300   2.251   5.033
  460TIP3    H1 1344   4.338   2.254   4.945
  460TIP3    H2 1345   4.354   2.313   5.083
  461TIP3   OH2 1346   1.420   1.583   1.847
  461TIP3    H1 1347   1.357   1.654   1.851
  461TIP3    H2 1348   1.430   1.563   1.754
  462TIP3   OH2 1349   3.083   6.064   5.465
  462TIP3    H1 1350   3.107   6.036   5.553
  462TIP3    H2 1351   3.079   5.983   5.414
  463TIP3   OH2 1352   4.225   0.299   3.287
  463TIP3    H1 1353   4.248   0.206   3.295
  463TIP3    H2 1354   4.147   0.299   3.232
  464TIP3   OH2 1355   2.227   5.665   4.453
  464TIP3    H1 1356   2.293   5.682   4.520
  464TIP3    H2 1357   2.236   5.571   4.434
  465TIP3   OH2 1358   4.833   3.364   5.302
  465TIP3    H1 1359   4.772   3.420   5.350
  465TIP3    H2 1360   4.786   3.341   5.222
  466TIP3   OH2 1361   6.767   1.445   2.850
  466TIP3    H1 1362   6.738   1.515   2.792
  466TIP3    H2 1363   6.814   1.490   2.920
  467TIP3   OH2 1364   1.848   0.507   2.390
  467TIP3    H1 1365   1.942   0.519   2.375
  467TIP3    H2 1366   1.806   0.558   2.321
  468TIP3   OH2 1367   0.536   0.836   5.626
  468TIP3    H1 1368   0.598   0.875   5.564
  468TIP3    H2 1369   0.496   0.911   5.670
  469TIP3   OH2 1370   4.525   5.964   4.841
  469TIP3    H1 1371   4.502   5.871   4.842
  469TIP3    H2 1372   4.597   5.971   4.905
  470TIP3   OH2 1373   2.127   1.295   2.991
  470TIP3    H1 1374   2.144   1.275   2.899
  470TIP3    H2 1375   2.211   1.324   3.026
  471TIP3   OH2 1376   1.534   0.218   2.582
  471TIP3    H1 1377   1.604   0.207   2.647
  471TIP3    H2 1378   1.558   0.299   2.536
  472TIP3   OH2 1379   5.917   5.970   4.015
  472TIP3    H1 1380   5.875   6.004   3.935
  472TIP3    H2 1381   5.850   5.980   4.083
  473TIP3   OH2 1382   2.676   5.533   0.722
  473TIP3    H1 1383   2.635   5.597   0.664
  473TIP3    H2 1384   2.643   5.554   0.809
  474TIP3   OH2 1385   6.268   3.800   4.884
  474TIP3    H1 1386   6.324   3.796   4.962
  474TIP3    H2 1387   6.183   3.769   4.914
  475TIP3   OH2 1388   3.879   2.140   2.544
  475TIP3    H1 1389   3.853   2.212   2.602
  475TIP3    H2 1390   3.941   2.089   2.596
  476TIP3   OH2 1391   0.277   2.445   0.541
  476TIP3    H1 1392   0.295   2.503   0.616
  476TIP3    H2 1393   0.356   2.393   0.531
  477TIP3   OH2 1394   5.448   5.844   3.120
  477TIP3    H1 1395   5.407   5.855   3.206
  477TIP3    H2 1396   5.504   5.921   3.111
  478TIP3   OH2 1397   1.622   6.099   1.321
  478TIP3    H1 1398   1.710   6.133   1.337
  478TIP3    H2 1399   1.636   6.008   1.294
  479TIP3   OH2 1400   2.860   3.811   4.197
  479TIP3    H1 1401   2.905   3.804   4.280
  479TIP3    H2 1402   2.798   3.884   4.209
  480TIP3   OH2 1403   5.300   6.647   3.895
  480TIP3    H1 1404   5.348   6.728   3.880
  480TIP3    H2 1405   5.307   6.632   3.989
  481TIP3   OH2 1406   6.171   6.709   1.737
  481TIP3    H1 1407   6.130   6.708   1.823
  481TIP3    H2 1408   6.261   6.682   1.753
  482TIP3   OH2 1409   6.826   0.875   1.624
  482TIP3    H1 1410   6.817   0.886   1.529
  482TIP3    H2 1411   6.920   0.882   1.640
  483TIP3   OH2 1412   6.369   6.516   2.985
  483TIP3    H1 1413   6.314   6.448   2.945
  483TIP3    H2 1414   6.454   6.505   2.942
  484TIP3   OH2 1415   0.386  -0.006   5.747
  484TIP3    H1 1416   0.458   0.054   5.727
  484TIP3    H2 1417   0.309   0.050   5.755
  485TIP3   OH2 1418   2.056   5.462   4.669
  485TIP3    H1 1419   2.098   5.547   4.682
  485TIP3    H2 1420   2.107   5.419   4.601
  486TIP3   OH2 1421   3.900   2.878   0.231
  486TIP3    H1 1422   3.832   2.816   0.203
  486TIP3    H2 1423   3.866   2.914   0.313
  487TIP3   OH2 1424   1.691   5.566   0.723
  487TIP3    H1 1425   1.665   5.655   0.700
  487TIP3    H2 1426   1.639   5.510   0.665
  488TIP3   OH2 1427   0.567   2.263   2.848
  488TIP3    H1 1428   0.537   2.203   2.915
  488TIP3    H2 1429   0.600   2.339   2.896
  489TIP3   OH2 1430   0.639   3.371   4.409
  489TIP3    H1 1431   0.554   3.332   4.388
  489TIP3    H2 1432   0.701   3.298   4.407
  490TIP3   OH2 1433   6.836   1.878   0.239
  490TIP3    H1 1434   6.922   1.881   0.281
  490TIP3    H2 1435   6.781   1.935   0.293
  491TIP3   OH2 1436   0.143   5.488   3.982
  491TIP3    H1 1437   0.048   5.490   3.982
  491TIP3    H2 1438   0.169   5.571   4.022
  492TIP3   OH2 1439   1.527   4.805   0.317
  492TIP3    H1 1440   1.488   4.861   0.384
  492TIP3    H2 1441   1.621   4.818   0.327
  493TIP3   OH2 1442   6.533   6.658   0.241
  493TIP3    H1 1443   6.565   6.707   0.317
  493TIP3    H2 1444   6.559   6.711   0.166
  494TIP3   OH2 1445   1.961   0.794   3.807
  494TIP3    H1 1446   1.976   0.738   3.883
  494TIP3    H2 1447   1.983   0.882   3.838
  495TIP3   OH2 1448   1.332   0.397   5.170
  495TIP3    H1 1449   1.239   0.405   5.192
  495TIP3    H2 1450   1.334   0.386   5.075
  496TIP3   OH2 1451   6.074   4.528   2.643
  496TIP3    H1 1452   6.020   4.577   2.581
  496TIP3    H2 1453   6.160   4.571   2.640
  497TIP3   OH2 1454   4.971   0.264   5.153
  497TIP3    H1 1455   4.982   0.297   5.064
  497TIP3    H2 1456   4.922   0.183   5.143
  498TIP3   OH2 1457   2.712   5.364   2.778
  498TIP3    H1 1458   2.680   5.311   2.705
  498TIP3    H2 1459   2.654   5.440   2.779
  499TIP3   OH2 1460   0.016   3.774   3.970
  499TIP3    H1 1461   0.078   3.723   4.022
  499TIP3    H2 1462  -0.001   3.720   3.893
  500TIP3   OH2 1463   4.033   4.079   1.382
  500TIP3    H1 1464   4.094   4.084   1.455
  500TIP3    H2 1465   3.965   4.143   1.403
  501TIP3   OH2 1466   5.262   5.898   0.177
  501TIP3    H1 1467   5.182   5.945   0.154
  501TIP3    H2 1468   5.232   5.822   0.227
  502TIP3   OH2 1469   2.640   0.670   3.356
  502TIP3    H1 1470   2.613   0.631   3.272
  502TIP3    H2 1471   2.732   0.693   3.342
  503TIP3   OH2 1472   3.431   2.361   5.159
  503TIP3    H1 1473   3.483   2.433   5.122
  503TIP3    H2 1474   3.493   2.315   5.216
  504TIP3   OH2 1475   2.401   6.558   4.621
  504TIP3    H1 1476   2.373   6.478   4.575
  504TIP3    H2 1477   2.406   6.533   4.713
  505TIP3   OH2 1478   6.132   0.117   2.847
  505TIP3    H1 1479   6.106   0.205   2.819
  505TIP3    H2 1480   6.106   0.113   2.939
  506TIP3   OH2 1481   1.105   5.672   2.723
  506TIP3    H1 1482   1.139   5.593   2.681
  506TIP3    H2 1483   1.092   5.647   2.815
  507TIP3   OH2 1484   6.257   6.636   5.016
  507TIP3    H1 1485   6.240   6.590   4.934
  507TIP3    H2 1486   6.352   6.638   5.023
  508TIP3   OH2 1487   6.714   2.704   1.556
  508TIP3    H1 1488   6.800   2.703   1.515
  508TIP3    H2 1489   6.727   2.661   1.640
  509TIP3   OH2 1490   4.398   5.887   1.705
  509TIP3    H1 1491   4.413   5.982   1.696
  509TIP3    H2 1492   4.437   5.865   1.789
  510TIP3   OH2 1493   3.605   5.791   4.073
  510TIP3    H1 1494   3.603   5.740   3.992
  510TIP3    H2 1495   3.513   5.797   4.099
  511TIP3   OH2 1496   5.049   3.072   0.806
  511TIP3    H1 1497   5.106   3.144   0.834
  511TIP3    H2 1498   5.083   3.047   0.720
  512TIP3   OH2 1499   2.605   6.329   5.706
  512TIP3    H1 1500   2.659   6.328   5.785
  512TIP3    H2 1501   2.603   6.237   5.678
  513TIP3   OH2 1502   0.301   6.220   0.716
  513TIP3    H1 1503   0.335   6.231   0.627
  513TIP3    H2 1504   0.294   6.309   0.750
  514TIP3   OH2 1505   3.468   6.772   0.781
  514TIP3    H1 1506   3.440   6.795   0.869
  514TIP3    H2 1507   3.394   6.795   0.725
  515TIP3   OH2 1508   4.649   3.484   1.277
  515TIP3    H1 1509   4.666   3.573   1.307
  515TIP3    H2 1510   4.724   3.462   1.222
  516TIP3   OH2 1511   0.251   5.802   3.800
  516TIP3    H1 1512   0.244   5.799   3.895
  516TIP3    H2 1513   0.327   5.748   3.779
  517TIP3   OH2 1514   2.439   2.397   1.138
  517TIP3    H1 1515   2.349   2.363   1.140
  517TIP3    H2 1516   2.488   2.331   1.088
  518TIP3   OH2 1517   0.594   5.144   3.309
  518TIP3    H1 1518   0.664   5.090   3.346
  518TIP3    H2 1519   0.517   5.088   3.308
  519TIP3   OH2 1520   4.852   3.685   5.196
  519TIP3    H1 1521   4.849   3.656   5.287
  519TIP3    H2 1522   4.834   3.606   5.144
  520TIP3   OH2 1523   0.825   1.541   0.034
  520TIP3    H1 1524   0.872   1.553  -0.049
  520TIP3    H2 1525   0.769   1.619   0.042
  521TIP3   OH2 1526   2.358   1.128   0.066
  521TIP3    H1 1527   2.341   1.095  -0.023
  521TIP3    H2 1528   2.331   1.220   0.062
  522TIP3   OH2 1529   0.881   3.200   4.778
  522TIP3    H1 1530   0.973   3.227   4.780
  522TIP3    H2 1531   0.857   3.189   4.870
  523TIP3   OH2 1532   2.185   1.278   4.333
  523TIP3    H1 1533   2.227   1.343   4.390
  523TIP3    H2 1534   2.200   1.195   4.378
  524TIP3   OH2 1535   4.538   0.688   1.853
  524TIP3    H1 1536   4.591   0.629   1.798
  524TIP3    H2 1537   4.547   0.653   1.941
  525TIP3   OH2 1538   1.972   5.261   3.581
  525TIP3    H1 1539   1.999   5.335   3.528
  525TIP3    H2 1540   1.914   5.210   3.524
  526TIP3   OH2 1541   1.411   3.583   4.746
  526TIP3    H1 1542   1.389   3.523   4.674
  526TIP3    H2 1543   1.384   3.669   4.714
  527TIP3   OH2 1544   2.178   4.260   1.188
  527TIP3    H1 1545   2.150   4.269   1.097
  527TIP3    H2 1546   2.257   4.314   1.194
  528TIP3   OH2 1547   2.529   1.583   4.665
  528TIP3    H1 1548   2.560   1.673   4.669
  528TIP3    H2 1549   2.599   1.531   4.706
  529TIP3   OH2 1550   3.240   3.656   4.864
  529TIP3    H1 1551   3.300   3.620   4.798
  529TIP3    H2 1552   3.169   3.592   4.870
  530TIP3   OH2 1553   4.255   5.889   2.562
  530TIP3    H1 1554   4.347   5.867   2.545
  530TIP3    H2 1555   4.252   5.984   2.556
  531TIP3   OH2 1556   5.953   4.396   5.520
  531TIP3    H1 1557   5.868   4.421   5.483
  531TIP3    H2 1558   6.018   4.431   5.460
  532TIP3   OH2 1559   1.583   4.055   5.703
  532TIP3    H1 1560   1.521   3.991   5.667
  532TIP3    H2 1561   1.660   4.003   5.728
  533TIP3   OH2 1562   0.454   5.365   1.473
  533TIP3    H1 1563   0.489   5.278   1.494
  533TIP3    H2 1564   0.440   5.363   1.378
  534TIP3   OH2 1565   6.221   0.934   3.681
  534TIP3    H1 1566   6.166   0.919   3.604
  534TIP3    H2 1567   6.297   0.982   3.648
  535TIP3   OH2 1568   6.414   2.338   3.890
  535TIP3    H1 1569   6.396   2.244   3.902
  535TIP3    H2 1570   6.451   2.344   3.802
  536TIP3   OH2 1571   0.906   3.020   5.725
  536TIP3    H1 1572   0.864   3.106   5.713
  536TIP3    H2 1573   0.969   3.034   5.795
  537TIP3   OH2 1574   6.182   2.194   2.454
  537TIP3    H1 1575   6.146   2.106   2.451
  537TIP3    H2 1576   6.260   2.190   2.398
  538TIP3   OH2 1577   3.953   0.066   1.967
  538TIP3    H1 1578   3.987  -0.023   1.960
  538TIP3    H2 1579   3.874   0.066   1.913
  539TIP3   OH2 1580   0.257   5.263   4.114
  539TIP3    H1 1581   0.348   5.267   4.084
  539TIP3    H2 1582   0.211   5.325   4.057
  540TIP3   OH2 1583   0.989   4.392   1.384
  540TIP3    H1 1584   1.064   4.333   1.375
  540TIP3    H2 1585   0.918   4.336   1.415
  541TIP3   OH2 1586   6.310   0.033   3.311
  541TIP3    H1 1587   6.272   0.029   3.399
  541TIP3    H2 1588   6.301   0.125   3.286
  542TIP3   OH2 1589   3.994   3.006   1.776
  542TIP3    H1 1590   3.899   3.008   1.779
  542TIP3    H2 1591   4.021   3.048   1.858
  543TIP3   OH2 1592   1.737   4.498   0.635
  543TIP3    H1 1593   1.753   4.458   0.549
  543TIP3    H2 1594   1.824   4.506   0.674
  544TIP3   OH2 1595   3.054   6.145   0.496
  544TIP3    H1 1596   3.086   6.056   0.513
  544TIP3    H2 1597   2.965   6.145   0.531
  545TIP3   OH2 1598   2.298   2.581   5.872
  545TIP3    H1 1599   2.332   2.668   5.850
  545TIP3    H2 1600   2.278   2.541   5.787
  546TIP3   OH2 1601   6.228   5.267   1.012
  546TIP3    H1 1602   6.311   5.282   0.967
  546TIP3    H2 1603   6.203   5.352   1.046
  547TIP3   OH2 1604   4.068   3.618   3.333
  547TIP3    H1 1605   4.156   3.580   3.337
  547TIP3    H2 1606   4.023   3.582   3.410
  548TIP3   OH2 1607   3.315   3.447   3.230
  548TIP3    H1 1608   3.325   3.539   3.255
  548TIP3    H2 1609   3.223   3.428   3.246
  549TIP3   OH2 1610   6.009   0.309   2.244
  549TIP3    H1 1611   5.940   0.255   2.283
  549TIP3    H2 1612   5.966   0.350   2.169
  550TIP3   OH2 1613   3.308   0.969   2.507
  550TIP3    H1 1614   3.353   0.953   2.424
  550TIP3    H2 1615   3.219   0.994   2.482
  551TIP3   OH2 1616   5.625   3.275   0.902
  551TIP3    H1 1617   5.568   3.230   0.841
  551TIP3    H2 1618   5.676   3.335   0.848
  552TIP3   OH2 1619   1.844   1.366   3.573
  552TIP3    H1 1620   1.874   1.342   3.660
  552TIP3    H2 1621   1.912   1.335   3.514
  553TIP3   OH2 1622   2.690   0.109   0.720
  553TIP3    H1 1623   2.626   0.104   0.648
  553TIP3    H2 1624   2.714   0.201   0.725
  554TIP3   OH2 1625   1.304   2.288   3.958
  554TIP3    H1 1626   1.215   2.316   3.941
  554TIP3    H2 1627   1.329   2.237   3.881
  555TIP3   OH2 1628   5.442   4.763   3.752
  555TIP3    H1 1629   5.492   4.830   3.706
  555TIP3    H2 1630   5.499   4.686   3.752
  556TIP3   OH2 1631   0.252   3.919   0.426
  556TIP3    H1 1632   0.295   3.986   0.373
  556TIP3    H2 1633   0.176   3.963   0.465
  557TIP3   OH2 1634   4.956   0.279   5.439
  557TIP3    H1 1635   5.017   0.206   5.452
  557TIP3    H2 1636   4.924   0.268   5.349
  558TIP3   OH2 1637   4.124   0.788   3.193
  558TIP3    H1 1638   4.155   0.713   3.142
  558TIP3    H2 1639   4.124   0.757   3.284
  559TIP3   OH2 1640   0.111   5.593   4.715
  559TIP3    H1 1641   0.105   5.611   4.621
  559TIP3    H2 1642   0.027   5.623   4.751
  560TIP3   OH2 1643   4.408   2.961   2.024
  560TIP3    H1 1644   4.404   3.052   1.995
  560TIP3    H2 1645   4.483   2.925   1.977
  561TIP3   OH2 1646   2.874   2.416   4.351
  561TIP3    H1 1647   2.910   2.327   4.343
  561TIP3    H2 1648   2.843   2.437   4.263
  562TIP3   OH2 1649   5.128   2.914   1.061
  562TIP3    H1 1650   5.113   2.945   0.971
  562TIP3    H2 1651   5.072   2.837   1.070
  563TIP3   OH2 1652   2.845   4.228   0.574
  563TIP3    H1 1653   2.866   4.226   0.481
  563TIP3    H2 1654   2.873   4.314   0.603
  564TIP3   OH2 1655   0.204   3.647   4.744
  564TIP3    H1 1656   0.162   3.584   4.686
  564TIP3    H2 1657   0.248   3.594   4.810
  565TIP3   OH2 1658   4.645   0.217   1.069
  565TIP3    H1 1659   4.686   0.194   0.986
  565TIP3    H2 1660   4.553   0.193   1.059
  566TIP3   OH2 1661   2.420   6.326   2.157
  566TIP3    H1 1662   2.444   6.266   2.087
  566TIP3    H2 1663   2.335   6.362   2.131
  567TIP3   OH2 1664   4.878   0.032   0.929
  567TIP3    H1 1665   4.945  -0.008   0.985
  567TIP3    H2 1666   4.929   0.075   0.859
  568TIP3   OH2 1667   4.237   0.329   1.342
  568TIP3    H1 1668   4.248   0.286   1.257
  568TIP3    H2 1669   4.143   0.343   1.350
  569TIP3   OH2 1670   1.808   3.845   4.386
  569TIP3    H1 1671   1.713   3.848   4.377
  569TIP3    H2 1672   1.834   3.767   4.338
  570TIP3   OH2 1673   6.106   2.137   2.153
  570TIP3    H1 1674   6.123   2.044   2.144
  570TIP3    H2 1675   6.014   2.143   2.178
  571TIP3   OH2 1676   1.525   5.655   4.566
  571TIP3    H1 1677   1.547   5.673   4.657
  571TIP3    H2 1678   1.499   5.563   4.565
  572TIP3   OH2 1679   2.494   4.838   4.634
  572TIP3    H1 1680   2.534   4.765   4.586
  572TIP3    H2 1681   2.437   4.880   4.569
  573TIP3   OH2 1682   1.154   3.192   5.381
  573TIP3    H1 1683   1.186   3.165   5.468
  573TIP3    H2 1684   1.145   3.287   5.388
  574TIP3   OH2 1685   2.045   2.771   5.463
  574TIP3    H1 1686   2.065   2.795   5.373
  574TIP3    H2 1687   2.013   2.852   5.503
  575TIP3   OH2 1688   5.220   6.457   4.212
  575TIP3    H1 1689   5.178   6.428   4.130
  575TIP3    H2 1690   5.181   6.401   4.279
  576TIP3   OH2 1691   3.320   1.533   1.960
  576TIP3    H1 1692   3.319   1.474   1.885
  576TIP3    H2 1693   3.331   1.620   1.922
  577TIP3   OH2 1694   4.935   4.064   3.750
  577TIP3    H1 1695   4.986   4.006   3.693
  577TIP3    H2 1696   4.977   4.057   3.835
  578TIP3   OH2 1697   5.330   4.469   5.072
  578TIP3    H1 1698   5.397   4.401   5.076
  578TIP3    H2 1699   5.330   4.508   5.159
  579TIP3   OH2 1700   2.193   2.673   1.525
  579TIP3    H1 1701   2.215   2.685   1.617
  579TIP3    H2 1702   2.276   2.644   1.485
  580TIP3   OH2 1703   5.322   6.210   5.363
  580TIP3    H1 1704   5.358   6.121   5.361
  580TIP3    H2 1705   5.395   6.266   5.336
  581TIP3   OH2 1706   5.281   5.450   1.889
  581TIP3    H1 1707   5.337   5.522   1.917
  581TIP3    H2 1708   5.304   5.437   1.796
  582TIP3   OH2 1709   5.297   2.800   3.805
  582TIP3    H1 1710   5.300   2.879   3.859
  582TIP3    H2 1711   5.371   2.748   3.836
  583TIP3   OH2 1712   4.798   1.854   5.072
  583TIP3    H1 1713   4.766   1.928   5.020
  583TIP3    H2 1714   4.735   1.784   5.056
  584TIP3   OH2 1715   1.263   5.844   2.152
  584TIP3    H1 1716   1.323   5.869   2.223
  584TIP3    H2 1717   1.219   5.925   2.128
  585TIP3   OH2 1718   4.040   3.097   2.130
  585TIP3    H1 1719   3.991   3.095   2.212
  585TIP3    H2 1720   4.039   3.190   2.105
  586TIP3   OH2 1721   5.071   5.835   0.391
  586TIP3    H1 1722   5.002   5.785   0.346
  586TIP3    H2 1723   5.090   5.783   0.469
  587TIP3   OH2 1724   2.296   4.669   3.319
  587TIP3    H1 1725   2.312   4.742   3.378
  587TIP3    H2 1726   2.349   4.597   3.354
  588TIP3   OH2 1727   2.405   1.558   5.769
  588TIP3    H1 1728   2.494   1.572   5.738
  588TIP3    H2 1729   2.354   1.541   5.690
  589TIP3   OH2 1730   3.084   2.425   1.300
  589TIP3    H1 1731   3.067   2.454   1.389
  589TIP3    H2 1732   3.025   2.351   1.287
  590TIP3   OH2 1733   5.679   1.964   4.750
  590TIP3    H1 1734   5.705   1.997   4.837
  590TIP3    H2 1735   5.668   1.869   4.764
  591TIP3   OH2 1736   3.969   1.467   1.601
  591TIP3    H1 1737   3.980   1.470   1.506
  591TIP3    H2 1738   3.949   1.557   1.626
  592TIP3   OH2 1739   4.156   2.965   0.888
  592TIP3    H1 1740   4.139   3.002   0.801
  592TIP3    H2 1741   4.210   2.887   0.871
  593TIP3   OH2 1742   0.772   1.613   1.500
  593TIP3    H1 1743   0.812   1.528   1.483
  593TIP3    H2 1744   0.761   1.652   1.413
  594TIP3   OH2 1745   1.160   3.154   2.411
  594TIP3    H1 1746   1.202   3.108   2.485
  594TIP3    H2 1747   1.078   3.107   2.397
  595TIP3   OH2 1748   3.801   6.133   5.252
  595TIP3    H1 1749   3.721   6.089   5.222
  595TIP3    H2 1750   3.774   6.224   5.268
  596TIP3   OH2 1751   3.996   0.712   4.853
  596TIP3    H1 1752   4.090   0.698   4.838
  596TIP3    H2 1753   3.992   0.796   4.898
  597TIP3   OH2 1754   6.182   5.227   5.170
  597TIP3    H1 1755   6.235   5.147   5.164
  597TIP3    H2 1756   6.149   5.240   5.081
  598TIP3   OH2 1757   0.483   4.105   5.232
  598TIP3    H1 1758   0.548   4.046   5.193
  598TIP3    H2 1759   0.445   4.054   5.304
  599TIP3   OH2 1760   6.947   3.523   3.991
  599TIP3    H1 1761   7.034   3.483   3.990
  599TIP3    H2 1762   6.942   3.573   3.910
  600TIP3   OH2 1763   1.420   2.589   1.120
  600TIP3    H1 1764   1.489   2.526   1.142
  600TIP3    H2 1765   1.338   2.544   1.142
  601TIP3   OH2 1766   4.531   3.255   3.249
  601TIP3    H1 1767   4.452   3.264   3.303
  601TIP3    H2 1768   4.526   3.328   3.187
  602TIP3   OH2 1769   3.815   0.492   2.118
  602TIP3    H1 1770   3.812   0.584   2.144
  602TIP3    H2 1771   3.724   0.466   2.110
  603TIP3   OH2 1772   2.531   2.893   4.166
  603TIP3    H1 1773   2.560   2.972   4.212
  603TIP3    H2 1774   2.459   2.860   4.219
  604TIP3   OH2 1775   5.929   3.864   2.321
  604TIP3    H1 1776   6.013   3.899   2.352
  604TIP3    H2 1777   5.938   3.769   2.331
  605TIP3   OH2 1778   0.085   0.414   4.989
  605TIP3    H1 1779   0.116   0.360   4.917
  605TIP3    H2 1780   0.007   0.370   5.022
  606TIP3   OH2 1781   5.316   2.954   4.031
  606TIP3    H1 1782   5.307   2.966   4.126
  606TIP3    H2 1783   5.363   3.032   4.002
  607TIP3   OH2 1784   6.764   1.870   2.826
  607TIP3    H1 1785   6.813   1.829   2.755
  607TIP3    H2 1786   6.791   1.961   2.824
  608TIP3   OH2 1787   6.018   4.958   4.247
  608TIP3    H1 1788   5.931   4.924   4.228
  608TIP3    H2 1789   6.043   4.918   4.330
  609TIP3   OH2 1790   5.871   1.581   5.413
  609TIP3    H1 1791   5.899   1.531   5.489
  609TIP3    H2 1792   5.793   1.628   5.442
  610TIP3   OH2 1793   4.051   1.076   1.588
  610TIP3    H1 1794   4.084   1.098   1.501
  610TIP3    H2 1795   3.976   1.019   1.571
  611TIP3   OH2 1796   1.149   4.202   4.907
  611TIP3    H1 1797   1.242   4.180   4.899
  611TIP3    H2 1798   1.133   4.262   4.834
  612TIP3   OH2 1799   4.756   1.131   0.268
  612TIP3    H1 1800   4.726   1.152   0.356
  612TIP3    H2 1801   4.735   1.038   0.257
  613TIP3   OH2 1802   5.036   0.886   4.015
  613TIP3    H1 1803   5.086   0.967   4.007
  613TIP3    H2 1804   5.098   0.822   4.046
  614TIP3   OH2 1805   5.070   1.546   1.450
  614TIP3    H1 1806   5.107   1.593   1.524
  614TIP3    H2 1807   5.014   1.479   1.489
  615TIP3   OH2 1808   5.786   3.556   1.253
  615TIP3    H1 1809   5.710   3.503   1.227
  615TIP3    H2 1810   5.773   3.640   1.210
  616TIP3   OH2 1811   7.171   5.169   0.971
  616TIP3    H1 1812   7.195   5.142   0.883
  616TIP3    H2 1813   7.120   5.250   0.958
  617TIP3   OH2 1814   2.492   6.721   2.573
  617TIP3    H1 1815   2.586   6.704   2.573
  617TIP3    H2 1816   2.479   6.781   2.499
  618TIP3   OH2 1817   0.515   4.803   1.604
  618TIP3    H1 1818   0.534   4.727   1.549
  618TIP3    H2 1819   0.546   4.778   1.691
  619TIP3   OH2 1820   3.403   1.361   5.774
  619TIP3    H1 1821   3.344   1.356   5.698
  619TIP3    H2 1822   3.470   1.295   5.757
  620TIP3   OH2 1823   0.698   2.390   5.636
  620TIP3    H1 1824   0.664   2.329   5.702
  620TIP3    H2 1825   0.710   2.336   5.558
  621TIP3   OH2 1826   2.028   3.095   4.705
  621TIP3    H1 1827   2.076   3.107   4.787
  621TIP3    H2 1828   2.084   3.135   4.638
  622TIP3   OH2 1829   5.429   1.290   0.063
  622TIP3    H1 1830   5.382   1.349   0.004
  622TIP3    H2 1831   5.498   1.252   0.009
  623TIP3   OH2 1832   2.178   5.093   3.803
  623TIP3    H1 1833   2.129   5.176   3.810
  623TIP3    H2 1834   2.119   5.028   3.841
  624TIP3   OH2 1835   3.614   3.807   2.529
  624TIP3    H1 1836   3.542   3.865   2.506
  624TIP3    H2 1837   3.573   3.723   2.546
  625TIP3   OH2 1838   4.383   3.116   2.299
  625TIP3    H1 1839   4.378   3.050   2.229
  625TIP3    H2 1840   4.466   3.097   2.343
  626TIP3   OH2 1841   6.328   0.444   4.577
  626TIP3    H1 1842   6.262   0.417   4.641
  626TIP3    H2 1843   6.364   0.525   4.612
  627TIP3   OH2 1844   3.924   5.287   0.101
  627TIP3    H1 1845   3.890   5.376   0.113
  627TIP3    H2 1846   3.932   5.253   0.190
  628TIP3   OH2 1847   3.915   2.040  -0.042
  628TIP3    H1 1848   4.007   2.018  -0.031
  628TIP3    H2 1849   3.871   1.999   0.033
  629TIP3   OH2 1850   2.104   5.546   5.363
  629TIP3    H1 1851   2.046   5.619   5.386
  629TIP3    H2 1852   2.174   5.587   5.312
  630TIP3   OH2 1853   1.735   1.969   2.237
  630TIP3    H1 1854   1.812   1.919   2.213
  630TIP3    H2 1855   1.706   1.930   2.320
  631TIP3   OH2 1856   5.857   1.156   0.216
  631TIP3    H1 1857   5.774   1.120   0.184
  631TIP3    H2 1858   5.840   1.175   0.309
  632TIP3   OH2 1859   0.141   0.889   5.394
  632TIP3    H1 1860   0.211   0.861   5.335
  632TIP3    H2 1861   0.061   0.876   5.344
  633TIP3   OH2 1862   5.893   1.675   3.920
  633TIP3    H1 1863   5.812   1.649   3.965
  633TIP3    H2 1864   5.871   1.669   3.827
  634TIP3   OH2 1865   2.026   1.021   3.943
  634TIP3    H1 1866   2.097   1.076   3.909
  634TIP3    H2 1867   2.023   1.042   4.037
  635TIP3   OH2 1868   4.132   4.359   4.130
  635TIP3    H1 1869   4.216   4.322   4.157
  635TIP3    H2 1870   4.098   4.401   4.209
  636TIP3   OH2 1871   3.593   2.549   4.830
  636TIP3    H1 1872   3.596   2.582   4.740
  636TIP3    H2 1873   3.501   2.526   4.844
  637TIP3   OH2 1874   4.859   5.867   4.597
  637TIP3    H1 1875   4.845   5.864   4.691
  637TIP3    H2 1876   4.947   5.831   4.584
  638TIP3   OH2 1877   0.270   4.034   5.393
  638TIP3    H1 1878   0.299   3.992   5.475
  638TIP3    H2 1879   0.200   4.093   5.420
  639TIP3   OH2 1880   4.636   2.104   4.153
  639TIP3    H1 1881   4.669   2.033   4.209
  639TIP3    H2 1882   4.696   2.105   4.078
  640TIP3   OH2 1883   3.349   1.330   2.907
  640TIP3    H1 1884   3.336   1.284   2.824
  640TIP3    H2 1885   3.444   1.333   2.919
  641TIP3   OH2 1886   4.971   2.681   1.599
  641TIP3    H1 1887   5.062   2.698   1.574
  641TIP3    H2 1888   4.935   2.767   1.621
  642TIP3   OH2 1889   6.491   4.725   2.230
  642TIP3    H1 1890   6.461   4.813   2.204
  642TIP3    H2 1891   6.411   4.678   2.252
  643TIP3   OH2 1892   4.095   6.114   5.342
  643TIP3    H1 1893   4.034   6.080   5.408
  643TIP3    H2 1894   4.061   6.081   5.259
  644TIP3   OH2 1895   3.233   4.406   5.451
  644TIP3    H1 1896   3.251   4.353   5.374
  644TIP3    H2 1897   3.190   4.485   5.417
  645TIP3   OH2 1898   2.392   5.998   2.789
  645TIP3    H1 1899   2.435   6.010   2.704
  645TIP3    H2 1900   2.355   6.085   2.809
  646TIP3   OH2 1901   5.151   4.395   5.818
  646TIP3    H1 1902   5.229   4.411   5.764
  646TIP3    H2 1903   5.127   4.482   5.850
  647TIP3   OH2 1904   3.858   1.752   4.481
  647TIP3    H1 1905   3.850   1.689   4.553
  647TIP3    H2 1906   3.840   1.700   4.403
  648TIP3   OH2 1907   0.580   5.094   4.574
  648TIP3    H1 1908   0.492   5.060   4.589
  648TIP3    H2 1909   0.580   5.121   4.482
  649TIP3   OH2 1910   2.196   1.016   4.449
  649TIP3    H1 1911   2.167   0.991   4.537
  649TIP3    H2 1912   2.273   0.962   4.433
  650TIP3   OH2 1913   2.828   3.955   0.573
  650TIP3    H1 1914   2.905   3.922   0.528
  650TIP3    H2 1915   2.833   4.050   0.563
  651TIP3   OH2 1916   2.489   0.990   2.850
  651TIP3    H1 1917   2.469   0.987   2.944
  651TIP3    H2 1918   2.559   0.927   2.838
  652TIP3   OH2 1919   3.523   2.145   0.675
  652TIP3    H1 1920   3.617   2.162   0.671
  652TIP3    H2 1921   3.482   2.228   0.648
  653TIP3   OH2 1922   5.517   6.456   3.461
  653TIP3    H1 1923   5.603   6.466   3.502
  653TIP3    H2 1924   5.504   6.538   3.414
  654TIP3   OH2 1925   1.420   2.177   4.185
  654TIP3    H1 1926   1.491   2.230   4.221
  654TIP3    H2 1927   1.381   2.233   4.117
  655TIP3   OH2 1928   0.580   5.404   0.076
  655TIP3    H1 1929   0.616   5.336   0.019
  655TIP3    H2 1930   0.602   5.486   0.034
  656TIP3   OH2 1931   3.450   6.179   1.650
  656TIP3    H1 1932   3.381   6.242   1.631
  656TIP3    H2 1933   3.512   6.188   1.578
  657TIP3   OH2 1934   6.342   4.321   4.790
  657TIP3    H1 1935   6.277   4.384   4.820
  657TIP3    H2 1936   6.414   4.374   4.757
  658TIP3   OH2 1937   3.359   5.316   5.145
  658TIP3    H1 1938   3.421   5.384   5.172
  658TIP3    H2 1939   3.290   5.364   5.099
  659TIP3   OH2 1940   4.934   3.752   4.593
  659TIP3    H1 1941   4.983   3.678   4.628
  659TIP3    H2 1942   4.888   3.717   4.517
  660TIP3   OH2 1943   0.569   2.782   3.055
  660TIP3    H1 1944   0.632   2.781   3.127
  660TIP3    H2 1945   0.487   2.811   3.096
  661TIP3   OH2 1946   5.827   2.164   3.070
  661TIP3    H1 1947   5.850   2.193   3.158
  661TIP3    H2 1948   5.799   2.244   3.025
  662TIP3   OH2 1949   6.568   3.100   0.673
  662TIP3    H1 1950   6.545   3.121   0.583
  662TIP3    H2 1951   6.592   3.184   0.712
  663TIP3   OH2 1952   1.070   1.412   2.227
  663TIP3    H1 1953   1.111   1.350   2.287
  663TIP3    H2 1954   1.128   1.488   2.227
  664TIP3   OH2 1955   5.980   0.860   4.846
  664TIP3    H1 1956   5.981   0.788   4.909
  664TIP3    H2 1957   5.993   0.818   4.761
  665TIP3   OH2 1958   5.994   4.460   0.270
  665TIP3    H1 1959   6.072   4.501   0.233
  665TIP3    H2 1960   5.925   4.525   0.259
  666TIP3   OH2 1961   1.259   6.453   2.759
  666TIP3    H1 1962   1.334   6.417   2.807
  666TIP3    H2 1963   1.267   6.416   2.671
  667TIP3   OH2 1964   1.061   5.617   4.051
  667TIP3    H1 1965   1.115   5.694   4.070
  667TIP3    H2 1966   1.124   5.549   4.028
  668TIP3   OH2 1967   1.756   6.432   1.717
  668TIP3    H1 1968   1.789   6.494   1.651
  668TIP3    H2 1969   1.665   6.417   1.693
  669TIP3   OH2 1970   1.643   4.007   2.264
  669TIP3    H1 1971   1.583   3.992   2.337
  669TIP3    H2 1972   1.621   4.095   2.233
  670TIP3   OH2 1973   0.896   6.128   2.699
  670TIP3    H1 1974   0.932   6.061   2.758
  670TIP3    H2 1975   0.900   6.089   2.612
  671TIP3   OH2 1976   2.437   4.189   2.477
  671TIP3    H1 1977   2.498   4.165   2.407
  671TIP3    H2 1978   2.429   4.284   2.471
  672TIP3   OH2 1979   4.804   4.697   1.368
  672TIP3    H1 1980   4.733   4.671   1.311
  672TIP3    H2 1981   4.806   4.631   1.437
  673TIP3   OH2 1982   3.724   3.295   5.157
  673TIP3    H1 1983   3.774   3.359   5.208
  673TIP3    H2 1984   3.759   3.210   5.183
  674TIP3   OH2 1985   5.616   6.308   5.453
  674TIP3    H1 1986   5.613   6.283   5.545
  674TIP3    H2 1987   5.687   6.372   5.448
  675TIP3   OH2 1988   0.043   5.034   0.119
  675TIP3    H1 1989   0.002   5.092   0.182
  675TIP3    H2 1990   0.055   4.951   0.166
  676TIP3   OH2 1991   3.374   5.188   2.276
  676TIP3    H1 1992   3.289   5.148   2.259
  676TIP3    H2 1993   3.406   5.144   2.355
  677TIP3   OH2 1994   3.966   5.986   5.103
  677TIP3    H1 1995   3.923   5.977   5.018
  677TIP3    H2 1996   3.895   6.010   5.163
  678TIP3   OH2 1997   3.905   2.400   3.945
  678TIP3    H1 1998   3.968   2.333   3.971
  678TIP3    H2 1999   3.950   2.451   3.878
  679TIP3   OH2 2000   4.971   2.115   0.364
  679TIP3    H1 2001   5.020   2.140   0.442
  679TIP3    H2 2002   5.010   2.032   0.336
  680TIP3   OH2 2003   2.010   6.664   1.041
  680TIP3    H1 2004   2.084   6.641   1.097
  680TIP3    H2 2005   2.009   6.596   0.973
  681TIP3   OH2 2006   0.624   3.239   1.705
  681TIP3    H1 2007   0.588   3.280   1.626
  681TIP3    H2 2008   0.546   3.210   1.754
  682TIP3   OH2 2009   4.356   1.922   3.881
  682TIP3    H1 2010   4.288   1.967   3.830
  682TIP3    H2 2011   4.432   1.980   3.874
  683TIP3   OH2 2012   5.349   5.587   0.215
  683TIP3    H1 2013   5.370   5.598   0.122
  683TIP3    H2 2014   5.260   5.553   0.215
  684TIP3   OH2 2015   3.031   1.128   4.671
  684TIP3    H1 2016   3.010   1.056   4.731
  684TIP3    H2 2017   3.126   1.126   4.663
  685TIP3   OH2 2018   0.600   0.454   5.078
  685TIP3    H1 2019   0.632   0.441   4.988
  685TIP3    H2 2020   0.580   0.366   5.109
  686TIP3   OH2 2021   1.936   3.765   2.125
  686TIP3    H1 2022   1.976   3.712   2.194
  686TIP3    H2 2023   1.997   3.760   2.052
  687TIP3   OH2 2024   2.173   3.483   2.159
  687TIP3    H1 2025   2.216   3.528   2.086
  687TIP3    H2 2026   2.090   3.453   2.123
  688TIP3   OH2 2027   1.419   5.450   3.352
  688TIP3    H1 2028   1.396   5.409   3.269
  688TIP3    H2 2029   1.437   5.377   3.411
  689TIP3   OH2 2030   5.636   6.082   5.315
  689TIP3    H1 2031   5.641   6.112   5.225
  689TIP3    H2 2032   5.616   6.160   5.366
  690TIP3   OH2 2033   3.805   1.973   3.026
  690TIP3    H1 2034   3.718   1.943   3.050
  690TIP3    H2 2035   3.849   1.895   2.993
  691TIP3   OH2 2036   4.287   3.700   0.831
  691TIP3    H1 2037   4.292   3.795   0.839
  691TIP3    H2 2038   4.359   3.668   0.886
  692TIP3   OH2 2039   2.775   0.265   2.726
  692TIP3    H1 2040   2.820   0.343   2.692
  692TIP3    H2 2041   2.786   0.271   2.821
  693TIP3   OH2 2042   3.437   2.009   1.473
  693TIP3    H1 2043   3.440   2.075   1.542
  693TIP3    H2 2044   3.430   2.060   1.392
  694TIP3   OH2 2045   2.457   2.463   5.653
  694TIP3    H1 2046   2.470   2.368   5.652
  694TIP3    H2 2047   2.493   2.492   5.737
  695TIP3   OH2 2048   3.574   5.143   4.049
  695TIP3    H1 2049   3.482   5.168   4.036
  695TIP3    H2 2050   3.576   5.108   4.138
  696TIP3   OH2 2051   6.768   4.981   1.012
  696TIP3    H1 2052   6.856   4.943   1.010
  696TIP3    H2 2053   6.783   5.075   1.027
  697TIP3   OH2 2054   5.833   4.287   3.866
  697TIP3    H1 2055   5.909   4.320   3.914
  697TIP3    H2 2056   5.774   4.254   3.934
  698TIP3   OH2 2057   5.409   0.297   3.233
  698TIP3    H1 2058   5.458   0.219   3.206
  698TIP3    H2 2059   5.359   0.269   3.309
  699TIP3   OH2 2060   2.100   3.896   1.468
  699TIP3    H1 2061   2.085   3.823   1.408
  699TIP3    H2 2062   2.017   3.906   1.516
  700TIP3   OH2 2063   4.464   5.882   2.227
  700TIP3    H1 2064   4.385   5.935   2.234
  700TIP3    H2 2065   4.475   5.867   2.133
  701TIP3   OH2 2066   4.837   6.498   2.335
  701TIP3    H1 2067   4.907   6.437   2.313
  701TIP3    H2 2068   4.792   6.456   2.409
  702TIP3   OH2 2069   0.081   3.007   5.331
  702TIP3    H1 2070   0.143   2.988   5.402
  702TIP3    H2 2071  -0.005   3.003   5.373
  703TIP3   OH2 2072   4.320   2.454   2.823
  703TIP3    H1 2073   4.244   2.476   2.769
  703TIP3    H2 2074   4.284   2.401   2.894
  704TIP3   OH2 2075   6.756   0.537   4.361
  704TIP3    H1 2076   6.824   0.551   4.426
  704TIP3    H2 2077   6.675   0.566   4.404
  705TIP3   OH2 2078   3.415   0.472   3.791
  705TIP3    H1 2079   3.416   0.379   3.812
  705TIP3    H2 2080   3.464   0.513   3.862
  706TIP3   OH2 2081   2.455   3.522   2.782
  706TIP3    H1 2082   2.547   3.507   2.803
  706TIP3    H2 2083   2.457   3.564   2.696
  707TIP3   OH2 2084   6.731   0.124   2.144
  707TIP3    H1 2085   6.704   0.094   2.231
  707TIP3    H2 2086   6.672   0.196   2.124
  708TIP3   OH2 2087   6.657   2.572   4.468
  708TIP3    H1 2088   6.682   2.505   4.404
  708TIP3    H2 2089   6.719   2.560   4.540
  709TIP3   OH2 2090   4.550   6.669   2.968
  709TIP3    H1 2091   4.460   6.635   2.974
  709TIP3    H2 2092   4.573   6.658   2.876
  710TIP3   OH2 2093   1.236   6.533   4.597
  710TIP3    H1 2094   1.255   6.440   4.584
  710TIP3    H2 2095   1.197   6.561   4.515
  711TIP3   OH2 2096   2.544   5.356   1.321
  711TIP3    H1 2097   2.615   5.405   1.280
  711TIP3    H2 2098   2.564   5.264   1.301
  712TIP3   OH2 2099   6.962   2.501   0.730
  712TIP3    H1 2100   7.050   2.523   0.698
  712TIP3    H2 2101   6.917   2.585   0.733
  713TIP3   OH2 2102   3.396   0.286   0.861
  713TIP3    H1 2103   3.320   0.286   0.919
  713TIP3    H2 2104   3.462   0.338   0.908
  714TIP3   OH2 2105   0.542   5.440   1.909
  714TIP3    H1 2106   0.631   5.442   1.875
  714TIP3    H2 2107   0.486   5.455   1.833
  715TIP3   OH2 2108   6.079   1.958   2.925
  715TIP3    H1 2109   6.026   2.009   2.987
  715TIP3    H2 2110   6.118   2.024   2.868
  716TIP3   OH2 2111   0.341   1.944   4.669
  716TIP3    H1 2112   0.387   1.869   4.632
  716TIP3    H2 2113   0.356   2.015   4.606
  717TIP3   OH2 2114   3.874  -0.041   2.396
  717TIP3    H1 2115   3.858   0.002   2.480
  717TIP3    H2 2116   3.959  -0.007   2.368
  718TIP3   OH2 2117   3.843   3.411   2.260
  718TIP3    H1 2118   3.752   3.400   2.285
  718TIP3    H2 2119   3.889   3.423   2.343
  719TIP3   OH2 2120   5.045   4.185   1.580
  719TIP3    H1 2121   5.031   4.104   1.628
  719TIP3    H2 2122   5.053   4.252   1.648
  720TIP3   OH2 2123   5.667   6.711   1.214
  720TIP3    H1 2124   5.623   6.648   1.270
  720TIP3    H2 2125   5.653   6.678   1.125
  721TIP3   OH2 2126   4.907   4.258   4.815
  721TIP3    H1 2127   4.898   4.298   4.728
  721TIP3    H2 2128   4.961   4.319   4.864
  722TIP3   OH2 2129   0.379   5.199   2.336
  722TIP3    H1 2130   0.427   5.118   2.317
  722TIP3    H2 2131   0.379   5.247   2.254
  723TIP3   OH2 2132   5.075   5.981   5.891
  723TIP3    H1 2133   5.069   5.886   5.893
  723TIP3    H2 2134   4.987   6.010   5.867
  724TIP3   OH2 2135   0.140   4.854   0.753
  724TIP3    H1 2136   0.148   4.769   0.798
  724TIP3    H2 2137   0.216   4.857   0.695
  725TIP3   OH2 2138   3.655   2.424   1.765
  725TIP3    H1 2139   3.655   2.343   1.715
  725TIP3    H2 2140   3.678   2.492   1.701
  726TIP3   OH2 2141   5.162   3.538   4.313
  726TIP3    H1 2142   5.067   3.524   4.321
  726TIP3    H2 2143   5.172   3.633   4.318
  727TIP3   OH2 2144   4.298   0.387   5.089
  727TIP3    H1 2145   4.308   0.372   5.183
  727TIP3    H2 2146   4.208   0.360   5.071
  728TIP3   OH2 2147   0.620   0.915   5.082
  728TIP3    H1 2148   0.528   0.913   5.110
  728TIP3    H2 2149   0.656   0.993   5.123
  729TIP3   OH2 2150   5.572   5.912   4.999
  729TIP3    H1 2151   5.567   5.866   5.083
  729TIP3    H2 2152   5.611   5.849   4.939
  730TIP3   OH2 2153   5.972   6.183   1.840
  730TIP3    H1 2154   6.021   6.129   1.778
  730TIP3    H2 2155   6.036   6.245   1.874
  731TIP3   OH2 2156   4.344   0.453   3.512
  731TIP3    H1 2157   4.334   0.387   3.580
  731TIP3    H2 2158   4.343   0.404   3.430
  732TIP3   OH2 2159   2.128   1.547   2.278
  732TIP3    H1 2160   2.166   1.459   2.281
  732TIP3    H2 2161   2.034   1.533   2.271
  733TIP3   OH2 2162   0.230   6.129   2.997
  733TIP3    H1 2163   0.315   6.138   2.955
  733TIP3    H2 2164   0.247   6.078   3.076
  734TIP3   OH2 2165   3.441   4.624   1.892
  734TIP3    H1 2166   3.471   4.579   1.812
  734TIP3    H2 2167   3.432   4.715   1.866
  735TIP3   OH2 2168   2.772   1.613   2.106
  735TIP3    H1 2169   2.860   1.579   2.119
  735TIP3    H2 2170   2.778   1.705   2.130
  736TIP3   OH2 2171   1.380   5.675   0.548
  736TIP3    H1 2172   1.408   5.767   0.542
  736TIP3    H2 2173   1.357   5.663   0.640
  737TIP3   OH2 2174   3.391   5.724   3.110
  737TIP3    H1 2175   3.416   5.646   3.160
  737TIP3    H2 2176   3.315   5.697   3.059
  738TIP3   OH2 2177   2.366   3.067   2.241
  738TIP3    H1 2178   2.313   3.081   2.319
  738TIP3    H2 2179   2.346   2.977   2.214
  739TIP3   OH2 2180   3.379   3.883   4.246
  739TIP3    H1 2181   3.469   3.854   4.231
  739TIP3    H2 2182   3.360   3.942   4.173
  740TIP3   OH2 2183   3.206   4.840   5.501
  740TIP3    H1 2184   3.197   4.899   5.426
  740TIP3    H2 2185   3.260   4.889   5.564
  741TIP3   OH2 2186   5.663   3.127   4.716
  741TIP3    H1 2187   5.711   3.117   4.633
  741TIP3    H2 2188   5.575   3.096   4.696
  742TIP3   OH2 2189   1.711   5.545   5.497
  742TIP3    H1 2190   1.677   5.481   5.560
  742TIP3    H2 2191   1.722   5.625   5.549
  743TIP3   OH2 2192   1.852   0.532   1.336
  743TIP3    H1 2193   1.873   0.456   1.390
  743TIP3    H2 2194   1.870   0.607   1.392
  744TIP3   OH2 2195   6.108   3.776   3.438
  744TIP3    H1 2196   6.042   3.734   3.492
  744TIP3    H2 2197   6.093   3.741   3.350
  745TIP3   OH2 2198   0.140   3.324   2.892
  745TIP3    H1 2199   0.070   3.360   2.946
  745TIP3    H2 2200   0.184   3.401   2.856
  746TIP3   OH2 2201   2.671   3.121   4.327
  746TIP3    H1 2202   2.746   3.063   4.340
  746TIP3    H2 2203   2.704   3.190   4.270
  747TIP3   OH2 2204   2.841   1.733   4.597
  747TIP3    H1 2205   2.769   1.783   4.636
  747TIP3    H2 2206   2.896   1.798   4.554
  748TIP3   OH2 2207   5.831   5.854   1.986
  748TIP3    H1 2208   5.784   5.917   1.932
  748TIP3    H2 2209   5.765   5.791   2.013
  749TIP3   OH2 2210   0.803   2.610   0.346
  749TIP3    H1 2211   0.714   2.616   0.313
  749TIP3    H2 2212   0.795   2.624   0.440
  750TIP3   OH2 2213   5.612   6.230   4.605
  750TIP3    H1 2214   5.562   6.218   4.686
  750TIP3    H2 2215   5.654   6.316   4.615
  751TIP3   OH2 2216   5.061   6.134   2.436
  751TIP3    H1 2217   5.129   6.200   2.427
  751TIP3    H2 2218   5.095   6.073   2.501
  752TIP3   OH2 2219   5.248   0.868   4.260
  752TIP3    H1 2220   5.271   0.938   4.200
  752TIP3    H2 2221   5.330   0.822   4.277
  753TIP3   OH2 2222   6.558   4.765   0.548
  753TIP3    H1 2223   6.539   4.697   0.613
  753TIP3    H2 2224   6.628   4.816   0.587
  754TIP3   OH2 2225   2.739   4.994   5.380
  754TIP3    H1 2226   2.658   5.033   5.349
  754TIP3    H2 2227   2.746   4.911   5.332
  755TIP3   OH2 2228   1.390   3.174   3.193
  755TIP3    H1 2229   1.463   3.134   3.240
  755TIP3    H2 2230   1.429   3.216   3.117
  756TIP3   OH2 2231   1.991   4.572   3.967
  756TIP3    H1 2232   2.056   4.502   3.963
  756TIP3    H2 2233   1.981   4.591   4.060
  757TIP3   OH2 2234   4.822   6.023   4.340
  757TIP3    H1 2235   4.786   6.096   4.391
  757TIP3    H2 2236   4.888   5.984   4.398
  758TIP3   OH2 2237   4.890   1.468   1.162
  758TIP3    H1 2238   4.935   1.410   1.101
  758TIP3    H2 2239   4.951   1.478   1.236
  759TIP3   OH2 2240   6.535   1.728   4.829
  759TIP3    H1 2241   6.538   1.653   4.770
  759TIP3    H2 2242   6.442   1.739   4.851
  760TIP3   OH2 2243   3.970   0.375   5.646
  760TIP3    H1 2244   3.912   0.298   5.645
  760TIP3    H2 2245   4.055   0.341   5.618
  761TIP3   OH2 2246   3.075   3.670   1.453
  761TIP3    H1 2247   3.104   3.679   1.362
  761TIP3    H2 2248   3.046   3.579   1.460
  762TIP3   OH2 2249   1.054   5.473   5.318
  762TIP3    H1 2250   1.088   5.404   5.262
  762TIP3    H2 2251   1.028   5.543   5.257
  763TIP3   OH2 2252   3.345   4.076   3.803
  763TIP3    H1 2253   3.252   4.084   3.785
  763TIP3    H2 2254   3.373   4.165   3.824
  764TIP3   OH2 2255   2.004   0.397   1.885
  764TIP3    H1 2256   2.076   0.440   1.931
  764TIP3    H2 2257   1.926   0.419   1.937
  765TIP3   OH2 2258   4.865   0.696   2.120
  765TIP3    H1 2259   4.862   0.731   2.030
  765TIP3    H2 2260   4.782   0.650   2.131
  766TIP3   OH2 2261   1.953   4.294   2.098
  766TIP3    H1 2262   1.929   4.383   2.073
  766TIP3    H2 2263   2.041   4.281   2.063
  767TIP3   OH2 2264   0.793   1.296   1.749
  767TIP3    H1 2265   0.756   1.219   1.793
  767TIP3    H2 2266   0.840   1.260   1.674
  768TIP3   OH2 2267   0.249   1.952   1.543
  768TIP3    H1 2268   0.300   1.913   1.615
  768TIP3    H2 2269   0.290   2.037   1.528
  769TIP3   OH2 2270   0.069   6.219   5.698
  769TIP3    H1 2271   0.006   6.226   5.627
  769TIP3    H2 2272   0.065   6.127   5.724
  770TIP3   OH2 2273   4.601   6.779   4.950
  770TIP3    H1 2274   4.654   6.734   5.015
  770TIP3    H2 2275   4.518   6.730   4.948
  771TIP3   OH2 2276   6.605   6.420   4.672
  771TIP3    H1 2277   6.664   6.353   4.704
  771TIP3    H2 2278   6.632   6.500   4.718
  772TIP3   OH2 2279   5.767   1.923   2.812
  772TIP3    H1 2280   5.810   1.845   2.848
  772TIP3    H2 2281   5.717   1.958   2.886
  773TIP3   OH2 2282   4.369   4.232   4.163
  773TIP3    H1 2283   4.422   4.308   4.187
  773TIP3    H2 2284   4.402   4.161   4.219
  774TIP3   OH2 2285   4.671   0.745   3.253
  774TIP3    H1 2286   4.609   0.747   3.326
  774TIP3    H2 2287   4.627   0.793   3.183
  775TIP3   OH2 2288   3.631   1.288   5.460
  775TIP3    H1 2289   3.553   1.235   5.479
  775TIP3    H2 2290   3.596   1.365   5.415
  776TIP3   OH2 2291   4.127   1.220   0.291
  776TIP3    H1 2292   4.095   1.255   0.375
  776TIP3    H2 2293   4.196   1.282   0.265
  777TIP3   OH2 2294   6.349   0.681   3.332
  777TIP3    H1 2295   6.396   0.764   3.345
  777TIP3    H2 2296   6.354   0.637   3.416
  778TIP3   OH2 2297   1.898   5.133   5.075
  778TIP3    H1 2298   1.925   5.202   5.014
  778TIP3    H2 2299   1.818   5.167   5.115
  779TIP3   OH2 2300   5.732   1.865   2.241
  779TIP3    H1 2301   5.760   1.794   2.299
  779TIP3    H2 2302   5.796   1.865   2.170
  780TIP3   OH2 2303   6.861   4.291   1.038
  780TIP3    H1 2304   6.771   4.323   1.042
  780TIP3    H2 2305   6.888   4.284   1.129
  781TIP3   OH2 2306   2.600   5.109   3.376
  781TIP3    H1 2307   2.640   5.025   3.397
  781TIP3    H2 2308   2.671   5.160   3.335
  782TIP3   OH2 2309   5.604   4.808   2.917
  782TIP3    H1 2310   5.646   4.805   3.003
  782TIP3    H2 2311   5.596   4.902   2.898
  783TIP3   OH2 2312   4.175   6.357   5.421
  783TIP3    H1 2313   4.129   6.274   5.406
  783TIP3    H2 2314   4.240   6.362   5.351
  784TIP3   OH2 2315   2.125   3.972   3.309
  784TIP3    H1 2316   2.087   4.053   3.343
  784TIP3    H2 2317   2.173   3.935   3.383
  785TIP3   OH2 2318   0.204   2.669   1.680
  785TIP3    H1 2319   0.130   2.622   1.643
  785TIP3    H2 2320   0.190   2.666   1.775
  786TIP3   OH2 2321   2.693   2.417   3.376
  786TIP3    H1 2322   2.640   2.391   3.300
  786TIP3    H2 2323   2.745   2.491   3.344
  787TIP3   OH2 2324   5.311   2.396   4.500
  787TIP3    H1 2325   5.341   2.482   4.470
  787TIP3    H2 2326   5.247   2.415   4.568
  788TIP3   OH2 2327   5.983   4.209   0.413
  788TIP3    H1 2328   6.004   4.297   0.385
  788TIP3    H2 2329   6.067   4.170   0.437
  789TIP3   OH2 2330   6.152   4.610   3.772
  789TIP3    H1 2331   6.102   4.657   3.839
  789TIP3    H2 2332   6.242   4.641   3.783
  790TIP3   OH2 2333   3.886   4.700   0.570
  790TIP3    H1 2334   3.974   4.716   0.537
  790TIP3    H2 2335   3.847   4.641   0.506
  791TIP3   OH2 2336   5.865   0.617   1.511
  791TIP3    H1 2337   5.938   0.602   1.451
  791TIP3    H2 2338   5.837   0.707   1.493
  792TIP3   OH2 2339   5.658   1.633   4.018
  792TIP3    H1 2340   5.612   1.587   4.087
  792TIP3    H2 2341   5.622   1.721   4.019
  793TIP3   OH2 2342   4.831   3.528   1.654
  793TIP3    H1 2343   4.750   3.513   1.605
  793TIP3    H2 2344   4.808   3.510   1.745
  794TIP3   OH2 2345   3.149   2.722   5.544
  794TIP3    H1 2346   3.223   2.781   5.558
  794TIP3    H2 2347   3.073   2.773   5.571
  795TIP3   OH2 2348   6.073   1.936   1.501
  795TIP3    H1 2349   6.038   1.873   1.438
  795TIP3    H2 2350   6.119   2.000   1.447
  796TIP3   OH2 2351   1.032   5.086   1.081
  796TIP3    H1 2352   0.973   5.122   1.147
  796TIP3    H2 2353   1.020   4.991   1.088
  797TIP3   OH2 2354   5.346   1.147   1.423
  797TIP3    H1 2355   5.370   1.238   1.404
  797TIP3    H2 2356   5.283   1.153   1.495
  798TIP3   OH2 2357   1.186   2.461   5.577
  798TIP3    H1 2358   1.280   2.455   5.593
  798TIP3    H2 2359   1.149   2.480   5.663
  799TIP3   OH2 2360   4.207   2.662   0.415
  799TIP3    H1 2361   4.257   2.626   0.488
  799TIP3    H2 2362   4.137   2.598   0.400
  800TIP3   OH2 2363   2.408   4.529   2.850
  800TIP3    H1 2364   2.353   4.452   2.865
  800TIP3    H2 2365   2.402   4.579   2.931
  801TIP3   OH2 2366   1.386   5.305   5.830
  801TIP3    H1 2367   1.398   5.250   5.907
  801TIP3    H2 2368   1.292   5.304   5.813
  802TIP3   OH2 2369   6.998   0.820   2.498
  802TIP3    H1 2370   6.968   0.759   2.430
  802TIP3    H2 2371   6.969   0.906   2.466
  803TIP3   OH2 2372   6.202   6.716   4.235
  803TIP3    H1 2373   6.281   6.665   4.249
  803TIP3    H2 2374   6.173   6.741   4.323
  804TIP3   OH2 2375   1.784   5.537   5.227
  804TIP3    H1 2376   1.746   5.547   5.314
  804TIP3    H2 2377   1.732   5.468   5.186
  805TIP3   OH2 2378   3.828   6.535   2.858
  805TIP3    H1 2379   3.768   6.465   2.883
  805TIP3    H2 2380   3.912   6.491   2.844
  806TIP3   OH2 2381   4.303   4.509   2.874
  806TIP3    H1 2382   4.395   4.512   2.900
  806TIP3    H2 2383   4.259   4.465   2.946
  807TIP3   OH2 2384   5.644   3.031   2.550
  807TIP3    H1 2385   5.727   3.067   2.581
  807TIP3    H2 2386   5.579   3.099   2.568
  808TIP3   OH2 2387   2.691   0.746   3.641
  808TIP3    H1 2388   2.734   0.699   3.713
  808TIP3    H2 2389   2.678   0.679   3.574
  809TIP3   OH2 2390   1.692   0.146   1.197
  809TIP3    H1 2391   1.718   0.089   1.270
  809TIP3    H2 2392   1.602   0.121   1.177
  810TIP3   OH2 2393   3.450   3.766   0.737
  810TIP3    H1 2394   3.363   3.761   0.698
  810TIP3    H2 2395   3.496   3.688   0.705
  811TIP3   OH2 2396   0.507   0.572   0.253
  811TIP3    H1 2397   0.596   0.574   0.288
  811TIP3    H2 2398   0.513   0.617   0.169
  812TIP3   OH2 2399   1.105   6.370   5.632
  812TIP3    H1 2400   1.028   6.356   5.687
  812TIP3    H2 2401   1.130   6.461   5.649
  813TIP3   OH2 2402   2.551   6.550   5.467
  813TIP3    H1 2403   2.615   6.488   5.433
  813TIP3    H2 2404   2.510   6.506   5.541
  814TIP3   OH2 2405   0.178   0.818   2.192
  814TIP3    H1 2406   0.137   0.821   2.105
  814TIP3    H2 2407   0.172   0.726   2.218
  815TIP3   OH2 2408   3.004   1.222   0.545
  815TIP3    H1 2409   3.055   1.156   0.498
  815TIP3    H2 2410   2.922   1.178   0.566
  816TIP3   OH2 2411   7.097   2.444   3.522
  816TIP3    H1 2412   7.136   2.472   3.605
  816TIP3    H2 2413   7.007   2.476   3.525
  817TIP3   OH2 2414   4.942   1.320   4.834
  817TIP3    H1 2415   4.997   1.275   4.899
  817TIP3    H2 2416   4.937   1.410   4.866
  818TIP3   OH2 2417   3.268   2.925   5.305
  818TIP3    H1 2418   3.297   2.984   5.236
  818TIP3    H2 2419   3.317   2.844   5.290
  819TIP3   OH2 2420   3.010   0.121   0.060
  819TIP3    H1 2421   3.034   0.210   0.086
  819TIP3    H2 2422   3.093   0.078   0.042
  820TIP3   OH2 2423   3.324   6.589   2.564
  820TIP3    H1 2424   3.396   6.651   2.575
  820TIP3    H2 2425   3.353   6.529   2.496
  821TIP3   OH2 2426   6.160   3.056   1.692
  821TIP3    H1 2427   6.245   3.071   1.733
  821TIP3    H2 2428   6.114   3.000   1.754
  822TIP3   OH2 2429   1.222   2.407   1.189
  822TIP3    H1 2430   1.264   2.321   1.192
  822TIP3    H2 2431   1.145   2.398   1.246
  823TIP3   OH2 2432   1.770   4.419   5.681
  823TIP3    H1 2433   1.791   4.480   5.752
  823TIP3    H2 2434   1.851   4.413   5.630
  824TIP3   OH2 2435   7.205   5.360   1.974
  824TIP3    H1 2436   7.184   5.276   1.932
  824TIP3    H2 2437   7.168   5.352   2.062
  825TIP3   OH2 2438   2.895   0.727   3.248
  825TIP3    H1 2439   2.990   0.734   3.260
  825TIP3    H2 2440   2.871   0.802   3.194
  826TIP3   OH2 2441   2.384   0.603   3.458
  826TIP3    H1 2442   2.473   0.608   3.423
  826TIP3    H2 2443   2.328   0.599   3.381
  827TIP3   OH2 2444   3.662   3.288   0.710
  827TIP3    H1 2445   3.695   3.285   0.620
  827TIP3    H2 2446   3.661   3.196   0.738
  828TIP3   OH2 2447   6.072   2.616   1.957
  828TIP3    H1 2448   6.048   2.618   1.864
  828TIP3    H2 2449   6.102   2.526   1.972
  829TIP3   OH2 2450   2.723   1.008   4.360
  829TIP3    H1 2451   2.717   1.082   4.420
  829TIP3    H2 2452   2.744   0.933   4.416
  830TIP3   OH2 2453   2.296   2.313   0.735
  830TIP3    H1 2454   2.203   2.291   0.738
  830TIP3    H2 2455   2.330   2.266   0.660
  831TIP3   OH2 2456   0.281   0.794   5.815
  831TIP3    H1 2457   0.192   0.783   5.846
  831TIP3    H2 2458   0.296   0.718   5.758
  832TIP3   OH2 2459   6.084   1.992   5.044
  832TIP3    H1 2460   6.011   1.957   4.992
  832TIP3    H2 2461   6.160   1.941   5.015
  833TIP3   OH2 2462   4.110   2.921   0.037
  833TIP3    H1 2463   4.168   2.887   0.104
  833TIP3    H2 2464   4.025   2.931   0.081
  834TIP3   OH2 2465   1.365   1.129   1.806
  834TIP3    H1 2466   1.338   1.193   1.872
  834TIP3    H2 2467   1.439   1.084   1.846
  835TIP3   OH2 2468   1.090   1.128   4.658
  835TIP3    H1 2469   1.169   1.182   4.661
  835TIP3    H2 2470   1.091   1.079   4.740
  836TIP3   OH2 2471   3.358   0.400   3.178
  836TIP3    H1 2472   3.331   0.406   3.086
  836TIP3    H2 2473   3.398   0.484   3.197
  837TIP3   OH2 2474   5.764   5.099   2.417
  837TIP3    H1 2475   5.772   5.085   2.323
  837TIP3    H2 2476   5.729   5.017   2.451
  838TIP3   OH2 2477   0.665   5.546   1.482
  838TIP3    H1 2478   0.621   5.614   1.431
  838TIP3    H2 2479   0.618   5.466   1.462
  839TIP3   OH2 2480   3.010   6.580   2.675
  839TIP3    H1 2481   3.074   6.550   2.610
  839TIP3    H2 2482   3.062   6.632   2.736
  840TIP3   OH2 2483   4.993   3.583   3.993
  840TIP3    H1 2484   5.017   3.492   4.011
  840TIP3    H2 2485   4.994   3.625   4.079
  841TIP3   OH2 2486   5.788   0.981   5.602
  841TIP3    H1 2487   5.845   0.904   5.601
  841TIP3    H2 2488   5.736   0.974   5.523
  842TIP3   OH2 2489   1.026   6.266   1.168
  842TIP3    H1 2490   0.971   6.262   1.090
  842TIP3    H2 2491   0.970   6.233   1.238
  843TIP3   OH2 2492   1.842   0.021   0.635
  843TIP3    H1 2493   1.791   0.078   0.693
  843TIP3    H2 2494   1.884  -0.042   0.694
  844TIP3   OH2 2495   4.232   1.088   2.425
  844TIP3    H1 2496   4.216   1.029   2.499
  844TIP3    H2 2497   4.312   1.135   2.449
  845TIP3   OH2 2498   3.342   1.157   1.859
  845TIP3    H1 2499   3.381   1.140   1.945
  845TIP3    H2 2500   3.404   1.215   1.816
  846TIP3   OH2 2501   7.064   4.736   1.790
  846TIP3    H1 2502   7.136   4.744   1.852
  846TIP3    H2 2503   7.105   4.732   1.704
  847TIP3   OH2 2504   3.175   3.930   5.355
  847TIP3    H1 2505   3.203   3.970   5.437
  847TIP3    H2 2506   3.085   3.961   5.343
  848TIP3   OH2 2507   5.397   5.921   3.700
  848TIP3    H1 2508   5.432   5.833   3.717
  848TIP3    H2 2509   5.446   5.978   3.759
  849TIP3   OH2 2510   1.741   2.211   5.263
  849TIP3    H1 2511   1.787   2.127   5.259
  849TIP3    H2 2512   1.654   2.192   5.229
  850TIP3   OH2 2513   5.759   1.368   3.984
  850TIP3    H1 2514   5.769   1.463   3.975
  850TIP3    H2 2515   5.739   1.355   4.076
  851TIP3   OH2 2516   1.133   6.030   0.807
  851TIP3    H1 2517   1.095   5.997   0.889
  851TIP3    H2 2518   1.063   6.021   0.743
  852TIP3   OH2 2519   7.120   3.499   5.317
  852TIP3    H1 2520   7.134   3.589   5.287
  852TIP3    H2 2521   7.206   3.470   5.348
  853TIP3   OH2 2522   0.178   4.918   0.378
  853TIP3    H1 2523   0.196   5.011   0.369
  853TIP3    H2 2524   0.245   4.875   0.325
  854TIP3   OH2 2525   2.129   2.912   1.894
  854TIP3    H1 2526   2.073   2.882   1.822
  854TIP3    H2 2527   2.135   3.007   1.883
  855TIP3   OH2 2528   0.356   5.746   2.268
  855TIP3    H1 2529   0.418   5.736   2.340
  855TIP3    H2 2530   0.343   5.657   2.235
  856TIP3   OH2 2531   6.427   6.123   1.783
  856TIP3    H1 2532   6.508   6.163   1.815
  856TIP3    H2 2533   6.369   6.197   1.766
  857TIP3   OH2 2534   4.824   6.244   2.511
  857TIP3    H1 2535   4.911   6.214   2.483
  857TIP3    H2 2536   4.763   6.188   2.464
  858TIP3   OH2 2537   5.345   1.080   4.109
  858TIP3    H1 2538   5.399   1.121   4.177
  858TIP3    H2 2539   5.408   1.053   4.042
  859TIP3   OH2 2540   3.628   1.348   1.056
  859TIP3    H1 2541   3.568   1.282   1.021
  859TIP3    H2 2542   3.573   1.426   1.069
  860TIP3   OH2 2543   3.765   3.219   4.885
  860TIP3    H1 2544   3.753   3.262   4.800
  860TIP3    H2 2545   3.735   3.283   4.949
  861TIP3   OH2 2546   2.345   3.190   3.182
  861TIP3    H1 2547   2.318   3.256   3.118
  861TIP3    H2 2548   2.272   3.186   3.243
  862TIP3   OH2 2549   4.274   2.606   2.179
  862TIP3    H1 2550   4.230   2.689   2.161
  862TIP3    H2 2551   4.340   2.627   2.245
  863TIP3   OH2 2552   0.822   0.293   4.092
  863TIP3    H1 2553   0.883   0.331   4.029
  863TIP3    H2 2554   0.828   0.351   4.168
  864TIP3   OH2 2555   0.929   0.653   0.099
  864TIP3    H1 2556   0.899   0.645   0.189
  864TIP3    H2 2557   1.023   0.664   0.105
  865TIP3   OH2 2558   2.108   0.544   2.292
  865TIP3    H1 2559   2.190   0.513   2.254
  865TIP3    H2 2560   2.083   0.618   2.236
  866TIP3   OH2 2561   2.097   3.849   1.915
  866TIP3    H1 2562   2.145   3.818   1.838
  866TIP3    H2 2563   2.161   3.904   1.962
  867TIP3   OH2 2564   5.532   5.081   2.921
  867TIP3    H1 2565   5.473   5.144   2.880
  867TIP3    H2 2566   5.551   5.118   3.007
  868TIP3   OH2 2567   4.265   3.065   2.937
  868TIP3    H1 2568   4.261   3.159   2.954
  868TIP3    H2 2569   4.175   3.042   2.913
  869TIP3   OH2 2570   0.233   1.105   1.829
  869TIP3    H1 2571   0.254   1.027   1.779
  869TIP3    H2 2572   0.313   1.158   1.827
  870TIP3   OH2 2573   0.526   0.382   0.530
  870TIP3    H1 2574   0.545   0.290   0.545
  870TIP3    H2 2575   0.557   0.400   0.441
  871TIP3   OH2 2576   4.809   0.361   4.380
  871TIP3    H1 2577   4.797   0.351   4.474
  871TIP3    H2 2578   4.901   0.386   4.370
  872TIP3   OH2 2579   3.367   5.407   0.543
  872TIP3    H1 2580   3.379   5.363   0.627
  872TIP3    H2 2581   3.307   5.351   0.494
  873TIP3   OH2 2582   1.122   1.079   2.058
  873TIP3    H1 2583   1.170   1.151   2.017
  873TIP3    H2 2584   1.030   1.096   2.034
  874TIP3   OH2 2585   4.970   3.380   2.678
  874TIP3    H1 2586   4.998   3.452   2.620
  874TIP3    H2 2587   4.874   3.383   2.673
  875TIP3   OH2 2588   6.462   2.552   4.255
  875TIP3    H1 2589   6.420   2.636   4.235
  875TIP3    H2 2590   6.486   2.559   4.348
  876TIP3   OH2 2591   0.276   2.051   2.327
  876TIP3    H1 2592   0.259   2.137   2.287
  876TIP3    H2 2593   0.327   2.004   2.261
  877TIP3   OH2 2594   1.633   3.065   2.069
  877TIP3    H1 2595   1.727   3.079   2.079
  877TIP3    H2 2596   1.621   3.043   1.977
  878TIP3   OH2 2597   2.715   0.454   3.973
  878TIP3    H1 2598   2.727   0.381   4.034
  878TIP3    H2 2599   2.742   0.418   3.888
  879TIP3   OH2 2600   4.681   3.089   1.501
  879TIP3    H1 2601   4.625   3.132   1.566
  879TIP3    H2 2602   4.640   3.108   1.417
  880TIP3   OH2 2603   3.887   1.353   5.334
  880TIP3    H1 2604   3.968   1.311   5.365
  880TIP3    H2 2605   3.820   1.324   5.395
  881TIP3   OH2 2606   5.831   2.126   4.045
  881TIP3    H1 2607   5.830   2.126   4.141
  881TIP3    H2 2608   5.903   2.067   4.022
  882TIP3   OH2 2609   3.879   4.753   1.818
  882TIP3    H1 2610   3.973   4.738   1.827
  882TIP3    H2 2611   3.839   4.671   1.848
  883TIP3   OH2 2612   6.856   3.077   5.354
  883TIP3    H1 2613   6.928   3.018   5.376
  883TIP3    H2 2614   6.898   3.161   5.337
  884TIP3   OH2 2615   3.559   0.760   5.461
  884TIP3    H1 2616   3.587   0.812   5.386
  884TIP3    H2 2617   3.464   0.757   5.454
  885TIP3   OH2 2618   6.731   0.436   5.543
  885TIP3    H1 2619   6.745   0.526   5.513
  885TIP3    H2 2620   6.654   0.441   5.600
  886TIP3   OH2 2621   2.180   5.922   2.067
  886TIP3    H1 2622   2.121   5.997   2.072
  886TIP3    H2 2623   2.249   5.950   2.007
  887TIP3   OH2 2624   5.272   1.996   2.364
  887TIP3    H1 2625   5.236   1.908   2.352
  887TIP3    H2 2626   5.260   2.013   2.457
  888TIP3   OH2 2627   0.954   4.380   2.041
  888TIP3    H1 2628   0.927   4.458   2.089
  888TIP3    H2 2629   1.031   4.406   1.991
  889TIP3   OH2 2630   5.982   5.260   4.471
  889TIP3    H1 2631   6.048   5.209   4.424
  889TIP3    H2 2632   5.966   5.336   4.416
  890TIP3   OH2 2633   0.847   5.664   0.198
  890TIP3    H1 2634   0.844   5.682   0.104
  890TIP3    H2 2635   0.848   5.751   0.238
  891TIP3   OH2 2636   4.881   6.521   5.404
  891TIP3    H1 2637   4.847   6.600   5.446
  891TIP3    H2 2638   4.810   6.492   5.346
  892TIP3   OH2 2639   6.003   4.055   1.092
  892TIP3    H1 2640   6.089   4.066   1.052
  892TIP3    H2 2641   6.011   3.973   1.142
  893TIP3   OH2 2642   5.328   1.596   3.972
  893TIP3    H1 2643   5.401   1.546   4.007
  893TIP3    H2 2644   5.250   1.555   4.009
  894TIP3   OH2 2645   0.532   3.600   2.957
  894TIP3    H1 2646   0.507   3.606   3.049
  894TIP3    H2 2647   0.622   3.632   2.955
  895TIP3   OH2 2648   1.624   0.189   0.421
  895TIP3    H1 2649   1.719   0.177   0.418
  895TIP3    H2 2650   1.594   0.166   0.333
  896TIP3   OH2 2651   6.924   4.606   4.495
  896TIP3    H1 2652   6.910   4.512   4.498
  896TIP3    H2 2653   7.009   4.617   4.453
  897TIP3   OH2 2654   7.206   2.628   3.689
  897TIP3    H1 2655   7.265   2.636   3.614
  897TIP3    H2 2656   7.178   2.717   3.707
  898TIP3   OH2 2657   6.740   0.865   1.345
  898TIP3    H1 2658   6.758   0.872   1.251
  898TIP3    H2 2659   6.696   0.781   1.356
  899TIP3   OH2 2660   6.159   6.266   5.857
  899TIP3    H1 2661   6.195   6.336   5.802
  899TIP3    H2 2662   6.139   6.310   5.940
  900TIP3   OH2 2663   5.615   2.009   0.887
  900TIP3    H1 2664   5.630   2.097   0.923
  900TIP3    H2 2665   5.614   1.952   0.963
  901TIP3   OH2 2666   3.739   6.474   3.215
  901TIP3    H1 2667   3.741   6.386   3.252
  901TIP3    H2 2668   3.655   6.511   3.244
  902TIP3   OH2 2669   3.820   2.915   1.222
  902TIP3    H1 2670   3.789   2.994   1.179
  902TIP3    H2 2671   3.807   2.931   1.316
  903TIP3   OH2 2672   4.206   6.347   3.862
  903TIP3    H1 2673   4.165   6.301   3.935
  903TIP3    H2 2674   4.275   6.399   3.902
  904TIP3   OH2 2675   3.530   2.375   0.900
  904TIP3    H1 2676   3.514   2.469   0.890
  904TIP3    H2 2677   3.446   2.340   0.930
  905TIP3   OH2 2678   5.931   2.921   5.776
  905TIP3    H1 2679   5.937   2.984   5.705
  905TIP3    H2 2680   5.947   2.836   5.734
  906TIP3   OH2 2681   6.447   0.281   0.472
  906TIP3    H1 2682   6.475   0.371   0.455
  906TIP3    H2 2683   6.501   0.227   0.414
  907TIP3   OH2 2684   4.323   2.448   0.565
  907TIP3    H1 2685   4.292   2.404   0.644
  907TIP3    H2 2686   4.410   2.412   0.550
  908TIP3   OH2 2687   4.683   4.143   3.283
  908TIP3    H1 2688   4.688   4.231   3.319
  908TIP3    H2 2689   4.735   4.090   3.343
  909TIP3   OH2 2690   4.692   2.965   4.931
  909TIP3    H1 2691   4.612   2.963   4.879
  909TIP3    H2 2692   4.666   2.932   5.017
  910TIP3   OH2 2693   5.322   3.300   4.757
  910TIP3    H1 2694   5.284   3.217   4.786
  910TIP3    H2 2695   5.251   3.364   4.766
  911TIP3   OH2 2696   0.856   5.072   1.862
  911TIP3    H1 2697   0.800   5.138   1.903
  911TIP3    H2 2698   0.899   5.118   1.790
  912TIP3   OH2 2699   1.003   1.848   5.615
  912TIP3    H1 2700   1.069   1.908   5.650
  912TIP3    H2 2701   0.982   1.791   5.689
  913TIP3   OH2 2702   5.009   1.755   4.086
  913TIP3    H1 2703   4.993   1.846   4.060
  913TIP3    H2 2704   5.004   1.705   4.005
  914TIP3   OH2 2705   5.208   2.185   2.618
  914TIP3    H1 2706   5.219   2.257   2.679
  914TIP3    H2 2707   5.137   2.132   2.655
  915TIP3   OH2 2708   0.965   1.309   2.655
  915TIP3    H1 2709   0.937   1.399   2.669
  915TIP3    H2 2710   0.919   1.259   2.723
  916TIP3   OH2 2711   3.644   1.196   2.618
  916TIP3    H1 2712   3.634   1.247   2.538
  916TIP3    H2 2713   3.705   1.247   2.671
  917TIP3   OH2 2714   1.992   1.990   5.110
  917TIP3    H1 2715   2.037   2.014   5.028
  917TIP3    H2 2716   1.929   1.924   5.084
  918TIP3   OH2 2717   5.468   2.901   4.635
  918TIP3    H1 2718   5.513   2.880   4.553
  918TIP3    H2 2719   5.400   2.964   4.611
  919TIP3   OH2 2720   4.683   4.093   4.798
  919TIP3    H1 2721   4.756   4.154   4.792
  919TIP3    H2 2722   4.723   4.010   4.824
  920TIP3   OH2 2723   1.085   3.880   5.144
  920TIP3    H1 2724   1.025   3.919   5.080
  920TIP3    H2 2725   1.110   3.797   5.105
  921TIP3   OH2 2726   0.260   5.719   4.058
  921TIP3    H1 2727   0.333   5.678   4.105
  921TIP3    H2 2728   0.240   5.797   4.109
  922TIP3   OH2 2729   1.401   4.575   1.478
  922TIP3    H1 2730   1.334   4.565   1.545
  922TIP3    H2 2731   1.481   4.595   1.526
  923TIP3   OH2 2732   2.697   3.904   3.856
  923TIP3    H1 2733   2.652   3.867   3.780
  923TIP3    H2 2734   2.680   3.841   3.926
  924TIP3   OH2 2735   5.297   1.307   1.857
  924TIP3    H1 2736   5.248   1.389   1.862
  924TIP3    H2 2737   5.350   1.305   1.936
  925TIP3   OH2 2738   1.095   4.565   3.979
  925TIP3    H1 2739   1.075   4.473   3.961
  925TIP3    H2 2740   1.068   4.578   4.070
  926TIP3   OH2 2741   6.587   1.046   4.894
  926TIP3    H1 2742   6.515   0.983   4.885
  926TIP3    H2 2743   6.549   1.129   4.865
  927TIP3   OH2 2744   6.171   2.271   1.458
  927TIP3    H1 2745   6.250   2.222   1.483
  927TIP3    H2 2746   6.146   2.234   1.373
  928TIP3   OH2 2747   3.234   0.852   1.820
  928TIP3    H1 2748   3.206   0.905   1.746
  928TIP3    H2 2749   3.221   0.909   1.897
  929TIP3   OH2 2750   6.223   3.031   5.701
  929TIP3    H1 2751   6.202   3.049   5.610
  929TIP3    H2 2752   6.286   3.099   5.725
  930TIP3   OH2 2753   5.449   3.900   3.929
  930TIP3    H1 2754   5.535   3.885   3.889
  930TIP3    H2 2755   5.435   3.824   3.985
  931TIP3   OH2 2756   3.557   0.178   3.456
  931TIP3    H1 2757   3.547   0.084   3.469
  931TIP3    H2 2758   3.584   0.186   3.364
  932TIP3   OH2 2759   4.409   1.499   2.919
  932TIP3    H1 2760   4.373   1.421   2.962
  932TIP3    H2 2761   4.358   1.507   2.838
  933TIP3   OH2 2762   6.483   0.214   2.285
  933TIP3    H1 2763   6.487   0.222   2.189
  933TIP3    H2 2764   6.422   0.283   2.312
  934TIP3   OH2 2765   0.876   1.944   2.614
  934TIP3    H1 2766   0.831   1.936   2.698
  934TIP3    H2 2767   0.940   1.873   2.614
  935TIP3   OH2 2768   4.348   4.501   5.586
  935TIP3    H1 2769   4.317   4.427   5.533
  935TIP3    H2 2770   4.321   4.578   5.538
  936TIP3   OH2 2771   5.196   6.409   2.554
  936TIP3    H1 2772   5.290   6.422   2.549
  936TIP3    H2 2773   5.160   6.461   2.482
  937TIP3   OH2 2774   4.730   3.660   2.780
  937TIP3    H1 2775   4.785   3.602   2.833
  937TIP3    H2 2776   4.653   3.607   2.760
  938TIP3   OH2 2777   1.546   4.056   5.140
  938TIP3    H1 2778   1.472   4.096   5.186
  938TIP3    H2 2779   1.608   4.128   5.128
  939TIP3   OH2 2780   2.545   3.884   0.175
  939TIP3    H1 2781   2.503   3.951   0.230
  939TIP3    H2 2782   2.524   3.801   0.218
  940TIP3   OH2 2783   0.654   1.982   2.213
  940TIP3    H1 2784   0.597   2.040   2.162
  940TIP3    H2 2785   0.614   1.980   2.300
  941TIP3   OH2 2786   2.995   6.000   3.981
  941TIP3    H1 2787   2.904   6.028   3.973
  941TIP3    H2 2788   3.022   6.033   4.066
  942TIP3   OH2 2789   7.021   5.349   2.565
  942TIP3    H1 2790   7.049   5.295   2.639
  942TIP3    H2 2791   7.069   5.315   2.490
  943TIP3   OH2 2792   0.126   1.660   5.511
  943TIP3    H1 2793   0.102   1.749   5.487
  943TIP3    H2 2794   0.141   1.616   5.428
  944TIP3   OH2 2795   6.939   5.575   3.302
  944TIP3    H1 2796   6.941   5.669   3.322
  944TIP3    H2 2797   6.936   5.571   3.206
  945TIP3   OH2 2798   3.223   4.841   0.397
  945TIP3    H1 2799   3.172   4.919   0.373
  945TIP3    H2 2800   3.167   4.793   0.457
  946TIP3   OH2 2801   5.532   1.203   1.749
  946TIP3    H1 2802   5.536   1.263   1.675
  946TIP3    H2 2803   5.447   1.222   1.790
  947TIP3   OH2 2804   0.387   3.264   0.185
  947TIP3    H1 2805   0.314   3.213   0.150
  947TIP3    H2 2806   0.378   3.255   0.280
  948TIP3   OH2 2807   4.384   1.254   4.267
  948TIP3    H1 2808   4.381   1.333   4.213
  948TIP3    H2 2809   4.427   1.283   4.348
  949TIP3   OH2 2810   1.996   1.127   2.493
  949TIP3    H1 2811   1.969   1.048   2.447
  949TIP3    H2 2812   1.921   1.186   2.484
  950TIP3   OH2 2813   1.742   3.211   3.703
  950TIP3    H1 2814   1.688   3.143   3.662
  950TIP3    H2 2815   1.739   3.285   3.642
  951TIP3   OH2 2816   2.186   4.048   4.851
  951TIP3    H1 2817   2.210   3.984   4.783
  951TIP3    H2 2818   2.255   4.039   4.917
  952TIP3   OH2 2819   4.621   5.606   4.422
  952TIP3    H1 2820   4.670   5.667   4.367
  952TIP3    H2 2821   4.631   5.522   4.378
  953TIP3   OH2 2822   4.607   1.480   3.666
  953TIP3    H1 2823   4.610   1.486   3.762
  953TIP3    H2 2824   4.520   1.445   3.648
  954TIP3   OH2 2825   2.970   3.892   4.449
  954TIP3    H1 2826   2.915   3.969   4.464
  954TIP3    H2 2827   3.058   3.921   4.473
  955TIP3   OH2 2828   5.134   0.935   3.116
  955TIP3    H1 2829   5.052   0.920   3.163
  955TIP3    H2 2830   5.120   1.017   3.069
  956TIP3   OH2 2831   4.729   2.655   0.497
  956TIP3    H1 2832   4.808   2.636   0.548
  956TIP3    H2 2833   4.749   2.626   0.409
  957TIP3   OH2 2834   0.373   1.803   2.198
  957TIP3    H1 2835   0.465   1.786   2.178
  957TIP3    H2 2836   0.363   1.777   2.289
  958TIP3   OH2 2837   6.297   2.341   3.288
  958TIP3    H1 2838   6.306   2.277   3.218
  958TIP3    H2 2839   6.383   2.382   3.295
  959TIP3   OH2 2840   1.956   5.037   5.533
  959TIP3    H1 2841   2.021   5.052   5.601
  959TIP3    H2 2842   1.943   5.122   5.492
  960TIP3   OH2 2843   2.732   5.233   3.754
  960TIP3    H1 2844   2.639   5.217   3.737
  960TIP3    H2 2845   2.764   5.270   3.672
  961TIP3   OH2 2846   6.225   0.325   5.030
  961TIP3    H1 2847   6.156   0.271   5.070
  961TIP3    H2 2848   6.246   0.389   5.097
  962TIP3   OH2 2849   6.105   4.955   5.791
  962TIP3    H1 2850   6.099   5.033   5.847
  962TIP3    H2 2851   6.188   4.966   5.744
  963TIP3   OH2 2852   5.471   1.118   5.806
  963TIP3    H1 2853   5.394   1.146   5.856
  963TIP3    H2 2854   5.495   1.034   5.844
  964TIP3   OH2 2855   4.870   3.894   4.882
  964TIP3    H1 2856   4.882   3.927   4.972
  964TIP3    H2 2857   4.937   3.940   4.831
  965TIP3   OH2 2858   6.762   4.954   4.853
  965TIP3    H1 2859   6.837   4.904   4.822
  965TIP3    H2 2860   6.776   5.042   4.818
  966TIP3   OH2 2861   5.763   3.947   4.889
  966TIP3    H1 2862   5.769   3.943   4.984
  966TIP3    H2 2863   5.760   4.041   4.869
  967TIP3   OH2 2864   1.123   4.095   3.550
  967TIP3    H1 2865   1.124   4.109   3.645
  967TIP3    H2 2866   1.033   4.071   3.530
  968TIP3   OH2 2867   2.937   2.386   2.634
  968TIP3    H1 2868   2.864   2.358   2.689
  968TIP3    H2 2869   3.002   2.316   2.641
  969TIP3   OH2 2870   0.995   1.743   4.580
  969TIP3    H1 2871   0.963   1.828   4.610
  969TIP3    H2 2872   0.935   1.719   4.509
  970TIP3   OH2 2873   5.478   3.577   2.765
  970TIP3    H1 2874   5.538   3.512   2.730
  970TIP3    H2 2875   5.393   3.555   2.727
  971TIP3   OH2 2876   7.023   6.821   1.084
  971TIP3    H1 2877   6.992   6.888   1.144
  971TIP3    H2 2878   6.984   6.740   1.117
  972TIP3   OH2 2879   2.798   0.750   5.116
  972TIP3    H1 2880   2.777   0.657   5.101
  972TIP3    H2 2881   2.726   0.782   5.169
  973TIP3   OH2 2882   4.404   2.797   2.864
  973TIP3    H1 2883   4.442   2.723   2.912
  973TIP3    H2 2884   4.384   2.862   2.932
  974TIP3   OH2 2885   6.986   6.023   0.061
  974TIP3    H1 2886   7.002   6.074   0.140
  974TIP3    H2 2887   6.915   5.963   0.085
  975TIP3   OH2 2888   6.677   3.443   1.236
  975TIP3    H1 2889   6.757   3.451   1.289
  975TIP3    H2 2890   6.606   3.455   1.299
  976TIP3   OH2 2891   3.276   2.155   1.839
  976TIP3    H1 2892   3.284   2.226   1.775
  976TIP3    H2 2893   3.182   2.141   1.847
  977TIP3   OH2 2894   0.796   4.316   4.169
  977TIP3    H1 2895   0.725   4.367   4.208
  977TIP3    H2 2896   0.754   4.265   4.100
  978TIP3   OH2 2897   4.966   5.112   1.026
  978TIP3    H1 2898   4.909   5.109   1.104
  978TIP3    H2 2899   4.909   5.144   0.956
  979TIP3   OH2 2900   4.026   4.837   2.190
  979TIP3    H1 2901   3.935   4.812   2.203
  979TIP3    H2 2902   4.028   4.931   2.206
  980TIP3   OH2 2903   0.411   6.061   4.051
  980TIP3    H1 2904   0.465   6.041   4.127
  980TIP3    H2 2905   0.321   6.051   4.082
  981TIP3   OH2 2906   4.862   1.748   5.305
  981TIP3    H1 2907   4.918   1.816   5.343
  981TIP3    H2 2908   4.855   1.771   5.213
  982TIP3   OH2 2909   2.150   1.975   0.933
  982TIP3    H1 2910   2.142   1.929   0.850
  982TIP3    H2 2911   2.119   2.064   0.915
  983TIP3   OH2 2912   5.139   4.893   2.566
  983TIP3    H1 2913   5.066   4.955   2.568
  983TIP3    H2 2914   5.142   4.856   2.654
  984TIP3   OH2 2915   3.027   4.199   2.368
  984TIP3    H1 2916   3.042   4.217   2.275
  984TIP3    H2 2917   3.114   4.186   2.405
  985TIP3   OH2 2918   6.351   6.195   5.086
  985TIP3    H1 2919   6.393   6.244   5.156
  985TIP3    H2 2920   6.411   6.205   5.011
  986TIP3   OH2 2921   6.242   3.876   0.530
  986TIP3    H1 2922   6.165   3.836   0.571
  986TIP3    H2 2923   6.276   3.936   0.596
  987TIP3   OH2 2924   1.751   6.709   0.969
  987TIP3    H1 2925   1.841   6.711   1.001
  987TIP3    H2 2926   1.756   6.744   0.880
  988TIP3   OH2 2927   6.676   4.915   3.888
  988TIP3    H1 2928   6.710   4.944   3.972
  988TIP3    H2 2929   6.588   4.955   3.883
  989TIP3   OH2 2930   5.574   4.591   2.464
  989TIP3    H1 2931   5.491   4.631   2.490
  989TIP3    H2 2932   5.604   4.547   2.543
  990TIP3   OH2 2933   5.535   0.221   2.741
  990TIP3    H1 2934   5.467   0.289   2.735
  990TIP3    H2 2935   5.615   0.264   2.709
  991TIP3   OH2 2936   4.256   5.390   0.641
  991TIP3    H1 2937   4.190   5.456   0.661
  991TIP3    H2 2938   4.340   5.434   0.655
  992TIP3   OH2 2939   4.715   3.563   0.057
  992TIP3    H1 2940   4.670   3.647   0.048
  992TIP3    H2 2941   4.739   3.538  -0.033
  993TIP3   OH2 2942   1.180   2.817   3.674
  993TIP3    H1 2943   1.256   2.800   3.730
  993TIP3    H2 2944   1.175   2.912   3.668
  994TIP3   OH2 2945   0.990   5.657   5.551
  994TIP3    H1 2946   1.069   5.703   5.522
  994TIP3    H2 2947   0.955   5.618   5.471
  995TIP3   OH2 2948   1.728   1.533   3.016
  995TIP3    H1 2949   1.789   1.485   3.072
  995TIP3    H2 2950   1.769   1.532   2.929
  996TIP3   OH2 2951   1.533   3.581   1.198
  996TIP3    H1 2952   1.478   3.514   1.157
  996TIP3    H2 2953   1.603   3.532   1.241
  997TIP3   OH2 2954   2.023   0.026   4.223
  997TIP3    H1 2955   2.092   0.057   4.282
  997TIP3    H2 2956   2.058   0.039   4.135
  998TIP3   OH2 2957   5.378   6.371   1.151
  998TIP3    H1 2958   5.464   6.363   1.109
  998TIP3    H2 2959   5.373   6.295   1.209
  999TIP3   OH2 2960   3.284   6.047   3.160
  999TIP3    H1 2961   3.312   5.994   3.234
  999TIP3    H2 2962   3.189   6.035   3.156
 1000TIP3   OH2 2963   2.846   3.845   1.202
 1000TIP3    H1 2964   2.811   3.789   1.270
 1000TIP3    H2 2965   2.823   3.934   1.230
 1001TIP3   OH2 2966   1.138   6.347   5.327
 1001TIP3    H1 2967   1.081   6.424   5.320
 1001TIP3    H2 2968   1.153   6.321   5.236
 1002TIP3   OH2 2969   2.019   3.370   0.484
 1002TIP3    H1 2970   1.995   3.456   0.448
 1002TIP3    H2 2971   2.097   3.387   0.537
 1003TIP3   OH2 2972   0.026   5.974   5.573
 1003TIP3    H1 2973  -0.012   5.913   5.637
 1003TIP3    H2 2974  -0.049   6.025   5.542
 1004TIP3   OH2 2975   4.037   1.163   5.500
 1004TIP3    H1 2976   4.002   1.205   5.578
 1004TIP3    H2 2977   4.117   1.211   5.480
 1005TIP3   OH2 2978   5.687   3.484   0.727
 1005TIP3    H1 2979   5.620   3.552   0.739
 1005TIP3    H2 2980   5.747   3.521   0.662
 1006TIP3   OH2 2981   1.507   0.845   0.156
 1006TIP3    H1 2982   1.581   0.871   0.211
 1006TIP3    H2 2983   1.457   0.925   0.143
 1007TIP3   OH2 2984   5.734   0.163   1.603
 1007TIP3    H1 2985   5.820   0.196   1.576
 1007TIP3    H2 2986   5.739   0.069   1.588
 1008TIP3   OH2 2987   0.486   6.470   2.261
 1008TIP3    H1 2988   0.469   6.428   2.345
 1008TIP3    H2 2989   0.581   6.485   2.260
 1009TIP3   OH2 2990   6.071   5.873   5.074
 1009TIP3    H1 2991   6.015   5.796   5.062
 1009TIP3    H2 2992   6.042   5.911   5.157
 1010TIP3   OH2 2993   6.410   6.686   3.202
 1010TIP3    H1 2994   6.372   6.619   3.145
 1010TIP3    H2 2995   6.337   6.717   3.255
 1011TIP3   OH2 2996   3.829   0.431   5.386
 1011TIP3    H1 2997   3.818   0.492   5.459
 1011TIP3    H2 2998   3.824   0.345   5.426
 1012TIP3   OH2 2999   4.871   6.069   3.320
 1012TIP3    H1 3000   4.865   6.082   3.225
 1012TIP3    H2 3001   4.826   5.987   3.336
 1013TIP3   OH2 3002   6.382   4.458   5.880
 1013TIP3    H1 3003   6.376   4.395   5.808
 1013TIP3    H2 3004   6.299   4.506   5.876
 1014TIP3   OH2 3005   5.886   0.305   5.084
 1014TIP3    H1 3006   5.929   0.227   5.118
 1014TIP3    H2 3007   5.803   0.310   5.132
 1015TIP3   OH2 3008   6.303   3.620   1.508
 1015TIP3    H1 3009   6.211   3.617   1.481
 1015TIP3    H2 3010   6.312   3.706   1.550
 1016TIP3   OH2 3011   3.997   1.498   0.717
 1016TIP3    H1 3012   3.917   1.550   0.710
 1016TIP3    H2 3013   3.997   1.464   0.806
 1017TIP3   OH2 3014   3.307   5.440   2.106
 1017TIP3    H1 3015   3.322   5.356   2.149
 1017TIP3    H2 3016   3.222   5.430   2.064
 1018TIP3   OH2 3017   2.877   5.195   1.546
 1018TIP3    H1 3018   2.874   5.230   1.457
 1018TIP3    H2 3019   2.969   5.169   1.558
 1019TIP3   OH2 3020   0.379   5.333   2.087
 1019TIP3    H1 3021   0.456   5.363   2.040
 1019TIP3    H2 3022   0.322   5.410   2.090
 1020TIP3   OH2 3023   5.827   4.462   0.704
 1020TIP3    H1 3024   5.812   4.411   0.783
 1020TIP3    H2 3025   5.889   4.530   0.730
 1021TIP3   OH2 3026   5.773   2.555   1.980
 1021TIP3    H1 3027   5.694   2.518   1.942
 1021TIP3    H2 3028   5.833   2.565   1.906
 1022TIP3   OH2 3029   2.880   6.509   3.595
 1022TIP3    H1 3030   2.798   6.461   3.599
 1022TIP3    H2 3031   2.858   6.597   3.626
 1023TIP3   OH2 3032   2.194   5.678   4.739
 1023TIP3    H1 3033   2.170   5.712   4.825
 1023TIP3    H2 3034   2.288   5.696   4.732
 1024TIP3   OH2 3035   3.821   1.119   5.188
 1024TIP3    H1 3036   3.818   1.197   5.244
 1024TIP3    H2 3037   3.849   1.151   5.103
 1025TIP3   OH2 3038   2.531   5.612   2.772
 1025TIP3    H1 3039   2.463   5.618   2.839
 1025TIP3    H2 3040   2.495   5.661   2.698
 1026TIP3   OH2 3041   4.511   3.288   0.955
 1026TIP3    H1 3042   4.605   3.304   0.941
 1026TIP3    H2 3043   4.508   3.212   1.013
 1027TIP3   OH2 3044   1.786   3.463   0.239
 1027TIP3    H1 3045   1.750   3.464   0.327
 1027TIP3    H2 3046   1.742   3.391   0.195
 1028TIP3   OH2 3047   2.371   2.916   4.894
 1028TIP3    H1 3048   2.311   2.845   4.917
 1028TIP3    H2 3049   2.453   2.871   4.871
 1029TIP3   OH2 3050   1.505   0.168   4.894
 1029TIP3    H1 3051   1.429   0.170   4.836
 1029TIP3    H2 3052   1.560   0.241   4.865
 1030TIP3   OH2 3053   1.194   3.047   3.374
 1030TIP3    H1 3054   1.201   3.053   3.469
 1030TIP3    H2 3055   1.272   2.999   3.347
 1031TIP3   OH2 3056   3.671   1.556   3.572
 1031TIP3    H1 3057   3.687   1.532   3.481
 1031TIP3    H2 3058   3.745   1.613   3.595
 1032TIP3   OH2 3059   4.210   2.294   2.211
 1032TIP3    H1 3060   4.191   2.357   2.140
 1032TIP3    H2 3061   4.124   2.262   2.237
 1033TIP3   OH2 3062   0.393   4.597   4.081
 1033TIP3    H1 3063   0.463   4.539   4.112
 1033TIP3    H2 3064   0.437   4.658   4.021
 1034TIP3   OH2 3065   5.457   5.078   0.374
 1034TIP3    H1 3066   5.419   5.086   0.286
 1034TIP3    H2 3067   5.385   5.098   0.433
 1035TIP3   OH2 3068   5.267   1.080   2.547
 1035TIP3    H1 3069   5.239   0.992   2.521
 1035TIP3    H2 3070   5.362   1.075   2.550
 1036TIP3   OH2 3071   3.553   6.454  -0.021
 1036TIP3    H1 3072   3.595   6.399   0.044
 1036TIP3    H2 3073   3.494   6.511   0.029
 1037TIP3   OH2 3074   6.948   2.405   0.000
 1037TIP3    H1 3075   7.028   2.457   0.004
 1037TIP3    H2 3076   6.927   2.384   0.091
 1038TIP3   OH2 3077   2.095   4.830   3.967
 1038TIP3    H1 3078   2.188   4.806   3.976
 1038TIP3    H2 3079   2.048   4.747   3.977
 1039TIP3   OH2 3080   3.898   2.640   0.033
 1039TIP3    H1 3081   3.991   2.642   0.011
 1039TIP3    H2 3082   3.862   2.718  -0.009
 1040TIP3   OH2 3083   5.219   0.681   0.839
 1040TIP3    H1 3084   5.304   0.721   0.856
 1040TIP3    H2 3085   5.159   0.725   0.899
 1041TIP3   OH2 3086   1.157   5.753   4.489
 1041TIP3    H1 3087   1.206   5.722   4.565
 1041TIP3    H2 3088   1.119   5.674   4.450
 1042TIP3   OH2 3089   4.023   0.356   5.158
 1042TIP3    H1 3090   3.960   0.357   5.086
 1042TIP3    H2 3091   4.028   0.448   5.185
 1043TIP3   OH2 3092   2.144   5.475   1.824
 1043TIP3    H1 3093   2.235   5.476   1.797
 1043TIP3    H2 3094   2.126   5.565   1.851
 1044TIP3   OH2 3095   4.515   6.705   4.157
 1044TIP3    H1 3096   4.448   6.771   4.175
 1044TIP3    H2 3097   4.478   6.623   4.190
 1045TIP3   OH2 3098   6.104   0.893   3.175
 1045TIP3    H1 3099   6.037   0.960   3.185
 1045TIP3    H2 3100   6.137   0.906   3.086
 1046TIP3   OH2 3101   1.595   6.198   5.663
 1046TIP3    H1 3102   1.559   6.156   5.742
 1046TIP3    H2 3103   1.688   6.212   5.685
 1047TIP3   OH2 3104   0.857   3.080   2.412
 1047TIP3    H1 3105   0.817   3.042   2.491
 1047TIP3    H2 3106   0.801   3.050   2.340
 1048TIP3   OH2 3107   5.397   2.625   3.583
 1048TIP3    H1 3108   5.307   2.605   3.559
 1048TIP3    H2 3109   5.392   2.710   3.628
 1049TIP3   OH2 3110   1.858   4.090   2.555
 1049TIP3    H1 3111   1.929   4.127   2.608
 1049TIP3    H2 3112   1.893   4.091   2.466
 1050TIP3   OH2 3113   3.290   2.005   0.682
 1050TIP3    H1 3114   3.366   2.064   0.682
 1050TIP3    H2 3115   3.254   2.012   0.770
 1051TIP3   OH2 3116   2.065   0.596   5.629
 1051TIP3    H1 3117   2.085   0.673   5.683
 1051TIP3    H2 3118   2.140   0.589   5.570
 1052TIP3   OH2 3119   4.857   4.772   3.435
 1052TIP3    H1 3120   4.923   4.703   3.444
 1052TIP3    H2 3121   4.812   4.773   3.520
 1053TIP3   OH2 3122   6.460   1.919   5.349
 1053TIP3    H1 3123   6.478   1.961   5.433
 1053TIP3    H2 3124   6.537   1.862   5.334
 1054TIP3   OH2 3125   4.799   4.826   0.352
 1054TIP3    H1 3126   4.733   4.758   0.367
 1054TIP3    H2 3127   4.813   4.825   0.258
 1055TIP3   OH2 3128   2.280   1.821   5.255
 1055TIP3    H1 3129   2.353   1.794   5.309
 1055TIP3    H2 3130   2.316   1.826   5.166
 1056TIP3   OH2 3131   3.354   0.964   3.889
 1056TIP3    H1 3132   3.293   0.965   3.816
 1056TIP3    H2 3133   3.438   0.939   3.851
 1057TIP3   OH2 3134   3.830   4.242   4.287
 1057TIP3    H1 3135   3.908   4.292   4.312
 1057TIP3    H2 3136   3.856   4.150   4.298
 1058TIP3   OH2 3137   3.773   5.777   0.857
 1058TIP3    H1 3138   3.786   5.822   0.940
 1058TIP3    H2 3139   3.681   5.793   0.836
 1059TIP3   OH2 3140   5.344   6.089   2.160
 1059TIP3    H1 3141   5.339   6.179   2.193
 1059TIP3    H2 3142   5.368   6.036   2.236
 1060TIP3   OH2 3143   3.222   5.014   2.917
 1060TIP3    H1 3144   3.130   5.024   2.892
 1060TIP3    H2 3145   3.223   5.036   3.011
 1061TIP3   OH2 3146   0.700   0.346   2.011
 1061TIP3    H1 3147   0.659   0.265   1.981
 1061TIP3    H2 3148   0.789   0.320   2.035
 1062TIP3   OH2 3149   4.003   5.539   0.623
 1062TIP3    H1 3150   3.985   5.633   0.628
 1062TIP3    H2 3151   3.921   5.498   0.650
 1063TIP3   OH2 3152   2.636   5.277   2.502
 1063TIP3    H1 3153   2.611   5.289   2.410
 1063TIP3    H2 3154   2.732   5.275   2.501
 1064TIP3   OH2 3155   5.437   5.239   5.809
 1064TIP3    H1 3156   5.504   5.271   5.869
 1064TIP3    H2 3157   5.449   5.144   5.809
 1065TIP3   OH2 3158   0.778   3.907   3.808
 1065TIP3    H1 3159   0.831   3.910   3.888
 1065TIP3    H2 3160   0.790   3.818   3.776
 1066TIP3   OH2 3161   2.689   4.657   1.080
 1066TIP3    H1 3162   2.605   4.699   1.064
 1066TIP3    H2 3163   2.701   4.661   1.175
 1067TIP3   OH2 3164   5.325   2.173   2.009
 1067TIP3    H1 3165   5.412   2.134   2.010
 1067TIP3    H2 3166   5.329   2.239   1.939
 1068TIP3   OH2 3167   0.714   3.610   1.581
 1068TIP3    H1 3168   0.736   3.634   1.491
 1068TIP3    H2 3169   0.631   3.563   1.574
 1069TIP3   OH2 3170   5.458   5.445   3.712
 1069TIP3    H1 3171   5.442   5.389   3.788
 1069TIP3    H2 3172   5.531   5.404   3.666
 1070TIP3   OH2 3173   3.968   2.819   1.572
 1070TIP3    H1 3174   3.982   2.880   1.644
 1070TIP3    H2 3175   3.915   2.869   1.509
 1071TIP3   OH2 3176   0.044   0.148   5.457
 1071TIP3    H1 3177   0.004   0.064   5.480
 1071TIP3    H2 3178   0.127   0.125   5.416
 1072TIP3   OH2 3179   5.934   4.103   1.381
 1072TIP3    H1 3180   5.994   4.094   1.307
 1072TIP3    H2 3181   5.926   4.015   1.416
 1073TIP3   OH2 3182   2.709   4.253   4.603
 1073TIP3    H1 3183   2.717   4.180   4.542
 1073TIP3    H2 3184   2.650   4.314   4.560
 1074TIP3   OH2 3185   5.409   6.249   1.452
 1074TIP3    H1 3186   5.457   6.189   1.508
 1074TIP3    H2 3187   5.472   6.319   1.433
 1075TIP3   OH2 3188   6.731   3.369   4.733
 1075TIP3    H1 3189   6.724   3.425   4.656
 1075TIP3    H2 3190   6.820   3.333   4.729
 1076TIP3   OH2 3191   5.943   2.719   4.462
 1076TIP3    H1 3192   5.922   2.812   4.452
 1076TIP3    H2 3193   5.858   2.675   4.459
 1077TIP3   OH2 3194   6.243   1.697   5.550
 1077TIP3    H1 3195   6.177   1.749   5.597
 1077TIP3    H2 3196   6.269   1.752   5.476
 1078TIP3   OH2 3197   1.317   2.220   0.263
 1078TIP3    H1 3198   1.241   2.163   0.249
 1078TIP3    H2 3199   1.280   2.304   0.289
 1079TIP3   OH2 3200   2.159   1.220   5.188
 1079TIP3    H1 3201   2.183   1.141   5.139
 1079TIP3    H2 3202   2.235   1.236   5.245
 1080TIP3   OH2 3203   5.110   2.008   1.987
 1080TIP3    H1 3204   5.193   2.053   1.974
 1080TIP3    H2 3205   5.077   2.041   2.070
 1081TIP3   OH2 3206   0.494   6.049   1.025
 1081TIP3    H1 3207   0.549   6.125   1.006
 1081TIP3    H2 3208   0.450   6.031   0.942
 1082TIP3   OH2 3209   3.985   0.473   0.422
 1082TIP3    H1 3210   3.974   0.431   0.507
 1082TIP3    H2 3211   4.080   0.481   0.411
 1083TIP3   OH2 3212   3.405   1.718   2.263
 1083TIP3    H1 3213   3.452   1.752   2.188
 1083TIP3    H2 3214   3.473   1.688   2.323
 1084TIP3   OH2 3215   3.479   2.994   1.169
 1084TIP3    H1 3216   3.422   3.041   1.108
 1084TIP3    H2 3217   3.566   2.999   1.129
 1085TIP3   OH2 3218   1.457   1.987   4.006
 1085TIP3    H1 3219   1.544   1.950   4.020
 1085TIP3    H2 3220   1.441   2.040   4.084
 1086TIP3   OH2 3221   6.228   5.637   1.355
 1086TIP3    H1 3222   6.139   5.601   1.365
 1086TIP3    H2 3223   6.272   5.575   1.296
 1087TIP3   OH2 3224   7.061   2.149   1.161
 1087TIP3    H1 3225   7.153   2.133   1.139
 1087TIP3    H2 3226   7.060   2.162   1.255
 1088TIP3   OH2 3227   2.994   0.003   1.802
 1088TIP3    H1 3228   2.988   0.037   1.892
 1088TIP3    H2 3229   2.948   0.068   1.749
 1089TIP3   OH2 3230   5.456   2.569   5.806
 1089TIP3    H1 3231   5.405   2.649   5.791
 1089TIP3    H2 3232   5.458   2.559   5.901
 1090TIP3   OH2 3233   7.222   6.154   4.582
 1090TIP3    H1 3234   7.211   6.220   4.649
 1090TIP3    H2 3235   7.136   6.148   4.540
 1091TIP3   OH2 3236   0.256   2.072   1.867
 1091TIP3    H1 3237   0.161   2.060   1.861
 1091TIP3    H2 3238   0.293   1.996   1.823
 1092TIP3   OH2 3239   1.402   2.121   4.520
 1092TIP3    H1 3240   1.347   2.171   4.459
 1092TIP3    H2 3241   1.348   2.047   4.547
 1093TIP3   OH2 3242   4.169   4.229   3.263
 1093TIP3    H1 3243   4.250   4.216   3.312
 1093TIP3    H2 3244   4.102   4.186   3.315
 1094TIP3   OH2 3245   1.537   4.009   2.878
 1094TIP3    H1 3246   1.601   4.078   2.858
 1094TIP3    H2 3247   1.587   3.945   2.928
 1095TIP3   OH2 3248   4.253   1.556   0.294
 1095TIP3    H1 3249   4.255   1.601   0.210
 1095TIP3    H2 3250   4.308   1.609   0.351
 1096TIP3   OH2 3251   4.483   3.146   0.183
 1096TIP3    H1 3252   4.513   3.202   0.256
 1096TIP3    H2 3253   4.402   3.187   0.153
 1097TIP3   OH2 3254   2.233   1.015   4.960
 1097TIP3    H1 3255   2.309   1.031   4.904
 1097TIP3    H2 3256   2.159   1.047   4.909
 1098TIP3   OH2 3257   0.546   0.885   1.955
 1098TIP3    H1 3258   0.483   0.820   1.923
 1098TIP3    H2 3259   0.577   0.850   2.038
 1099TIP3   OH2 3260   5.195   2.311   2.366
 1099TIP3    H1 3261   5.211   2.258   2.444
 1099TIP3    H2 3262   5.225   2.399   2.389
 1100TIP3   OH2 3263   4.471   2.357   5.696
 1100TIP3    H1 3264   4.463   2.281   5.638
 1100TIP3    H2 3265   4.531   2.327   5.765
 1101TIP3   OH2 3266   4.361   2.093   4.166
 1101TIP3    H1 3267   4.457   2.096   4.161
 1101TIP3    H2 3268   4.338   2.015   4.116
 1102TIP3   OH2 3269   0.075   5.999   3.725
 1102TIP3    H1 3270   0.143   5.937   3.749
 1102TIP3    H2 3271  -0.006   5.960   3.758
 1103TIP3   OH2 3272   3.890   4.065   1.111
 1103TIP3    H1 3273   3.971   4.037   1.154
 1103TIP3    H2 3274   3.879   4.002   1.039
 1104TIP3   OH2 3275   1.896   4.814   5.312
 1104TIP3    H1 3276   1.843   4.764   5.250
 1104TIP3    H2 3277   1.848   4.810   5.395
 1105TIP3   OH2 3278   4.104   5.186   3.912
 1105TIP3    H1 3279   4.119   5.213   3.821
 1105TIP3    H2 3280   4.168   5.116   3.926
 1106TIP3   OH2 3281   7.022   0.267   5.070
 1106TIP3    H1 3282   6.973   0.253   5.150
 1106TIP3    H2 3283   7.019   0.183   5.024
 1107TIP3   OH2 3284   6.835   3.764   1.433
 1107TIP3    H1 3285   6.764   3.827   1.441
 1107TIP3    H2 3286   6.914   3.815   1.453
 1108TIP3   OH2 3287   1.186   0.808   2.041
 1108TIP3    H1 3288   1.179   0.899   2.069
 1108TIP3    H2 3289   1.270   0.803   1.995
 1109TIP3   OH2 3290   0.282   1.706   4.041
 1109TIP3    H1 3291   0.238   1.791   4.047
 1109TIP3    H2 3292   0.306   1.699   3.949
 1110TIP3   OH2 3293   0.602   5.517   5.546
 1110TIP3    H1 3294   0.523   5.561   5.515
 1110TIP3    H2 3295   0.641   5.578   5.608
 1111TIP3   OH2 3296   3.667   5.835   3.151
 1111TIP3    H1 3297   3.658   5.927   3.178
 1111TIP3    H2 3298   3.589   5.818   3.099
 1112TIP3   OH2 3299   3.760   6.021   4.584
 1112TIP3    H1 3300   3.674   6.001   4.546
 1112TIP3    H2 3301   3.817   6.036   4.509
 1113TIP3   OH2 3302   1.457   1.683   5.253
 1113TIP3    H1 3303   1.390   1.631   5.297
 1113TIP3    H2 3304   1.487   1.744   5.320
 1114TIP3   OH2 3305   3.731   6.006   0.454
 1114TIP3    H1 3306   3.779   5.930   0.421
 1114TIP3    H2 3307   3.679   6.036   0.379
 1115TIP3   OH2 3308   4.494   4.308   2.114
 1115TIP3    H1 3309   4.519   4.376   2.177
 1115TIP3    H2 3310   4.409   4.277   2.145
 1116TIP3   OH2 3311   4.416   2.602   5.591
 1116TIP3    H1 3312   4.328   2.589   5.555
 1116TIP3    H2 3313   4.443   2.515   5.621
 1117TIP3   OH2 3314   0.983   4.206   5.379
 1117TIP3    H1 3315   0.915   4.142   5.360
 1117TIP3    H2 3316   1.000   4.248   5.294
 1118TIP3   OH2 3317   4.295   3.450   5.203
 1118TIP3    H1 3318   4.205   3.426   5.224
 1118TIP3    H2 3319   4.348   3.397   5.263
 1119TIP3   OH2 3320   6.409   3.971   0.726
 1119TIP3    H1 3321   6.437   3.991   0.816
 1119TIP3    H2 3322   6.446   3.885   0.707
 1120TIP3   OH2 3323   6.950   0.357   5.663
 1120TIP3    H1 3324   7.028   0.398   5.627
 1120TIP3    H2 3325   6.878   0.388   5.608
 1121TIP3   OH2 3326   0.536   5.415   4.001
 1121TIP3    H1 3327   0.453   5.444   3.962
 1121TIP3    H2 3328   0.597   5.410   3.928
 1122TIP3   OH2 3329   2.506   6.388  -0.003
 1122TIP3    H1 3330   2.452   6.333  -0.060
 1122TIP3    H2 3331   2.486   6.356   0.085
 1123TIP3   OH2 3332   2.251   6.422   0.806
 1123TIP3    H1 3333   2.160   6.447   0.787
 1123TIP3    H2 3334   2.289   6.499   0.848
 1124TIP3   OH2 3335   5.370   5.197   5.549
 1124TIP3    H1 3336   5.446   5.147   5.521
 1124TIP3    H2 3337   5.393   5.228   5.637
 1125TIP3   OH2 3338   2.002   4.553   0.746
 1125TIP3    H1 3339   2.059   4.490   0.790
 1125TIP3    H2 3340   2.014   4.634   0.795
 1126TIP3   OH2 3341   5.287   0.586   5.089
 1126TIP3    H1 3342   5.192   0.577   5.077
 1126TIP3    H2 3343   5.305   0.676   5.065
 1127TIP3   OH2 3344   5.992   2.582   3.223
 1127TIP3    H1 3345   6.041   2.543   3.151
 1127TIP3    H2 3346   6.058   2.625   3.276
 1128TIP3   OH2 3347   5.045   4.488   0.407
 1128TIP3    H1 3348   5.102   4.472   0.482
 1128TIP3    H2 3349   5.103   4.484   0.331
 1129TIP3   OH2 3350   4.741   5.422   0.668
 1129TIP3    H1 3351   4.802   5.448   0.738
 1129TIP3    H2 3352   4.671   5.375   0.713
 1130TIP3   OH2 3353   0.046   2.789   2.205
 1130TIP3    H1 3354   0.011   2.874   2.176
 1130TIP3    H2 3355   0.124   2.776   2.153
 1131TIP3   OH2 3356   1.035   0.528   1.979
 1131TIP3    H1 3357   1.092   0.571   1.915
 1131TIP3    H2 3358   1.045   0.435   1.960
 1132TIP3   OH2 3359   3.680   0.890   0.580
 1132TIP3    H1 3360   3.741   0.887   0.506
 1132TIP3    H2 3361   3.692   0.978   0.616
 1133TIP3   OH2 3362   5.509   5.938   0.215
 1133TIP3    H1 3363   5.505   6.014   0.158
 1133TIP3    H2 3364   5.420   5.903   0.215
 1134TIP3   OH2 3365   3.806   5.733   0.394
 1134TIP3    H1 3366   3.725   5.703   0.437
 1134TIP3    H2 3367   3.870   5.736   0.465
 1135TIP3   OH2 3368   5.666   0.108   4.109
 1135TIP3    H1 3369   5.631   0.068   4.189
 1135TIP3    H2 3370   5.704   0.035   4.061
 1136TIP3   OH2 3371   5.306   2.142   0.299
 1136TIP3    H1 3372   5.392   2.151   0.341
 1136TIP3    H2 3373   5.288   2.229   0.262
 1137TIP3   OH2 3374   0.191   4.645   0.934
 1137TIP3    H1 3375   0.198   4.563   0.885
 1137TIP3    H2 3376   0.281   4.673   0.948
 1138TIP3   OH2 3377   0.669   1.284   2.725
 1138TIP3    H1 3378   0.712   1.200   2.741
 1138TIP3    H2 3379   0.642   1.314   2.811
 1139TIP3   OH2 3380   6.932   2.718   1.161
 1139TIP3    H1 3381   6.854   2.754   1.119
 1139TIP3    H2 3382   7.003   2.773   1.130
 1140TIP3   OH2 3383   7.226   1.999   0.681
 1140TIP3    H1 3384   7.220   1.928   0.744
 1140TIP3    H2 3385   7.167   2.067   0.715
 1141TIP3   OH2 3386   0.094   4.271   4.131
 1141TIP3    H1 3387   0.064   4.195   4.080
 1141TIP3    H2 3388   0.077   4.346   4.074
 1142TIP3   OH2 3389   3.980   4.862   3.986
 1142TIP3    H1 3390   3.888   4.880   3.969
 1142TIP3    H2 3391   4.027   4.922   3.928
 1143TIP3   OH2 3392   0.180   3.282   5.716
 1143TIP3    H1 3393   0.103   3.296   5.772
 1143TIP3    H2 3394   0.166   3.195   5.678
 1144TIP3   OH2 3395   1.213   4.568   2.704
 1144TIP3    H1 3396   1.207   4.629   2.777
 1144TIP3    H2 3397   1.168   4.489   2.735
 1145TIP3   OH2 3398   2.554   5.716   1.982
 1145TIP3    H1 3399   2.604   5.681   2.055
 1145TIP3    H2 3400   2.528   5.804   2.010
 1146TIP3   OH2 3401   1.330   5.192   0.748
 1146TIP3    H1 3402   1.307   5.202   0.840
 1146TIP3    H2 3403   1.250   5.214   0.701
 1147TIP3   OH2 3404   6.591   2.399   2.041
 1147TIP3    H1 3405   6.533   2.469   2.011
 1147TIP3    H2 3406   6.531   2.331   2.072
 1148TIP3   OH2 3407   2.884   4.006   5.055
 1148TIP3    H1 3408   2.942   3.958   4.997
 1148TIP3    H2 3409   2.797   3.994   5.017
 1149TIP3   OH2 3410   5.552   4.302   2.625
 1149TIP3    H1 3411   5.593   4.262   2.548
 1149TIP3    H2 3412   5.624   4.313   2.688
 1150TIP3   OH2 3413   2.957   1.517   4.010
 1150TIP3    H1 3414   2.974   1.435   4.057
 1150TIP3    H2 3415   2.882   1.496   3.954
 1151TIP3   OH2 3416   4.367   2.142   2.000
 1151TIP3    H1 3417   4.348   2.191   2.080
 1151TIP3    H2 3418   4.426   2.199   1.951
 1152TIP3   OH2 3419   3.772   5.863   2.866
 1152TIP3    H1 3420   3.709   5.803   2.825
 1152TIP3    H2 3421   3.762   5.847   2.960
 1153TIP3   OH2 3422   5.902   0.184   2.542
 1153TIP3    H1 3423   5.846   0.241   2.489
 1153TIP3    H2 3424   5.930   0.240   2.615
 1154TIP3   OH2 3425   6.646   0.321   3.743
 1154TIP3    H1 3426   6.633   0.410   3.710
 1154TIP3    H2 3427   6.677   0.333   3.833
 1155TIP3   OH2 3428   1.055   2.325   0.858
 1155TIP3    H1 3429   1.040   2.330   0.952
 1155TIP3    H2 3430   1.147   2.301   0.849
 1156TIP3   OH2 3431   5.139   0.603   3.512
 1156TIP3    H1 3432   5.127   0.673   3.575
 1156TIP3    H2 3433   5.116   0.641   3.427
 1157TIP3   OH2 3434   1.243   2.368   1.622
 1157TIP3    H1 3435   1.181   2.431   1.586
 1157TIP3    H2 3436   1.207   2.345   1.708
 1158TIP3   OH2 3437   0.551   6.404   3.722
 1158TIP3    H1 3438   0.635   6.441   3.696
 1158TIP3    H2 3439   0.570   6.351   3.798
 1159TIP3   OH2 3440   4.711   3.253   4.578
 1159TIP3    H1 3441   4.634   3.220   4.624
 1159TIP3    H2 3442   4.682   3.265   4.488
 1160TIP3   OH2 3443   6.949   1.093   3.422
 1160TIP3    H1 3444   7.012   1.155   3.457
 1160TIP3    H2 3445   6.956   1.016   3.479
 1161TIP3   OH2 3446   4.252   0.505   5.661
 1161TIP3    H1 3447   4.266   0.412   5.681
 1161TIP3    H2 3448   4.269   0.550   5.744
 1162TIP3   OH2 3449   2.145   2.416   4.541
 1162TIP3    H1 3450   2.074   2.455   4.489
 1162TIP3    H2 3451   2.114   2.425   4.632
 1163TIP3   OH2 3452   1.459   2.078   0.067
 1163TIP3    H1 3453   1.422   2.125   0.142
 1163TIP3    H2 3454   1.416   1.992   0.070
 1164TIP3   OH2 3455   5.841   1.812   1.309
 1164TIP3    H1 3456   5.925   1.787   1.271
 1164TIP3    H2 3457   5.794   1.854   1.236
 1165TIP3   OH2 3458   5.190   0.612   1.168
 1165TIP3    H1 3459   5.275   0.609   1.123
 1165TIP3    H2 3460   5.159   0.522   1.166
 1166TIP3   OH2 3461   2.177   5.084   5.693
 1166TIP3    H1 3462   2.243   5.031   5.737
 1166TIP3    H2 3463   2.197   5.174   5.719
 1167TIP3   OH2 3464   0.052   5.810   2.322
 1167TIP3    H1 3465   0.142   5.778   2.324
 1167TIP3    H2 3466   0.055   5.885   2.262
 1168TIP3   OH2 3467   6.643   4.019   0.265
 1168TIP3    H1 3468   6.578   4.061   0.321
 1168TIP3    H2 3469   6.661   3.935   0.308
 1169TIP3   OH2 3470   0.282   5.347   0.041
 1169TIP3    H1 3471   0.291   5.304  -0.044
 1169TIP3    H2 3472   0.370   5.379   0.061
 1170TIP3   OH2 3473   4.901   1.193   2.238
 1170TIP3    H1 3474   4.820   1.164   2.195
 1170TIP3    H2 3475   4.961   1.118   2.229
 1171TIP3   OH2 3476   3.048   0.425   1.378
 1171TIP3    H1 3477   3.054   0.398   1.470
 1171TIP3    H2 3478   3.080   0.348   1.329
 1172TIP3   OH2 3479   4.698   5.205   1.928
 1172TIP3    H1 3480   4.673   5.247   1.846
 1172TIP3    H2 3481   4.763   5.139   1.903
 1173TIP3   OH2 3482   5.665   5.705   4.845
 1173TIP3    H1 3483   5.751   5.748   4.842
 1173TIP3    H2 3484   5.679   5.628   4.901
 1174TIP3   OH2 3485   5.107   5.514   2.130
 1174TIP3    H1 3486   5.147   5.462   2.060
 1174TIP3    H2 3487   5.037   5.562   2.087
 1175TIP3   OH2 3488   3.066   3.429   4.877
 1175TIP3    H1 3489   3.098   3.379   4.803
 1175TIP3    H2 3490   2.972   3.409   4.881
 1176TIP3   OH2 3491   6.151   1.714   0.969
 1176TIP3    H1 3492   6.162   1.621   0.948
 1176TIP3    H2 3493   6.115   1.752   0.889
 1177TIP3   OH2 3494   1.799   3.486   0.850
 1177TIP3    H1 3495   1.810   3.401   0.807
 1177TIP3    H2 3496   1.887   3.508   0.881
 1178TIP3   OH2 3497   1.347   1.073   0.158
 1178TIP3    H1 3498   1.411   1.144   0.157
 1178TIP3    H2 3499   1.263   1.116   0.138
 1179TIP3   OH2 3500   4.417   2.850   4.424
 1179TIP3    H1 3501   4.390   2.898   4.345
 1179TIP3    H2 3502   4.510   2.872   4.435
 1180TIP3   OH2 3503   1.183   6.550   3.759
 1180TIP3    H1 3504   1.255   6.610   3.739
 1180TIP3    H2 3505   1.176   6.551   3.854
 1181TIP3   OH2 3506   5.191   2.558   4.839
 1181TIP3    H1 3507   5.271   2.518   4.806
 1181TIP3    H2 3508   5.213   2.589   4.926
 1182TIP3   OH2 3509   3.919   5.546   5.484
 1182TIP3    H1 3510   3.914   5.457   5.519
 1182TIP3    H2 3511   3.926   5.601   5.562
 1183TIP3   OH2 3512   3.319   2.921   2.457
 1183TIP3    H1 3513   3.286   2.988   2.396
 1183TIP3    H2 3514   3.359   2.971   2.528
 1184TIP3   OH2 3515   4.714   4.399   5.294
 1184TIP3    H1 3516   4.739   4.362   5.209
 1184TIP3    H2 3517   4.783   4.369   5.354
 1185TIP3   OH2 3518   6.791   6.764   2.415
 1185TIP3    H1 3519   6.768   6.767   2.322
 1185TIP3    H2 3520   6.887   6.757   2.416
 1186TIP3   OH2 3521   2.758   4.531   5.613
 1186TIP3    H1 3522   2.736   4.467   5.545
 1186TIP3    H2 3523   2.846   4.562   5.590
 1187TIP3   OH2 3524   2.860   2.919   1.704
 1187TIP3    H1 3525   2.811   2.903   1.785
 1187TIP3    H2 3526   2.952   2.921   1.730
 1188TIP3   OH2 3527   1.183   5.661   0.144
 1188TIP3    H1 3528   1.202   5.682   0.235
 1188TIP3    H2 3529   1.149   5.743   0.107
 1189TIP3   OH2 3530   1.040   0.761   1.183
 1189TIP3    H1 3531   0.956   0.785   1.222
 1189TIP3    H2 3532   1.058   0.831   1.121
 1190TIP3   OH2 3533   6.760   3.747   2.623
 1190TIP3    H1 3534   6.676   3.705   2.641
 1190TIP3    H2 3535   6.751   3.836   2.657
 1191TIP3   OH2 3536   2.651   3.881   3.421
 1191TIP3    H1 3537   2.616   3.967   3.398
 1191TIP3    H2 3538   2.578   3.821   3.406
 1192TIP3   OH2 3539   4.774   1.996   3.128
 1192TIP3    H1 3540   4.770   2.090   3.107
 1192TIP3    H2 3541   4.864   1.983   3.158
 1193TIP3   OH2 3542   3.355   6.188   4.572
 1193TIP3    H1 3543   3.417   6.249   4.613
 1193TIP3    H2 3544   3.289   6.172   4.640
 1194TIP3   OH2 3545   3.316   0.591   0.747
 1194TIP3    H1 3546   3.336   0.533   0.820
 1194TIP3    H2 3547   3.247   0.546   0.698
 1195TIP3   OH2 3548   6.946   0.300   1.469
 1195TIP3    H1 3549   6.901   0.224   1.505
 1195TIP3    H2 3550   7.026   0.265   1.432
 1196TIP3   OH2 3551   5.525   1.418   1.037
 1196TIP3    H1 3552   5.450   1.475   1.056
 1196TIP3    H2 3553   5.491   1.354   0.975
 1197TIP3   OH2 3554   3.665   2.073   1.144
 1197TIP3    H1 3555   3.569   2.072   1.149
 1197TIP3    H2 3556   3.686   2.009   1.077
 1198TIP3   OH2 3557   0.128   2.328   1.594
 1198TIP3    H1 3558   0.084   2.399   1.547
 1198TIP3    H2 3559   0.217   2.327   1.558
 1199TIP3   OH2 3560   6.626   0.379   5.831
 1199TIP3    H1 3561   6.614   0.466   5.870
 1199TIP3    H2 3562   6.720   0.373   5.815
 1200TIP3   OH2 3563   6.955   4.942   0.261
 1200TIP3    H1 3564   6.923   5.003   0.195
 1200TIP3    H2 3565   6.909   4.860   0.243
 1201TIP3   OH2 3566   2.070   3.398   2.400
 1201TIP3    H1 3567   2.095   3.451   2.324
 1201TIP3    H2 3568   2.152   3.381   2.445
 1202TIP3   OH2 3569   2.468   1.728   1.473
 1202TIP3    H1 3570   2.432   1.652   1.520
 1202TIP3    H2 3571   2.481   1.696   1.383
 1203TIP3   OH2 3572   4.281   0.017   2.516
 1203TIP3    H1 3573   4.329   0.092   2.550
 1203TIP3    H2 3574   4.215   0.054   2.457
 1204TIP3   OH2 3575   2.537   1.793   3.925
 1204TIP3    H1 3576   2.506   1.881   3.951
 1204TIP3    H2 3577   2.587   1.808   3.845
 1205TIP3   OH2 3578   4.552   1.813   0.933
 1205TIP3    H1 3579   4.458   1.826   0.924
 1205TIP3    H2 3580   4.569   1.824   1.026
 1206TIP3   OH2 3581   1.762   0.890   3.045
 1206TIP3    H1 3582   1.769   0.928   2.957
 1206TIP3    H2 3583   1.727   0.961   3.099
 1207TIP3   OH2 3584   3.079   2.696   2.278
 1207TIP3    H1 3585   3.022   2.633   2.233
 1207TIP3    H2 3586   3.043   2.701   2.366
 1208TIP3   OH2 3587   1.282   4.371   2.074
 1208TIP3    H1 3588   1.297   4.349   1.982
 1208TIP3    H2 3589   1.257   4.463   2.073
 1209TIP3   OH2 3590   5.348   6.105   4.531
 1209TIP3    H1 3591   5.430   6.154   4.521
 1209TIP3    H2 3592   5.363   6.049   4.606
 1210TIP3   OH2 3593   0.502   2.080   2.010
 1210TIP3    H1 3594   0.421   2.094   1.962
 1210TIP3    H2 3595   0.564   2.048   1.944
 1211TIP3   OH2 3596   6.162   6.026   1.698
 1211TIP3    H1 3597   6.172   5.990   1.610
 1211TIP3    H2 3598   6.224   6.099   1.702
 1212TIP3   OH2 3599   2.498   0.881   4.120
 1212TIP3    H1 3600   2.530   0.964   4.085
 1212TIP3    H2 3601   2.421   0.861   4.067
 1213TIP3   OH2 3602   4.512   5.824   2.490
 1213TIP3    H1 3603   4.578   5.756   2.499
 1213TIP3    H2 3604   4.503   5.838   2.396
 1214TIP3   OH2 3605   0.122   1.543   5.263
 1214TIP3    H1 3606   0.034   1.580   5.266
 1214TIP3    H2 3607   0.158   1.574   5.180
 1215TIP3   OH2 3608   4.377   6.725   1.987
 1215TIP3    H1 3609   4.321   6.747   1.912
 1215TIP3    H2 3610   4.369   6.801   2.046
 1216TIP3   OH2 3611   1.389   4.593   0.241
 1216TIP3    H1 3612   1.302   4.621   0.213
 1216TIP3    H2 3613   1.438   4.674   0.255
 1217TIP3   OH2 3614   1.607   0.459   1.892
 1217TIP3    H1 3615   1.667   0.431   1.961
 1217TIP3    H2 3616   1.651   0.436   1.811
 1218TIP3   OH2 3617   3.089   3.766   1.725
 1218TIP3    H1 3618   3.059   3.680   1.753
 1218TIP3    H2 3619   3.099   3.758   1.630
 1219TIP3   OH2 3620   4.036   0.439   4.508
 1219TIP3    H1 3621   3.972   0.431   4.438
 1219TIP3    H2 3622   3.991   0.490   4.576
 1220TIP3   OH2 3623   1.679   2.684   1.322
 1220TIP3    H1 3624   1.695   2.698   1.229
 1220TIP3    H2 3625   1.762   2.706   1.364
 1221TIP3   OH2 3626   5.795   0.879   4.360
 1221TIP3    H1 3627   5.801   0.905   4.452
 1221TIP3    H2 3628   5.859   0.808   4.351
 1222TIP3   OH2 3629   4.172   1.702   1.787
 1222TIP3    H1 3630   4.083   1.730   1.766
 1222TIP3    H2 3631   4.183   1.619   1.740
 1223TIP3   OH2 3632   3.862   6.367   4.860
 1223TIP3    H1 3633   3.860   6.462   4.860
 1223TIP3    H2 3634   3.897   6.344   4.946
 1224TIP3   OH2 3635   1.704   6.456   1.096
 1224TIP3    H1 3636   1.737   6.402   1.025
 1224TIP3    H2 3637   1.703   6.545   1.060
 1225TIP3   OH2 3638   5.791   4.668   0.937
 1225TIP3    H1 3639   5.876   4.685   0.977
 1225TIP3    H2 3640   5.785   4.731   0.865
 1226TIP3   OH2 3641   6.223   1.890   3.176
 1226TIP3    H1 3642   6.218   1.818   3.113
 1226TIP3    H2 3643   6.141   1.886   3.224
 1227TIP3   OH2 3644   2.131   2.060   4.880
 1227TIP3    H1 3645   2.175   1.986   4.839
 1227TIP3    H2 3646   2.169   2.137   4.837
 1228TIP3   OH2 3647   6.134   6.420   3.684
 1228TIP3    H1 3648   6.140   6.378   3.598
 1228TIP3    H2 3649   6.088   6.357   3.739
 1229TIP3   OH2 3650   1.989   6.525   0.766
 1229TIP3    H1 3651   1.966   6.529   0.673
 1229TIP3    H2 3652   1.934   6.455   0.800
 1230TIP3   OH2 3653   4.859   2.191   4.925
 1230TIP3    H1 3654   4.879   2.175   4.833
 1230TIP3    H2 3655   4.764   2.177   4.932
 1231TIP3   OH2 3656   5.464   1.272   2.083
 1231TIP3    H1 3657   5.427   1.247   2.167
 1231TIP3    H2 3658   5.545   1.222   2.076
 1232TIP3   OH2 3659   3.254   2.605   0.965
 1232TIP3    H1 3660   3.174   2.655   0.980
 1232TIP3    H2 3661   3.307   2.660   0.908
 1233TIP3   OH2 3662   2.990   4.298   4.652
 1233TIP3    H1 3663   2.895   4.300   4.642
 1233TIP3    H2 3664   3.022   4.363   4.588
 1234TIP3   OH2 3665   1.511   1.949   5.716
 1234TIP3    H1 3666   1.470   1.891   5.651
 1234TIP3    H2 3667   1.517   1.895   5.795
 1235TIP3   OH2 3668   3.274   0.437   2.237
 1235TIP3    H1 3669   3.273   0.468   2.328
 1235TIP3    H2 3670   3.182   0.414   2.220
 1236TIP3   OH2 3671   1.196   4.866   0.611
 1236TIP3    H1 3672   1.261   4.909   0.665
 1236TIP3    H2 3673   1.189   4.778   0.647
 1237TIP3   OH2 3674   3.486   4.458   1.675
 1237TIP3    H1 3675   3.498   4.433   1.584
 1237TIP3    H2 3676   3.446   4.381   1.716
 1238TIP3   OH2 3677   6.628   0.096   1.770
 1238TIP3    H1 3678   6.553   0.117   1.716
 1238TIP3    H2 3679   6.692   0.059   1.710
 1239TIP3   OH2 3680   2.189   3.089   2.606
 1239TIP3    H1 3681   2.229   3.171   2.577
 1239TIP3    H2 3682   2.231   3.070   2.690
 1240TIP3   OH2 3683   1.839   5.556   2.149
 1240TIP3    H1 3684   1.872   5.525   2.234
 1240TIP3    H2 3685   1.917   5.592   2.106
 1241TIP3   OH2 3686   2.607   2.309   0.116
 1241TIP3    H1 3687   2.694   2.289   0.148
 1241TIP3    H2 3688   2.596   2.252   0.040
 1242TIP3   OH2 3689   1.986   3.654   1.334
 1242TIP3    H1 3690   1.979   3.572   1.284
 1242TIP3    H2 3691   1.909   3.654   1.390
 1243TIP3   OH2 3692   5.966   2.864   3.564
 1243TIP3    H1 3693   5.930   2.869   3.653
 1243TIP3    H2 3694   5.992   2.954   3.544
 1244TIP3   OH2 3695   2.688   2.173   2.552
 1244TIP3    H1 3696   2.637   2.251   2.574
 1244TIP3    H2 3697   2.623   2.103   2.543
 1245TIP3   OH2 3698   7.096   6.086   5.046
 1245TIP3    H1 3699   7.179   6.127   5.021
 1245TIP3    H2 3700   7.122   6.003   5.087
 1246TIP3   OH2 3701   2.242   0.685   4.491
 1246TIP3    H1 3702   2.203   0.670   4.406
 1246TIP3    H2 3703   2.305   0.755   4.477
 1247TIP3   OH2 3704   1.768   0.852   2.021
 1247TIP3    H1 3705   1.708   0.876   1.950
 1247TIP3    H2 3706   1.829   0.925   2.027
 1248TIP3   OH2 3707   2.133   2.807   5.208
 1248TIP3    H1 3708   2.122   2.765   5.122
 1248TIP3    H2 3709   2.072   2.880   5.206
 1249TIP3   OH2 3710   5.805   2.845   0.471
 1249TIP3    H1 3711   5.772   2.862   0.560
 1249TIP3    H2 3712   5.727   2.850   0.416
 1250TIP3   OH2 3713   6.096   6.477   1.514
 1250TIP3    H1 3714   6.049   6.498   1.595
 1250TIP3    H2 3715   6.040   6.510   1.444
 1251TIP3   OH2 3716   4.794   3.570   0.326
 1251TIP3    H1 3717   4.745   3.652   0.321
 1251TIP3    H2 3718   4.793   3.536   0.237
 1252TIP3   OH2 3719   3.099   2.489   2.978
 1252TIP3    H1 3720   3.022   2.438   3.003
 1252TIP3    H2 3721   3.065   2.574   2.953
 1253TIP3   OH2 3722   5.441   0.811   0.937
 1253TIP3    H1 3723   5.462   0.884   0.995
 1253TIP3    H2 3724   5.516   0.807   0.877
 1254TIP3   OH2 3725   1.585   3.754   1.551
 1254TIP3    H1 3726   1.495   3.726   1.536
 1254TIP3    H2 3727   1.590   3.841   1.511
 1255TIP3   OH2 3728   3.818   5.605   2.751
 1255TIP3    H1 3729   3.833   5.528   2.806
 1255TIP3    H2 3730   3.820   5.679   2.812
 1256TIP3   OH2 3731   7.171   0.260   3.844
 1256TIP3    H1 3732   7.154   0.175   3.884
 1256TIP3    H2 3733   7.250   0.246   3.791
 1257TIP3   OH2 3734   4.870   0.870   1.035
 1257TIP3    H1 3735   4.914   0.925   1.101
 1257TIP3    H2 3736   4.887   0.915   0.952
 1258TIP3   OH2 3737   1.888   1.926   0.154
 1258TIP3    H1 3738   1.914   1.834   0.158
 1258TIP3    H2 3739   1.969   1.974   0.171
 1259TIP3   OH2 3740   2.279   4.304   2.956
 1259TIP3    H1 3741   2.319   4.230   2.911
 1259TIP3    H2 3742   2.284   4.281   3.049
 1260TIP3   OH2 3743   0.399   3.814   4.035
 1260TIP3    H1 3744   0.327   3.764   4.074
 1260TIP3    H2 3745   0.478   3.767   4.062
 1261TIP3   OH2 3746   4.566   3.132   2.945
 1261TIP3    H1 3747   4.540   3.062   3.005
 1261TIP3    H2 3748   4.629   3.091   2.886
 1262TIP3   OH2 3749   4.103   2.698   2.971
 1262TIP3    H1 3750   4.149   2.687   2.888
 1262TIP3    H2 3751   4.062   2.613   2.987
 1263TIP3   OH2 3752   6.002   3.990   3.228
 1263TIP3    H1 3753   6.040   4.068   3.187
 1263TIP3    H2 3754   6.051   3.917   3.191
 1264TIP3   OH2 3755   2.361   2.382   0.176
 1264TIP3    H1 3756   2.375   2.471   0.209
 1264TIP3    H2 3757   2.448   2.342   0.178
 1265TIP3   OH2 3758   6.559   5.362   4.034
 1265TIP3    H1 3759   6.542   5.357   3.940
 1265TIP3    H2 3760   6.578   5.272   4.060
 1266TIP3   OH2 3761   5.706   2.481   5.201
 1266TIP3    H1 3762   5.718   2.574   5.185
 1266TIP3    H2 3763   5.624   2.459   5.157
 1267TIP3   OH2 3764   4.769   0.491   3.324
 1267TIP3    H1 3765   4.733   0.580   3.316
 1267TIP3    H2 3766   4.824   0.480   3.247
 1268TIP3   OH2 3767   0.341   3.425   4.049
 1268TIP3    H1 3768   0.359   3.345   4.098
 1268TIP3    H2 3769   0.278   3.473   4.104
 1269TIP3   OH2 3770   3.405   0.436   4.743
 1269TIP3    H1 3771   3.459   0.452   4.821
 1269TIP3    H2 3772   3.338   0.374   4.773
 1270TIP3   OH2 3773   1.433   5.412   4.555
 1270TIP3    H1 3774   1.382   5.397   4.635
 1270TIP3    H2 3775   1.417   5.334   4.501
 1271TIP3   OH2 3776   0.892   2.546   5.159
 1271TIP3    H1 3777   0.892   2.597   5.078
 1271TIP3    H2 3778   0.879   2.611   5.228
 1272TIP3   OH2 3779   5.189   6.444   5.147
 1272TIP3    H1 3780   5.206   6.485   5.063
 1272TIP3    H2 3781   5.276   6.420   5.180
 1273TIP3   OH2 3782   3.491   5.005   3.479
 1273TIP3    H1 3783   3.508   5.032   3.569
 1273TIP3    H2 3784   3.475   4.911   3.484
 1274TIP3   OH2 3785   0.120   5.155   4.331
 1274TIP3    H1 3786   0.106   5.236   4.381
 1274TIP3    H2 3787   0.147   5.185   4.245
 1275TIP3   OH2 3788   1.915   6.389   1.306
 1275TIP3    H1 3789   1.834   6.408   1.260
 1275TIP3    H2 3790   1.916   6.293   1.315
 1276TIP3   OH2 3791   7.133   0.156   1.221
 1276TIP3    H1 3792   7.154   0.158   1.128
 1276TIP3    H2 3793   7.053   0.104   1.227
 1277TIP3   OH2 3794   0.633   6.103   1.982
 1277TIP3    H1 3795   0.620   6.056   2.065
 1277TIP3    H2 3796   0.553   6.153   1.969
 1278TIP3   OH2 3797   3.173   2.285   0.244
 1278TIP3    H1 3798   3.201   2.271   0.334
 1278TIP3    H2 3799   3.087   2.326   0.251
 1279TIP3   OH2 3800   1.630   0.124   4.441
 1279TIP3    H1 3801   1.648   0.099   4.350
 1279TIP3    H2 3802   1.625   0.040   4.488
 1280TIP3   OH2 3803   0.193   5.298   2.848
 1280TIP3    H1 3804   0.180   5.327   2.757
 1280TIP3    H2 3805   0.179   5.203   2.845
 1281TIP3   OH2 3806   6.707   5.843   5.926
 1281TIP3    H1 3807   6.783   5.862   5.871
 1281TIP3    H2 3808   6.636   5.895   5.887
 1282TIP3   OH2 3809   6.022   0.282   4.658
 1282TIP3    H1 3810   5.939   0.302   4.700
 1282TIP3    H2 3811   6.086   0.286   4.729
 1283TIP3   OH2 3812   0.726   1.949   0.408
 1283TIP3    H1 3813   0.697   2.028   0.362
 1283TIP3    H2 3814   0.810   1.972   0.446
 1284TIP3   OH2 3815   2.286   2.527   3.340
 1284TIP3    H1 3816   2.216   2.522   3.274
 1284TIP3    H2 3817   2.303   2.436   3.363
 1285TIP3   OH2 3818   5.681   2.170   1.311
 1285TIP3    H1 3819   5.605   2.212   1.271
 1285TIP3    H2 3820   5.654   2.154   1.402
 1286TIP3   OH2 3821   0.210   4.545   0.322
 1286TIP3    H1 3822   0.146   4.577   0.387
 1286TIP3    H2 3823   0.227   4.621   0.267
 1287TIP3   OH2 3824   1.224   5.704   5.101
 1287TIP3    H1 3825   1.147   5.751   5.132
 1287TIP3    H2 3826   1.295   5.732   5.159
 1288TIP3   OH2 3827   4.424   4.765   3.003
 1288TIP3    H1 3828   4.336   4.801   3.010
 1288TIP3    H2 3829   4.433   4.708   3.079
 1289TIP3   OH2 3830   1.782   1.505   0.560
 1289TIP3    H1 3831   1.797   1.507   0.655
 1289TIP3    H2 3832   1.861   1.545   0.523
 1290TIP3   OH2 3833   1.883   0.024   5.139
 1290TIP3    H1 3834   1.974   0.047   5.157
 1290TIP3    H2 3835   1.834   0.103   5.160
 1291TIP3   OH2 3836   1.598   6.440   4.967
 1291TIP3    H1 3837   1.678   6.490   4.954
 1291TIP3    H2 3838   1.603   6.408   5.057
 1292TIP3   OH2 3839   2.519   0.263   1.908
 1292TIP3    H1 3840   2.461   0.295   1.977
 1292TIP3    H2 3841   2.599   0.236   1.955
 1293TIP3   OH2 3842   1.274   6.751   2.205
 1293TIP3    H1 3843   1.213   6.695   2.254
 1293TIP3    H2 3844   1.353   6.753   2.260
 1294TIP3   OH2 3845   3.673   2.005   0.420
 1294TIP3    H1 3846   3.631   1.949   0.485
 1294TIP3    H2 3847   3.757   2.029   0.460
 1295TIP3   OH2 3848   0.306   4.470   4.937
 1295TIP3    H1 3849   0.302   4.555   4.980
 1295TIP3    H2 3850   0.302   4.490   4.843
 1296TIP3   OH2 3851   7.096   5.370   2.975
 1296TIP3    H1 3852   7.015   5.319   2.975
 1296TIP3    H2 3853   7.146   5.335   3.049
 1297TIP3   OH2 3854   4.597   4.986   0.147
 1297TIP3    H1 3855   4.655   4.918   0.180
 1297TIP3    H2 3856   4.508   4.954   0.165
 1298TIP3   OH2 3857   6.444   3.521   5.694
 1298TIP3    H1 3858   6.524   3.469   5.681
 1298TIP3    H2 3859   6.451   3.592   5.629
 1299TIP3   OH2 3860   0.423   3.384   5.802
 1299TIP3    H1 3861   0.342   3.333   5.798
 1299TIP3    H2 3862   0.410   3.444   5.876
 1300TIP3   OH2 3863   0.536   4.730   3.134
 1300TIP3    H1 3864   0.564   4.796   3.071
 1300TIP3    H2 3865   0.463   4.771   3.181
 1301TIP3   OH2 3866   1.739   4.246   5.141
 1301TIP3    H1 3867   1.822   4.200   5.129
 1301TIP3    H2 3868   1.764   4.334   5.167
 1302TIP3   OH2 3869   3.336   4.997   5.675
 1302TIP3    H1 3870   3.419   4.986   5.629
 1302TIP3    H2 3871   3.290   5.065   5.626
 1303TIP3   OH2 3872   6.269   1.768   2.563
 1303TIP3    H1 3873   6.265   1.848   2.510
 1303TIP3    H2 3874   6.180   1.757   2.597
 1304TIP3   OH2 3875   6.712   6.157   0.681
 1304TIP3    H1 3876   6.709   6.087   0.616
 1304TIP3    H2 3877   6.696   6.237   0.632
 1305TIP3   OH2 3878   1.121   1.901   4.380
 1305TIP3    H1 3879   1.170   1.929   4.458
 1305TIP3    H2 3880   1.031   1.892   4.410
 1306TIP3   OH2 3881   5.746   1.237   0.708
 1306TIP3    H1 3882   5.696   1.318   0.699
 1306TIP3    H2 3883   5.833   1.266   0.737
 1307TIP3   OH2 3884   4.581   0.576   2.655
 1307TIP3    H1 3885   4.596   0.508   2.589
 1307TIP3    H2 3886   4.655   0.635   2.646
 1308TIP3   OH2 3887   4.856   2.755   1.920
 1308TIP3    H1 3888   4.828   2.665   1.904
 1308TIP3    H2 3889   4.847   2.798   1.835
 1309TIP3   OH2 3890   1.862   3.338   3.985
 1309TIP3    H1 3891   1.772   3.344   4.017
 1309TIP3    H2 3892   1.854   3.322   3.891
 1310TIP3   OH2 3893   1.266   4.430   0.985
 1310TIP3    H1 3894   1.328   4.502   0.975
 1310TIP3    H2 3895   1.298   4.362   0.926
 1311TIP3   OH2 3896   2.409   4.242   5.364
 1311TIP3    H1 3897   2.435   4.322   5.410
 1311TIP3    H2 3898   2.438   4.256   5.274
 1312TIP3   OH2 3899   5.208   3.303   0.145
 1312TIP3    H1 3900   5.273   3.373   0.151
 1312TIP3    H2 3901   5.145   3.322   0.214
 1313TIP3   OH2 3902   1.878   3.336   4.680
 1313TIP3    H1 3903   1.950   3.299   4.732
 1313TIP3    H2 3904   1.826   3.259   4.654
 1314TIP3   OH2 3905   2.763   2.664   2.244
 1314TIP3    H1 3906   2.700   2.714   2.296
 1314TIP3    H2 3907   2.768   2.579   2.288
 1315TIP3   OH2 3908   2.682   6.717   1.044
 1315TIP3    H1 3909   2.690   6.622   1.057
 1315TIP3    H2 3910   2.710   6.755   1.127
 1316TIP3   OH2 3911   4.605   5.540   5.749
 1316TIP3    H1 3912   4.632   5.507   5.834
 1316TIP3    H2 3913   4.671   5.607   5.727
 1317TIP3   OH2 3914   0.793   3.344   2.344
 1317TIP3    H1 3915   0.780   3.401   2.420
 1317TIP3    H2 3916   0.815   3.259   2.382
 1318TIP3   OH2 3917   5.257   4.659   0.093
 1318TIP3    H1 3918   5.248   4.566   0.114
 1318TIP3    H2 3919   5.351   4.670   0.075
 1319TIP3   OH2 3920   7.212   2.130   1.752
 1319TIP3    H1 3921   7.242   2.194   1.689
 1319TIP3    H2 3922   7.142   2.174   1.800
 1320TIP3   OH2 3923   1.375   2.143   2.184
 1320TIP3    H1 3924   1.356   2.102   2.268
 1320TIP3    H2 3925   1.298   2.197   2.165
 1321TIP3   OH2 3926   3.750   0.310   0.866
 1321TIP3    H1 3927   3.671   0.363   0.880
 1321TIP3    H2 3928   3.745   0.242   0.933
 1322TIP3   OH2 3929   3.336   5.232   2.680
 1322TIP3    H1 3930   3.413   5.289   2.673
 1322TIP3    H2 3931   3.304   5.246   2.769
 1323TIP3   OH2 3932   5.339   3.757   1.802
 1323TIP3    H1 3933   5.276   3.688   1.824
 1323TIP3    H2 3934   5.360   3.742   1.710
 1324TIP3   OH2 3935   2.165   4.969   0.961
 1324TIP3    H1 3936   2.249   4.944   0.922
 1324TIP3    H2 3937   2.148   5.057   0.927
 1325TIP3   OH2 3938   6.236   5.578   2.969
 1325TIP3    H1 3939   6.170   5.587   2.901
 1325TIP3    H2 3940   6.271   5.666   2.981
 1326TIP3   OH2 3941   5.956   0.620   0.932
 1326TIP3    H1 3942   5.922   0.531   0.929
 1326TIP3    H2 3943   6.017   0.620   1.007
 1327TIP3   OH2 3944   5.701   6.701   4.250
 1327TIP3    H1 3945   5.665   6.749   4.176
 1327TIP3    H2 3946   5.794   6.694   4.230
 1328TIP3   OH2 3947   0.097   2.397   2.391
 1328TIP3    H1 3948   0.110   2.384   2.485
 1328TIP3    H2 3949   0.038   2.473   2.386
 1329TIP3   OH2 3950   1.763   0.199   5.751
 1329TIP3    H1 3951   1.816   0.199   5.831
 1329TIP3    H2 3952   1.785   0.282   5.708
 1330TIP3   OH2 3953   2.880   4.683   2.202
 1330TIP3    H1 3954   2.905   4.751   2.265
 1330TIP3    H2 3955   2.902   4.601   2.245
 1331TIP3   OH2 3956   5.063   0.390   3.685
 1331TIP3    H1 3957   4.969   0.395   3.701
 1331TIP3    H2 3958   5.077   0.446   3.608
 1332TIP3   OH2 3959   4.455   5.723   1.507
 1332TIP3    H1 3960   4.443   5.777   1.585
 1332TIP3    H2 3961   4.396   5.649   1.520
 1333TIP3   OH2 3962   2.306   0.967   1.479
 1333TIP3    H1 3963   2.341   0.929   1.560
 1333TIP3    H2 3964   2.335   1.058   1.481
 1334TIP3   OH2 3965   3.164   4.545   4.857
 1334TIP3    H1 3966   3.259   4.552   4.842
 1334TIP3    H2 3967   3.141   4.458   4.823
 1335TIP3   OH2 3968   1.150   4.777   5.077
 1335TIP3    H1 3969   1.086   4.715   5.041
 1335TIP3    H2 3970   1.233   4.730   5.074
 1336TIP3   OH2 3971   1.755   3.430   3.513
 1336TIP3    H1 3972   1.816   3.497   3.543
 1336TIP3    H2 3973   1.800   3.389   3.439
 1337TIP3   OH2 3974   6.860   2.140   0.938
 1337TIP3    H1 3975   6.814   2.221   0.960
 1337TIP3    H2 3976   6.924   2.129   1.009
 1338TIP3   OH2 3977   2.609   5.748   3.601
 1338TIP3    H1 3978   2.624   5.826   3.654
 1338TIP3    H2 3979   2.590   5.782   3.514
 1339TIP3   OH2 3980   3.014   4.762   3.454
 1339TIP3    H1 3981   3.070   4.819   3.506
 1339TIP3    H2 3982   3.066   4.741   3.377
 1340TIP3   OH2 3983   0.965   2.369   3.276
 1340TIP3    H1 3984   0.968   2.276   3.299
 1340TIP3    H2 3985   1.054   2.401   3.293
 1341TIP3   OH2 3986   1.353   2.914   1.561
 1341TIP3    H1 3987   1.320   2.839   1.512
 1341TIP3    H2 3988   1.448   2.910   1.551
 1342TIP3   OH2 3989   3.033   0.278   1.853
 1342TIP3    H1 3990   3.061   0.336   1.783
 1342TIP3    H2 3991   3.106   0.280   1.915
 1343TIP3   OH2 3992   0.231   1.149   1.444
 1343TIP3    H1 3993   0.166   1.192   1.389
 1343TIP3    H2 3994   0.201   1.059   1.451
 1344TIP3   OH2 3995   6.501   4.801   3.383
 1344TIP3    H1 3996   6.503   4.832   3.473
 1344TIP3    H2 3997   6.415   4.829   3.350
 1345TIP3   OH2 3998   7.009   4.225   5.790
 1345TIP3    H1 3999   7.014   4.138   5.830
 1345TIP3    H2 4000   6.956   4.212   5.712
 1346TIP3   OH2 4001   2.590   4.192   0.631
 1346TIP3    H1 4002   2.596   4.144   0.714
 1346TIP3    H2 4003   2.680   4.211   0.608
 1347TIP3   OH2 4004   5.010   0.607   0.547
 1347TIP3    H1 4005   5.047   0.694   0.529
 1347TIP3    H2 4006   5.087   0.551   0.559
 1348TIP3   OH2 4007   1.453   0.945   0.521
 1348TIP3    H1 4008   1.449   0.875   0.586
 1348TIP3    H2 4009   1.387   0.921   0.456
 1349TIP3   OH2 4010   3.740   4.782   2.522
 1349TIP3    H1 4011   3.782   4.744   2.598
 1349TIP3    H2 4012   3.795   4.856   2.498
 1350TIP3   OH2 4013   3.231   1.236   3.724
 1350TIP3    H1 4014   3.313   1.235   3.675
 1350TIP3    H2 4015   3.197   1.325   3.712
 1351TIP3   OH2 4016   5.049   0.881   0.120
 1351TIP3    H1 4017   5.123   0.942   0.121
 1351TIP3    H2 4018   4.985   0.923   0.063
 1352TIP3   OH2 4019   2.718   6.579   2.047
 1352TIP3    H1 4020   2.752   6.560   2.134
 1352TIP3    H2 4021   2.745   6.669   2.029
 1353TIP3   OH2 4022   2.396   4.932   5.760
 1353TIP3    H1 4023   2.470   4.947   5.702
 1353TIP3    H2 4024   2.412   4.846   5.798
 1354TIP3   OH2 4025   4.555   1.933   2.188
 1354TIP3    H1 4026   4.536   1.840   2.179
 1354TIP3    H2 4027   4.501   1.962   2.261
 1355TIP3   OH2 4028   4.956   2.456   2.450
 1355TIP3    H1 4029   5.016   2.445   2.377
 1355TIP3    H2 4030   4.996   2.524   2.504
 1356TIP3   OH2 4031   5.503   5.408   4.810
 1356TIP3    H1 4032   5.566   5.337   4.821
 1356TIP3    H2 4033   5.466   5.395   4.723
 1357TIP3   OH2 4034   0.396   1.575   5.528
 1357TIP3    H1 4035   0.311   1.618   5.526
 1357TIP3    H2 4036   0.440   1.604   5.448
 1358TIP3   OH2 4037   2.427   6.301   1.069
 1358TIP3    H1 4038   2.517   6.273   1.055
 1358TIP3    H2 4039   2.415   6.375   1.010
 1359TIP3   OH2 4040   2.498   2.620   3.167
 1359TIP3    H1 4041   2.547   2.698   3.196
 1359TIP3    H2 4042   2.470   2.577   3.247
 1360TIP3   OH2 4043   4.640   1.541   3.129
 1360TIP3    H1 4044   4.599   1.584   3.204
 1360TIP3    H2 4045   4.579   1.556   3.057
 1361TIP3   OH2 4046   6.361   2.064   3.435
 1361TIP3    H1 4047   6.390   2.064   3.344
 1361TIP3    H2 4048   6.284   2.008   3.435
 1362TIP3   OH2 4049   2.323   3.663   4.251
 1362TIP3    H1 4050   2.282   3.675   4.337
 1362TIP3    H2 4051   2.412   3.633   4.271
 1363TIP3   OH2 4052   0.456   1.408   3.786
 1363TIP3    H1 4053   0.445   1.485   3.731
 1363TIP3    H2 4054   0.449   1.334   3.725
 1364TIP3   OH2 4055   0.939   4.617   5.001
 1364TIP3    H1 4056   0.864   4.563   5.028
 1364TIP3    H2 4057   0.939   4.612   4.906
 1365TIP3   OH2 4058   0.972   0.864   1.562
 1365TIP3    H1 4059   0.905   0.822   1.509
 1365TIP3    H2 4060   1.054   0.849   1.515
 1366TIP3   OH2 4061   4.447   3.780   0.089
 1366TIP3    H1 4062   4.515   3.788   0.156
 1366TIP3    H2 4063   4.456   3.859   0.036
 1367TIP3   OH2 4064   2.473   5.692   2.515
 1367TIP3    H1 4065   2.564   5.673   2.491
 1367TIP3    H2 4066   2.431   5.716   2.432
 1368TIP3   OH2 4067   0.984   5.835   1.497
 1368TIP3    H1 4068   0.970   5.908   1.556
 1368TIP3    H2 4069   0.974   5.873   1.409
 1369TIP3   OH2 4070   3.779   5.236   1.169
 1369TIP3    H1 4071   3.817   5.230   1.257
 1369TIP3    H2 4072   3.759   5.146   1.146
 1370TIP3   OH2 4073   2.212   2.821   2.934
 1370TIP3    H1 4074   2.186   2.860   3.018
 1370TIP3    H2 4075   2.273   2.884   2.896
 1371TIP3   OH2 4076   6.776   0.898   5.035
 1371TIP3    H1 4077   6.807   0.935   5.117
 1371TIP3    H2 4078   6.712   0.962   5.003
 1372TIP3   OH2 4079   3.970   3.497   1.383
 1372TIP3    H1 4080   4.016   3.563   1.434
 1372TIP3    H2 4081   4.024   3.484   1.305
 1373TIP3   OH2 4082   0.915   0.795   4.716
 1373TIP3    H1 4083   0.849   0.862   4.698
 1373TIP3    H2 4084   0.871   0.734   4.776
 1374TIP3   OH2 4085   4.508   0.456   0.369
 1374TIP3    H1 4086   4.434   0.454   0.309
 1374TIP3    H2 4087   4.472   0.490   0.451
 1375TIP3   OH2 4088   5.827   1.899   0.775
 1375TIP3    H1 4089   5.884   1.950   0.833
 1375TIP3    H2 4090   5.738   1.926   0.801
 1376TIP3   OH2 4091   1.035   4.802   3.773
 1376TIP3    H1 4092   1.096   4.832   3.840
 1376TIP3    H2 4093   1.077   4.724   3.736
 1377TIP3   OH2 4094   4.496   0.882   2.794
 1377TIP3    H1 4095   4.476   0.972   2.818
 1377TIP3    H2 4096   4.533   0.887   2.706
 1378TIP3   OH2 4097   4.831   6.857   1.561
 1378TIP3    H1 4098   4.788   6.772   1.572
 1378TIP3    H2 4099   4.870   6.853   1.474
 1379TIP3   OH2 4100   2.656   4.755   0.315
 1379TIP3    H1 4101   2.587   4.796   0.368
 1379TIP3    H2 4102   2.719   4.825   0.300
 1380TIP3   OH2 4103   5.686   3.380   4.114
 1380TIP3    H1 4104   5.679   3.382   4.019
 1380TIP3    H2 4105   5.772   3.419   4.132
 1381TIP3   OH2 4106   5.684   2.822   2.112
 1381TIP3    H1 4107   5.641   2.782   2.188
 1381TIP3    H2 4108   5.739   2.753   2.076
 1382TIP3   OH2 4109   4.360   0.844   1.480
 1382TIP3    H1 4110   4.321   0.757   1.490
 1382TIP3    H2 4111   4.370   0.876   1.570
 1383TIP3   OH2 4112   2.729   6.689   1.496
 1383TIP3    H1 4113   2.796   6.732   1.443
 1383TIP3    H2 4114   2.690   6.759   1.548
 1384TIP3   OH2 4115   5.372   2.875   0.163
 1384TIP3    H1 4116   5.442   2.930   0.128
 1384TIP3    H2 4117   5.411   2.787   0.167
 1385TIP3   OH2 4118   2.356   5.248   2.253
 1385TIP3    H1 4119   2.434   5.303   2.241
 1385TIP3    H2 4120   2.307   5.291   2.323
 1386TIP3   OH2 4121   4.040   2.017   1.270
 1386TIP3    H1 4122   4.008   2.013   1.360
 1386TIP3    H2 4123   4.111   1.952   1.267
 1387TIP3   OH2 4124   0.456   2.551   1.610
 1387TIP3    H1 4125   0.499   2.607   1.544
 1387TIP3    H2 4126   0.373   2.594   1.628
 1388TIP3   OH2 4127   0.338   1.535   4.236
 1388TIP3    H1 4128   0.260   1.536   4.291
 1388TIP3    H2 4129   0.319   1.600   4.167
 1389TIP3   OH2 4130   1.883   2.800   1.463
 1389TIP3    H1 4131   1.893   2.804   1.558
 1389TIP3    H2 4132   1.968   2.829   1.429
 1390TIP3   OH2 4133   3.687   4.167   3.739
 1390TIP3    H1 4134   3.630   4.164   3.663
 1390TIP3    H2 4135   3.639   4.219   3.803
 1391TIP3   OH2 4136   2.260   2.702   2.658
 1391TIP3    H1 4137   2.222   2.732   2.741
 1391TIP3    H2 4138   2.301   2.779   2.621
 1392TIP3   OH2 4139   6.209   1.666   4.488
 1392TIP3    H1 4140   6.168   1.649   4.572
 1392TIP3    H2 4141   6.203   1.583   4.441
 1393TIP3   OH2 4142   2.673   4.039   4.149
 1393TIP3    H1 4143   2.732   4.106   4.117
 1393TIP3    H2 4144   2.586   4.079   4.145
 1394TIP3   OH2 4145   5.721   3.106   2.230
 1394TIP3    H1 4146   5.679   3.096   2.315
 1394TIP3    H2 4147   5.718   3.018   2.191
 1395TIP3   OH2 4148   6.288   1.921   2.160
 1395TIP3    H1 4149   6.308   1.827   2.154
 1395TIP3    H2 4150   6.322   1.947   2.246
 1396TIP3   OH2 4151   7.068   2.928   5.472
 1396TIP3    H1 4152   7.052   2.839   5.501
 1396TIP3    H2 4153   7.036   2.983   5.544
 1397TIP3   OH2 4154   5.180   1.733   2.422
 1397TIP3    H1 4155   5.246   1.666   2.436
 1397TIP3    H2 4156   5.121   1.725   2.497
 1398TIP3   OH2 4157   5.575   2.241   1.957
 1398TIP3    H1 4158   5.565   2.312   2.020
 1398TIP3    H2 4159   5.576   2.285   1.872
 1399TIP3   OH2 4160   2.549   2.546   2.123
 1399TIP3    H1 4161   2.546   2.563   2.029
 1399TIP3    H2 4162   2.638   2.572   2.149
 1400TIP3   OH2 4163   3.690   6.086   2.725
 1400TIP3    H1 4164   3.595   6.098   2.724
 1400TIP3    H2 4165   3.704   6.011   2.783
 1401TIP3   OH2 4166   4.262   0.955   2.677
 1401TIP3    H1 4167   4.351   0.921   2.682
 1401TIP3    H2 4168   4.219   0.920   2.756
 1402TIP3   OH2 4169   0.381   4.602   4.647
 1402TIP3    H1 4170   0.387   4.683   4.696
 1402TIP3    H2 4171   0.287   4.585   4.639
 1403TIP3   OH2 4172   3.982   6.454   0.410
 1403TIP3    H1 4173   4.077   6.452   0.420
 1403TIP3    H2 4174   3.962   6.374   0.361
 1404TIP3   OH2 4175   4.511   0.719   4.140
 1404TIP3    H1 4176   4.425   0.695   4.174
 1404TIP3    H2 4177   4.499   0.808   4.105
 1405TIP3   OH2 4178   6.940   5.511   0.245
 1405TIP3    H1 4179   6.898   5.434   0.285
 1405TIP3    H2 4180   6.998   5.545   0.314
 1406TIP3   OH2 4181   0.374   1.022   2.135
 1406TIP3    H1 4182   0.332   1.093   2.086
 1406TIP3    H2 4183   0.435   0.983   2.072
 1407TIP3   OH2 4184   1.975   2.285   2.143
 1407TIP3    H1 4185   2.008   2.196   2.153
 1407TIP3    H2 4186   2.022   2.337   2.209
 1408TIP3   OH2 4187   4.979   2.081   4.399
 1408TIP3    H1 4188   4.950   2.173   4.396
 1408TIP3    H2 4189   4.943   2.047   4.481
 1409TIP3   OH2 4190   1.670   5.794   2.710
 1409TIP3    H1 4191   1.655   5.812   2.617
 1409TIP3    H2 4192   1.694   5.878   2.748
 1410TIP3   OH2 4193   4.366   6.372   1.797
 1410TIP3    H1 4194   4.312   6.423   1.737
 1410TIP3    H2 4195   4.447   6.423   1.806
 1411TIP3   OH2 4196   3.733   6.551   0.456
 1411TIP3    H1 4197   3.821   6.518   0.472
 1411TIP3    H2 4198   3.699   6.496   0.385
 1412TIP3   OH2 4199   6.612   6.330   1.842
 1412TIP3    H1 4200   6.700   6.368   1.846
 1412TIP3    H2 4201   6.582   6.331   1.933
 1413TIP3   OH2 4202   2.624   6.815   5.467
 1413TIP3    H1 4203   2.640   6.834   5.559
 1413TIP3    H2 4204   2.614   6.720   5.462
 1414TIP3   OH2 4205   2.043   2.827   4.720
 1414TIP3    H1 4206   1.947   2.819   4.720
 1414TIP3    H2 4207   2.059   2.920   4.706
 1415TIP3   OH2 4208   0.653   1.961   1.817
 1415TIP3    H1 4209   0.651   1.872   1.782
 1415TIP3    H2 4210   0.744   1.974   1.843
 1416TIP3   OH2 4211   1.056   2.159   3.591
 1416TIP3    H1 4212   1.012   2.087   3.544
 1416TIP3    H2 4213   0.985   2.209   3.630
 1417TIP3   OH2 4214   7.111   5.602   4.895
 1417TIP3    H1 4215   7.023   5.565   4.906
 1417TIP3    H2 4216   7.155   5.584   4.978
 1418TIP3   OH2 4217   3.109   5.073   3.172
 1418TIP3    H1 4218   3.031   5.061   3.226
 1418TIP3    H2 4219   3.169   5.123   3.228
 1419TIP3   OH2 4220   2.276   3.687   4.517
 1419TIP3    H1 4221   2.350   3.721   4.568
 1419TIP3    H2 4222   2.199   3.732   4.552
 1420TIP3   OH2 4223   0.888   0.833   5.344
 1420TIP3    H1 4224   0.956   0.865   5.286
 1420TIP3    H2 4225   0.898   0.738   5.342
 1421TIP3   OH2 4226   4.306   4.659   5.809
 1421TIP3    H1 4227   4.230   4.638   5.863
 1421TIP3    H2 4228   4.309   4.588   5.744
 1422TIP3   OH2 4229   5.883   5.532   3.194
 1422TIP3    H1 4230   5.934   5.612   3.185
 1422TIP3    H2 4231   5.800   5.550   3.151
 1423TIP3   OH2 4232   4.695   3.034   0.023
 1423TIP3    H1 4233   4.630   3.072   0.082
 1423TIP3    H2 4234   4.778   3.073   0.050
 1424TIP3   OH2 4235   1.956   6.010   5.247
 1424TIP3    H1 4236   2.006   6.060   5.182
 1424TIP3    H2 4237   1.938   5.927   5.203
 1425TIP3   OH2 4238   1.784   5.970   0.591
 1425TIP3    H1 4239   1.854   5.927   0.542
 1425TIP3    H2 4240   1.740   6.026   0.527
 1426TIP3   OH2 4241   4.186   1.015   0.457
 1426TIP3    H1 4242   4.194   1.069   0.379
 1426TIP3    H2 4243   4.140   1.070   0.520
 1427TIP3   OH2 4244   3.685   6.733   3.715
 1427TIP3    H1 4245   3.765   6.680   3.713
 1427TIP3    H2 4246   3.709   6.811   3.765
 1428TIP3   OH2 4247   6.908   1.856   3.285
 1428TIP3    H1 4248   6.998   1.824   3.294
 1428TIP3    H2 4249   6.887   1.841   3.193
 1429TIP3   OH2 4250   5.209   4.645   3.697
 1429TIP3    H1 4251   5.267   4.570   3.708
 1429TIP3    H2 4252   5.263   4.720   3.722
 1430TIP3   OH2 4253   1.184   2.461   2.373
 1430TIP3    H1 4254   1.241   2.535   2.393
 1430TIP3    H2 4255   1.239   2.384   2.384
 1431TIP3   OH2 4256   5.281   1.469   2.496
 1431TIP3    H1 4257   5.204   1.414   2.477
 1431TIP3    H2 4258   5.275   1.486   2.590
 1432TIP3   OH2 4259   6.103   1.952   4.742
 1432TIP3    H1 4260   6.026   1.945   4.686
 1432TIP3    H2 4261   6.104   2.042   4.772
 1433TIP3   OH2 4262   5.410   0.437   2.990
 1433TIP3    H1 4263   5.388   0.383   3.066
 1433TIP3    H2 4264   5.384   0.525   3.015
 1434TIP3   OH2 4265   3.786   2.652   4.538
 1434TIP3    H1 4266   3.692   2.667   4.542
 1434TIP3    H2 4267   3.815   2.703   4.462
 1435TIP3   OH2 4268   1.228   3.993   2.354
 1435TIP3    H1 4269   1.308   3.986   2.406
 1435TIP3    H2 4270   1.206   4.086   2.357
 1436TIP3   OH2 4271   3.670   4.201   2.853
 1436TIP3    H1 4272   3.738   4.135   2.841
 1436TIP3    H2 4273   3.591   4.162   2.817
 1437TIP3   OH2 4274   5.682   2.672   2.409
 1437TIP3    H1 4275   5.710   2.695   2.498
 1437TIP3    H2 4276   5.763   2.667   2.358
 1438TIP3   OH2 4277   0.484   1.064   0.314
 1438TIP3    H1 4278   0.526   1.122   0.251
 1438TIP3    H2 4279   0.395   1.053   0.281
 1439TIP3   OH2 4280   6.546   6.717   5.791
 1439TIP3    H1 4281   6.529   6.803   5.753
 1439TIP3    H2 4282   6.548   6.733   5.886
 1440TIP3   OH2 4283   0.816   4.836   1.733
 1440TIP3    H1 4284   0.871   4.812   1.658
 1440TIP3    H2 4285   0.861   4.911   1.773
 1441TIP3   OH2 4286   2.203   6.419   5.099
 1441TIP3    H1 4287   2.278   6.367   5.128
 1441TIP3    H2 4288   2.161   6.448   5.179
 1442TIP3   OH2 4289   3.881   5.461   1.702
 1442TIP3    H1 4290   3.874   5.552   1.729
 1442TIP3    H2 4291   3.790   5.431   1.696
 1443TIP3   OH2 4292   1.492   6.337   2.859
 1443TIP3    H1 4293   1.525   6.288   2.784
 1443TIP3    H2 4294   1.566   6.390   2.887
 1444TIP3   OH2 4295   6.658   0.608   3.799
 1444TIP3    H1 4296   6.605   0.658   3.861
 1444TIP3    H2 4297   6.748   0.619   3.830
 1445TIP3   OH2 4298   5.759   3.745   5.481
 1445TIP3    H1 4299   5.699   3.683   5.441
 1445TIP3    H2 4300   5.708   3.787   5.550
 1446TIP3   OH2 4301   0.880   5.998   1.317
 1446TIP3    H1 4302   0.896   6.085   1.353
 1446TIP3    H2 4303   0.786   5.998   1.297
 1447TIP3   OH2 4304   2.468   6.007   4.192
 1447TIP3    H1 4305   2.413   5.993   4.268
 1447TIP3    H2 4306   2.409   5.996   4.117
 1448TIP3   OH2 4307   1.709   5.355   5.891
 1448TIP3    H1 4308   1.694   5.366   5.797
 1448TIP3    H2 4309   1.642   5.292   5.918
 1449TIP3   OH2 4310   4.690   2.197   4.659
 1449TIP3    H1 4311   4.643   2.239   4.588
 1449TIP3    H2 4312   4.673   2.253   4.735
 1450TIP3   OH2 4313   1.822   2.220   5.835
 1450TIP3    H1 4314   1.804   2.292   5.776
 1450TIP3    H2 4315   1.821   2.142   5.779
 1451TIP3   OH2 4316   2.104   1.311   4.055
 1451TIP3    H1 4317   2.164   1.270   3.993
 1451TIP3    H2 4318   2.139   1.286   4.141
 1452TIP3   OH2 4319   6.628   1.464   3.729
 1452TIP3    H1 4320   6.638   1.551   3.690
 1452TIP3    H2 4321   6.672   1.405   3.669
 1453TIP3   OH2 4322   2.282   4.334   3.297
 1453TIP3    H1 4323   2.218   4.303   3.361
 1453TIP3    H2 4324   2.361   4.349   3.348
 1454TIP3   OH2 4325   6.656   3.656   3.916
 1454TIP3    H1 4326   6.627   3.739   3.953
 1454TIP3    H2 4327   6.732   3.680   3.861
 1455TIP3   OH2 4328   0.748   0.610   2.015
 1455TIP3    H1 4329   0.842   0.619   2.026
 1455TIP3    H2 4330   0.729   0.519   2.035
 1456TIP3   OH2 4331   3.656   5.831   4.981
 1456TIP3    H1 4332   3.610   5.769   4.925
 1456TIP3    H2 4333   3.731   5.860   4.930
 1457TIP3   OH2 4334   2.906   4.486   1.101
 1457TIP3    H1 4335   2.879   4.419   1.038
 1457TIP3    H2 4336   2.849   4.560   1.083
 1458TIP3   OH2 4337   2.108   3.363   5.283
 1458TIP3    H1 4338   2.183   3.423   5.286
 1458TIP3    H2 4339   2.129   3.302   5.213
 1459TIP3   OH2 4340   5.043   6.343   4.384
 1459TIP3    H1 4341   4.955   6.349   4.349
 1459TIP3    H2 4342   5.042   6.265   4.439
 1460TIP3   OH2 4343   5.775   3.437   2.842
 1460TIP3    H1 4344   5.747   3.346   2.851
 1460TIP3    H2 4345   5.856   3.432   2.791
 1461TIP3   OH2 4346   6.600   3.056   3.077
 1461TIP3    H1 4347   6.511   3.030   3.056
 1461TIP3    H2 4348   6.596   3.151   3.088
 1462TIP3   OH2 4349   1.832   5.725   5.707
 1462TIP3    H1 4350   1.791   5.769   5.782
 1462TIP3    H2 4351   1.863   5.642   5.743
 1463TIP3   OH2 4352   0.178   2.965   4.279
 1463TIP3    H1 4353   0.233   3.043   4.279
 1463TIP3    H2 4354   0.089   2.999   4.290
 1464TIP3   OH2 4355   6.934   3.920   1.099
 1464TIP3    H1 4356   6.917   3.893   1.009
 1464TIP3    H2 4357   6.917   3.842   1.152
 1465TIP3   OH2 4358   0.546   1.618   2.761
 1465TIP3    H1 4359   0.584   1.593   2.677
 1465TIP3    H2 4360   0.619   1.614   2.822
 1466TIP3   OH2 4361   3.325   1.830   2.723
 1466TIP3    H1 4362   3.287   1.835   2.636
 1466TIP3    H2 4363   3.364   1.743   2.727
 1467TIP3   OH2 4364   5.411   6.416   0.279
 1467TIP3    H1 4365   5.382   6.449   0.365
 1467TIP3    H2 4366   5.329   6.401   0.231
 1468TIP3   OH2 4367   1.101   3.841   0.996
 1468TIP3    H1 4368   1.184   3.860   0.953
 1468TIP3    H2 4369   1.126   3.805   1.081
 1469TIP3   OH2 4370   5.064   3.883   4.083
 1469TIP3    H1 4371   5.141   3.893   4.138
 1469TIP3    H2 4372   5.087   3.927   4.001
 1470TIP3   OH2 4373   0.282   6.535   2.593
 1470TIP3    H1 4374   0.356   6.495   2.548
 1470TIP3    H2 4375   0.272   6.484   2.673
 1471TIP3   OH2 4376   1.604   4.350   3.847
 1471TIP3    H1 4377   1.675   4.287   3.845
 1471TIP3    H2 4378   1.641   4.430   3.810
 1472TIP3   OH2 4379   1.806   1.058   5.575
 1472TIP3    H1 4380   1.740   1.092   5.635
 1472TIP3    H2 4381   1.856   1.135   5.548
 1473TIP3   OH2 4382   1.464   1.097   4.947
 1473TIP3    H1 4383   1.467   1.088   4.852
 1473TIP3    H2 4384   1.425   1.015   4.978
 1474TIP3   OH2 4385   3.122   0.148   1.523
 1474TIP3    H1 4386   3.089   0.212   1.585
 1474TIP3    H2 4387   3.071   0.162   1.443
 1475TIP3   OH2 4388   0.627   0.553   5.588
 1475TIP3    H1 4389   0.595   0.638   5.619
 1475TIP3    H2 4390   0.575   0.489   5.636
 1476TIP3   OH2 4391   6.864   0.951   1.922
 1476TIP3    H1 4392   6.890   0.870   1.878
 1476TIP3    H2 4393   6.885   1.020   1.860
 1477TIP3   OH2 4394   0.322   4.678   3.670
 1477TIP3    H1 4395   0.403   4.730   3.667
 1477TIP3    H2 4396   0.270   4.719   3.739
 1478TIP3   OH2 4397   6.797   4.493   2.699
 1478TIP3    H1 4398   6.702   4.509   2.703
 1478TIP3    H2 4399   6.807   4.404   2.734
 1479TIP3   OH2 4400   7.023   1.557   3.175
 1479TIP3    H1 4401   7.050   1.469   3.148
 1479TIP3    H2 4402   6.946   1.576   3.123
 1480TIP3   OH2 4403   4.971   0.972   1.504
 1480TIP3    H1 4404   4.993   0.909   1.434
 1480TIP3    H2 4405   4.965   1.056   1.459
 1481TIP3   OH2 4406   0.548   4.221   2.287
 1481TIP3    H1 4407   0.551   4.311   2.320
 1481TIP3    H2 4408   0.634   4.206   2.249
 1482TIP3   OH2 4409   0.493   5.451   0.442
 1482TIP3    H1 4410   0.455   5.402   0.515
 1482TIP3    H2 4411   0.519   5.535   0.480
 1483TIP3   OH2 4412   4.455   1.172   5.084
 1483TIP3    H1 4413   4.485   1.082   5.097
 1483TIP3    H2 4414   4.485   1.218   5.162
 1484TIP3   OH2 4415   2.386   5.801   2.961
 1484TIP3    H1 4416   2.373   5.862   3.034
 1484TIP3    H2 4417   2.398   5.858   2.884
 1485TIP3   OH2 4418   0.570   1.652   4.315
 1485TIP3    H1 4419   0.549   1.667   4.407
 1485TIP3    H2 4420   0.487   1.623   4.276
 1486TIP3   OH2 4421   4.167   5.710   2.762
 1486TIP3    H1 4422   4.219   5.781   2.723
 1486TIP3    H2 4423   4.185   5.634   2.706
 1487TIP3   OH2 4424   2.373   2.778   4.374
 1487TIP3    H1 4425   2.286   2.737   4.377
 1487TIP3    H2 4426   2.376   2.832   4.453
 1488TIP3   OH2 4427   3.657   6.240   1.092
 1488TIP3    H1 4428   3.720   6.180   1.133
 1488TIP3    H2 4429   3.661   6.319   1.146
 1489TIP3   OH2 4430   3.921   2.006   1.731
 1489TIP3    H1 4431   4.007   2.017   1.771
 1489TIP3    H2 4432   3.914   2.077   1.667
 1490TIP3   OH2 4433   7.011   2.087   3.473
 1490TIP3    H1 4434   6.990   2.004   3.432
 1490TIP3    H2 4435   6.937   2.144   3.451
 1491TIP3   OH2 4436   5.305   3.373   1.137
 1491TIP3    H1 4437   5.245   3.391   1.208
 1491TIP3    H2 4438   5.266   3.416   1.061
 1492TIP3   OH2 4439   1.904   3.523   5.173
 1492TIP3    H1 4440   1.949   3.454   5.221
 1492TIP3    H2 4441   1.863   3.478   5.099
 1493TIP3   OH2 4442   1.538   0.510   4.293
 1493TIP3    H1 4443   1.459   0.455   4.283
 1493TIP3    H2 4444   1.550   0.517   4.387
 1494TIP3   OH2 4445   6.135   5.127   2.369
 1494TIP3    H1 4446   6.105   5.055   2.313
 1494TIP3    H2 4447   6.108   5.206   2.323
 1495TIP3   OH2 4448   5.166   2.967   1.322
 1495TIP3    H1 4449   5.078   3.000   1.343
 1495TIP3    H2 4450   5.161   2.943   1.229
 1496TIP3   OH2 4451   6.228   5.664   2.558
 1496TIP3    H1 4452   6.318   5.662   2.592
 1496TIP3    H2 4453   6.237   5.705   2.472
 1497TIP3   OH2 4454   2.709   0.321   0.149
 1497TIP3    H1 4455   2.764   0.338   0.072
 1497TIP3    H2 4456   2.680   0.231   0.139
 1498TIP3   OH2 4457   1.492   3.674   5.420
 1498TIP3    H1 4458   1.443   3.695   5.340
 1498TIP3    H2 4459   1.567   3.623   5.389
 1499TIP3   OH2 4460   5.937   6.298   2.355
 1499TIP3    H1 4461   5.879   6.240   2.403
 1499TIP3    H2 4462   5.980   6.242   2.290
 1500TIP3   OH2 4463   0.090   3.584   1.678
 1500TIP3    H1 4464   0.160   3.601   1.741
 1500TIP3    H2 4465   0.036   3.663   1.681
 1501TIP3   OH2 4466   1.867   6.594   2.345
 1501TIP3    H1 4467   1.896   6.676   2.385
 1501TIP3    H2 4468   1.785   6.572   2.390
 1502TIP3   OH2 4469   3.217   1.459   2.399
 1502TIP3    H1 4470   3.217   1.528   2.333
 1502TIP3    H2 4471   3.136   1.411   2.384
 1503TIP3   OH2 4472   5.092   3.516   1.751
 1503TIP3    H1 4473   5.025   3.513   1.682
 1503TIP3    H2 4474   5.102   3.609   1.770
 1504TIP3   OH2 4475   6.713   5.716   3.551
 1504TIP3    H1 4476   6.784   5.778   3.537
 1504TIP3    H2 4477   6.757   5.633   3.570
 1505TIP3   OH2 4478   4.914   5.858   3.647
 1505TIP3    H1 4479   4.822   5.884   3.654
 1505TIP3    H2 4480   4.961   5.920   3.702
 1506TIP3   OH2 4481   2.929   3.560   1.872
 1506TIP3    H1 4482   2.988   3.486   1.889
 1506TIP3    H2 4483   2.942   3.619   1.947
 1507TIP3   OH2 4484   0.663   4.727   1.135
 1507TIP3    H1 4485   0.694   4.760   1.219
 1507TIP3    H2 4486   0.710   4.644   1.123
 1508TIP3   OH2 4487   2.554   5.013   0.772
 1508TIP3    H1 4488   2.644   4.997   0.801
 1508TIP3    H2 4489   2.518   5.073   0.837
 1509TIP3   OH2 4490   0.757   6.362   2.685
 1509TIP3    H1 4491   0.733   6.362   2.777
 1509TIP3    H2 4492   0.807   6.282   2.672
 1510TIP3   OH2 4493   3.478   2.174   3.041
 1510TIP3    H1 4494   3.427   2.099   3.071
 1510TIP3    H2 4495   3.443   2.248   3.090
 1511TIP3   OH2 4496   1.131   4.160   4.153
 1511TIP3    H1 4497   1.089   4.245   4.145
 1511TIP3    H2 4498   1.223   4.177   4.130
 1512TIP3   OH2 4499   6.564   5.213   5.331
 1512TIP3    H1 4500   6.570   5.123   5.299
 1512TIP3    H2 4501   6.527   5.204   5.419
 1513TIP3   OH2 4502   1.562   4.400   4.136
 1513TIP3    H1 4503   1.589   4.392   4.045
 1513TIP3    H2 4504   1.510   4.480   4.138
 1514TIP3   OH2 4505   1.544   0.609   4.947
 1514TIP3    H1 4506   1.588   0.526   4.928
 1514TIP3    H2 4507   1.456   0.598   4.912
 1515TIP3   OH2 4508   3.353   6.235   4.114
 1515TIP3    H1 4509   3.347   6.329   4.132
 1515TIP3    H2 4510   3.418   6.228   4.044
 1516TIP3   OH2 4511   0.824   2.278   1.856
 1516TIP3    H1 4512   0.833   2.184   1.838
 1516TIP3    H2 4513   0.760   2.308   1.792
 1517TIP3   OH2 4514   5.092   3.346   3.529
 1517TIP3    H1 4515   5.035   3.409   3.573
 1517TIP3    H2 4516   5.111   3.280   3.596
 1518TIP3   OH2 4517   1.949   6.656   3.461
 1518TIP3    H1 4518   1.895   6.710   3.519
 1518TIP3    H2 4519   2.025   6.711   3.440
 1519TIP3   OH2 4520   3.395   3.483   4.690
 1519TIP3    H1 4521   3.439   3.411   4.736
 1519TIP3    H2 4522   3.435   3.484   4.604
 1520TIP3   OH2 4523   4.920   0.295   1.968
 1520TIP3    H1 4524   4.933   0.225   1.904
 1520TIP3    H2 4525   4.829   0.287   1.995
 1521TIP3   OH2 4526   4.528   6.797   4.665
 1521TIP3    H1 4527   4.570   6.766   4.745
 1521TIP3    H2 4528   4.441   6.825   4.692
 1522TIP3   OH2 4529   4.850   2.012   3.707
 1522TIP3    H1 4530   4.775   2.070   3.698
 1522TIP3    H2 4531   4.813   1.927   3.733
 1523TIP3   OH2 4532   1.032   2.590   3.629
 1523TIP3    H1 4533   1.088   2.514   3.611
 1523TIP3    H2 4534   1.093   2.657   3.661
 1524TIP3   OH2 4535   2.410   3.205   5.824
 1524TIP3    H1 4536   2.477   3.182   5.888
 1524TIP3    H2 4537   2.353   3.268   5.870
 1525TIP3   OH2 4538   1.519   0.893   2.420
 1525TIP3    H1 4539   1.490   0.824   2.360
 1525TIP3    H2 4540   1.473   0.971   2.391
 1526TIP3   OH2 4541   1.704   3.456   1.996
 1526TIP3    H1 4542   1.721   3.489   2.084
 1526TIP3    H2 4543   1.683   3.535   1.945
 1527TIP3   OH2 4544   0.246   6.434   4.570
 1527TIP3    H1 4545   0.302   6.500   4.529
 1527TIP3    H2 4546   0.252   6.358   4.513
 1528TIP3   OH2 4547   4.624   4.682   4.896
 1528TIP3    H1 4548   4.680   4.681   4.975
 1528TIP3    H2 4549   4.579   4.598   4.898
 1529TIP3   OH2 4550   5.486   0.457   5.203
 1529TIP3    H1 4551   5.463   0.412   5.284
 1529TIP3    H2 4552   5.406   0.506   5.180
 1530TIP3   OH2 4553   2.828   4.377   2.285
 1530TIP3    H1 4554   2.894   4.318   2.321
 1530TIP3    H2 4555   2.749   4.323   2.278
 1531TIP3   OH2 4556   6.588   2.826   2.279
 1531TIP3    H1 4557   6.588   2.889   2.208
 1531TIP3    H2 4558   6.590   2.741   2.235
 1532TIP3   OH2 4559   1.857   4.968   3.963
 1532TIP3    H1 4560   1.937   4.916   3.964
 1532TIP3    H2 4561   1.812   4.940   3.883
 1533TIP3   OH2 4562   1.476   1.578   1.579
 1533TIP3    H1 4563   1.533   1.654   1.570
 1533TIP3    H2 4564   1.504   1.518   1.509
 1534TIP3   OH2 4565   2.458   0.572   3.815
 1534TIP3    H1 4566   2.535   0.536   3.860
 1534TIP3    H2 4567   2.467   0.540   3.725
 1535TIP3   OH2 4568   2.895   5.152   5.721
 1535TIP3    H1 4569   2.895   5.129   5.628
 1535TIP3    H2 4570   2.927   5.242   5.723
 1536TIP3   OH2 4571   6.375   2.923   2.408
 1536TIP3    H1 4572   6.466   2.893   2.406
 1536TIP3    H2 4573   6.323   2.845   2.388
 1537TIP3   OH2 4574   2.916   4.287   0.051
 1537TIP3    H1 4575   2.843   4.257  -0.003
 1537TIP3    H2 4576   2.940   4.372   0.014
 1538TIP3   OH2 4577   3.273   6.563   1.782
 1538TIP3    H1 4578   3.275   6.536   1.691
 1538TIP3    H2 4579   3.364   6.558   1.811
 1539TIP3   OH2 4580   2.999   2.821   3.464
 1539TIP3    H1 4581   2.995   2.870   3.546
 1539TIP3    H2 4582   2.913   2.781   3.455
 1540TIP3   OH2 4583   7.169   3.262   1.980
 1540TIP3    H1 4584   7.262   3.284   1.974
 1540TIP3    H2 4585   7.133   3.327   2.040
 1541TIP3   OH2 4586   3.245   2.609   2.623
 1541TIP3    H1 4587   3.258   2.679   2.687
 1541TIP3    H2 4588   3.159   2.626   2.586
 1542TIP3   OH2 4589   3.933   6.271   2.610
 1542TIP3    H1 4590   3.871   6.218   2.660
 1542TIP3    H2 4591   3.967   6.212   2.543
 1543TIP3   OH2 4592   3.688   0.242   0.105
 1543TIP3    H1 4593   3.761   0.265   0.162
 1543TIP3    H2 4594   3.715   0.159   0.064
 1544TIP3   OH2 4595   4.618   6.254   5.505
 1544TIP3    H1 4596   4.602   6.245   5.599
 1544TIP3    H2 4597   4.616   6.164   5.471
 1545TIP3   OH2 4598   0.857   4.883   3.986
 1545TIP3    H1 4599   0.809   4.812   4.028
 1545TIP3    H2 4600   0.949   4.856   3.989
 1546TIP3   OH2 4601   3.681   1.848   5.361
 1546TIP3    H1 4602   3.608   1.814   5.309
 1546TIP3    H2 4603   3.760   1.823   5.312
 1547TIP3   OH2 4604   5.205   3.091   5.721
 1547TIP3    H1 4605   5.231   3.143   5.645
 1547TIP3    H2 4606   5.230   3.001   5.699
 1548TIP3   OH2 4607   0.108   3.166   5.116
 1548TIP3    H1 4608   0.105   3.102   5.187
 1548TIP3    H2 4609   0.199   3.197   5.116
 1549TIP3   OH2 4610   2.193   5.254   1.043
 1549TIP3    H1 4611   2.206   5.311   0.967
 1549TIP3    H2 4612   2.098   5.251   1.055
 1550TIP3   OH2 4613   6.539   1.219   1.856
 1550TIP3    H1 4614   6.445   1.202   1.851
 1550TIP3    H2 4615   6.578   1.164   1.788
 1551TIP3   OH2 4616   3.763   6.577   2.507
 1551TIP3    H1 4617   3.722   6.490   2.508
 1551TIP3    H2 4618   3.713   6.628   2.570
 1552TIP3   OH2 4619   5.388   3.982   3.608
 1552TIP3    H1 4620   5.431   3.993   3.523
 1552TIP3    H2 4621   5.440   4.035   3.669
 1553TIP3   OH2 4622   0.949   5.329   2.522
 1553TIP3    H1 4623   0.955   5.256   2.584
 1553TIP3    H2 4624   1.024   5.384   2.543
 1554TIP3   OH2 4625   1.530   5.699   1.264
 1554TIP3    H1 4626   1.453   5.750   1.291
 1554TIP3    H2 4627   1.541   5.633   1.333
 1555TIP3   OH2 4628   1.652   4.484   1.319
 1555TIP3    H1 4629   1.651   4.469   1.225
 1555TIP3    H2 4630   1.572   4.535   1.336
 1556TIP3   OH2 4631   3.396   2.824   5.592
 1556TIP3    H1 4632   3.410   2.763   5.519
 1556TIP3    H2 4633   3.414   2.910   5.555
 1557TIP3   OH2 4634   3.753   0.544   0.074
 1557TIP3    H1 4635   3.757   0.558   0.168
 1557TIP3    H2 4636   3.728   0.452   0.064
 1558TIP3   OH2 4637   3.263   4.619   1.555
 1558TIP3    H1 4638   3.207   4.541   1.554
 1558TIP3    H2 4639   3.351   4.586   1.575
 1559TIP3   OH2 4640   4.864   0.816   1.842
 1559TIP3    H1 4641   4.817   0.897   1.824
 1559TIP3    H2 4642   4.831   0.755   1.775
 1560TIP3   OH2 4643   6.118   6.197   2.158
 1560TIP3    H1 4644   6.089   6.111   2.131
 1560TIP3    H2 4645   6.214   6.194   2.152
 1561TIP3   OH2 4646   3.780   2.151   5.120
 1561TIP3    H1 4647   3.841   2.077   5.109
 1561TIP3    H2 4648   3.761   2.179   5.031
 1562TIP3   OH2 4649   1.820   3.467   2.528
 1562TIP3    H1 4650   1.878   3.392   2.518
 1562TIP3    H2 4651   1.780   3.479   2.442
 1563TIP3   OH2 4652   4.997   5.173   3.066
 1563TIP3    H1 4653   4.960   5.189   2.979
 1563TIP3    H2 4654   5.042   5.089   3.058
 1564TIP3   OH2 4655   3.278   5.351   4.835
 1564TIP3    H1 4656   3.249   5.376   4.748
 1564TIP3    H2 4657   3.337   5.278   4.821
 1565TIP3   OH2 4658   3.190   4.696   5.154
 1565TIP3    H1 4659   3.165   4.659   5.069
 1565TIP3    H2 4660   3.111   4.740   5.185
 1566TIP3   OH2 4661   5.364   5.691   2.031
 1566TIP3    H1 4662   5.360   5.721   2.122
 1566TIP3    H2 4663   5.275   5.703   1.998
 1567TIP3   OH2 4664   2.873   3.470   1.260
 1567TIP3    H1 4665   2.961   3.437   1.277
 1567TIP3    H2 4666   2.884   3.535   1.191
 1568TIP3   OH2 4667   4.036   5.644   2.973
 1568TIP3    H1 4668   4.104   5.602   3.025
 1568TIP3    H2 4669   4.077   5.658   2.888
 1569TIP3   OH2 4670   5.040   1.125   3.792
 1569TIP3    H1 4671   5.130   1.092   3.792
 1569TIP3    H2 4672   5.004   1.099   3.707
 1570TIP3   OH2 4673   0.227   0.222   5.816
 1570TIP3    H1 4674   0.220   0.271   5.898
 1570TIP3    H2 4675   0.172   0.270   5.754
 1571TIP3   OH2 4676   6.321   5.677   1.627
 1571TIP3    H1 4677   6.316   5.667   1.532
 1571TIP3    H2 4678   6.254   5.617   1.661
 1572TIP3   OH2 4679   3.369   3.385   0.448
 1572TIP3    H1 4680   3.286   3.385   0.495
 1572TIP3    H2 4681   3.367   3.306   0.395
 1573TIP3   OH2 4682   0.987   6.501   5.062
 1573TIP3    H1 4683   1.058   6.562   5.085
 1573TIP3    H2 4684   1.026   6.443   4.997
 1574TIP3   OH2 4685   6.188   3.524   2.558
 1574TIP3    H1 4686   6.195   3.557   2.469
 1574TIP3    H2 4687   6.100   3.548   2.587
 1575TIP3   OH2 4688   1.908   2.225   0.301
 1575TIP3    H1 4689   1.875   2.136   0.302
 1575TIP3    H2 4690   2.003   2.216   0.300
 1576TIP3   OH2 4691   4.517   0.697   3.519
 1576TIP3    H1 4692   4.443   0.638   3.505
 1576TIP3    H2 4693   4.551   0.674   3.605
 1577TIP3   OH2 4694   5.207   5.059   4.594
 1577TIP3    H1 4695   5.173   5.089   4.678
 1577TIP3    H2 4696   5.129   5.033   4.545
 1578TIP3   OH2 4697   4.125   1.153   5.116
 1578TIP3    H1 4698   4.133   1.090   5.187
 1578TIP3    H2 4699   4.214   1.184   5.101
 1579TIP3   OH2 4700   6.774   4.617   0.421
 1579TIP3    H1 4701   6.722   4.695   0.442
 1579TIP3    H2 4702   6.767   4.562   0.500
 1580TIP3   OH2 4703   2.083   5.094   2.373
 1580TIP3    H1 4704   2.107   5.010   2.334
 1580TIP3    H2 4705   1.991   5.083   2.399
 1581TIP3   OH2 4706   1.065   3.781   3.571
 1581TIP3    H1 4707   1.138   3.753   3.516
 1581TIP3    H2 4708   1.093   3.864   3.608
 1582TIP3   OH2 4709   5.794   6.750   0.475
 1582TIP3    H1 4710   5.803   6.836   0.515
 1582TIP3    H2 4711   5.778   6.767   0.383
 1583TIP3   OH2 4712   2.380   5.257   0.475
 1583TIP3    H1 4713   2.408   5.174   0.437
 1583TIP3    H2 4714   2.441   5.322   0.439
 1584TIP3   OH2 4715   4.642   5.445   3.406
 1584TIP3    H1 4716   4.725   5.424   3.363
 1584TIP3    H2 4717   4.589   5.366   3.395
 1585TIP3   OH2 4718   2.065   4.823   1.648
 1585TIP3    H1 4719   2.139   4.839   1.706
 1585TIP3    H2 4720   2.073   4.890   1.580
 1586TIP3   OH2 4721   0.404   0.187   1.654
 1586TIP3    H1 4722   0.384   0.174   1.562
 1586TIP3    H2 4723   0.326   0.156   1.701
 1587TIP3   OH2 4724   1.041   2.298   3.882
 1587TIP3    H1 4725   0.992   2.320   3.803
 1587TIP3    H2 4726   1.012   2.209   3.904
 1588TIP3   OH2 4727   2.876   1.302   0.147
 1588TIP3    H1 4728   2.801   1.341   0.103
 1588TIP3    H2 4729   2.839   1.249   0.217
 1589TIP3   OH2 4730   2.713   3.974   5.482
 1589TIP3    H1 4731   2.674   3.910   5.542
 1589TIP3    H2 4732   2.747   4.043   5.539
 1590TIP3   OH2 4733   0.949   0.586   3.367
 1590TIP3    H1 4734   0.899   0.505   3.380
 1590TIP3    H2 4735   0.889   0.656   3.393
 1591TIP3   OH2 4736   3.685   1.710   2.779
 1591TIP3    H1 4737   3.672   1.796   2.739
 1591TIP3    H2 4738   3.768   1.679   2.744
 1592TIP3   OH2 4739   5.939   3.129   0.602
 1592TIP3    H1 4740   5.866   3.069   0.615
 1592TIP3    H2 4741   5.904   3.198   0.546
 1593TIP3   OH2 4742   4.428   3.038   2.702
 1593TIP3    H1 4743   4.352   3.054   2.758
 1593TIP3    H2 4744   4.485   2.981   2.754
 1594TIP3   OH2 4745   0.383   0.848   4.447
 1594TIP3    H1 4746   0.317   0.781   4.467
 1594TIP3    H2 4747   0.390   0.846   4.352
 1595TIP3   OH2 4748   2.988   2.112   2.935
 1595TIP3    H1 4749   3.070   2.063   2.940
 1595TIP3    H2 4750   2.971   2.121   2.841
 1596TIP3   OH2 4751   1.389   3.892   3.218
 1596TIP3    H1 4752   1.482   3.892   3.197
 1596TIP3    H2 4753   1.358   3.806   3.189
 1597TIP3   OH2 4754   4.448   1.535   5.169
 1597TIP3    H1 4755   4.370   1.579   5.203
 1597TIP3    H2 4756   4.456   1.456   5.224
 1598TIP3   OH2 4757   5.496   0.294   0.851
 1598TIP3    H1 4758   5.532   0.240   0.780
 1598TIP3    H2 4759   5.436   0.236   0.897
 1599TIP3   OH2 4760   0.571   3.738   2.665
 1599TIP3    H1 4761   0.653   3.693   2.646
 1599TIP3    H2 4762   0.576   3.757   2.759
 1600TIP3   OH2 4763   2.880   0.305   4.987
 1600TIP3    H1 4764   2.905   0.217   4.960
 1600TIP3    H2 4765   2.939   0.325   5.059
 1601TIP3   OH2 4766   3.801   1.307   4.643
 1601TIP3    H1 4767   3.869   1.301   4.576
 1601TIP3    H2 4768   3.796   1.401   4.664
 1602TIP3   OH2 4769   6.126   0.832   1.485
 1602TIP3    H1 4770   6.173   0.916   1.488
 1602TIP3    H2 4771   6.036   0.855   1.509
 1603TIP3   OH2 4772   3.138   5.033   2.244
 1603TIP3    H1 4773   3.112   4.984   2.322
 1603TIP3    H2 4774   3.059   5.034   2.190
 1604TIP3   OH2 4775   2.445   0.960   0.459
 1604TIP3    H1 4776   2.516   0.980   0.519
 1604TIP3    H2 4777   2.366   0.987   0.506
 1605TIP3   OH2 4778   3.825   3.340   4.348
 1605TIP3    H1 4779   3.876   3.409   4.306
 1605TIP3    H2 4780   3.858   3.258   4.310
 1606TIP3   OH2 4781   1.154   2.523   0.533
 1606TIP3    H1 4782   1.131   2.598   0.587
 1606TIP3    H2 4783   1.247   2.509   0.550
 1607TIP3   OH2 4784   5.887   1.930   4.576
 1607TIP3    H1 4785   5.849   1.944   4.490
 1607TIP3    H2 4786   5.816   1.947   4.638
 1608TIP3   OH2 4787   5.905   3.766   5.123
 1608TIP3    H1 4788   5.932   3.683   5.083
 1608TIP3    H2 4789   5.985   3.819   5.123
 1609TIP3   OH2 4790   4.493   3.475   0.658
 1609TIP3    H1 4791   4.475   3.518   0.574
 1609TIP3    H2 4792   4.494   3.547   0.721
 1610TIP3   OH2 4793   0.719   5.324   4.697
 1610TIP3    H1 4794   0.662   5.256   4.660
 1610TIP3    H2 4795   0.760   5.283   4.773
 1611TIP3   OH2 4796   5.112   1.195   4.584
 1611TIP3    H1 4797   5.124   1.261   4.517
 1611TIP3    H2 4798   5.168   1.122   4.556
 1612TIP3   OH2 4799   1.499   5.361   0.602
 1612TIP3    H1 4800   1.451   5.435   0.565
 1612TIP3    H2 4801   1.432   5.307   0.643
 1613TIP3   OH2 4802   1.028   3.266   2.189
 1613TIP3    H1 4803   1.073   3.295   2.268
 1613TIP3    H2 4804   0.937   3.294   2.201
 1614TIP3   OH2 4805   2.666   4.197   3.631
 1614TIP3    H1 4806   2.639   4.107   3.609
 1614TIP3    H2 4807   2.739   4.186   3.691
 1615TIP3   OH2 4808   4.139   1.610   2.048
 1615TIP3    H1 4809   4.067   1.672   2.058
 1615TIP3    H2 4810   4.176   1.629   1.963
 1616TIP3   OH2 4811   5.085   5.879   1.550
 1616TIP3    H1 4812   5.157   5.827   1.585
 1616TIP3    H2 4813   5.080   5.855   1.457
 1617TIP3   OH2 4814   2.444   0.881   4.445
 1617TIP3    H1 4815   2.536   0.863   4.466
 1617TIP3    H2 4816   2.445   0.899   4.351
 1618TIP3   OH2 4817   2.141   2.446   2.713
 1618TIP3    H1 4818   2.212   2.510   2.708
 1618TIP3    H2 4819   2.149   2.407   2.800
 1619TIP3   OH2 4820   6.235   3.181   3.334
 1619TIP3    H1 4821   6.198   3.132   3.260
 1619TIP3    H2 4822   6.244   3.270   3.302
 1620TIP3   OH2 4823   2.248   3.031   0.089
 1620TIP3    H1 4824   2.253   2.983   0.171
 1620TIP3    H2 4825   2.161   3.072   0.090
 1621TIP3   OH2 4826   0.310   4.411   2.157
 1621TIP3    H1 4827   0.251   4.365   2.096
 1621TIP3    H2 4828   0.380   4.445   2.101
 1622TIP3   OH2 4829   5.945   5.324   2.023
 1622TIP3    H1 4830   5.998   5.309   1.945
 1622TIP3    H2 4831   5.893   5.402   2.002
 1623TIP3   OH2 4832   5.477   2.249   2.272
 1623TIP3    H1 4833   5.456   2.292   2.189
 1623TIP3    H2 4834   5.467   2.318   2.338
 1624TIP3   OH2 4835   3.443   6.751   2.304
 1624TIP3    H1 4836   3.402   6.836   2.293
 1624TIP3    H2 4837   3.535   6.771   2.319
 1625TIP3   OH2 4838   0.799   4.666   3.785
 1625TIP3    H1 4839   0.770   4.633   3.870
 1625TIP3    H2 4840   0.877   4.718   3.806
 1626TIP3   OH2 4841   3.825   2.290   3.001
 1626TIP3    H1 4842   3.798   2.326   2.917
 1626TIP3    H2 4843   3.787   2.203   3.004
 1627TIP3   OH2 4844   1.356   1.070   2.206
 1627TIP3    H1 4845   1.401   1.155   2.201
 1627TIP3    H2 4846   1.265   1.090   2.184
 1628TIP3   OH2 4847   4.868   2.912   3.442
 1628TIP3    H1 4848   4.865   2.845   3.374
 1628TIP3    H2 4849   4.956   2.950   3.435
 1629TIP3   OH2 4850   7.079   5.908   3.077
 1629TIP3    H1 4851   7.168   5.878   3.055
 1629TIP3    H2 4852   7.088   5.943   3.166
 1630TIP3   OH2 4853   1.220   6.670   1.118
 1630TIP3    H1 4854   1.312   6.692   1.108
 1630TIP3    H2 4855   1.218   6.605   1.188
 1631TIP3   OH2 4856   5.397   5.474   1.430
 1631TIP3    H1 4857   5.328   5.417   1.465
 1631TIP3    H2 4858   5.417   5.437   1.344
 1632TIP3   OH2 4859   4.310   2.795   5.381
 1632TIP3    H1 4860   4.308   2.709   5.424
 1632TIP3    H2 4861   4.368   2.848   5.435
 1633TIP3   OH2 4862   6.857   1.818   1.195
 1633TIP3    H1 4863   6.868   1.747   1.258
 1633TIP3    H2 4864   6.928   1.878   1.214
 1634TIP3   OH2 4865   0.615   4.171   3.526
 1634TIP3    H1 4866   0.589   4.202   3.612
 1634TIP3    H2 4867   0.547   4.108   3.501
 1635TIP3   OH2 4868   6.260   5.338   2.037
 1635TIP3    H1 4869   6.263   5.394   2.114
 1635TIP3    H2 4870   6.308   5.387   1.970
 1636TIP3   OH2 4871   5.571   5.609   3.156
 1636TIP3    H1 4872   5.612   5.579   3.074
 1636TIP3    H2 4873   5.516   5.683   3.129
 1637TIP3   OH2 4874   1.426   2.715   3.338
 1637TIP3    H1 4875   1.469   2.630   3.329
 1637TIP3    H2 4876   1.359   2.715   3.270
 1638TIP3   OH2 4877   1.553   0.554   0.567
 1638TIP3    H1 4878   1.482   0.506   0.609
 1638TIP3    H2 4879   1.526   0.562   0.475
 1639TIP3   OH2 4880   1.266   2.525   4.427
 1639TIP3    H1 4881   1.356   2.508   4.455
 1639TIP3    H2 4882   1.267   2.512   4.332
 1640TIP3   OH2 4883   2.971   5.451   1.705
 1640TIP3    H1 4884   2.913   5.447   1.629
 1640TIP3    H2 4885   3.057   5.470   1.668
 1641TIP3   OH2 4886   6.474   1.291   4.869
 1641TIP3    H1 4887   6.418   1.274   4.944
 1641TIP3    H2 4888   6.416   1.332   4.805
 1642TIP3   OH2 4889   0.468   1.907   5.557
 1642TIP3    H1 4890   0.522   1.938   5.484
 1642TIP3    H2 4891   0.498   1.818   5.572
 1643TIP3   OH2 4892   2.872   3.108   5.428
 1643TIP3    H1 4893   2.910   3.180   5.479
 1643TIP3    H2 4894   2.781   3.134   5.415
 1644TIP3   OH2 4895   6.524   5.906   3.832
 1644TIP3    H1 4896   6.457   5.849   3.869
 1644TIP3    H2 4897   6.607   5.866   3.859
 1645TIP3   OH2 4898   0.723   4.234   1.075
 1645TIP3    H1 4899   0.796   4.176   1.053
 1645TIP3    H2 4900   0.649   4.175   1.089
 1646TIP3   OH2 4901   4.325   2.950   4.196
 1646TIP3    H1 4902   4.388   2.939   4.125
 1646TIP3    H2 4903   4.241   2.960   4.153
 1647TIP3   OH2 4904   7.073   1.684   5.892
 1647TIP3    H1 4905   7.058   1.729   5.974
 1647TIP3    H2 4906   7.003   1.618   5.888
 1648TIP3   OH2 4907   4.518   3.601   1.807
 1648TIP3    H1 4908   4.435   3.574   1.848
 1648TIP3    H2 4909   4.517   3.558   1.722
 1649TIP3   OH2 4910   7.097   6.806   1.602
 1649TIP3    H1 4911   7.028   6.769   1.547
 1649TIP3    H2 4912   7.053   6.871   1.656
 1650TIP3   OH2 4913   5.902   4.742   1.337
 1650TIP3    H1 4914   5.875   4.678   1.271
 1650TIP3    H2 4915   5.822   4.787   1.362
 1651TIP3   OH2 4916   4.731   3.362   3.988
 1651TIP3    H1 4917   4.714   3.274   3.954
 1651TIP3    H2 4918   4.736   3.351   4.083
 1652TIP3   OH2 4919   5.237   1.124   5.625
 1652TIP3    H1 4920   5.311   1.148   5.680
 1652TIP3    H2 4921   5.195   1.051   5.671
 1653TIP3   OH2 4922   3.131   3.393   1.227
 1653TIP3    H1 4923   3.183   3.430   1.155
 1653TIP3    H2 4924   3.190   3.391   1.301
 1654TIP3   OH2 4925   5.305   2.598   1.020
 1654TIP3    H1 4926   5.234   2.615   1.082
 1654TIP3    H2 4927   5.369   2.547   1.071
 1655TIP3   OH2 4928   3.487   4.084   0.374
 1655TIP3    H1 4929   3.511   4.125   0.291
 1655TIP3    H2 4930   3.415   4.138   0.408
 1656TIP3   OH2 4931   0.841   6.698   1.835
 1656TIP3    H1 4932   0.750   6.724   1.820
 1656TIP3    H2 4933   0.884   6.715   1.751
 1657TIP3   OH2 4934   6.388   1.652   3.807
 1657TIP3    H1 4935   6.448   1.582   3.832
 1657TIP3    H2 4936   6.391   1.714   3.880
 1658TIP3   OH2 4937   4.730   2.956   5.702
 1658TIP3    H1 4938   4.656   2.896   5.715
 1658TIP3    H2 4939   4.790   2.936   5.773
 1659TIP3   OH2 4940   3.790   1.918   0.184
 1659TIP3    H1 4941   3.741   1.955   0.258
 1659TIP3    H2 4942   3.870   1.883   0.224
 1660TIP3   OH2 4943   1.862   1.503   2.256
 1660TIP3    H1 4944   1.831   1.466   2.173
 1660TIP3    H2 4945   1.829   1.443   2.323
 1661TIP3   OH2 4946   2.492   3.150   2.610
 1661TIP3    H1 4947   2.545   3.111   2.541
 1661TIP3    H2 4948   2.539   3.129   2.691
 1662TIP3   OH2 4949   5.119   5.843   4.559
 1662TIP3    H1 4950   5.162   5.807   4.637
 1662TIP3    H2 4951   5.166   5.803   4.485
 1663TIP3   OH2 4952   3.348   0.093   4.272
 1663TIP3    H1 4953   3.437   0.128   4.269
 1663TIP3    H2 4954   3.317   0.115   4.360
 1664TIP3   OH2 4955   3.694   5.362   2.581
 1664TIP3    H1 4956   3.643   5.442   2.568
 1664TIP3    H2 4957   3.738   5.348   2.497
 1665TIP3   OH2 4958   6.430   0.173   2.886
 1665TIP3    H1 4959   6.448   0.083   2.912
 1665TIP3    H2 4960   6.337   0.186   2.903
 1666TIP3   OH2 4961   6.735   4.036   1.804
 1666TIP3    H1 4962   6.775   4.081   1.879
 1666TIP3    H2 4963   6.790   4.062   1.729
 1667TIP3   OH2 4964   3.017   2.253   5.154
 1667TIP3    H1 4965   2.988   2.261   5.063
 1667TIP3    H2 4966   3.039   2.342   5.180
 1668TIP3   OH2 4967   3.041   1.056   2.516
 1668TIP3    H1 4968   2.949   1.046   2.493
 1668TIP3    H2 4969   3.040   1.094   2.603
 1669TIP3   OH2 4970   1.569   0.797   1.767
 1669TIP3    H1 4971   1.639   0.860   1.747
 1669TIP3    H2 4972   1.588   0.722   1.712
 1670TIP3   OH2 4973   0.870   1.859   4.186
 1670TIP3    H1 4974   0.850   1.785   4.245
 1670TIP3    H2 4975   0.963   1.849   4.167
 1671TIP3   OH2 4976   6.942   2.709   4.450
 1671TIP3    H1 4977   6.907   2.685   4.536
 1671TIP3    H2 4978   6.927   2.633   4.395
 1672TIP3   OH2 4979   6.214   5.700   1.955
 1672TIP3    H1 4980   6.190   5.608   1.944
 1672TIP3    H2 4981   6.238   5.729   1.868
 1673TIP3   OH2 4982   2.365   1.112   1.151
 1673TIP3    H1 4983   2.298   1.043   1.147
 1673TIP3    H2 4984   2.414   1.101   1.069
 1674TIP3   OH2 4985   0.657   1.931   2.792
 1674TIP3    H1 4986   0.589   1.998   2.797
 1674TIP3    H2 4987   0.617   1.860   2.741
 1675TIP3   OH2 4988   1.834   0.445   5.669
 1675TIP3    H1 4989   1.909   0.504   5.662
 1675TIP3    H2 4990   1.766   0.488   5.617
 1676TIP3   OH2 4991   3.673   5.326   0.551
 1676TIP3    H1 4992   3.588   5.290   0.574
 1676TIP3    H2 4993   3.700   5.375   0.629
 1677TIP3   OH2 4994   3.001   1.904   1.800
 1677TIP3    H1 4995   3.048   1.827   1.833
 1677TIP3    H2 4996   3.043   1.923   1.716
 1678TIP3   OH2 4997   2.625   2.993   2.444
 1678TIP3    H1 4998   2.592   2.988   2.354
 1678TIP3    H2 4999   2.622   2.902   2.476
 1679TIP3   OH2 5000   1.143   5.517   1.007
 1679TIP3    H1 5001   1.114   5.569   0.932
 1679TIP3    H2 5002   1.104   5.561   1.082
 1680TIP3   OH2 5003   6.541   6.604   5.444
 1680TIP3    H1 5004   6.602   6.530   5.441
 1680TIP3    H2 5005   6.555   6.644   5.530
 1681TIP3   OH2 5006   6.984   1.378   4.559
 1681TIP3    H1 5007   7.014   1.288   4.545
 1681TIP3    H2 5008   7.018   1.426   4.483
 1682TIP3   OH2 5009   1.311   0.511   1.560
 1682TIP3    H1 5010   1.387   0.537   1.507
 1682TIP3    H2 5011   1.321   0.417   1.573
 1683TIP3   OH2 5012   7.218   2.176   3.992
 1683TIP3    H1 5013   7.123   2.189   3.994
 1683TIP3    H2 5014   7.251   2.253   3.947
 1684TIP3   OH2 5015   2.417   0.105   5.693
 1684TIP3    H1 5016   2.343   0.111   5.633
 1684TIP3    H2 5017   2.459   0.021   5.670
 1685TIP3   OH2 5018   1.137   3.066   4.513
 1685TIP3    H1 5019   1.142   3.162   4.506
 1685TIP3    H2 5020   1.052   3.044   4.474
 1686TIP3   OH2 5021   5.900   2.142   2.707
 1686TIP3    H1 5022   5.864   2.157   2.619
 1686TIP3    H2 5023   5.855   2.064   2.738
 1687TIP3   OH2 5024   7.025   3.561   3.319
 1687TIP3    H1 5025   6.987   3.636   3.365
 1687TIP3    H2 5026   6.958   3.493   3.325
 1688TIP3   OH2 5027   2.941   3.589   2.967
 1688TIP3    H1 5028   2.878   3.552   2.904
 1688TIP3    H2 5029   2.922   3.682   2.968
 1689TIP3   OH2 5030   6.117   1.061   5.132
 1689TIP3    H1 5031   6.051   1.099   5.075
 1689TIP3    H2 5032   6.073   0.986   5.173
 1690TIP3   OH2 5033   1.826   5.026   2.408
 1690TIP3    H1 5034   1.790   4.948   2.366
 1690TIP3    H2 5035   1.817   5.008   2.502
 1691TIP3   OH2 5036   6.510   2.561   3.298
 1691TIP3    H1 5037   6.540   2.494   3.236
 1691TIP3    H2 5038   6.495   2.513   3.379
 1692TIP3   OH2 5039   5.997   1.939   3.959
 1692TIP3    H1 5040   6.059   1.956   3.889
 1692TIP3    H2 5041   5.963   1.851   3.942
 1693TIP3   OH2 5042   2.077   1.417   1.870
 1693TIP3    H1 5043   2.083   1.432   1.775
 1693TIP3    H2 5044   2.064   1.505   1.907
 1694TIP3   OH2 5045   2.034   5.282   1.395
 1694TIP3    H1 5046   1.986   5.361   1.371
 1694TIP3    H2 5047   2.040   5.284   1.490
 1695TIP3   OH2 5048   1.328   3.328   3.428
 1695TIP3    H1 5049   1.241   3.345   3.393
 1695TIP3    H2 5050   1.361   3.254   3.377
 1696TIP3   OH2 5051   1.113   3.588   4.052
 1696TIP3    H1 5052   1.032   3.587   4.001
 1696TIP3    H2 5053   1.181   3.608   3.988
 1697TIP3   OH2 5054   3.144   5.736   1.422
 1697TIP3    H1 5055   3.192   5.677   1.480
 1697TIP3    H2 5056   3.158   5.700   1.335
 1698TIP3   OH2 5057   0.746   1.118   4.856
 1698TIP3    H1 5058   0.743   1.130   4.950
 1698TIP3    H2 5059   0.838   1.125   4.833
 1699TIP3   OH2 5060   1.445   1.471   2.381
 1699TIP3    H1 5061   1.452   1.510   2.294
 1699TIP3    H2 5062   1.361   1.502   2.415
 1700TIP3   OH2 5063   2.959   1.550   1.865
 1700TIP3    H1 5064   2.957   1.463   1.825
 1700TIP3    H2 5065   3.006   1.537   1.948
 1701TIP3   OH2 5066   5.038   4.210   1.032
 1701TIP3    H1 5067   4.980   4.197   1.107
 1701TIP3    H2 5068   5.009   4.292   0.992
 1702TIP3   OH2 5069   3.459   0.175   1.437
 1702TIP3    H1 5070   3.514   0.156   1.513
 1702TIP3    H2 5071   3.372   0.188   1.472
 1703TIP3   OH2 5072   3.247   3.613   5.373
 1703TIP3    H1 5073   3.249   3.658   5.289
 1703TIP3    H2 5074   3.177   3.548   5.365
 1704TIP3   OH2 5075   3.349   6.138   3.823
 1704TIP3    H1 5076   3.292   6.212   3.843
 1704TIP3    H2 5077   3.438   6.172   3.836
 1705TIP3   OH2 5078   4.916   6.268   2.078
 1705TIP3    H1 5079   4.993   6.226   2.115
 1705TIP3    H2 5080   4.851   6.197   2.071
 1706TIP3   OH2 5081   4.694   6.624   1.587
 1706TIP3    H1 5082   4.647   6.604   1.506
 1706TIP3    H2 5083   4.741   6.544   1.608
 1707TIP3   OH2 5084   1.089   1.081   3.665
 1707TIP3    H1 5085   1.097   0.986   3.672
 1707TIP3    H2 5086   1.060   1.097   3.576
 1708TIP3   OH2 5087   6.301   4.393   2.499
 1708TIP3    H1 5088   6.270   4.325   2.558
 1708TIP3    H2 5089   6.231   4.405   2.436
 1709TIP3   OH2 5090   2.132   6.062   0.275
 1709TIP3    H1 5091   2.210   6.030   0.229
 1709TIP3    H2 5092   2.076   6.097   0.206
 1710TIP3   OH2 5093   5.349   1.803   1.267
 1710TIP3    H1 5094   5.325   1.802   1.174
 1710TIP3    H2 5095   5.361   1.896   1.288
 1711TIP3   OH2 5096   0.272   3.627   0.661
 1711TIP3    H1 5097   0.341   3.606   0.598
 1711TIP3    H2 5098   0.318   3.637   0.745
 1712TIP3   OH2 5099   4.249   0.210   1.104
 1712TIP3    H1 5100   4.322   0.169   1.059
 1712TIP3    H2 5101   4.174   0.195   1.047
 1713TIP3   OH2 5102   0.364   3.317   4.348
 1713TIP3    H1 5103   0.273   3.342   4.366
 1713TIP3    H2 5104   0.369   3.225   4.374
 1714TIP3   OH2 5105   2.613   3.787   0.577
 1714TIP3    H1 5106   2.536   3.816   0.528
 1714TIP3    H2 5107   2.678   3.855   0.560
 1715TIP3   OH2 5108   4.559   1.922   3.284
 1715TIP3    H1 5109   4.483   1.972   3.253
 1715TIP3    H2 5110   4.630   1.948   3.225
 1716TIP3   OH2 5111   0.733   1.719   5.602
 1716TIP3    H1 5112   0.770   1.715   5.514
 1716TIP3    H2 5113   0.804   1.690   5.659
 1717TIP3   OH2 5114   2.464   4.243   1.573
 1717TIP3    H1 5115   2.512   4.296   1.510
 1717TIP3    H2 5116   2.412   4.183   1.520
 1718TIP3   OH2 5117   6.411   3.764   1.049
 1718TIP3    H1 5118   6.449   3.845   1.016
 1718TIP3    H2 5119   6.478   3.727   1.105
 1719TIP3   OH2 5120   5.798   2.051   0.557
 1719TIP3    H1 5121   5.783   1.980   0.619
 1719TIP3    H2 5122   5.857   2.014   0.491
 1720TIP3   OH2 5123   0.291   6.504   4.937
 1720TIP3    H1 5124   0.216   6.560   4.957
 1720TIP3    H2 5125   0.367   6.563   4.944
 1721TIP3   OH2 5126   7.199   5.085   0.702
 1721TIP3    H1 5127   7.226   4.995   0.718
 1721TIP3    H2 5128   7.197   5.093   0.606
 1722TIP3   OH2 5129   1.075   5.933   4.209
 1722TIP3    H1 5130   1.094   5.977   4.292
 1722TIP3    H2 5131   1.007   5.869   4.230
 1723TIP3   OH2 5132   2.474   3.493   0.910
 1723TIP3    H1 5133   2.447   3.558   0.975
 1723TIP3    H2 5134   2.400   3.432   0.904
 1724TIP3   OH2 5135   6.375   5.491   1.194
 1724TIP3    H1 5136   6.414   5.558   1.137
 1724TIP3    H2 5137   6.450   5.449   1.236
 1725TIP3   OH2 5138   6.739   2.174   1.883
 1725TIP3    H1 5139   6.668   2.163   1.947
 1725TIP3    H2 5140   6.698   2.219   1.809
 1726TIP3   OH2 5141   3.728   0.157   1.098
 1726TIP3    H1 5142   3.714   0.228   1.160
 1726TIP3    H2 5143   3.733   0.078   1.153
 1727TIP3   OH2 5144   6.922   6.461   1.630
 1727TIP3    H1 5145   6.975   6.469   1.551
 1727TIP3    H2 5146   6.901   6.368   1.636
 1728TIP3   OH2 5147   2.608   3.032   1.051
 1728TIP3    H1 5148   2.561   3.071   0.978
 1728TIP3    H2 5149   2.546   3.035   1.124
 1729TIP3   OH2 5150   0.153   1.108   3.428
 1729TIP3    H1 5151   0.178   1.151   3.346
 1729TIP3    H2 5152   0.136   1.017   3.403
 1730TIP3   OH2 5153   1.503   1.105   2.821
 1730TIP3    H1 5154   1.499   1.190   2.865
 1730TIP3    H2 5155   1.596   1.084   2.818
 1731TIP3   OH2 5156   2.990   2.168   1.816
 1731TIP3    H1 5157   2.994   2.077   1.843
 1731TIP3    H2 5158   2.920   2.206   1.869
 1732TIP3   OH2 5159   5.139   6.624   5.351
 1732TIP3    H1 5160   5.059   6.589   5.390
 1732TIP3    H2 5161   5.145   6.581   5.266
 1733TIP3   OH2 5162   6.003   1.772   4.303
 1733TIP3    H1 5163   5.953   1.691   4.287
 1733TIP3    H2 5164   6.079   1.743   4.353
 1734TIP3   OH2 5165   2.427   2.546   4.826
 1734TIP3    H1 5166   2.514   2.569   4.791
 1734TIP3    H2 5167   2.368   2.611   4.787
 1735TIP3   OH2 5168   0.589   5.672   2.383
 1735TIP3    H1 5169   0.600   5.625   2.301
 1735TIP3    H2 5170   0.660   5.641   2.439
 1736TIP3   OH2 5171   4.019   5.682   4.965
 1736TIP3    H1 5172   4.102   5.674   4.917
 1736TIP3    H2 5173   3.969   5.746   4.916
 1737TIP3   OH2 5174   2.758   1.245   4.577
 1737TIP3    H1 5175   2.846   1.207   4.584
 1737TIP3    H2 5176   2.721   1.238   4.665
 1738TIP3   OH2 5177   6.977   0.261   2.060
 1738TIP3    H1 5178   6.942   0.350   2.052
 1738TIP3    H2 5179   6.904   0.210   2.097
 1739TIP3   OH2 5180   2.910   0.765   2.027
 1739TIP3    H1 5181   2.846   0.734   2.091
 1739TIP3    H2 5182   2.990   0.778   2.077
 1740TIP3   OH2 5183   6.275   1.166   1.834
 1740TIP3    H1 5184   6.202   1.121   1.791
 1740TIP3    H2 5185   6.233   1.219   1.902
 1741TIP3   OH2 5186   3.629   4.249   2.264
 1741TIP3    H1 5187   3.630   4.282   2.354
 1741TIP3    H2 5188   3.720   4.251   2.237
 1742TIP3   OH2 5189   1.848   2.364   2.929
 1742TIP3    H1 5190   1.843   2.271   2.910
 1742TIP3    H2 5191   1.795   2.406   2.860
 1743TIP3   OH2 5192   2.011   1.466   1.581
 1743TIP3    H1 5193   1.922   1.501   1.586
 1743TIP3    H2 5194   2.067   1.543   1.582
 1744TIP3   OH2 5195   6.205   1.562   3.554
 1744TIP3    H1 5196   6.294   1.590   3.536
 1744TIP3    H2 5197   6.215   1.488   3.613
 1745TIP3   OH2 5198   4.517   3.469   2.784
 1745TIP3    H1 5199   4.421   3.465   2.775
 1745TIP3    H2 5200   4.548   3.386   2.748
 1746TIP3   OH2 5201   6.302   5.900   4.372
 1746TIP3    H1 5202   6.286   5.993   4.356
 1746TIP3    H2 5203   6.236   5.855   4.319
 1747TIP3   OH2 5204   5.497   5.907   1.071
 1747TIP3    H1 5205   5.477   5.841   1.138
 1747TIP3    H2 5206   5.424   5.900   1.009
 1748TIP3   OH2 5207   0.108   5.693   1.474
 1748TIP3    H1 5208   0.124   5.720   1.384
 1748TIP3    H2 5209   0.087   5.600   1.468
 1749TIP3   OH2 5210   2.783   3.571   0.977
 1749TIP3    H1 5211   2.737   3.503   0.927
 1749TIP3    H2 5212   2.785   3.646   0.917
 1750TIP3   OH2 5213   5.117   1.211   3.373
 1750TIP3    H1 5214   5.043   1.273   3.379
 1750TIP3    H2 5215   5.160   1.234   3.291
 1751TIP3   OH2 5216   0.464   0.524   4.459
 1751TIP3    H1 5217   0.457   0.603   4.405
 1751TIP3    H2 5218   0.375   0.507   4.489
 1752TIP3   OH2 5219   6.235   5.104   4.765
 1752TIP3    H1 5220   6.326   5.120   4.793
 1752TIP3    H2 5221   6.182   5.153   4.828
 1753TIP3   OH2 5222   6.219   5.343   3.908
 1753TIP3    H1 5223   6.312   5.362   3.894
 1753TIP3    H2 5224   6.218   5.253   3.939
 1754TIP3   OH2 5225   3.963   4.202   4.852
 1754TIP3    H1 5226   3.987   4.290   4.825
 1754TIP3    H2 5227   3.929   4.160   4.773
 1755TIP3   OH2 5228   6.791   5.488   2.572
 1755TIP3    H1 5229   6.818   5.529   2.654
 1755TIP3    H2 5230   6.873   5.461   2.531
 1756TIP3   OH2 5231   4.611   2.525   2.846
 1756TIP3    H1 5232   4.648   2.529   2.758
 1756TIP3    H2 5233   4.522   2.493   2.833
 1757TIP3   OH2 5234   0.499   5.742   2.878
 1757TIP3    H1 5235   0.423   5.710   2.926
 1757TIP3    H2 5236   0.462   5.785   2.801
 1758TIP3   OH2 5237   0.383   5.169   4.825
 1758TIP3    H1 5238   0.379   5.264   4.827
 1758TIP3    H2 5239   0.449   5.146   4.891
 1759TIP3   OH2 5240   0.739   2.074   4.292
 1759TIP3    H1 5241   0.782   2.007   4.238
 1759TIP3    H2 5242   0.800   2.091   4.363
 1760TIP3   OH2 5243   6.962   4.199   4.109
 1760TIP3    H1 5244   7.007   4.115   4.113
 1760TIP3    H2 5245   7.004   4.253   4.176
 1761TIP3   OH2 5246   2.624   6.318   0.353
 1761TIP3    H1 5247   2.535   6.351   0.348
 1761TIP3    H2 5248   2.661   6.335   0.266
 1762TIP3   OH2 5249   7.052   3.121   5.676
 1762TIP3    H1 5250   7.050   3.095   5.768
 1762TIP3    H2 5251   7.053   3.217   5.678
 1763TIP3   OH2 5252   5.786   2.333   4.759
 1763TIP3    H1 5253   5.754   2.270   4.695
 1763TIP3    H2 5254   5.842   2.392   4.708
 1764TIP3   OH2 5255   5.566   2.078   3.591
 1764TIP3    H1 5256   5.540   1.994   3.552
 1764TIP3    H2 5257   5.656   2.065   3.619
 1765TIP3   OH2 5258   5.257   5.550   5.616
 1765TIP3    H1 5259   5.245   5.481   5.550
 1765TIP3    H2 5260   5.217   5.628   5.577
 1766TIP3   OH2 5261   2.389   6.061   3.692
 1766TIP3    H1 5262   2.459   6.121   3.668
 1766TIP3    H2 5263   2.311   6.096   3.649
 1767TIP3   OH2 5264   3.832   3.066   3.319
 1767TIP3    H1 5265   3.896   2.997   3.307
 1767TIP3    H2 5266   3.753   3.034   3.276
 1768TIP3   OH2 5267   6.035   2.337   0.153
 1768TIP3    H1 5268   6.017   2.414   0.208
 1768TIP3    H2 5269   6.118   2.303   0.187
 1769TIP3   OH2 5270   6.902   3.339   2.841
 1769TIP3    H1 5271   6.829   3.400   2.849
 1769TIP3    H2 5272   6.936   3.353   2.753
 1770TIP3   OH2 5273   6.083   2.450   1.238
 1770TIP3    H1 5274   6.153   2.420   1.296
 1770TIP3    H2 5275   6.110   2.421   1.151
 1771TIP3   OH2 5276   2.953   5.932   5.811
 1771TIP3    H1 5277   2.865   5.940   5.775
 1771TIP3    H2 5278   2.959   5.841   5.841
 1772TIP3   OH2 5279   0.097   3.800   5.717
 1772TIP3    H1 5280   0.039   3.857   5.667
 1772TIP3    H2 5281   0.117   3.727   5.659
 1773TIP3   OH2 5282   5.842   3.630   3.466
 1773TIP3    H1 5283   5.816   3.659   3.378
 1773TIP3    H2 5284   5.865   3.710   3.512
 1774TIP3   OH2 5285   6.434   2.980   3.412
 1774TIP3    H1 5286   6.359   3.018   3.366
 1774TIP3    H2 5287   6.449   3.039   3.486
 1775TIP3   OH2 5288   2.600   2.775   4.799
 1775TIP3    H1 5289   2.646   2.789   4.716
 1775TIP3    H2 5290   2.670   2.758   4.862
 1776TIP3   OH2 5291   1.640   1.030   0.334
 1776TIP3    H1 5292   1.590   0.988   0.403
 1776TIP3    H2 5293   1.595   1.113   0.318
 1777TIP3   OH2 5294   1.572   2.681   4.331
 1777TIP3    H1 5295   1.555   2.657   4.422
 1777TIP3    H2 5296   1.486   2.676   4.289
 1778TIP3   OH2 5297   2.588   2.946   5.429
 1778TIP3    H1 5298   2.523   2.883   5.459
 1778TIP3    H2 5299   2.613   2.994   5.508
 1779TIP3   OH2 5300   3.407   4.445   0.044
 1779TIP3    H1 5301   3.353   4.483  -0.025
 1779TIP3    H2 5302   3.367   4.475   0.126
 1780TIP3   OH2 5303   2.399   0.274   5.000
 1780TIP3    H1 5304   2.428   0.326   5.075
 1780TIP3    H2 5305   2.316   0.314   4.974
 1781TIP3   OH2 5306   2.038   1.602   3.997
 1781TIP3    H1 5307   1.989   1.520   3.990
 1781TIP3    H2 5308   2.130   1.577   3.996
 1782TIP3   OH2 5309   3.542   0.471   0.942
 1782TIP3    H1 5310   3.551   0.532   0.869
 1782TIP3    H2 5311   3.568   0.522   1.019
 1783TIP3   OH2 5312   6.167   0.717   3.936
 1783TIP3    H1 5313   6.199   0.648   3.994
 1783TIP3    H2 5314   6.226   0.791   3.952
 1784TIP3   OH2 5315   0.636   4.778   1.924
 1784TIP3    H1 5316   0.714   4.745   1.968
 1784TIP3    H2 5317   0.668   4.813   1.842
 1785TIP3   OH2 5318   4.581   6.096   3.221
 1785TIP3    H1 5319   4.631   6.119   3.299
 1785TIP3    H2 5320   4.526   6.023   3.248
 1786TIP3   OH2 5321   2.934   4.064   4.778
 1786TIP3    H1 5322   2.960   4.131   4.716
 1786TIP3    H2 5323   3.003   3.998   4.773
 1787TIP3   OH2 5324   7.034   3.168   0.145
 1787TIP3    H1 5325   7.007   3.148   0.055
 1787TIP3    H2 5326   7.066   3.085   0.179
 1788TIP3   OH2 5327   1.887   5.743   2.900
 1788TIP3    H1 5328   1.810   5.767   2.848
 1788TIP3    H2 5329   1.858   5.669   2.953
 1789TIP3   OH2 5330   0.942   0.708   5.625
 1789TIP3    H1 5331   0.921   0.712   5.718
 1789TIP3    H2 5332   0.952   0.799   5.598
 1790TIP3   OH2 5333   0.429   5.940   3.664
 1790TIP3    H1 5334   0.462   5.959   3.752
 1790TIP3    H2 5335   0.341   5.906   3.678
 1791TIP3   OH2 5336   2.042   5.893   1.676
 1791TIP3    H1 5337   2.095   5.956   1.628
 1791TIP3    H2 5338   1.961   5.886   1.625
 1792TIP3   OH2 5339   7.053   0.097   2.423
 1792TIP3    H1 5340   7.020   0.186   2.412
 1792TIP3    H2 5341   7.148   0.107   2.428
 1793TIP3   OH2 5342   2.903   2.016   5.287
 1793TIP3    H1 5343   2.869   2.072   5.356
 1793TIP3    H2 5344   2.953   2.075   5.230
 1794TIP3   OH2 5345   4.303   3.355   4.568
 1794TIP3    H1 5346   4.346   3.412   4.504
 1794TIP3    H2 5347   4.371   3.295   4.596
 1795TIP3   OH2 5348   6.021   1.290   3.973
 1795TIP3    H1 5349   6.022   1.199   4.002
 1795TIP3    H2 5350   5.928   1.310   3.961
 1796TIP3   OH2 5351   3.996   4.855   0.249
 1796TIP3    H1 5352   3.963   4.765   0.258
 1796TIP3    H2 5353   4.088   4.849   0.276
 1797TIP3   OH2 5354   1.430   6.621   5.475
 1797TIP3    H1 5355   1.392   6.692   5.527
 1797TIP3    H2 5356   1.442   6.659   5.388
 1798TIP3   OH2 5357   6.031   4.373   4.426
 1798TIP3    H1 5358   5.981   4.300   4.391
 1798TIP3    H2 5359   6.070   4.339   4.506
 1799TIP3   OH2 5360   3.358   4.974   4.572
 1799TIP3    H1 5361   3.445   4.949   4.605
 1799TIP3    H2 5362   3.300   4.903   4.600
 1800TIP3   OH2 5363   5.454   0.970   3.322
 1800TIP3    H1 5364   5.526   0.956   3.261
 1800TIP3    H2 5365   5.431   0.882   3.353
 1801TIP3   OH2 5366   5.070   2.315   3.644
 1801TIP3    H1 5367   5.049   2.222   3.642
 1801TIP3    H2 5368   5.068   2.339   3.737
 1802TIP3   OH2 5369   0.335   3.856   5.578
 1802TIP3    H1 5370   0.412   3.865   5.635
 1802TIP3    H2 5371   0.262   3.847   5.639
 1803TIP3   OH2 5372   3.434   4.567   4.853
 1803TIP3    H1 5373   3.503   4.505   4.878
 1803TIP3    H2 5374   3.461   4.600   4.768
 1804TIP3   OH2 5375   7.194   6.725   0.462
 1804TIP3    H1 5376   7.134   6.727   0.536
 1804TIP3    H2 5377   7.185   6.637   0.425
 1805TIP3   OH2 5378   5.240   4.519   2.712
 1805TIP3    H1 5379   5.206   4.501   2.800
 1805TIP3    H2 5380   5.333   4.537   2.725
 1806TIP3   OH2 5381   3.159   2.226   3.378
 1806TIP3    H1 5382   3.166   2.131   3.387
 1806TIP3    H2 5383   3.066   2.244   3.386
 1807TIP3   OH2 5384   2.055   6.016   5.716
 1807TIP3    H1 5385   2.125   5.995   5.654
 1807TIP3    H2 5386   2.043   5.937   5.768
 1808TIP3   OH2 5387   1.087   3.714   0.569
 1808TIP3    H1 5388   1.068   3.807   0.572
 1808TIP3    H2 5389   1.005   3.673   0.543
 1809TIP3   OH2 5390   5.070   1.572   5.491
 1809TIP3    H1 5391   5.153   1.555   5.446
 1809TIP3    H2 5392   5.088   1.553   5.583
 1810TIP3   OH2 5393   2.672   6.108   1.068
 1810TIP3    H1 5394   2.643   6.067   0.986
 1810TIP3    H2 5395   2.604   6.085   1.131
 1811TIP3   OH2 5396   6.225   0.600   1.584
 1811TIP3    H1 5397   6.317   0.616   1.567
 1811TIP3    H2 5398   6.182   0.683   1.563
 1812TIP3   OH2 5399   1.560   5.981   4.601
 1812TIP3    H1 5400   1.590   5.914   4.540
 1812TIP3    H2 5401   1.631   6.045   4.602
 1813TIP3   OH2 5402   7.091   1.398   0.217
 1813TIP3    H1 5403   7.048   1.354   0.290
 1813TIP3    H2 5404   7.023   1.454   0.179
 1814TIP3   OH2 5405   6.373   3.998   2.725
 1814TIP3    H1 5406   6.451   4.052   2.732
 1814TIP3    H2 5407   6.361   3.984   2.631
 1815TIP3   OH2 5408   7.163   6.299   2.255
 1815TIP3    H1 5409   7.249   6.340   2.261
 1815TIP3    H2 5410   7.103   6.364   2.293
 1816TIP3   OH2 5411   1.163   1.002   3.203
 1816TIP3    H1 5412   1.068   1.009   3.202
 1816TIP3    H2 5413   1.193   1.079   3.155
 1817TIP3   OH2 5414   1.919   1.156   0.673
 1817TIP3    H1 5415   1.854   1.173   0.741
 1817TIP3    H2 5416   1.892   1.072   0.634
 1818TIP3   OH2 5417   0.542   4.860   3.418
 1818TIP3    H1 5418   0.533   4.814   3.502
 1818TIP3    H2 5419   0.488   4.939   3.428
 1819TIP3   OH2 5420   5.921   0.460   2.998
 1819TIP3    H1 5421   5.972   0.535   3.027
 1819TIP3    H2 5422   5.837   0.496   2.970
 1820TIP3   OH2 5423   6.186   2.727   2.932
 1820TIP3    H1 5424   6.166   2.637   2.958
 1820TIP3    H2 5425   6.276   2.740   2.960
 1821TIP3   OH2 5426   6.909   4.324   1.299
 1821TIP3    H1 5427   6.997   4.320   1.337
 1821TIP3    H2 5428   6.880   4.414   1.313
 1822TIP3   OH2 5429   4.178   1.587   5.240
 1822TIP3    H1 5430   4.159   1.663   5.294
 1822TIP3    H2 5431   4.121   1.596   5.164
 1823TIP3   OH2 5432   4.189   6.217   0.887
 1823TIP3    H1 5433   4.257   6.165   0.930
 1823TIP3    H2 5434   4.124   6.233   0.955
 1824TIP3   OH2 5435   2.713   2.209   3.820
 1824TIP3    H1 5436   2.805   2.183   3.812
 1824TIP3    H2 5437   2.681   2.158   3.895
 1825TIP3   OH2 5438   3.689   5.981   4.238
 1825TIP3    H1 5439   3.660   5.914   4.176
 1825TIP3    H2 5440   3.610   6.027   4.263
 1826TIP3   OH2 5441   5.807   6.296   4.951
 1826TIP3    H1 5442   5.802   6.224   4.888
 1826TIP3    H2 5443   5.856   6.365   4.906
 1827TIP3   OH2 5444   4.566   3.675   3.686
 1827TIP3    H1 5445   4.551   3.769   3.692
 1827TIP3    H2 5446   4.552   3.643   3.775
 1828TIP3   OH2 5447   1.686   6.744   2.695
 1828TIP3    H1 5448   1.660   6.691   2.620
 1828TIP3    H2 5449   1.696   6.832   2.660
 1829TIP3   OH2 5450   0.664   3.246   5.745
 1829TIP3    H1 5451   0.581   3.292   5.759
 1829TIP3    H2 5452   0.645   3.155   5.765
 1830TIP3   OH2 5453   6.322   2.058   1.044
 1830TIP3    H1 5454   6.408   2.026   1.072
 1830TIP3    H2 5455   6.341   2.109   0.965
 1831TIP3   OH2 5456   3.576   3.686   5.127
 1831TIP3    H1 5457   3.529   3.731   5.197
 1831TIP3    H2 5458   3.514   3.619   5.096
 1832TIP3   OH2 5459   1.381   6.705   1.710
 1832TIP3    H1 5460   1.358   6.645   1.781
 1832TIP3    H2 5461   1.318   6.687   1.641
 1833TIP3   OH2 5462   6.087   5.981   3.778
 1833TIP3    H1 5463   6.095   5.977   3.683
 1833TIP3    H2 5464   6.169   5.946   3.812
 1834TIP3   OH2 5465   6.328   4.229   3.439
 1834TIP3    H1 5466   6.260   4.295   3.450
 1834TIP3    H2 5467   6.381   4.261   3.366
 1835TIP3   OH2 5468   1.550   3.284   4.066
 1835TIP3    H1 5469   1.548   3.355   4.002
 1835TIP3    H2 5470   1.533   3.326   4.150
 1836TIP3   OH2 5471   1.509   5.719   2.929
 1836TIP3    H1 5472   1.553   5.747   2.849
 1836TIP3    H2 5473   1.441   5.785   2.944
 1837TIP3   OH2 5474   5.804   4.631   0.177
 1837TIP3    H1 5475   5.786   4.685   0.100
 1837TIP3    H2 5476   5.734   4.654   0.239
 1838TIP3   OH2 5477   5.755   5.943   0.689
 1838TIP3    H1 5478   5.677   5.926   0.637
 1838TIP3    H2 5479   5.721   5.974   0.773
 1839TIP3   OH2 5480   2.983   5.082   1.825
 1839TIP3    H1 5481   3.030   5.022   1.883
 1839TIP3    H2 5482   3.012   5.058   1.737
 1840TIP3   OH2 5483   2.787   0.374   1.964
 1840TIP3    H1 5484   2.743   0.332   2.038
 1840TIP3    H2 5485   2.856   0.313   1.939
 1841TIP3   OH2 5486   6.745   3.575   1.007
 1841TIP3    H1 5487   6.839   3.588   0.997
 1841TIP3    H2 5488   6.736   3.524   1.088
 1842TIP3   OH2 5489   4.217   5.766   3.897
 1842TIP3    H1 5490   4.249   5.714   3.823
 1842TIP3    H2 5491   4.288   5.763   3.961
 1843TIP3   OH2 5492   4.361   5.054   0.734
 1843TIP3    H1 5493   4.438   4.998   0.742
 1843TIP3    H2 5494   4.355   5.073   0.640
 1844TIP3   OH2 5495   0.201   5.321   0.297
 1844TIP3    H1 5496   0.223   5.308   0.205
 1844TIP3    H2 5497   0.223   5.413   0.314
 1845TIP3   OH2 5498   4.656   1.559   3.921
 1845TIP3    H1 5499   4.563   1.571   3.944
 1845TIP3    H2 5500   4.703   1.573   4.003
 1846TIP3   OH2 5501   6.813   4.952   5.307
 1846TIP3    H1 5502   6.867   4.921   5.379
 1846TIP3    H2 5503   6.872   5.004   5.253
 1847TIP3   OH2 5504   6.888   1.621   0.972
 1847TIP3    H1 5505   6.928   1.555   1.029
 1847TIP3    H2 5506   6.875   1.697   1.029
 1848TIP3   OH2 5507   6.302   6.372   1.384
 1848TIP3    H1 5508   6.221   6.405   1.424
 1848TIP3    H2 5509   6.365   6.371   1.456
 1849TIP3   OH2 5510   3.509   4.620   1.004
 1849TIP3    H1 5511   3.459   4.623   1.086
 1849TIP3    H2 5512   3.456   4.669   0.942
 1850TIP3   OH2 5513   0.645   5.076   2.186
 1850TIP3    H1 5514   0.701   5.114   2.254
 1850TIP3    H2 5515   0.694   5.088   2.105
 1851TIP3   OH2 5516   1.908   5.290   2.622
 1851TIP3    H1 5517   1.860   5.293   2.539
 1851TIP3    H2 5518   1.899   5.200   2.652
 1852TIP3   OH2 5519   3.981   4.109   5.109
 1852TIP3    H1 5520   3.981   4.152   5.024
 1852TIP3    H2 5521   4.032   4.029   5.095
 1853TIP3   OH2 5522   0.300   1.700   2.450
 1853TIP3    H1 5523   0.280   1.662   2.536
 1853TIP3    H2 5524   0.232   1.765   2.436
 1854TIP3   OH2 5525   3.831   5.124   1.760
 1854TIP3    H1 5526   3.869   5.076   1.686
 1854TIP3    H2 5527   3.753   5.166   1.724
 1855TIP3   OH2 5528   1.835   6.056   4.575
 1855TIP3    H1 5529   1.815   6.130   4.517
 1855TIP3    H2 5530   1.878   5.992   4.518
 1856TIP3   OH2 5531   4.819   6.412   2.711
 1856TIP3    H1 5532   4.813   6.380   2.621
 1856TIP3    H2 5533   4.731   6.402   2.747
 1857TIP3   OH2 5534   6.334   0.197   4.818
 1857TIP3    H1 5535   6.285   0.190   4.900
 1857TIP3    H2 5536   6.382   0.115   4.811
 1858TIP3   OH2 5537   2.284   6.013   3.979
 1858TIP3    H1 5538   2.309   6.069   3.905
 1858TIP3    H2 5539   2.294   5.924   3.947
 1859TIP3   OH2 5540   6.212   5.568   2.233
 1859TIP3    H1 5541   6.173   5.650   2.263
 1859TIP3    H2 5542   6.305   5.588   2.222
 1860TIP3   OH2 5543   4.531   2.151   2.434
 1860TIP3    H1 5544   4.484   2.223   2.475
 1860TIP3    H2 5545   4.618   2.187   2.416
 1861TIP3   OH2 5546   4.382   1.210   1.603
 1861TIP3    H1 5547   4.475   1.226   1.619
 1861TIP3    H2 5548   4.363   1.130   1.651
 1862TIP3   OH2 5549   1.999   6.392   4.314
 1862TIP3    H1 5550   1.962   6.480   4.304
 1862TIP3    H2 5551   1.989   6.352   4.228
 1863TIP3   OH2 5552   3.164   5.158   0.785
 1863TIP3    H1 5553   3.120   5.190   0.706
 1863TIP3    H2 5554   3.176   5.064   0.769
 1864TIP3   OH2 5555   1.905   4.186   1.245
 1864TIP3    H1 5556   1.876   4.233   1.323
 1864TIP3    H2 5557   1.994   4.215   1.230
 1865TIP3   OH2 5558   5.152   5.817   1.929
 1865TIP3    H1 5559   5.122   5.882   1.993
 1865TIP3    H2 5560   5.072   5.787   1.886
 1866TIP3   OH2 5561   6.465   4.199   4.558
 1866TIP3    H1 5562   6.538   4.209   4.496
 1866TIP3    H2 5563   6.388   4.194   4.502
 1867TIP3   OH2 5564   2.242   0.993   0.640
 1867TIP3    H1 5565   2.176   1.015   0.574
 1867TIP3    H2 5566   2.196   0.999   0.724
 1868TIP3   OH2 5567   3.896   4.610   0.134
 1868TIP3    H1 5568   3.826   4.656   0.088
 1868TIP3    H2 5569   3.851   4.560   0.202
 1869TIP3   OH2 5570   1.901   6.516   0.239
 1869TIP3    H1 5571   1.876   6.553   0.154
 1869TIP3    H2 5572   1.834   6.547   0.300
 1870TIP3   OH2 5573   3.799   6.384   0.780
 1870TIP3    H1 5574   3.712   6.418   0.762
 1870TIP3    H2 5575   3.793   6.290   0.760
 1871TIP3   OH2 5576   3.853   4.371   2.044
 1871TIP3    H1 5577   3.895   4.455   2.064
 1871TIP3    H2 5578   3.868   4.317   2.122
 1872TIP3   OH2 5579   0.850   0.104   0.724
 1872TIP3    H1 5580   0.783   0.086   0.658
 1872TIP3    H2 5581   0.900   0.177   0.688
 1873TIP3   OH2 5582   5.511   4.793   0.162
 1873TIP3    H1 5583   5.492   4.742   0.241
 1873TIP3    H2 5584   5.545   4.876   0.196
 1874TIP3   OH2 5585   0.286   1.344   2.080
 1874TIP3    H1 5586   0.293   1.374   2.170
 1874TIP3    H2 5587   0.377   1.331   2.053
 1875TIP3   OH2 5588   2.204   1.285   2.222
 1875TIP3    H1 5589   2.234   1.238   2.300
 1875TIP3    H2 5590   2.128   1.236   2.191
 1876TIP3   OH2 5591   0.856   4.115   0.618
 1876TIP3    H1 5592   0.775   4.122   0.568
 1876TIP3    H2 5593   0.838   4.049   0.685
 1877TIP3   OH2 5594   1.641   3.570   4.492
 1877TIP3    H1 5595   1.598   3.642   4.446
 1877TIP3    H2 5596   1.579   3.498   4.486
 1878TIP3   OH2 5597   5.715   4.349   3.169
 1878TIP3    H1 5598   5.747   4.436   3.146
 1878TIP3    H2 5599   5.624   4.348   3.140
 1879TIP3   OH2 5600   0.649   3.141   5.044
 1879TIP3    H1 5601   0.616   3.196   5.115
 1879TIP3    H2 5602   0.731   3.105   5.078
 1880TIP3   OH2 5603   2.783   1.519   4.789
 1880TIP3    H1 5604   2.785   1.562   4.875
 1880TIP3    H2 5605   2.859   1.554   4.744
 1881TIP3   OH2 5606   6.896   5.011   2.302
 1881TIP3    H1 5607   6.922   4.923   2.279
 1881TIP3    H2 5608   6.879   5.055   2.219
 1882TIP3   OH2 5609   6.518   0.918   2.165
 1882TIP3    H1 5610   6.594   0.877   2.207
 1882TIP3    H2 5611   6.505   0.867   2.085
 1883TIP3   OH2 5612   5.064   3.403   0.920
 1883TIP3    H1 5613   5.146   3.361   0.893
 1883TIP3    H2 5614   5.071   3.492   0.886
 1884TIP3   OH2 5615   0.776   0.407   5.904
 1884TIP3    H1 5616   0.721   0.340   5.945
 1884TIP3    H2 5617   0.826   0.360   5.837
 1885TIP3   OH2 5618   2.707   2.858   1.921
 1885TIP3    H1 5619   2.624   2.874   1.875
 1885TIP3    H2 5620   2.697   2.906   2.004
 1886TIP3   OH2 5621   0.829   6.808   3.203
 1886TIP3    H1 5622   0.879   6.822   3.122
 1886TIP3    H2 5623   0.773   6.885   3.210
 1887TIP3   OH2 5624   5.521   6.123   3.093
 1887TIP3    H1 5625   5.441   6.174   3.103
 1887TIP3    H2 5626   5.581   6.160   3.159
 1888TIP3   OH2 5627   4.325   5.581   4.412
 1888TIP3    H1 5628   4.418   5.591   4.435
 1888TIP3    H2 5629   4.292   5.670   4.405
 1889TIP3   OH2 5630   0.603   2.660   5.001
 1889TIP3    H1 5631   0.559   2.691   4.923
 1889TIP3    H2 5632   0.535   2.611   5.049
 1890TIP3   OH2 5633   3.591   0.273   4.102
 1890TIP3    H1 5634   3.572   0.362   4.072
 1890TIP3    H2 5635   3.589   0.220   4.022
 1891TIP3   OH2 5636   5.575   3.204   4.290
 1891TIP3    H1 5637   5.612   3.265   4.226
 1891TIP3    H2 5638   5.558   3.124   4.241
 1892TIP3   OH2 5639   6.207   4.640   0.235
 1892TIP3    H1 5640   6.221   4.714   0.293
 1892TIP3    H2 5641   6.273   4.576   0.262
 1893TIP3   OH2 5642   2.981   2.560   5.233
 1893TIP3    H1 5643   2.975   2.634   5.293
 1893TIP3    H2 5644   3.057   2.578   5.178
 1894TIP3   OH2 5645   5.514   3.911   4.735
 1894TIP3    H1 5646   5.476   3.826   4.759
 1894TIP3    H2 5647   5.573   3.933   4.808
 1895TIP3   OH2 5648   4.031   0.878   2.494
 1895TIP3    H1 5649   3.997   0.964   2.518
 1895TIP3    H2 5650   4.048   0.834   2.577
 1896TIP3   OH2 5651   4.095   5.045   5.014
 1896TIP3    H1 5652   4.024   5.109   5.015
 1896TIP3    H2 5653   4.065   4.975   5.072
 1897TIP3   OH2 5654   5.764   0.472   1.759
 1897TIP3    H1 5655   5.739   0.396   1.707
 1897TIP3    H2 5656   5.783   0.541   1.695
 1898TIP3   OH2 5657   3.163   0.867   5.830
 1898TIP3    H1 5658   3.141   0.829   5.915
 1898TIP3    H2 5659   3.080   0.897   5.795
 1899TIP3   OH2 5660   4.403   0.972   4.076
 1899TIP3    H1 5661   4.313   0.999   4.093
 1899TIP3    H2 5662   4.447   1.053   4.048
 1900TIP3   OH2 5663   2.669   1.967   4.374
 1900TIP3    H1 5664   2.724   1.964   4.296
 1900TIP3    H2 5665   2.613   1.890   4.367
 1901TIP3   OH2 5666   2.854   4.995   3.832
 1901TIP3    H1 5667   2.770   4.966   3.795
 1901TIP3    H2 5668   2.847   5.090   3.836
 1902TIP3   OH2 5669   1.732   6.198   1.897
 1902TIP3    H1 5670   1.825   6.188   1.918
 1902TIP3    H2 5671   1.730   6.273   1.837
 1903TIP3   OH2 5672   0.963   0.139   1.001
 1903TIP3    H1 5673   0.885   0.160   0.950
 1903TIP3    H2 5674   1.035   0.182   0.954
 1904TIP3   OH2 5675   0.061   5.745   2.688
 1904TIP3    H1 5676   0.108   5.665   2.711
 1904TIP3    H2 5677  -0.031   5.720   2.684
 1905TIP3   OH2 5678   0.349   4.177   5.739
 1905TIP3    H1 5679   0.259   4.190   5.709
 1905TIP3    H2 5680   0.343   4.181   5.834
 1906TIP3   OH2 5681   1.868   4.551   2.043
 1906TIP3    H1 5682   1.869   4.634   1.997
 1906TIP3    H2 5683   1.844   4.573   2.133
 1907TIP3   OH2 5684   0.884   2.982   0.442
 1907TIP3    H1 5685   0.809   3.038   0.423
 1907TIP3    H2 5686   0.929   2.973   0.358
 1908TIP3   OH2 5687   0.515   6.071   0.736
 1908TIP3    H1 5688   0.427   6.108   0.738
 1908TIP3    H2 5689   0.565   6.130   0.680
 1909TIP3   OH2 5690   3.561   0.601   1.336
 1909TIP3    H1 5691   3.578   0.635   1.249
 1909TIP3    H2 5692   3.465   0.605   1.345
 1910TIP3   OH2 5693   4.260  -0.024   5.618
 1910TIP3    H1 5694   4.354  -0.012   5.599
 1910TIP3    H2 5695   4.223   0.064   5.608
 1911TIP3   OH2 5696   5.216   4.833   0.304
 1911TIP3    H1 5697   5.176   4.920   0.297
 1911TIP3    H2 5698   5.169   4.780   0.240
 1912TIP3   OH2 5699   6.722   0.061   3.035
 1912TIP3    H1 5700   6.684   0.069   3.123
 1912TIP3    H2 5701   6.785   0.133   3.030
 1913TIP3   OH2 5702   3.750   6.071   3.860
 1913TIP3    H1 5703   3.762   6.002   3.794
 1913TIP3    H2 5704   3.801   6.041   3.935
 1914TIP3   OH2 5705   0.587   4.468   4.252
 1914TIP3    H1 5706   0.505   4.419   4.259
 1914TIP3    H2 5707   0.583   4.531   4.323
 1915TIP3   OH2 5708   5.199   4.051   2.484
 1915TIP3    H1 5709   5.169   4.140   2.464
 1915TIP3    H2 5710   5.128   3.994   2.455
 1916TIP3   OH2 5711   4.427   2.968   3.133
 1916TIP3    H1 5712   4.373   3.004   3.062
 1916TIP3    H2 5713   4.370   2.970   3.210
 1917TIP3   OH2 5714   2.274   4.838   0.179
 1917TIP3    H1 5715   2.274   4.818   0.086
 1917TIP3    H2 5716   2.184   4.819   0.208
 1918TIP3   OH2 5717   2.408   1.645   0.224
 1918TIP3    H1 5718   2.459   1.599   0.291
 1918TIP3    H2 5719   2.456   1.726   0.208
 1919TIP3   OH2 5720   1.833   2.774   0.517
 1919TIP3    H1 5721   1.918   2.796   0.481
 1919TIP3    H2 5722   1.848   2.696   0.570
 1920TIP3   OH2 5723   0.764   2.815   5.844
 1920TIP3    H1 5724   0.799   2.739   5.797
 1920TIP3    H2 5725   0.794   2.890   5.792
 1921TIP3   OH2 5726   3.401   6.157   0.638
 1921TIP3    H1 5727   3.375   6.141   0.729
 1921TIP3    H2 5728   3.496   6.144   0.637
 1922TIP3   OH2 5729   0.435   4.115   0.309
 1922TIP3    H1 5730   0.440   4.204   0.273
 1922TIP3    H2 5731   0.443   4.058   0.234
 1923TIP3   OH2 5732   6.155   6.321   5.440
 1923TIP3    H1 5733   6.131   6.389   5.377
 1923TIP3    H2 5734   6.251   6.317   5.437
 1924TIP3   OH2 5735   3.744   1.346   1.703
 1924TIP3    H1 5736   3.701   1.414   1.650
 1924TIP3    H2 5737   3.837   1.356   1.684
 1925TIP3   OH2 5738   3.279   1.410   4.569
 1925TIP3    H1 5739   3.258   1.437   4.480
 1925TIP3    H2 5740   3.341   1.337   4.558
 1926TIP3   OH2 5741   4.585   4.066   0.083
 1926TIP3    H1 5742   4.625   4.142   0.040
 1926TIP3    H2 5743   4.500   4.056   0.042
 1927TIP3   OH2 5744   4.742   6.240   4.110
 1927TIP3    H1 5745   4.713   6.213   4.197
 1927TIP3    H2 5746   4.770   6.331   4.121
 1928TIP3   OH2 5747   4.556   0.976   5.443
 1928TIP3    H1 5748   4.526   1.058   5.482
 1928TIP3    H2 5749   4.502   0.909   5.484
 1929TIP3   OH2 5750   0.093   5.827   0.432
 1929TIP3    H1 5751   0.041   5.895   0.389
 1929TIP3    H2 5752   0.160   5.876   0.481
 1930TIP3   OH2 5753   1.169   3.217   5.100
 1930TIP3    H1 5754   1.188   3.210   5.193
 1930TIP3    H2 5755   1.215   3.296   5.072
 1931TIP3   OH2 5756   4.309   0.441   2.087
 1931TIP3    H1 5757   4.396   0.479   2.082
 1931TIP3    H2 5758   4.294   0.427   2.180
 1932TIP3   OH2 5759   3.618   3.470   1.855
 1932TIP3    H1 5760   3.596   3.563   1.857
 1932TIP3    H2 5761   3.708   3.466   1.887
 1933TIP3   OH2 5762   5.971   6.572   5.810
 1933TIP3    H1 5763   5.914   6.633   5.857
 1933TIP3    H2 5764   6.038   6.628   5.770
 1934TIP3   OH2 5765   1.675   3.221   0.167
 1934TIP3    H1 5766   1.617   3.186   0.100
 1934TIP3    H2 5767   1.737   3.150   0.185
 1935TIP3   OH2 5768   0.160   3.918   2.355
 1935TIP3    H1 5769   0.212   3.980   2.304
 1935TIP3    H2 5770   0.092   3.972   2.396
 1936TIP3   OH2 5771   0.724   5.823   1.059
 1936TIP3    H1 5772   0.644   5.837   1.111
 1936TIP3    H2 5773   0.726   5.728   1.045
 1937TIP3   OH2 5774   3.310   2.795   2.834
 1937TIP3    H1 5775   3.233   2.829   2.879
 1937TIP3    H2 5776   3.352   2.872   2.797
 1938TIP3   OH2 5777   2.961   1.376   2.338
 1938TIP3    H1 5778   2.873   1.412   2.332
 1938TIP3    H2 5779   2.967   1.316   2.263
 1939TIP3   OH2 5780   6.216   1.424   0.964
 1939TIP3    H1 5781   6.310   1.440   0.967
 1939TIP3    H2 5782   6.208   1.331   0.944
 1940TIP3   OH2 5783   6.242   4.817   4.307
 1940TIP3    H1 5784   6.228   4.830   4.401
 1940TIP3    H2 5785   6.206   4.730   4.290
 1941TIP3   OH2 5786   4.918   0.868   5.342
 1941TIP3    H1 5787   4.983   0.801   5.361
 1941TIP3    H2 5788   4.834   0.825   5.355
 1942TIP3   OH2 5789   0.776   1.272   3.731
 1942TIP3    H1 5790   0.796   1.365   3.732
 1942TIP3    H2 5791   0.684   1.267   3.707
 1943TIP3   OH2 5792   0.144   3.830   1.997
 1943TIP3    H1 5793   0.212   3.776   2.036
 1943TIP3    H2 5794   0.082   3.846   2.068
 1944TIP3   OH2 5795   1.923   4.060   0.034
 1944TIP3    H1 5796   2.011   4.049  -0.003
 1944TIP3    H2 5797   1.938   4.090   0.123
 1945TIP3   OH2 5798   0.505   5.674   3.742
 1945TIP3    H1 5799   0.579   5.624   3.778
 1945TIP3    H2 5800   0.493   5.639   3.654
 1946TIP3   OH2 5801   0.760   1.587   2.936
 1946TIP3    H1 5802   0.732   1.513   2.990
 1946TIP3    H2 5803   0.814   1.549   2.868
 1947TIP3   OH2 5804   0.903   2.093   2.381
 1947TIP3    H1 5805   0.854   2.066   2.303
 1947TIP3    H2 5806   0.880   2.027   2.447
 1948TIP3   OH2 5807   0.667   2.914   5.292
 1948TIP3    H1 5808   0.658   3.001   5.332
 1948TIP3    H2 5809   0.588   2.905   5.238
 1949TIP3   OH2 5810   4.396   0.216   2.685
 1949TIP3    H1 5811   4.319   0.267   2.711
 1949TIP3    H2 5812   4.426   0.174   2.766
 1950TIP3   OH2 5813   3.991   3.152   3.618
 1950TIP3    H1 5814   3.914   3.123   3.569
 1950TIP3    H2 5815   3.968   3.136   3.709
 1951TIP3   OH2 5816   2.313   6.449   2.399
 1951TIP3    H1 5817   2.306   6.423   2.490
 1951TIP3    H2 5818   2.402   6.424   2.373
 1952TIP3   OH2 5819   6.233   1.920   4.103
 1952TIP3    H1 5820   6.215   1.999   4.155
 1952TIP3    H2 5821   6.147   1.885   4.083
 1953TIP3   OH2 5822   0.567   1.641   5.325
 1953TIP3    H1 5823   0.574   1.592   5.244
 1953TIP3    H2 5824   0.626   1.715   5.314
 1954TIP3   OH2 5825   6.084   2.261   5.082
 1954TIP3    H1 5826   6.058   2.170   5.072
 1954TIP3    H2 5827   6.151   2.274   5.015
 1955TIP3   OH2 5828   1.535   0.529   2.883
 1955TIP3    H1 5829   1.494   0.495   2.804
 1955TIP3    H2 5830   1.515   0.623   2.882
 1956TIP3   OH2 5831   5.527   3.482   1.563
 1956TIP3    H1 5832   5.573   3.496   1.645
 1956TIP3    H2 5833   5.593   3.445   1.504
 1957TIP3   OH2 5834   6.098   5.542   1.752
 1957TIP3    H1 5835   6.079   5.450   1.770
 1957TIP3    H2 5836   6.021   5.575   1.706
 1958TIP3   OH2 5837   1.436   6.179   4.368
 1958TIP3    H1 5838   1.505   6.243   4.389
 1958TIP3    H2 5839   1.374   6.186   4.440
 1959TIP3   OH2 5840   4.666   1.105   4.062
 1959TIP3    H1 5841   4.671   1.115   4.157
 1959TIP3    H2 5842   4.674   1.194   4.028
 1960TIP3   OH2 5843   7.064   4.587   3.820
 1960TIP3    H1 5844   6.992   4.529   3.845
 1960TIP3    H2 5845   7.022   4.670   3.800
 1961TIP3   OH2 5846   7.198   0.651   3.569
 1961TIP3    H1 5847   7.218   0.560   3.590
 1961TIP3    H2 5848   7.204   0.697   3.653
 1962TIP3   OH2 5849   0.576   4.969   2.705
 1962TIP3    H1 5850   0.483   4.970   2.727
 1962TIP3    H2 5851   0.610   4.894   2.753
 1963TIP3   OH2 5852   2.547   1.419   0.376
 1963TIP3    H1 5853   2.483   1.383   0.437
 1963TIP3    H2 5854   2.621   1.446   0.431
 1964TIP3   OH2 5855   0.854   3.207   0.107
 1964TIP3    H1 5856   0.803   3.271   0.156
 1964TIP3    H2 5857   0.868   3.247   0.021
 1965TIP3   OH2 5858   6.649   3.487   1.678
 1965TIP3    H1 5859   6.715   3.485   1.609
 1965TIP3    H2 5860   6.670   3.566   1.728
 1966TIP3   OH2 5861   1.404   0.810   0.990
 1966TIP3    H1 5862   1.380   0.898   0.963
 1966TIP3    H2 5863   1.380   0.754   0.916
 1967TIP3   OH2 5864   4.892   6.086   5.469
 1967TIP3    H1 5865   4.921   6.151   5.405
 1967TIP3    H2 5866   4.927   6.118   5.552
 1968TIP3   OH2 5867   4.813   2.887   3.805
 1968TIP3    H1 5868   4.725   2.900   3.770
 1968TIP3    H2 5869   4.865   2.958   3.768
 1969TIP3   OH2 5870   4.313   4.962   4.701
 1969TIP3    H1 5871   4.370   4.894   4.664
 1969TIP3    H2 5872   4.240   4.968   4.640
 1970TIP3   OH2 5873   4.095   6.753   4.844
 1970TIP3    H1 5874   4.169   6.805   4.811
 1970TIP3    H2 5875   4.127   6.714   4.925
 1971TIP3   OH2 5876   5.121   4.919   3.153
 1971TIP3    H1 5877   5.146   4.855   3.220
 1971TIP3    H2 5878   5.196   4.924   3.095
 1972TIP3   OH2 5879   5.906   5.777   0.485
 1972TIP3    H1 5880   5.863   5.794   0.402
 1972TIP3    H2 5881   5.853   5.822   0.550
 1973TIP3   OH2 5882   4.340   2.542   1.522
 1973TIP3    H1 5883   4.379   2.536   1.435
 1973TIP3    H2 5884   4.281   2.617   1.516
 1974TIP3   OH2 5885   3.080   4.180   5.008
 1974TIP3    H1 5886   3.057   4.222   4.925
 1974TIP3    H2 5887   3.005   4.123   5.028
 1975TIP3   OH2 5888   1.545   2.093   1.325
 1975TIP3    H1 5889   1.500   2.155   1.383
 1975TIP3    H2 5890   1.596   2.037   1.384
 1976TIP3   OH2 5891   6.861   2.948   3.134
 1976TIP3    H1 5892   6.773   2.980   3.115
 1976TIP3    H2 5893   6.904   3.021   3.178
 1977TIP3   OH2 5894   6.404   5.011   2.505
 1977TIP3    H1 5895   6.320   5.043   2.537
 1977TIP3    H2 5896   6.388   4.987   2.414
 1978TIP3   OH2 5897   4.462   3.111   5.180
 1978TIP3    H1 5898   4.483   3.196   5.142
 1978TIP3    H2 5899   4.371   3.095   5.156
 1979TIP3   OH2 5900   2.603   2.327   3.137
 1979TIP3    H1 5901   2.522   2.318   3.086
 1979TIP3    H2 5902   2.610   2.245   3.185
 1980TIP3   OH2 5903   2.463   5.990   4.987
 1980TIP3    H1 5904   2.531   6.033   5.039
 1980TIP3    H2 5905   2.463   6.037   4.904
 1981TIP3   OH2 5906   0.760   0.861   4.317
 1981TIP3    H1 5907   0.754   0.939   4.372
 1981TIP3    H2 5908   0.783   0.790   4.377
 1982TIP3   OH2 5909   2.740   6.370   3.077
 1982TIP3    H1 5910   2.670   6.395   3.017
 1982TIP3    H2 5911   2.820   6.395   3.030
 1983TIP3   OH2 5912   3.991   0.945   4.987
 1983TIP3    H1 5913   4.026   1.033   4.982
 1983TIP3    H2 5914   3.930   0.948   5.061
 1984TIP3   OH2 5915   2.657   3.614   4.243
 1984TIP3    H1 5916   2.623   3.615   4.153
 1984TIP3    H2 5917   2.736   3.668   4.240
 1985TIP3   OH2 5918   2.086   2.880   0.463
 1985TIP3    H1 5919   2.163   2.853   0.412
 1985TIP3    H2 5920   2.119   2.949   0.521
 1986TIP3   OH2 5921   2.099   3.678   0.039
 1986TIP3    H1 5922   2.079   3.593   0.078
 1986TIP3    H2 5923   2.134   3.656  -0.048
 1987TIP3   OH2 5924   3.310   4.321   5.873
 1987TIP3    H1 5925   3.306   4.226   5.880
 1987TIP3    H2 5926   3.325   4.352   5.962
 1988TIP3   OH2 5927   0.534   1.307   4.823
 1988TIP3    H1 5928   0.581   1.223   4.824
 1988TIP3    H2 5929   0.590   1.366   4.874
 1989TIP3   OH2 5930   6.320   2.073   3.881
 1989TIP3    H1 5931   6.253   2.015   3.917
 1989TIP3    H2 5932   6.341   2.035   3.796
 1990TIP3   OH2 5933   3.682   2.875   5.407
 1990TIP3    H1 5934   3.764   2.863   5.456
 1990TIP3    H2 5935   3.647   2.958   5.439
 1991TIP3   OH2 5936   3.799   4.161   1.789
 1991TIP3    H1 5937   3.773   4.200   1.706
 1991TIP3    H2 5938   3.894   4.168   1.791
 1992TIP3   OH2 5939   5.271   4.946   1.614
 1992TIP3    H1 5940   5.203   4.884   1.639
 1992TIP3    H2 5941   5.353   4.905   1.638
 1993TIP3   OH2 5942   5.346   1.711   5.691
 1993TIP3    H1 5943   5.382   1.627   5.661
 1993TIP3    H2 5944   5.354   1.708   5.786
 1994TIP3   OH2 5945   5.097   4.222   3.318
 1994TIP3    H1 5946   5.048   4.154   3.365
 1994TIP3    H2 5947   5.112   4.291   3.382
 1995TIP3   OH2 5948   3.818   5.741   1.864
 1995TIP3    H1 5949   3.831   5.836   1.873
 1995TIP3    H2 5950   3.794   5.712   1.952
 1996TIP3   OH2 5951   4.045   3.884   0.703
 1996TIP3    H1 5952   4.109   3.899   0.773
 1996TIP3    H2 5953   4.081   3.810   0.654
 1997TIP3   OH2 5954   3.600   0.666   1.758
 1997TIP3    H1 5955   3.660   0.596   1.734
 1997TIP3    H2 5956   3.648   0.720   1.821
 1998TIP3   OH2 5957   4.501   3.346   0.391
 1998TIP3    H1 5958   4.529   3.347   0.483
 1998TIP3    H2 5959   4.498   3.438   0.366
 1999TIP3   OH2 5960   3.592   1.885   0.687
 1999TIP3    H1 5961   3.553   1.971   0.702
 1999TIP3    H2 5962   3.588   1.842   0.772
 2000TIP3   OH2 5963   4.670   2.640   4.536
 2000TIP3    H1 5964   4.622   2.676   4.610
 2000TIP3    H2 5965   4.609   2.579   4.494
 2001TIP3   OH2 5966   6.819   6.223   4.289
 2001TIP3    H1 5967   6.726   6.203   4.299
 2001TIP3    H2 5968   6.823   6.319   4.294
 2002TIP3   OH2 5969   3.615   2.216   0.195
 2002TIP3    H1 5970   3.692   2.268   0.169
 2002TIP3    H2 5971   3.629   2.196   0.287
 2003TIP3   OH2 5972   0.184   5.620   0.284
 2003TIP3    H1 5973   0.190   5.665   0.200
 2003TIP3    H2 5974   0.143   5.684   0.342
 2004TIP3   OH2 5975   3.862   1.463   3.830
 2004TIP3    H1 5976   3.807   1.470   3.908
 2004TIP3    H2 5977   3.935   1.407   3.856
 2005TIP3   OH2 5978   0.554   1.852   2.441
 2005TIP3    H1 5979   0.481   1.799   2.474
 2005TIP3    H2 5980   0.630   1.794   2.448
 2006TIP3   OH2 5981   6.858   6.697   2.713
 2006TIP3    H1 5982   6.803   6.661   2.644
 2006TIP3    H2 5983   6.944   6.657   2.699
 2007TIP3   OH2 5984   0.503   4.920   4.315
 2007TIP3    H1 5985   0.410   4.897   4.306
 2007TIP3    H2 5986   0.513   4.999   4.261
 2008TIP3   OH2 5987   2.208   0.900   5.464
 2008TIP3    H1 5988   2.143   0.863   5.404
 2008TIP3    H2 5989   2.292   0.869   5.429
 2009TIP3   OH2 5990   5.326   5.200   2.813
 2009TIP3    H1 5991   5.285   5.252   2.882
 2009TIP3    H2 5992   5.273   5.216   2.736
 2010TIP3   OH2 5993   1.046   4.304   5.153
 2010TIP3    H1 5994   1.089   4.281   5.070
 2010TIP3    H2 5995   1.091   4.383   5.182
 2011TIP3   OH2 5996   2.096   4.803   3.698
 2011TIP3    H1 5997   2.074   4.830   3.788
 2011TIP3    H2 5998   2.031   4.848   3.643
 2012TIP3   OH2 5999   0.755   0.374   0.319
 2012TIP3    H1 6000   0.747   0.331   0.234
 2012TIP3    H2 6001   0.803   0.455   0.300
 2013TIP3   OH2 6002   3.945   4.640   3.334
 2013TIP3    H1 6003   3.874   4.599   3.383
 2013TIP3    H2 6004   3.924   4.621   3.242
 2014TIP3   OH2 6005   4.467   5.074   1.569
 2014TIP3    H1 6006   4.530   5.069   1.497
 2014TIP3    H2 6007   4.462   5.168   1.590
 2015TIP3   OH2 6008   0.190   1.953   0.077
 2015TIP3    H1 6009   0.269   1.899   0.085
 2015TIP3    H2 6010   0.119   1.889   0.065
 2016TIP3   OH2 6011   4.756   2.416   1.227
 2016TIP3    H1 6012   4.772   2.347   1.162
 2016TIP3    H2 6013   4.838   2.422   1.276
 2017TIP3   OH2 6014   2.062   6.500   4.854
 2017TIP3    H1 6015   2.064   6.481   4.761
 2017TIP3    H2 6016   2.110   6.429   4.895
 2018TIP3   OH2 6017   5.363   5.598   4.941
 2018TIP3    H1 6018   5.332   5.559   5.022
 2018TIP3    H2 6019   5.430   5.538   4.909
 2019TIP3   OH2 6020   4.987   4.427   2.588
 2019TIP3    H1 6021   5.060   4.469   2.634
 2019TIP3    H2 6022   4.945   4.372   2.654
 2020TIP3   OH2 6023   0.925   3.058   1.722
 2020TIP3    H1 6024   0.871   2.996   1.770
 2020TIP3    H2 6025   1.015   3.028   1.738
 2021TIP3   OH2 6026   0.038   4.034   3.156
 2021TIP3    H1 6027   0.040   4.127   3.176
 2021TIP3    H2 6028   0.128   4.012   3.133
 2022TIP3   OH2 6029   2.000   2.335   1.588
 2022TIP3    H1 6030   2.005   2.289   1.672
 2022TIP3    H2 6031   1.931   2.288   1.540
 2023TIP3   OH2 6032   4.880   5.446   5.104
 2023TIP3    H1 6033   4.864   5.430   5.197
 2023TIP3    H2 6034   4.955   5.506   5.102
 2024TIP3   OH2 6035   0.830   3.812   3.369
 2024TIP3    H1 6036   0.861   3.886   3.421
 2024TIP3    H2 6037   0.896   3.744   3.383
 2025TIP3   OH2 6038   4.736   5.960   5.107
 2025TIP3    H1 6039   4.644   5.943   5.128
 2025TIP3    H2 6040   4.762   6.030   5.167
 2026TIP3   OH2 6041   2.197   5.305   2.632
 2026TIP3    H1 6042   2.215   5.398   2.636
 2026TIP3    H2 6043   2.110   5.298   2.593
 2027TIP3   OH2 6044   2.742   1.115   5.568
 2027TIP3    H1 6045   2.666   1.173   5.567
 2027TIP3    H2 6046   2.709   1.031   5.537
 2028TIP3   OH2 6047   2.775   5.541   4.545
 2028TIP3    H1 6048   2.731   5.457   4.530
 2028TIP3    H2 6049   2.850   5.539   4.485
 2029TIP3   OH2 6050   6.480   6.356   1.184
 2029TIP3    H1 6051   6.407   6.334   1.242
 2029TIP3    H2 6052   6.497   6.275   1.136
 2030TIP3   OH2 6053   2.203   3.770   2.493
 2030TIP3    H1 6054   2.121   3.727   2.471
 2030TIP3    H2 6055   2.213   3.838   2.426
 2031TIP3   OH2 6056   5.150   6.562   3.240
 2031TIP3    H1 6057   5.100   6.616   3.301
 2031TIP3    H2 6058   5.098   6.482   3.231
 2032TIP3   OH2 6059   3.523   6.340   1.872
 2032TIP3    H1 6060   3.506   6.290   1.793
 2032TIP3    H2 6061   3.616   6.364   1.866
 2033TIP3   OH2 6062   1.718   4.799   2.233
 2033TIP3    H1 6063   1.751   4.721   2.276
 2033TIP3    H2 6064   1.634   4.773   2.196
 2034TIP3   OH2 6065   6.219   0.912   1.146
 2034TIP3    H1 6066   6.143   0.958   1.182
 2034TIP3    H2 6067   6.279   0.902   1.220
 2035TIP3   OH2 6068   5.740   0.922   4.986
 2035TIP3    H1 6069   5.729   1.010   5.021
 2035TIP3    H2 6070   5.830   0.920   4.953
 2036TIP3   OH2 6071   6.594   2.937   5.805
 2036TIP3    H1 6072   6.535   2.989   5.859
 2036TIP3    H2 6073   6.651   3.001   5.764
 2037TIP3   OH2 6074   2.238   3.588   1.198
 2037TIP3    H1 6075   2.145   3.600   1.218
 2037TIP3    H2 6076   2.256   3.651   1.128
 2038TIP3   OH2 6077   4.754   5.775   4.253
 2038TIP3    H1 6078   4.757   5.866   4.282
 2038TIP3    H2 6079   4.838   5.738   4.280
 2039TIP3   OH2 6080   3.311   0.472   2.913
 2039TIP3    H1 6081   3.261   0.550   2.936
 2039TIP3    H2 6082   3.354   0.494   2.831
 2040TIP3   OH2 6083   6.041   0.280   4.386
 2040TIP3    H1 6084   6.033   0.255   4.478
 2040TIP3    H2 6085   5.952   0.300   4.358
 2041TIP3   OH2 6086   7.192   0.603   4.811
 2041TIP3    H1 6087   7.152   0.664   4.873
 2041TIP3    H2 6088   7.229   0.534   4.866
 2042TIP3   OH2 6089   5.132   6.114   0.323
 2042TIP3    H1 6090   5.117   6.020   0.329
 2042TIP3    H2 6091   5.189   6.135   0.396
 2043TIP3   OH2 6092   0.513   2.808   2.763
 2043TIP3    H1 6093   0.519   2.714   2.747
 2043TIP3    H2 6094   0.528   2.816   2.858
 2044TIP3   OH2 6095   0.359   6.860   5.455
 2044TIP3    H1 6096   0.428   6.927   5.450
 2044TIP3    H2 6097   0.338   6.855   5.548
 2045TIP3   OH2 6098   7.192   5.601   4.244
 2045TIP3    H1 6099   7.129   5.670   4.224
 2045TIP3    H2 6100   7.173   5.532   4.180
 2046TIP3   OH2 6101   0.010   0.429   1.303
 2046TIP3    H1 6102   0.057   0.409   1.384
 2046TIP3    H2 6103  -0.015   0.344   1.268
 2047TIP3   OH2 6104   0.753   3.820   4.161
 2047TIP3    H1 6105   0.702   3.748   4.124
 2047TIP3    H2 6106   0.696   3.857   4.228
 2048TIP3   OH2 6107   5.021   6.172   4.822
 2048TIP3    H1 6108   5.034   6.262   4.853
 2048TIP3    H2 6109   4.965   6.131   4.888
 2049TIP3   OH2 6110   6.045   1.410   1.552
 2049TIP3    H1 6111   6.003   1.341   1.501
 2049TIP3    H2 6112   6.021   1.391   1.643
 2050TIP3   OH2 6113   0.159   3.574   1.090
 2050TIP3    H1 6114   0.157   3.519   1.012
 2050TIP3    H2 6115   0.077   3.554   1.135
 2051TIP3   OH2 6116   0.687   6.628   2.104
 2051TIP3    H1 6117   0.761   6.572   2.128
 2051TIP3    H2 6118   0.726   6.701   2.055
 2052TIP3   OH2 6119   0.596   2.848   0.249
 2052TIP3    H1 6120   0.642   2.869   0.168
 2052TIP3    H2 6121   0.558   2.762   0.234
 2053TIP3   OH2 6122   6.441   2.633   4.793
 2053TIP3    H1 6123   6.494   2.556   4.814
 2053TIP3    H2 6124   6.504   2.698   4.762
 2054TIP3   OH2 6125   4.244   4.175   0.570
 2054TIP3    H1 6126   4.285   4.109   0.625
 2054TIP3    H2 6127   4.311   4.196   0.504
 2055TIP3   OH2 6128   0.730   0.957   2.369
 2055TIP3    H1 6129   0.669   0.922   2.304
 2055TIP3    H2 6130   0.679   0.962   2.450
 2056TIP3   OH2 6131   2.877   3.250   5.190
 2056TIP3    H1 6132   2.785   3.242   5.165
 2056TIP3    H2 6133   2.884   3.197   5.270
 2057TIP3   OH2 6134   4.787   0.422   3.805
 2057TIP3    H1 6135   4.874   0.415   3.844
 2057TIP3    H2 6136   4.729   0.433   3.880
 2058TIP3   OH2 6137   4.007   5.627   1.019
 2058TIP3    H1 6138   4.013   5.677   0.937
 2058TIP3    H2 6139   3.963   5.546   0.995
 2059TIP3   OH2 6140   2.201   1.462   3.244
 2059TIP3    H1 6141   2.224   1.370   3.230
 2059TIP3    H2 6142   2.256   1.510   3.182
 2060TIP3   OH2 6143   5.313   3.169   5.474
 2060TIP3    H1 6144   5.328   3.083   5.435
 2060TIP3    H2 6145   5.399   3.211   5.473
 2061TIP3   OH2 6146   6.555   4.643   4.246
 2061TIP3    H1 6147   6.592   4.684   4.324
 2061TIP3    H2 6148   6.463   4.669   4.246
 2062TIP3   OH2 6149   1.188   4.510   0.410
 2062TIP3    H1 6150   1.151   4.587   0.365
 2062TIP3    H2 6151   1.276   4.501   0.373
 2063TIP3   OH2 6152   2.286   5.629   2.041
 2063TIP3    H1 6153   2.220   5.687   2.004
 2063TIP3    H2 6154   2.369   5.658   2.003
 2064TIP3   OH2 6155   2.311   1.478   4.869
 2064TIP3    H1 6156   2.386   1.536   4.880
 2064TIP3    H2 6157   2.342   1.392   4.895
 2065TIP3   OH2 6158   0.586   4.232   0.708
 2065TIP3    H1 6159   0.506   4.242   0.656
 2065TIP3    H2 6160   0.590   4.139   0.731
 2066TIP3   OH2 6161   7.058   5.088   4.803
 2066TIP3    H1 6162   7.108   5.006   4.808
 2066TIP3    H2 6163   7.124   5.154   4.782
 2067TIP3   OH2 6164   6.290   4.573   5.126
 2067TIP3    H1 6165   6.384   4.566   5.112
 2067TIP3    H2 6166   6.257   4.616   5.047
 2068TIP3   OH2 6167   4.037   1.906   2.280
 2068TIP3    H1 6168   4.102   1.889   2.212
 2068TIP3    H2 6169   3.984   1.978   2.246
 2069TIP3   OH2 6170   1.915   2.557   0.350
 2069TIP3    H1 6171   2.007   2.568   0.327
 2069TIP3    H2 6172   1.901   2.463   0.349
 2070TIP3   OH2 6173   2.225   0.533   0.702
 2070TIP3    H1 6174   2.277   0.613   0.693
 2070TIP3    H2 6175   2.135   0.564   0.708
 2071TIP3   OH2 6176   0.863   2.610   2.903
 2071TIP3    H1 6177   0.851   2.612   2.808
 2071TIP3    H2 6178   0.910   2.529   2.920
 2072TIP3   OH2 6179   1.946   1.679   1.849
 2072TIP3    H1 6180   1.951   1.756   1.794
 2072TIP3    H2 6181   1.873   1.628   1.814
 2073TIP3   OH2 6182   5.826   1.996   4.329
 2073TIP3    H1 6183   5.905   1.950   4.302
 2073TIP3    H2 6184   5.756   1.930   4.322
 2074TIP3   OH2 6185   6.192   1.399   5.537
 2074TIP3    H1 6186   6.227   1.487   5.528
 2074TIP3    H2 6187   6.106   1.410   5.579
 2075TIP3   OH2 6188   4.017   0.566   5.841
 2075TIP3    H1 6189   3.988   0.524   5.761
 2075TIP3    H2 6190   4.033   0.494   5.902
 2076TIP3   OH2 6191   5.010   5.005   4.393
 2076TIP3    H1 6192   4.992   5.091   4.356
 2076TIP3    H2 6193   5.031   4.950   4.317
 2077TIP3   OH2 6194   6.340   2.238   0.839
 2077TIP3    H1 6195   6.301   2.260   0.755
 2077TIP3    H2 6196   6.415   2.297   0.847
 2078TIP3   OH2 6197   7.192   1.121   0.301
 2078TIP3    H1 6198   7.162   1.095   0.214
 2078TIP3    H2 6199   7.280   1.085   0.307
 2079TIP3   OH2 6200   4.890   3.062   0.463
 2079TIP3    H1 6201   4.942   3.004   0.518
 2079TIP3    H2 6202   4.870   3.010   0.385
 2080TIP3   OH2 6203   6.511   5.533   2.140
 2080TIP3    H1 6204   6.475   5.568   2.059
 2080TIP3    H2 6205   6.600   5.506   2.117
 2081TIP3   OH2 6206   4.579   1.430   2.345
 2081TIP3    H1 6207   4.518   1.495   2.312
 2081TIP3    H2 6208   4.664   1.474   2.344
 2082TIP3   OH2 6209   4.656   1.999   1.903
 2082TIP3    H1 6210   4.590   1.930   1.897
 2082TIP3    H2 6211   4.660   2.021   1.996
 2083TIP3   OH2 6212   0.925   5.357   0.877
 2083TIP3    H1 6213   0.943   5.271   0.839
 2083TIP3    H2 6214   1.011   5.391   0.902
 2084TIP3   OH2 6215   5.483   1.303   0.356
 2084TIP3    H1 6216   5.420   1.245   0.400
 2084TIP3    H2 6217   5.461   1.297   0.264
 2085TIP3   OH2 6218   3.520   0.905   2.694
 2085TIP3    H1 6219   3.589   0.941   2.639
 2085TIP3    H2 6220   3.450   0.882   2.634
 2086TIP3   OH2 6221   0.048   4.149   1.753
 2086TIP3    H1 6222   0.109   4.178   1.685
 2086TIP3    H2 6223  -0.004   4.227   1.774
 2087TIP3   OH2 6224   5.866   2.426   1.393
 2087TIP3    H1 6225   5.951   2.456   1.360
 2087TIP3    H2 6226   5.822   2.505   1.422
 2088TIP3   OH2 6227   4.890   5.667   2.035
 2088TIP3    H1 6228   4.875   5.718   1.956
 2088TIP3    H2 6229   4.809   5.619   2.050
 2089TIP3   OH2 6230   6.179   0.763   2.237
 2089TIP3    H1 6231   6.099   0.712   2.251
 2089TIP3    H2 6232   6.171   0.796   2.148
 2090TIP3   OH2 6233   4.096   4.380   3.038
 2090TIP3    H1 6234   4.128   4.318   3.104
 2090TIP3    H2 6235   4.002   4.363   3.032
 2091TIP3   OH2 6236   5.401   4.449   5.694
 2091TIP3    H1 6237   5.377   4.538   5.668
 2091TIP3    H2 6238   5.474   4.426   5.636
 2092TIP3   OH2 6239   1.727   6.262   3.221
 2092TIP3    H1 6240   1.781   6.297   3.292
 2092TIP3    H2 6241   1.652   6.321   3.218
 2093TIP3   OH2 6242   5.633   1.810   3.764
 2093TIP3    H1 6243   5.653   1.819   3.857
 2093TIP3    H2 6244   5.629   1.716   3.749
 2094TIP3   OH2 6245   0.991   0.525   5.091
 2094TIP3    H1 6246   0.928   0.574   5.144
 2094TIP3    H2 6247   0.949   0.513   5.006
 2095TIP3   OH2 6248   5.739   6.019   5.755
 2095TIP3    H1 6249   5.743   5.947   5.818
 2095TIP3    H2 6250   5.830   6.039   5.735
 2096TIP3   OH2 6251   1.466   5.880   5.564
 2096TIP3    H1 6252   1.476   5.786   5.549
 2096TIP3    H2 6253   1.544   5.919   5.524
 2097TIP3   OH2 6254   1.252   1.361   5.658
 2097TIP3    H1 6255   1.331   1.370   5.605
 2097TIP3    H2 6256   1.210   1.447   5.653
 2098TIP3   OH2 6257   3.469   3.243   1.887
 2098TIP3    H1 6258   3.502   3.332   1.877
 2098TIP3    H2 6259   3.441   3.218   1.798
 2099TIP3   OH2 6260   5.911   1.463   1.237
 2099TIP3    H1 6261   5.895   1.523   1.164
 2099TIP3    H2 6262   6.002   1.477   1.261
 2100TIP3   OH2 6263   5.872   1.669   2.884
 2100TIP3    H1 6264   5.828   1.585   2.868
 2100TIP3    H2 6265   5.947   1.647   2.940
 2101TIP3   OH2 6266   6.853   5.920   5.716
 2101TIP3    H1 6267   6.790   5.932   5.645
 2101TIP3    H2 6268   6.875   6.009   5.744
 2102TIP3   OH2 6269   2.287   2.568   0.919
 2102TIP3    H1 6270   2.309   2.510   0.846
 2102TIP3    H2 6271   2.320   2.523   0.997
 2103TIP3   OH2 6272   0.812   2.353   3.053
 2103TIP3    H1 6273   0.859   2.342   3.136
 2103TIP3    H2 6274   0.728   2.392   3.077
 2104TIP3   OH2 6275   3.362   0.176   5.142
 2104TIP3    H1 6276   3.457   0.178   5.125
 2104TIP3    H2 6277   3.322   0.174   5.056
 2105TIP3   OH2 6278   1.592   2.345   5.433
 2105TIP3    H1 6279   1.664   2.306   5.383
 2105TIP3    H2 6280   1.539   2.390   5.367
 2106TIP3   OH2 6281   6.435   1.065   2.435
 2106TIP3    H1 6282   6.344   1.037   2.427
 2106TIP3    H2 6283   6.477   1.035   2.354
 2107TIP3   OH2 6284   2.972   3.147   1.171
 2107TIP3    H1 6285   2.986   3.240   1.189
 2107TIP3    H2 6286   2.951   3.109   1.257
 2108TIP3   OH2 6287   5.373   3.418   3.519
 2108TIP3    H1 6288   5.291   3.439   3.475
 2108TIP3    H2 6289   5.433   3.395   3.447
 2109TIP3   OH2 6290   6.511   3.720   4.633
 2109TIP3    H1 6291   6.494   3.685   4.721
 2109TIP3    H2 6292   6.574   3.660   4.594
 2110TIP3   OH2 6293   2.924   6.843   0.245
 2110TIP3    H1 6294   2.859   6.881   0.185
 2110TIP3    H2 6295   2.992   6.809   0.188
 2111TIP3   OH2 6296   1.106   1.394   4.018
 2111TIP3    H1 6297   1.148   1.447   3.951
 2111TIP3    H2 6298   1.050   1.333   3.970
 2112TIP3   OH2 6299   1.793   2.001   5.645
 2112TIP3    H1 6300   1.699   2.021   5.639
 2112TIP3    H2 6301   1.801   1.946   5.723
 2113TIP3   OH2 6302   3.275   5.208   0.377
 2113TIP3    H1 6303   3.326   5.242   0.303
 2113TIP3    H2 6304   3.196   5.172   0.336
 2114TIP3   OH2 6305   3.064   3.997   0.440
 2114TIP3    H1 6306   3.109   3.945   0.374
 2114TIP3    H2 6307   3.072   4.087   0.410
 2115TIP3   OH2 6308   1.024   6.044   3.129
 2115TIP3    H1 6309   1.000   6.086   3.211
 2115TIP3    H2 6310   1.028   6.115   3.065
 2116TIP3   OH2 6311   1.253   1.331   4.693
 2116TIP3    H1 6312   1.262   1.367   4.782
 2116TIP3    H2 6313   1.201   1.396   4.646
 2117TIP3   OH2 6314   3.247   1.848   1.598
 2117TIP3    H1 6315   3.184   1.838   1.527
 2117TIP3    H2 6316   3.305   1.919   1.569
 2118TIP3   OH2 6317   4.241   2.539   4.459
 2118TIP3    H1 6318   4.158   2.534   4.412
 2118TIP3    H2 6319   4.262   2.449   4.482
 2119TIP3   OH2 6320   4.695   2.712   0.124
 2119TIP3    H1 6321   4.631   2.742   0.059
 2119TIP3    H2 6322   4.650   2.640   0.169
 2120TIP3   OH2 6323   1.713   4.956   5.886
 2120TIP3    H1 6324   1.779   5.011   5.929
 2120TIP3    H2 6325   1.755   4.871   5.878
 2121TIP3   OH2 6326   3.266   6.393   3.331
 2121TIP3    H1 6327   3.345   6.359   3.289
 2121TIP3    H2 6328   3.195   6.366   3.274
 2122TIP3   OH2 6329   4.481   2.136   5.507
 2122TIP3    H1 6330   4.510   2.062   5.453
 2122TIP3    H2 6331   4.388   2.118   5.525
 2123TIP3   OH2 6332   0.620   5.230   2.487
 2123TIP3    H1 6333   0.684   5.292   2.451
 2123TIP3    H2 6334   0.537   5.257   2.449
 2124TIP3   OH2 6335   5.116   0.824   3.667
 2124TIP3    H1 6336   5.172   0.889   3.625
 2124TIP3    H2 6337   5.155   0.811   3.753
 2125TIP3   OH2 6338   4.173   0.253   4.681
 2125TIP3    H1 6339   4.145   0.325   4.624
 2125TIP3    H2 6340   4.095   0.200   4.694
 2126TIP3   OH2 6341   2.451   6.683   0.544
 2126TIP3    H1 6342   2.421   6.765   0.583
 2126TIP3    H2 6343   2.375   6.650   0.498
 2127TIP3   OH2 6344   0.306   5.143   0.472
 2127TIP3    H1 6345   0.354   5.207   0.524
 2127TIP3    H2 6346   0.246   5.195   0.419
 2128TIP3   OH2 6347   4.662   0.188   4.625
 2128TIP3    H1 6348   4.583   0.155   4.668
 2128TIP3    H2 6349   4.685   0.120   4.561
 2129TIP3   OH2 6350   5.455   2.463   4.786
 2129TIP3    H1 6351   5.531   2.513   4.817
 2129TIP3    H2 6352   5.493   2.390   4.737
 2130TIP3   OH2 6353   3.271   6.671   2.077
 2130TIP3    H1 6354   3.290   6.733   2.148
 2130TIP3    H2 6355   3.325   6.594   2.098
 2131TIP3   OH2 6356   0.850   5.207   2.277
 2131TIP3    H1 6357   0.877   5.268   2.207
 2131TIP3    H2 6358   0.881   5.249   2.357
 2132TIP3   OH2 6359   2.129   1.574   5.097
 2132TIP3    H1 6360   2.145   1.664   5.068
 2132TIP3    H2 6361   2.214   1.531   5.092
 2133TIP3   OH2 6362   4.087   6.585   1.113
 2133TIP3    H1 6363   4.166   6.548   1.152
 2133TIP3    H2 6364   4.042   6.510   1.074
 2134TIP3   OH2 6365   3.596   1.364   0.553
 2134TIP3    H1 6366   3.541   1.400   0.623
 2134TIP3    H2 6367   3.590   1.429   0.483
 2135TIP3   OH2 6368   6.528   4.307   0.914
 2135TIP3    H1 6369   6.534   4.346   1.001
 2135TIP3    H2 6370   6.533   4.213   0.929
 2136TIP3   OH2 6371   0.113   3.262   2.237
 2136TIP3    H1 6372   0.171   3.239   2.165
 2136TIP3    H2 6373   0.169   3.261   2.314
 2137TIP3   OH2 6374   2.475   4.412   3.516
 2137TIP3    H1 6375   2.554   4.362   3.533
 2137TIP3    H2 6376   2.475   4.481   3.582
 2138TIP3   OH2 6377   3.618   4.965   5.210
 2138TIP3    H1 6378   3.615   4.871   5.193
 2138TIP3    H2 6379   3.556   5.002   5.147
 2139TIP3   OH2 6380   5.013   4.516   5.242
 2139TIP3    H1 6381   5.059   4.568   5.308
 2139TIP3    H2 6382   4.998   4.432   5.283
 2140TIP3   OH2 6383   1.860   4.091   0.790
 2140TIP3    H1 6384   1.950   4.106   0.820
 2140TIP3    H2 6385   1.806   4.113   0.865
 2141TIP3   OH2 6386   0.254   0.618   0.882
 2141TIP3    H1 6387   0.344   0.599   0.855
 2141TIP3    H2 6388   0.200   0.566   0.822
 2142TIP3   OH2 6389   3.591   6.447   1.268
 2142TIP3    H1 6390   3.516   6.483   1.221
 2142TIP3    H2 6391   3.607   6.509   1.339
 2143TIP3   OH2 6392   5.056   4.923   4.111
 2143TIP3    H1 6393   5.073   5.017   4.121
 2143TIP3    H2 6394   5.042   4.911   4.017
 2144TIP3   OH2 6395   5.795   3.254   2.583
 2144TIP3    H1 6396   5.880   3.212   2.570
 2144TIP3    H2 6397   5.813   3.347   2.570
 2145TIP3   OH2 6398   3.806   1.231   1.212
 2145TIP3    H1 6399   3.759   1.272   1.140
 2145TIP3    H2 6400   3.739   1.216   1.279
 2146TIP3   OH2 6401   4.888   1.845   4.313
 2146TIP3    H1 6402   4.938   1.807   4.242
 2146TIP3    H2 6403   4.922   1.934   4.322
 2147TIP3   OH2 6404   0.505   0.217   4.711
 2147TIP3    H1 6405   0.440   0.287   4.703
 2147TIP3    H2 6406   0.575   0.255   4.765
 2148TIP3   OH2 6407   4.870   6.493   1.906
 2148TIP3    H1 6408   4.848   6.449   1.824
 2148TIP3    H2 6409   4.877   6.422   1.970
 2149TIP3   OH2 6410   0.546   6.405   5.394
 2149TIP3    H1 6411   0.466   6.452   5.368
 2149TIP3    H2 6412   0.617   6.452   5.349
 2150TIP3   OH2 6413   0.136   0.029   1.312
 2150TIP3    H1 6414   0.060   0.086   1.304
 2150TIP3    H2 6415   0.122  -0.039   1.245
 2151TIP3   OH2 6416   6.694   0.408   3.333
 2151TIP3    H1 6417   6.695   0.496   3.369
 2151TIP3    H2 6418   6.751   0.413   3.256
 2152TIP3   OH2 6419   6.436  -0.001   1.319
 2152TIP3    H1 6420   6.343   0.021   1.330
 2152TIP3    H2 6421   6.435  -0.088   1.278
 2153TIP3   OH2 6422   5.665   5.530   1.481
 2153TIP3    H1 6423   5.670   5.437   1.502
 2153TIP3    H2 6424   5.575   5.543   1.452
 2154TIP3   OH2 6425   5.549   4.098   3.421
 2154TIP3    H1 6426   5.624   4.086   3.362
 2154TIP3    H2 6427   5.495   4.164   3.378
 2155TIP3   OH2 6428   0.127   6.275   4.951
 2155TIP3    H1 6429   0.177   6.205   4.909
 2155TIP3    H2 6430   0.182   6.353   4.940
 2156TIP3   OH2 6431   6.112   5.716   4.518
 2156TIP3    H1 6432   6.205   5.738   4.524
 2156TIP3    H2 6433   6.078   5.772   4.448
 2157TIP3   OH2 6434   1.529   0.400   3.890
 2157TIP3    H1 6435   1.498   0.467   3.951
 2157TIP3    H2 6436   1.623   0.418   3.881
 2158TIP3   OH2 6437   0.944   5.232   3.980
 2158TIP3    H1 6438   0.973   5.153   3.934
 2158TIP3    H2 6439   0.888   5.278   3.917
 2159TIP3   OH2 6440   3.036   2.763   2.538
 2159TIP3    H1 6441   2.965   2.799   2.592
 2159TIP3    H2 6442   3.099   2.835   2.532
 2160TIP3   OH2 6443   1.642   2.635   1.872
 2160TIP3    H1 6444   1.729   2.597   1.861
 2160TIP3    H2 6445   1.598   2.576   1.932
 2161TIP3   OH2 6446   4.205   3.058   5.134
 2161TIP3    H1 6447   4.162   3.036   5.216
 2161TIP3    H2 6448   4.134   3.079   5.074
 2162TIP3   OH2 6449   4.940   1.464   0.813
 2162TIP3    H1 6450   4.982   1.480   0.728
 2162TIP3    H2 6451   4.853   1.430   0.791
 2163TIP3   OH2 6452   1.659   2.935   2.985
 2163TIP3    H1 6453   1.727   2.963   2.924
 2163TIP3    H2 6454   1.706   2.885   3.052
 2164TIP3   OH2 6455   6.932   0.931   2.208
 2164TIP3    H1 6456   6.934   1.007   2.267
 2164TIP3    H2 6457   6.884   0.962   2.131
 2165TIP3   OH2 6458   6.881   1.504   5.709
 2165TIP3    H1 6459   6.911   1.569   5.646
 2165TIP3    H2 6460   6.789   1.526   5.724
 2166TIP3   OH2 6461   6.460   5.759   0.632
 2166TIP3    H1 6462   6.444   5.833   0.573
 2166TIP3    H2 6463   6.395   5.770   0.702
 2167TIP3   OH2 6464   1.076   3.405   2.447
 2167TIP3    H1 6465   1.158   3.438   2.484
 2167TIP3    H2 6466   1.077   3.312   2.468
 2168TIP3   OH2 6467   2.063   3.564   0.843
 2168TIP3    H1 6468   2.088   3.593   0.931
 2168TIP3    H2 6469   2.098   3.632   0.785
 2169TIP3   OH2 6470   6.839   0.450   3.083
 2169TIP3    H1 6471   6.899   0.382   3.053
 2169TIP3    H2 6472   6.768   0.449   3.019
 2170TIP3   OH2 6473   3.348   3.780   1.878
 2170TIP3    H1 6474   3.422   3.756   1.823
 2170TIP3    H2 6475   3.275   3.791   1.817
 2171TIP3   OH2 6476   2.491   5.046   5.293
 2171TIP3    H1 6477   2.443   5.033   5.212
 2171TIP3    H2 6478   2.425   5.075   5.356
 2172TIP3   OH2 6479   6.889   0.446   4.149
 2172TIP3    H1 6480   6.899   0.512   4.080
 2172TIP3    H2 6481   6.842   0.492   4.219
 2173TIP3   OH2 6482   6.505   3.598   5.232
 2173TIP3    H1 6483   6.482   3.691   5.226
 2173TIP3    H2 6484   6.422   3.551   5.222
 2174TIP3   OH2 6485   5.510   3.568   3.083
 2174TIP3    H1 6486   5.545   3.556   2.995
 2174TIP3    H2 6487   5.484   3.660   3.086
 2175TIP3   OH2 6488   5.956   3.957   4.197
 2175TIP3    H1 6489   5.943   3.979   4.289
 2175TIP3    H2 6490   5.868   3.954   4.160
 2176TIP3   OH2 6491   2.387   3.207   5.555
 2176TIP3    H1 6492   2.404   3.175   5.644
 2176TIP3    H2 6493   2.299   3.244   5.560
 2177TIP3   OH2 6494   3.557   5.084   4.313
 2177TIP3    H1 6495   3.610   5.160   4.336
 2177TIP3    H2 6496   3.493   5.077   4.385
 2178TIP3   OH2 6497   4.339   4.197   5.751
 2178TIP3    H1 6498   4.309   4.268   5.808
 2178TIP3    H2 6499   4.318   4.227   5.662
 2179TIP3   OH2 6500   4.510   2.985   0.905
 2179TIP3    H1 6501   4.477   2.975   0.995
 2179TIP3    H2 6502   4.475   2.909   0.859
 2180TIP3   OH2 6503   5.310   5.117   0.152
 2180TIP3    H1 6504   5.296   5.187   0.089
 2180TIP3    H2 6505   5.247   5.135   0.222
 2181TIP3   OH2 6506   6.965   3.353   1.803
 2181TIP3    H1 6507   6.931   3.402   1.877
 2181TIP3    H2 6508   7.029   3.293   1.841
 2182TIP3   OH2 6509   0.685   5.829   3.068
 2182TIP3    H1 6510   0.714   5.919   3.051
 2182TIP3    H2 6511   0.608   5.818   3.011
 2183TIP3   OH2 6512   5.542   4.754   1.311
 2183TIP3    H1 6513   5.598   4.683   1.344
 2183TIP3    H2 6514   5.497   4.715   1.236
 2184TIP3   OH2 6515   5.563   2.825   0.848
 2184TIP3    H1 6516   5.505   2.859   0.916
 2184TIP3    H2 6517   5.507   2.770   0.794
 2185TIP3   OH2 6518   6.065   3.819   1.247
 2185TIP3    H1 6519   6.009   3.772   1.309
 2185TIP3    H2 6520   6.083   3.756   1.178
 2186TIP3   OH2 6521   0.606   0.060   3.816
 2186TIP3    H1 6522   0.610   0.150   3.848
 2186TIP3    H2 6523   0.583   0.069   3.724
 2187TIP3   OH2 6524   1.548   0.686   5.217
 2187TIP3    H1 6525   1.486   0.643   5.276
 2187TIP3    H2 6526   1.565   0.621   5.149
 2188TIP3   OH2 6527   3.580   0.815   4.805
 2188TIP3    H1 6528   3.581   0.900   4.849
 2188TIP3    H2 6529   3.637   0.759   4.858
 2189TIP3   OH2 6530   1.911   2.560   0.711
 2189TIP3    H1 6531   1.959   2.579   0.792
 2189TIP3    H2 6532   1.976   2.523   0.652
 2190TIP3   OH2 6533   0.026   4.059   0.508
 2190TIP3    H1 6534  -0.015   4.140   0.478
 2190TIP3    H2 6535   0.001   4.052   0.600
 2191TIP3   OH2 6536   7.151   1.588   3.729
 2191TIP3    H1 6537   7.238   1.626   3.737
 2191TIP3    H2 6538   7.145   1.559   3.637
 2192TIP3   OH2 6539   6.656   4.509   3.147
 2192TIP3    H1 6540   6.656   4.596   3.188
 2192TIP3    H2 6541   6.635   4.526   3.056
 2193TIP3   OH2 6542   2.709   1.258   4.861
 2193TIP3    H1 6543   2.760   1.335   4.836
 2193TIP3    H2 6544   2.744   1.233   4.946
 2194TIP3   OH2 6545   0.205   6.676   3.156
 2194TIP3    H1 6546   0.187   6.586   3.128
 2194TIP3    H2 6547   0.193   6.674   3.251
 2195TIP3   OH2 6548   5.705   4.934   1.430
 2195TIP3    H1 6549   5.733   5.011   1.381
 2195TIP3    H2 6550   5.618   4.913   1.395
 2196TIP3   OH2 6551   5.315   3.984   1.552
 2196TIP3    H1 6552   5.262   4.000   1.630
 2196TIP3    H2 6553   5.358   3.900   1.568
 2197TIP3   OH2 6554   0.901   2.973   1.005
 2197TIP3    H1 6555   0.848   3.023   1.067
 2197TIP3    H2 6556   0.991   3.000   1.023
 2198TIP3   OH2 6557   3.595   5.389   1.042
 2198TIP3    H1 6558   3.610   5.476   1.080
 2198TIP3    H2 6559   3.669   5.337   1.071
 2199TIP3   OH2 6560   3.462   0.847   1.513
 2199TIP3    H1 6561   3.477   0.752   1.515
 2199TIP3    H2 6562   3.429   0.867   1.600
 2200TIP3   OH2 6563   0.167   4.215   2.030
 2200TIP3    H1 6564   0.137   4.159   1.959
 2200TIP3    H2 6565   0.210   4.154   2.091
 2201TIP3   OH2 6566   1.888   2.934   2.830
 2201TIP3    H1 6567   1.968   2.986   2.841
 2201TIP3    H2 6568   1.865   2.944   2.738
 2202TIP3   OH2 6569   4.930   5.217   2.791
 2202TIP3    H1 6570   4.948   5.300   2.747
 2202TIP3    H2 6571   4.837   5.222   2.816
 2203TIP3   OH2 6572   2.590   3.993   5.218
 2203TIP3    H1 6573   2.644   3.926   5.175
 2203TIP3    H2 6574   2.608   3.982   5.311
 2204TIP3   OH2 6575   2.508   1.027   1.926
 2204TIP3    H1 6576   2.515   0.935   1.948
 2204TIP3    H2 6577   2.455   1.029   1.846
 2205TIP3   OH2 6578   5.580   2.452   0.464
 2205TIP3    H1 6579   5.565   2.407   0.547
 2205TIP3    H2 6580   5.675   2.467   0.462
 2206TIP3   OH2 6581   3.937   5.382   0.979
 2206TIP3    H1 6582   4.024   5.349   0.959
 2206TIP3    H2 6583   3.910   5.332   1.056
 2207TIP3   OH2 6584   2.113   5.406   2.095
 2207TIP3    H1 6585   2.188   5.466   2.101
 2207TIP3    H2 6586   2.096   5.399   2.001
 2208TIP3   OH2 6587   3.714   4.574   3.874
 2208TIP3    H1 6588   3.621   4.564   3.855
 2208TIP3    H2 6589   3.721   4.558   3.969
 2209TIP3   OH2 6590   0.629   4.519   5.236
 2209TIP3    H1 6591   0.629   4.446   5.299
 2209TIP3    H2 6592   0.608   4.478   5.152
 2210TIP3   OH2 6593   3.638   2.621   0.538
 2210TIP3    H1 6594   3.618   2.706   0.577
 2210TIP3    H2 6595   3.700   2.581   0.598
 2211TIP3   OH2 6596   3.972   6.351   1.042
 2211TIP3    H1 6597   3.918   6.358   0.963
 2211TIP3    H2 6598   3.940   6.272   1.086
 2212TIP3   OH2 6599   0.688   2.785   1.208
 2212TIP3    H1 6600   0.605   2.761   1.168
 2212TIP3    H2 6601   0.754   2.758   1.144
 2213TIP3   OH2 6602   7.119   1.222   1.651
 2213TIP3    H1 6603   7.062   1.157   1.694
 2213TIP3    H2 6604   7.080   1.233   1.564
 2214TIP3   OH2 6605   5.939   0.570   5.023
 2214TIP3    H1 6606   5.937   0.478   5.050
 2214TIP3    H2 6607   5.927   0.619   5.105
 2215TIP3   OH2 6608   6.676   0.668   1.752
 2215TIP3    H1 6609   6.726   0.590   1.775
 2215TIP3    H2 6610   6.738   0.724   1.705
 2216TIP3   OH2 6611   2.055   0.437   0.129
 2216TIP3    H1 6612   2.139   0.477   0.154
 2216TIP3    H2 6613   2.038   0.470   0.041
 2217TIP3   OH2 6614   4.253   6.001   5.514
 2217TIP3    H1 6615   4.224   5.909   5.513
 2217TIP3    H2 6616   4.206   6.041   5.441
 2218TIP3   OH2 6617   5.164   3.514   3.065
 2218TIP3    H1 6618   5.157   3.532   3.158
 2218TIP3    H2 6619   5.258   3.517   3.047
 2219TIP3   OH2 6620   6.422   6.073   3.131
 2219TIP3    H1 6621   6.340   6.061   3.179
 2219TIP3    H2 6622   6.401   6.045   3.041
 2220TIP3   OH2 6623   2.406   2.625   2.900
 2220TIP3    H1 6624   2.454   2.619   2.983
 2220TIP3    H2 6625   2.318   2.651   2.925
 2221TIP3   OH2 6626   3.304   6.258   5.428
 2221TIP3    H1 6627   3.219   6.215   5.421
 2221TIP3    H2 6628   3.328   6.250   5.520
 2222TIP3   OH2 6629   4.331   2.296   0.789
 2222TIP3    H1 6630   4.270   2.223   0.786
 2222TIP3    H2 6631   4.416   2.256   0.808
 2223TIP3   OH2 6632   1.992   1.416   5.275
 2223TIP3    H1 6633   2.050   1.468   5.219
 2223TIP3    H2 6634   2.003   1.326   5.244
 2224TIP3   OH2 6635   6.375   2.734   3.491
 2224TIP3    H1 6636   6.429   2.809   3.466
 2224TIP3    H2 6637   6.425   2.657   3.463
 2225TIP3   OH2 6638   4.746   6.417   4.837
 2225TIP3    H1 6639   4.654   6.427   4.860
 2225TIP3    H2 6640   4.746   6.353   4.765
 2226TIP3   OH2 6641   0.426   6.394   1.128
 2226TIP3    H1 6642   0.495   6.331   1.111
 2226TIP3    H2 6643   0.394   6.372   1.216
 2227TIP3   OH2 6644   4.566   3.460   1.580
 2227TIP3    H1 6645   4.535   3.474   1.491
 2227TIP3    H2 6646   4.552   3.367   1.597
 2228TIP3   OH2 6647   0.622   0.779   2.206
 2228TIP3    H1 6648   0.549   0.718   2.220
 2228TIP3    H2 6649   0.695   0.724   2.179
 2229TIP3   OH2 6650   0.495   1.057   4.591
 2229TIP3    H1 6651   0.451   1.000   4.527
 2229TIP3    H2 6652   0.454   1.142   4.580
 2230TIP3   OH2 6653   1.368   0.863   5.080
 2230TIP3    H1 6654   1.416   0.818   5.150
 2230TIP3    H2 6655   1.345   0.794   5.019
 2231TIP3   OH2 6656   2.303   4.171   3.686
 2231TIP3    H1 6657   2.382   4.191   3.736
 2231TIP3    H2 6658   2.285   4.079   3.706
 2232TIP3   OH2 6659   0.573   3.633   4.119
 2232TIP3    H1 6660   0.574   3.626   4.215
 2232TIP3    H2 6661   0.579   3.542   4.088
 2233TIP3   OH2 6662   0.942   5.450   0.316
 2233TIP3    H1 6663   0.894   5.525   0.281
 2233TIP3    H2 6664   0.987   5.413   0.240
 2234TIP3   OH2 6665   0.492   2.721   2.424
 2234TIP3    H1 6666   0.451   2.677   2.498
 2234TIP3    H2 6667   0.545   2.654   2.382
 2235TIP3   OH2 6668   6.996   1.547   0.476
 2235TIP3    H1 6669   6.948   1.590   0.546
 2235TIP3    H2 6670   6.941   1.474   0.450
 2236TIP3   OH2 6671   0.675   0.337   5.389
 2236TIP3    H1 6672   0.588   0.330   5.350
 2236TIP3    H2 6673   0.671   0.416   5.444
 2237TIP3   OH2 6674   4.775   6.210   4.658
 2237TIP3    H1 6675   4.724   6.134   4.685
 2237TIP3    H2 6676   4.866   6.187   4.677
 2238TIP3   OH2 6677   1.547   3.351   3.065
 2238TIP3    H1 6678   1.537   3.443   3.040
 2238TIP3    H2 6679   1.629   3.324   3.024
 2239TIP3   OH2 6680   2.975   4.700   5.511
 2239TIP3    H1 6681   2.936   4.711   5.424
 2239TIP3    H2 6682   3.046   4.764   5.514
 2240TIP3   OH2 6683   4.851   3.925   0.608
 2240TIP3    H1 6684   4.875   3.914   0.700
 2240TIP3    H2 6685   4.755   3.928   0.609
 2241TIP3   OH2 6686   2.356   2.923   1.428
 2241TIP3    H1 6687   2.347   2.974   1.509
 2241TIP3    H2 6688   2.279   2.866   1.427
 2242TIP3   OH2 6689   4.706   3.627   3.173
 2242TIP3    H1 6690   4.768   3.619   3.246
 2242TIP3    H2 6691   4.759   3.610   3.095
 2243TIP3   OH2 6692   2.126   4.534   1.338
 2243TIP3    H1 6693   2.035   4.553   1.358
 2243TIP3    H2 6694   2.167   4.519   1.423
 2244TIP3   OH2 6695   0.643   3.865   5.348
 2244TIP3    H1 6696   0.694   3.809   5.406
 2244TIP3    H2 6697   0.706   3.930   5.316
 2245TIP3   OH2 6698   6.418   5.939   2.561
 2245TIP3    H1 6699   6.442   6.029   2.541
 2245TIP3    H2 6700   6.323   5.939   2.564
 2246TIP3   OH2 6701   4.926   6.485   4.144
 2246TIP3    H1 6702   4.864   6.525   4.205
 2246TIP3    H2 6703   5.005   6.472   4.196
 2247TIP3   OH2 6704   6.521   0.550   2.245
 2247TIP3    H1 6705   6.454   0.485   2.222
 2247TIP3    H2 6706   6.511   0.620   2.181
 2248TIP3   OH2 6707   7.214   2.586   1.547
 2248TIP3    H1 6708   7.127   2.550   1.527
 2248TIP3    H2 6709   7.247   2.616   1.462
 2249TIP3   OH2 6710   5.741   4.877   3.821
 2249TIP3    H1 6711   5.781   4.806   3.870
 2249TIP3    H2 6712   5.656   4.890   3.863
 2250TIP3   OH2 6713   2.733   3.237   2.388
 2250TIP3    H1 6714   2.704   3.146   2.391
 2250TIP3    H2 6715   2.655   3.286   2.364
 2251TIP3   OH2 6716   1.220   2.329   4.993
 2251TIP3    H1 6717   1.146   2.385   4.968
 2251TIP3    H2 6718   1.281   2.336   4.920
 2252TIP3   OH2 6719   5.519   0.831   3.932
 2252TIP3    H1 6720   5.559   0.876   3.857
 2252TIP3    H2 6721   5.540   0.739   3.918
 2253TIP3   OH2 6722   7.244   0.957   4.265
 2253TIP3    H1 6723   7.203   1.014   4.200
 2253TIP3    H2 6724   7.301   0.899   4.214
 2254TIP3   OH2 6725   6.229   6.303   0.962
 2254TIP3    H1 6726   6.315   6.279   0.927
 2254TIP3    H2 6727   6.193   6.363   0.897
 2255TIP3   OH2 6728   0.087   2.507   4.490
 2255TIP3    H1 6729   0.093   2.596   4.525
 2255TIP3    H2 6730   0.169   2.466   4.515
 2256TIP3   OH2 6731   3.624   2.606   3.117
 2256TIP3    H1 6732   3.592   2.619   3.027
 2256TIP3    H2 6733   3.718   2.590   3.107
 2257TIP3   OH2 6734   2.074   0.361   3.375
 2257TIP3    H1 6735   2.108   0.273   3.392
 2257TIP3    H2 6736   2.117   0.389   3.295
 2258TIP3   OH2 6737   3.902   0.153   1.612
 2258TIP3    H1 6738   3.990   0.178   1.638
 2258TIP3    H2 6739   3.892   0.064   1.646
 2259TIP3   OH2 6740   6.728   4.188   3.407
 2259TIP3    H1 6741   6.774   4.253   3.460
 2259TIP3    H2 6742   6.639   4.187   3.443
 2260TIP3   OH2 6743   4.078   0.686   2.685
 2260TIP3    H1 6744   4.031   0.698   2.767
 2260TIP3    H2 6745   4.150   0.628   2.707
 2261TIP3   OH2 6746   3.647   2.351   2.444
 2261TIP3    H1 6747   3.698   2.393   2.374
 2261TIP3    H2 6748   3.571   2.408   2.456
 2262TIP3   OH2 6749   0.119   6.132   3.486
 2262TIP3    H1 6750   0.124   6.225   3.508
 2262TIP3    H2 6751   0.113   6.088   3.571
 2263TIP3   OH2 6752   1.179   2.730   3.202
 2263TIP3    H1 6753   1.084   2.744   3.205
 2263TIP3    H2 6754   1.204   2.757   3.113
 2264TIP3   OH2 6755   5.828   6.522   5.338
 2264TIP3    H1 6756   5.918   6.533   5.306
 2264TIP3    H2 6757   5.790   6.610   5.333
 2265TIP3   OH2 6758   3.374   2.877   1.816
 2265TIP3    H1 6759   3.361   2.863   1.722
 2265TIP3    H2 6760   3.286   2.883   1.852
 2266TIP3   OH2 6761   2.829   2.365   5.384
 2266TIP3    H1 6762   2.905   2.405   5.342
 2266TIP3    H2 6763   2.765   2.355   5.314
 2267TIP3   OH2 6764   6.880   6.190   3.911
 2267TIP3    H1 6765   6.786   6.173   3.899
 2267TIP3    H2 6766   6.890   6.283   3.895
 2268TIP3   OH2 6767   3.909   6.125   4.105
 2268TIP3    H1 6768   3.929   6.032   4.105
 2268TIP3    H2 6769   3.826   6.132   4.152
 2269TIP3   OH2 6770   6.769   3.440   2.303
 2269TIP3    H1 6771   6.805   3.353   2.320
 2269TIP3    H2 6772   6.826   3.499   2.353
 2270TIP3   OH2 6773   4.023   4.337   5.549
 2270TIP3    H1 6774   3.994   4.428   5.543
 2270TIP3    H2 6775   3.974   4.292   5.480
 2271TIP3   OH2 6776   7.219   5.940   1.156
 2271TIP3    H1 6777   7.231   6.034   1.143
 2271TIP3    H2 6778   7.146   5.933   1.218
 2272TIP3   OH2 6779   7.120   2.950   2.544
 2272TIP3    H1 6780   7.036   2.992   2.561
 2272TIP3    H2 6781   7.099   2.857   2.535
 2273TIP3   OH2 6782   1.320   2.495   3.598
 2273TIP3    H1 6783   1.287   2.538   3.520
 2273TIP3    H2 6784   1.398   2.544   3.622
 2274TIP3   OH2 6785   5.025   3.052   4.061
 2274TIP3    H1 6786   5.098   2.990   4.062
 2274TIP3    H2 6787   5.013   3.077   4.152
 2275TIP3   OH2 6788   2.695   4.395   4.861
 2275TIP3    H1 6789   2.710   4.335   4.788
 2275TIP3    H2 6790   2.699   4.339   4.939
 2276TIP3   OH2 6791   2.280   0.231   0.362
 2276TIP3    H1 6792   2.198   0.260   0.402
 2276TIP3    H2 6793   2.264   0.140   0.337
 2277TIP3   OH2 6794   6.018   4.022   2.947
 2277TIP3    H1 6795   5.924   4.034   2.961
 2277TIP3    H2 6796   6.025   3.960   2.875
 2278TIP3   OH2 6797   3.621   1.885   4.402
 2278TIP3    H1 6798   3.566   1.815   4.438
 2278TIP3    H2 6799   3.705   1.875   4.447
 2279TIP3   OH2 6800   4.682   0.570   2.911
 2279TIP3    H1 6801   4.613   0.551   2.974
 2279TIP3    H2 6802   4.636   0.596   2.831
 2280TIP3   OH2 6803   2.712   5.767   4.397
 2280TIP3    H1 6804   2.707   5.685   4.447
 2280TIP3    H2 6805   2.665   5.748   4.315
 2281TIP3   OH2 6806   1.167   4.604   0.678
 2281TIP3    H1 6807   1.171   4.569   0.589
 2281TIP3    H2 6808   1.126   4.535   0.730
 2282TIP3   OH2 6809   6.699   1.426   1.723
 2282TIP3    H1 6810   6.647   1.357   1.766
 2282TIP3    H2 6811   6.644   1.454   1.650
 2283TIP3   OH2 6812   3.660   6.081   3.253
 2283TIP3    H1 6813   3.664   6.115   3.342
 2283TIP3    H2 6814   3.741   6.110   3.212
 2284TIP3   OH2 6815   3.846   2.194   3.293
 2284TIP3    H1 6816   3.828   2.278   3.336
 2284TIP3    H2 6817   3.791   2.195   3.215
 2285TIP3   OH2 6818   0.649   2.109   4.587
 2285TIP3    H1 6819   0.598   2.055   4.526
 2285TIP3    H2 6820   0.666   2.190   4.538
 2286TIP3   OH2 6821   2.233   2.233   5.715
 2286TIP3    H1 6822   2.177   2.191   5.650
 2286TIP3    H2 6823   2.241   2.324   5.684
 2287TIP3   OH2 6824   4.897   3.353   5.623
 2287TIP3    H1 6825   4.947   3.369   5.542
 2287TIP3    H2 6826   4.917   3.428   5.678
 2288TIP3   OH2 6827   0.029   1.995   2.118
 2288TIP3    H1 6828   0.090   2.068   2.113
 2288TIP3    H2 6829   0.084   1.917   2.116
 2289TIP3   OH2 6830   1.299   5.593   4.246
 2289TIP3    H1 6831   1.274   5.653   4.175
 2289TIP3    H2 6832   1.257   5.630   4.324
 2290TIP3   OH2 6833   3.987   1.122   2.656
 2290TIP3    H1 6834   4.065   1.123   2.711
 2290TIP3    H2 6835   3.947   1.208   2.670
 2291TIP3   OH2 6836   3.633   6.391   2.965
 2291TIP3    H1 6837   3.557   6.340   2.991
 2291TIP3    H2 6838   3.678   6.411   3.047
 2292TIP3   OH2 6839   6.466   3.814   2.172
 2292TIP3    H1 6840   6.521   3.738   2.152
 2292TIP3    H2 6841   6.484   3.876   2.101
 2293TIP3   OH2 6842   0.957   3.378   1.147
 2293TIP3    H1 6843   1.012   3.300   1.141
 2293TIP3    H2 6844   0.915   3.372   1.232
 2294TIP3   OH2 6845   3.051   3.613   0.122
 2294TIP3    H1 6846   2.976   3.608   0.181
 2294TIP3    H2 6847   3.092   3.527   0.127
 2295TIP3   OH2 6848   0.750   3.128   4.412
 2295TIP3    H1 6849   0.703   3.109   4.331
 2295TIP3    H2 6850   0.820   3.063   4.416
 2296TIP3   OH2 6851   0.739   6.471   5.905
 2296TIP3    H1 6852   0.666   6.513   5.860
 2296TIP3    H2 6853   0.808   6.464   5.839
 2297TIP3   OH2 6854   5.740   6.225   4.008
 2297TIP3    H1 6855   5.736   6.174   4.089
 2297TIP3    H2 6856   5.683   6.301   4.024
 2298TIP3   OH2 6857   0.620   0.595   3.084
 2298TIP3    H1 6858   0.713   0.617   3.077
 2298TIP3    H2 6859   0.601   0.602   3.178
 2299TIP3   OH2 6860   2.078   2.716   1.123
 2299TIP3    H1 6861   2.170   2.709   1.150
 2299TIP3    H2 6862   2.050   2.801   1.155
 2300TIP3   OH2 6863   2.983   1.167   2.772
 2300TIP3    H1 6864   2.913   1.145   2.834
 2300TIP3    H2 6865   3.035   1.233   2.817
 2301TIP3   OH2 6866   6.841   4.025   5.390
 2301TIP3    H1 6867   6.874   3.948   5.436
 2301TIP3    H2 6868   6.911   4.050   5.330
 2302TIP3   OH2 6869   4.564   3.016   3.708
 2302TIP3    H1 6870   4.628   3.085   3.688
 2302TIP3    H2 6871   4.524   2.996   3.623
 2303TIP3   OH2 6872   3.584   4.125   1.955
 2303TIP3    H1 6873   3.517   4.106   1.890
 2303TIP3    H2 6874   3.662   4.147   1.905
 2304TIP3   OH2 6875   1.514   5.611   4.858
 2304TIP3    H1 6876   1.457   5.538   4.882
 2304TIP3    H2 6877   1.516   5.667   4.936
 2305TIP3   OH2 6878   5.129   2.585   3.560
 2305TIP3    H1 6879   5.109   2.503   3.604
 2305TIP3    H2 6880   5.046   2.634   3.563
 2306TIP3   OH2 6881   3.784   5.476   2.335
 2306TIP3    H1 6882   3.743   5.404   2.288
 2306TIP3    H2 6883   3.878   5.457   2.332
 2307TIP3   OH2 6884   0.907   1.345   4.597
 2307TIP3    H1 6885   0.960   1.422   4.615
 2307TIP3    H2 6886   0.969   1.278   4.569
 2308TIP3   OH2 6887   3.991   4.018   4.359
 2308TIP3    H1 6888   4.058   4.046   4.422
 2308TIP3    H2 6889   4.037   4.014   4.275
 2309TIP3   OH2 6890   4.237   0.582   0.399
 2309TIP3    H1 6891   4.284   0.640   0.340
 2309TIP3    H2 6892   4.175   0.640   0.445
 2310TIP3   OH2 6893   1.503   2.445   2.035
 2310TIP3    H1 6894   1.484   2.397   1.954
 2310TIP3    H2 6895   1.531   2.378   2.097
 2311TIP3   OH2 6896   0.129   4.761   3.455
 2311TIP3    H1 6897   0.209   4.726   3.496
 2311TIP3    H2 6898   0.156   4.845   3.418
 2312TIP3   OH2 6899   2.386   6.427   0.273
 2312TIP3    H1 6900   2.311   6.432   0.213
 2312TIP3    H2 6901   2.372   6.498   0.335
 2313TIP3   OH2 6902   1.122   6.633   5.690
 2313TIP3    H1 6903   1.202   6.683   5.707
 2313TIP3    H2 6904   1.055   6.699   5.678
 2314TIP3   OH2 6905   4.149   1.886   3.468
 2314TIP3    H1 6906   4.055   1.897   3.452
 2314TIP3    H2 6907   4.164   1.792   3.457
 2315TIP3   OH2 6908   4.433   6.136   1.652
 2315TIP3    H1 6909   4.413   6.217   1.700
 2315TIP3    H2 6910   4.472   6.166   1.569
 2316TIP3   OH2 6911   3.789   4.650   1.055
 2316TIP3    H1 6912   3.747   4.680   1.135
 2316TIP3    H2 6913   3.722   4.657   0.987
 2317TIP3   OH2 6914   3.527   3.395   0.938
 2317TIP3    H1 6915   3.508   3.303   0.917
 2317TIP3    H2 6916   3.615   3.409   0.903
 2318TIP3   OH2 6917   7.065   4.008   4.531
 2318TIP3    H1 6918   7.078   3.945   4.602
 2318TIP3    H2 6919   6.996   4.065   4.562
 2319TIP3   OH2 6920   0.943   2.820   5.279
 2319TIP3    H1 6921   0.857   2.856   5.256
 2319TIP3    H2 6922   0.949   2.833   5.373
 2320TIP3   OH2 6923   2.597   1.203   0.778
 2320TIP3    H1 6924   2.601   1.134   0.844
 2320TIP3    H2 6925   2.608   1.157   0.694
 2321TIP3   OH2 6926   4.418   2.043   3.553
 2321TIP3    H1 6927   4.356   2.029   3.481
 2321TIP3    H2 6928   4.483   1.973   3.544
 2322TIP3   OH2 6929   0.517   2.160   1.649
 2322TIP3    H1 6930   0.546   2.076   1.686
 2322TIP3    H2 6931   0.583   2.223   1.677
 2323TIP3   OH2 6932   4.925   1.743   3.508
 2323TIP3    H1 6933   4.840   1.708   3.484
 2323TIP3    H2 6934   4.925   1.744   3.603
 2324TIP3   OH2 6935   5.422   0.730   1.610
 2324TIP3    H1 6936   5.505   0.763   1.644
 2324TIP3    H2 6937   5.359   0.799   1.633
 2325TIP3   OH2 6938   5.681   3.213   0.226
 2325TIP3    H1 6939   5.665   3.279   0.159
 2325TIP3    H2 6940   5.653   3.131   0.186
 2326TIP3   OH2 6941   6.352   5.177   0.551
 2326TIP3    H1 6942   6.288   5.202   0.485
 2326TIP3    H2 6943   6.305   5.116   0.608
 2327TIP3   OH2 6944   1.024   3.611   2.271
 2327TIP3    H1 6945   0.997   3.522   2.297
 2327TIP3    H2 6946   1.075   3.643   2.345
 2328TIP3   OH2 6947   0.627   2.187   5.866
 2328TIP3    H1 6948   0.716   2.191   5.900
 2328TIP3    H2 6949   0.621   2.100   5.825
 2329TIP3   OH2 6950   1.462   1.794   0.373
 2329TIP3    H1 6951   1.551   1.828   0.361
 2329TIP3    H2 6952   1.416   1.864   0.420
 2330TIP3   OH2 6953   5.449   5.418   2.154
 2330TIP3    H1 6954   5.494   5.415   2.238
 2330TIP3    H2 6955   5.424   5.510   2.143
 2331TIP3   OH2 6956   3.279   6.196   5.141
 2331TIP3    H1 6957   3.321   6.173   5.058
 2331TIP3    H2 6958   3.332   6.152   5.208
 2332TIP3   OH2 6959   7.195   4.455   2.017
 2332TIP3    H1 6960   7.175   4.470   2.109
 2332TIP3    H2 6961   7.256   4.382   2.017
 2333TIP3   OH2 6962   0.929   3.971   2.279
 2333TIP3    H1 6963   0.884   4.055   2.269
 2333TIP3    H2 6964   0.949   3.944   2.189
 2334TIP3   OH2 6965   2.239   6.615   0.412
 2334TIP3    H1 6966   2.176   6.685   0.394
 2334TIP3    H2 6967   2.187   6.541   0.443
 2335TIP3   OH2 6968   6.969   3.000   1.188
 2335TIP3    H1 6969   6.889   3.052   1.200
 2335TIP3    H2 6970   6.980   2.954   1.272
 2336TIP3   OH2 6971   6.224   5.139   4.417
 2336TIP3    H1 6972   6.232   5.212   4.478
 2336TIP3    H2 6973   6.314   5.120   4.390
 2337TIP3   OH2 6974   3.676   2.066   2.392
 2337TIP3    H1 6975   3.658   2.154   2.359
 2337TIP3    H2 6976   3.763   2.072   2.431
 2338TIP3   OH2 6977   4.350   5.082   4.963
 2338TIP3    H1 6978   4.349   5.078   4.868
 2338TIP3    H2 6979   4.259   5.094   4.988
 2339TIP3   OH2 6980   4.071   5.813   5.693
 2339TIP3    H1 6981   4.079   5.854   5.779
 2339TIP3    H2 6982   3.989   5.763   5.697
 2340TIP3   OH2 6983   2.466   1.602   5.071
 2340TIP3    H1 6984   2.561   1.587   5.069
 2340TIP3    H2 6985   2.442   1.598   5.163
 2341TIP3   OH2 6986   5.547   2.469   3.345
 2341TIP3    H1 6987   5.487   2.467   3.270
 2341TIP3    H2 6988   5.630   2.498   3.308
 2342TIP3   OH2 6989   3.552   4.583   2.591
 2342TIP3    H1 6990   3.623   4.637   2.556
 2342TIP3    H2 6991   3.473   4.621   2.553
 2343TIP3   OH2 6992   3.257   5.234   3.372
 2343TIP3    H1 6993   3.343   5.201   3.400
 2343TIP3    H2 6994   3.219   5.272   3.452
 2344TIP3   OH2 6995   3.610   0.692   0.728
 2344TIP3    H1 6996   3.618   0.773   0.677
 2344TIP3    H2 6997   3.516   0.676   0.733
 2345TIP3   OH2 6998   6.391   0.936   0.585
 2345TIP3    H1 6999   6.317   0.896   0.630
 2345TIP3    H2 7000   6.356   1.016   0.546
 2346TIP3   OH2 7001   6.558   5.168   0.128
 2346TIP3    H1 7002   6.544   5.197   0.218
 2346TIP3    H2 7003   6.476   5.187   0.083
 2347TIP3   OH2 7004   4.880   0.397   1.659
 2347TIP3    H1 7005   4.876   0.325   1.722
 2347TIP3    H2 7006   4.812   0.375   1.594
 2348TIP3   OH2 7007   6.604   6.457   5.721
 2348TIP3    H1 7008   6.596   6.546   5.754
 2348TIP3    H2 7009   6.591   6.402   5.798
 2349TIP3   OH2 7010   6.159   6.385   4.664
 2349TIP3    H1 7011   6.106   6.393   4.584
 2349TIP3    H2 7012   6.210   6.305   4.651
 2350TIP3   OH2 7013   2.645   0.274   5.181
 2350TIP3    H1 7014   2.632   0.220   5.103
 2350TIP3    H2 7015   2.633   0.364   5.150
 2351TIP3   OH2 7016   3.795   2.269   0.972
 2351TIP3    H1 7017   3.706   2.304   0.960
 2351TIP3    H2 7018   3.783   2.190   1.024
 2352TIP3   OH2 7019   6.433   1.118   0.091
 2352TIP3    H1 7020   6.493   1.176   0.044
 2352TIP3    H2 7021   6.481   1.035   0.099
 2353TIP3   OH2 7022   6.891   6.369   2.545
 2353TIP3    H1 7023   6.962   6.410   2.595
 2353TIP3    H2 7024   6.906   6.397   2.455
 2354TIP3   OH2 7025   2.727   1.882   1.442
 2354TIP3    H1 7026   2.652   1.823   1.446
 2354TIP3    H2 7027   2.733   1.921   1.529
 2355TIP3   OH2 7028   6.443   3.591   3.073
 2355TIP3    H1 7029   6.430   3.667   3.129
 2355TIP3    H2 7030   6.434   3.624   2.983
 2356TIP3   OH2 7031   6.543   0.837   0.086
 2356TIP3    H1 7032   6.501   0.780   0.021
 2356TIP3    H2 7033   6.616   0.785   0.120
 2357TIP3   OH2 7034   0.483   1.148   1.545
 2357TIP3    H1 7035   0.394   1.140   1.512
 2357TIP3    H2 7036   0.478   1.217   1.611
 2358TIP3   OH2 7037   0.483   2.720   1.416
 2358TIP3    H1 7038   0.502   2.813   1.429
 2358TIP3    H2 7039   0.439   2.716   1.331
 2359TIP3   OH2 7040   0.945   1.401   5.320
 2359TIP3    H1 7041   1.028   1.405   5.273
 2359TIP3    H2 7042   0.923   1.492   5.339
 2360TIP3   OH2 7043   5.169   2.609   5.389
 2360TIP3    H1 7044   5.112   2.619   5.312
 2360TIP3    H2 7045   5.110   2.589   5.461
 2361TIP3   OH2 7046   1.152   6.517   4.053
 2361TIP3    H1 7047   1.083   6.450   4.048
 2361TIP3    H2 7048   1.104   6.600   4.061
 2362TIP3   OH2 7049   0.106   5.814   2.986
 2362TIP3    H1 7050   0.118   5.725   2.952
 2362TIP3    H2 7051   0.194   5.850   2.991
 2363TIP3   OH2 7052   1.841   5.880   4.809
 2363TIP3    H1 7053   1.863   5.893   4.717
 2363TIP3    H2 7054   1.844   5.785   4.821
 2364TIP3   OH2 7055   2.882   1.131   1.512
 2364TIP3    H1 7056   2.862   1.131   1.419
 2364TIP3    H2 7057   2.958   1.189   1.521
 2365TIP3   OH2 7058   4.650   5.294   4.501
 2365TIP3    H1 7059   4.680   5.230   4.436
 2365TIP3    H2 7060   4.585   5.247   4.553
 2366TIP3   OH2 7061   0.673   1.149   1.305
 2366TIP3    H1 7062   0.603   1.194   1.258
 2366TIP3    H2 7063   0.634   1.126   1.390
 2367TIP3   OH2 7064   1.214   5.257   2.319
 2367TIP3    H1 7065   1.163   5.261   2.239
 2367TIP3    H2 7066   1.286   5.319   2.305
 2368TIP3   OH2 7067   4.977   3.659   0.837
 2368TIP3    H1 7068   4.942   3.637   0.750
 2368TIP3    H2 7069   5.039   3.731   0.820
 2369TIP3   OH2 7070   0.529   0.230   2.771
 2369TIP3    H1 7071   0.461   0.191   2.827
 2369TIP3    H2 7072   0.610   0.219   2.821
 2370TIP3   OH2 7073   2.331   6.442   2.651
 2370TIP3    H1 7074   2.303   6.524   2.693
 2370TIP3    H2 7075   2.427   6.445   2.656
 2371TIP3   OH2 7076   1.081   5.184   2.072
 2371TIP3    H1 7077   1.091   5.089   2.076
 2371TIP3    H2 7078   1.066   5.203   1.980
 2372TIP3   OH2 7079   0.998   4.442   0.984
 2372TIP3    H1 7080   0.990   4.414   0.893
 2372TIP3    H2 7081   1.092   4.440   1.001
 2373TIP3   OH2 7082   3.639   1.779   1.169
 2373TIP3    H1 7083   3.730   1.750   1.158
 2373TIP3    H2 7084   3.623   1.773   1.263
 2374TIP3   OH2 7085   7.022   1.030   4.094
 2374TIP3    H1 7086   6.932   1.010   4.068
 2374TIP3    H2 7087   7.014   1.103   4.156
 2375TIP3   OH2 7088   4.214   5.732   5.472
 2375TIP3    H1 7089   4.125   5.732   5.439
 2375TIP3    H2 7090   4.205   5.740   5.567
 2376TIP3   OH2 7091   5.981   2.136   5.521
 2376TIP3    H1 7092   5.996   2.227   5.494
 2376TIP3    H2 7093   5.889   2.120   5.501
 2377TIP3   OH2 7094   4.291   4.299   4.590
 2377TIP3    H1 7095   4.346   4.341   4.524
 2377TIP3    H2 7096   4.354   4.266   4.655
 2378TIP3   OH2 7097   3.767   4.346   1.107
 2378TIP3    H1 7098   3.861   4.329   1.108
 2378TIP3    H2 7099   3.760   4.440   1.091
 2379TIP3   OH2 7100   4.402   5.112   2.929
 2379TIP3    H1 7101   4.417   5.089   3.020
 2379TIP3    H2 7102   4.434   5.037   2.879
 2380TIP3   OH2 7103   2.581   2.419   1.846
 2380TIP3    H1 7104   2.601   2.380   1.761
 2380TIP3    H2 7105   2.495   2.383   1.869
 2381TIP3   OH2 7106   6.822   1.650   4.583
 2381TIP3    H1 7107   6.752   1.708   4.614
 2381TIP3    H2 7108   6.896   1.709   4.568
 2382TIP3   OH2 7109   5.179   4.476   2.977
 2382TIP3    H1 7110   5.121   4.547   3.005
 2382TIP3    H2 7111   5.121   4.400   2.969
 2383TIP3   OH2 7112   6.672   3.378   5.536
 2383TIP3    H1 7113   6.734   3.386   5.463
 2383TIP3    H2 7114   6.599   3.328   5.500
 2384TIP3   OH2 7115   6.898   3.186   2.280
 2384TIP3    H1 7116   6.821   3.207   2.228
 2384TIP3    H2 7117   6.972   3.224   2.232
 2385TIP3   OH2 7118   6.311   2.900   5.060
 2385TIP3    H1 7119   6.245   2.892   4.991
 2385TIP3    H2 7120   6.382   2.950   5.020
 2386TIP3   OH2 7121   6.927   1.840   2.596
 2386TIP3    H1 7122   6.982   1.762   2.604
 2386TIP3    H2 7123   6.979   1.910   2.635
 2387TIP3   OH2 7124   5.858   3.530   5.660
 2387TIP3    H1 7125   5.771   3.542   5.621
 2387TIP3    H2 7126   5.905   3.610   5.639
 2388TIP3   OH2 7127   2.552   1.027   5.147
 2388TIP3    H1 7128   2.630   1.082   5.138
 2388TIP3    H2 7129   2.521   1.013   5.058
 2389TIP3   OH2 7130   0.885   6.653   4.616
 2389TIP3    H1 7131   0.916   6.565   4.638
 2389TIP3    H2 7132   0.802   6.661   4.663
 2390TIP3   OH2 7133   7.246   4.598   5.620
 2390TIP3    H1 7134   7.162   4.557   5.640
 2390TIP3    H2 7135   7.224   4.682   5.581
 2391TIP3   OH2 7136   2.712   5.638   2.170
 2391TIP3    H1 7137   2.717   5.637   2.266
 2391TIP3    H2 7138   2.795   5.676   2.143
 2392TIP3   OH2 7139   0.791   1.062   5.701
 2392TIP3    H1 7140   0.763   1.033   5.615
 2392TIP3    H2 7141   0.713   1.102   5.739
 2393TIP3   OH2 7142   7.092   0.318   1.743
 2393TIP3    H1 7143   7.020   0.255   1.734
 2393TIP3    H2 7144   7.166   0.275   1.700
 2394TIP3   OH2 7145   0.369   4.934   1.024
 2394TIP3    H1 7146   0.420   4.853   1.024
 2394TIP3    H2 7147   0.404   4.985   0.951
 2395TIP3   OH2 7148   2.907   0.973   0.210
 2395TIP3    H1 7149   2.822   0.954   0.170
 2395TIP3    H2 7150   2.892   1.051   0.263
 2396TIP3   OH2 7151   2.817   1.634   4.325
 2396TIP3    H1 7152   2.817   1.709   4.266
 2396TIP3    H2 7153   2.856   1.667   4.406
 2397TIP3   OH2 7154   1.178   4.618   2.052
 2397TIP3    H1 7155   1.115   4.669   2.102
 2397TIP3    H2 7156   1.153   4.631   1.960
 2398TIP3   OH2 7157   4.518   4.831   4.577
 2398TIP3    H1 7158   4.510   4.812   4.484
 2398TIP3    H2 7159   4.607   4.867   4.587
 2399TIP3   OH2 7160   5.099   4.767   1.711
 2399TIP3    H1 7161   5.005   4.779   1.725
 2399TIP3    H2 7162   5.128   4.713   1.785
 2400TIP3   OH2 7163   1.833   1.471   0.842
 2400TIP3    H1 7164   1.835   1.502   0.933
 2400TIP3    H2 7165   1.794   1.383   0.848
 2401TIP3   OH2 7166   4.383   6.277   5.230
 2401TIP3    H1 7167   4.329   6.269   5.151
 2401TIP3    H2 7168   4.402   6.187   5.255
 2402TIP3   OH2 7169   1.071   6.160   0.107
 2402TIP3    H1 7170   1.094   6.235   0.052
 2402TIP3    H2 7171   1.015   6.106   0.051
 2403TIP3   OH2 7172   2.722   0.194   2.143
 2403TIP3    H1 7173   2.775   0.128   2.188
 2403TIP3    H2 7174   2.663   0.227   2.211
 2404TIP3   OH2 7175   5.154   1.075   1.947
 2404TIP3    H1 7176   5.105   1.114   1.874
 2404TIP3    H2 7177   5.193   1.149   1.993
 2405TIP3   OH2 7178   4.818   2.581   3.799
 2405TIP3    H1 7179   4.731   2.567   3.836
 2405TIP3    H2 7180   4.818   2.673   3.772
 2406TIP3   OH2 7181   0.617   0.637   1.209
 2406TIP3    H1 7182   0.670   0.617   1.132
 2406TIP3    H2 7183   0.553   0.566   1.214
 2407TIP3   OH2 7184   1.707   3.413   5.768
 2407TIP3    H1 7185   1.629   3.411   5.712
 2407TIP3    H2 7186   1.676   3.452   5.850
 2408TIP3   OH2 7187   2.463   0.832   5.332
 2408TIP3    H1 7188   2.471   0.764   5.265
 2408TIP3    H2 7189   2.489   0.913   5.288
 2409TIP3   OH2 7190   4.698   2.658   5.113
 2409TIP3    H1 7191   4.683   2.743   5.154
 2409TIP3    H2 7192   4.745   2.608   5.179
 2410TIP3   OH2 7193   5.010   2.671   4.153
 2410TIP3    H1 7194   4.921   2.647   4.180
 2410TIP3    H2 7195   4.998   2.717   4.070
 2411TIP3   OH2 7196   4.968   4.846   5.558
 2411TIP3    H1 7197   4.883   4.812   5.586
 2411TIP3    H2 7198   4.947   4.919   5.500
 2412TIP3   OH2 7199   5.705   3.752   3.848
 2412TIP3    H1 7200   5.675   3.675   3.800
 2412TIP3    H2 7201   5.794   3.768   3.815
 2413TIP3   OH2 7202   6.207   2.784   5.848
 2413TIP3    H1 7203   6.113   2.782   5.863
 2413TIP3    H2 7204   6.222   2.863   5.797
 2414TIP3   OH2 7205   1.015   1.109   0.715
 2414TIP3    H1 7206   1.068   1.185   0.739
 2414TIP3    H2 7207   0.925   1.140   0.725
 2415TIP3   OH2 7208   6.065   3.277   4.595
 2415TIP3    H1 7209   6.143   3.279   4.541
 2415TIP3    H2 7210   6.002   3.333   4.549
 2416TIP3   OH2 7211   2.955   4.585   1.894
 2416TIP3    H1 7212   2.979   4.493   1.901
 2416TIP3    H2 7213   3.016   4.631   1.951
 2417TIP3   OH2 7214   0.619   4.273   5.411
 2417TIP3    H1 7215   0.609   4.216   5.487
 2417TIP3    H2 7216   0.567   4.231   5.343
 2418TIP3   OH2 7217   2.431   2.731   5.551
 2418TIP3    H1 7218   2.478   2.652   5.578
 2418TIP3    H2 7219   2.347   2.699   5.518
 2419TIP3   OH2 7220   0.044   4.693   0.505
 2419TIP3    H1 7221   0.022   4.709   0.596
 2419TIP3    H2 7222   0.050   4.780   0.465
 2420TIP3   OH2 7223   4.109   5.947   3.097
 2420TIP3    H1 7224   4.119   5.867   3.149
 2420TIP3    H2 7225   4.161   5.931   3.018
 2421TIP3   OH2 7226   5.170   2.297   0.104
 2421TIP3    H1 7227   5.168   2.382   0.146
 2421TIP3    H2 7228   5.260   2.286   0.075
 2422TIP3   OH2 7229   1.282   4.994   4.239
 2422TIP3    H1 7230   1.267   4.900   4.232
 2422TIP3    H2 7231   1.253   5.017   4.327
 2423TIP3   OH2 7232   0.950   0.170   4.812
 2423TIP3    H1 7233   0.962   0.083   4.775
 2423TIP3    H2 7234   1.027   0.184   4.867
 2424TIP3   OH2 7235   4.952   6.138   3.714
 2424TIP3    H1 7236   4.910   6.210   3.667
 2424TIP3    H2 7237   5.044   6.165   3.722
 2425TIP3   OH2 7238   4.804   2.244   3.930
 2425TIP3    H1 7239   4.786   2.236   3.837
 2425TIP3    H2 7240   4.768   2.329   3.955
 2426TIP3   OH2 7241   2.821   1.106   3.316
 2426TIP3    H1 7242   2.781   1.193   3.307
 2426TIP3    H2 7243   2.840   1.098   3.409
 2427TIP3   OH2 7244   2.455   5.163   3.793
 2427TIP3    H1 7245   2.366   5.176   3.827
 2427TIP3    H2 7246   2.470   5.069   3.800
 2428TIP3   OH2 7247   0.023   4.670   2.382
 2428TIP3    H1 7248   0.109   4.633   2.400
 2428TIP3    H2 7249  -0.017   4.680   2.469
 2429TIP3   OH2 7250   1.406   2.704   0.280
 2429TIP3    H1 7251   1.430   2.620   0.241
 2429TIP3    H2 7252   1.433   2.769   0.214
 2430TIP3   OH2 7253   3.005   1.696   3.015
 2430TIP3    H1 7254   3.095   1.716   3.041
 2430TIP3    H2 7255   2.985   1.612   3.057
 2431TIP3   OH2 7256   7.210   4.134   2.813
 2431TIP3    H1 7257   7.235   4.224   2.793
 2431TIP3    H2 7258   7.166   4.140   2.898
 2432TIP3   OH2 7259   6.830   0.033   3.781
 2432TIP3    H1 7260   6.903   0.007   3.837
 2432TIP3    H2 7261   6.805   0.121   3.812
 2433TIP3   OH2 7262   4.980   0.640   2.382
 2433TIP3    H1 7263   5.029   0.572   2.336
 2433TIP3    H2 7264   4.941   0.693   2.313
 2434TIP3   OH2 7265   3.433   4.974   1.074
 2434TIP3    H1 7266   3.443   4.944   0.983
 2434TIP3    H2 7267   3.349   5.020   1.074
 2435TIP3   OH2 7268   1.195   1.752   2.181
 2435TIP3    H1 7269   1.150   1.801   2.250
 2435TIP3    H2 7270   1.285   1.747   2.210
 2436TIP3   OH2 7271   2.445   5.714   0.690
 2436TIP3    H1 7272   2.406   5.635   0.727
 2436TIP3    H2 7273   2.378   5.781   0.700
 2437TIP3   OH2 7274   0.314   6.654   1.812
 2437TIP3    H1 7275   0.252   6.716   1.774
 2437TIP3    H2 7276   0.399   6.697   1.804
 2438TIP3   OH2 7277   6.542   0.451   4.087
 2438TIP3    H1 7278   6.564   0.541   4.065
 2438TIP3    H2 7279   6.622   0.401   4.071
 2439TIP3   OH2 7280   1.000   4.653   4.228
 2439TIP3    H1 7281   0.936   4.705   4.275
 2439TIP3    H2 7282   1.083   4.698   4.241
 2440TIP3   OH2 7283   5.014   1.620   5.803
 2440TIP3    H1 7284   4.958   1.618   5.880
 2440TIP3    H2 7285   5.101   1.597   5.837
 2441TIP3   OH2 7286   2.728   4.522   4.062
 2441TIP3    H1 7287   2.742   4.443   4.115
 2441TIP3    H2 7288   2.736   4.493   3.971
 2442TIP3   OH2 7289   0.973   5.881   0.986
 2442TIP3    H1 7290   0.886   5.864   1.023
 2442TIP3    H2 7291   0.984   5.816   0.918
 2443TIP3   OH2 7292   0.129   4.216   4.658
 2443TIP3    H1 7293   0.039   4.194   4.635
 2443TIP3    H2 7294   0.143   4.177   4.744
 2444TIP3   OH2 7295   0.139   1.319   5.782
 2444TIP3    H1 7296   0.048   1.291   5.778
 2444TIP3    H2 7297   0.137   1.403   5.827
 2445TIP3   OH2 7298   7.191   3.941   5.524
 2445TIP3    H1 7299   7.235   3.906   5.447
 2445TIP3    H2 7300   7.099   3.916   5.513
 2446TIP3   OH2 7301   4.794   0.766   3.978
 2446TIP3    H1 7302   4.883   0.801   3.983
 2446TIP3    H2 7303   4.750   0.799   4.056
 2447TIP3   OH2 7304   5.044   6.484   0.788
 2447TIP3    H1 7305   5.049   6.570   0.746
 2447TIP3    H2 7306   5.133   6.469   0.820
 2448TIP3   OH2 7307   0.007   4.273   3.524
 2448TIP3    H1 7308   0.064   4.266   3.447
 2448TIP3    H2 7309   0.060   4.321   3.588
 2449TIP3   OH2 7310   1.819   5.498   3.015
 2449TIP3    H1 7311   1.816   5.403   3.029
 2449TIP3    H2 7312   1.799   5.536   3.101
 2450TIP3   OH2 7313   2.883   4.659   2.639
 2450TIP3    H1 7314   2.936   4.625   2.710
 2450TIP3    H2 7315   2.812   4.708   2.682
 2451TIP3   OH2 7316   6.839   4.214   2.768
 2451TIP3    H1 7317   6.876   4.204   2.681
 2451TIP3    H2 7318   6.897   4.164   2.826
 2452TIP3   OH2 7319   5.396   2.019   1.713
 2452TIP3    H1 7320   5.392   2.105   1.755
 2452TIP3    H2 7321   5.393   1.957   1.786
 2453TIP3   OH2 7322   6.727   1.249   3.401
 2453TIP3    H1 7323   6.765   1.322   3.352
 2453TIP3    H2 7324   6.798   1.186   3.411
 2454TIP3   OH2 7325   4.084   0.082   5.083
 2454TIP3    H1 7326   4.065   0.175   5.093
 2454TIP3    H2 7327   4.167   0.080   5.036
 2455TIP3   OH2 7328   3.005   1.635   0.445
 2455TIP3    H1 7329   2.977   1.724   0.422
 2455TIP3    H2 7330   3.064   1.646   0.519
 2456TIP3   OH2 7331   6.669   6.092   3.496
 2456TIP3    H1 7332   6.581   6.055   3.504
 2456TIP3    H2 7333   6.655   6.182   3.464
 2457TIP3   OH2 7334   3.838   0.080   3.411
 2457TIP3    H1 7335   3.747   0.110   3.407
 2457TIP3    H2 7336   3.884   0.133   3.346
 2458TIP3   OH2 7337   4.156   1.286   5.755
 2458TIP3    H1 7338   4.182   1.372   5.790
 2458TIP3    H2 7339   4.071   1.268   5.795
 2459TIP3   OH2 7340   5.220   0.983   3.464
 2459TIP3    H1 7341   5.262   0.962   3.381
 2459TIP3    H2 7342   5.155   1.050   3.442
 2460TIP3   OH2 7343   6.365   3.357   5.460
 2460TIP3    H1 7344   6.331   3.443   5.485
 2460TIP3    H2 7345   6.416   3.374   5.381
 2461TIP3   OH2 7346   2.544   0.575   2.278
 2461TIP3    H1 7347   2.516   0.611   2.362
 2461TIP3    H2 7348   2.470   0.520   2.250
 2462TIP3   OH2 7349   0.918   3.096   5.075
 2462TIP3    H1 7350   0.999   3.145   5.088
 2462TIP3    H2 7351   0.946   3.005   5.063
 2463TIP3   OH2 7352   2.395   1.294   1.368
 2463TIP3    H1 7353   2.307   1.332   1.369
 2463TIP3    H2 7354   2.390   1.225   1.302
 2464TIP3   OH2 7355   2.225   5.481   3.049
 2464TIP3    H1 7356   2.221   5.505   3.142
 2464TIP3    H2 7357   2.186   5.556   3.003
 2465TIP3   OH2 7358   0.679   6.123   2.423
 2465TIP3    H1 7359   0.652   6.063   2.353
 2465TIP3    H2 7360   0.613   6.193   2.422
 2466TIP3   OH2 7361   0.061   1.856   2.466
 2466TIP3    H1 7362   0.044   1.939   2.510
 2466TIP3    H2 7363  -0.020   1.835   2.419
 2467TIP3   OH2 7364   1.450   4.239   2.534
 2467TIP3    H1 7365   1.374   4.270   2.486
 2467TIP3    H2 7366   1.438   4.270   2.623
 2468TIP3   OH2 7367   3.746   3.987   0.392
 2468TIP3    H1 7368   3.786   4.024   0.471
 2468TIP3    H2 7369   3.665   3.947   0.423
 2469TIP3   OH2 7370   4.852   3.974   4.233
 2469TIP3    H1 7371   4.854   4.056   4.184
 2469TIP3    H2 7372   4.939   3.936   4.220
 2470TIP3   OH2 7373   5.706   3.848   0.562
 2470TIP3    H1 7374   5.669   3.866   0.648
 2470TIP3    H2 7375   5.790   3.894   0.562
 2471TIP3   OH2 7376   5.731   2.619   3.228
 2471TIP3    H1 7377   5.825   2.616   3.211
 2471TIP3    H2 7378   5.719   2.696   3.283
 2472TIP3   OH2 7379   3.480   3.348   1.257
 2472TIP3    H1 7380   3.489   3.307   1.170
 2472TIP3    H2 7381   3.465   3.440   1.238
 2473TIP3   OH2 7382   6.877   3.672   3.735
 2473TIP3    H1 7383   6.858   3.677   3.642
 2473TIP3    H2 7384   6.971   3.686   3.741
 2474TIP3   OH2 7385   2.462   3.757   5.378
 2474TIP3    H1 7386   2.435   3.780   5.467
 2474TIP3    H2 7387   2.469   3.840   5.332
 2475TIP3   OH2 7388   5.675   2.567   3.617
 2475TIP3    H1 7389   5.693   2.645   3.670
 2475TIP3    H2 7390   5.762   2.534   3.593
 2476TIP3   OH2 7391   2.471   3.325   5.009
 2476TIP3    H1 7392   2.430   3.395   5.059
 2476TIP3    H2 7393   2.421   3.247   5.031
 2477TIP3   OH2 7394   6.294   0.550   5.555
 2477TIP3    H1 7395   6.354   0.531   5.627
 2477TIP3    H2 7396   6.351   0.588   5.487
 2478TIP3   OH2 7397   3.303   1.086   1.257
 2478TIP3    H1 7398   3.297   1.018   1.325
 2478TIP3    H2 7399   3.217   1.088   1.217
 2479TIP3   OH2 7400   0.498   3.220   1.165
 2479TIP3    H1 7401   0.466   3.205   1.076
 2479TIP3    H2 7402   0.441   3.289   1.199
 2480TIP3   OH2 7403   2.956   1.738   1.166
 2480TIP3    H1 7404   2.975   1.706   1.078
 2480TIP3    H2 7405   2.901   1.815   1.153
 2481TIP3   OH2 7406   5.580   1.173   3.860
 2481TIP3    H1 7407   5.658   1.203   3.907
 2481TIP3    H2 7408   5.518   1.246   3.868
 2482TIP3   OH2 7409   6.750   1.484   4.787
 2482TIP3    H1 7410   6.733   1.459   4.877
 2482TIP3    H2 7411   6.664   1.502   4.750
 2483TIP3   OH2 7412   0.244   5.800   5.733
 2483TIP3    H1 7413   0.274   5.771   5.819
 2483TIP3    H2 7414   0.165   5.851   5.751
 2484TIP3   OH2 7415   2.078   3.458   4.109
 2484TIP3    H1 7416   2.009   3.412   4.062
 2484TIP3    H2 7417   2.102   3.398   4.181
 2485TIP3   OH2 7418   5.313   1.156   1.095
 2485TIP3    H1 7419   5.392   1.104   1.076
 2485TIP3    H2 7420   5.289   1.131   1.184
 2486TIP3   OH2 7421   2.218   6.481   1.636
 2486TIP3    H1 7422   2.287   6.490   1.572
 2486TIP3    H2 7423   2.226   6.559   1.691
 2487TIP3   OH2 7424   0.287   3.332   3.556
 2487TIP3    H1 7425   0.252   3.379   3.632
 2487TIP3    H2 7426   0.266   3.240   3.574
 2488TIP3   OH2 7427   5.614   3.989   5.387
 2488TIP3    H1 7428   5.548   3.932   5.348
 2488TIP3    H2 7429   5.689   3.931   5.402
 2489TIP3   OH2 7430   7.256   5.463   2.381
 2489TIP3    H1 7431   7.175   5.514   2.383
 2489TIP3    H2 7432   7.227   5.372   2.374
 2490TIP3   OH2 7433   6.771   5.012   4.533
 2490TIP3    H1 7434   6.859   4.996   4.498
 2490TIP3    H2 7435   6.782   5.087   4.590
 2491TIP3   OH2 7436   2.813   2.769   5.802
 2491TIP3    H1 7437   2.865   2.716   5.863
 2491TIP3    H2 7438   2.871   2.841   5.779
 2492TIP3   OH2 7439   6.426   5.788   1.060
 2492TIP3    H1 7440   6.500   5.735   1.031
 2492TIP3    H2 7441   6.405   5.843   0.985
 2493TIP3   OH2 7442   5.562   0.126   1.137
 2493TIP3    H1 7443   5.466   0.125   1.139
 2493TIP3    H2 7444   5.586   0.205   1.185
 2494TIP3   OH2 7445   3.241   2.036   2.855
 2494TIP3    H1 7446   3.271   1.952   2.819
 2494TIP3    H2 7447   3.274   2.101   2.792
 2495TIP3   OH2 7448   0.663   3.723   0.310
 2495TIP3    H1 7449   0.699   3.811   0.295
 2495TIP3    H2 7450   0.593   3.715   0.245
 2496TIP3   OH2 7451   4.923   3.870   0.335
 2496TIP3    H1 7452   5.006   3.826   0.354
 2496TIP3    H2 7453   4.900   3.913   0.417
 2497TIP3   OH2 7454   7.217   6.755   0.913
 2497TIP3    H1 7455   7.189   6.799   0.832
 2497TIP3    H2 7456   7.149   6.777   0.977
 2498TIP3   OH2 7457   5.628   4.258   5.134
 2498TIP3    H1 7458   5.696   4.256   5.068
 2498TIP3    H2 7459   5.563   4.195   5.104
 2499TIP3   OH2 7460   4.992   6.781   3.042
 2499TIP3    H1 7461   5.088   6.789   3.037
 2499TIP3    H2 7462   4.963   6.860   3.086
 2500TIP3   OH2 7463   5.321   0.378   2.726
 2500TIP3    H1 7464   5.332   0.393   2.820
 2500TIP3    H2 7465   5.272   0.296   2.720
 2501TIP3   OH2 7466   0.407   6.642   4.477
 2501TIP3    H1 7467   0.399   6.716   4.416
 2501TIP3    H2 7468   0.484   6.594   4.447
 2502TIP3   OH2 7469   6.697   6.492   1.020
 2502TIP3    H1 7470   6.761   6.421   1.015
 2502TIP3    H2 7471   6.614   6.448   1.040
 2503TIP3   OH2 7472   4.807   4.401   0.782
 2503TIP3    H1 7473   4.826   4.449   0.862
 2503TIP3    H2 7474   4.761   4.322   0.810
 2504TIP3   OH2 7475   3.330   1.705   0.193
 2504TIP3    H1 7476   3.263   1.734   0.130
 2504TIP3    H2 7477   3.306   1.750   0.274
 2505TIP3   OH2 7478   7.100   5.451   4.022
 2505TIP3    H1 7479   7.105   5.356   4.012
 2505TIP3    H2 7480   7.010   5.473   4.000
 2506TIP3   OH2 7481   4.575   2.237   4.420
 2506TIP3    H1 7482   4.485   2.265   4.435
 2506TIP3    H2 7483   4.576   2.206   4.330
 2507TIP3   OH2 7484   4.831   2.925   1.685
 2507TIP3    H1 7485   4.800   2.997   1.630
 2507TIP3    H2 7486   4.874   2.968   1.759
 2508TIP3   OH2 7487   0.828   3.625   0.553
 2508TIP3    H1 7488   0.763   3.648   0.619
 2508TIP3    H2 7489   0.785   3.645   0.469
 2509TIP3   OH2 7490   4.969   4.534   3.751
 2509TIP3    H1 7491   5.064   4.550   3.758
 2509TIP3    H2 7492   4.931   4.621   3.745
 2510TIP3   OH2 7493   1.262   0.613   3.818
 2510TIP3    H1 7494   1.342   0.624   3.869
 2510TIP3    H2 7495   1.255   0.694   3.767
 2511TIP3   OH2 7496   3.106   4.553   3.118
 2511TIP3    H1 7497   3.162   4.512   3.183
 2511TIP3    H2 7498   3.090   4.641   3.152
 2512TIP3   OH2 7499   4.258   1.920   2.838
 2512TIP3    H1 7500   4.312   1.870   2.899
 2512TIP3    H2 7501   4.306   2.001   2.823
 2513TIP3   OH2 7502   1.079   0.178   3.675
 2513TIP3    H1 7503   1.058   0.140   3.590
 2513TIP3    H2 7504   1.075   0.272   3.661
 2514TIP3   OH2 7505   4.419   1.049   1.086
 2514TIP3    H1 7506   4.372   1.089   1.158
 2514TIP3    H2 7507   4.401   0.955   1.095
 2515TIP3   OH2 7508   7.143   1.236   3.524
 2515TIP3    H1 7509   7.175   1.288   3.598
 2515TIP3    H2 7510   7.217   1.181   3.500
 2516TIP3   OH2 7511   3.748   3.963   5.220
 2516TIP3    H1 7512   3.810   4.031   5.245
 2516TIP3    H2 7513   3.671   3.979   5.273
 2517TIP3   OH2 7514   4.491   0.929   3.800
 2517TIP3    H1 7515   4.523   0.841   3.779
 2517TIP3    H2 7516   4.435   0.917   3.877
 2518TIP3   OH2 7517   6.812   2.042   4.969
 2518TIP3    H1 7518   6.846   2.106   5.032
 2518TIP3    H2 7519   6.727   2.077   4.943
 2519TIP3   OH2 7520   4.623   1.802   2.794
 2519TIP3    H1 7521   4.590   1.848   2.717
 2519TIP3    H2 7522   4.622   1.710   2.769
 2520TIP3   OH2 7523   6.078   0.616   1.304
 2520TIP3    H1 7524   6.133   0.691   1.326
 2520TIP3    H2 7525   6.116   0.580   1.224
 2521TIP3   OH2 7526   3.274   4.499   3.316
 2521TIP3    H1 7527   3.288   4.472   3.406
 2521TIP3    H2 7528   3.355   4.543   3.291
 2522TIP3   OH2 7529   5.456   6.385   5.191
 2522TIP3    H1 7530   5.484   6.303   5.150
 2522TIP3    H2 7531   5.511   6.452   5.150
 2523TIP3   OH2 7532   4.735   6.729   5.528
 2523TIP3    H1 7533   4.733   6.781   5.609
 2523TIP3    H2 7534   4.647   6.693   5.521
 2524TIP3   OH2 7535   5.782   4.284   1.481
 2524TIP3    H1 7536   5.847   4.229   1.436
 2524TIP3    H2 7537   5.740   4.224   1.543
 2525TIP3   OH2 7538   1.814   4.953   4.836
 2525TIP3    H1 7539   1.768   4.943   4.920
 2525TIP3    H2 7540   1.901   4.984   4.860
 2526TIP3   OH2 7541   1.425   4.185   4.302
 2526TIP3    H1 7542   1.402   4.095   4.278
 2526TIP3    H2 7543   1.456   4.225   4.221
 2527TIP3   OH2 7544   0.934   5.059   5.379
 2527TIP3    H1 7545   0.895   4.979   5.414
 2527TIP3    H2 7546   0.948   5.114   5.457
 2528TIP3   OH2 7547   0.411   5.016   3.106
 2528TIP3    H1 7548   0.500   5.019   3.071
 2528TIP3    H2 7549   0.356   5.039   3.032
 2529TIP3   OH2 7550   2.161   5.947   3.211
 2529TIP3    H1 7551   2.076   5.973   3.175
 2529TIP3    H2 7552   2.165   5.852   3.198
 2530TIP3   OH2 7553   6.899   3.749   4.469
 2530TIP3    H1 7554   6.828   3.813   4.474
 2530TIP3    H2 7555   6.917   3.726   4.560
 2531TIP3   OH2 7556   4.844   1.515   0.298
 2531TIP3    H1 7557   4.912   1.581   0.286
 2531TIP3    H2 7558   4.806   1.534   0.383
 2532TIP3   OH2 7559   0.130   5.093   3.847
 2532TIP3    H1 7560   0.085   5.174   3.825
 2532TIP3    H2 7561   0.064   5.024   3.837
 2533TIP3   OH2 7562   1.300   0.453   4.670
 2533TIP3    H1 7563   1.263   0.528   4.624
 2533TIP3    H2 7564   1.382   0.434   4.624
 2534TIP3   OH2 7565   6.180   4.572   4.249
 2534TIP3    H1 7566   6.151   4.524   4.327
 2534TIP3    H2 7567   6.235   4.509   4.202
 2535TIP3   OH2 7568   5.063   4.589   2.228
 2535TIP3    H1 7569   5.138   4.624   2.276
 2535TIP3    H2 7570   4.988   4.636   2.262
 2536TIP3   OH2 7571   0.853   5.701   4.218
 2536TIP3    H1 7572   0.843   5.662   4.305
 2536TIP3    H2 7573   0.929   5.656   4.180
 2537TIP3   OH2 7574   3.810   2.664   3.699
 2537TIP3    H1 7575   3.753   2.676   3.623
 2537TIP3    H2 7576   3.870   2.594   3.674
 2538TIP3   OH2 7577   3.486   5.537   4.277
 2538TIP3    H1 7578   3.426   5.607   4.254
 2538TIP3    H2 7579   3.567   5.582   4.301
 2539TIP3   OH2 7580   1.404   4.173   4.004
 2539TIP3    H1 7581   1.390   4.126   3.922
 2539TIP3    H2 7582   1.484   4.224   3.990
 2540TIP3   OH2 7583   1.721   3.065   4.599
 2540TIP3    H1 7584   1.744   2.995   4.660
 2540TIP3    H2 7585   1.720   3.023   4.514
 2541TIP3   OH2 7586   2.359   2.612   2.405
 2541TIP3    H1 7587   2.298   2.653   2.466
 2541TIP3    H2 7588   2.379   2.681   2.341
 2542TIP3   OH2 7589   2.528   2.580   0.538
 2542TIP3    H1 7590   2.532   2.583   0.634
 2542TIP3    H2 7591   2.618   2.559   0.511
 2543TIP3   OH2 7592   2.628   4.187   2.241
 2543TIP3    H1 7593   2.588   4.102   2.260
 2543TIP3    H2 7594   2.581   4.219   2.164
 2544TIP3   OH2 7595   0.445   0.302   0.219
 2544TIP3    H1 7596   0.442   0.397   0.212
 2544TIP3    H2 7597   0.512   0.275   0.156
 2545TIP3   OH2 7598   1.238   3.541   1.766
 2545TIP3    H1 7599   1.256   3.579   1.852
 2545TIP3    H2 7600   1.206   3.453   1.785
 2546TIP3   OH2 7601   0.627   0.358   1.547
 2546TIP3    H1 7602   0.668   0.285   1.593
 2546TIP3    H2 7603   0.656   0.350   1.457
 2547TIP3   OH2 7604   3.290   4.287   1.822
 2547TIP3    H1 7605   3.201   4.311   1.797
 2547TIP3    H2 7606   3.313   4.216   1.762
 2548TIP3   OH2 7607   6.856   1.239   1.044
 2548TIP3    H1 7608   6.930   1.188   1.011
 2548TIP3    H2 7609   6.801   1.175   1.088
 2549TIP3   OH2 7610   1.384   0.280   0.582
 2549TIP3    H1 7611   1.450   0.213   0.562
 2549TIP3    H2 7612   1.379   0.282   0.677
 2550TIP3   OH2 7613   6.599   3.348   3.063
 2550TIP3    H1 7614   6.550   3.420   3.105
 2550TIP3    H2 7615   6.633   3.386   2.982
 2551TIP3   OH2 7616   2.480   2.438   5.073
 2551TIP3    H1 7617   2.462   2.504   5.006
 2551TIP3    H2 7618   2.480   2.487   5.155
 2552TIP3   OH2 7619   2.327   0.598   5.015
 2552TIP3    H1 7620   2.240   0.568   5.041
 2552TIP3    H2 7621   2.311   0.658   4.941
 2553TIP3   OH2 7622   2.698   2.682   1.613
 2553TIP3    H1 7623   2.739   2.768   1.621
 2553TIP3    H2 7624   2.742   2.628   1.679
 2554TIP3   OH2 7625   5.792   4.861   0.742
 2554TIP3    H1 7626   5.844   4.896   0.670
 2554TIP3    H2 7627   5.756   4.938   0.786
 2555TIP3   OH2 7628   5.308   1.888   4.034
 2555TIP3    H1 7629   5.277   1.954   3.972
 2555TIP3    H2 7630   5.284   1.804   3.994
 2556TIP3   OH2 7631   0.274   2.650   1.031
 2556TIP3    H1 7632   0.311   2.737   1.046
 2556TIP3    H2 7633   0.332   2.590   1.079
 2557TIP3   OH2 7634   5.141   5.166   5.265
 2557TIP3    H1 7635   5.062   5.140   5.312
 2557TIP3    H2 7636   5.165   5.090   5.213
 2558TIP3   OH2 7637   3.492   3.806   0.429
 2558TIP3    H1 7638   3.423   3.772   0.486
 2558TIP3    H2 7639   3.483   3.901   0.434
 2559TIP3   OH2 7640   1.821   0.470   4.680
 2559TIP3    H1 7641   1.916   0.470   4.692
 2559TIP3    H2 7642   1.804   0.547   4.625
 2560TIP3   OH2 7643   1.388   6.607   4.142
 2560TIP3    H1 7644   1.384   6.548   4.066
 2560TIP3    H2 7645   1.436   6.683   4.109
 2561TIP3   OH2 7646   6.746   0.111   1.202
 2561TIP3    H1 7647   6.749   0.067   1.287
 2561TIP3    H2 7648   6.659   0.093   1.168
 2562TIP3   OH2 7649   1.211   1.603   3.857
 2562TIP3    H1 7650   1.131   1.655   3.866
 2562TIP3    H2 7651   1.281   1.668   3.846
 2563TIP3   OH2 7652   1.140   2.630   1.066
 2563TIP3    H1 7653   1.176   2.543   1.081
 2563TIP3    H2 7654   1.129   2.667   1.153
 2564TIP3   OH2 7655   5.002   0.755   1.330
 2564TIP3    H1 7656   5.022   0.692   1.399
 2564TIP3    H2 7657   4.973   0.701   1.256
 2565TIP3   OH2 7658   4.048   5.420   2.337
 2565TIP3    H1 7659   4.078   5.341   2.291
 2565TIP3    H2 7660   4.104   5.490   2.303
 2566TIP3   OH2 7661   6.690   1.746   0.071
 2566TIP3    H1 7662   6.660   1.819   0.017
 2566TIP3    H2 7663   6.765   1.781   0.119
 2567TIP3   OH2 7664   0.086   3.204   4.532
 2567TIP3    H1 7665  -0.002   3.170   4.514
 2567TIP3    H2 7666   0.141   3.126   4.537
 2568TIP3   OH2 7667   2.258   3.089   5.340
 2568TIP3    H1 7668   2.327   3.134   5.388
 2568TIP3    H2 7669   2.182   3.093   5.398
 2569TIP3   OH2 7670   1.200   4.330   1.816
 2569TIP3    H1 7671   1.236   4.400   1.761
 2569TIP3    H2 7672   1.166   4.266   1.754
 2570TIP3   OH2 7673   6.315   3.136   0.863
 2570TIP3    H1 7674   6.224   3.166   0.854
 2570TIP3    H2 7675   6.308   3.044   0.889
 2571TIP3   OH2 7676   1.401   0.440   3.656
 2571TIP3    H1 7677   1.335   0.492   3.703
 2571TIP3    H2 7678   1.467   0.421   3.722
 2572TIP3   OH2 7679   4.965   3.957   3.341
 2572TIP3    H1 7680   4.898   3.893   3.366
 2572TIP3    H2 7681   4.996   3.927   3.256
 2573TIP3   OH2 7682   2.143   2.411   5.009
 2573TIP3    H1 7683   2.199   2.339   4.980
 2573TIP3    H2 7684   2.176   2.434   5.096
 2574TIP3   OH2 7685   0.885   2.638   3.989
 2574TIP3    H1 7686   0.803   2.671   3.954
 2574TIP3    H2 7687   0.906   2.697   4.062
 2575TIP3   OH2 7688   5.654   2.213   1.655
 2575TIP3    H1 7689   5.709   2.147   1.612
 2575TIP3    H2 7690   5.717   2.275   1.692
 2576TIP3   OH2 7691   3.618   5.715   5.826
 2576TIP3    H1 7692   3.533   5.759   5.815
 2576TIP3    H2 7693   3.618   5.685   5.917
 2577TIP3   OH2 7694   1.899   4.498   3.124
 2577TIP3    H1 7695   1.942   4.502   3.039
 2577TIP3    H2 7696   1.829   4.434   3.112
 2578TIP3   OH2 7697   2.212   6.185   4.224
 2578TIP3    H1 7698   2.188   6.097   4.250
 2578TIP3    H2 7699   2.205   6.185   4.128
 2579TIP3   OH2 7700   3.040   4.336   2.966
 2579TIP3    H1 7701   3.052   4.402   3.034
 2579TIP3    H2 7702   2.950   4.305   2.979
 2580TIP3   OH2 7703   4.477   0.138   5.596
 2580TIP3    H1 7704   4.571   0.148   5.614
 2580TIP3    H2 7705   4.434   0.172   5.674
 2581TIP3   OH2 7706   1.973   0.821   4.863
 2581TIP3    H1 7707   1.894   0.856   4.904
 2581TIP3    H2 7708   2.002   0.751   4.921
 2582TIP3   OH2 7709   5.075   4.036   5.262
 2582TIP3    H1 7710   5.009   3.978   5.225
 2582TIP3    H2 7711   5.097   3.996   5.346
 2583TIP3   OH2 7712   0.083   6.259   0.003
 2583TIP3    H1 7713   0.151   6.206  -0.039
 2583TIP3    H2 7714   0.130   6.313   0.066
 2584TIP3   OH2 7715   5.702   0.180   2.323
 2584TIP3    H1 7716   5.625   0.202   2.271
 2584TIP3    H2 7717   5.672   0.185   2.414
 2585TIP3   OH2 7718   2.305   6.442   3.095
 2585TIP3    H1 7719   2.314   6.509   3.027
 2585TIP3    H2 7720   2.344   6.481   3.173
 2586TIP3   OH2 7721   5.807   5.132   0.324
 2586TIP3    H1 7722   5.739   5.182   0.277
 2586TIP3    H2 7723   5.880   5.194   0.333
 2587TIP3   OH2 7724   3.434   2.283   3.480
 2587TIP3    H1 7725   3.359   2.258   3.426
 2587TIP3    H2 7726   3.438   2.378   3.472
 2588TIP3   OH2 7727   6.890   1.435   5.042
 2588TIP3    H1 7728   6.881   1.349   5.001
 2588TIP3    H2 7729   6.807   1.448   5.088
 2589TIP3   OH2 7730   4.274   1.863   1.245
 2589TIP3    H1 7731   4.355   1.851   1.294
 2589TIP3    H2 7732   4.252   1.776   1.212
 2590TIP3   OH2 7733   4.923   6.557   5.904
 2590TIP3    H1 7734   4.849   6.507   5.939
 2590TIP3    H2 7735   4.935   6.523   5.815
 2591TIP3   OH2 7736   6.132   1.302   3.725
 2591TIP3    H1 7737   6.223   1.277   3.742
 2591TIP3    H2 7738   6.092   1.312   3.811
 2592TIP3   OH2 7739   5.596   4.143   3.749
 2592TIP3    H1 7740   5.679   4.163   3.705
 2592TIP3    H2 7741   5.618   4.142   3.842
 2593TIP3   OH2 7742   0.488   3.586   0.478
 2593TIP3    H1 7743   0.525   3.632   0.403
 2593TIP3    H2 7744   0.552   3.519   0.500
 2594TIP3   OH2 7745   0.949   4.597   1.224
 2594TIP3    H1 7746   0.974   4.543   1.299
 2594TIP3    H2 7747   0.958   4.539   1.149
 2595TIP3   OH2 7748   1.448   5.757   5.256
 2595TIP3    H1 7749   1.538   5.769   5.287
 2595TIP3    H2 7750   1.416   5.680   5.303
 2596TIP3   OH2 7751   3.547   2.760   4.240
 2596TIP3    H1 7752   3.500   2.836   4.273
 2596TIP3    H2 7753   3.490   2.686   4.260
 2597TIP3   OH2 7754   3.080   1.495   3.754
 2597TIP3    H1 7755   3.033   1.509   3.835
 2597TIP3    H2 7756   3.033   1.546   3.689
 2598TIP3   OH2 7757   4.560   5.703   0.616
 2598TIP3    H1 7758   4.553   5.623   0.564
 2598TIP3    H2 7759   4.654   5.714   0.630
 2599TIP3   OH2 7760   4.336   3.716   1.209
 2599TIP3    H1 7761   4.361   3.636   1.164
 2599TIP3    H2 7762   4.242   3.725   1.192
 2600TIP3   OH2 7763   3.951   3.177   3.022
 2600TIP3    H1 7764   3.925   3.094   2.982
 2600TIP3    H2 7765   4.005   3.153   3.097
 2601TIP3   OH2 7766   2.684   6.779   2.946
 2601TIP3    H1 7767   2.642   6.705   2.903
 2601TIP3    H2 7768   2.765   6.743   2.982
 2602TIP3   OH2 7769   2.559   1.724   3.195
 2602TIP3    H1 7770   2.633   1.736   3.135
 2602TIP3    H2 7771   2.485   1.705   3.138
 2603TIP3   OH2 7772   2.384   3.883   0.433
 2603TIP3    H1 7773   2.439   3.961   0.427
 2603TIP3    H2 7774   2.299   3.911   0.398
 2604TIP3   OH2 7775   6.391   6.777   2.469
 2604TIP3    H1 7776   6.361   6.859   2.508
 2604TIP3    H2 7777   6.343   6.709   2.516
 2605TIP3   OH2 7778   6.649   6.674   3.075
 2605TIP3    H1 7779   6.612   6.714   2.997
 2605TIP3    H2 7780   6.574   6.664   3.134
 2606TIP3   OH2 7781   4.942   5.340   1.983
 2606TIP3    H1 7782   5.006   5.269   1.991
 2606TIP3    H2 7783   4.859   5.296   1.967
 2607TIP3   OH2 7784   2.118   6.466   5.798
 2607TIP3    H1 7785   2.104   6.372   5.779
 2607TIP3    H2 7786   2.029   6.500   5.810
 2608TIP3   OH2 7787   0.313   3.533   2.808
 2608TIP3    H1 7788   0.327   3.532   2.714
 2608TIP3    H2 7789   0.399   3.549   2.846
 2609TIP3   OH2 7790   1.199   4.711   3.553
 2609TIP3    H1 7791   1.289   4.728   3.581
 2609TIP3    H2 7792   1.197   4.618   3.532
 2610TIP3   OH2 7793   3.936   2.339   4.620
 2610TIP3    H1 7794   3.928   2.423   4.666
 2610TIP3    H2 7795   3.989   2.285   4.678
 2611TIP3   OH2 7796   3.418   0.918   0.459
 2611TIP3    H1 7797   3.494   0.896   0.513
 2611TIP3    H2 7798   3.439   1.002   0.420
 2612TIP3   OH2 7799   0.785   3.203   1.933
 2612TIP3    H1 7800   0.868   3.165   1.905
 2612TIP3    H2 7801   0.737   3.217   1.851
 2613TIP3   OH2 7802   6.429   3.374   4.221
 2613TIP3    H1 7803   6.487   3.396   4.293
 2613TIP3    H2 7804   6.424   3.278   4.221
 2614TIP3   OH2 7805   6.933   6.727   3.552
 2614TIP3    H1 7806   6.875   6.661   3.515
 2614TIP3    H2 7807   6.875   6.790   3.594
 2615TIP3   OH2 7808   4.518   1.558   0.818
 2615TIP3    H1 7809   4.426   1.581   0.832
 2615TIP3    H2 7810   4.562   1.642   0.806
 2616TIP3   OH2 7811   4.483   4.398   0.165
 2616TIP3    H1 7812   4.573   4.398   0.198
 2616TIP3    H2 7813   4.493   4.404   0.070
 2617TIP3   OH2 7814   1.784  -0.048   2.806
 2617TIP3    H1 7815   1.785   0.045   2.829
 2617TIP3    H2 7816   1.874  -0.069   2.782
 2618TIP3   OH2 7817   3.367   1.427   0.697
 2618TIP3    H1 7818   3.326   1.417   0.611
 2618TIP3    H2 7819   3.312   1.375   0.756
 2619TIP3   OH2 7820   3.606   0.048   4.376
 2619TIP3    H1 7821   3.686   0.079   4.334
 2619TIP3    H2 7822   3.617   0.070   4.469
 2620TIP3   OH2 7823   5.803   1.592   1.514
 2620TIP3    H1 7824   5.801   1.646   1.435
 2620TIP3    H2 7825   5.877   1.532   1.501
 2621TIP3   OH2 7826   3.200   1.270   0.854
 2621TIP3    H1 7827   3.177   1.253   0.945
 2621TIP3    H2 7828   3.125   1.318   0.819
 2622TIP3   OH2 7829   0.108   3.096   2.471
 2622TIP3    H1 7830   0.035   3.035   2.480
 2622TIP3    H2 7831   0.068   3.182   2.462
 2623TIP3   OH2 7832   1.774   3.549   1.462
 2623TIP3    H1 7833   1.751   3.458   1.482
 2623TIP3    H2 7834   1.705   3.601   1.503
 2624TIP3   OH2 7835   2.979   5.045   1.290
 2624TIP3    H1 7836   3.005   5.061   1.381
 2624TIP3    H2 7837   3.016   4.959   1.270
 2625TIP3   OH2 7838   0.373   2.497   2.059
 2625TIP3    H1 7839   0.307   2.445   2.012
 2625TIP3    H2 7840   0.403   2.440   2.129
 2626TIP3   OH2 7841   1.550   2.625   3.677
 2626TIP3    H1 7842   1.620   2.615   3.741
 2626TIP3    H2 7843   1.594   2.647   3.595
 2627TIP3   OH2 7844   0.839   3.533   4.326
 2627TIP3    H1 7845   0.758   3.498   4.363
 2627TIP3    H2 7846   0.850   3.486   4.243
 2628TIP3   OH2 7847   0.536   5.822   0.434
 2628TIP3    H1 7848   0.484   5.754   0.390
 2628TIP3    H2 7849   0.566   5.879   0.364
 2629TIP3   OH2 7850   0.877   2.819   1.393
 2629TIP3    H1 7851   0.794   2.791   1.354
 2629TIP3    H2 7852   0.861   2.909   1.421
 2630TIP3   OH2 7853   0.675   6.029   0.208
 2630TIP3    H1 7854   0.744   6.011   0.272
 2630TIP3    H2 7855   0.681   6.123   0.193
 2631TIP3   OH2 7856   2.300   0.444   5.789
 2631TIP3    H1 7857   2.290   0.498   5.867
 2631TIP3    H2 7858   2.279   0.503   5.716
 2632TIP3   OH2 7859   4.015   2.616   3.405
 2632TIP3    H1 7860   4.086   2.670   3.440
 2632TIP3    H2 7861   3.942   2.677   3.394
 2633TIP3   OH2 7862   6.402   1.233   3.688
 2633TIP3    H1 7863   6.411   1.215   3.595
 2633TIP3    H2 7864   6.490   1.254   3.718
 2634TIP3   OH2 7865   0.664   0.125   0.498
 2634TIP3    H1 7866   0.734   0.140   0.434
 2634TIP3    H2 7867   0.595   0.080   0.450
 2635TIP3   OH2 7868   2.820   5.919   0.330
 2635TIP3    H1 7869   2.783   5.858   0.267
 2635TIP3    H2 7870   2.902   5.948   0.290
 2636TIP3   OH2 7871   0.042   3.037   3.399
 2636TIP3    H1 7872   0.103   3.047   3.472
 2636TIP3    H2 7873   0.098   3.034   3.322
 2637TIP3   OH2 7874   0.833   6.466   3.695
 2637TIP3    H1 7875   0.874   6.544   3.733
 2637TIP3    H2 7876   0.893   6.395   3.718
 2638TIP3   OH2 7877   5.754   4.002   2.512
 2638TIP3    H1 7878   5.685   3.944   2.545
 2638TIP3    H2 7879   5.812   3.944   2.463
 2639TIP3   OH2 7880   1.694   2.688   5.380
 2639TIP3    H1 7881   1.756   2.643   5.323
 2639TIP3    H2 7882   1.608   2.662   5.346
 2640TIP3   OH2 7883   4.915   0.556   5.554
 2640TIP3    H1 7884   4.834   0.574   5.506
 2640TIP3    H2 7885   4.972   0.512   5.491
 2641TIP3   OH2 7886   3.860   1.347   5.622
 2641TIP3    H1 7887   3.911   1.428   5.612
 2641TIP3    H2 7888   3.779   1.363   5.573
 2642TIP3   OH2 7889   0.565   2.089   0.605
 2642TIP3    H1 7890   0.482   2.050   0.630
 2642TIP3    H2 7891   0.604   2.027   0.544
 2643TIP3   OH2 7892   3.248   3.524   1.738
 2643TIP3    H1 7893   3.314   3.533   1.806
 2643TIP3    H2 7894   3.172   3.485   1.782
 2644TIP3   OH2 7895   5.442   0.670   4.562
 2644TIP3    H1 7896   5.530   0.705   4.568
 2644TIP3    H2 7897   5.441   0.620   4.480
 2645TIP3   OH2 7898   4.243   5.165   1.358
 2645TIP3    H1 7899   4.273   5.139   1.445
 2645TIP3    H2 7900   4.160   5.209   1.373
 2646TIP3   OH2 7901   4.730   1.064   3.762
 2646TIP3    H1 7902   4.644   1.024   3.777
 2646TIP3    H2 7903   4.772   1.065   3.849
 2647TIP3   OH2 7904   1.467   5.528   1.014
 2647TIP3    H1 7905   1.462   5.590   1.086
 2647TIP3    H2 7906   1.406   5.458   1.038
 2648TIP3   OH2 7907   3.461   2.198   4.932
 2648TIP3    H1 7908   3.430   2.107   4.927
 2648TIP3    H2 7909   3.436   2.227   5.019
 2649TIP3   OH2 7910   4.262   4.608   2.628
 2649TIP3    H1 7911   4.261   4.574   2.718
 2649TIP3    H2 7912   4.351   4.590   2.597
 2650TIP3   OH2 7913   3.283   4.541   0.304
 2650TIP3    H1 7914   3.207   4.569   0.355
 2650TIP3    H2 7915   3.339   4.618   0.298
 2651TIP3   OH2 7916   5.968   0.672   2.463
 2651TIP3    H1 7917   5.886   0.647   2.506
 2651TIP3    H2 7918   5.961   0.767   2.452
 2652TIP3   OH2 7919   5.878   3.887   1.506
 2652TIP3    H1 7920   5.945   3.866   1.571
 2652TIP3    H2 7921   5.797   3.891   1.557
 2653TIP3   OH2 7922   3.318   3.102   1.388
 2653TIP3    H1 7923   3.395   3.082   1.335
 2653TIP3    H2 7924   3.250   3.125   1.324
 2654TIP3   OH2 7925   3.939   3.052   4.271
 2654TIP3    H1 7926   3.996   3.081   4.342
 2654TIP3    H2 7927   3.915   2.962   4.295
 2655TIP3   OH2 7928   4.992   1.694   0.977
 2655TIP3    H1 7929   4.988   1.601   0.952
 2655TIP3    H2 7930   4.996   1.693   1.072
 2656TIP3   OH2 7931   0.240   3.285   1.982
 2656TIP3    H1 7932   0.264   3.344   1.911
 2656TIP3    H2 7933   0.320   3.236   2.000
 2657TIP3   OH2 7934   2.100   5.608   3.887
 2657TIP3    H1 7935   2.068   5.674   3.948
 2657TIP3    H2 7936   2.048   5.530   3.906
 2658TIP3   OH2 7937   6.071   5.762   4.227
 2658TIP3    H1 7938   6.066   5.840   4.172
 2658TIP3    H2 7939   6.083   5.690   4.165
 2659TIP3   OH2 7940   6.831   3.030   0.363
 2659TIP3    H1 7941   6.900   3.056   0.423
 2659TIP3    H2 7942   6.876   3.007   0.282
 2660TIP3   OH2 7943   4.814   1.993   1.236
 2660TIP3    H1 7944   4.892   1.941   1.258
 2660TIP3    H2 7945   4.789   1.964   1.148
 2661TIP3   OH2 7946   1.583   5.341   5.659
 2661TIP3    H1 7947   1.598   5.256   5.619
 2661TIP3    H2 7948   1.510   5.327   5.720
 2662TIP3   OH2 7949   5.513   2.962   1.927
 2662TIP3    H1 7950   5.550   3.050   1.920
 2662TIP3    H2 7951   5.580   2.911   1.972
 2663TIP3   OH2 7952   5.478   0.273   3.791
 2663TIP3    H1 7953   5.487   0.221   3.871
 2663TIP3    H2 7954   5.568   0.298   3.769
 2664TIP3   OH2 7955   1.426   5.602   5.613
 2664TIP3    H1 7956   1.367   5.626   5.685
 2664TIP3    H2 7957   1.486   5.538   5.651
 2665TIP3   OH2 7958   1.766   4.762   4.644
 2665TIP3    H1 7959   1.780   4.829   4.711
 2665TIP3    H2 7960   1.826   4.786   4.573
 2666TIP3   OH2 7961   1.766   6.261   4.406
 2666TIP3    H1 7962   1.854   6.298   4.399
 2666TIP3    H2 7963   1.709   6.328   4.368
 2667TIP3   OH2 7964   4.926   0.386   4.920
 2667TIP3    H1 7965   4.838   0.400   4.952
 2667TIP3    H2 7966   4.919   0.310   4.862
 2668TIP3   OH2 7967   6.238   2.869   3.951
 2668TIP3    H1 7968   6.151   2.871   3.912
 2668TIP3    H2 7969   6.285   2.802   3.900
 2669TIP3   OH2 7970   0.363   0.140   1.388
 2669TIP3    H1 7971   0.300   0.076   1.355
 2669TIP3    H2 7972   0.352   0.216   1.331
 2670TIP3   OH2 7973   0.203   6.445   1.977
 2670TIP3    H1 7974   0.237   6.503   1.909
 2670TIP3    H2 7975   0.263   6.370   1.977
 2671TIP3   OH2 7976   2.700   4.287   1.967
 2671TIP3    H1 7977   2.702   4.231   1.890
 2671TIP3    H2 7978   2.609   4.315   1.975
 2672TIP3   OH2 7979   1.123   6.588   4.348
 2672TIP3    H1 7980   1.173   6.551   4.276
 2672TIP3    H2 7981   1.144   6.681   4.346
 2673TIP3   OH2 7982   4.399   5.344   3.280
 2673TIP3    H1 7983   4.337   5.381   3.342
 2673TIP3    H2 7984   4.409   5.253   3.309
 2674TIP3   OH2 7985   5.140   0.603   4.594
 2674TIP3    H1 7986   5.234   0.600   4.576
 2674TIP3    H2 7987   5.115   0.512   4.606
 2675TIP3   OH2 7988   6.617   5.546   0.191
 2675TIP3    H1 7989   6.552   5.479   0.210
 2675TIP3    H2 7990   6.633   5.589   0.275
 2676TIP3   OH2 7991   2.984   0.034   5.214
 2676TIP3    H1 7992   2.913   0.007   5.156
 2676TIP3    H2 7993   3.057   0.055   5.155
 2677TIP3   OH2 7994   1.181   2.853   4.688
 2677TIP3    H1 7995   1.205   2.922   4.626
 2677TIP3    H2 7996   1.136   2.899   4.758
 2678TIP3   OH2 7997   5.086   1.747   0.664
 2678TIP3    H1 7998   5.179   1.765   0.646
 2678TIP3    H2 7999   5.088   1.666   0.715
 2679TIP3   OH2 8000   1.850   2.816   0.189
 2679TIP3    H1 8001   1.887   2.732   0.164
 2679TIP3    H2 8002   1.908   2.849   0.258
 2680TIP3   OH2 8003   5.871   4.803   1.633
 2680TIP3    H1 8004   5.801   4.750   1.671
 2680TIP3    H2 8005   5.836   4.831   1.548
 2681TIP3   OH2 8006   6.653   0.470   0.606
 2681TIP3    H1 8007   6.655   0.375   0.617
 2681TIP3    H2 8008   6.614   0.484   0.520
 2682TIP3   OH2 8009   0.956   3.765   1.850
 2682TIP3    H1 8010   1.035   3.720   1.880
 2682TIP3    H2 8011   0.924   3.712   1.777
 2683TIP3   OH2 8012   6.108   6.365   2.822
 2683TIP3    H1 8013   6.053   6.444   2.822
 2683TIP3    H2 8014   6.052   6.296   2.788
 2684TIP3   OH2 8015   0.762   1.065   4.520
 2684TIP3    H1 8016   0.667   1.058   4.531
 2684TIP3    H2 8017   0.790   1.122   4.591
 2685TIP3   OH2 8018   5.202   0.922   1.663
 2685TIP3    H1 8019   5.242   1.008   1.651
 2685TIP3    H2 8020   5.112   0.933   1.632
 2686TIP3   OH2 8021   3.490   6.746   4.266
 2686TIP3    H1 8022   3.423   6.775   4.328
 2686TIP3    H2 8023   3.544   6.685   4.316
 2687TIP3   OH2 8024   3.284   1.599   2.969
 2687TIP3    H1 8025   3.324   1.515   2.945
 2687TIP3    H2 8026   3.357   1.654   2.997
 2688TIP3   OH2 8027   5.679   1.356   2.463
 2688TIP3    H1 8028   5.629   1.432   2.431
 2688TIP3    H2 8029   5.750   1.347   2.400
 2689TIP3   OH2 8030   2.460   6.053   1.538
 2689TIP3    H1 8031   2.532   6.108   1.570
 2689TIP3    H2 8032   2.503   5.979   1.495
 2690TIP3   OH2 8033   3.239   4.108   5.566
 2690TIP3    H1 8034   3.329   4.116   5.599
 2690TIP3    H2 8035   3.211   4.198   5.550
 2691TIP3   OH2 8036   0.627   1.404   4.541
 2691TIP3    H1 8037   0.723   1.408   4.542
 2691TIP3    H2 8038   0.602   1.412   4.632
 2692TIP3   OH2 8039   5.233   2.172   1.173
 2692TIP3    H1 8040   5.246   2.262   1.205
 2692TIP3    H2 8041   5.264   2.174   1.083
 2693TIP3   OH2 8042   2.684   1.310   3.060
 2693TIP3    H1 8043   2.622   1.271   3.121
 2693TIP3    H2 8044   2.677   1.255   2.981
 2694TIP3   OH2 8045   4.123   6.011   4.758
 2694TIP3    H1 8046   4.195   6.016   4.821
 2694TIP3    H2 8047   4.146   6.074   4.690
 2695TIP3   OH2 8048   3.223   0.619   5.358
 2695TIP3    H1 8049   3.169   0.646   5.284
 2695TIP3    H2 8050   3.285   0.557   5.321
 2696TIP3   OH2 8051   6.838   5.720   4.740
 2696TIP3    H1 8052   6.909   5.722   4.676
 2696TIP3    H2 8053   6.841   5.631   4.777
 2697TIP3   OH2 8054   4.026   4.590   2.075
 2697TIP3    H1 8055   4.032   4.685   2.080
 2697TIP3    H2 8056   4.098   4.558   2.130
 2698TIP3   OH2 8057   2.365   1.742   2.946
 2698TIP3    H1 8058   2.321   1.760   2.863
 2698TIP3    H2 8059   2.427   1.814   2.957
 2699TIP3   OH2 8060   2.757   6.400   1.506
 2699TIP3    H1 8061   2.776   6.487   1.542
 2699TIP3    H2 8062   2.721   6.418   1.419
 2700TIP3   OH2 8063   1.759   4.407   1.089
 2700TIP3    H1 8064   1.833   4.467   1.099
 2700TIP3    H2 8065   1.789   4.326   1.131
 2701TIP3   OH2 8066   0.305   3.678   2.395
 2701TIP3    H1 8067   0.261   3.763   2.402
 2701TIP3    H2 8068   0.370   3.679   2.465
 2702TIP3   OH2 8069   4.230   2.081   0.491
 2702TIP3    H1 8070   4.200   2.082   0.582
 2702TIP3    H2 8071   4.309   2.136   0.491
 2703TIP3   OH2 8072   1.318   2.241   0.860
 2703TIP3    H1 8073   1.327   2.166   0.919
 2703TIP3    H2 8074   1.399   2.291   0.872
 2704TIP3   OH2 8075   6.240   4.251   5.401
 2704TIP3    H1 8076   6.226   4.265   5.307
 2704TIP3    H2 8077   6.158   4.279   5.442
 2705TIP3   OH2 8078   5.647   3.260   4.958
 2705TIP3    H1 8079   5.557   3.239   4.980
 2705TIP3    H2 8080   5.661   3.218   4.873
 2706TIP3   OH2 8081   5.632   3.898   0.837
 2706TIP3    H1 8082   5.717   3.910   0.880
 2706TIP3    H2 8083   5.573   3.958   0.882
 2707TIP3   OH2 8084   4.248   5.480   3.841
 2707TIP3    H1 8085   4.264   5.397   3.794
 2707TIP3    H2 8086   4.332   5.501   3.882
 2708TIP3   OH2 8087   2.226   6.167   1.984
 2708TIP3    H1 8088   2.149   6.161   1.927
 2708TIP3    H2 8089   2.192   6.158   2.072
 2709TIP3   OH2 8090   4.176   5.395   1.775
 2709TIP3    H1 8091   4.086   5.428   1.781
 2709TIP3    H2 8092   4.167   5.300   1.782
 2710TIP3   OH2 8093   5.485   0.235   4.484
 2710TIP3    H1 8094   5.471   0.292   4.559
 2710TIP3    H2 8095   5.500   0.295   4.411
 2711TIP3   OH2 8096   2.956   0.989   5.109
 2711TIP3    H1 8097   2.903   0.917   5.142
 2711TIP3    H2 8098   2.977   0.965   5.019
 2712TIP3   OH2 8099   4.242   2.322   4.077
 2712TIP3    H1 8100   4.312   2.271   4.118
 2712TIP3    H2 8101   4.167   2.263   4.076
 2713TIP3   OH2 8102   3.459   0.074   0.499
 2713TIP3    H1 8103   3.529   0.105   0.442
 2713TIP3    H2 8104   3.383   0.066   0.441
 2714TIP3   OH2 8105   1.139   2.092   5.737
 2714TIP3    H1 8106   1.131   2.170   5.683
 2714TIP3    H2 8107   1.169   2.124   5.822
 2715TIP3   OH2 8108   4.784   3.199   3.345
 2715TIP3    H1 8109   4.787   3.195   3.441
 2715TIP3    H2 8110   4.697   3.232   3.325
 2716TIP3   OH2 8111   6.758   1.831   5.350
 2716TIP3    H1 8112   6.755   1.795   5.261
 2716TIP3    H2 8113   6.820   1.905   5.343
 2717TIP3   OH2 8114   5.613   6.465   1.389
 2717TIP3    H1 8115   5.684   6.404   1.410
 2717TIP3    H2 8116   5.595   6.509   1.472
 2718TIP3   OH2 8117   2.697   6.183   2.817
 2718TIP3    H1 8118   2.660   6.156   2.734
 2718TIP3    H2 8119   2.692   6.279   2.816
 2719TIP3   OH2 8120   7.165   6.410   4.245
 2719TIP3    H1 8121   7.246   6.461   4.253
 2719TIP3    H2 8122   7.151   6.402   4.151
 2720TIP3   OH2 8123   3.294   5.660   0.496
 2720TIP3    H1 8124   3.323   5.569   0.508
 2720TIP3    H2 8125   3.252   5.661   0.410
 2721TIP3   OH2 8126   2.288   6.592   4.134
 2721TIP3    H1 8127   2.262   6.512   4.089
 2721TIP3    H2 8128   2.237   6.662   4.091
 2722TIP3   OH2 8129   2.134   2.914   3.181
 2722TIP3    H1 8130   2.059   2.957   3.223
 2722TIP3    H2 8131   2.210   2.946   3.230
 2723TIP3   OH2 8132   2.926   2.359   3.682
 2723TIP3    H1 8133   2.962   2.437   3.640
 2723TIP3    H2 8134   2.890   2.391   3.764
 2724TIP3   OH2 8135   0.252   1.143   4.223
 2724TIP3    H1 8136   0.186   1.098   4.276
 2724TIP3    H2 8137   0.305   1.191   4.287
 2725TIP3   OH2 8138   0.258   2.977   2.238
 2725TIP3    H1 8139   0.338   2.973   2.290
 2725TIP3    H2 8140   0.197   3.027   2.292
 2726TIP3   OH2 8141   4.099   2.928   4.045
 2726TIP3    H1 8142   4.120   2.838   4.069
 2726TIP3    H2 8143   4.013   2.922   4.002
 2727TIP3   OH2 8144   2.260   3.870   3.535
 2727TIP3    H1 8145   2.281   3.777   3.530
 2727TIP3    H2 8146   2.261   3.890   3.628
 2728TIP3   OH2 8147   6.424   3.109   4.435
 2728TIP3    H1 8148   6.469   3.027   4.454
 2728TIP3    H2 8149   6.399   3.144   4.521
 2729TIP3   OH2 8150   5.982   3.744   1.708
 2729TIP3    H1 8151   6.040   3.806   1.753
 2729TIP3    H2 8152   6.004   3.659   1.745
 2730TIP3   OH2 8153   5.770   4.600   3.131
 2730TIP3    H1 8154   5.841   4.638   3.079
 2730TIP3    H2 8155   5.735   4.674   3.181
 2731TIP3   OH2 8156   0.593   6.522   1.717
 2731TIP3    H1 8157   0.559   6.504   1.804
 2731TIP3    H2 8158   0.607   6.617   1.716
 2732TIP3   OH2 8159   0.500   1.268   2.494
 2732TIP3    H1 8160   0.483   1.174   2.498
 2732TIP3    H2 8161   0.569   1.283   2.558
 2733TIP3   OH2 8162   1.110   5.535   1.364
 2733TIP3    H1 8163   1.122   5.598   1.292
 2733TIP3    H2 8164   1.098   5.590   1.442
 2734TIP3   OH2 8165   0.568   5.225   5.551
 2734TIP3    H1 8166   0.483   5.216   5.595
 2734TIP3    H2 8167   0.571   5.317   5.523
 2735TIP3   OH2 8168   3.552   2.273   1.520
 2735TIP3    H1 8169   3.530   2.355   1.477
 2735TIP3    H2 8170   3.611   2.229   1.459
 2736TIP3   OH2 8171   3.473   4.309   3.038
 2736TIP3    H1 8172   3.424   4.348   3.110
 2736TIP3    H2 8173   3.437   4.221   3.029
 2737TIP3   OH2 8174   5.276   6.259   0.515
 2737TIP3    H1 8175   5.271   6.213   0.599
 2737TIP3    H2 8176   5.220   6.336   0.527
 2738TIP3   OH2 8177   6.165   0.107   1.346
 2738TIP3    H1 8178   6.117   0.150   1.417
 2738TIP3    H2 8179   6.119   0.134   1.267
 2739TIP3   OH2 8180   0.314   0.485   3.400
 2739TIP3    H1 8181   0.260   0.499   3.477
 2739TIP3    H2 8182   0.251   0.473   3.329
 2740TIP3   OH2 8183   1.980   4.743   2.755
 2740TIP3    H1 8184   2.008   4.673   2.814
 2740TIP3    H2 8185   2.031   4.730   2.675
 2741TIP3   OH2 8186   3.371   3.239   2.395
 2741TIP3    H1 8187   3.404   3.303   2.333
 2741TIP3    H2 8188   3.279   3.263   2.407
 2742TIP3   OH2 8189   0.710   6.260   1.641
 2742TIP3    H1 8190   0.670   6.228   1.722
 2742TIP3    H2 8191   0.696   6.355   1.644
 2743TIP3   OH2 8192   1.552   4.446   0.868
 2743TIP3    H1 8193   1.562   4.388   0.944
 2743TIP3    H2 8194   1.612   4.519   0.886
 2744TIP3   OH2 8195   3.307   0.421   3.526
 2744TIP3    H1 8196   3.301   0.352   3.460
 2744TIP3    H2 8197   3.340   0.377   3.604
 2745TIP3   OH2 8198   0.991   4.313   3.979
 2745TIP3    H1 8199   0.919   4.293   4.039
 2745TIP3    H2 8200   0.954   4.300   3.892
 2746TIP3   OH2 8201   7.017   0.838   4.717
 2746TIP3    H1 8202   7.067   0.845   4.798
 2746TIP3    H2 8203   7.076   0.870   4.649
 2747TIP3   OH2 8204   3.182   0.388   2.669
 2747TIP3    H1 8205   3.155   0.399   2.578
 2747TIP3    H2 8206   3.104   0.408   2.721
 2748TIP3   OH2 8207   1.138   3.856   1.557
 2748TIP3    H1 8208   1.165   3.852   1.649
 2748TIP3    H2 8209   1.082   3.780   1.545
 2749TIP3   OH2 8210   2.440   3.341   4.440
 2749TIP3    H1 8211   2.481   3.426   4.454
 2749TIP3    H2 8212   2.513   3.282   4.420
 2750TIP3   OH2 8213   5.111   2.505   0.706
 2750TIP3    H1 8214   5.093   2.525   0.797
 2750TIP3    H2 8215   5.073   2.418   0.693
 2751TIP3   OH2 8216   0.822   0.154   2.611
 2751TIP3    H1 8217   0.871   0.235   2.599
 2751TIP3    H2 8218   0.731   0.178   2.590
 2752TIP3   OH2 8219   5.799   1.686   3.365
 2752TIP3    H1 8220   5.751   1.690   3.282
 2752TIP3    H2 8221   5.748   1.737   3.426
 2753TIP3   OH2 8222   6.275   1.965   1.881
 2753TIP3    H1 8223   6.363   1.973   1.845
 2753TIP3    H2 8224   6.289   1.951   1.975
 2754TIP3   OH2 8225   3.523   1.090   0.880
 2754TIP3    H1 8226   3.444   1.144   0.879
 2754TIP3    H2 8227   3.490   1.000   0.881
 2755TIP3   OH2 8228   4.654   5.277   2.191
 2755TIP3    H1 8229   4.718   5.237   2.250
 2755TIP3    H2 8230   4.668   5.234   2.107
 2756TIP3   OH2 8231   5.347   5.825   4.065
 2756TIP3    H1 8232   5.397   5.894   4.022
 2756TIP3    H2 8233   5.255   5.847   4.047
 2757TIP3   OH2 8234   3.185   4.919   3.604
 2757TIP3    H1 8235   3.234   4.999   3.583
 2757TIP3    H2 8236   3.250   4.849   3.598
 2758TIP3   OH2 8237   6.255   2.441   4.117
 2758TIP3    H1 8238   6.315   2.437   4.043
 2758TIP3    H2 8239   6.308   2.475   4.189
 2759TIP3   OH2 8240   4.584   1.364   1.757
 2759TIP3    H1 8241   4.495   1.379   1.790
 2759TIP3    H2 8242   4.636   1.353   1.836
 2760TIP3   OH2 8243   0.058   2.728   1.185
 2760TIP3    H1 8244   0.094   2.752   1.270
 2760TIP3    H2 8245   0.135   2.705   1.132
 2761TIP3   OH2 8246   0.703   2.378   1.599
 2761TIP3    H1 8247   0.718   2.451   1.659
 2761TIP3    H2 8248   0.739   2.407   1.515
 2762TIP3   OH2 8249   2.732   0.253   4.511
 2762TIP3    H1 8250   2.792   0.327   4.520
 2762TIP3    H2 8251   2.662   0.272   4.573
 2763TIP3   OH2 8252   6.509   0.640   5.739
 2763TIP3    H1 8253   6.553   0.678   5.816
 2763TIP3    H2 8254   6.559   0.672   5.664
 2764TIP3   OH2 8255   6.479   4.936   2.886
 2764TIP3    H1 8256   6.494   5.002   2.819
 2764TIP3    H2 8257   6.384   4.940   2.902
 2765TIP3   OH2 8258   3.958   3.460   2.517
 2765TIP3    H1 8259   3.945   3.548   2.552
 2765TIP3    H2 8260   3.950   3.403   2.593
 2766TIP3   OH2 8261   1.684   2.637   3.002
 2766TIP3    H1 8262   1.722   2.553   2.977
 2766TIP3    H2 8263   1.661   2.678   2.919
 2767TIP3   OH2 8264   1.486   5.029   2.472
 2767TIP3    H1 8265   1.496   5.085   2.395
 2767TIP3    H2 8266   1.438   5.083   2.535
 2768TIP3   OH2 8267   0.496   2.632   3.523
 2768TIP3    H1 8268   0.576   2.653   3.570
 2768TIP3    H2 8269   0.473   2.544   3.553
 2769TIP3   OH2 8270   3.643   4.224   5.413
 2769TIP3    H1 8271   3.733   4.208   5.441
 2769TIP3    H2 8272   3.589   4.176   5.475
 2770TIP3   OH2 8273   5.697   5.172   3.803
 2770TIP3    H1 8274   5.734   5.256   3.777
 2770TIP3    H2 8275   5.773   5.114   3.813
 2771TIP3   OH2 8276   1.099   5.306   1.518
 2771TIP3    H1 8277   1.136   5.393   1.506
 2771TIP3    H2 8278   1.047   5.291   1.438
 2772TIP3   OH2 8279   5.923   4.845   3.428
 2772TIP3    H1 8280   5.955   4.789   3.358
 2772TIP3    H2 8281   5.951   4.933   3.403
 2773TIP3   OH2 8282   0.727   4.411   2.985
 2773TIP3    H1 8283   0.783   4.345   3.027
 2773TIP3    H2 8284   0.785   4.485   2.969
 2774TIP3   OH2 8285   6.121   5.407   3.651
 2774TIP3    H1 8286   6.121   5.380   3.743
 2774TIP3    H2 8287   6.175   5.341   3.607
 2775TIP3   OH2 8288   5.553   5.154   1.280
 2775TIP3    H1 8289   5.598   5.238   1.269
 2775TIP3    H2 8290   5.549   5.118   1.192
 2776TIP3   OH2 8291   4.912   0.293   2.882
 2776TIP3    H1 8292   4.932   0.369   2.937
 2776TIP3    H2 8293   4.887   0.225   2.944
 2777TIP3   OH2 8294   6.498   4.501   2.672
 2777TIP3    H1 8295   6.491   4.585   2.627
 2777TIP3    H2 8296   6.424   4.449   2.640
 2778TIP3   OH2 8297   6.780   1.254   2.243
 2778TIP3    H1 8298   6.685   1.257   2.236
 2778TIP3    H2 8299   6.811   1.310   2.171
 2779TIP3   OH2 8300   4.194   5.413   3.456
 2779TIP3    H1 8301   4.114   5.364   3.439
 2779TIP3    H2 8302   4.165   5.504   3.463
 2780TIP3   OH2 8303   2.211   0.996   2.697
 2780TIP3    H1 8304   2.204   0.906   2.667
 2780TIP3    H2 8305   2.278   0.993   2.766
 2781TIP3   OH2 8306   1.468   0.484   5.751
 2781TIP3    H1 8307   1.403   0.505   5.819
 2781TIP3    H2 8308   1.422   0.499   5.669
 2782TIP3   OH2 8309   1.428   4.455   3.180
 2782TIP3    H1 8310   1.392   4.371   3.150
 2782TIP3    H2 8311   1.401   4.461   3.271
 2783TIP3   OH2 8312   6.441   6.391   2.057
 2783TIP3    H1 8313   6.459   6.313   2.109
 2783TIP3    H2 8314   6.445   6.463   2.120
 2784TIP3   OH2 8315   2.034   3.202   2.816
 2784TIP3    H1 8316   2.059   3.157   2.736
 2784TIP3    H2 8317   1.958   3.256   2.791
 2785TIP3   OH2 8318   0.881   2.865   1.968
 2785TIP3    H1 8319   0.903   2.772   1.976
 2785TIP3    H2 8320   0.951   2.910   2.016
 2786TIP3   OH2 8321   1.627   3.044   0.754
 2786TIP3    H1 8322   1.612   3.112   0.689
 2786TIP3    H2 8323   1.566   2.974   0.729
 2787TIP3   OH2 8324   5.305   3.665   2.517
 2787TIP3    H1 8325   5.287   3.749   2.475
 2787TIP3    H2 8326   5.248   3.664   2.593
 2788TIP3   OH2 8327   6.100   1.600   0.527
 2788TIP3    H1 8328   6.123   1.508   0.510
 2788TIP3    H2 8329   6.155   1.649   0.466
 2789TIP3   OH2 8330   0.598   4.529   3.372
 2789TIP3    H1 8331   0.558   4.598   3.318
 2789TIP3    H2 8332   0.571   4.447   3.329
 2790TIP3   OH2 8333   1.433   6.058   4.944
 2790TIP3    H1 8334   1.414   6.001   4.870
 2790TIP3    H2 8335   1.505   6.016   4.990
 2791TIP3   OH2 8336   2.347   3.944   3.861
 2791TIP3    H1 8337   2.260   3.962   3.897
 2791TIP3    H2 8338   2.402   3.931   3.937
 2792TIP3   OH2 8339   4.574   0.304   3.441
 2792TIP3    H1 8340   4.635   0.366   3.401
 2792TIP3    H2 8341   4.497   0.357   3.464
 2793TIP3   OH2 8342   6.240   2.844   4.498
 2793TIP3    H1 8343   6.333   2.821   4.502
 2793TIP3    H2 8344   6.196   2.762   4.475
 2794TIP3   OH2 8345   1.761   0.125   3.883
 2794TIP3    H1 8346   1.742   0.096   3.973
 2794TIP3    H2 8347   1.740   0.218   3.883
 2795TIP3   OH2 8348   4.706   0.808   0.809
 2795TIP3    H1 8349   4.723   0.809   0.903
 2795TIP3    H2 8350   4.714   0.900   0.782
 2796TIP3   OH2 8351   7.005   1.413   1.169
 2796TIP3    H1 8352   6.943   1.467   1.219
 2796TIP3    H2 8353   6.949   1.353   1.120
 2797TIP3   OH2 8354   5.028   0.371   3.962
 2797TIP3    H1 8355   5.018   0.277   3.976
 2797TIP3    H2 8356   5.096   0.378   3.894
 2798TIP3   OH2 8357   2.960   4.808   2.417
 2798TIP3    H1 8358   2.927   4.802   2.507
 2798TIP3    H2 8359   3.054   4.824   2.428
 2799TIP3   OH2 8360   3.251   0.023   5.932
 2799TIP3    H1 8361   3.263   0.116   5.951
 2799TIP3    H2 8362   3.289   0.011   5.845
 2800TIP3   OH2 8363   2.929   4.079   5.314
 2800TIP3    H1 8364   2.861   4.044   5.372
 2800TIP3    H2 8365   2.901   4.054   5.226
 2801TIP3   OH2 8366   0.384   3.078   4.476
 2801TIP3    H1 8367   0.369   3.107   4.566
 2801TIP3    H2 8368   0.431   2.995   4.485
 2802TIP3   OH2 8369   4.147   2.086   1.843
 2802TIP3    H1 8370   4.208   2.093   1.916
 2802TIP3    H2 8371   4.202   2.063   1.768
 2803TIP3   OH2 8372   6.364   4.204   2.931
 2803TIP3    H1 8373   6.341   4.133   2.871
 2803TIP3    H2 8374   6.416   4.265   2.878
 2804TIP3   OH2 8375   4.627   3.221   5.623
 2804TIP3    H1 8376   4.702   3.279   5.609
 2804TIP3    H2 8377   4.664   3.145   5.667
 2805TIP3   OH2 8378   7.054   4.023   3.336
 2805TIP3    H1 8379   7.071   3.986   3.250
 2805TIP3    H2 8380   7.058   4.118   3.323
 2806TIP3   OH2 8381   2.736   3.337   4.576
 2806TIP3    H1 8382   2.679   3.413   4.568
 2806TIP3    H2 8383   2.812   3.357   4.521
 2807TIP3   OH2 8384   4.496   4.445   1.874
 2807TIP3    H1 8385   4.409   4.475   1.847
 2807TIP3    H2 8386   4.480   4.396   1.955
 2808TIP3   OH2 8387   4.695   1.078   2.122
 2808TIP3    H1 8388   4.665   1.064   2.032
 2808TIP3    H2 8389   4.657   1.005   2.172
 2809TIP3   OH2 8390   1.391   1.064   4.684
 2809TIP3    H1 8391   1.446   1.051   4.606
 2809TIP3    H2 8392   1.379   1.159   4.690
 2810TIP3   OH2 8393   2.370   5.609   5.619
 2810TIP3    H1 8394   2.450   5.639   5.577
 2810TIP3    H2 8395   2.397   5.581   5.706
 2811TIP3   OH2 8396   0.603   4.255   2.769
 2811TIP3    H1 8397   0.620   4.162   2.780
 2811TIP3    H2 8398   0.664   4.298   2.829
 2812TIP3   OH2 8399   0.099   3.421   0.867
 2812TIP3    H1 8400   0.037   3.475   0.819
 2812TIP3    H2 8401   0.127   3.355   0.804
 2813TIP3   OH2 8402   0.447   0.838   0.647
 2813TIP3    H1 8403   0.356   0.851   0.620
 2813TIP3    H2 8404   0.448   0.751   0.685
 2814TIP3   OH2 8405   3.577   2.028   3.870
 2814TIP3    H1 8406   3.626   1.971   3.929
 2814TIP3    H2 8407   3.612   2.116   3.887
 2815TIP3   OH2 8408   3.335   0.851   3.589
 2815TIP3    H1 8409   3.268   0.803   3.639
 2815TIP3    H2 8410   3.418   0.819   3.623
 2816TIP3   OH2 8411   0.431   1.934   3.296
 2816TIP3    H1 8412   0.336   1.931   3.291
 2816TIP3    H2 8413   0.455   1.860   3.351
 2817TIP3   OH2 8414   7.126   1.737   2.272
 2817TIP3    H1 8415   7.093   1.813   2.223
 2817TIP3    H2 8416   7.210   1.717   2.231
 2818TIP3   OH2 8417   5.614   4.851   4.487
 2818TIP3    H1 8418   5.632   4.848   4.393
 2818TIP3    H2 8419   5.649   4.936   4.515
 2819TIP3   OH2 8420   3.710   3.539   2.725
 2819TIP3    H1 8421   3.731   3.481   2.798
 2819TIP3    H2 8422   3.679   3.480   2.656
 2820TIP3   OH2 8423   0.090   6.433   1.260
 2820TIP3    H1 8424   0.082   6.517   1.214
 2820TIP3    H2 8425   0.183   6.413   1.259
 2821TIP3   OH2 8426   3.932   2.571   5.639
 2821TIP3    H1 8427   4.013   2.558   5.689
 2821TIP3    H2 8428   3.950   2.532   5.554
 2822TIP3   OH2 8429   4.158   5.991   3.503
 2822TIP3    H1 8430   4.154   6.085   3.523
 2822TIP3    H2 8431   4.071   5.970   3.469
 2823TIP3   OH2 8432   3.563   5.596   0.395
 2823TIP3    H1 8433   3.588   5.534   0.464
 2823TIP3    H2 8434   3.467   5.599   0.399
 2824TIP3   OH2 8435   0.377   4.006   0.062
 2824TIP3    H1 8436   0.404   3.977  -0.025
 2824TIP3    H2 8437   0.282   4.000   0.061
 2825TIP3   OH2 8438   6.702   4.773   1.277
 2825TIP3    H1 8439   6.675   4.769   1.185
 2825TIP3    H2 8440   6.620   4.787   1.325
 2826TIP3   OH2 8441   0.518   6.820   2.248
 2826TIP3    H1 8442   0.596   6.850   2.201
 2826TIP3    H2 8443   0.522   6.725   2.243
 2827TIP3   OH2 8444   2.566   3.853   1.653
 2827TIP3    H1 8445   2.611   3.777   1.690
 2827TIP3    H2 8446   2.600   3.860   1.564
 2828TIP3   OH2 8447   5.376   1.814   1.921
 2828TIP3    H1 8448   5.307   1.759   1.958
 2828TIP3    H2 8449   5.427   1.754   1.866
 2829TIP3   OH2 8450   6.236   1.450   5.288
 2829TIP3    H1 8451   6.201   1.418   5.372
 2829TIP3    H2 8452   6.189   1.532   5.272
 2830TIP3   OH2 8453   5.749   6.038   0.953
 2830TIP3    H1 8454   5.690   6.001   1.019
 2830TIP3    H2 8455   5.810   5.967   0.932
 2831TIP3   OH2 8456   4.655   0.983   4.911
 2831TIP3    H1 8457   4.736   0.945   4.944
 2831TIP3    H2 8458   4.635   1.053   4.973
 2832TIP3   OH2 8459   1.887   3.123   0.334
 2832TIP3    H1 8460   1.907   3.212   0.364
 2832TIP3    H2 8461   1.968   3.074   0.348
 2833TIP3   OH2 8462   3.969   0.184   4.052
 2833TIP3    H1 8463   3.905   0.140   3.996
 2833TIP3    H2 8464   4.019   0.240   3.992
 2834TIP3   OH2 8465   4.889   3.509   2.971
 2834TIP3    H1 8466   4.847   3.429   3.004
 2834TIP3    H2 8467   4.979   3.504   3.004
 2835TIP3   OH2 8468   5.840   2.510   0.542
 2835TIP3    H1 8469   5.818   2.453   0.615
 2835TIP3    H2 8470   5.892   2.580   0.581
 2836TIP3   OH2 8471   5.447   0.151   1.522
 2836TIP3    H1 8472   5.503   0.073   1.524
 2836TIP3    H2 8473   5.508   0.224   1.530
 2837TIP3   OH2 8474   2.466   5.635   4.671
 2837TIP3    H1 8475   2.465   5.565   4.737
 2837TIP3    H2 8476   2.555   5.669   4.674
 2838TIP3   OH2 8477   4.172   6.015   1.795
 2838TIP3    H1 8478   4.242   6.059   1.842
 2838TIP3    H2 8479   4.217   5.951   1.740
 2839TIP3   OH2 8480   5.051   6.135   4.563
 2839TIP3    H1 8481   5.100   6.055   4.546
 2839TIP3    H2 8482   5.053   6.145   4.658
 2840TIP3   OH2 8483   2.081   6.758   1.389
 2840TIP3    H1 8484   2.069   6.753   1.484
 2840TIP3    H2 8485   2.002   6.718   1.353
 2841TIP3   OH2 8486   5.055   3.828   2.464
 2841TIP3    H1 8487   5.046   3.845   2.370
 2841TIP3    H2 8488   4.967   3.843   2.499
 2842TIP3   OH2 8489   3.359   1.515   4.998
 2842TIP3    H1 8490   3.430   1.451   4.993
 2842TIP3    H2 8491   3.394   1.586   5.052
 2843TIP3   OH2 8492   6.578   2.101   0.209
 2843TIP3    H1 8493   6.562   2.054   0.128
 2843TIP3    H2 8494   6.576   2.194   0.184
 2844TIP3   OH2 8495   1.219   0.236   4.894
 2844TIP3    H1 8496   1.245   0.209   4.806
 2844TIP3    H2 8497   1.201   0.330   4.886
 2845TIP3   OH2 8498   4.639   0.476   4.961
 2845TIP3    H1 8499   4.603   0.561   4.936
 2845TIP3    H2 8500   4.587   0.449   5.037
 2846TIP3   OH2 8501   6.661   4.397   5.205
 2846TIP3    H1 8502   6.624   4.440   5.128
 2846TIP3    H2 8503   6.591   4.401   5.270
 2847TIP3   OH2 8504   6.841   0.409   0.166
 2847TIP3    H1 8505   6.852   0.314   0.167
 2847TIP3    H2 8506   6.853   0.436   0.257
 2848TIP3   OH2 8507   2.171   0.543   1.656
 2848TIP3    H1 8508   2.110   0.610   1.688
 2848TIP3    H2 8509   2.120   0.462   1.659
 2849TIP3   OH2 8510   4.255   1.024   3.261
 2849TIP3    H1 8511   4.224   0.934   3.255
 2849TIP3    H2 8512   4.346   1.016   3.289
 2850TIP3   OH2 8513   3.532   2.881   3.412
 2850TIP3    H1 8514   3.448   2.924   3.400
 2850TIP3    H2 8515   3.515   2.788   3.393
 2851TIP3   OH2 8516   2.379   6.567   0.981
 2851TIP3    H1 8517   2.423   6.650   0.963
 2851TIP3    H2 8518   2.342   6.577   1.068
 2852TIP3   OH2 8519   7.190   4.728   0.162
 2852TIP3    H1 8520   7.122   4.769   0.107
 2852TIP3    H2 8521   7.141   4.673   0.223
 2853TIP3   OH2 8522   5.296   2.748   3.018
 2853TIP3    H1 8523   5.377   2.699   3.025
 2853TIP3    H2 8524   5.322   2.831   2.977
 2854TIP3   OH2 8525   6.947   5.579   2.806
 2854TIP3    H1 8526   6.922   5.619   2.890
 2854TIP3    H2 8527   7.011   5.512   2.831
 2855TIP3   OH2 8528   2.792   6.251   4.788
 2855TIP3    H1 8529   2.714   6.242   4.843
 2855TIP3    H2 8530   2.773   6.200   4.710
 2856TIP3   OH2 8531   5.699   2.553   4.905
 2856TIP3    H1 8532   5.772   2.569   4.965
 2856TIP3    H2 8533   5.718   2.469   4.864
 2857TIP3   OH2 8534   0.865   4.577   3.296
 2857TIP3    H1 8535   0.790   4.519   3.309
 2857TIP3    H2 8536   0.836   4.662   3.330
 2858TIP3   OH2 8537   1.454   0.665   2.001
 2858TIP3    H1 8538   1.493   0.600   1.943
 2858TIP3    H2 8539   1.483   0.749   1.966
 2859TIP3   OH2 8540   2.787   3.347   4.837
 2859TIP3    H1 8541   2.806   3.261   4.875
 2859TIP3    H2 8542   2.761   3.328   4.747
 2860TIP3   OH2 8543   3.424   6.435   2.108
 2860TIP3    H1 8544   3.505   6.459   2.153
 2860TIP3    H2 8545   3.452   6.404   2.022
 2861TIP3   OH2 8546   1.201   0.756   4.326
 2861TIP3    H1 8547   1.237   0.806   4.252
 2861TIP3    H2 8548   1.209   0.665   4.299
 2862TIP3   OH2 8549   6.810   0.659   5.199
 2862TIP3    H1 8550   6.803   0.735   5.141
 2862TIP3    H2 8551   6.743   0.598   5.167
 2863TIP3   OH2 8552   5.131   6.191   5.600
 2863TIP3    H1 8553   5.162   6.183   5.510
 2863TIP3    H2 8554   5.175   6.120   5.647
 2864TIP3   OH2 8555   2.417   5.407   0.976
 2864TIP3    H1 8556   2.508   5.408   1.006
 2864TIP3    H2 8557   2.396   5.499   0.959
 2865TIP3   OH2 8558   4.700   2.656   4.843
 2865TIP3    H1 8559   4.617   2.697   4.818
 2865TIP3    H2 8560   4.694   2.643   4.937
 2866TIP3   OH2 8561   0.415   2.664   5.443
 2866TIP3    H1 8562   0.417   2.569   5.428
 2866TIP3    H2 8563   0.507   2.690   5.438
 2867TIP3   OH2 8564   2.882   4.171   5.593
 2867TIP3    H1 8565   2.918   4.220   5.666
 2867TIP3    H2 8566   2.938   4.093   5.586
 2868TIP3   OH2 8567   2.248   4.594   4.290
 2868TIP3    H1 8568   2.342   4.574   4.289
 2868TIP3    H2 8569   2.206   4.511   4.310
 2869TIP3   OH2 8570   4.778   5.233   5.577
 2869TIP3    H1 8571   4.685   5.228   5.557
 2869TIP3    H2 8572   4.798   5.327   5.577
 2870TIP3   OH2 8573   7.173   3.730   5.176
 2870TIP3    H1 8574   7.228   3.807   5.166
 2870TIP3    H2 8575   7.178   3.685   5.091
 2871TIP3   OH2 8576   0.887   2.056   4.952
 2871TIP3    H1 8577   0.883   1.964   4.927
 2871TIP3    H2 8578   0.799   2.077   4.983
 2872TIP3   OH2 8579   4.767   3.217   3.648
 2872TIP3    H1 8580   4.774   3.313   3.647
 2872TIP3    H2 8581   4.842   3.188   3.700
 2873TIP3   OH2 8582   5.927   0.414   1.973
 2873TIP3    H1 8583   6.001   0.437   1.917
 2873TIP3    H2 8584   5.850   0.437   1.922
 2874TIP3   OH2 8585   6.830   5.709   1.439
 2874TIP3    H1 8586   6.910   5.668   1.404
 2874TIP3    H2 8587   6.770   5.712   1.365
 2875TIP3   OH2 8588   7.220   6.044   0.206
 2875TIP3    H1 8589   7.266   6.120   0.172
 2875TIP3    H2 8590   7.184   6.001   0.128
 2876TIP3   OH2 8591   0.865   3.252   0.657
 2876TIP3    H1 8592   0.860   3.159   0.680
 2876TIP3    H2 8593   0.959   3.272   0.660
 2877TIP3   OH2 8594   2.877   4.794   1.674
 2877TIP3    H1 8595   2.915   4.774   1.588
 2877TIP3    H2 8596   2.942   4.765   1.737
 2878TIP3   OH2 8597   6.314   5.539   5.554
 2878TIP3    H1 8598   6.262   5.535   5.474
 2878TIP3    H2 8599   6.389   5.594   5.531
 2879TIP3   OH2 8600   1.587   0.165   0.132
 2879TIP3    H1 8601   1.671   0.212   0.135
 2879TIP3    H2 8602   1.549   0.190   0.048
 2880TIP3   OH2 8603   1.847   2.135   4.566
 2880TIP3    H1 8604   1.901   2.160   4.491
 2880TIP3    H2 8605   1.780   2.077   4.529
 2881TIP3   OH2 8606   6.523   1.147   0.751
 2881TIP3    H1 8607   6.477   1.158   0.834
 2881TIP3    H2 8608   6.487   1.067   0.714
 2882TIP3   OH2 8609   6.949   0.487   4.871
 2882TIP3    H1 8610   6.997   0.497   4.789
 2882TIP3    H2 8611   7.007   0.435   4.926
 2883TIP3   OH2 8612   3.519   4.080   5.666
 2883TIP3    H1 8613   3.509   3.997   5.712
 2883TIP3    H2 8614   3.588   4.126   5.713
 2884TIP3   OH2 8615   0.480   5.357   3.168
 2884TIP3    H1 8616   0.509   5.292   3.232
 2884TIP3    H2 8617   0.545   5.427   3.172
 2885TIP3   OH2 8618   4.755   5.407   4.141
 2885TIP3    H1 8619   4.751   5.321   4.183
 2885TIP3    H2 8620   4.827   5.452   4.186
 2886TIP3   OH2 8621   3.398   4.003   2.528
 2886TIP3    H1 8622   3.382   4.036   2.616
 2886TIP3    H2 8623   3.381   4.078   2.471
 2887TIP3   OH2 8624   4.488   0.961   3.424
 2887TIP3    H1 8625   4.493   0.886   3.484
 2887TIP3    H2 8626   4.526   1.034   3.473
 2888TIP3   OH2 8627   4.747   3.296   0.602
 2888TIP3    H1 8628   4.682   3.227   0.610
 2888TIP3    H2 8629   4.827   3.251   0.575
 2889TIP3   OH2 8630   3.751   2.181   1.366
 2889TIP3    H1 8631   3.708   2.120   1.306
 2889TIP3    H2 8632   3.783   2.252   1.310
 2890TIP3   OH2 8633   0.953   2.311   5.288
 2890TIP3    H1 8634   0.935   2.387   5.233
 2890TIP3    H2 8635   0.992   2.247   5.228
 2891TIP3   OH2 8636   6.571   1.756   2.014
 2891TIP3    H1 8637   6.525   1.705   1.948
 2891TIP3    H2 8638   6.570   1.701   2.093
 2892TIP3   OH2 8639  -0.003   0.584   1.055
 2892TIP3    H1 8640  -0.013   0.517   1.123
 2892TIP3    H2 8641   0.091   0.587   1.038
 2893TIP3   OH2 8642   1.429   3.088   2.850
 2893TIP3    H1 8643   1.471   3.022   2.906
 2893TIP3    H2 8644   1.364   3.039   2.800
 2894TIP3   OH2 8645   5.627   5.712   3.395
 2894TIP3    H1 8646   5.590   5.648   3.333
 2894TIP3    H2 8647   5.601   5.797   3.360
 2895TIP3   OH2 8648   5.514   5.694   1.696
 2895TIP3    H1 8649   5.604   5.721   1.678
 2895TIP3    H2 8650   5.522   5.601   1.720
 2896TIP3   OH2 8651   5.666   1.193   3.428
 2896TIP3    H1 8652   5.584   1.237   3.407
 2896TIP3    H2 8653   5.641   1.121   3.485
 2897TIP3   OH2 8654   6.509   5.314   0.370
 2897TIP3    H1 8655   6.482   5.252   0.438
 2897TIP3    H2 8656   6.462   5.395   0.392
 2898TIP3   OH2 8657   2.221   5.019   4.176
 2898TIP3    H1 8658   2.283   5.062   4.234
 2898TIP3    H2 8659   2.259   4.934   4.158
 2899TIP3   OH2 8660   2.055   6.349   1.085
 2899TIP3    H1 8661   2.025   6.380   1.171
 2899TIP3    H2 8662   2.149   6.370   1.084
 2900TIP3   OH2 8663   0.950   2.179   4.429
 2900TIP3    H1 8664   0.995   2.197   4.512
 2900TIP3    H2 8665   1.017   2.191   4.362
 2901TIP3   OH2 8666   4.358   5.681   3.641
 2901TIP3    H1 8667   4.432   5.647   3.691
 2901TIP3    H2 8668   4.398   5.728   3.568
 2902TIP3   OH2 8669   6.236   4.608   2.219
 2902TIP3    H1 8670   6.183   4.626   2.141
 2902TIP3    H2 8671   6.193   4.533   2.260
 2903TIP3   OH2 8672   6.019   3.003   4.441
 2903TIP3    H1 8673   6.086   2.936   4.426
 2903TIP3    H2 8674   5.998   2.995   4.534
 2904TIP3   OH2 8675   6.750   3.323   0.848
 2904TIP3    H1 8676   6.817   3.292   0.787
 2904TIP3    H2 8677   6.798   3.381   0.908
 2905TIP3   OH2 8678   0.199   2.670   5.273
 2905TIP3    H1 8679   0.284   2.675   5.318
 2905TIP3    H2 8680   0.189   2.754   5.229
 2906TIP3   OH2 8681   3.117   3.741   1.192
 2906TIP3    H1 8682   3.180   3.812   1.177
 2906TIP3    H2 8683   3.033   3.776   1.162
 2907TIP3   OH2 8684   4.334   3.744   4.951
 2907TIP3    H1 8685   4.422   3.734   4.987
 2907TIP3    H2 8686   4.315   3.659   4.911
 2908TIP3   OH2 8687   1.355   3.323   2.462
 2908TIP3    H1 8688   1.289   3.258   2.438
 2908TIP3    H2 8689   1.410   3.330   2.384
 2909TIP3   OH2 8690   4.408   1.555   1.875
 2909TIP3    H1 8691   4.437   1.642   1.847
 2909TIP3    H2 8692   4.328   1.539   1.826
 2910TIP3   OH2 8693   1.313   0.227   1.455
 2910TIP3    H1 8694   1.264   0.155   1.494
 2910TIP3    H2 8695   1.247   0.278   1.407
 2911TIP3   OH2 8696   4.205   2.087   2.454
 2911TIP3    H1 8697   4.291   2.097   2.413
 2911TIP3    H2 8698   4.144   2.085   2.380
 2912TIP3   OH2 8699   1.637   1.051   1.234
 2912TIP3    H1 8700   1.707   1.046   1.299
 2912TIP3    H2 8701   1.586   0.971   1.248
 2913TIP3   OH2 8702   1.317   4.936   1.010
 2913TIP3    H1 8703   1.309   4.919   1.104
 2913TIP3    H2 8704   1.324   5.031   1.003
 2914TIP3   OH2 8705   1.428   5.491   0.120
 2914TIP3    H1 8706   1.370   5.565   0.104
 2914TIP3    H2 8707   1.480   5.482   0.040
 2915TIP3   OH2 8708   1.834   5.013   1.229
 2915TIP3    H1 8709   1.853   5.074   1.158
 2915TIP3    H2 8710   1.897   4.942   1.217
 2916TIP3   OH2 8711   4.840   4.824   0.096
 2916TIP3    H1 8712   4.882   4.749   0.052
 2916TIP3    H2 8713   4.829   4.889   0.027
 2917TIP3   OH2 8714   0.538   6.424   1.951
 2917TIP3    H1 8715   0.502   6.348   1.997
 2917TIP3    H2 8716   0.569   6.482   2.021
 2918TIP3   OH2 8717   3.712   4.924   2.934
 2918TIP3    H1 8718   3.757   4.998   2.977
 2918TIP3    H2 8719   3.625   4.958   2.913
 2919TIP3   OH2 8720   0.594   2.515   2.952
 2919TIP3    H1 8721   0.539   2.584   2.989
 2919TIP3    H2 8722   0.678   2.558   2.933
 2920TIP3   OH2 8723   4.159   2.055   0.778
 2920TIP3    H1 8724   4.066   2.071   0.796
 2920TIP3    H2 8725   4.197   2.041   0.865
 2921TIP3   OH2 8726   0.593   4.377   5.006
 2921TIP3    H1 8727   0.507   4.373   4.964
 2921TIP3    H2 8728   0.646   4.315   4.957
 2922TIP3   OH2 8729   0.433   6.602   0.089
 2922TIP3    H1 8730   0.420   6.570   0.000
 2922TIP3    H2 8731   0.512   6.557   0.120
 2923TIP3   OH2 8732   4.655   4.041   5.630
 2923TIP3    H1 8733   4.748   4.027   5.615
 2923TIP3    H2 8734   4.632   4.114   5.572
 2924TIP3   OH2 8735   5.966   6.604   4.169
 2924TIP3    H1 8736   5.941   6.611   4.077
 2924TIP3    H2 8737   6.059   6.627   4.171
 2925TIP3   OH2 8738   0.713   6.381   2.938
 2925TIP3    H1 8739   0.649   6.451   2.925
 2925TIP3    H2 8740   0.723   6.376   3.033
 2926TIP3   OH2 8741   4.910   5.331   4.381
 2926TIP3    H1 8742   4.863   5.347   4.463
 2926TIP3    H2 8743   5.001   5.350   4.402
 2927TIP3   OH2 8744   4.786   3.263   4.280
 2927TIP3    H1 8745   4.708   3.207   4.279
 2927TIP3    H2 8746   4.855   3.208   4.317
 2928TIP3   OH2 8747   4.991   5.646   4.314
 2928TIP3    H1 8748   5.080   5.675   4.292
 2928TIP3    H2 8749   5.003   5.588   4.389
 2929TIP3   OH2 8750   5.650   5.152   4.479
 2929TIP3    H1 8751   5.660   5.154   4.575
 2929TIP3    H2 8752   5.694   5.232   4.449
 2930TIP3   OH2 8753   1.014   1.416   4.327
 2930TIP3    H1 8754   1.050   1.422   4.239
 2930TIP3    H2 8755   1.011   1.322   4.346
 2931TIP3   OH2 8756   1.566   1.057   1.990
 2931TIP3    H1 8757   1.610   1.137   2.017
 2931TIP3    H2 8758   1.510   1.034   2.064
 2932TIP3   OH2 8759   0.304   4.205   0.892
 2932TIP3    H1 8760   0.289   4.120   0.851
 2932TIP3    H2 8761   0.377   4.190   0.952
 2933TIP3   OH2 8762   6.468   1.608   0.617
 2933TIP3    H1 8763   6.551   1.623   0.662
 2933TIP3    H2 8764   6.434   1.696   0.600
 2934TIP3   OH2 8765   1.077   5.342   4.223
 2934TIP3    H1 8766   1.022   5.313   4.150
 2934TIP3    H2 8767   1.157   5.374   4.181
 2935TIP3   OH2 8768   5.487   4.531   1.135
 2935TIP3    H1 8769   5.425   4.459   1.128
 2935TIP3    H2 8770   5.502   4.560   1.045
 2936TIP3   OH2 8771   3.940   5.828   0.623
 2936TIP3    H1 8772   4.010   5.892   0.635
 2936TIP3    H2 8773   3.900   5.820   0.710
 2937TIP3   OH2 8774   6.526   0.579   0.834
 2937TIP3    H1 8775   6.475   0.653   0.864
 2937TIP3    H2 8776   6.470   0.503   0.849
 2938TIP3   OH2 8777   0.227   3.005   4.721
 2938TIP3    H1 8778   0.273   2.980   4.801
 2938TIP3    H2 8779   0.149   2.950   4.720
 2939TIP3   OH2 8780   6.254   3.446   4.809
 2939TIP3    H1 8781   6.211   3.365   4.782
 2939TIP3    H2 8782   6.241   3.505   4.734
 2940TIP3   OH2 8783   2.968   3.931   5.725
 2940TIP3    H1 8784   2.958   3.869   5.653
 2940TIP3    H2 8785   3.059   3.920   5.753
 2941TIP3   OH2 8786   4.467   2.969   3.951
 2941TIP3    H1 8787   4.492   2.946   3.861
 2941TIP3    H2 8788   4.401   3.038   3.940
 2942TIP3   OH2 8789   2.387   2.703   1.216
 2942TIP3    H1 8790   2.460   2.671   1.162
 2942TIP3    H2 8791   2.386   2.645   1.292
 2943TIP3   OH2 8792   1.257   1.704   0.985
 2943TIP3    H1 8793   1.205   1.627   0.961
 2943TIP3    H2 8794   1.195   1.761   1.032
 2944TIP3   OH2 8795   3.775   0.672   1.513
 2944TIP3    H1 8796   3.713   0.686   1.442
 2944TIP3    H2 8797   3.799   0.580   1.507
 2945TIP3   OH2 8798   3.656   6.245   4.738
 2945TIP3    H1 8799   3.684   6.178   4.676
 2945TIP3    H2 8800   3.734   6.264   4.789
 2946TIP3   OH2 8801   5.718   2.234   5.798
 2946TIP3    H1 8802   5.799   2.284   5.795
 2946TIP3    H2 8803   5.670   2.260   5.719
 2947TIP3   OH2 8804   1.284   5.678   4.724
 2947TIP3    H1 8805   1.231   5.655   4.800
 2947TIP3    H2 8806   1.373   5.654   4.750
 2948TIP3   OH2 8807   2.812   4.590   3.516
 2948TIP3    H1 8808   2.891   4.642   3.527
 2948TIP3    H2 8809   2.828   4.537   3.438
 2949TIP3   OH2 8810   3.254   3.538   5.743
 2949TIP3    H1 8811   3.303   3.587   5.810
 2949TIP3    H2 8812   3.211   3.468   5.792
 2950TIP3   OH2 8813   4.831   5.908   2.895
 2950TIP3    H1 8814   4.742   5.873   2.899
 2950TIP3    H2 8815   4.821   6.001   2.914
 2951TIP3   OH2 8816   0.348   5.742   0.868
 2951TIP3    H1 8817   0.266   5.761   0.915
 2951TIP3    H2 8818   0.396   5.682   0.926
 2952TIP3   OH2 8819   0.789   4.815   5.510
 2952TIP3    H1 8820   0.846   4.744   5.539
 2952TIP3    H2 8821   0.744   4.844   5.590
 2953TIP3   OH2 8822   6.018   5.272   1.757
 2953TIP3    H1 8823   6.026   5.181   1.787
 2953TIP3    H2 8824   5.966   5.266   1.677
 2954TIP3   OH2 8825   4.447   4.564   5.267
 2954TIP3    H1 8826   4.483   4.646   5.303
 2954TIP3    H2 8827   4.523   4.506   5.258
 2955TIP3   OH2 8828   2.152   0.828   0.336
 2955TIP3    H1 8829   2.148   0.907   0.283
 2955TIP3    H2 8830   2.061   0.808   0.356
 2956TIP3   OH2 8831   4.425   5.507   1.877
 2956TIP3    H1 8832   4.336   5.484   1.850
 2956TIP3    H2 8833   4.417   5.528   1.971
 2957TIP3   OH2 8834   2.496   0.974   0.941
 2957TIP3    H1 8835   2.556   0.911   0.902
 2957TIP3    H2 8836   2.433   0.922   0.989
 2958TIP3   OH2 8837   3.206   2.018   4.198
 2958TIP3    H1 8838   3.178   1.932   4.168
 2958TIP3    H2 8839   3.281   2.040   4.143
 2959TIP3   OH2 8840   2.615   5.903   3.828
 2959TIP3    H1 8841   2.537   5.951   3.801
 2959TIP3    H2 8842   2.667   5.967   3.877
 2960TIP3   OH2 8843   2.256   6.295   1.286
 2960TIP3    H1 8844   2.278   6.254   1.369
 2960TIP3    H2 8845   2.326   6.267   1.226
 2961TIP3   OH2 8846   4.972   5.439   2.643
 2961TIP3    H1 8847   4.940   5.452   2.554
 2961TIP3    H2 8848   4.928   5.507   2.694
 2962TIP3   OH2 8849   2.119   0.156   1.746
 2962TIP3    H1 8850   2.117   0.235   1.801
 2962TIP3    H2 8851   2.039   0.108   1.771
 2963TIP3   OH2 8852   4.764   3.510   3.610
 2963TIP3    H1 8853   4.686   3.566   3.606
 2963TIP3    H2 8854   4.792   3.516   3.702
 2964TIP3   OH2 8855   3.514   5.873   3.461
 2964TIP3    H1 8856   3.589   5.866   3.519
 2964TIP3    H2 8857   3.551   5.871   3.373
 2965TIP3   OH2 8858   1.425   5.853   3.796
 2965TIP3    H1 8859   1.358   5.905   3.752
 2965TIP3    H2 8860   1.502   5.909   3.797
 2966TIP3   OH2 8861   0.937   1.155   1.578
 2966TIP3    H1 8862   0.936   1.060   1.588
 2966TIP3    H2 8863   1.030   1.179   1.586
 2967TIP3   OH2 8864   2.175   0.656   3.610
 2967TIP3    H1 8865   2.212   0.645   3.698
 2967TIP3    H2 8866   2.251   0.667   3.553
 2968TIP3   OH2 8867   2.287   1.420   0.105
 2968TIP3    H1 8868   2.321   1.491   0.159
 2968TIP3    H2 8869   2.204   1.454   0.071
 2969TIP3   OH2 8870   6.630   3.285   4.390
 2969TIP3    H1 8871   6.676   3.260   4.310
 2969TIP3    H2 8872   6.555   3.226   4.395
 2970TIP3   OH2 8873   6.595   0.132   3.283
 2970TIP3    H1 8874   6.617   0.225   3.273
 2970TIP3    H2 8875   6.503   0.132   3.308
 2971TIP3   OH2 8876   3.121   6.426   4.688
 2971TIP3    H1 8877   3.215   6.446   4.685
 2971TIP3    H2 8878   3.083   6.479   4.619
 2972TIP3   OH2 8879   6.104   4.937   3.897
 2972TIP3    H1 8880   6.070   4.858   3.940
 2972TIP3    H2 8881   6.103   5.004   3.965
 2973TIP3   OH2 8882   4.000   3.432   3.543
 2973TIP3    H1 8883   4.002   3.337   3.559
 2973TIP3    H2 8884   4.092   3.459   3.547
 2974TIP3   OH2 8885   5.061   3.543   2.484
 2974TIP3    H1 8886   5.156   3.533   2.492
 2974TIP3    H2 8887   5.045   3.635   2.503
 2975TIP3   OH2 8888   2.581   2.117   3.564
 2975TIP3    H1 8889   2.565   2.098   3.472
 2975TIP3    H2 8890   2.611   2.033   3.600
 2976TIP3   OH2 8891   2.009   5.863   0.410
 2976TIP3    H1 8892   2.044   5.940   0.365
 2976TIP3    H2 8893   2.079   5.839   0.472
 2977TIP3   OH2 8894   6.103   3.212   1.979
 2977TIP3    H1 8895   6.045   3.222   1.903
 2977TIP3    H2 8896   6.139   3.124   1.970
 2978TIP3   OH2 8897   5.132   3.329   4.498
 2978TIP3    H1 8898   5.184   3.376   4.433
 2978TIP3    H2 8899   5.125   3.390   4.572
 2979TIP3   OH2 8900   7.178   3.615   4.936
 2979TIP3    H1 8901   7.184   3.650   4.847
 2979TIP3    H2 8902   7.102   3.556   4.933
 2980TIP3   OH2 8903   1.167   3.302   4.773
 2980TIP3    H1 8904   1.181   3.335   4.684
 2980TIP3    H2 8905   1.172   3.381   4.828
 2981TIP3   OH2 8906   0.322   5.842   0.622
 2981TIP3    H1 8907   0.356   5.812   0.706
 2981TIP3    H2 8908   0.398   5.846   0.564
 2982TIP3   OH2 8909   0.317   2.736   0.403
 2982TIP3    H1 8910   0.405   2.699   0.395
 2982TIP3    H2 8911   0.261   2.677   0.353
 2983TIP3   OH2 8912   6.843   2.410   2.499
 2983TIP3    H1 8913   6.871   2.490   2.544
 2983TIP3    H2 8914   6.748   2.417   2.495
 2984TIP3   OH2 8915   4.628   6.271   1.507
 2984TIP3    H1 8916   4.683   6.252   1.582
 2984TIP3    H2 8917   4.688   6.269   1.432
 2985TIP3   OH2 8918   0.893   6.064   2.131
 2985TIP3    H1 8919   0.918   5.976   2.160
 2985TIP3    H2 8920   0.806   6.053   2.093
 2986TIP3   OH2 8921   5.996   6.125   1.434
 2986TIP3    H1 8922   6.052   6.051   1.411
 2986TIP3    H2 8923   6.015   6.191   1.367
 2987TIP3   OH2 8924   0.748   0.626   4.496
 2987TIP3    H1 8925   0.673   0.572   4.472
 2987TIP3    H2 8926   0.742   0.634   4.591
 2988TIP3   OH2 8927   1.542   0.292   3.464
 2988TIP3    H1 8928   1.488   0.214   3.473
 2988TIP3    H2 8929   1.514   0.349   3.536
 2989TIP3   OH2 8930   3.021   3.058   2.406
 2989TIP3    H1 8931   3.028   3.153   2.402
 2989TIP3    H2 8932   2.971   3.041   2.486
 2990TIP3   OH2 8933   4.900   5.136   4.769
 2990TIP3    H1 8934   4.813   5.109   4.799
 2990TIP3    H2 8935   4.888   5.225   4.737
 2991TIP3   OH2 8936   1.684   1.814   1.685
 2991TIP3    H1 8937   1.775   1.843   1.691
 2991TIP3    H2 8938   1.635   1.882   1.731
 2992TIP3   OH2 8939   6.678   2.331   3.687
 2992TIP3    H1 8940   6.680   2.264   3.755
 2992TIP3    H2 8941   6.648   2.410   3.732
 2993TIP3   OH2 8942   0.909   6.449   0.422
 2993TIP3    H1 8943   0.992   6.488   0.393
 2993TIP3    H2 8944   0.917   6.444   0.517
 2994TIP3   OH2 8945   0.124   1.308   3.704
 2994TIP3    H1 8946   0.193   1.252   3.668
 2994TIP3    H2 8947   0.132   1.297   3.799
 2995TIP3   OH2 8948   1.611   6.749   0.319
 2995TIP3    H1 8949   1.649   6.812   0.380
 2995TIP3    H2 8950   1.517   6.769   0.321
 2996TIP3   OH2 8951   6.469   0.595   3.062
 2996TIP3    H1 8952   6.441   0.615   3.152
 2996TIP3    H2 8953   6.439   0.670   3.011
 2997TIP3   OH2 8954   1.917   4.534   0.378
 2997TIP3    H1 8955   1.926   4.617   0.425
 2997TIP3    H2 8956   1.929   4.467   0.446
 2998TIP3   OH2 8957   0.368   3.227   5.148
 2998TIP3    H1 8958   0.411   3.277   5.078
 2998TIP3    H2 8959   0.431   3.226   5.219
 2999TIP3   OH2 8960   3.704   0.664   3.107
 2999TIP3    H1 8961   3.675   0.686   3.018
 2999TIP3    H2 8962   3.754   0.583   3.096
 3000TIP3   OH2 8963   2.291   0.451   4.030
 3000TIP3    H1 8964   2.198   0.472   4.030
 3000TIP3    H2 8965   2.332   0.525   3.985
 3001TIP3   OH2 8966   6.531   1.714   1.666
 3001TIP3    H1 8967   6.567   1.632   1.632
 3001TIP3    H2 8968   6.552   1.779   1.599
 3002TIP3   OH2 8969   6.178   5.903   1.453
 3002TIP3    H1 8970   6.266   5.903   1.413
 3002TIP3    H2 8971   6.155   5.811   1.460
 3003TIP3   OH2 8972   4.646   5.403   1.047
 3003TIP3    H1 8973   4.660   5.309   1.063
 3003TIP3    H2 8974   4.649   5.442   1.135
 3004TIP3   OH2 8975   0.378   3.252   2.353
 3004TIP3    H1 8976   0.432   3.182   2.388
 3004TIP3    H2 8977   0.418   3.275   2.269
 3005TIP3   OH2 8978   2.775   5.869   1.095
 3005TIP3    H1 8979   2.746   5.959   1.079
 3005TIP3    H2 8980   2.859   5.862   1.050
 3006TIP3   OH2 8981   1.245   4.947   3.402
 3006TIP3    H1 8982   1.205   4.864   3.427
 3006TIP3    H2 8983   1.332   4.946   3.443
 3007TIP3   OH2 8984  -0.023   6.341   1.873
 3007TIP3    H1 8985  -0.085   6.302   1.935
 3007TIP3    H2 8986   0.047   6.376   1.928
 3008TIP3   OH2 8987   6.777   1.647   3.033
 3008TIP3    H1 8988   6.707   1.607   3.084
 3008TIP3    H2 8989   6.738   1.726   2.995
 3009TIP3   OH2 8990   6.526   4.980   1.163
 3009TIP3    H1 8991   6.522   4.994   1.258
 3009TIP3    H2 8992   6.618   4.956   1.147
 3010TIP3   OH2 8993   1.728   1.328   5.135
 3010TIP3    H1 8994   1.792   1.256   5.136
 3010TIP3    H2 8995   1.645   1.287   5.161
 3011TIP3   OH2 8996   1.448   2.178   3.453
 3011TIP3    H1 8997   1.416   2.089   3.442
 3011TIP3    H2 8998   1.393   2.216   3.521
 3012TIP3   OH2 8999   1.136   3.278   4.242
 3012TIP3    H1 9000   1.168   3.255   4.155
 3012TIP3    H2 9001   1.047   3.311   4.227
 3013TIP3   OH2 9002   5.047   6.042   4.135
 3013TIP3    H1 9003   5.015   5.988   4.063
 3013TIP3    H2 9004   4.977   6.041   4.200
 3014TIP3   OH2 9005   1.807   5.073   1.820
 3014TIP3    H1 9006   1.818   5.100   1.911
 3014TIP3    H2 9007   1.888   5.101   1.777
 3015TIP3   OH2 9008   3.068   2.252   1.546
 3015TIP3    H1 9009   3.161   2.273   1.552
 3015TIP3    H2 9010   3.047   2.213   1.631
 3016TIP3   OH2 9011   0.596   5.349   0.810
 3016TIP3    H1 9012   0.636   5.285   0.869
 3016TIP3    H2 9013   0.566   5.419   0.868
 3017TIP3   OH2 9014   1.817   4.606   5.096
 3017TIP3    H1 9015   1.878   4.622   5.023
 3017TIP3    H2 9016   1.759   4.682   5.096
 3018TIP3   OH2 9017   3.917   1.261   5.888
 3018TIP3    H1 9018   3.872   1.271   5.972
 3018TIP3    H2 9019   3.871   1.322   5.830
 3019TIP3   OH2 9020   1.296   2.237   3.682
 3019TIP3    H1 9021   1.289   2.332   3.679
 3019TIP3    H2 9022   1.217   2.205   3.639
 3020TIP3   OH2 9023   0.552   1.228   0.066
 3020TIP3    H1 9024   0.619   1.228  -0.002
 3020TIP3    H2 9025   0.471   1.207   0.020
 3021TIP3   OH2 9026   4.015   2.552   1.829
 3021TIP3    H1 9027   3.966   2.590   1.756
 3021TIP3    H2 9028   4.078   2.493   1.788
 3022TIP3   OH2 9029   3.985   3.713   2.209
 3022TIP3    H1 9030   3.938   3.779   2.261
 3022TIP3    H2 9031   3.915   3.664   2.165
 3023TIP3   OH2 9032   5.081   5.443   0.441
 3023TIP3    H1 9033   4.994   5.469   0.469
 3023TIP3    H2 9034   5.088   5.475   0.351
 3024TIP3   OH2 9035   0.054   4.363   4.948
 3024TIP3    H1 9036   0.143   4.391   4.924
 3024TIP3    H2 9037   0.012   4.443   4.978
 3025TIP3   OH2 9038   6.309   0.928   4.770
 3025TIP3    H1 9039   6.304   0.877   4.689
 3025TIP3    H2 9040   6.240   0.994   4.761
 3026TIP3   OH2 9041   1.050   6.727   1.319
 3026TIP3    H1 9042   1.057   6.816   1.356
 3026TIP3    H2 9043   1.099   6.732   1.237
 3027TIP3   OH2 9044   5.264   0.508  -0.051
 3027TIP3    H1 9045   5.287   0.600  -0.052
 3027TIP3    H2 9046   5.194   0.501   0.014
 3028TIP3   OH2 9047   6.210   0.779   5.723
 3028TIP3    H1 9048   6.198   0.691   5.761
 3028TIP3    H2 9049   6.305   0.786   5.710
 3029TIP3   OH2 9050   2.852   3.194   2.017
 3029TIP3    H1 9051   2.766   3.190   1.976
 3029TIP3    H2 9052   2.858   3.115   2.070
 3030TIP3   OH2 9053   5.292   3.656   4.018
 3030TIP3    H1 9054   5.285   3.644   3.923
 3030TIP3    H2 9055   5.202   3.647   4.050
 3031TIP3   OH2 9056   6.464   3.987   2.394
 3031TIP3    H1 9057   6.453   3.919   2.328
 3031TIP3    H2 9058   6.558   3.987   2.413
 3032TIP3   OH2 9059   1.720   3.548   5.373
 3032TIP3    H1 9060   1.686   3.465   5.339
 3032TIP3    H2 9061   1.775   3.582   5.302
 3033TIP3   OH2 9062   4.740   0.336   2.300
 3033TIP3    H1 9063   4.672   0.330   2.367
 3033TIP3    H2 9064   4.696   0.373   2.224
 3034TIP3   OH2 9065   5.374   6.714   4.590
 3034TIP3    H1 9066   5.338   6.732   4.503
 3034TIP3    H2 9067   5.321   6.767   4.649
 3035TIP3   OH2 9068   1.443   5.930   4.218
 3035TIP3    H1 9069   1.507   5.893   4.279
 3035TIP3    H2 9070   1.426   6.018   4.252
 3036TIP3   OH2 9071   0.432   3.181   3.820
 3036TIP3    H1 9072   0.358   3.132   3.854
 3036TIP3    H2 9073   0.399   3.223   3.740
 3037TIP3   OH2 9074   4.767   6.673   0.336
 3037TIP3    H1 9075   4.705   6.705   0.270
 3037TIP3    H2 9076   4.711   6.640   0.407
 3038TIP3   OH2 9077   0.211   5.028   2.053
 3038TIP3    H1 9078   0.294   4.986   2.073
 3038TIP3    H2 9079   0.232   5.121   2.047
 3039TIP3   OH2 9080   5.621   6.415   2.884
 3039TIP3    H1 9081   5.641   6.322   2.875
 3039TIP3    H2 9082   5.692   6.450   2.937
 3040TIP3   OH2 9083   3.178   6.276   1.815
 3040TIP3    H1 9084   3.200   6.331   1.740
 3040TIP3    H2 9085   3.173   6.337   1.888
 3041TIP3   OH2 9086   1.342   4.326   5.095
 3041TIP3    H1 9087   1.336   4.240   5.135
 3041TIP3    H2 9088   1.416   4.319   5.034
 3042TIP3   OH2 9089   2.399   2.224   3.797
 3042TIP3    H1 9090   2.325   2.280   3.823
 3042TIP3    H2 9091   2.358   2.141   3.774
 3043TIP3   OH2 9092   0.891   0.339   2.837
 3043TIP3    H1 9093   0.902   0.245   2.852
 3043TIP3    H2 9094   0.886   0.378   2.924
 3044TIP3   OH2 9095   4.690   1.881   0.367
 3044TIP3    H1 9096   4.662   1.887   0.276
 3044TIP3    H2 9097   4.783   1.862   0.362
 3045TIP3   OH2 9098   1.287   5.268   4.394
 3045TIP3    H1 9099   1.329   5.313   4.320
 3045TIP3    H2 9100   1.194   5.266   4.371
 3046TIP3   OH2 9101   4.583   1.898   4.584
 3046TIP3    H1 9102   4.606   1.990   4.598
 3046TIP3    H2 9103   4.495   1.890   4.621
 3047TIP3   OH2 9104   5.793   0.395   3.266
 3047TIP3    H1 9105   5.838   0.417   3.184
 3047TIP3    H2 9106   5.839   0.445   3.333
 3048TIP3   OH2 9107   3.872  -0.041   5.232
 3048TIP3    H1 9108   3.957  -0.052   5.189
 3048TIP3    H2 9109   3.884   0.033   5.291
 3049TIP3   OH2 9110   5.288   0.491   4.076
 3049TIP3    H1 9111   5.366   0.435   4.078
 3049TIP3    H2 9112   5.216   0.432   4.052
 3050TIP3   OH2 9113   4.931   2.036   5.620
 3050TIP3    H1 9114   5.004   1.973   5.625
 3050TIP3    H2 9115   4.966   2.108   5.568
 3051TIP3   OH2 9116   4.822   2.823   5.446
 3051TIP3    H1 9117   4.802   2.872   5.525
 3051TIP3    H2 9118   4.902   2.864   5.413
 3052TIP3   OH2 9119   3.471   2.858   3.076
 3052TIP3    H1 9120   3.503   2.771   3.101
 3052TIP3    H2 9121   3.379   2.845   3.054
 3053TIP3   OH2 9122   2.790   6.275   4.461
 3053TIP3    H1 9123   2.703   6.244   4.485
 3053TIP3    H2 9124   2.843   6.196   4.455
 3054TIP3   OH2 9125   3.132   1.542   1.655
 3054TIP3    H1 9126   3.111   1.552   1.748
 3054TIP3    H2 9127   3.082   1.610   1.611
 3055TIP3   OH2 9128   4.941   3.199   5.831
 3055TIP3    H1 9129   5.030   3.164   5.839
 3055TIP3    H2 9130   4.942   3.246   5.748
 3056TIP3   OH2 9131   5.632   5.672   2.042
 3056TIP3    H1 9132   5.603   5.672   2.134
 3056TIP3    H2 9133   5.551   5.679   1.992
 3057TIP3   OH2 9134   1.632   3.969   3.921
 3057TIP3    H1 9135   1.701   4.034   3.905
 3057TIP3    H2 9136   1.552   4.011   3.889
 3058TIP3   OH2 9137   4.724   5.735   1.482
 3058TIP3    H1 9138   4.738   5.830   1.485
 3058TIP3    H2 9139   4.629   5.724   1.484
 3059TIP3   OH2 9140   3.116   0.710   2.228
 3059TIP3    H1 9141   3.026   0.691   2.255
 3059TIP3    H2 9142   3.165   0.630   2.247
 3060TIP3   OH2 9143   5.731   0.714   3.688
 3060TIP3    H1 9144   5.815   0.747   3.720
 3060TIP3    H2 9145   5.688   0.789   3.648
 3061TIP3   OH2 9146   6.034   3.009   0.868
 3061TIP3    H1 9147   5.960   3.027   0.809
 3061TIP3    H2 9148   6.029   3.079   0.934
 3062TIP3   OH2 9149   4.148   3.186   2.596
 3062TIP3    H1 9150   4.058   3.173   2.626
 3062TIP3    H2 9151   4.166   3.112   2.538
 3063TIP3   OH2 9152   4.245   0.764   2.316
 3063TIP3    H1 9153   4.185   0.761   2.390
 3063TIP3    H2 9154   4.240   0.854   2.283
 3064TIP3   OH2 9155   3.608   3.182   2.136
 3064TIP3    H1 9156   3.686   3.237   2.131
 3064TIP3    H2 9157   3.562   3.198   2.053
 3065TIP3   OH2 9158   7.179   3.106   1.758
 3065TIP3    H1 9159   7.208   3.140   1.842
 3065TIP3    H2 9160   7.114   3.039   1.779
 3066TIP3   OH2 9161   1.477   0.578   0.295
 3066TIP3    H1 9162   1.455   0.646   0.232
 3066TIP3    H2 9163   1.573   0.576   0.296
 3067TIP3   OH2 9164   6.521   1.718   2.639
 3067TIP3    H1 9165   6.442   1.711   2.586
 3067TIP3    H2 9166   6.492   1.761   2.720
 3068TIP3   OH2 9167   2.549   1.938   2.532
 3068TIP3    H1 9168   2.608   1.927   2.457
 3068TIP3    H2 9169   2.517   1.849   2.550
 3069TIP3   OH2 9170   5.130   4.492   4.071
 3069TIP3    H1 9171   5.160   4.444   4.149
 3069TIP3    H2 9172   5.130   4.426   4.002
 3070TIP3   OH2 9173   1.127   0.920   5.216
 3070TIP3    H1 9174   1.172   0.975   5.280
 3070TIP3    H2 9175   1.198   0.876   5.169
 3071TIP3   OH2 9176   3.600   4.556   2.873
 3071TIP3    H1 9177   3.604   4.573   2.778
 3071TIP3    H2 9178   3.531   4.615   2.904
 3072TIP3   OH2 9179   0.146   0.774   3.050
 3072TIP3    H1 9180   0.113   0.837   2.986
 3072TIP3    H2 9181   0.236   0.756   3.023
 3073TIP3   OH2 9182   6.267   2.280   4.889
 3073TIP3    H1 9183   6.201   2.257   4.823
 3073TIP3    H2 9184   6.347   2.240   4.856
 3074TIP3   OH2 9185   1.636   1.623   0.070
 3074TIP3    H1 9186   1.685   1.616  -0.011
 3074TIP3    H2 9187   1.583   1.702   0.059
 3075TIP3   OH2 9188   0.053   2.545   2.631
 3075TIP3    H1 9189  -0.012   2.536   2.701
 3075TIP3    H2 9190   0.005   2.584   2.559
 3076TIP3   OH2 9191   5.102   0.404   3.158
 3076TIP3    H1 9192   5.193   0.406   3.128
 3076TIP3    H2 9193   5.054   0.453   3.091
 3077TIP3   OH2 9194   6.930   3.216   1.573
 3077TIP3    H1 9195   6.843   3.184   1.550
 3077TIP3    H2 9196   6.918   3.262   1.655
 3078TIP3   OH2 9197   5.546   6.125   0.006
 3078TIP3    H1 9198   5.563   6.207   0.052
 3078TIP3    H2 9199   5.634   6.093  -0.018
 3079TIP3   OH2 9200   1.990   1.069   5.788
 3079TIP3    H1 9201   1.936   1.069   5.708
 3079TIP3    H2 9202   2.043   1.149   5.780
 3080TIP3   OH2 9203   0.091   0.595   0.074
 3080TIP3    H1 9204   0.145   0.663   0.116
 3080TIP3    H2 9205   0.020   0.580   0.137
 3081TIP3   OH2 9206   6.045   0.217   3.083
 3081TIP3    H1 9207   6.014   0.307   3.074
 3081TIP3    H2 9208   6.127   0.225   3.132
 3082TIP3   OH2 9209   4.389   1.658   3.959
 3082TIP3    H1 9210   4.343   1.686   4.038
 3082TIP3    H2 9211   4.388   1.736   3.903
 3083TIP3   OH2 9212   3.866   4.024   2.835
 3083TIP3    H1 9213   3.893   4.015   2.926
 3083TIP3    H2 9214   3.811   3.946   2.819
 3084TIP3   OH2 9215   5.384   5.562   4.050
 3084TIP3    H1 9216   5.473   5.540   4.080
 3084TIP3    H2 9217   5.382   5.658   4.051
 3085TIP3   OH2 9218   3.605   1.430   2.433
 3085TIP3    H1 9219   3.629   1.518   2.406
 3085TIP3    H2 9220   3.571   1.388   2.354
 3086TIP3   OH2 9221   6.958   4.765   4.716
 3086TIP3    H1 9222   6.942   4.705   4.643
 3086TIP3    H2 9223   7.051   4.788   4.708
 3087TIP3   OH2 9224   1.945   3.058   0.054
 3087TIP3    H1 9225   1.890   3.043  -0.023
 3087TIP3    H2 9226   1.908   3.001   0.122
 3088TIP3   OH2 9227   1.796   0.829   0.996
 3088TIP3    H1 9228   1.782   0.923   0.994
 3088TIP3    H2 9229   1.742   0.794   0.926
 3089TIP3   OH2 9230   5.968   3.888   2.657
 3089TIP3    H1 9231   6.042   3.923   2.607
 3089TIP3    H2 9232   5.899   3.953   2.645
 3090TIP3   OH2 9233   1.114   4.902   1.792
 3090TIP3    H1 9234   1.167   4.922   1.714
 3090TIP3    H2 9235   1.094   4.987   1.830
 3091TIP3   OH2 9236   3.066   4.183   1.131
 3091TIP3    H1 9237   2.975   4.198   1.104
 3091TIP3    H2 9238   3.109   4.150   1.052
 3092TIP3   OH2 9239   4.685   5.264   2.905
 3092TIP3    H1 9240   4.612   5.279   2.844
 3092TIP3    H2 9241   4.645   5.221   2.980
 3093TIP3   OH2 9242   7.095   1.162   0.970
 3093TIP3    H1 9243   7.120   1.131   1.057
 3093TIP3    H2 9244   7.172   1.143   0.915
 3094TIP3   OH2 9245   6.471   2.875   1.856
 3094TIP3    H1 9246   6.554   2.829   1.870
 3094TIP3    H2 9247   6.410   2.805   1.833
 3095TIP3   OH2 9248   3.973   5.945   1.406
 3095TIP3    H1 9249   3.916   5.986   1.471
 3095TIP3    H2 9250   4.058   5.986   1.420
 3096TIP3   OH2 9251   6.416   4.976   1.457
 3096TIP3    H1 9252   6.406   5.063   1.419
 3096TIP3    H2 9253   6.339   4.965   1.514
 3097TIP3   OH2 9254   0.303   0.851   1.675
 3097TIP3    H1 9255   0.335   0.788   1.739
 3097TIP3    H2 9256   0.374   0.858   1.611
 3098TIP3   OH2 9257   3.857   3.976   3.858
 3098TIP3    H1 9258   3.797   4.031   3.809
 3098TIP3    H2 9259   3.934   4.031   3.873
 3099TIP3   OH2 9260   5.447   0.104   5.050
 3099TIP3    H1 9261   5.399   0.078   5.129
 3099TIP3    H2 9262   5.537   0.074   5.066
 3100TIP3   OH2 9263   0.500   3.258   2.083
 3100TIP3    H1 9264   0.586   3.219   2.064
 3100TIP3    H2 9265   0.521   3.342   2.124
 3101TIP3   OH2 9266   3.754   2.865   2.426
 3101TIP3    H1 9267   3.689   2.932   2.448
 3101TIP3    H2 9268   3.737   2.844   2.335
 3102TIP3   OH2 9269   4.618   1.749   1.173
 3102TIP3    H1 9270   4.689   1.792   1.221
 3102TIP3    H2 9271   4.603   1.668   1.222
 3103TIP3   OH2 9272   2.814   2.255   4.657
 3103TIP3    H1 9273   2.784   2.172   4.618
 3103TIP3    H2 9274   2.895   2.275   4.611
 3104TIP3   OH2 9275   5.406   0.922   1.892
 3104TIP3    H1 9276   5.313   0.945   1.895
 3104TIP3    H2 9277   5.451   0.997   1.933
 3105TIP3   OH2 9278   0.983   6.120   4.028
 3105TIP3    H1 9279   0.911   6.101   4.089
 3105TIP3    H2 9280   0.987   6.216   4.024
 3106TIP3   OH2 9281   3.634   5.011   2.183
 3106TIP3    H1 9282   3.620   4.922   2.216
 3106TIP3    H2 9283   3.683   4.998   2.101
 3107TIP3   OH2 9284   2.074   1.057   1.376
 3107TIP3    H1 9285   2.128   1.002   1.432
 3107TIP3    H2 9286   2.059   1.137   1.427
 3108TIP3   OH2 9287   0.132   3.200   0.699
 3108TIP3    H1 9288   0.071   3.144   0.650
 3108TIP3    H2 9289   0.152   3.149   0.778
 3109TIP3   OH2 9290   2.513   1.529   2.135
 3109TIP3    H1 9291   2.490   1.440   2.106
 3109TIP3    H2 9292   2.607   1.525   2.153
 3110TIP3   OH2 9293   4.349   4.150   3.655
 3110TIP3    H1 9294   4.333   4.128   3.563
 3110TIP3    H2 9295   4.331   4.244   3.660
 3111TIP3   OH2 9296   3.226   3.207   3.473
 3111TIP3    H1 9297   3.281   3.272   3.518
 3111TIP3    H2 9298   3.191   3.254   3.397
 3112TIP3   OH2 9299   1.570   6.261   2.371
 3112TIP3    H1 9300   1.619   6.213   2.304
 3112TIP3    H2 9301   1.490   6.288   2.328
 3113TIP3   OH2 9302   5.188   4.882   5.151
 3113TIP3    H1 9303   5.264   4.833   5.118
 3113TIP3    H2 9304   5.137   4.903   5.072
 3114TIP3   OH2 9305   1.110   4.819   4.546
 3114TIP3    H1 9306   1.133   4.815   4.639
 3114TIP3    H2 9307   1.028   4.770   4.540
 3115TIP3   OH2 9308   6.532   5.172   1.943
 3115TIP3    H1 9309   6.470   5.156   2.014
 3115TIP3    H2 9310   6.604   5.111   1.960
 3116TIP3   OH2 9311   1.483   6.766   4.351
 3116TIP3    H1 9312   1.535   6.710   4.408
 3116TIP3    H2 9313   1.425   6.706   4.305
 3117TIP3   OH2 9314   1.462   5.970   0.109
 3117TIP3    H1 9315   1.422   6.041   0.058
 3117TIP3    H2 9316   1.439   5.891   0.060
 3118TIP3   OH2 9317   3.497   3.915   0.075
 3118TIP3    H1 9318   3.439   3.982   0.111
 3118TIP3    H2 9319   3.585   3.949   0.090
 3119TIP3   OH2 9320   2.111   1.055   0.153
 3119TIP3    H1 9321   2.084   1.023   0.067
 3119TIP3    H2 9322   2.206   1.062   0.147
 3120TIP3   OH2 9323   3.400   3.369   2.966
 3120TIP3    H1 9324   3.429   3.278   2.968
 3120TIP3    H2 9325   3.384   3.391   3.058
 3121TIP3   OH2 9326   5.507   4.796   5.552
 3121TIP3    H1 9327   5.457   4.840   5.483
 3121TIP3    H2 9328   5.443   4.780   5.621
 3122TIP3   OH2 9329   4.113   0.137   2.355
 3122TIP3    H1 9330   4.107   0.218   2.407
 3122TIP3    H2 9331   4.060   0.155   2.278
 3123TIP3   OH2 9332   6.051   0.218   1.052
 3123TIP3    H1 9333   6.041   0.285   0.985
 3123TIP3    H2 9334   5.984   0.153   1.030
 3124TIP3   OH2 9335   4.711   4.198   3.808
 3124TIP3    H1 9336   4.783   4.138   3.786
 3124TIP3    H2 9337   4.754   4.274   3.845
 3125TIP3   OH2 9338   6.141   0.571   1.850
 3125TIP3    H1 9339   6.150   0.571   1.754
 3125TIP3    H2 9340   6.135   0.663   1.873
 3126TIP3   OH2 9341   5.558   0.580   3.879
 3126TIP3    H1 9342   5.649   0.569   3.854
 3126TIP3    H2 9343   5.517   0.495   3.862
 3127TIP3   OH2 9344   1.045   2.644   4.558
 3127TIP3    H1 9345   1.102   2.708   4.600
 3127TIP3    H2 9346   1.102   2.595   4.499
 3128TIP3   OH2 9347   5.986   1.833   0.160
 3128TIP3    H1 9348   5.891   1.834   0.153
 3128TIP3    H2 9349   6.008   1.742   0.178
 3129TIP3   OH2 9350   5.555   1.688   1.766
 3129TIP3    H1 9351   5.628   1.745   1.790
 3129TIP3    H2 9352   5.537   1.709   1.674
 3130TIP3   OH2 9353   2.364   6.312   4.431
 3130TIP3    H1 9354   2.419   6.372   4.381
 3130TIP3    H2 9355   2.303   6.276   4.367
 3131TIP3   OH2 9356   2.992   5.457   0.458
 3131TIP3    H1 9357   3.029   5.512   0.390
 3131TIP3    H2 9358   2.980   5.371   0.417
 3132TIP3   OH2 9359   5.949   1.173   1.466
 3132TIP3    H1 9360   5.857   1.149   1.475
 3132TIP3    H2 9361   5.970   1.150   1.375
 3133TIP3   OH2 9362   1.506   0.898   5.574
 3133TIP3    H1 9363   1.586   0.939   5.541
 3133TIP3    H2 9364   1.525   0.879   5.666
 3134TIP3   OH2 9365   1.350   1.865   0.664
 3134TIP3    H1 9366   1.384   1.924   0.597
 3134TIP3    H2 9367   1.269   1.906   0.693
 3135TIP3   OH2 9368   6.585   2.391   3.068
 3135TIP3    H1 9369   6.644   2.322   3.099
 3135TIP3    H2 9370   6.594   2.389   2.973
 3136TIP3   OH2 9371   0.325   5.913   2.721
 3136TIP3    H1 9372   0.407   5.937   2.678
 3136TIP3    H2 9373   0.257   5.949   2.664
 3137TIP3   OH2 9374   0.858   3.949   1.092
 3137TIP3    H1 9375   0.850   3.988   1.179
 3137TIP3    H2 9376   0.945   3.907   1.093
 3138TIP3   OH2 9377   6.039   1.751   2.252
 3138TIP3    H1 9378   6.016   1.671   2.300
 3138TIP3    H2 9379   6.042   1.724   2.161
 3139TIP3   OH2 9380   5.054   1.449   0.542
 3139TIP3    H1 9381   5.139   1.449   0.498
 3139TIP3    H2 9382   5.015   1.365   0.519
 3140TIP3   OH2 9383   3.048   3.947   2.239
 3140TIP3    H1 9384   3.082   3.979   2.155
 3140TIP3    H2 9385   2.988   4.015   2.268
 3141TIP3   OH2 9386   2.914   4.156   2.072
 3141TIP3    H1 9387   2.834   4.209   2.065
 3141TIP3    H2 9388   2.985   4.219   2.058
 3142TIP3   OH2 9389   3.123   1.284   1.560
 3142TIP3    H1 9390   3.215   1.257   1.561
 3142TIP3    H2 9391   3.101   1.299   1.652
 3143TIP3   OH2 9392   3.896   1.675   1.236
 3143TIP3    H1 9393   3.912   1.732   1.311
 3143TIP3    H2 9394   3.931   1.590   1.262
 3144TIP3   OH2 9395   4.693   2.901   2.831
 3144TIP3    H1 9396   4.654   2.844   2.897
 3144TIP3    H2 9397   4.726   2.842   2.763
 3145TIP3   OH2 9398   0.405   1.031   2.838
 3145TIP3    H1 9399   0.332   1.086   2.865
 3145TIP3    H2 9400   0.370   0.942   2.842
 3146TIP3   OH2 9401   7.112   2.027   0.199
 3146TIP3    H1 9402   7.152   2.096   0.252
 3146TIP3    H2 9403   7.132   1.946   0.247
 3147TIP3   OH2 9404   6.598   4.726   1.958
 3147TIP3    H1 9405   6.665   4.661   1.936
 3147TIP3    H2 9406   6.590   4.721   2.053
 3148TIP3   OH2 9407   3.725   4.665   3.594
 3148TIP3    H1 9408   3.742   4.581   3.552
 3148TIP3    H2 9409   3.703   4.642   3.685
 3149TIP3   OH2 9410   5.819   3.242   5.672
 3149TIP3    H1 9411   5.857   3.329   5.658
 3149TIP3    H2 9412   5.848   3.191   5.597
 3150TIP3   OH2 9413   6.741   5.895   4.166
 3150TIP3    H1 9414   6.703   5.979   4.140
 3150TIP3    H2 9415   6.668   5.847   4.205
 3151TIP3   OH2 9416   5.757   4.397   0.443
 3151TIP3    H1 9417   5.835   4.351   0.410
 3151TIP3    H2 9418   5.781   4.423   0.532
 3152TIP3   OH2 9419   0.305   6.008   2.149
 3152TIP3    H1 9420   0.327   5.926   2.193
 3152TIP3    H2 9421   0.213   6.024   2.172
 3153TIP3   OH2 9422   4.158   2.561   5.787
 3153TIP3    H1 9423   4.241   2.571   5.741
 3153TIP3    H2 9424   4.167   2.618   5.864
 3154TIP3   OH2 9425   2.025   2.517   1.363
 3154TIP3    H1 9426   2.023   2.463   1.442
 3154TIP3    H2 9427   2.078   2.593   1.388
 3155TIP3   OH2 9428   3.196   0.973   5.570
 3155TIP3    H1 9429   3.255   1.010   5.635
 3155TIP3    H2 9430   3.109   1.003   5.598
 3156TIP3   OH2 9431   6.912   2.300   0.241
 3156TIP3    H1 9432   6.852   2.351   0.296
 3156TIP3    H2 9433   6.992   2.294   0.292
 3157TIP3   OH2 9434   5.022   5.549   5.785
 3157TIP3    H1 9435   4.976   5.586   5.710
 3157TIP3    H2 9436   5.108   5.524   5.751
 3158TIP3   OH2 9437   7.095   3.364   2.277
 3158TIP3    H1 9438   7.136   3.441   2.317
 3158TIP3    H2 9439   7.168   3.303   2.263
 3159TIP3   OH2 9440   0.468   4.462   3.081
 3159TIP3    H1 9441   0.548   4.425   3.044
 3159TIP3    H2 9442   0.478   4.557   3.070
 3160TIP3   OH2 9443   0.396   0.834   2.407
 3160TIP3    H1 9444   0.443   0.780   2.343
 3160TIP3    H2 9445   0.404   0.785   2.489
 3161TIP3   OH2 9446   2.919   2.131   0.391
 3161TIP3    H1 9447   2.933   2.192   0.463
 3161TIP3    H2 9448   2.881   2.184   0.321
 3162TIP3   OH2 9449   5.087   2.838   3.164
 3162TIP3    H1 9450   5.171   2.813   3.124
 3162TIP3    H2 9451   5.028   2.849   3.089
 3163TIP3   OH2 9452   7.202   3.750   4.464
 3163TIP3    H1 9453   7.207   3.710   4.551
 3163TIP3    H2 9454   7.108   3.753   4.445
 3164TIP3   OH2 9455   2.893   3.009   1.427
 3164TIP3    H1 9456   2.878   2.990   1.519
 3164TIP3    H2 9457   2.805   3.019   1.390
 3165TIP3   OH2 9458   0.782   3.643   5.153
 3165TIP3    H1 9459   0.713   3.579   5.135
 3165TIP3    H2 9460   0.765   3.715   5.092
 3166TIP3   OH2 9461   0.613   5.193   1.865
 3166TIP3    H1 9462   0.554   5.123   1.840
 3166TIP3    H2 9463   0.555   5.264   1.893
 3167TIP3   OH2 9464   6.633   6.754   2.177
 3167TIP3    H1 9465   6.664   6.670   2.142
 3167TIP3    H2 9466   6.538   6.748   2.172
 3168TIP3   OH2 9467   2.735   2.726   1.294
 3168TIP3    H1 9468   2.827   2.753   1.288
 3168TIP3    H2 9469   2.701   2.772   1.370
 3169TIP3   OH2 9470   5.192   4.403   0.181
 3169TIP3    H1 9471   5.158   4.337   0.122
 3169TIP3    H2 9472   5.249   4.354   0.241
 3170TIP3   OH2 9473   6.885   4.538   2.430
 3170TIP3    H1 9474   6.818   4.606   2.422
 3170TIP3    H2 9475   6.894   4.524   2.524
 3171TIP3   OH2 9476   2.233   1.979   1.574
 3171TIP3    H1 9477   2.280   2.019   1.648
 3171TIP3    H2 9478   2.289   1.997   1.498
 3172TIP3   OH2 9479   4.842   5.826   0.588
 3172TIP3    H1 9480   4.846   5.766   0.514
 3172TIP3    H2 9481   4.814   5.909   0.550
 3173TIP3   OH2 9482   4.044   2.680   0.807
 3173TIP3    H1 9483   4.069   2.589   0.827
 3173TIP3    H2 9484   4.127   2.724   0.788
 3174TIP3   OH2 9485   4.127   1.833   4.405
 3174TIP3    H1 9486   4.144   1.791   4.489
 3174TIP3    H2 9487   4.033   1.823   4.391
 3175TIP3   OH2 9488   6.406   5.178   2.760
 3175TIP3    H1 9489   6.435   5.257   2.716
 3175TIP3    H2 9490   6.321   5.158   2.720
 3176TIP3   OH2 9491   5.671   1.269   4.914
 3176TIP3    H1 9492   5.656   1.360   4.941
 3176TIP3    H2 9493   5.740   1.238   4.972
 3177TIP3   OH2 9494   1.654   5.870   1.066
 3177TIP3    H1 9495   1.638   5.814   1.142
 3177TIP3    H2 9496   1.569   5.876   1.023
 3178TIP3   OH2 9497   5.913   3.441   0.990
 3178TIP3    H1 9498   5.885   3.506   0.925
 3178TIP3    H2 9499   5.886   3.478   1.074
 3179TIP3   OH2 9500   1.520   3.431   0.817
 3179TIP3    H1 9501   1.499   3.423   0.910
 3179TIP3    H2 9502   1.615   3.443   0.814
 3180TIP3   OH2 9503   3.760   4.387   4.918
 3180TIP3    H1 9504   3.730   4.392   5.009
 3180TIP3    H2 9505   3.820   4.313   4.916
 3181TIP3   OH2 9506   4.947   2.247   3.123
 3181TIP3    H1 9507   4.977   2.261   3.213
 3181TIP3    H2 9508   5.016   2.194   3.083
 3182TIP3   OH2 9509   5.208   5.358   2.998
 3182TIP3    H1 9510   5.211   5.392   3.088
 3182TIP3    H2 9511   5.139   5.291   3.000
 3183TIP3   OH2 9512   4.231   6.420   0.329
 3183TIP3    H1 9513   4.294   6.438   0.258
 3183TIP3    H2 9514   4.209   6.327   0.317
 3184TIP3   OH2 9515   1.604   5.812   0.703
 3184TIP3    H1 9516   1.657   5.881   0.664
 3184TIP3    H2 9517   1.514   5.844   0.696
 3185TIP3   OH2 9518   6.305   5.775   3.927
 3185TIP3    H1 9519   6.274   5.696   3.970
 3185TIP3    H2 9520   6.307   5.841   3.997
 3186TIP3   OH2 9521   2.464   3.336   3.838
 3186TIP3    H1 9522   2.428   3.347   3.926
 3186TIP3    H2 9523   2.455   3.243   3.820
 3187TIP3   OH2 9524   0.449   5.352   1.190
 3187TIP3    H1 9525   0.528   5.326   1.142
 3187TIP3    H2 9526   0.376   5.320   1.137
 3188TIP3   OH2 9527   2.012   4.792   0.153
 3188TIP3    H1 9528   1.921   4.764   0.145
 3188TIP3    H2 9529   2.010   4.886   0.135
 3189TIP3   OH2 9530   2.546   0.162   4.131
 3189TIP3    H1 9531   2.470   0.220   4.126
 3189TIP3    H2 9532   2.573   0.150   4.040
 3190TIP3   OH2 9533   5.904   4.706   5.285
 3190TIP3    H1 9534   5.867   4.749   5.362
 3190TIP3    H2 9535   5.969   4.645   5.319
 3191TIP3   OH2 9536   2.478   0.836   1.673
 3191TIP3    H1 9537   2.547   0.902   1.680
 3191TIP3    H2 9538   2.525   0.755   1.651
 3192TIP3   OH2 9539   3.167   1.923   4.788
 3192TIP3    H1 9540   3.213   1.972   4.720
 3192TIP3    H2 9541   3.224   1.929   4.865
 3193TIP3   OH2 9542   2.958   2.930   5.630
 3193TIP3    H1 9543   3.033   2.978   5.596
 3193TIP3    H2 9544   2.886   2.953   5.572
 3194TIP3   OH2 9545   0.173   5.413   5.643
 3194TIP3    H1 9546   0.077   5.404   5.639
 3194TIP3    H2 9547   0.206   5.327   5.616
 3195TIP3   OH2 9548   5.342   5.161   4.371
 3195TIP3    H1 9549   5.434   5.176   4.393
 3195TIP3    H2 9550   5.300   5.142   4.455
 3196TIP3   OH2 9551   7.164   6.622   3.620
 3196TIP3    H1 9552   7.083   6.661   3.588
 3196TIP3    H2 9553   7.164   6.638   3.714
 3197TIP3   OH2 9554   5.747   1.510   5.904
 3197TIP3    H1 9555   5.775   1.585   5.851
 3197TIP3    H2 9556   5.725   1.548   5.989
 3198TIP3   OH2 9557   6.237   2.913   5.334
 3198TIP3    H1 9558   6.304   2.909   5.266
 3198TIP3    H2 9559   6.200   3.001   5.326
 3199TIP3   OH2 9560   0.013   2.722   3.998
 3199TIP3    H1 9561  -0.053   2.790   4.012
 3199TIP3    H2 9562  -0.020   2.646   4.046
 3200TIP3   OH2 9563   3.358   2.544   1.836
 3200TIP3    H1 9564   3.324   2.563   1.924
 3200TIP3    H2 9565   3.452   2.538   1.848
 3201TIP3   OH2 9566   2.812   0.703   0.350
 3201TIP3    H1 9567   2.721   0.696   0.377
 3201TIP3    H2 9568   2.808   0.743   0.263
 3202TIP3   OH2 9569   2.955   1.986   4.934
 3202TIP3    H1 9570   3.015   1.972   4.861
 3202TIP3    H2 9571   2.940   1.899   4.971
 3203TIP3   OH2 9572   0.900   2.892   3.531
 3203TIP3    H1 9573   0.898   2.917   3.439
 3203TIP3    H2 9574   0.993   2.891   3.554
 3204TIP3   OH2 9575   0.572   5.789   4.694
 3204TIP3    H1 9576   0.666   5.790   4.679
 3204TIP3    H2 9577   0.562   5.771   4.787
 3205TIP3   OH2 9578   2.322   1.711   2.128
 3205TIP3    H1 9579   2.401   1.660   2.142
 3205TIP3    H2 9580   2.252   1.660   2.168
 3206TIP3   OH2 9581   2.307   3.135   3.995
 3206TIP3    H1 9582   2.283   3.120   3.904
 3206TIP3    H2 9583   2.285   3.053   4.040
 3207TIP3   OH2 9584   0.317   0.399   0.703
 3207TIP3    H1 9585   0.340   0.325   0.759
 3207TIP3    H2 9586   0.401   0.435   0.675
 3208TIP3   OH2 9587   5.270   2.081   5.387
 3208TIP3    H1 9588   5.302   2.083   5.477
 3208TIP3    H2 9589   5.251   2.173   5.366
 3209TIP3   OH2 9590   6.966   0.026   0.765
 3209TIP3    H1 9591   6.906  -0.048   0.776
 3209TIP3    H2 9592   6.991   0.023   0.673
 3210TIP3   OH2 9593   6.381   3.798   5.616
 3210TIP3    H1 9594   6.365   3.841   5.532
 3210TIP3    H2 9595   6.348   3.859   5.682
 3211TIP3   OH2 9596   4.223   4.051   0.288
 3211TIP3    H1 9597   4.138   4.020   0.317
 3211TIP3    H2 9598   4.225   4.033   0.194
 3212TIP3   OH2 9599   5.669   0.533   2.927
 3212TIP3    H1 9600   5.596   0.479   2.958
 3212TIP3    H2 9601   5.628   0.603   2.876
 3213TIP3   OH2 9602   2.306   4.197   0.569
 3213TIP3    H1 9603   2.388   4.152   0.587
 3213TIP3    H2 9604   2.258   4.138   0.511
 3214TIP3   OH2 9605   6.768   1.014   4.004
 3214TIP3    H1 9606   6.674   0.994   3.998
 3214TIP3    H2 9607   6.774   1.105   3.976
 3215TIP3   OH2 9608   2.483   6.067   0.124
 3215TIP3    H1 9609   2.428   6.117   0.063
 3215TIP3    H2 9610   2.572   6.095   0.104
 3216TIP3   OH2 9611   0.559   3.248   3.538
 3216TIP3    H1 9612   0.493   3.316   3.524
 3216TIP3    H2 9613   0.580   3.215   3.451
 3217TIP3   OH2 9614   4.079   3.205   0.638
 3217TIP3    H1 9615   4.166   3.205   0.678
 3217TIP3    H2 9616   4.096   3.210   0.544
 3218TIP3   OH2 9617   1.930   0.674   5.892
 3218TIP3    H1 9618   1.886   0.759   5.897
 3218TIP3    H2 9619   1.865   0.615   5.855
 3219TIP3   OH2 9620   2.742   5.396   3.400
 3219TIP3    H1 9621   2.669   5.441   3.359
 3219TIP3    H2 9622   2.812   5.399   3.334
 3220TIP3   OH2 9623   0.138   3.387   5.353
 3220TIP3    H1 9624   0.220   3.338   5.361
 3220TIP3    H2 9625   0.074   3.321   5.327
 3221TIP3   OH2 9626   4.834   6.566   2.980
 3221TIP3    H1 9627   4.907   6.628   2.985
 3221TIP3    H2 9628   4.853   6.514   2.902
 3222TIP3   OH2 9629   4.575   6.262   0.066
 3222TIP3    H1 9630   4.534   6.177   0.049
 3222TIP3    H2 9631   4.645   6.268   0.002
 3223TIP3   OH2 9632   2.358   3.994   1.099
 3223TIP3    H1 9633   2.333   4.074   1.145
 3223TIP3    H2 9634   2.429   3.957   1.152
 3224TIP3   OH2 9635   5.578   4.879   3.567
 3224TIP3    H1 9636   5.540   4.831   3.493
 3224TIP3    H2 9637   5.649   4.822   3.597
 3225TIP3   OH2 9638   1.011   4.406   4.429
 3225TIP3    H1 9639   0.975   4.318   4.430
 3225TIP3    H2 9640   0.957   4.453   4.365
 3226TIP3   OH2 9641   3.486   4.193   0.098
 3226TIP3    H1 9642   3.405   4.163   0.058
 3226TIP3    H2 9643   3.493   4.285   0.072
 3227TIP3   OH2 9644   3.925   6.505   5.877
 3227TIP3    H1 9645   3.893   6.461   5.798
 3227TIP3    H2 9646   3.954   6.434   5.934
 3228TIP3   OH2 9647   6.296   5.991   2.898
 3228TIP3    H1 9648   6.370   5.999   2.837
 3228TIP3    H2 9649   6.252   5.910   2.871
 3229TIP3   OH2 9650   3.322   5.944   0.823
 3229TIP3    H1 9651   3.278   5.899   0.895
 3229TIP3    H2 9652   3.400   5.891   0.805
 3230TIP3   OH2 9653   5.812   5.072   2.028
 3230TIP3    H1 9654   5.827   5.069   1.933
 3230TIP3    H2 9655   5.881   5.130   2.061
 3231TIP3   OH2 9656   2.407   6.659   5.682
 3231TIP3    H1 9657   2.442   6.730   5.628
 3231TIP3    H2 9658   2.315   6.651   5.654
 3232TIP3   OH2 9659   5.032   1.180   0.432
 3232TIP3    H1 9660   4.980   1.130   0.494
 3232TIP3    H2 9661   5.005   1.147   0.346
 3233TIP3   OH2 9662   4.949   5.753   3.104
 3233TIP3    H1 9663   4.912   5.672   3.069
 3233TIP3    H2 9664   4.926   5.820   3.038
 3234TIP3   OH2 9665   3.618   0.965   1.972
 3234TIP3    H1 9666   3.626   1.003   1.885
 3234TIP3    H2 9667   3.592   1.038   2.028
 3235TIP3   OH2 9668   4.492   0.316   4.400
 3235TIP3    H1 9669   4.511   0.385   4.463
 3235TIP3    H2 9670   4.572   0.307   4.348
 3236TIP3   OH2 9671   1.984   3.072   3.634
 3236TIP3    H1 9672   1.914   3.114   3.684
 3236TIP3    H2 9673   1.982   2.981   3.663
 3237TIP3   OH2 9674   2.523   4.155   0.930
 3237TIP3    H1 9675   2.479   4.233   0.965
 3237TIP3    H2 9676   2.471   4.082   0.962
 3238TIP3   OH2 9677   2.780   6.699   3.972
 3238TIP3    H1 9678   2.750   6.704   3.881
 3238TIP3    H2 9679   2.865   6.656   3.967
 3239TIP3   OH2 9680   2.075   3.263   3.093
 3239TIP3    H1 9681   2.019   3.190   3.067
 3239TIP3    H2 9682   2.143   3.267   3.025
 3240TIP3   OH2 9683   6.197   6.729   5.575
 3240TIP3    H1 9684   6.242   6.712   5.493
 3240TIP3    H2 9685   6.168   6.820   5.568
 3241TIP3   OH2 9686   3.868   5.635   5.754
 3241TIP3    H1 9687   3.776   5.658   5.760
 3241TIP3    H2 9688   3.883   5.574   5.826
 3242TIP3   OH2 9689   7.040   4.855   3.509
 3242TIP3    H1 9690   7.048   4.938   3.462
 3242TIP3    H2 9691   6.990   4.798   3.450
 3243TIP3   OH2 9692   6.887   2.477   0.980
 3243TIP3    H1 9693   6.951   2.538   1.018
 3243TIP3    H2 9694   6.913   2.471   0.888
 3244TIP3   OH2 9695   2.953   5.537   0.725
 3244TIP3    H1 9696   2.987   5.524   0.636
 3244TIP3    H2 9697   2.860   5.513   0.718
 3245TIP3   OH2 9698   4.592   4.059   4.542
 3245TIP3    H1 9699   4.605   4.072   4.636
 3245TIP3    H2 9700   4.672   4.092   4.502
 3246TIP3   OH2 9701   4.564   4.659   3.490
 3246TIP3    H1 9702   4.583   4.590   3.554
 3246TIP3    H2 9703   4.564   4.740   3.541
 3247TIP3   OH2 9704   1.824   4.784   1.918
 3247TIP3    H1 9705   1.742   4.810   1.958
 3247TIP3    H2 9706   1.836   4.844   1.845
 3248TIP3   OH2 9707   6.974   0.363   0.582
 3248TIP3    H1 9708   6.899   0.337   0.636
 3248TIP3    H2 9709   7.013   0.280   0.553
 3249TIP3   OH2 9710   3.318   2.347   1.662
 3249TIP3    H1 9711   3.405   2.341   1.621
 3249TIP3    H2 9712   3.323   2.425   1.717
 3250TIP3   OH2 9713   6.781   3.340   4.173
 3250TIP3    H1 9714   6.735   3.318   4.093
 3250TIP3    H2 9715   6.772   3.435   4.180
 3251TIP3   OH2 9716   1.690   2.391   0.661
 3251TIP3    H1 9717   1.653   2.357   0.742
 3251TIP3    H2 9718   1.755   2.456   0.689
 3252TIP3   OH2 9719   1.115   4.576   5.742
 3252TIP3    H1 9720   1.122   4.583   5.647
 3252TIP3    H2 9721   1.166   4.497   5.763
 3253TIP3   OH2 9722   7.199   5.837   3.983
 3253TIP3    H1 9723   7.144   5.879   3.918
 3253TIP3    H2 9724   7.190   5.743   3.966
 3254TIP3   OH2 9725   3.537   5.375   2.848
 3254TIP3    H1 9726   3.585   5.457   2.835
 3254TIP3    H2 9727   3.605   5.307   2.845
 3255TIP3   OH2 9728   2.909   0.647   0.828
 3255TIP3    H1 9729   2.974   0.579   0.847
 3255TIP3    H2 9730   2.879   0.627   0.739
 3256TIP3   OH2 9731  -0.006   5.632   1.969
 3256TIP3    H1 9732  -0.005   5.543   1.932
 3256TIP3    H2 9733   0.053   5.681   1.912
 3257TIP3   OH2 9734   1.841   6.651   4.675
 3257TIP3    H1 9735   1.814   6.560   4.667
 3257TIP3    H2 9736   1.813   6.678   4.762
 3258TIP3   OH2 9737   2.325   2.948   1.117
 3258TIP3    H1 9738   2.305   3.007   1.190
 3258TIP3    H2 9739   2.360   2.869   1.158
 3259TIP3   OH2 9740   2.254   6.351   3.939
 3259TIP3    H1 9741   2.339   6.332   3.978
 3259TIP3    H2 9742   2.274   6.378   3.850
 3260TIP3   OH2 9743   2.592   1.224   5.872
 3260TIP3    H1 9744   2.602   1.157   5.803
 3260TIP3    H2 9745   2.679   1.232   5.910
 3261TIP3   OH2 9746   6.209   5.509   0.780
 3261TIP3    H1 9747   6.126   5.461   0.780
 3261TIP3    H2 9748   6.274   5.445   0.753
 3262TIP3   OH2 9749   0.440   5.621   4.540
 3262TIP3    H1 9750   0.476   5.692   4.594
 3262TIP3    H2 9751   0.431   5.547   4.600
 3263TIP3   OH2 9752   3.711   1.536   3.304
 3263TIP3    H1 9753   3.657   1.543   3.225
 3263TIP3    H2 9754   3.791   1.583   3.283
 3264TIP3   OH2 9755   3.684   4.394   5.170
 3264TIP3    H1 9756   3.774   4.389   5.204
 3264TIP3    H2 9757   3.633   4.337   5.228
 3265TIP3   OH2 9758   5.541   5.890   4.360
 3265TIP3    H1 9759   5.541   5.855   4.449
 3265TIP3    H2 9760   5.450   5.914   4.343
 3266TIP3   OH2 9761   1.319   1.227   3.686
 3266TIP3    H1 9762   1.324   1.211   3.592
 3266TIP3    H2 9763   1.238   1.185   3.713
 3267TIP3   OH2 9764   1.962   5.774   5.478
 3267TIP3    H1 9765   2.036   5.836   5.477
 3267TIP3    H2 9766   1.925   5.784   5.566
 3268TIP3   OH2 9767   3.632   6.367   0.257
 3268TIP3    H1 9768   3.585   6.352   0.339
 3268TIP3    H2 9769   3.668   6.281   0.234
 3269TIP3   OH2 9770   6.110   6.547   5.248
 3269TIP3    H1 9771   6.129   6.543   5.154
 3269TIP3    H2 9772   6.178   6.604   5.284
 3270TIP3   OH2 9773   4.488   6.727   0.357
 3270TIP3    H1 9774   4.497   6.646   0.308
 3270TIP3    H2 9775   4.404   6.717   0.403
 3271TIP3   OH2 9776   4.923   5.532   1.782
 3271TIP3    H1 9777   4.848   5.485   1.744
 3271TIP3    H2 9778   4.945   5.483   1.860
 3272TIP3   OH2 9779   0.517   1.927   0.114
 3272TIP3    H1 9780   0.527   1.999   0.053
 3272TIP3    H2 9781   0.576   1.859   0.080
 3273TIP3   OH2 9782   6.040   5.502   5.738
 3273TIP3    H1 9783   5.970   5.540   5.790
 3273TIP3    H2 9784   5.998   5.436   5.684
 3274TIP3   OH2 9785   2.154   6.775   4.898
 3274TIP3    H1 9786   2.114   6.846   4.848
 3274TIP3    H2 9787   2.111   6.696   4.865
 3275TIP3   OH2 9788   3.965   3.957   5.634
 3275TIP3    H1 9789   3.968   4.017   5.709
 3275TIP3    H2 9790   4.041   3.900   5.646
 3276TIP3   OH2 9791   6.185   1.159   4.199
 3276TIP3    H1 9792   6.269   1.144   4.242
 3276TIP3    H2 9793   6.206   1.175   4.107
 3277TIP3   OH2 9794   5.884   0.250   5.689
 3277TIP3    H1 9795   5.814   0.244   5.755
 3277TIP3    H2 9796   5.948   0.184   5.716
 3278TIP3   OH2 9797   6.358   4.836   0.402
 3278TIP3    H1 9798   6.431   4.793   0.446
 3278TIP3    H2 9799   6.316   4.888   0.471
 3279TIP3   OH2 9800   1.416   0.288   1.971
 3279TIP3    H1 9801   1.477   0.344   1.921
 3279TIP3    H2 9802   1.442   0.301   2.062
 3280TIP3   OH2 9803   1.102   5.313   5.046
 3280TIP3    H1 9804   1.110   5.226   5.086
 3280TIP3    H2 9805   1.026   5.305   4.988
 3281TIP3   OH2 9806   4.473   4.741   0.864
 3281TIP3    H1 9807   4.556   4.757   0.909
 3281TIP3    H2 9808   4.418   4.816   0.888
 3282TIP3   OH2 9809   0.093   3.047   2.794
 3282TIP3    H1 9810   0.001   3.021   2.799
 3282TIP3    H2 9811   0.106   3.104   2.870
 3283TIP3   OH2 9812   6.062   5.687   5.371
 3283TIP3    H1 9813   6.005   5.752   5.412
 3283TIP3    H2 9814   6.149   5.726   5.375
 3284TIP3   OH2 9815   3.296   4.055   4.654
 3284TIP3    H1 9816   3.309   4.038   4.748
 3284TIP3    H2 9817   3.266   3.971   4.619
 3285TIP3   OH2 9818   2.048   2.141   1.232
 3285TIP3    H1 9819   2.111   2.212   1.220
 3285TIP3    H2 9820   2.093   2.063   1.201
 3286TIP3   OH2 9821   1.796   3.253   2.703
 3286TIP3    H1 9822   1.783   3.168   2.660
 3286TIP3    H2 9823   1.715   3.301   2.686
 3287TIP3   OH2 9824   3.268   0.857   0.715
 3287TIP3    H1 9825   3.279   0.889   0.625
 3287TIP3    H2 9826   3.280   0.763   0.708
 3288TIP3   OH2 9827   0.222   1.232   1.085
 3288TIP3    H1 9828   0.184   1.150   1.052
 3288TIP3    H2 9829   0.158   1.265   1.147
 3289TIP3   OH2 9830   3.909   3.465   5.603
 3289TIP3    H1 9831   3.833   3.431   5.556
 3289TIP3    H2 9832   3.909   3.418   5.686
 3290TIP3   OH2 9833   0.083   1.499   2.505
 3290TIP3    H1 9834  -0.001   1.474   2.467
 3290TIP3    H2 9835   0.147   1.478   2.438
 3291TIP3   OH2 9836   7.244   1.301   0.021
 3291TIP3    H1 9837   7.192   1.326   0.097
 3291TIP3    H2 9838   7.203   1.220  -0.011
 3292TIP3   OH2 9839   5.897   0.551   3.494
 3292TIP3    H1 9840   5.855   0.476   3.537
 3292TIP3    H2 9841   5.871   0.626   3.547
 3293TIP3   OH2 9842   2.112   2.793   0.874
 3293TIP3    H1 9843   2.178   2.731   0.844
 3293TIP3    H2 9844   2.075   2.753   0.952
 3294TIP3   OH2 9845   1.968   0.474   3.623
 3294TIP3    H1 9846   2.016   0.442   3.547
 3294TIP3    H2 9847   2.014   0.554   3.648
 3295TIP3   OH2 9848   0.755   2.647   2.646
 3295TIP3    H1 9849   0.715   2.621   2.563
 3295TIP3    H2 9850   0.828   2.704   2.621
 3296TIP3   OH2 9851   3.190   0.167   3.522
 3296TIP3    H1 9852   3.159   0.188   3.434
 3296TIP3    H2 9853   3.116   0.185   3.579
 3297TIP3   OH2 9854   3.948   5.314   2.653
 3297TIP3    H1 9855   3.858   5.332   2.627
 3297TIP3    H2 9856   3.954   5.346   2.743
 3298TIP3   OH2 9857   1.672   2.562   0.040
 3298TIP3    H1 9858   1.626   2.642   0.017
 3298TIP3    H2 9859   1.659   2.553   0.134
 3299TIP3   OH2 9860   1.878   0.029   0.373
 3299TIP3    H1 9861   1.879  -0.011   0.460
 3299TIP3    H2 9862   1.915   0.116   0.387
 3300TIP3   OH2 9863   1.994   2.479   4.796
 3300TIP3    H1 9864   1.915   2.528   4.819
 3300TIP3    H2 9865   2.039   2.465   4.879
 3301TIP3   OH2 9866   5.643   0.706   5.730
 3301TIP3    H1 9867   5.654   0.623   5.776
 3301TIP3    H2 9868   5.730   0.726   5.695
 3302TIP3   OH2 9869   3.789   5.924   3.598
 3302TIP3    H1 9870   3.841   5.893   3.673
 3302TIP3    H2 9871   3.852   5.931   3.527
 3303TIP3   OH2 9872   2.812   0.260   1.432
 3303TIP3    H1 9873   2.767   0.229   1.353
 3303TIP3    H2 9874   2.864   0.335   1.402
 3304TIP3   OH2 9875   0.510   0.628   0.832
 3304TIP3    H1 9876   0.517   0.720   0.856
 3304TIP3    H2 9877   0.580   0.585   0.882
 3305TIP3   OH2 9878   4.124   5.472   4.568
 3305TIP3    H1 9879   4.193   5.503   4.509
 3305TIP3    H2 9880   4.049   5.456   4.511
 3306TIP3   OH2 9881   2.354   3.307   1.827
 3306TIP3    H1 9882   2.325   3.252   1.753
 3306TIP3    H2 9883   2.385   3.387   1.786
 3307TIP3   OH2 9884   3.319   6.547   4.474
 3307TIP3    H1 9885   3.407   6.523   4.448
 3307TIP3    H2 9886   3.332   6.612   4.543
 3308TIP3   OH2 9887   7.076   6.223   3.058
 3308TIP3    H1 9888   7.089   6.170   3.137
 3308TIP3    H2 9889   6.982   6.216   3.040
 3309TIP3   OH2 9890   1.154   0.471   2.219
 3309TIP3    H1 9891   1.112   0.513   2.145
 3309TIP3    H2 9892   1.213   0.406   2.179
 3310TIP3   OH2 9893   6.011   4.961   0.561
 3310TIP3    H1 9894   5.990   4.875   0.524
 3310TIP3    H2 9895   6.099   4.950   0.597
 3311TIP3   OH2 9896   0.021   4.847   4.696
 3311TIP3    H1 9897   0.070   4.820   4.619
 3311TIP3    H2 9898   0.086   4.888   4.753
 3312TIP3   OH2 9899   2.571   0.449   3.168
 3312TIP3    H1 9900   2.559   0.362   3.207
 3312TIP3    H2 9901   2.492   0.464   3.116
 3313TIP3   OH2 9902   4.733   0.631   1.640
 3313TIP3    H1 9903   4.726   0.671   1.554
 3313TIP3    H2 9904   4.806   0.570   1.633
 3314TIP3   OH2 9905   6.720   3.360   0.495
 3314TIP3    H1 9906   6.773   3.311   0.433
 3314TIP3    H2 9907   6.771   3.440   0.512
 3315TIP3   OH2 9908   0.359   4.635   0.597
 3315TIP3    H1 9909   0.273   4.594   0.588
 3315TIP3    H2 9910   0.414   4.568   0.638
 3316TIP3   OH2 9911   4.893   4.477   1.501
 3316TIP3    H1 9912   4.967   4.518   1.456
 3316TIP3    H2 9913   4.926   4.458   1.589
 3317TIP3   OH2 9914   2.075   2.006   2.093
 3317TIP3    H1 9915   2.049   1.918   2.120
 3317TIP3    H2 9916   2.119   1.994   2.009
 3318TIP3   OH2 9917   3.201   0.889   1.413
 3318TIP3    H1 9918   3.149   0.821   1.370
 3318TIP3    H2 9919   3.281   0.844   1.439
 3319TIP3   OH2 9920   6.788   0.096   4.337
 3319TIP3    H1 9921   6.723   0.096   4.408
 3319TIP3    H2 9922   6.748   0.150   4.269
 3320TIP3   OH2 9923   6.817   4.356   0.253
 3320TIP3    H1 9924   6.904   4.390   0.272
 3320TIP3    H2 9925   6.819   4.338   0.159
 3321TIP3   OH2 9926   6.987   3.192   3.928
 3321TIP3    H1 9927   7.016   3.276   3.962
 3321TIP3    H2 9928   6.929   3.214   3.855
 3322TIP3   OH2 9929   2.623   6.433   2.642
 3322TIP3    H1 9930   2.682   6.509   2.641
 3322TIP3    H2 9931   2.618   6.406   2.551
 3323TIP3   OH2 9932   7.218   4.512   5.354
 3323TIP3    H1 9933   7.150   4.571   5.323
 3323TIP3    H2 9934   7.226   4.531   5.447
 3324TIP3   OH2 9935   0.563   3.156   5.366
 3324TIP3    H1 9936   0.529   3.219   5.430
 3324TIP3    H2 9937   0.656   3.179   5.358
 3325TIP3   OH2 9938   5.054   4.953   1.264
 3325TIP3    H1 9939   5.025   4.944   1.355
 3325TIP3    H2 9940   5.149   4.963   1.269
 3326TIP3   OH2 9941   4.291   4.979   4.014
 3326TIP3    H1 9942   4.292   5.014   4.103
 3326TIP3    H2 9943   4.305   4.885   4.025
 3327TIP3   OH2 9944   3.212   2.306   0.834
 3327TIP3    H1 9945   3.234   2.398   0.820
 3327TIP3    H2 9946   3.119   2.306   0.852
 3328TIP3   OH2 9947   0.773   0.034   2.862
 3328TIP3    H1 9948   0.766  -0.054   2.824
 3328TIP3    H2 9949   0.784   0.091   2.786
 3329TIP3   OH2 9950   2.075   0.906   5.181
 3329TIP3    H1 9951   2.129   0.912   5.102
 3329TIP3    H2 9952   2.098   0.821   5.219
 3330TIP3   OH2 9953   3.269   2.595   5.138
 3330TIP3    H1 9954   3.331   2.647   5.188
 3330TIP3    H2 9955   3.293   2.504   5.156
 3331TIP3   OH2 9956   5.221   3.314   2.752
 3331TIP3    H1 9957   5.204   3.280   2.839
 3331TIP3    H2 9958   5.136   3.346   2.721
 3332TIP3   OH2 9959   0.682   5.337   3.778
 3332TIP3    H1 9960   0.739   5.411   3.799
 3332TIP3    H2 9961   0.662   5.347   3.685
 3333TIP3   OH2 9962   6.840   3.503   1.470
 3333TIP3    H1 9963   6.848   3.598   1.459
 3333TIP3    H2 9964   6.930   3.473   1.487
 3334TIP3   OH2 9965   3.463   2.894   0.649
 3334TIP3    H1 9966   3.377   2.875   0.684
 3334TIP3    H2 9967   3.449   2.902   0.554
 3335TIP3   OH2 9968   6.787   2.369   2.824
 3335TIP3    H1 9969   6.864   2.391   2.771
 3335TIP3    H2 9970   6.774   2.446   2.880
 3336TIP3   OH2 9971   4.177   3.557   5.542
 3336TIP3    H1 9972   4.148   3.611   5.469
 3336TIP3    H2 9973   4.097   3.513   5.572
 3337TIP3   OH2 9974   1.831   4.803   5.588
 3337TIP3    H1 9975   1.888   4.878   5.606
 3337TIP3    H2 9976   1.831   4.753   5.670
 3338TIP3   OH2 9977   5.916   1.166   4.985
 3338TIP3    H1 9978   5.915   1.224   4.909
 3338TIP3    H2 9979   5.904   1.224   5.060
 3339TIP3   OH2 9980   2.599   6.244   3.586
 3339TIP3    H1 9981   2.596   6.312   3.653
 3339TIP3    H2 9982   2.593   6.291   3.503
 3340TIP3   OH2 9983   6.345   5.366   4.556
 3340TIP3    H1 9984   6.436   5.339   4.551
 3340TIP3    H2 9985   6.344   5.438   4.619
 3341TIP3   OH2 9986   3.702   3.032   1.771
 3341TIP3    H1 9987   3.625   3.012   1.824
 3341TIP3    H2 9988   3.670   3.087   1.701
 3342TIP3   OH2 9989   0.875   0.266   4.535
 3342TIP3    H1 9990   0.894   0.189   4.589
 3342TIP3    H2 9991   0.782   0.259   4.516
 3343TIP3   OH2 9992   3.404   1.393   4.017
 3343TIP3    H1 9993   3.365   1.309   4.039
 3343TIP3    H2 9994   3.424   1.386   3.923
 3344TIP3   OH2 9995   2.595   3.400   5.678
 3344TIP3    H1 9996   2.514   3.349   5.690
 3344TIP3    H2 9997   2.579   3.451   5.599
 3345TIP3   OH2 9998   5.217   0.822   2.491
 3345TIP3    H1 9999   5.155   0.754   2.466
 3345TIP3    H210000   5.286   0.776   2.538
 3346TIP3   OH210001   5.857   3.606   4.182
 3346TIP3    H110002   5.852   3.684   4.126
 3346TIP3    H210003   5.947   3.575   4.172
 3347TIP3   OH210004   0.963   5.261   0.497
 3347TIP3    H110005   0.966   5.337   0.439
 3347TIP3    H210006   0.891   5.280   0.557
 3348TIP3   OH210007   4.880   0.109   3.085
 3348TIP3    H110008   4.868   0.122   3.179
 3348TIP3    H210009   4.974   0.095   3.074
 3349TIP3   OH210010   1.631   2.552   0.322
 3349TIP3    H110011   1.580   2.563   0.402
 3349TIP3    H210012   1.710   2.605   0.337
 3350TIP3   OH210013   1.403   3.143   3.753
 3350TIP3    H110014   1.445   3.094   3.682
 3350TIP3    H210015   1.436   3.102   3.833
 3351TIP3   OH210016   5.710   1.469   2.944
 3351TIP3    H110017   5.712   1.462   2.848
 3351TIP3    H210018   5.727   1.380   2.975
 3352TIP3   OH210019   6.723   6.383   0.503
 3352TIP3    H110020   6.790   6.379   0.435
 3352TIP3    H210021   6.718   6.476   0.526
 3353TIP3   OH210022   7.031   1.617   4.769
 3353TIP3    H110023   7.030   1.710   4.794
 3353TIP3    H210024   7.114   1.584   4.804
 3354TIP3   OH210025   0.039   3.511   3.485
 3354TIP3    H110026  -0.009   3.502   3.402
 3354TIP3    H210027   0.129   3.529   3.459
 3355TIP3   OH210028   3.800   6.678   5.509
 3355TIP3    H110029   3.881   6.653   5.463
 3355TIP3    H210030   3.829   6.736   5.579
 3356TIP3   OH210031   4.334   0.367   1.597
 3356TIP3    H110032   4.429   0.379   1.604
 3356TIP3    H210033   4.319   0.344   1.505
 3357TIP3   OH210034   2.392   5.217   1.671
 3357TIP3    H110035   2.381   5.172   1.755
 3357TIP3    H210036   2.458   5.166   1.625
 3358TIP3   OH210037   4.404   3.611   3.932
 3358TIP3    H110038   4.447   3.600   4.017
 3358TIP3    H210039   4.314   3.635   3.954
 3359TIP3   OH210040   0.386   3.191   2.948
 3359TIP3    H110041   0.292   3.199   2.932
 3359TIP3    H210042   0.394   3.108   2.996
 3360TIP3   OH210043   5.952   3.945   0.134
 3360TIP3    H110044   6.028   3.973   0.185
 3360TIP3    H210045   5.953   4.001   0.057
 3361TIP3   OH210046   0.049   0.234   0.366
 3361TIP3    H110047   0.089   0.214   0.281
 3361TIP3    H210048   0.057   0.329   0.373
 3362TIP3   OH210049   5.426   4.576   4.029
 3362TIP3    H110050   5.332   4.558   4.026
 3362TIP3    H210051   5.433   4.671   4.028
 3363TIP3   OH210052   4.908   4.282   5.747
 3363TIP3    H110053   4.987   4.312   5.793
 3363TIP3    H210054   4.916   4.317   5.659
 3364TIP3   OH210055   6.497   5.140   3.403
 3364TIP3    H110056   6.585   5.104   3.388
 3364TIP3    H210057   6.442   5.096   3.338
 3365TIP3   OH210058   6.440   1.776   0.981
 3365TIP3    H110059   6.492   1.780   0.901
 3365TIP3    H210060   6.350   1.765   0.949
 3366TIP3   OH210061   6.383   0.058   2.614
 3366TIP3    H110062   6.462   0.112   2.606
 3366TIP3    H210063   6.381   0.033   2.706
 3367TIP3   OH210064   4.420   5.650   3.352
 3367TIP3    H110065   4.414   5.637   3.258
 3367TIP3    H210066   4.493   5.593   3.379
 3368TIP3   OH210067   5.912   5.814   3.137
 3368TIP3    H110068   5.930   5.830   3.229
 3368TIP3    H210069   5.974   5.870   3.090
 3369TIP3   OH210070   3.574   5.998   1.266
 3369TIP3    H110071   3.493   5.948   1.252
 3369TIP3    H210072   3.640   5.950   1.216
 3370TIP3   OH210073   0.133   5.743   1.751
 3370TIP3    H110074   0.228   5.740   1.739
 3370TIP3    H210075   0.097   5.726   1.664
 3371TIP3   OH210076   0.633   3.636   0.765
 3371TIP3    H110077   0.691   3.596   0.830
 3371TIP3    H210078   0.585   3.563   0.727
 3372TIP3   OH210079   2.447   2.748   3.962
 3372TIP3    H110080   2.392   2.824   3.949
 3372TIP3    H210081   2.501   2.769   4.038
 3373TIP3   OH210082   0.744   2.694   3.648
 3373TIP3    H110083   0.724   2.717   3.738
 3373TIP3    H210084   0.747   2.777   3.601
 3374TIP3   OH210085   6.005   4.776   4.623
 3374TIP3    H110086   6.091   4.756   4.661
 3374TIP3    H210087   5.950   4.795   4.699
 3375TIP3   OH210088   3.358   1.042   5.809
 3375TIP3    H110089   3.413   1.033   5.888
 3375TIP3    H210090   3.288   0.978   5.821
 3376TIP3   OH210091   2.664   3.137   2.863
 3376TIP3    H110092   2.665   3.090   2.947
 3376TIP3    H210093   2.754   3.168   2.852
 3377TIP3   OH210094   0.265   0.814   0.110
 3377TIP3    H110095   0.358   0.795   0.097
 3377TIP3    H210096   0.238   0.856   0.029
 3378TIP3   OH210097   6.000   1.640   4.692
 3378TIP3    H110098   5.982   1.550   4.720
 3378TIP3    H210099   5.949   1.694   4.753
 3379TIP3   OH210100   6.156   0.555   2.650
 3379TIP3    H110101   6.235   0.578   2.601
 3379TIP3    H210102   6.087   0.555   2.584
 3380TIP3   OH210103   0.210   1.688   3.755
 3380TIP3    H110104   0.282   1.642   3.712
 3380TIP3    H210105   0.220   1.779   3.727
 3381TIP3   OH210106   6.593   5.617   2.385
 3381TIP3    H110107   6.581   5.575   2.300
 3381TIP3    H210108   6.682   5.594   2.412
 3382TIP3   OH210109   0.078   4.345   0.158
 3382TIP3    H110110   0.141   4.410   0.190
 3382TIP3    H210111   0.026   4.323   0.235
 3383TIP3   OH210112   2.215   5.232   2.938
 3383TIP3    H110113   2.231   5.237   2.844
 3383TIP3    H210114   2.226   5.321   2.970
 3384TIP3   OH210115   1.602   0.975   0.795
 3384TIP3    H110116   1.575   0.986   0.704
 3384TIP3    H210117   1.595   0.881   0.812
 3385TIP3   OH210118   1.370   2.059   0.481
 3385TIP3    H110119   1.302   2.110   0.524
 3385TIP3    H210120   1.413   2.121   0.423
 3386TIP3   OH210121   2.093   0.968   0.915
 3386TIP3    H110122   2.031   0.906   0.876
 3386TIP3    H210123   2.042   1.015   0.980
 3387TIP3   OH210124   3.073   5.078   0.229
 3387TIP3    H110125   2.991   5.050   0.271
 3387TIP3    H210126   3.062   5.054   0.137
 3388TIP3   OH210127   7.134   4.045   2.075
 3388TIP3    H110128   7.084   3.979   2.124
 3388TIP3    H210129   7.193   4.084   2.141
 3389TIP3   OH210130   6.024   6.816   5.045
 3389TIP3    H110131   6.034   6.895   4.990
 3389TIP3    H210132   6.108   6.771   5.037
 3390TIP3   OH210133   3.576   6.681   1.977
 3390TIP3    H110134   3.593   6.609   2.037
 3390TIP3    H210135   3.653   6.738   1.984
 3391TIP3   OH210136   4.792   5.398   5.897
 3391TIP3    H110137   4.771   5.305   5.887
 3391TIP3    H210138   4.885   5.404   5.878
 3392TIP3   OH210139   2.351   0.649   2.756
 3392TIP3    H110140   2.444   0.641   2.776
 3392TIP3    H210141   2.310   0.673   2.840
 3393TIP3   OH210142   5.323   2.151   0.639
 3393TIP3    H110143   5.339   2.058   0.622
 3393TIP3    H210144   5.405   2.195   0.618
 3394TIP3   OH210145   6.763   3.119   5.689
 3394TIP3    H110146   6.852   3.097   5.664
 3394TIP3    H210147   6.735   3.184   5.625
 3395TIP3   OH210148   4.352   0.657   5.081
 3395TIP3    H110149   4.338   0.568   5.112
 3395TIP3    H210150   4.329   0.712   5.156
 3396TIP3   OH210151   7.081   2.245   0.690
 3396TIP3    H110152   7.136   2.258   0.768
 3396TIP3    H210153   7.014   2.313   0.697
 3397TIP3   OH210154   2.014   3.000   2.150
 3397TIP3    H110155   2.085   3.028   2.092
 3397TIP3    H210156   2.053   2.931   2.203
 3398TIP3   OH210157   6.171   4.127  -0.021
 3398TIP3    H110158   6.214   4.211  -0.004
 3398TIP3    H210159   6.212   4.067   0.042
 3399TIP3   OH210160   3.262   2.814   1.217
 3399TIP3    H110161   3.329   2.786   1.154
 3399TIP3    H210162   3.305   2.881   1.269
 3400TIP3   OH210163   6.671   0.952   3.584
 3400TIP3    H110164   6.765   0.947   3.568
 3400TIP3    H210165   6.651   0.875   3.638
 3401TIP3   OH210166   1.206   0.576   2.970
 3401TIP3    H110167   1.192   0.665   2.937
 3401TIP3    H210168   1.148   0.568   3.045
 3402TIP3   OH210169   3.785   5.123   3.102
 3402TIP3    H110170   3.730   5.151   3.175
 3402TIP3    H210171   3.813   5.204   3.060
 3403TIP3   OH210172   5.177   6.575   2.322
 3403TIP3    H110173   5.266   6.547   2.298
 3403TIP3    H210174   5.144   6.617   2.242
 3404TIP3   OH210175   6.542   6.339   3.456
 3404TIP3    H110176   6.541   6.433   3.440
 3404TIP3    H210177   6.455   6.309   3.429
 3405TIP3   OH210178   4.918   1.216   1.055
 3405TIP3    H110179   4.835   1.183   1.020
 3405TIP3    H210180   4.976   1.221   0.979
 3406TIP3   OH210181   1.742   4.255   3.167
 3406TIP3    H110182   1.700   4.222   3.246
 3406TIP3    H210183   1.746   4.180   3.108
 3407TIP3   OH210184   0.500   3.004   2.390
 3407TIP3    H110185   0.488   2.916   2.356
 3407TIP3    H210186   0.594   3.010   2.407
 3408TIP3   OH210187   5.764   2.959   0.722
 3408TIP3    H110188   5.683   3.008   0.710
 3408TIP3    H210189   5.740   2.887   0.780
 3409TIP3   OH210190   1.142   6.531   0.861
 3409TIP3    H110191   1.211   6.465   0.860
 3409TIP3    H210192   1.188   6.615   0.856
 3410TIP3   OH210193   5.224   5.239   1.130
 3410TIP3    H110194   5.254   5.179   1.199
 3410TIP3    H210195   5.146   5.198   1.094
 3411TIP3   OH210196   3.826   6.136   0.666
 3411TIP3    H110197   3.776   6.103   0.591
 3411TIP3    H210198   3.918   6.127   0.640
 3412TIP3   OH210199   2.894   2.183   2.298
 3412TIP3    H110200   2.896   2.279   2.297
 3412TIP3    H210201   2.841   2.161   2.374
 3413TIP3   OH210202   5.126   3.888   5.488
 3413TIP3    H110203   5.129   3.793   5.476
 3413TIP3    H210204   5.057   3.902   5.552
 3414TIP3   OH210205   4.485   5.465   0.219
 3414TIP3    H110206   4.525   5.410   0.286
 3414TIP3    H210207   4.558   5.487   0.160
 3415TIP3   OH210208   6.982   1.265   2.836
 3415TIP3    H110209   6.897   1.305   2.852
 3415TIP3    H210210   6.979   1.239   2.744
 3416TIP3   OH210211   0.358   5.581   3.050
 3416TIP3    H110212   0.402   5.501   3.081
 3416TIP3    H210213   0.271   5.551   3.023
 3417TIP3   OH210214   0.442   5.098   0.826
 3417TIP3    H110215   0.382   5.148   0.770
 3417TIP3    H210216   0.529   5.128   0.801
 3418TIP3   OH210217   4.724   0.640   5.362
 3418TIP3    H110218   4.695   0.691   5.286
 3418TIP3    H210219   4.675   0.558   5.355
 3419TIP3   OH210220   4.801   1.253   4.532
 3419TIP3    H110221   4.767   1.174   4.490
 3419TIP3    H210222   4.736   1.320   4.515
 3420TIP3   OH210223   6.056   1.939   2.445
 3420TIP3    H110224   5.986   1.926   2.509
 3420TIP3    H210225   6.033   1.884   2.371
 3421TIP3   OH210226   6.346   1.561   1.875
 3421TIP3    H110227   6.335   1.466   1.862
 3421TIP3    H210228   6.355   1.596   1.786
 3422TIP3   OH210229   3.301   4.290   2.522
 3422TIP3    H110230   3.298   4.326   2.433
 3422TIP3    H210231   3.231   4.335   2.569
 3423TIP3   OH210232   3.353   1.585   1.434
 3423TIP3    H110233   3.314   1.638   1.504
 3423TIP3    H210234   3.279   1.543   1.391
 3424TIP3   OH210235   7.286   2.534   0.243
 3424TIP3    H110236   7.294   2.465   0.309
 3424TIP3    H210237   7.219   2.593   0.277
 3425TIP3   OH210238   1.549   1.864   5.425
 3425TIP3    H110239   1.494   1.942   5.422
 3425TIP3    H210240   1.621   1.882   5.364
 3426TIP3   OH210241   1.346   2.885   5.463
 3426TIP3    H110242   1.290   2.868   5.539
 3426TIP3    H210243   1.292   2.858   5.388
 3427TIP3   OH210244   5.550   6.178   3.650
 3427TIP3    H110245   5.490   6.199   3.578
 3427TIP3    H210246   5.560   6.260   3.698
 3428TIP3   OH210247   3.728   5.953   5.680
 3428TIP3    H110248   3.638   5.966   5.650
 3428TIP3    H210249   3.726   5.867   5.723
 3429TIP3   OH210250   3.017   0.447   5.850
 3429TIP3    H110251   3.002   0.375   5.789
 3429TIP3    H210252   3.101   0.484   5.824
 3430TIP3   OH210253   0.237   6.149   1.720
 3430TIP3    H110254   0.265   6.238   1.697
 3430TIP3    H210255   0.251   6.098   1.640
 3431TIP3   OH210256   6.871   2.722   5.763
 3431TIP3    H110257   6.935   2.746   5.696
 3431TIP3    H210258   6.811   2.662   5.718
 3432TIP3   OH210259   2.276   1.656   0.704
 3432TIP3    H110260   2.236   1.631   0.787
 3432TIP3    H210261   2.367   1.626   0.711
 3433TIP3   OH210262   4.436   2.887   2.478
 3433TIP3    H110263   4.378   2.849   2.544
 3433TIP3    H210264   4.477   2.961   2.522
 3434TIP3   OH210265   4.957   2.640   4.523
 3434TIP3    H110266   4.861   2.642   4.521
 3434TIP3    H210267   4.978   2.583   4.597
 3435TIP3   OH210268   3.583   0.997   1.343
 3435TIP3    H110269   3.564   0.958   1.429
 3435TIP3    H210270   3.501   1.040   1.319
 3436TIP3   OH210271   3.900   2.512   4.839
 3436TIP3    H110272   3.893   2.474   4.927
 3436TIP3    H210273   3.817   2.557   4.825
 3437TIP3   OH210274   6.921   6.583   1.216
 3437TIP3    H110275   6.850   6.537   1.170
 3437TIP3    H210276   6.970   6.512   1.258
 3438TIP3   OH210277   3.012   6.126   3.729
 3438TIP3    H110278   3.008   6.215   3.695
 3438TIP3    H210279   3.073   6.131   3.803
 3439TIP3   OH210280   1.856   1.786   3.102
 3439TIP3    H110281   1.907   1.806   3.023
 3439TIP3    H210282   1.804   1.709   3.078
 3440TIP3   OH210283   2.203   3.718   5.019
 3440TIP3    H110284   2.170   3.777   5.086
 3440TIP3    H210285   2.145   3.730   4.944
 3441TIP3   OH210286   1.861   1.394   4.842
 3441TIP3    H110287   1.890   1.410   4.931
 3441TIP3    H210288   1.933   1.426   4.787
 3442TIP3   OH210289   5.231   6.170   3.723
 3442TIP3    H110290   5.221   6.153   3.630
 3442TIP3    H210291   5.321   6.147   3.743
 3443TIP3   OH210292   3.842   0.968   1.474
 3443TIP3    H110293   3.766   1.003   1.428
 3443TIP3    H210294   3.823   0.875   1.487
 3444TIP3   OH210295   6.342   1.746   1.333
 3444TIP3    H110296   6.403   1.782   1.397
 3444TIP3    H210297   6.398   1.701   1.270
 3445TIP3   OH210298   3.632   0.145   1.638
 3445TIP3    H110299   3.711   0.194   1.616
 3445TIP3    H210300   3.656   0.094   1.716
 3446TIP3   OH210301   2.807   0.961   2.448
 3446TIP3    H110302   2.774   0.958   2.358
 3446TIP3    H210303   2.770   0.883   2.490
 3447TIP3   OH210304   5.376   1.310   5.238
 3447TIP3    H110305   5.401   1.226   5.199
 3447TIP3    H210306   5.325   1.287   5.315
 3448TIP3   OH210307   3.926   4.999   2.514
 3448TIP3    H110308   3.936   5.068   2.580
 3448TIP3    H210309   3.961   4.921   2.556
 3449TIP3   OH210310   5.213   0.140   5.254
 3449TIP3    H110311   5.171   0.080   5.316
 3449TIP3    H210312   5.150   0.211   5.243
 3450TIP3   OH210313   6.272   1.276   5.064
 3450TIP3    H110314   6.238   1.196   5.103
 3450TIP3    H210315   6.257   1.344   5.130
 3451TIP3   OH210316   5.303   0.118   0.578
 3451TIP3    H110317   5.312   0.087   0.668
 3451TIP3    H210318   5.272   0.042   0.529
 3452TIP3   OH210319   0.599   2.927   2.089
 3452TIP3    H110320   0.691   2.939   2.066
 3452TIP3    H210321   0.592   2.834   2.111
 3453TIP3   OH210322   6.003   1.332   3.179
 3453TIP3    H110323   6.025   1.425   3.185
 3453TIP3    H210324   5.993   1.303   3.270
 3454TIP3   OH210325   2.298   2.752   4.668
 3454TIP3    H110326   2.214   2.797   4.678
 3454TIP3    H210327   2.363   2.816   4.697
 3455TIP3   OH210328   6.169   5.769   0.387
 3455TIP3    H110329   6.170   5.774   0.291
 3455TIP3    H210330   6.077   5.785   0.410
 3456TIP3   OH210331   6.160   0.525   4.310
 3456TIP3    H110332   6.173   0.565   4.396
 3456TIP3    H210333   6.124   0.438   4.330
 3457TIP3   OH210334   0.767   0.693   5.010
 3457TIP3    H110335   0.704   0.646   4.955
 3457TIP3    H210336   0.720   0.772   5.036
 3458TIP3   OH210337   2.534   1.813   5.457
 3458TIP3    H110338   2.620   1.810   5.499
 3458TIP3    H210339   2.527   1.903   5.424
 3459TIP3   OH210340   2.309   3.038   3.402
 3459TIP3    H110341   2.277   3.099   3.469
 3459TIP3    H210342   2.404   3.040   3.413
 3460TIP3   OH210343   1.489   4.345   5.648
 3460TIP3    H110344   1.568   4.381   5.609
 3460TIP3    H210345   1.511   4.253   5.667
 3461TIP3   OH210346   5.543   1.992   2.677
 3461TIP3    H110347   5.547   2.064   2.740
 3461TIP3    H210348   5.615   1.934   2.702
 3462TIP3   OH210349   1.128   3.150   0.847
 3462TIP3    H110350   1.215   3.178   0.817
 3462TIP3    H210351   1.114   3.066   0.803
 3463TIP3   OH210352   4.246   1.532   0.848
 3463TIP3    H110353   4.197   1.550   0.768
 3463TIP3    H210354   4.222   1.442   0.871
 3464TIP3   OH210355   2.884   5.930   4.250
 3464TIP3    H110356   2.963   5.950   4.301
 3464TIP3    H210357   2.841   5.860   4.299
 3465TIP3   OH210358   2.540   2.262   0.882
 3465TIP3    H110359   2.459   2.278   0.833
 3465TIP3    H210360   2.535   2.169   0.904
 3466TIP3   OH210361   4.127   4.078   4.599
 3466TIP3    H110362   4.175   4.160   4.606
 3466TIP3    H210363   4.179   4.015   4.650
 3467TIP3   OH210364   0.974   0.849   0.678
 3467TIP3    H110365   0.895   0.860   0.731
 3467TIP3    H210366   1.008   0.938   0.667
 3468TIP3   OH210367   3.689   3.704   0.232
 3468TIP3    H110368   3.650   3.765   0.295
 3468TIP3    H210369   3.617   3.679   0.175
 3469TIP3   OH210370   2.626   5.668   0.967
 3469TIP3    H110371   2.675   5.749   0.977
 3469TIP3    H210372   2.538   5.689   0.999
 3470TIP3   OH210373   2.878   6.008   2.346
 3470TIP3    H110374   2.841   6.014   2.258
 3470TIP3    H210375   2.954   6.066   2.343
 3471TIP3   OH210376   3.995   3.755   4.754
 3471TIP3    H110377   4.079   3.796   4.730
 3471TIP3    H210378   3.980   3.783   4.844
 3472TIP3   OH210379   5.625   0.517   1.464
 3472TIP3    H110380   5.713   0.551   1.473
 3472TIP3    H210381   5.572   0.593   1.441
 3473TIP3   OH210382   2.444   0.843   3.737
 3473TIP3    H110383   2.507   0.898   3.689
 3473TIP3    H210384   2.492   0.762   3.755
 3474TIP3   OH210385   0.301   1.481   2.808
 3474TIP3    H110386   0.375   1.537   2.786
 3474TIP3    H210387   0.224   1.534   2.788
 3475TIP3   OH210388   7.120   2.763   0.857
 3475TIP3    H110389   7.143   2.687   0.910
 3475TIP3    H210390   7.204   2.800   0.830
 3476TIP3   OH210391   5.596   4.451   5.525
 3476TIP3    H110392   5.647   4.526   5.554
 3476TIP3    H210393   5.643   4.417   5.449
 3477TIP3   OH210394   3.916   0.280   0.227
 3477TIP3    H110395   3.969   0.352   0.260
 3477TIP3    H210396   3.978   0.220   0.186
 3478TIP3   OH210397   2.742   6.141   0.036
 3478TIP3    H110398   2.827   6.099   0.050
 3478TIP3    H210399   2.725   6.131  -0.058
 3479TIP3   OH210400   5.325   2.055   3.290
 3479TIP3    H110401   5.230   2.062   3.288
 3479TIP3    H210402   5.343   1.985   3.353
 3480TIP3   OH210403   5.399   3.177   5.109
 3480TIP3    H110404   5.359   3.096   5.140
 3480TIP3    H210405   5.329   3.223   5.063
 3481TIP3   OH210406   6.799   4.697   1.690
 3481TIP3    H110407   6.778   4.785   1.660
 3481TIP3    H210408   6.890   4.703   1.719
 3482TIP3   OH210409   0.606   1.920   5.317
 3482TIP3    H110410   0.602   1.956   5.228
 3482TIP3    H210411   0.689   1.954   5.352
 3483TIP3   OH210412   5.935   0.184   5.442
 3483TIP3    H110413   5.953   0.090   5.447
 3483TIP3    H210414   5.897   0.206   5.527
 3484TIP3   OH210415   0.968   5.333   3.632
 3484TIP3    H110416   0.902   5.303   3.569
 3484TIP3    H210417   1.048   5.288   3.607
 3485TIP3   OH210418   7.047   3.193   4.288
 3485TIP3    H110419   7.048   3.111   4.337
 3485TIP3    H210420   6.989   3.177   4.214
 3486TIP3   OH210421   0.548   3.832   0.967
 3486TIP3    H110422   0.610   3.774   1.012
 3486TIP3    H210423   0.564   3.817   0.874
 3487TIP3   OH210424   3.177   3.293   4.240
 3487TIP3    H110425   3.156   3.223   4.179
 3487TIP3    H210426   3.252   3.338   4.200
 3488TIP3   OH210427   5.397   0.855   5.071
 3488TIP3    H110428   5.402   0.893   4.983
 3488TIP3    H210429   5.328   0.905   5.115
 3489TIP3   OH210430   5.883   3.055   2.779
 3489TIP3    H110431   5.959   3.048   2.722
 3489TIP3    H210432   5.881   2.972   2.827
 3490TIP3   OH210433   2.077   3.859   4.003
 3490TIP3    H110434   2.024   3.816   4.070
 3490TIP3    H210435   2.094   3.946   4.039
 3491TIP3   OH210436   3.303   0.712   5.592
 3491TIP3    H110437   3.233   0.776   5.601
 3491TIP3    H210438   3.290   0.674   5.506
 3492TIP3   OH210439   0.666   2.779   3.885
 3492TIP3    H110440   0.590   2.756   3.938
 3492TIP3    H210441   0.683   2.871   3.904
 3493TIP3   OH210442   3.345   5.988   2.152
 3493TIP3    H110443   3.304   5.980   2.067
 3493TIP3    H210444   3.431   6.027   2.134
 3494TIP3   OH210445   4.170   4.595   3.678
 3494TIP3    H110446   4.092   4.557   3.719
 3494TIP3    H210447   4.138   4.674   3.634
 3495TIP3   OH210448   4.087   0.336   2.959
 3495TIP3    H110449   4.097   0.245   2.988
 3495TIP3    H210450   4.086   0.330   2.863
 3496TIP3   OH210451   0.935   4.425   0.708
 3496TIP3    H110452   0.889   4.349   0.672
 3496TIP3    H210453   0.896   4.500   0.664
 3497TIP3   OH210454   0.633   5.655   5.921
 3497TIP3    H110455   0.672   5.694   5.842
 3497TIP3    H210456   0.698   5.592   5.951
 3498TIP3   OH210457   6.478   5.403   3.457
 3498TIP3    H110458   6.418   5.415   3.383
 3498TIP3    H210459   6.514   5.315   3.444
 3499TIP3   OH210460   0.890   0.435   4.335
 3499TIP3    H110461   0.891   0.364   4.400
 3499TIP3    H210462   0.859   0.512   4.384
 3500TIP3   OH210463   2.444   4.539   0.237
 3500TIP3    H110464   2.507   4.610   0.229
 3500TIP3    H210465   2.454   4.508   0.327
 3501TIP3   OH210466   0.997   5.014   2.826
 3501TIP3    H110467   1.057   4.965   2.769
 3501TIP3    H210468   0.981   4.955   2.899
 3502TIP3   OH210469   2.339   1.086   5.788
 3502TIP3    H110470   2.370   1.149   5.723
 3502TIP3    H210471   2.245   1.104   5.797
 3503TIP3   OH210472   4.168   3.697   2.759
 3503TIP3    H110473   4.074   3.702   2.742
 3503TIP3    H210474   4.191   3.607   2.736
 3504TIP3   OH210475   2.269   0.824   3.950
 3504TIP3    H110476   2.331   0.855   3.884
 3504TIP3    H210477   2.188   0.871   3.930
 3505TIP3   OH210478   5.037   6.273   5.351
 3505TIP3    H110479   5.133   6.272   5.345
 3505TIP3    H210480   5.014   6.365   5.361
 3506TIP3   OH210481   6.325   0.313   3.303
 3506TIP3    H110482   6.320   0.375   3.375
 3506TIP3    H210483   6.333   0.367   3.225
 3507TIP3   OH210484   5.359   0.556   0.521
 3507TIP3    H110485   5.336   0.531   0.611
 3507TIP3    H210486   5.335   0.480   0.468
 3508TIP3   OH210487   6.044   6.001   3.014
 3508TIP3    H110488   6.039   6.094   3.039
 3508TIP3    H210489   6.104   6.000   2.939
 3509TIP3   OH210490   5.868   6.277   1.086
 3509TIP3    H110491   5.953   6.277   1.129
 3509TIP3    H210492   5.840   6.186   1.089
 3510TIP3   OH210493   5.987   3.314   5.177
 3510TIP3    H110494   5.976   3.335   5.084
 3510TIP3    H210495   5.897   3.303   5.209
 3511TIP3   OH210496   0.069   6.058   0.794
 3511TIP3    H110497   0.005   6.121   0.760
 3511TIP3    H210498   0.145   6.068   0.736
 3512TIP3   OH210499   6.399   4.457   1.733
 3512TIP3    H110500   6.466   4.487   1.672
 3512TIP3    H210501   6.344   4.533   1.749
 3513TIP3   OH210502   3.888   1.657   5.301
 3513TIP3    H110503   3.855   1.568   5.318
 3513TIP3    H210504   3.920   1.652   5.211
 3514TIP3   OH210505   4.414   4.234   0.367
 3514TIP3    H110506   4.363   4.162   0.332
 3514TIP3    H210507   4.439   4.285   0.289
 3515TIP3   OH210508   0.945   6.234   3.755
 3515TIP3    H110509   0.961   6.169   3.823
 3515TIP3    H210510   0.890   6.189   3.691
 3516TIP3   OH210511   6.756   1.593   2.615
 3516TIP3    H110512   6.686   1.656   2.633
 3516TIP3    H210513   6.739   1.562   2.526
 3517TIP3   OH210514   0.151   5.589   0.649
 3517TIP3    H110515   0.213   5.661   0.642
 3517TIP3    H210516   0.088   5.604   0.578
 3518TIP3   OH210517   4.289   2.447   4.804
 3518TIP3    H110518   4.284   2.362   4.760
 3518TIP3    H210519   4.200   2.462   4.837
 3519TIP3   OH210520   3.771   3.711   3.926
 3519TIP3    H110521   3.798   3.662   3.849
 3519TIP3    H210522   3.801   3.800   3.909
 3520TIP3   OH210523   5.773   0.522   4.147
 3520TIP3    H110524   5.770   0.615   4.125
 3520TIP3    H210525   5.797   0.479   4.065
 3521TIP3   OH210526   4.054   6.627   2.453
 3521TIP3    H110527   3.966   6.620   2.491
 3521TIP3    H210528   4.090   6.707   2.491
 3522TIP3   OH210529   1.705   4.350   2.629
 3522TIP3    H110530   1.616   4.335   2.598
 3522TIP3    H210531   1.762   4.312   2.562
 3523TIP3   OH210532   6.090   0.977   0.207
 3523TIP3    H110533   5.998   0.991   0.230
 3523TIP3    H210534   6.131   0.947   0.288
 3524TIP3   OH210535   0.728   4.904   4.712
 3524TIP3    H110536   0.660   4.926   4.776
 3524TIP3    H210537   0.706   4.955   4.635
 3525TIP3   OH210538   4.768   1.928   0.050
 3525TIP3    H110539   4.831   1.999   0.044
 3525TIP3    H210540   4.725   1.926  -0.036
 3526TIP3   OH210541   1.304   5.477   4.954
 3526TIP3    H110542   1.297   5.555   5.009
 3526TIP3    H210543   1.241   5.415   4.992
 3527TIP3   OH210544   4.747   1.697   1.664
 3527TIP3    H110545   4.818   1.692   1.729
 3527TIP3    H210546   4.770   1.772   1.609
 3528TIP3   OH210547   1.367   5.476   1.564
 3528TIP3    H110548   1.324   5.420   1.629
 3528TIP3    H210549   1.315   5.556   1.563
 3529TIP3   OH210550   4.440   1.949   5.007
 3529TIP3    H110551   4.499   1.875   5.019
 3529TIP3    H210552   4.479   2.021   5.057
 3530TIP3   OH210553   6.118   0.359   5.275
 3530TIP3    H110554   6.130   0.436   5.330
 3530TIP3    H210555   6.053   0.306   5.322
 3531TIP3   OH210556   6.565   2.545   1.193
 3531TIP3    H110557   6.563   2.567   1.099
 3531TIP3    H210558   6.488   2.588   1.229
 3532TIP3   OH210559   5.039   6.667   1.744
 3532TIP3    H110560   4.988   6.611   1.802
 3532TIP3    H210561   5.027   6.629   1.657
 3533TIP3   OH210562   5.143   2.810   4.732
 3533TIP3    H110563   5.177   2.723   4.755
 3533TIP3    H210564   5.053   2.810   4.767
 3534TIP3   OH210565   4.875   2.883   0.238
 3534TIP3    H110566   4.813   2.830   0.187
 3534TIP3    H210567   4.954   2.886   0.185
 3535TIP3   OH210568   2.629   2.731   2.505
 3535TIP3    H110569   2.595   2.718   2.593
 3535TIP3    H210570   2.691   2.659   2.492
 3536TIP3   OH210571   6.884   4.347   4.464
 3536TIP3    H110572   6.940   4.300   4.402
 3536TIP3    H210573   6.797   4.312   4.449
 3537TIP3   OH210574   0.506   2.421   4.329
 3537TIP3    H110575   0.500   2.376   4.245
 3537TIP3    H210576   0.599   2.424   4.349
 3538TIP3   OH210577   3.723   3.866   3.607
 3538TIP3    H110578   3.770   3.785   3.628
 3538TIP3    H210579   3.791   3.931   3.591
 3539TIP3   OH210580   2.732   4.340   5.421
 3539TIP3    H110581   2.707   4.269   5.480
 3539TIP3    H210582   2.828   4.335   5.417
 3540TIP3   OH210583   4.078   5.335   5.864
 3540TIP3    H110584   4.046   5.420   5.894
 3540TIP3    H210585   4.162   5.324   5.909
 3541TIP3   OH210586   1.246   2.951   1.212
 3541TIP3    H110587   1.314   2.917   1.155
 3541TIP3    H210588   1.207   2.873   1.251
 3542TIP3   OH210589   0.756   5.528   1.770
 3542TIP3    H110590   0.848   5.522   1.742
 3542TIP3    H210591   0.708   5.550   1.691
 3543TIP3   OH210592   5.258   6.616   2.959
 3543TIP3    H110593   5.217   6.658   3.035
 3543TIP3    H210594   5.202   6.540   2.941
 3544TIP3   OH210595   1.964   6.520   1.530
 3544TIP3    H110596   1.967   6.465   1.451
 3544TIP3    H210597   2.055   6.532   1.555
 3545TIP3   OH210598   5.561   6.052   1.564
 3545TIP3    H110599   5.572   5.964   1.528
 3545TIP3    H210600   5.475   6.051   1.606
 3546TIP3   OH210601   4.966   2.124   0.959
 3546TIP3    H110602   4.898   2.067   0.995
 3546TIP3    H210603   5.011   2.159   1.035
 3547TIP3   OH210604   4.328   0.591   2.778
 3547TIP3    H110605   4.368   0.612   2.862
 3547TIP3    H210606   4.401   0.561   2.723
 3548TIP3   OH210607   5.397   2.550   1.536
 3548TIP3    H110608   5.433   2.599   1.610
 3548TIP3    H210609   5.373   2.617   1.473
 3549TIP3   OH210610   1.468   2.945   2.400
 3549TIP3    H110611   1.401   2.950   2.469
 3549TIP3    H210612   1.497   3.035   2.387
 3550TIP3   OH210613   1.726   6.392   4.712
 3550TIP3    H110614   1.670   6.388   4.789
 3550TIP3    H210615   1.769   6.307   4.708
 3551TIP3   OH210616   6.522   4.436   0.211
 3551TIP3    H110617   6.487   4.361   0.163
 3551TIP3    H210618   6.617   4.421   0.211
 3552TIP3   OH210619   4.998   4.530   3.471
 3552TIP3    H110620   4.952   4.469   3.414
 3552TIP3    H210621   4.984   4.496   3.559
 3553TIP3   OH210622   3.077   6.627   5.549
 3553TIP3    H110623   3.057   6.600   5.459
 3553TIP3    H210624   2.998   6.606   5.598
 3554TIP3   OH210625   6.406   1.686   2.285
 3554TIP3    H110626   6.320   1.698   2.324
 3554TIP3    H210627   6.413   1.591   2.272
 3555TIP3   OH210628   5.011   5.309   3.833
 3555TIP3    H110629   4.969   5.327   3.749
 3555TIP3    H210630   4.993   5.387   3.886
 3556TIP3   OH210631   4.938   1.986   2.525
 3556TIP3    H110632   4.871   1.948   2.468
 3556TIP3    H210633   4.977   1.911   2.569
 3557TIP3   OH210634   3.309   6.014   1.871
 3557TIP3    H110635   3.364   6.047   1.800
 3557TIP3    H210636   3.264   6.091   1.905
 3558TIP3   OH210637   3.930   4.883   5.159
 3558TIP3    H110638   3.922   4.824   5.084
 3558TIP3    H210639   3.840   4.890   5.193
 3559TIP3   OH210640   1.507   2.482   4.568
 3559TIP3    H110641   1.600   2.463   4.552
 3559TIP3    H210642   1.505   2.517   4.657
 3560TIP3   OH210643   1.488   0.294   3.010
 3560TIP3    H110644   1.509   0.379   2.972
 3560TIP3    H210645   1.548   0.285   3.084
 3561TIP3   OH210646   6.511   3.357   2.392
 3561TIP3    H110647   6.444   3.353   2.324
 3561TIP3    H210648   6.593   3.370   2.344
 3562TIP3   OH210649   5.102   2.916   0.106
 3562TIP3    H110650   5.195   2.904   0.125
 3562TIP3    H210651   5.094   2.898   0.013
 3563TIP3   OH210652   4.243   6.423   5.687
 3563TIP3    H110653   4.324   6.421   5.636
 3563TIP3    H210654   4.174   6.418   5.622
 3564TIP3   OH210655   2.616   5.923   0.813
 3564TIP3    H110656   2.574   5.849   0.770
 3564TIP3    H210657   2.708   5.918   0.786
 3565TIP3   OH210658   4.624   5.004   2.586
 3565TIP3    H110659   4.589   4.959   2.509
 3565TIP3    H210660   4.619   4.939   2.656
 3566TIP3   OH210661   3.854   3.121   5.333
 3566TIP3    H110662   3.940   3.079   5.340
 3566TIP3    H210663   3.834   3.150   5.421
 3567TIP3   OH210664   4.484   5.236   5.611
 3567TIP3    H110665   4.519   5.262   5.696
 3567TIP3    H210666   4.461   5.318   5.567
 3568TIP3   OH210667   3.596   3.212   1.461
 3568TIP3    H110668   3.555   3.257   1.387
 3568TIP3    H210669   3.646   3.280   1.506
 3569TIP3   OH210670   4.854   2.946   2.431
 3569TIP3    H110671   4.779   2.892   2.458
 3569TIP3    H210672   4.909   2.888   2.379
 3570TIP3   OH210673   1.675   2.785   4.083
 3570TIP3    H110674   1.613   2.731   4.132
 3570TIP3    H210675   1.716   2.724   4.021
 3571TIP3   OH210676   2.087   6.793   2.190
 3571TIP3    H110677   2.018   6.755   2.245
 3571TIP3    H210678   2.046   6.870   2.151
 3572TIP3   OH210679   4.962   3.966   5.684
 3572TIP3    H110680   4.952   4.061   5.683
 3572TIP3    H210681   4.949   3.942   5.776
 3573TIP3   OH210682   3.096   5.979   1.235
 3573TIP3    H110683   3.046   6.061   1.239
 3573TIP3    H210684   3.084   5.939   1.320
 3574TIP3   OH210685   3.938   5.170   2.235
 3574TIP3    H110686   3.862   5.226   2.220
 3574TIP3    H210687   3.913   5.112   2.307
 3575TIP3   OH210688   0.135   3.874   4.906
 3575TIP3    H110689   0.169   3.791   4.873
 3575TIP3    H210690   0.165   3.879   4.997
 3576TIP3   OH210691   1.590   6.431   4.292
 3576TIP3    H110692   1.517   6.441   4.232
 3576TIP3    H210693   1.571   6.492   4.363
 3577TIP3   OH210694   1.440   1.469   3.266
 3577TIP3    H110695   1.534   1.471   3.285
 3577TIP3    H210696   1.398   1.483   3.352
 3578TIP3   OH210697   1.020   1.042   2.482
 3578TIP3    H110698   0.978   1.081   2.558
 3578TIP3    H210699   1.096   0.995   2.517
 3579TIP3   OH210700   6.178   1.444   4.333
 3579TIP3    H110701   6.146   1.470   4.247
 3579TIP3    H210702   6.180   1.348   4.330
 3580TIP3   OH210703   1.139   3.189   1.105
 3580TIP3    H110704   1.154   3.191   1.011
 3580TIP3    H210705   1.173   3.104   1.133
 3581TIP3   OH210706   6.609   1.119   1.222
 3581TIP3    H110707   6.591   1.123   1.316
 3581TIP3    H210708   6.665   1.042   1.212
 3582TIP3   OH210709   5.252   3.969   0.218
 3582TIP3    H110710   5.222   3.926   0.298
 3582TIP3    H210711   5.246   3.901   0.150
 3583TIP3   OH210712   1.952   0.701   1.667
 3583TIP3    H110713   1.890   0.629   1.672
 3583TIP3    H210714   1.906   0.775   1.706
 3584TIP3   OH210715   4.624   1.440   1.104
 3584TIP3    H110716   4.716   1.449   1.130
 3584TIP3    H210717   4.615   1.501   1.030
 3585TIP3   OH210718   0.897   5.913   0.355
 3585TIP3    H110719   0.901   5.834   0.409
 3585TIP3    H210720   0.980   5.958   0.373
 3586TIP3   OH210721   3.414   2.704   3.728
 3586TIP3    H110722   3.460   2.678   3.808
 3586TIP3    H210723   3.326   2.667   3.737
 3587TIP3   OH210724   5.107   4.247   4.612
 3587TIP3    H110725   5.129   4.337   4.633
 3587TIP3    H210726   5.191   4.204   4.593
 3588TIP3   OH210727   5.921   2.821   5.396
 3588TIP3    H110728   5.846   2.808   5.339
 3588TIP3    H210729   5.995   2.832   5.336
 3589TIP3   OH210730   1.987   0.711   2.123
 3589TIP3    H110731   1.899   0.749   2.120
 3589TIP3    H210732   2.045   0.784   2.100
 3590TIP3   OH210733   7.167   0.663   0.578
 3590TIP3    H110734   7.221   0.610   0.519
 3590TIP3    H210735   7.151   0.605   0.653
 3591TIP3   OH210736   6.576   0.455   0.123
 3591TIP3    H110737   6.663   0.442   0.160
 3591TIP3    H210738   6.591   0.475   0.031
 3592TIP3   OH210739   5.946   3.370   3.421
 3592TIP3    H110740   5.881   3.435   3.445
 3592TIP3    H210741   6.030   3.415   3.430
 3593TIP3   OH210742   1.437   3.563   0.124
 3593TIP3    H110743   1.411   3.503   0.194
 3593TIP3    H210744   1.390   3.531   0.047
 3594TIP3   OH210745   2.908   3.433   3.565
 3594TIP3    H110746   2.839   3.401   3.623
 3594TIP3    H210747   2.871   3.513   3.526
 3595TIP3   OH210748   6.757   4.828   4.206
 3595TIP3    H110749   6.694   4.767   4.167
 3595TIP3    H210750   6.750   4.813   4.300
 3596TIP3   OH210751   2.664   2.517   0.815
 3596TIP3    H110752   2.627   2.429   0.820
 3596TIP3    H210753   2.659   2.550   0.904
 3597TIP3   OH210754   4.496   6.402   2.376
 3597TIP3    H110755   4.491   6.495   2.398
 3597TIP3    H210756   4.550   6.399   2.297
 3598TIP3   OH210757   3.230   2.696   3.191
 3598TIP3    H110758   3.168   2.755   3.234
 3598TIP3    H210759   3.175   2.629   3.150
 3599TIP3   OH210760   0.758   1.178   0.786
 3599TIP3    H110761   0.690   1.184   0.854
 3599TIP3    H210762   0.710   1.161   0.705
 3600TIP3   OH210763   1.433   2.658   1.437
 3600TIP3    H110764   1.397   2.579   1.397
 3600TIP3    H210765   1.516   2.672   1.392
 3601TIP3   OH210766   1.097   3.004   2.078
 3601TIP3    H110767   1.072   3.096   2.088
 3601TIP3    H210768   1.187   3.001   2.110
 3602TIP3   OH210769   0.973   4.304   0.435
 3602TIP3    H110770   1.024   4.376   0.470
 3602TIP3    H210771   0.958   4.246   0.510
 3603TIP3   OH210772   1.057   1.276   1.228
 3603TIP3    H110773   1.027   1.265   1.137
 3603TIP3    H210774   0.977   1.283   1.279
 3604TIP3   OH210775   0.520   4.223   3.768
 3604TIP3    H110776   0.486   4.294   3.714
 3604TIP3    H210777   0.443   4.186   3.811
 3605TIP3   OH210778   6.964   3.198   0.708
 3605TIP3    H110779   7.021   3.176   0.635
 3605TIP3    H210780   6.988   3.135   0.776
 3606TIP3   OH210781   3.187   2.335   2.134
 3606TIP3    H110782   3.261   2.274   2.132
 3606TIP3    H210783   3.221   2.415   2.093
 3607TIP3   OH210784   2.081   0.238   1.204
 3607TIP3    H110785   2.101   0.283   1.286
 3607TIP3    H210786   2.078   0.307   1.138
 3608TIP3   OH210787   2.901   0.461   4.620
 3608TIP3    H110788   2.971   0.403   4.589
 3608TIP3    H210789   2.877   0.513   4.543
 3609TIP3   OH210790   5.402   1.600   0.692
 3609TIP3    H110791   5.494   1.575   0.699
 3609TIP3    H210792   5.358   1.551   0.762
 3610TIP3   OH210793   4.264   0.641   4.794
 3610TIP3    H110794   4.328   0.628   4.864
 3610TIP3    H210795   4.317   0.667   4.718
 3611TIP3   OH210796   5.034   6.759   2.142
 3611TIP3    H110797   5.049   6.853   2.134
 3611TIP3    H210798   4.941   6.751   2.163
 3612TIP3   OH210799   5.678   1.990   3.307
 3612TIP3    H110800   5.637   1.920   3.358
 3612TIP3    H210801   5.641   2.071   3.343
 3613TIP3   OH210802   0.779   5.997   5.503
 3613TIP3    H110803   0.734   5.924   5.460
 3613TIP3    H210804   0.724   6.073   5.484
 3614TIP3   OH210805   1.904   3.778   1.759
 3614TIP3    H110806   1.810   3.798   1.759
 3614TIP3    H210807   1.937   3.823   1.837
 3615TIP3   OH210808   4.567   3.628   5.034
 3615TIP3    H110809   4.588   3.535   5.046
 3615TIP3    H210810   4.647   3.666   4.996
 3616TIP3   OH210811   4.502   4.900   2.343
 3616TIP3    H110812   4.417   4.857   2.356
 3616TIP3    H210813   4.482   4.977   2.291
 3617TIP3   OH210814   5.420   6.694   2.513
 3617TIP3    H110815   5.367   6.770   2.539
 3617TIP3    H210816   5.436   6.647   2.595
 3618TIP3   OH210817   5.854   1.616   1.023
 3618TIP3    H110818   5.877   1.670   0.948
 3618TIP3    H210819   5.772   1.653   1.055
 3619TIP3   OH210820   4.521   2.554   1.317
 3619TIP3    H110821   4.599   2.508   1.285
 3619TIP3    H210822   4.556   2.625   1.372
 3620TIP3   OH210823   7.128   5.904   1.540
 3620TIP3    H110824   7.173   5.957   1.606
 3620TIP3    H210825   7.192   5.839   1.513
 3621TIP3   OH210826   5.723   6.091   1.829
 3621TIP3    H110827   5.800   6.147   1.837
 3621TIP3    H210828   5.729   6.054   1.741
 3622TIP3   OH210829   0.447   4.914   2.091
 3622TIP3    H110830   0.484   4.850   2.031
 3622TIP3    H210831   0.514   4.982   2.098
 3623TIP3   OH210832   5.636   5.041   5.525
 3623TIP3    H110833   5.637   4.947   5.543
 3623TIP3    H210834   5.672   5.081   5.605
 3624TIP3   OH210835   1.198   1.207   1.594
 3624TIP3    H110836   1.252   1.179   1.668
 3624TIP3    H210837   1.261   1.238   1.529
 3625TIP3   OH210838   0.854   5.667   5.251
 3625TIP3    H110839   0.911   5.743   5.263
 3625TIP3    H210840   0.769   5.694   5.287
 3626TIP3   OH210841   4.336   6.226   4.266
 3626TIP3    H110842   4.403   6.180   4.214
 3626TIP3    H210843   4.260   6.230   4.208
 3627TIP3   OH210844   1.469   1.550   4.551
 3627TIP3    H110845   1.434   1.637   4.531
 3627TIP3    H210846   1.393   1.491   4.544
 3628TIP3   OH210847   2.760   1.824   3.040
 3628TIP3    H110848   2.851   1.797   3.053
 3628TIP3    H210849   2.751   1.834   2.945
 3629TIP3   OH210850   0.744   2.769   3.295
 3629TIP3    H110851   0.788   2.736   3.374
 3629TIP3    H210852   0.816   2.787   3.234
 3630TIP3   OH210853   1.927   3.059   4.033
 3630TIP3    H110854   1.907   3.151   4.019
 3630TIP3    H210855   1.944   3.052   4.127
 3631TIP3   OH210856   7.222   6.564   2.857
 3631TIP3    H110857   7.151   6.582   2.920
 3631TIP3    H210858   7.241   6.471   2.868
 3632TIP3   OH210859   0.840   0.552   5.369
 3632TIP3    H110860   0.811   0.557   5.460
 3632TIP3    H210861   0.793   0.476   5.333
 3633TIP3   OH210862   3.361   5.862   5.252
 3633TIP3    H110863   3.428   5.916   5.208
 3633TIP3    H210864   3.409   5.785   5.283
 3634TIP3   OH210865   0.690   5.835   4.048
 3634TIP3    H110866   0.619   5.867   4.103
 3634TIP3    H210867   0.758   5.807   4.109
 3635TIP3   OH210868   0.320   1.625   3.247
 3635TIP3    H110869   0.228   1.603   3.230
 3635TIP3    H210870   0.353   1.655   3.163
 3636TIP3   OH210871   5.866   3.344   1.559
 3636TIP3    H110872   5.941   3.289   1.538
 3636TIP3    H210873   5.800   3.322   1.494
 3637TIP3   OH210874   0.609   3.929   2.156
 3637TIP3    H110875   0.673   3.861   2.175
 3637TIP3    H210876   0.619   3.947   2.063
 3638TIP3   OH210877   2.840   2.626   0.199
 3638TIP3    H110878   2.782   2.610   0.125
 3638TIP3    H210879   2.896   2.698   0.171
 3639TIP3   OH210880   0.610   0.319   3.896
 3639TIP3    H110881   0.640   0.337   3.985
 3639TIP3    H210882   0.651   0.388   3.843
 3640TIP3   OH210883   2.658   3.529   0.715
 3640TIP3    H110884   2.618   3.609   0.682
 3640TIP3    H210885   2.598   3.499   0.784
 3641TIP3   OH210886   3.838   1.349   2.749
 3641TIP3    H110887   3.894   1.342   2.826
 3641TIP3    H210888   3.877   1.420   2.697
 3642TIP3   OH210889   6.925   0.960   3.026
 3642TIP3    H110890   6.961   0.957   2.938
 3642TIP3    H210891   6.999   0.982   3.082
 3643TIP3   OH210892   6.978   4.353   0.628
 3643TIP3    H110893   6.927   4.424   0.667
 3643TIP3    H210894   6.983   4.287   0.697
 3644TIP3   OH210895   2.376   4.567   1.250
 3644TIP3    H110896   2.419   4.570   1.335
 3644TIP3    H210897   2.283   4.557   1.270
 3645TIP3   OH210898   2.656   1.940   0.601
 3645TIP3    H110899   2.688   2.024   0.634
 3645TIP3    H210900   2.564   1.938   0.627
 3646TIP3   OH210901   2.681   5.770   4.883
 3646TIP3    H110902   2.625   5.837   4.922
 3646TIP3    H210903   2.652   5.688   4.923
 3647TIP3   OH210904   6.565   4.045   1.266
 3647TIP3    H110905   6.543   3.976   1.329
 3647TIP3    H210906   6.656   4.067   1.285
 3648TIP3   OH210907   6.938   1.215   3.794
 3648TIP3    H110908   6.973   1.302   3.814
 3648TIP3    H210909   7.006   1.155   3.825
 3649TIP3   OH210910   3.249   4.246   0.425
 3649TIP3    H110911   3.301   4.314   0.382
 3649TIP3    H210912   3.158   4.268   0.404
 3650TIP3   OH210913   3.907   5.628   4.080
 3650TIP3    H110914   3.959   5.554   4.051
 3650TIP3    H210915   3.817   5.594   4.085
 3651TIP3   OH210916   3.004   6.210   5.166
 3651TIP3    H110917   3.013   6.237   5.075
 3651TIP3    H210918   3.092   6.184   5.193
 3652TIP3   OH210919   6.626   6.385   2.406
 3652TIP3    H110920   6.670   6.442   2.343
 3652TIP3    H210921   6.683   6.387   2.483
 3653TIP3   OH210922   6.613   2.387   0.832
 3653TIP3    H110923   6.550   2.444   0.789
 3653TIP3    H210924   6.661   2.445   0.892
 3654TIP3   OH210925   2.041   1.696   3.295
 3654TIP3    H110926   2.077   1.613   3.262
 3654TIP3    H210927   1.995   1.733   3.220
 3655TIP3   OH210928   5.157   5.406   4.443
 3655TIP3    H110929   5.148   5.423   4.537
 3655TIP3    H210930   5.247   5.434   4.422
 3656TIP3   OH210931   2.397   2.806   5.259
 3656TIP3    H110932   2.312   2.840   5.233
 3656TIP3    H210933   2.457   2.881   5.248
 3657TIP3   OH210934   4.644   1.208   0.968
 3657TIP3    H110935   4.595   1.133   1.000
 3657TIP3    H210936   4.602   1.284   1.009
 3658TIP3   OH210937   0.081   1.547   3.136
 3658TIP3    H110938   0.068   1.536   3.041
 3658TIP3    H210939  -0.004   1.574   3.169
 3659TIP3   OH210940   4.789   1.058   1.722
 3659TIP3    H110941   4.723   1.068   1.654
 3659TIP3    H210942   4.864   1.019   1.677
 3660TIP3   OH210943   6.961   3.658   5.766
 3660TIP3    H110944   7.016   3.684   5.840
 3660TIP3    H210945   6.880   3.627   5.807
 3661TIP3   OH210946   0.935   0.551   1.059
 3661TIP3    H110947   0.985   0.618   1.106
 3661TIP3    H210948   0.955   0.566   0.967
 3662TIP3   OH210949   1.011   5.271   4.630
 3662TIP3    H110950   1.018   5.220   4.711
 3662TIP3    H210951   0.922   5.307   4.632
 3663TIP3   OH210952   3.945   6.180   0.302
 3663TIP3    H110953   4.003   6.106   0.286
 3663TIP3    H210954   3.858   6.149   0.277
 3664TIP3   OH210955   4.059   2.195   0.237
 3664TIP3    H110956   4.103   2.152   0.164
 3664TIP3    H210957   4.120   2.263   0.266
 3665TIP3   OH210958   0.726   0.858   0.787
 3665TIP3    H110959   0.681   0.925   0.736
 3665TIP3    H210960   0.697   0.871   0.877
 3666TIP3   OH210961   3.141   4.608   3.982
 3666TIP3    H110962   3.084   4.563   3.920
 3666TIP3    H210963   3.227   4.608   3.941
 3667TIP3   OH210964   6.336   5.780   5.365
 3667TIP3    H110965   6.307   5.868   5.340
 3667TIP3    H210966   6.409   5.795   5.425
 3668TIP3   OH210967   4.434   3.389   2.257
 3668TIP3    H110968   4.347   3.418   2.285
 3668TIP3    H210969   4.438   3.297   2.284
 3669TIP3   OH210970   6.517   3.451   0.867
 3669TIP3    H110971   6.572   3.374   0.884
 3669TIP3    H210972   6.579   3.525   0.872
 3670TIP3   OH210973   0.708   6.552   4.086
 3670TIP3    H110974   0.637   6.573   4.025
 3670TIP3    H210975   0.670   6.564   4.173
 3671TIP3   OH210976   6.025   3.217   3.825
 3671TIP3    H110977   6.117   3.242   3.834
 3671TIP3    H210978   6.015   3.198   3.731
 3672TIP3   OH210979   6.279   4.182   1.512
 3672TIP3    H110980   6.275   4.267   1.469
 3672TIP3    H210981   6.366   4.178   1.551
 3673TIP3   OH210982   1.967   4.490   5.447
 3673TIP3    H110983   1.920   4.572   5.433
 3673TIP3    H210984   1.958   4.443   5.365
 3674TIP3   OH210985   4.048   1.298   2.383
 3674TIP3    H110986   4.095   1.215   2.385
 3674TIP3    H210987   3.975   1.283   2.321
 3675TIP3   OH210988   4.531   1.338   5.334
 3675TIP3    H110989   4.595   1.406   5.352
 3675TIP3    H210990   4.532   1.282   5.411
 3676TIP3   OH210991   5.870   5.385   3.805
 3676TIP3    H110992   5.903   5.468   3.839
 3676TIP3    H210993   5.928   5.365   3.731
 3677TIP3   OH210994   3.889   0.085   0.646
 3677TIP3    H110995   3.836   0.047   0.716
 3677TIP3    H210996   3.838   0.070   0.566
 3678TIP3   OH210997   4.001   1.110   1.872
 3678TIP3    H110998   3.984   1.126   1.779
 3678TIP3    H210999   3.982   1.194   1.915
 3679TIP3   OH211000   2.149   4.283   5.836
 3679TIP3    H111001   2.110   4.234   5.909
 3679TIP3    H211002   2.133   4.229   5.759
 3680TIP3   OH211003   6.280   1.561   1.609
 3680TIP3    H111004   6.195   1.519   1.596
 3680TIP3    H211005   6.259   1.650   1.638
 3681TIP3   OH211006   0.258   2.229   1.235
 3681TIP3    H111007   0.322   2.254   1.168
 3681TIP3    H211008   0.311   2.215   1.314
 3682TIP3   OH211009   6.192   0.750   0.083
 3682TIP3    H111010   6.197   0.762  -0.012
 3682TIP3    H211011   6.156   0.832   0.116
 3683TIP3   OH211012   6.143   2.473   0.726
 3683TIP3    H111013   6.101   2.395   0.690
 3683TIP3    H211014   6.077   2.542   0.718
 3684TIP3   OH211015   5.008   0.075   4.300
 3684TIP3    H111016   4.927   0.045   4.340
 3684TIP3    H211017   5.057   0.115   4.371
 3685TIP3   OH211018   6.240   4.202   0.506
 3685TIP3    H111019   6.314   4.142   0.497
 3685TIP3    H211020   6.274   4.275   0.557
 3686TIP3   OH211021   2.739   0.360   5.415
 3686TIP3    H111022   2.694   0.302   5.353
 3686TIP3    H211023   2.670   0.414   5.451
 3687TIP3   OH211024   3.276   5.150   3.935
 3687TIP3    H111025   3.258   5.217   4.001
 3687TIP3    H211026   3.192   5.105   3.923
 3688TIP3   OH211027   5.827   5.715   5.681
 3688TIP3    H111028   5.810   5.739   5.772
 3688TIP3    H211029   5.796   5.625   5.673
 3689TIP3   OH211030   4.188   2.781   4.563
 3689TIP3    H111031   4.246   2.828   4.503
 3689TIP3    H211032   4.194   2.689   4.535
 3690TIP3   OH211033   0.600   1.926   1.042
 3690TIP3    H111034   0.519   1.952   0.998
 3690TIP3    H211035   0.665   1.922   0.972
 3691TIP3   OH211036   1.996   5.057   0.091
 3691TIP3    H111037   1.977   5.143   0.129
 3691TIP3    H211038   1.953   5.059   0.005
 3692TIP3   OH211039   0.602   3.532   1.332
 3692TIP3    H111040   0.680   3.489   1.366
 3692TIP3    H211041   0.603   3.514   1.238
 3693TIP3   OH211042   1.848   2.275   4.078
 3693TIP3    H111043   1.852   2.242   3.988
 3693TIP3    H211044   1.910   2.349   4.079
 3694TIP3   OH211045   2.174   1.965   0.183
 3694TIP3    H111046   2.251   1.965   0.126
 3694TIP3    H211047   2.182   2.044   0.236
 3695TIP3   OH211048   6.673   3.535   4.494
 3695TIP3    H111049   6.671   3.461   4.434
 3695TIP3    H211050   6.746   3.589   4.463
 3696TIP3   OH211051   6.475   0.764   4.499
 3696TIP3    H111052   6.495   0.777   4.406
 3696TIP3    H211053   6.381   0.782   4.506
 3697TIP3   OH211054   4.144   4.961   5.705
 3697TIP3    H111055   4.196   4.888   5.672
 3697TIP3    H211056   4.097   4.993   5.628
 3698TIP3   OH211057   5.652   4.198   4.442
 3698TIP3    H111058   5.624   4.273   4.388
 3698TIP3    H211059   5.582   4.134   4.430
 3699TIP3   OH211060   0.093   4.070   0.071
 3699TIP3    H111061   0.118   4.134   0.138
 3699TIP3    H211062   0.110   4.113  -0.012
 3700TIP3   OH211063   1.139   3.947   3.810
 3700TIP3    H111064   1.063   3.959   3.867
 3700TIP3    H211065   1.165   3.856   3.825
 3701TIP3   OH211066   0.885   5.204   3.154
 3701TIP3    H111067   0.867   5.288   3.112
 3701TIP3    H211068   0.980   5.202   3.166
 3702TIP3   OH211069   1.355   2.671   2.174
 3702TIP3    H111070   1.354   2.762   2.146
 3702TIP3    H211071   1.419   2.629   2.116
 3703TIP3   OH211072   1.624   4.668   3.036
 3703TIP3    H111073   1.639   4.625   2.952
 3703TIP3    H211074   1.537   4.638   3.064
 3704TIP3   OH211075   3.026   2.541   3.525
 3704TIP3    H111076   2.995   2.537   3.434
 3704TIP3    H211077   3.024   2.634   3.547
 3705TIP3   OH211078   0.556   4.641   5.503
 3705TIP3    H111079   0.635   4.694   5.515
 3705TIP3    H211080   0.581   4.577   5.436
 3706TIP3   OH211081   5.820   2.225   5.102
 3706TIP3    H111082   5.768   2.296   5.140
 3706TIP3    H211083   5.906   2.264   5.087
 3707TIP3   OH211084   2.277   1.464   5.535
 3707TIP3    H111085   2.236   1.384   5.502
 3707TIP3    H211086   2.204   1.515   5.572
 3708TIP3   OH211087   6.049   6.045   4.589
 3708TIP3    H111088   6.080   5.992   4.663
 3708TIP3    H211089   6.129   6.081   4.551
 3709TIP3   OH211090   2.868   4.475   3.282
 3709TIP3    H111091   2.798   4.502   3.222
 3709TIP3    H211092   2.948   4.507   3.242
 3710TIP3   OH211093   2.603   6.387   2.351
 3710TIP3    H111094   2.553   6.370   2.271
 3710TIP3    H211095   2.692   6.402   2.321
 3711TIP3   OH211096   6.413   3.279   2.856
 3711TIP3    H111097   6.441   3.333   2.930
 3711TIP3    H211098   6.415   3.338   2.781
 3712TIP3   OH211099   4.045   5.858   4.087
 3712TIP3    H111100   4.127   5.838   4.042
 3712TIP3    H211101   3.998   5.775   4.089
 3713TIP3   OH211102   6.430   0.802   1.330
 3713TIP3    H111103   6.414   0.760   1.414
 3713TIP3    H211104   6.482   0.737   1.281
 3714TIP3   OH211105   6.960   0.155   5.349
 3714TIP3    H111106   6.952   0.069   5.306
 3714TIP3    H211107   7.010   0.137   5.429
 3715TIP3   OH211108   2.277   4.000   5.361
 3715TIP3    H111109   2.348   4.064   5.363
 3715TIP3    H211110   2.256   3.989   5.268
 3716TIP3   OH211111   1.469   1.701   1.248
 3716TIP3    H111112   1.526   1.696   1.171
 3716TIP3    H211113   1.479   1.615   1.290
 3717TIP3   OH211114   6.676   4.751   4.465
 3717TIP3    H111115   6.690   4.843   4.488
 3717TIP3    H211116   6.750   4.706   4.505
 3718TIP3   OH211117   2.709   4.284   5.115
 3718TIP3    H111118   2.690   4.322   5.201
 3718TIP3    H211119   2.660   4.202   5.114
 3719TIP3   OH211120   3.716   2.124   5.722
 3719TIP3    H111121   3.675   2.038   5.720
 3719TIP3    H211122   3.701   2.155   5.812
 3720TIP3   OH211123   4.562   6.726   1.055
 3720TIP3    H111124   4.557   6.692   0.965
 3720TIP3    H211125   4.485   6.782   1.064
 3721TIP3   OH211126   2.194   0.399   5.335
 3721TIP3    H111127   2.208   0.336   5.406
 3721TIP3    H211128   2.122   0.361   5.284
 3722TIP3   OH211129   0.073   1.917   4.079
 3722TIP3    H111130  -0.012   1.886   4.108
 3722TIP3    H211131   0.058   2.009   4.055
 3723TIP3   OH211132   6.037   1.302   3.462
 3723TIP3    H111133   6.098   1.324   3.532
 3723TIP3    H211134   5.953   1.337   3.492
 3724TIP3   OH211135   2.274   5.092   5.429
 3724TIP3    H111136   2.247   5.058   5.515
 3724TIP3    H211137   2.193   5.097   5.379
 3725TIP3   OH211138   3.043   4.079   0.178
 3725TIP3    H111139   2.977   4.141   0.148
 3725TIP3    H211140   2.997   3.995   0.182
 3726TIP3   OH211141   4.400   4.620   3.817
 3726TIP3    H111142   4.428   4.533   3.848
 3726TIP3    H211143   4.320   4.603   3.767
 3727TIP3   OH211144   2.226   5.281   0.203
 3727TIP3    H111145   2.183   5.281   0.288
 3727TIP3    H211146   2.294   5.349   0.210
 3728TIP3   OH211147   4.460   3.645   0.426
 3728TIP3    H111148   4.370   3.678   0.427
 3728TIP3    H211149   4.515   3.724   0.425
 3729TIP3   OH211150   2.227   6.739   2.678
 3729TIP3    H111151   2.320   6.751   2.659
 3729TIP3    H211152   2.194   6.827   2.696
 3730TIP3   OH211153   5.875   1.349   2.275
 3730TIP3    H111154   5.847   1.285   2.209
 3730TIP3    H211155   5.858   1.434   2.234
 3731TIP3   OH211156   1.397   4.107   1.790
 3731TIP3    H111157   1.404   4.092   1.696
 3731TIP3    H211158   1.351   4.191   1.797
 3732TIP3   OH211159   5.479   4.870   0.708
 3732TIP3    H111160   5.528   4.928   0.650
 3732TIP3    H211161   5.431   4.929   0.767
 3733TIP3   OH211162   3.744   0.764   5.015
 3733TIP3    H111163   3.827   0.775   4.969
 3733TIP3    H211164   3.758   0.686   5.070
 3734TIP3   OH211165   2.515   3.576   3.460
 3734TIP3    H111166   2.530   3.482   3.470
 3734TIP3    H211167   2.425   3.583   3.429
 3735TIP3   OH211168   1.248   2.947  -0.053
 3735TIP3    H111169   1.301   2.964   0.025
 3735TIP3    H211170   1.248   3.030  -0.101
 3736TIP3   OH211171   6.559   1.893   1.467
 3736TIP3    H111172   6.642   1.933   1.494
 3736TIP3    H211173   6.563   1.892   1.372
 3737TIP3   OH211174   4.147   4.360   2.523
 3737TIP3    H111175   4.067   4.315   2.552
 3737TIP3    H211176   4.153   4.437   2.579
 3738TIP3   OH211177   3.065   4.238   4.223
 3738TIP3    H111178   3.139   4.181   4.246
 3738TIP3    H211179   3.099   4.327   4.231
 3739TIP3   OH211180   7.114   3.938   4.154
 3739TIP3    H111181   7.066   3.882   4.214
 3739TIP3    H211182   7.146   3.879   4.086
 3740TIP3   OH211183   0.559   2.503   3.998
 3740TIP3    H111184   0.612   2.497   3.918
 3740TIP3    H211185   0.574   2.420   4.043
 3741TIP3   OH211186   3.877   5.147   4.064
 3741TIP3    H111187   3.800   5.123   4.012
 3741TIP3    H211188   3.948   5.154   4.000
 3742TIP3   OH211189   1.701   5.374   1.060
 3742TIP3    H111190   1.757   5.406   1.131
 3742TIP3    H211191   1.630   5.438   1.054
 3743TIP3   OH211192   2.623   6.441   1.263
 3743TIP3    H111193   2.554   6.375   1.249
 3743TIP3    H211194   2.680   6.433   1.186
 3744TIP3   OH211195   6.163   3.911   5.187
 3744TIP3    H111196   6.124   3.867   5.262
 3744TIP3    H211197   6.163   4.004   5.210
 3745TIP3   OH211198   3.883   6.796   5.074
 3745TIP3    H111199   3.866   6.839   5.158
 3745TIP3    H211200   3.924   6.713   5.098
 3746TIP3   OH211201   2.571   0.531   5.086
 3746TIP3    H111202   2.606   0.518   4.998
 3746TIP3    H211203   2.479   0.556   5.073
 3747TIP3   OH211204   3.615   3.107   2.401
 3747TIP3    H111205   3.538   3.165   2.399
 3747TIP3    H211206   3.646   3.107   2.310
 3748TIP3   OH211207   1.554   3.590   2.941
 3748TIP3    H111208   1.591   3.671   2.977
 3748TIP3    H211209   1.582   3.591   2.849
 3749TIP3   OH211210   3.082   1.547   2.110
 3749TIP3    H111211   3.169   1.525   2.079
 3749TIP3    H211212   3.095   1.622   2.168
 3750TIP3   OH211213   4.768   3.370   0.886
 3750TIP3    H111214   4.862   3.388   0.895
 3750TIP3    H211215   4.761   3.326   0.801
 3751TIP3   OH211216   3.317   3.794   2.232
 3751TIP3    H111217   3.359   3.879   2.248
 3751TIP3    H211218   3.223   3.814   2.229
 3752TIP3   OH211219   1.087   0.954   0.992
 3752TIP3    H111220   1.029   1.028   0.975
 3752TIP3    H211221   1.175   0.988   0.977
 3753TIP3   OH211222   2.636   4.103   4.892
 3753TIP3    H111223   2.709   4.151   4.851
 3753TIP3    H211224   2.651   4.012   4.868
 3754TIP3   OH211225   6.454   1.008   2.725
 3754TIP3    H111226   6.542   1.044   2.733
 3754TIP3    H211227   6.433   1.015   2.631
 3755TIP3   OH211228   0.791   6.219   3.488
 3755TIP3    H111229   0.782   6.125   3.477
 3755TIP3    H211230   0.866   6.243   3.434
 3756TIP3   OH211231   6.811   5.074   0.069
 3756TIP3    H111232   6.722   5.106   0.074
 3756TIP3    H211233   6.859   5.141   0.020
 3757TIP3   OH211234   1.964   2.497   3.163
 3757TIP3    H111235   1.896   2.458   3.108
 3757TIP3    H211236   1.979   2.584   3.125
 3758TIP3   OH211237   4.188   1.354   5.395
 3758TIP3    H111238   4.282   1.373   5.403
 3758TIP3    H211239   4.151   1.430   5.350
 3759TIP3   OH211240   3.284   4.366   2.268
 3759TIP3    H111241   3.365   4.371   2.218
 3759TIP3    H211242   3.214   4.380   2.204
 3760TIP3   OH211243   1.128   5.046   5.170
 3760TIP3    H111244   1.110   4.955   5.147
 3760TIP3    H211245   1.065   5.066   5.239
 3761TIP3   OH211246   5.427   2.509   2.704
 3761TIP3    H111247   5.475   2.471   2.631
 3761TIP3    H211248   5.431   2.443   2.773
 3762TIP3   OH211249   1.201   3.350   4.493
 3762TIP3    H111250   1.182   3.344   4.399
 3762TIP3    H211251   1.176   3.440   4.517
 3763TIP3   OH211252   5.820   2.755   5.166
 3763TIP3    H111253   5.876   2.687   5.128
 3763TIP3    H211254   5.794   2.809   5.091
 3764TIP3   OH211255   7.134   4.665   1.437
 3764TIP3    H111256   7.160   4.754   1.414
 3764TIP3    H211257   7.210   4.612   1.412
 3765TIP3   OH211258   0.461   2.792   4.793
 3765TIP3    H111259   0.471   2.880   4.829
 3765TIP3    H211260   0.488   2.800   4.702
 3766TIP3   OH211261   6.273   6.761   2.903
 3766TIP3    H111262   6.342   6.796   2.847
 3766TIP3    H211263   6.311   6.682   2.940
 3767TIP3   OH211264   4.881   6.667   4.353
 3767TIP3    H111265   4.806   6.714   4.390
 3767TIP3    H211266   4.957   6.717   4.382
 3768TIP3   OH211267   1.742   1.602   5.194
 3768TIP3    H111268   1.744   1.507   5.180
 3768TIP3    H211269   1.651   1.620   5.218
 3769TIP3   OH211270   4.305   5.952   2.896
 3769TIP3    H111271   4.254   6.033   2.900
 3769TIP3    H211272   4.394   5.981   2.874
 3770TIP3   OH211273   1.488   0.205   5.819
 3770TIP3    H111274   1.469   0.297   5.837
 3770TIP3    H211275   1.581   0.203   5.800
 3771TIP3   OH211276   2.514   1.109   3.996
 3771TIP3    H111277   2.492   1.144   4.082
 3771TIP3    H211278   2.443   1.138   3.939
 3772TIP3   OH211279   3.982   3.731   4.443
 3772TIP3    H111280   3.965   3.825   4.438
 3772TIP3    H211281   4.036   3.721   4.521
 3773TIP3   OH211282   3.938   5.409   4.384
 3773TIP3    H111283   3.855   5.437   4.423
 3773TIP3    H211284   3.919   5.399   4.291
 3774TIP3   OH211285   3.006   1.647   3.531
 3774TIP3    H111286   2.912   1.630   3.528
 3774TIP3    H211287   3.034   1.644   3.440
 3775TIP3   OH211288   4.411   6.589   5.049
 3775TIP3    H111289   4.335   6.556   5.096
 3775TIP3    H211290   4.430   6.523   4.982
 3776TIP3   OH211291   7.099   0.938   1.707
 3776TIP3    H111292   7.140   0.982   1.633
 3776TIP3    H211293   7.170   0.920   1.768
 3777TIP3   OH211294   4.795   6.687   2.635
 3777TIP3    H111295   4.701   6.696   2.649
 3777TIP3    H211296   4.811   6.593   2.639
 3778TIP3   OH211297   1.803   5.231   3.914
 3778TIP3    H111298   1.829   5.139   3.918
 3778TIP3    H211299   1.867   5.276   3.970
 3779TIP3   OH211300   2.769   3.089   3.759
 3779TIP3    H111301   2.767   3.184   3.769
 3779TIP3    H211302   2.711   3.072   3.684
 3780TIP3   OH211303   2.578   1.053   3.654
 3780TIP3    H111304   2.557   1.146   3.652
 3780TIP3    H211305   2.669   1.049   3.681
 3781TIP3   OH211306   6.060   1.233   4.557
 3781TIP3    H111307   6.011   1.307   4.523
 3781TIP3    H211308   6.037   1.160   4.499
 3782TIP3   OH211309   6.480   4.400   5.408
 3782TIP3    H111310   6.453   4.462   5.475
 3782TIP3    H211311   6.404   4.343   5.395
 3783TIP3   OH211312   0.464   4.563   1.957
 3783TIP3    H111313   0.522   4.639   1.959
 3783TIP3    H211314   0.512   4.498   1.905
 3784TIP3   OH211315   5.849   6.638   3.394
 3784TIP3    H111316   5.847   6.544   3.380
 3784TIP3    H211317   5.866   6.649   3.487
 3785TIP3   OH211318   1.453   4.232   1.104
 3785TIP3    H111319   1.401   4.283   1.166
 3785TIP3    H211320   1.394   4.220   1.029
 3786TIP3   OH211321   3.453   6.441   4.759
 3786TIP3    H111322   3.538   6.399   4.748
 3786TIP3    H211323   3.468   6.533   4.736
 3787TIP3   OH211324   5.142   0.177   2.762
 3787TIP3    H111325   5.144   0.115   2.836
 3787TIP3    H211326   5.063   0.229   2.777
 3788TIP3   OH211327   3.032   2.455   3.995
 3788TIP3    H111328   3.100   2.522   4.001
 3788TIP3    H211329   3.019   2.425   4.085
 3789TIP3   OH211330   4.248   0.873   5.247
 3789TIP3    H111331   4.274   0.878   5.339
 3789TIP3    H211332   4.153   0.858   5.250
 3790TIP3   OH211333   0.222   5.002   2.885
 3790TIP3    H111334   0.242   4.942   2.812
 3790TIP3    H211335   0.132   4.980   2.910
 3791TIP3   OH211336   6.418   3.850   5.110
 3791TIP3    H111337   6.475   3.922   5.138
 3791TIP3    H211338   6.334   3.869   5.151
 3792TIP3   OH211339   0.469   6.170   2.867
 3792TIP3    H111340   0.490   6.110   2.795
 3792TIP3    H211341   0.537   6.154   2.932
 3793TIP3   OH211342   3.045   4.317   5.773
 3793TIP3    H111343   3.137   4.317   5.801
 3793TIP3    H211344   3.021   4.410   5.775
 3794TIP3   OH211345   3.356   5.671   5.653
 3794TIP3    H111346   3.446   5.639   5.653
 3794TIP3    H211347   3.354   5.736   5.584
 3795TIP3   OH211348   5.823   6.720   2.622
 3795TIP3    H111349   5.860   6.805   2.647
 3795TIP3    H211350   5.733   6.740   2.596
 3796TIP3   OH211351   1.455   3.564   2.461
 3796TIP3    H111352   1.449   3.636   2.524
 3796TIP3    H211353   1.381   3.507   2.482
 3797TIP3   OH211354   0.828   0.334   3.444
 3797TIP3    H111355   0.900   0.324   3.506
 3797TIP3    H211356   0.790   0.247   3.437
 3798TIP3   OH211357   1.295   6.001   5.246
 3798TIP3    H111358   1.373   5.945   5.245
 3798TIP3    H211359   1.329   6.090   5.235
 3799TIP3   OH211360   0.666   0.918   1.048
 3799TIP3    H111361   0.655   0.868   1.129
 3799TIP3    H211362   0.593   0.981   1.048
 3800TIP3   OH211363   0.120   5.373   1.720
 3800TIP3    H111364   0.098   5.362   1.812
 3800TIP3    H211365   0.037   5.392   1.677
 3801TIP3   OH211366   0.030   4.832   2.001
 3801TIP3    H111367   0.078   4.750   1.994
 3801TIP3    H211368   0.095   4.897   2.028
 3802TIP3   OH211369   5.056   5.992   1.273
 3802TIP3    H111370   5.094   6.038   1.348
 3802TIP3    H211371   5.108   6.020   1.198
 3803TIP3   OH211372   1.061   0.371   3.936
 3803TIP3    H111373   1.085   0.460   3.913
 3803TIP3    H211374   1.062   0.323   3.854
 3804TIP3   OH211375   0.730   2.220   5.423
 3804TIP3    H111376   0.798   2.260   5.369
 3804TIP3    H211377   0.762   2.131   5.439
 3805TIP3   OH211378   6.697   3.776   0.399
 3805TIP3    H111379   6.616   3.729   0.381
 3805TIP3    H211380   6.764   3.708   0.403
 3806TIP3   OH211381   6.029   5.366   2.307
 3806TIP3    H111382   6.083   5.444   2.303
 3806TIP3    H211383   5.981   5.366   2.224
 3807TIP3   OH211384   0.291   6.072   5.571
 3807TIP3    H111385   0.199   6.049   5.562
 3807TIP3    H211386   0.292   6.166   5.586
 3808TIP3   OH211387   4.709   4.251   2.667
 3808TIP3    H111388   4.773   4.216   2.604
 3808TIP3    H211389   4.635   4.190   2.663
 3809TIP3   OH211390   3.156   0.473   4.948
 3809TIP3    H111391   3.251   0.485   4.957
 3809TIP3    H211392   3.146   0.384   4.914
 3810TIP3   OH211393   6.738   3.989   4.480
 3810TIP3    H111394   6.682   4.008   4.555
 3810TIP3    H211395   6.709   4.051   4.413
 3811TIP3   OH211396   4.762   2.452   3.109
 3811TIP3    H111397   4.681   2.401   3.106
 3811TIP3    H211398   4.832   2.386   3.111
 3812TIP3   OH211399   4.430   5.349   1.606
 3812TIP3    H111400   4.393   5.375   1.691
 3812TIP3    H211401   4.392   5.411   1.544
 3813TIP3   OH211402   0.243   6.100   4.777
 3813TIP3    H111403   0.289   6.092   4.693
 3813TIP3    H211404   0.170   6.039   4.771
 3814TIP3   OH211405   2.470   0.189   2.333
 3814TIP3    H111406   2.405   0.233   2.278
 3814TIP3    H211407   2.478   0.101   2.296
 3815TIP3   OH211408   0.098   2.818   0.134
 3815TIP3    H111409   0.045   2.846   0.059
 3815TIP3    H211410   0.039   2.824   0.209
 3816TIP3   OH211411   1.473   5.904   5.860
 3816TIP3    H111412   1.420   5.977   5.893
 3816TIP3    H211413   1.443   5.892   5.770
 3817TIP3   OH211414   0.115   5.259   4.730
 3817TIP3    H111415   0.185   5.294   4.785
 3817TIP3    H211416   0.057   5.334   4.713
 3818TIP3   OH211417   2.868   5.361   2.083
 3818TIP3    H111418   2.863   5.456   2.088
 3818TIP3    H211419   2.949   5.344   2.034
 3819TIP3   OH211420   2.854   3.062   4.656
 3819TIP3    H111421   2.822   3.144   4.617
 3819TIP3    H211422   2.874   3.006   4.581
 3820TIP3   OH211423   1.050   3.951   3.076
 3820TIP3    H111424   1.126   3.971   3.130
 3820TIP3    H211425   0.975   3.975   3.130
 3821TIP3   OH211426   7.044   5.967   2.814
 3821TIP3    H111427   7.115   6.031   2.816
 3821TIP3    H211428   7.038   5.934   2.904
 3822TIP3   OH211429   3.815   5.691   2.483
 3822TIP3    H111430   3.801   5.611   2.433
 3822TIP3    H211431   3.802   5.665   2.574
 3823TIP3   OH211432   5.250   2.528   4.199
 3823TIP3    H111433   5.232   2.435   4.214
 3823TIP3    H211434   5.165   2.567   4.183
 3824TIP3   OH211435   1.198   1.957   4.900
 3824TIP3    H111436   1.242   1.890   4.952
 3824TIP3    H211437   1.115   1.971   4.945
 3825TIP3   OH211438   0.775   2.104   3.271
 3825TIP3    H111439   0.770   2.051   3.192
 3825TIP3    H211440   0.812   2.046   3.338
 3826TIP3   OH211441   0.842   5.803   2.220
 3826TIP3    H111442   0.860   5.777   2.129
 3826TIP3    H211443   0.887   5.737   2.273
 3827TIP3   OH211444   3.811   2.199   5.483
 3827TIP3    H111445   3.764   2.187   5.565
 3827TIP3    H211446   3.849   2.113   5.464
 3828TIP3   OH211447   1.950   3.645   4.235
 3828TIP3    H111448   2.009   3.603   4.172
 3828TIP3    H211449   1.943   3.582   4.307
 3829TIP3   OH211450   0.699   1.253   4.222
 3829TIP3    H111451   0.647   1.308   4.163
 3829TIP3    H211452   0.656   1.262   4.307
 3830TIP3   OH211453   3.297   5.777   1.710
 3830TIP3    H111454   3.305   5.859   1.759
 3830TIP3    H211455   3.387   5.743   1.705
 3831TIP3   OH211456   1.419   4.941   3.028
 3831TIP3    H111457   1.474   4.935   2.950
 3831TIP3    H211458   1.479   4.929   3.101
 3832TIP3   OH211459   3.229   6.742   5.761
 3832TIP3    H111460   3.164   6.710   5.698
 3832TIP3    H211461   3.313   6.711   5.726
 3833TIP3   OH211462   3.055   1.410   4.712
 3833TIP3    H111463   3.040   1.317   4.694
 3833TIP3    H211464   3.144   1.426   4.681
 3834TIP3   OH211465   3.696   3.330   5.496
 3834TIP3    H111466   3.654   3.298   5.575
 3834TIP3    H211467   3.625   3.370   5.445
 3835TIP3   OH211468   6.680   1.764   5.065
 3835TIP3    H111469   6.683   1.857   5.046
 3835TIP3    H211470   6.647   1.723   4.985
 3836TIP3   OH211471   2.477   3.781   3.210
 3836TIP3    H111472   2.448   3.720   3.142
 3836TIP3    H211473   2.499   3.861   3.163
 3837TIP3   OH211474   5.399   3.476   5.237
 3837TIP3    H111475   5.317   3.524   5.250
 3837TIP3    H211476   5.383   3.391   5.278
 3838TIP3   OH211477   4.164   1.898   4.931
 3838TIP3    H111478   4.248   1.908   4.975
 3838TIP3    H211479   4.100   1.902   5.003
 3839TIP3   OH211480   0.786   5.170   5.165
 3839TIP3    H111481   0.749   5.248   5.207
 3839TIP3    H211482   0.813   5.114   5.237
 3840TIP3   OH211483   2.398   4.306   4.873
 3840TIP3    H111484   2.379   4.352   4.955
 3840TIP3    H211485   2.467   4.244   4.896
 3841TIP3   OH211486   6.420   5.352   0.749
 3841TIP3    H111487   6.485   5.311   0.806
 3841TIP3    H211488   6.422   5.299   0.669
 3842TIP3   OH211489   6.658   6.512   1.368
 3842TIP3    H111490   6.600   6.464   1.309
 3842TIP3    H211491   6.699   6.444   1.421
 3843TIP3   OH211492   6.912   2.950   4.699
 3843TIP3    H111493   6.906   2.905   4.784
 3843TIP3    H211494   6.828   2.995   4.690
 3844TIP3   OH211495   3.687   0.091   1.948
 3844TIP3    H111496   3.684   0.076   2.042
 3844TIP3    H211497   3.613   0.149   1.930
 3845TIP3   OH211498   1.199   1.245   3.080
 3845TIP3    H111499   1.267   1.310   3.096
 3845TIP3    H211500   1.122   1.280   3.125
 3846TIP3   OH211501   6.997   5.788   4.173
 3846TIP3    H111502   6.902   5.797   4.174
 3846TIP3    H211503   7.029   5.869   4.133
 3847TIP3   OH211504   2.068   3.435   0.182
 3847TIP3    H111505   2.065   3.367   0.115
 3847TIP3    H211506   1.982   3.431   0.224
 3848TIP3   OH211507   5.256   5.404   2.591
 3848TIP3    H111508   5.161   5.405   2.601
 3848TIP3    H211509   5.270   5.381   2.499
 3849TIP3   OH211510   4.953   1.050   4.278
 3849TIP3    H111511   4.988   0.993   4.347
 3849TIP3    H211512   4.938   0.991   4.204
 3850TIP3   OH211513   5.365   4.243   4.355
 3850TIP3    H111514   5.360   4.177   4.424
 3850TIP3    H211515   5.364   4.193   4.274
 3851TIP3   OH211516   2.585   5.413  -0.018
 3851TIP3    H111517   2.535   5.423   0.063
 3851TIP3    H211518   2.642   5.490  -0.021
 3852TIP3   OH211519   5.639   3.201   1.896
 3852TIP3    H111520   5.636   3.293   1.871
 3852TIP3    H211521   5.673   3.201   1.986
 3853TIP3   OH211522   1.990   1.731   0.713
 3853TIP3    H111523   1.957   1.710   0.626
 3853TIP3    H211524   2.076   1.690   0.717
 3854TIP3   OH211525   3.139   4.789   1.730
 3854TIP3    H111526   3.161   4.740   1.651
 3854TIP3    H211527   3.222   4.799   1.776
 3855TIP3   OH211528   2.126   2.329   3.001
 3855TIP3    H111529   2.061   2.396   3.021
 3855TIP3    H211530   2.075   2.255   2.966
 3856TIP3   OH211531   1.303   1.215   1.295
 3856TIP3    H111532   1.212   1.225   1.268
 3856TIP3    H211533   1.322   1.122   1.282
 3857TIP3   OH211534   4.963   3.676   1.452
 3857TIP3    H111535   4.936   3.600   1.503
 3857TIP3    H211536   4.970   3.746   1.517
 3858TIP3   OH211537   4.560   3.132   4.259
 3858TIP3    H111538   4.549   3.043   4.294
 3858TIP3    H211539   4.500   3.137   4.185
 3859TIP3   OH211540   2.648   4.793   4.383
 3859TIP3    H111541   2.724   4.737   4.393
 3859TIP3    H211542   2.633   4.798   4.289
 3860TIP3   OH211543   3.132   5.478   5.026
 3860TIP3    H111544   3.188   5.447   4.955
 3860TIP3    H211545   3.044   5.448   5.003
 3861TIP3   OH211546   4.155   0.065   4.218
 3861TIP3    H111547   4.084   0.013   4.256
 3861TIP3    H211548   4.113   0.118   4.151
 3862TIP3   OH211549   2.729   3.214   5.843
 3862TIP3    H111550   2.722   3.296   5.793
 3862TIP3    H211551   2.770   3.240   5.925
 3863TIP3   OH211552   2.681   3.628   1.775
 3863TIP3    H111553   2.644   3.540   1.777
 3863TIP3    H211554   2.772   3.616   1.801
 3864TIP3   OH211555   6.826   1.314   0.480
 3864TIP3    H111556   6.791   1.336   0.566
 3864TIP3    H211557   6.825   1.218   0.476
 3865TIP3   OH211558   0.624   3.721   3.205
 3865TIP3    H111559   0.695   3.769   3.249
 3865TIP3    H211560   0.575   3.789   3.158
 3866TIP3   OH211561   3.404   3.082   2.727
 3866TIP3    H111562   3.322   3.126   2.704
 3866TIP3    H211563   3.431   3.124   2.808
 3867TIP3   OH211564   5.412   4.644   0.377
 3867TIP3    H111565   5.363   4.723   0.354
 3867TIP3    H211566   5.363   4.606   0.450
 3868TIP3   OH211567   5.759   2.715   2.682
 3868TIP3    H111568   5.829   2.739   2.743
 3868TIP3    H211569   5.681   2.757   2.717
 3869TIP3   OH211570   6.260   4.835   1.873
 3869TIP3    H111571   6.345   4.842   1.916
 3869TIP3    H211572   6.280   4.814   1.782
 3870TIP3   OH211573   6.067   5.931   2.112
 3870TIP3    H111574   6.092   5.869   2.043
 3870TIP3    H211575   5.972   5.927   2.115
 3871TIP3   OH211576   3.458   4.945   3.843
 3871TIP3    H111577   3.383   4.981   3.889
 3871TIP3    H211578   3.445   4.850   3.847
 3872TIP3   OH211579   4.213   2.075   5.280
 3872TIP3    H111580   4.206   2.134   5.354
 3872TIP3    H211581   4.238   2.132   5.207
 3873TIP3   OH211582   1.981   4.913   4.457
 3873TIP3    H111583   2.065   4.886   4.495
 3873TIP3    H211584   2.004   4.952   4.373
 3874TIP3   OH211585   6.197   1.336   0.615
 3874TIP3    H111586   6.161   1.250   0.595
 3874TIP3    H211587   6.270   1.346   0.554
 3875TIP3   OH211588   2.557   1.384   0.125
 3875TIP3    H111589   2.567   1.399   0.219
 3875TIP3    H211590   2.463   1.379   0.111
 3876TIP3   OH211591   2.166   5.042   1.402
 3876TIP3    H111592   2.253   5.057   1.365
 3876TIP3    H211593   2.112   5.112   1.366
 3877TIP3   OH211594   2.666   2.157   2.123
 3877TIP3    H111595   2.741   2.135   2.179
 3877TIP3    H211596   2.654   2.079   2.068
 3878TIP3   OH211597   0.869   5.098   4.199
 3878TIP3    H111598   0.897   5.125   4.112
 3878TIP3    H211599   0.946   5.109   4.255
 3879TIP3   OH211600   5.979   2.473   3.585
 3879TIP3    H111601   6.064   2.460   3.543
 3879TIP3    H211602   5.999   2.478   3.678
 3880TIP3   OH211603   6.782   1.392   4.010
 3880TIP3    H111604   6.718   1.414   3.942
 3880TIP3    H211605   6.865   1.425   3.976
 3881TIP3   OH211606   1.472   2.030   1.765
 3881TIP3    H111607   1.546   2.037   1.825
 3881TIP3    H211608   1.397   2.013   1.822
 3882TIP3   OH211609   4.005   1.355   2.038
 3882TIP3    H111610   4.056   1.298   2.094
 3882TIP3    H211611   4.033   1.444   2.062
 3883TIP3   OH211612   4.743   6.123   0.546
 3883TIP3    H111613   4.660   6.147   0.504
 3883TIP3    H211614   4.791   6.206   0.555
 3884TIP3   OH211615   1.802   4.461   0.118
 3884TIP3    H111616   1.786   4.377   0.160
 3884TIP3    H211617   1.858   4.509   0.179
 3885TIP3   OH211618   0.059   2.436   1.307
 3885TIP3    H111619   0.071   2.525   1.274
 3885TIP3    H211620   0.131   2.386   1.268
 3886TIP3   OH211621   0.869   0.697   4.124
 3886TIP3    H111622   0.962   0.692   4.102
 3886TIP3    H211623   0.864   0.765   4.191
 3887TIP3   OH211624   4.553   6.699   5.870
 3887TIP3    H111625   4.592   6.776   5.830
 3887TIP3    H211626   4.527   6.644   5.796
 3888TIP3   OH211627   1.429   0.626   4.020
 3888TIP3    H111628   1.492   0.638   4.091
 3888TIP3    H211629   1.345   0.616   4.065
 3889TIP3   OH211630   5.670   5.549   5.447
 3889TIP3    H111631   5.669   5.501   5.530
 3889TIP3    H211632   5.718   5.493   5.387
 3890TIP3   OH211633   3.120   3.923   3.828
 3890TIP3    H111634   3.213   3.902   3.822
 3890TIP3    H211635   3.085   3.855   3.886
 3891TIP3   OH211636   3.484   1.945   5.562
 3891TIP3    H111637   3.421   1.946   5.490
 3891TIP3    H211638   3.554   1.886   5.532
 3892TIP3   OH211639   4.157   2.372   3.336
 3892TIP3    H111640   4.101   2.449   3.349
 3892TIP3    H211641   4.115   2.304   3.388
 3893TIP3   OH211642   4.219   0.542   3.095
 3893TIP3    H111643   4.217   0.491   3.176
 3893TIP3    H211644   4.200   0.478   3.026
 3894TIP3   OH211645   5.704   0.636   2.527
 3894TIP3    H111646   5.649   0.682   2.590
 3894TIP3    H211647   5.666   0.658   2.442
 3895TIP3   OH211648   4.934   2.909   2.980
 3895TIP3    H111649   4.858   2.878   2.930
 3895TIP3    H211650   4.948   2.998   2.949
 3896TIP3   OH211651   4.908   4.605   2.995
 3896TIP3    H111652   4.850   4.583   3.068
 3896TIP3    H211653   4.872   4.559   2.920
 3897TIP3   OH211654   1.850   5.717   4.037
 3897TIP3    H111655   1.776   5.699   4.095
 3897TIP3    H211656   1.819   5.693   3.950
 3898TIP3   OH211657   6.716   0.425   5.037
 3898TIP3    H111658   6.670   0.356   4.990
 3898TIP3    H211659   6.787   0.452   4.978
 3899TIP3   OH211660   4.046   1.073   3.458
 3899TIP3    H111661   4.115   1.082   3.393
 3899TIP3    H211662   4.003   0.990   3.437
 3900TIP3   OH211663   3.945   2.213   2.290
 3900TIP3    H111664   3.899   2.293   2.264
 3900TIP3    H211665   3.909   2.192   2.376
 3901TIP3   OH211666   6.725   4.386   1.652
 3901TIP3    H111667   6.813   4.348   1.658
 3901TIP3    H211668   6.739   4.476   1.624
 3902TIP3   OH211669   3.832   1.292   3.204
 3902TIP3    H111670   3.830   1.207   3.248
 3902TIP3    H211671   3.756   1.339   3.239
 3903TIP3   OH211672   5.292   2.999   2.871
 3903TIP3    H111673   5.215   3.001   2.814
 3903TIP3    H211674   5.282   3.077   2.926
 3904TIP3   OH211675   6.384   3.760   3.285
 3904TIP3    H111676   6.422   3.826   3.343
 3904TIP3    H211677   6.290   3.762   3.305
 3905TIP3   OH211678   7.092   4.359   1.766
 3905TIP3    H111679   7.016   4.322   1.811
 3905TIP3    H211680   7.125   4.427   1.824
 3906TIP3   OH211681   3.400   3.353   0.096
 3906TIP3    H111682   3.340   3.377   0.025
 3906TIP3    H211683   3.418   3.436   0.141
 3907TIP3   OH211684   6.333   2.438   2.147
 3907TIP3    H111685   6.295   2.483   2.223
 3907TIP3    H211686   6.258   2.416   2.092
 3908TIP3   OH211687   0.355   3.614   1.444
 3908TIP3    H111688   0.438   3.633   1.401
 3908TIP3    H211689   0.374   3.622   1.538
 3909TIP3   OH211690   4.688   0.192   2.730
 3909TIP3    H111691   4.678   0.237   2.646
 3909TIP3    H211692   4.761   0.238   2.773
 3910TIP3   OH211693   4.852   6.737   5.205
 3910TIP3    H111694   4.879   6.651   5.172
 3910TIP3    H211695   4.777   6.719   5.262
 3911TIP3   OH211696   4.215   2.779   1.462
 3911TIP3    H111697   4.144   2.823   1.508
 3911TIP3    H211698   4.204   2.805   1.370
 3912TIP3   OH211699   5.469   2.347   5.055
 3912TIP3    H111700   5.398   2.284   5.062
 3912TIP3    H211701   5.460   2.384   4.967
 3913TIP3   OH211702   4.619   6.301   3.416
 3913TIP3    H111703   4.529   6.273   3.401
 3913TIP3    H211704   4.628   6.303   3.511
 3914TIP3   OH211705   4.179   0.835   3.710
 3914TIP3    H111706   4.120   0.897   3.754
 3914TIP3    H211707   4.266   0.871   3.723
 3915TIP3   OH211708   1.283   6.349   2.519
 3915TIP3    H111709   1.261   6.267   2.475
 3915TIP3    H211710   1.310   6.408   2.449
 3916TIP3   OH211711   2.520   4.525   3.215
 3916TIP3    H111712   2.432   4.512   3.178
 3916TIP3    H211713   2.533   4.619   3.213
 3917TIP3   OH211714   4.038   5.392   5.259
 3917TIP3    H111715   3.988   5.410   5.338
 3917TIP3    H211716   4.125   5.369   5.291
 3918TIP3   OH211717   2.860   1.014   1.909
 3918TIP3    H111718   2.888   0.928   1.939
 3918TIP3    H211719   2.936   1.048   1.861
 3919TIP3   OH211720   2.947   2.498   0.786
 3919TIP3    H111721   2.987   2.577   0.821
 3919TIP3    H211722   2.853   2.513   0.793
 3920TIP3   OH211723   0.618   0.623   4.756
 3920TIP3    H111724   0.550   0.555   4.761
 3920TIP3    H211725   0.569   0.705   4.749
 3921TIP3   OH211726   1.470   2.854   1.074
 3921TIP3    H111727   1.565   2.857   1.058
 3921TIP3    H211728   1.450   2.762   1.087
 3922TIP3   OH211729   1.653   0.800   5.766
 3922TIP3    H111730   1.630   0.721   5.816
 3922TIP3    H211731   1.725   0.839   5.815
 3923TIP3   OH211732   2.571   2.046   4.032
 3923TIP3    H111733   2.564   1.986   4.106
 3923TIP3    H211734   2.523   2.124   4.061
 3924TIP3   OH211735   5.586   3.500   4.416
 3924TIP3    H111736   5.605   3.561   4.346
 3924TIP3    H211737   5.667   3.451   4.429
 3925TIP3   OH211738   3.454   6.173   4.928
 3925TIP3    H111739   3.518   6.201   4.862
 3925TIP3    H211740   3.412   6.096   4.889
 3926TIP3   OH211741   4.593   3.614   4.138
 3926TIP3    H111742   4.636   3.629   4.054
 3926TIP3    H211743   4.611   3.692   4.189
 3927TIP3   OH211744   0.162   3.011   3.092
 3927TIP3    H111745   0.178   2.934   3.037
 3927TIP3    H211746   0.239   3.017   3.148
 3928TIP3   OH211747   2.952   4.994   5.099
 3928TIP3    H111748   2.958   4.910   5.145
 3928TIP3    H211749   2.886   4.979   5.031
 3929TIP3   OH211750   0.934   2.831   3.065
 3929TIP3    H111751   0.980   2.874   2.994
 3929TIP3    H211752   0.886   2.759   3.023
 3930TIP3   OH211753   5.740   3.882   3.480
 3930TIP3    H111754   5.749   3.876   3.385
 3930TIP3    H211755   5.662   3.936   3.494
 3931TIP3   OH211756   3.378   6.584   0.143
 3931TIP3    H111757   3.296   6.549   0.179
 3931TIP3    H211758   3.398   6.659   0.199
 3932TIP3   OH211759   1.996   1.001   1.782
 3932TIP3    H111760   2.084   0.968   1.800
 3932TIP3    H211761   2.010   1.081   1.732
 3933TIP3   OH211762   5.366   4.023   5.580
 3933TIP3    H111763   5.282   3.975   5.581
 3933TIP3    H211764   5.383   4.039   5.487
 3934TIP3   OH211765   5.237   1.730   3.704
 3934TIP3    H111766   5.329   1.744   3.728
 3934TIP3    H211767   5.193   1.809   3.735
 3935TIP3   OH211768   3.138   0.254   3.283
 3935TIP3    H111769   3.083   0.311   3.229
 3935TIP3    H211770   3.228   0.278   3.260
 3936TIP3   OH211771   0.338   3.607   4.968
 3936TIP3    H111772   0.369   3.667   5.036
 3936TIP3    H211773   0.250   3.583   4.996
 3937TIP3   OH211774   0.732   6.171   4.584
 3937TIP3    H111775   0.651   6.202   4.541
 3937TIP3    H211776   0.756   6.092   4.535
 3938TIP3   OH211777   2.964   4.873   4.388
 3938TIP3    H111778   2.942   4.781   4.373
 3938TIP3    H211779   2.942   4.888   4.480
 3939TIP3   OH211780   2.244   0.149   3.420
 3939TIP3    H111781   2.248   0.147   3.324
 3939TIP3    H211782   2.238   0.058   3.446
 3940TIP3   OH211783   1.365   2.015   1.036
 3940TIP3    H111784   1.438   1.973   0.991
 3940TIP3    H211785   1.310   1.942   1.065
 3941TIP3   OH211786   1.408   0.646   5.486
 3941TIP3    H111787   1.394   0.726   5.538
 3941TIP3    H211788   1.320   0.613   5.469
 3942TIP3   OH211789   0.797   1.396   2.124
 3942TIP3    H111790   0.802   1.474   2.070
 3942TIP3    H211791   0.888   1.371   2.139
 3943TIP3   OH211792   1.630   0.318   1.455
 3943TIP3    H111793   1.681   0.305   1.376
 3943TIP3    H211794   1.539   0.320   1.426
 3944TIP3   OH211795   1.680   2.448   2.718
 3944TIP3    H111796   1.589   2.427   2.698
 3944TIP3    H211797   1.724   2.451   2.633
 3945TIP3   OH211798   5.492   3.795   4.474
 3945TIP3    H111799   5.527   3.851   4.544
 3945TIP3    H211800   5.459   3.718   4.520
 3946TIP3   OH211801   4.401   2.897   1.133
 3946TIP3    H111802   4.308   2.918   1.144
 3946TIP3    H211803   4.412   2.814   1.179
 3947TIP3   OH211804   6.669   5.872   5.201
 3947TIP3    H111805   6.593   5.889   5.145
 3947TIP3    H211806   6.738   5.930   5.167
 3948TIP3   OH211807   4.380   0.191   5.328
 3948TIP3    H111808   4.470   0.164   5.310
 3948TIP3    H211809   4.369   0.179   5.422
 3949TIP3   OH211810   5.688   5.010   1.762
 3949TIP3    H111811   5.707   4.930   1.811
 3949TIP3    H211812   5.653   4.979   1.678
 3950TIP3   OH211813   5.811   6.101   4.725
 3950TIP3    H111814   5.888   6.093   4.669
 3950TIP3    H211815   5.738   6.115   4.664
 3951TIP3   OH211816   1.275   1.681   5.698
 3951TIP3    H111817   1.205   1.688   5.763
 3951TIP3    H211818   1.337   1.618   5.736
 3952TIP3   OH211819   3.612   6.532   4.363
 3952TIP3    H111820   3.664   6.468   4.413
 3952TIP3    H211821   3.642   6.521   4.273
 3953TIP3   OH211822   0.089   5.533   2.925
 3953TIP3    H111823   0.132   5.456   2.887
 3953TIP3    H211824   0.006   5.500   2.959
 3954TIP3   OH211825   4.208   4.932   4.449
 3954TIP3    H111826   4.246   4.856   4.406
 3954TIP3    H211827   4.251   5.007   4.408
 3955TIP3   OH211828   7.143   0.211   4.758
 3955TIP3    H111829   7.058   0.240   4.726
 3955TIP3    H211830   7.128   0.120   4.786
 3956TIP3   OH211831   0.593   1.434   0.754
 3956TIP3    H111832   0.653   1.479   0.694
 3956TIP3    H211833   0.650   1.398   0.822
 3957TIP3   OH211834   0.922   3.875   4.481
 3957TIP3    H111835   0.974   3.817   4.425
 3957TIP3    H211836   0.899   3.949   4.424
 3958TIP3   OH211837   2.901   1.141   2.162
 3958TIP3    H111838   2.863   1.106   2.082
 3958TIP3    H211839   2.830   1.138   2.226
 3959TIP3   OH211840   1.554   0.474   0.928
 3959TIP3    H111841   1.604   0.451   1.005
 3959TIP3    H211842   1.467   0.496   0.961
 3960TIP3   OH211843   4.508   0.929   5.182
 3960TIP3    H111844   4.416   0.904   5.181
 3960TIP3    H211845   4.525   0.954   5.272
 3961TIP3   OH211846   6.577   3.071   2.104
 3961TIP3    H111847   6.496   3.105   2.066
 3961TIP3    H211848   6.639   3.144   2.095
 3962TIP3   OH211849   3.044   4.515   2.393
 3962TIP3    H111850   3.062   4.458   2.468
 3962TIP3    H211851   3.013   4.597   2.431
 3963TIP3   OH211852   2.935   0.519   2.744
 3963TIP3    H111853   2.921   0.589   2.808
 3963TIP3    H211854   2.971   0.564   2.667
 3964TIP3   OH211855   4.286   5.269   3.667
 3964TIP3    H111856   4.344   5.196   3.648
 3964TIP3    H211857   4.264   5.306   3.581
 3965TIP3   OH211858   4.497   3.453   3.068
 3965TIP3    H111859   4.557   3.524   3.090
 3965TIP3    H211860   4.492   3.454   2.973
 3966TIP3   OH211861   5.132   5.591   0.889
 3966TIP3    H111862   5.038   5.578   0.889
 3966TIP3    H211863   5.159   5.573   0.980
 3967TIP3   OH211864   5.081   3.861   2.874
 3967TIP3    H111865   5.094   3.837   2.966
 3967TIP3    H211866   5.022   3.936   2.878
 3968TIP3   OH211867   2.586   3.687   3.979
 3968TIP3    H111868   2.500   3.650   4.003
 3968TIP3    H211869   2.592   3.674   3.885
 3969TIP3   OH211870   6.635   1.371   0.660
 3969TIP3    H111871   6.607   1.434   0.593
 3969TIP3    H211872   6.563   1.308   0.665
 3970TIP3   OH211873   0.923   0.232   3.147
 3970TIP3    H111874   0.970   0.204   3.226
 3970TIP3    H211875   0.927   0.327   3.149
 3971TIP3   OH211876   5.119   5.182   4.194
 3971TIP3    H111877   5.117   5.274   4.168
 3971TIP3    H211878   5.185   5.179   4.264
 3972TIP3   OH211879   6.701   6.653   4.813
 3972TIP3    H111880   6.776   6.649   4.872
 3972TIP3    H211881   6.714   6.733   4.763
 3973TIP3   OH211882   6.533   6.755   3.668
 3973TIP3    H111883   6.532   6.803   3.751
 3973TIP3    H211884   6.455   6.699   3.673
 3974TIP3   OH211885   1.623   0.701   0.790
 3974TIP3    H111886   1.637   0.615   0.828
 3974TIP3    H211887   1.581   0.683   0.705
 3975TIP3   OH211888   6.986   6.035   5.433
 3975TIP3    H111889   6.992   6.130   5.424
 3975TIP3    H211890   6.893   6.018   5.446
 3976TIP3   OH211891   0.190   5.768   4.900
 3976TIP3    H111892   0.132   5.842   4.881
 3976TIP3    H211893   0.158   5.698   4.843
 3977TIP3   OH211894   6.215   0.214   2.443
 3977TIP3    H111895   6.260   0.148   2.495
 3977TIP3    H211896   6.140   0.240   2.497
 3978TIP3   OH211897   5.913   0.874   5.927
 3978TIP3    H111898   5.841   0.932   5.905
 3978TIP3    H211899   5.927   0.821   5.848
 3979TIP3   OH211900   0.430   2.189   1.029
 3979TIP3    H111901   0.391   2.103   1.015
 3979TIP3    H211902   0.478   2.208   0.948
 3980TIP3   OH211903   3.940   2.531   1.527
 3980TIP3    H111904   3.980   2.611   1.494
 3980TIP3    H211905   3.913   2.483   1.448
 3981TIP3   OH211906   4.763   5.082   0.484
 3981TIP3    H111907   4.851   5.116   0.494
 3981TIP3    H211908   4.774   5.001   0.434
 3982TIP3   OH211909   6.211   3.799   4.264
 3982TIP3    H111910   6.128   3.835   4.232
 3982TIP3    H211911   6.208   3.810   4.359
 3983TIP3   OH211912   4.264   6.049   2.241
 3983TIP3    H111913   4.267   6.093   2.326
 3983TIP3    H211914   4.187   6.086   2.198
 3984TIP3   OH211915   5.711   3.333   5.218
 3984TIP3    H111916   5.715   3.429   5.223
 3984TIP3    H211917   5.680   3.315   5.130
 3985TIP3   OH211918   0.815   1.247   2.423
 3985TIP3    H111919   0.869   1.265   2.500
 3985TIP3    H211920   0.725   1.247   2.456
 3986TIP3   OH211921   1.012   3.068   2.849
 3986TIP3    H111922   1.052   3.109   2.926
 3986TIP3    H211923   1.083   3.064   2.785
 3987TIP3   OH211924   6.096   5.280   4.903
 3987TIP3    H111925   6.157   5.354   4.901
 3987TIP3    H211926   6.022   5.308   4.850
 3988TIP3   OH211927   3.828   4.133   4.626
 3988TIP3    H111928   3.768   4.099   4.560
 3988TIP3    H211929   3.915   4.107   4.595
 3989TIP3   OH211930   2.392   1.680   1.784
 3989TIP3    H111931   2.411   1.596   1.742
 3989TIP3    H211932   2.425   1.670   1.873
 3990TIP3   OH211933   6.325   6.718   5.337
 3990TIP3    H111934   6.356   6.789   5.281
 3990TIP3    H211935   6.404   6.683   5.377
 3991TIP3   OH211936   5.282   4.703   2.389
 3991TIP3    H111937   5.280   4.678   2.481
 3991TIP3    H211938   5.247   4.793   2.388
 3992TIP3   OH211939   3.904   2.263   1.616
 3992TIP3    H111940   3.907   2.359   1.615
 3992TIP3    H211941   3.858   2.240   1.535
 3993TIP3   OH211942   5.164   1.417   4.094
 3993TIP3    H111943   5.166   1.322   4.078
 3993TIP3    H211944   5.158   1.424   4.189
 3994TIP3   OH211945   1.233   1.840   5.454
 3994TIP3    H111946   1.224   1.799   5.540
 3994TIP3    H211947   1.299   1.909   5.467
 3995TIP3   OH211948   2.574   1.268   2.047
 3995TIP3    H111949   2.561   1.186   2.000
 3995TIP3    H211950   2.646   1.311   2.001
 3996TIP3   OH211951   6.862   2.390   4.553
 3996TIP3    H111952   6.904   2.391   4.467
 3996TIP3    H211953   6.933   2.405   4.615
 3997TIP3   OH211954   2.072   1.529   4.730
 3997TIP3    H111955   2.124   1.566   4.659
 3997TIP3    H211956   2.134   1.512   4.800
 3998TIP3   OH211957   3.816   0.681   5.580
 3998TIP3    H111958   3.760   0.755   5.558
 3998TIP3    H211959   3.806   0.671   5.675
 3999TIP3   OH211960   3.400   3.359   3.939
 3999TIP3    H111961   3.444   3.442   3.922
 3999TIP3    H211962   3.425   3.303   3.866
 4000TIP3   OH211963   5.268   3.762   5.804
 4000TIP3    H111964   5.323   3.739   5.729
 4000TIP3    H211965   5.306   3.843   5.838
 4001TIP3   OH211966   4.665   5.207   0.020
 4001TIP3    H111967   4.591   5.217  -0.040
 4001TIP3    H211968   4.659   5.116   0.050
 4002TIP3   OH211969   0.925   2.282   0.095
 4002TIP3    H111970   0.956   2.369   0.071
 4002TIP3    H211971   0.923   2.283   0.191
 4003TIP3   OH211972   5.320   1.525   0.435
 4003TIP3    H111973   5.396   1.467   0.431
 4003TIP3    H211974   5.331   1.574   0.516
 4004TIP3   OH211975   6.556   0.522   0.376
 4004TIP3    H111976   6.559   0.618   0.383
 4004TIP3    H211977   6.522   0.506   0.288
 4005TIP3   OH211978   6.109   4.808   4.978
 4005TIP3    H111979   6.160   4.751   4.921
 4005TIP3    H211980   6.174   4.865   5.019
 4006TIP3   OH211981   2.101   1.139   0.437
 4006TIP3    H111982   2.014   1.166   0.464
 4006TIP3    H211983   2.099   1.140   0.341
 4007TIP3   OH211984   2.612   4.369   5.796
 4007TIP3    H111985   2.596   4.379   5.702
 4007TIP3    H211986   2.636   4.457   5.825
 4008TIP3   OH211987   1.951   2.555   1.758
 4008TIP3    H111988   1.960   2.489   1.826
 4008TIP3    H211989   1.997   2.518   1.683
 4009TIP3   OH211990   4.872   1.046   0.790
 4009TIP3    H111991   4.928   0.997   0.731
 4009TIP3    H211992   4.878   1.137   0.759
 4010TIP3   OH211993   1.701   0.675   2.227
 4010TIP3    H111994   1.689   0.740   2.158
 4010TIP3    H211995   1.612   0.650   2.252
 4011TIP3   OH211996   4.042   6.485   0.792
 4011TIP3    H111997   3.977   6.425   0.757
 4011TIP3    H211998   3.991   6.557   0.829
 4012TIP3   OH211999   6.643   5.227   3.646
 4012TIP3    H112000   6.733   5.242   3.616
 4012TIP3    H212001   6.620   5.141   3.612
 4013TIP3   OH212002   1.688   5.687   3.806
 4013TIP3    H112003   1.636   5.654   3.880
 4013TIP3    H212004   1.692   5.614   3.745
 4014TIP3   OH212005   5.449   6.078   0.681
 4014TIP3    H112006   5.475   6.022   0.607
 4014TIP3    H212007   5.362   6.046   0.706
 4015TIP3   OH212008   1.169   2.711   0.157
 4015TIP3    H112009   1.165   2.800   0.123
 4015TIP3    H212010   1.251   2.709   0.208
 4016TIP3   OH212011   2.920   5.355   3.209
 4016TIP3    H112012   2.940   5.301   3.132
 4016TIP3    H212013   2.950   5.443   3.185
 4017TIP3   OH212014   2.158   3.740   0.670
 4017TIP3    H112015   2.228   3.793   0.706
 4017TIP3    H212016   2.202   3.675   0.615
 4018TIP3   OH212017   0.941   0.402   0.562
 4018TIP3    H112018   0.862   0.403   0.508
 4018TIP3    H212019   0.997   0.470   0.523
 4019TIP3   OH212020   5.890   5.308   2.524
 4019TIP3    H112021   5.842   5.231   2.492
 4019TIP3    H212022   5.948   5.332   2.452
 4020TIP3   OH212023   1.313   5.581   0.790
 4020TIP3    H112024   1.262   5.512   0.748
 4020TIP3    H212025   1.367   5.535   0.854
 4021TIP3   OH212026   2.087   2.160   5.297
 4021TIP3    H112027   2.165   2.179   5.246
 4021TIP3    H212028   2.038   2.097   5.244
 4022TIP3   OH212029   6.487   0.638   1.552
 4022TIP3    H112030   6.533   0.648   1.635
 4022TIP3    H212031   6.534   0.568   1.506
 4023TIP3   OH212032   2.914   1.848   0.296
 4023TIP3    H112033   2.923   1.852   0.201
 4023TIP3    H212034   2.938   1.935   0.327
 4024TIP3   OH212035   5.415   2.067   4.221
 4024TIP3    H112036   5.352   2.083   4.292
 4024TIP3    H212037   5.362   2.029   4.150
 4025TIP3   OH212038   1.892   5.659   3.528
 4025TIP3    H112039   1.894   5.717   3.605
 4025TIP3    H212040   1.977   5.616   3.528
 4026TIP3   OH212041   3.672   6.534   2.203
 4026TIP3    H112042   3.718   6.470   2.259
 4026TIP3    H212043   3.696   6.619   2.240
 4027TIP3   OH212044   2.306   2.218   5.115
 4027TIP3    H112045   2.290   2.159   5.041
 4027TIP3    H212046   2.381   2.271   5.087
 4028TIP3   OH212047   2.039   3.989   3.015
 4028TIP3    H112048   2.038   3.997   3.111
 4028TIP3    H212049   2.132   3.987   2.993
 4029TIP3   OH212050   6.722   3.625   4.196
 4029TIP3    H112051   6.732   3.646   4.103
 4029TIP3    H212052   6.643   3.671   4.223
 4030TIP3   OH212053   3.037   4.137   1.467
 4030TIP3    H112054   3.003   4.224   1.446
 4030TIP3    H212055   3.127   4.138   1.435
 4031TIP3   OH212056   5.157   3.603   5.488
 4031TIP3    H112057   5.244   3.576   5.518
 4031TIP3    H212058   5.116   3.522   5.458
 4032TIP3   OH212059   1.002  -0.011   5.238
 4032TIP3    H112060   1.068  -0.007   5.169
 4032TIP3    H212061   1.043   0.032   5.313
 4033TIP3   OH212062   5.258   4.634   1.533
 4033TIP3    H112063   5.318   4.708   1.534
 4033TIP3    H212064   5.185   4.662   1.588
 4034TIP3   OH212065   2.205   0.392   1.388
 4034TIP3    H112066   2.220   0.479   1.350
 4034TIP3    H212067   2.268   0.386   1.460
 4035TIP3   OH212068   3.559   5.177   3.291
 4035TIP3    H112069   3.573   5.246   3.356
 4035TIP3    H212070   3.528   5.103   3.342
 4036TIP3   OH212071   1.164   4.578   2.444
 4036TIP3    H112072   1.179   4.574   2.538
 4036TIP3    H212073   1.225   4.644   2.412
 4037TIP3   OH212074   7.143   6.083   3.294
 4037TIP3    H112075   7.225   6.110   3.335
 4037TIP3    H212076   7.081   6.152   3.316
 4038TIP3   OH212077   1.474   3.165   4.692
 4038TIP3    H112078   1.567   3.143   4.690
 4038TIP3    H212079   1.460   3.198   4.781
 4039TIP3   OH212080   0.791   5.446   0.615
 4039TIP3    H112081   0.813   5.421   0.705
 4039TIP3    H212082   0.702   5.480   0.620
 4040TIP3   OH212083   2.616   1.872   4.745
 4040TIP3    H112084   2.663   1.892   4.826
 4040TIP3    H212085   2.526   1.902   4.761
 4041TIP3   OH212086   5.700   1.924   1.791
 4041TIP3    H112087   5.643   1.999   1.774
 4041TIP3    H212088   5.764   1.927   1.719
 4042TIP3   OH212089   3.373   2.300   0.057
 4042TIP3    H112090   3.441   2.240   0.087
 4042TIP3    H212091   3.296   2.277   0.109
 4043TIP3   OH212092   3.237   3.170   2.020
 4043TIP3    H112093   3.237   3.076   2.039
 4043TIP3    H212094   3.314   3.183   1.964
 4044TIP3   OH212095   0.545   0.479   2.652
 4044TIP3    H112096   0.632   0.458   2.617
 4044TIP3    H212097   0.521   0.402   2.704
 4045TIP3   OH212098   6.367   1.188   5.454
 4045TIP3    H112099   6.415   1.243   5.392
 4045TIP3    H212100   6.297   1.244   5.488
 4046TIP3   OH212101   0.053   1.528   4.088
 4046TIP3    H112102   0.115   1.585   4.041
 4046TIP3    H212103   0.061   1.555   4.180
 4047TIP3   OH212104   1.300   5.823   1.384
 4047TIP3    H112105   1.310   5.799   1.476
 4047TIP3    H212106   1.337   5.911   1.378
 4048TIP3   OH212107   6.659   2.024   0.467
 4048TIP3    H112108   6.677   2.097   0.526
 4048TIP3    H212109   6.613   2.064   0.393
 4049TIP3   OH212110   0.687   3.491   5.565
 4049TIP3    H112111   0.664   3.542   5.643
 4049TIP3    H212112   0.705   3.403   5.600
 4050TIP3   OH212113   5.530   4.828   4.059
 4050TIP3    H112114   5.542   4.922   4.041
 4050TIP3    H212115   5.581   4.812   4.138
 4051TIP3   OH212116   3.818   4.063   0.641
 4051TIP3    H112117   3.909   4.034   0.646
 4051TIP3    H212118   3.799   4.097   0.729
 4052TIP3   OH212119   1.801   2.115   3.182
 4052TIP3    H112120   1.872   2.143   3.241
 4052TIP3    H212121   1.757   2.045   3.229
 4053TIP3   OH212122   1.418   1.373   5.421
 4053TIP3    H112123   1.453   1.336   5.340
 4053TIP3    H212124   1.484   1.435   5.450
 4054TIP3   OH212125   3.483   5.275   5.507
 4054TIP3    H112126   3.388   5.271   5.504
 4054TIP3    H212127   3.510   5.183   5.518
 4055TIP3   OH212128   5.304   0.098   0.886
 4055TIP3    H112129   5.230   0.157   0.898
 4055TIP3    H212130   5.264   0.014   0.861
 4056TIP3   OH212131   5.381   2.420   1.254
 4056TIP3    H112132   5.440   2.493   1.239
 4056TIP3    H212133   5.349   2.433   1.344
 4057TIP3   OH212134   2.238   1.934   1.183
 4057TIP3    H112135   2.293   1.857   1.196
 4057TIP3    H212136   2.218   1.934   1.089
 4058TIP3   OH212137   2.975   0.090   3.702
 4058TIP3    H112138   3.001   0.012   3.751
 4058TIP3    H212139   2.907   0.060   3.642
 4059TIP3   OH212140   0.228   0.928   4.961
 4059TIP3    H112141   0.273   1.011   4.945
 4059TIP3    H212142   0.275   0.890   5.035
 4060TIP3   OH212143   0.625   0.643   3.994
 4060TIP3    H112144   0.699   0.662   4.050
 4060TIP3    H212145   0.616   0.720   3.938
 4061TIP3   OH212146   6.924   5.561   3.812
 4061TIP3    H112147   6.888   5.533   3.728
 4061TIP3    H212148   7.011   5.597   3.791
 4062TIP3   OH212149   3.207   4.604   2.049
 4062TIP3    H112150   3.266   4.673   2.079
 4062TIP3    H212151   3.253   4.561   1.978
 4063TIP3   OH212152   4.215   3.110   3.850
 4063TIP3    H112153   4.163   3.120   3.930
 4063TIP3    H212154   4.228   3.199   3.818
 4064TIP3   OH212155   0.085   2.060   0.435
 4064TIP3    H112156   0.068   2.037   0.526
 4064TIP3    H212157   0.080   1.978   0.388
 4065TIP3   OH212158   5.067   0.118   4.560
 4065TIP3    H112159   4.994   0.116   4.622
 4065TIP3    H212160   5.121   0.192   4.589
 4066TIP3   OH212161   3.496   5.085   2.937
 4066TIP3    H112162   3.409   5.056   2.909
 4066TIP3    H212163   3.482   5.172   2.974
 4067TIP3   OH212164   2.062   6.512   5.313
 4067TIP3    H112165   1.983   6.564   5.298
 4067TIP3    H212166   2.102   6.552   5.390
 4068TIP3   OH212167   4.764   4.624   5.120
 4068TIP3    H112168   4.807   4.538   5.119
 4068TIP3    H212169   4.800   4.667   5.198
 4069TIP3   OH212170   2.372   6.286   5.572
 4069TIP3    H112171   2.316   6.246   5.505
 4069TIP3    H212172   2.461   6.270   5.541
 4070TIP3   OH212173   4.998   4.742   1.124
 4070TIP3    H112174   5.043   4.672   1.170
 4070TIP3    H212175   5.008   4.819   1.180
 4071TIP3   OH212176   5.747   6.196   2.528
 4071TIP3    H112177   5.717   6.133   2.463
 4071TIP3    H212178   5.677   6.197   2.594
 4072TIP3   OH212179   2.064   1.599   5.650
 4072TIP3    H112180   2.095   1.684   5.681
 4072TIP3    H212181   1.998   1.621   5.583
 4073TIP3   OH212182   3.766   4.782   1.519
 4073TIP3    H112183   3.770   4.808   1.611
 4073TIP3    H212184   3.771   4.686   1.521
 4074TIP3   OH212185   3.364   1.743   4.761
 4074TIP3    H112186   3.284   1.792   4.782
 4074TIP3    H212187   3.344   1.652   4.784
 4075TIP3   OH212188   0.568   1.152   5.836
 4075TIP3    H112189   0.535   1.207   5.906
 4075TIP3    H212190   0.505   1.163   5.764
 4076TIP3   OH212191   3.720   4.539   0.344
 4076TIP3    H112192   3.638   4.586   0.329
 4076TIP3    H212193   3.695   4.465   0.399
 4077TIP3   OH212194   5.623   1.335   5.717
 4077TIP3    H112195   5.577   1.266   5.765
 4077TIP3    H212196   5.663   1.388   5.786
 4078TIP3   OH212197   4.709   5.543   0.077
 4078TIP3    H112198   4.722   5.623   0.127
 4078TIP3    H212199   4.678   5.573  -0.009
 4079TIP3   OH212200   6.763   2.337   5.405
 4079TIP3    H112201   6.684   2.321   5.457
 4079TIP3    H212202   6.740   2.411   5.350
 4080TIP3   OH212203   6.162   0.862   0.688
 4080TIP3    H112204   6.095   0.795   0.682
 4080TIP3    H212205   6.209   0.842   0.769
 4081TIP3   OH212206   2.701   4.998   2.447
 4081TIP3    H112207   2.768   4.956   2.501
 4081TIP3    H212208   2.750   5.057   2.390
 4082TIP3   OH212209   7.177   4.550   3.471
 4082TIP3    H112210   7.221   4.511   3.546
 4082TIP3    H212211   7.227   4.629   3.452
 4083TIP3   OH212212   6.870   5.474   3.556
 4083TIP3    H112213   6.890   5.502   3.467
 4083TIP3    H212214   6.900   5.383   3.559
 4084TIP3   OH212215   3.070   0.150   2.961
 4084TIP3    H112216   3.082   0.132   2.867
 4084TIP3    H212217   2.976   0.137   2.975
 4085TIP3   OH212218   2.186   6.473   0.055
 4085TIP3    H112219   2.103   6.491   0.098
 4085TIP3    H212220   2.178   6.383   0.024
 4086TIP3   OH212221   1.945   5.156   4.586
 4086TIP3    H112222   1.954   5.210   4.507
 4086TIP3    H212223   1.934   5.067   4.553
 4087TIP3   OH212224   3.938   5.491   4.774
 4087TIP3    H112225   4.021   5.530   4.745
 4087TIP3    H212226   3.949   5.480   4.869
 4088TIP3   OH212227   6.450   6.725   4.637
 4088TIP3    H112228   6.432   6.746   4.729
 4088TIP3    H212229   6.506   6.648   4.641
 4089TIP3   OH212230   1.042   1.813   1.558
 4089TIP3    H112231   1.000   1.728   1.554
 4089TIP3    H212232   1.133   1.796   1.532
 4090TIP3   OH212233   0.504   0.722   0.017
 4090TIP3    H112234   0.554   0.798  -0.013
 4090TIP3    H212235   0.512   0.658  -0.054
 4091TIP3   OH212236   3.004   0.204   0.722
 4091TIP3    H112237   3.062   0.144   0.675
 4091TIP3    H212238   2.915   0.173   0.701
 4092TIP3   OH212239   4.088   4.809   3.474
 4092TIP3    H112240   4.098   4.868   3.399
 4092TIP3    H212241   4.039   4.735   3.439
 4093TIP3   OH212242   0.474   4.963   0.026
 4093TIP3    H112243   0.456   4.934   0.115
 4093TIP3    H212244   0.442   4.891  -0.029
 4094TIP3   OH212245   0.035   4.180   2.394
 4094TIP3    H112246  -0.019   4.254   2.365
 4094TIP3    H212247   0.121   4.217   2.409
 4095TIP3   OH212248   3.807   4.970   1.973
 4095TIP3    H112249   3.838   4.886   1.937
 4095TIP3    H212250   3.798   5.026   1.896
 4096TIP3   OH212251   6.032   6.466   0.786
 4096TIP3    H112252   6.073   6.459   0.700
 4096TIP3    H212253   5.955   6.521   0.771
 4097TIP3   OH212254   2.992   0.045   2.526
 4097TIP3    H112255   2.987   0.031   2.431
 4097TIP3    H212256   2.958  -0.036   2.564
 4098TIP3   OH212257   2.428   5.049   0.285
 4098TIP3    H112258   2.372   4.977   0.253
 4098TIP3    H212259   2.474   5.080   0.207
 4099TIP3   OH212260   3.017   6.565   1.437
 4099TIP3    H112261   2.928   6.560   1.404
 4099TIP3    H212262   3.071   6.525   1.369
 4100TIP3   OH212263   3.292   4.435   0.687
 4100TIP3    H112264   3.275   4.376   0.614
 4100TIP3    H212265   3.366   4.488   0.658
 4101TIP3   OH212266   1.445   6.055   0.938
 4101TIP3    H112267   1.460   6.094   0.852
 4101TIP3    H212268   1.402   5.971   0.919
 4102TIP3   OH212269   3.415   3.320   5.674
 4102TIP3    H112270   3.391   3.412   5.672
 4102TIP3    H212271   3.406   3.295   5.766
 4103TIP3   OH212272   5.208   3.662   1.309
 4103TIP3    H112273   5.139   3.726   1.293
 4103TIP3    H212274   5.168   3.596   1.366
 4104TIP3   OH212275   7.024   2.368   5.452
 4104TIP3    H112276   7.031   2.287   5.504
 4104TIP3    H212277   6.930   2.376   5.433
 4105TIP3   OH212278   5.090   5.437   4.136
 4105TIP3    H112279   5.062   5.487   4.213
 4105TIP3    H212280   5.068   5.493   4.061
 4106TIP3   OH212281   0.292   0.686   0.414
 4106TIP3    H112282   0.298   0.685   0.319
 4106TIP3    H212283   0.380   0.663   0.445
 4107TIP3   OH212284   5.769   5.146   3.226
 4107TIP3    H112285   5.788   5.124   3.318
 4107TIP3    H212286   5.698   5.209   3.231
 4108TIP3   OH212287   0.189   1.136   4.646
 4108TIP3    H112288   0.184   1.165   4.738
 4108TIP3    H212289   0.258   1.070   4.646
 4109TIP3   OH212290   5.031   0.966   2.175
 4109TIP3    H112291   5.054   0.952   2.083
 4109TIP3    H212292   4.981   0.887   2.199
 4110TIP3   OH212293   5.971   5.592   5.046
 4110TIP3    H112294   6.026   5.550   4.980
 4110TIP3    H212295   5.882   5.567   5.023
 4111TIP3   OH212296   1.447   0.238   0.847
 4111TIP3    H112297   1.496   0.316   0.872
 4111TIP3    H212298   1.504   0.165   0.870
 4112TIP3   OH212299   3.382   3.847   1.075
 4112TIP3    H112300   3.345   3.899   1.004
 4112TIP3    H212301   3.473   3.831   1.048
 4113TIP3   OH212302   0.004   5.165   3.147
 4113TIP3    H112303   0.065   5.092   3.164
 4113TIP3    H212304   0.025   5.229   3.215
 4114TIP3   OH212305   1.061   0.436   3.595
 4114TIP3    H112306   1.009   0.507   3.633
 4114TIP3    H212307   1.096   0.473   3.514
 4115TIP3   OH212308   3.610   6.565   3.498
 4115TIP3    H112309   3.591   6.600   3.586
 4115TIP3    H212310   3.544   6.606   3.442
 4116TIP3   OH212311   3.874   5.124   1.462
 4116TIP3    H112312   3.940   5.058   1.438
 4116TIP3    H212313   3.791   5.084   1.438
 4117TIP3   OH212314   7.047   4.048   5.237
 4117TIP3    H112315   7.008   4.046   5.150
 4117TIP3    H212316   7.093   4.132   5.241
 4118TIP3   OH212317   5.281   3.747   2.244
 4118TIP3    H112318   5.290   3.654   2.222
 4118TIP3    H212319   5.370   3.781   2.241
 4119TIP3   OH212320   5.611   6.046   2.071
 4119TIP3    H112321   5.607   6.062   1.977
 4119TIP3    H212322   5.522   6.021   2.095
 4120TIP3   OH212323   2.021   0.187   3.671
 4120TIP3    H112324   2.108   0.175   3.711
 4120TIP3    H212325   1.974   0.243   3.732
 4121TIP3   OH212326   1.974   3.456   1.135
 4121TIP3    H112327   2.022   3.374   1.134
 4121TIP3    H212328   1.882   3.430   1.139
 4122TIP3   OH212329   3.575   4.328   2.527
 4122TIP3    H112330   3.559   4.420   2.550
 4122TIP3    H212331   3.490   4.285   2.541
 4123TIP3   OH212332   4.514   6.074   2.621
 4123TIP3    H112333   4.507   5.979   2.627
 4123TIP3    H212334   4.607   6.090   2.605
 4124TIP3   OH212335   1.884   0.807   1.401
 4124TIP3    H112336   1.822   0.867   1.443
 4124TIP3    H212337   1.952   0.793   1.468
 4125TIP3   OH212338   2.227   5.719   0.141
 4125TIP3    H112339   2.221   5.761   0.055
 4125TIP3    H212340   2.276   5.782   0.194
 4126TIP3   OH212341   3.434   6.680   0.432
 4126TIP3    H112342   3.340   6.660   0.440
 4126TIP3    H212343   3.473   6.598   0.403
 4127TIP3   OH212344   6.548   4.190   1.586
 4127TIP3    H112345   6.601   4.260   1.625
 4127TIP3    H212346   6.608   4.117   1.574
 4128TIP3   OH212347   2.084   4.432   5.147
 4128TIP3    H112348   2.070   4.410   5.055
 4128TIP3    H212349   2.099   4.527   5.147
 4129TIP3   OH212350   4.545   4.423   4.892
 4129TIP3    H112351   4.475   4.367   4.857
 4129TIP3    H212352   4.606   4.363   4.933
 4130TIP3   OH212353   6.051   4.432   5.778
 4130TIP3    H112354   6.025   4.424   5.687
 4130TIP3    H212355   6.107   4.510   5.781
 4131TIP3   OH212356   1.007   6.274   2.934
 4131TIP3    H112357   1.008   6.369   2.943
 4131TIP3    H212358   0.981   6.258   2.843
 4132TIP3   OH212359   4.597   4.500   5.713
 4132TIP3    H112360   4.596   4.408   5.685
 4132TIP3    H212361   4.512   4.534   5.687
 4133TIP3   OH212362   4.770   3.808   1.834
 4133TIP3    H112363   4.781   3.793   1.927
 4133TIP3    H212364   4.709   3.739   1.806
 4134TIP3   OH212365   1.158   3.674   5.648
 4134TIP3    H112366   1.116   3.714   5.572
 4134TIP3    H212367   1.131   3.729   5.722
 4135TIP3   OH212368   2.728   5.620   3.898
 4135TIP3    H112369   2.679   5.696   3.930
 4135TIP3    H212370   2.661   5.560   3.865
 4136TIP3   OH212371   5.580   1.445   1.606
 4136TIP3    H112372   5.658   1.500   1.598
 4136TIP3    H212373   5.519   1.497   1.657
 4137TIP3   OH212374   0.501   5.583   1.047
 4137TIP3    H112375   0.479   5.508   1.102
 4137TIP3    H212376   0.591   5.604   1.071
 4138TIP3   OH212377   0.517   2.944   5.540
 4138TIP3    H112378   0.517   2.861   5.492
 4138TIP3    H212379   0.560   3.006   5.482
 4139TIP3   OH212380   1.676   2.103   1.051
 4139TIP3    H112381   1.656   2.013   1.026
 4139TIP3    H212382   1.612   2.123   1.120
 4140TIP3   OH212383   1.721   6.028   3.974
 4140TIP3    H112384   1.730   6.035   4.069
 4140TIP3    H212385   1.771   5.949   3.951
 4141TIP3   OH212386   3.568   5.320   4.433
 4141TIP3    H112387   3.510   5.368   4.374
 4141TIP3    H212388   3.612   5.388   4.484
 4142TIP3   OH212389   4.060   3.385   2.097
 4142TIP3    H112390   3.996   3.417   2.160
 4142TIP3    H212391   4.145   3.401   2.138
 4143TIP3   OH212392   2.890   3.011   2.637
 4143TIP3    H112393   2.807   3.020   2.684
 4143TIP3    H212394   2.954   3.058   2.691
 4144TIP3   OH212395   4.508   4.328   2.998
 4144TIP3    H112396   4.572   4.261   3.021
 4144TIP3    H212397   4.447   4.285   2.940
 4145TIP3   OH212398   5.902   4.069   4.436
 4145TIP3    H112399   5.816   4.070   4.478
 4145TIP3    H212400   5.963   4.086   4.508
 4146TIP3   OH212401   6.849   2.549   4.912
 4146TIP3    H112402   6.774   2.497   4.883
 4146TIP3    H212403   6.898   2.490   4.970
 4147TIP3   OH212404   5.808   0.419   3.908
 4147TIP3    H112405   5.884   0.466   3.876
 4147TIP3    H212406   5.820   0.329   3.879
 4148TIP3   OH212407   0.008   0.142   2.027
 4148TIP3    H112408  -0.026   0.126   1.939
 4148TIP3    H212409  -0.070   0.156   2.081
 4149TIP3   OH212410   2.016   3.391   5.825
 4149TIP3    H112411   1.989   3.474   5.786
 4149TIP3    H212412   1.935   3.353   5.860
 4150TIP3   OH212413   6.537   6.260   4.348
 4150TIP3    H112414   6.470   6.199   4.380
 4150TIP3    H212415   6.486   6.335   4.316
 4151TIP3   OH212416   6.260   6.046   0.289
 4151TIP3    H112417   6.191   5.980   0.289
 4151TIP3    H212418   6.338   6.000   0.258
 4152TIP3   OH212419   6.453   4.347   0.640
 4152TIP3    H112420   6.535   4.338   0.592
 4152TIP3    H212421   6.477   4.333   0.732
 4153TIP3   OH212422   4.369   2.052   5.847
 4153TIP3    H112423   4.366   2.071   5.941
 4153TIP3    H212424   4.459   2.024   5.831
 4154TIP3   OH212425   3.726   0.460   5.120
 4154TIP3    H112426   3.758   0.421   5.202
 4154TIP3    H212427   3.702   0.386   5.065
 4155TIP3   OH212428   6.847   5.376   5.278
 4155TIP3    H112429   6.772   5.316   5.283
 4155TIP3    H212430   6.826   5.434   5.205
 4156TIP3   OH212431   2.820   2.867   4.009
 4156TIP3    H112432   2.741   2.886   3.958
 4156TIP3    H212433   2.789   2.861   4.099
 4157TIP3   OH212434   6.018   4.675   4.029
 4157TIP3    H112435   5.933   4.634   4.045
 4157TIP3    H212436   6.055   4.688   4.117
 4158TIP3   OH212437   2.814   4.837   3.037
 4158TIP3    H112438   2.733   4.821   3.085
 4158TIP3    H212439   2.825   4.932   3.038
 4159TIP3   OH212440   5.114   2.832   1.894
 4159TIP3    H112441   5.027   2.817   1.931
 4159TIP3    H212442   5.103   2.907   1.835
 4160TIP3   OH212443   2.701   1.415   1.538
 4160TIP3    H112444   2.718   1.351   1.469
 4160TIP3    H212445   2.755   1.491   1.514
 4161TIP3   OH212446   7.087   4.681   5.012
 4161TIP3    H112447   7.099   4.770   5.045
 4161TIP3    H212448   7.158   4.670   4.948
 4162TIP3   OH212449   5.053   1.244   2.648
 4162TIP3    H112450   4.980   1.186   2.672
 4162TIP3    H212451   5.111   1.188   2.597
 4163TIP3   OH212452   6.373   3.124   4.712
 4163TIP3    H112453   6.305   3.057   4.706
 4163TIP3    H212454   6.405   3.118   4.802
 4164TIP3   OH212455   1.425   4.943   0.096
 4164TIP3    H112456   1.472   4.905   0.170
 4164TIP3    H212457   1.360   4.877   0.071
 4165TIP3   OH212458   2.782   6.006   2.087
 4165TIP3    H112459   2.821   6.090   2.065
 4165TIP3    H212460   2.815   5.946   2.021
 4166TIP3   OH212461   3.359   1.395   3.502
 4166TIP3    H112462   3.435   1.433   3.458
 4166TIP3    H212463   3.306   1.471   3.528
 4167TIP3   OH212464   3.574   4.724   5.464
 4167TIP3    H112465   3.494   4.707   5.415
 4167TIP3    H212466   3.643   4.677   5.416
 4168TIP3   OH212467   1.694   0.479   3.216
 4168TIP3    H112468   1.622   0.542   3.215
 4168TIP3    H212469   1.731   0.483   3.128
 4169TIP3   OH212470   0.860   2.621   1.019
 4169TIP3    H112471   0.946   2.659   1.035
 4169TIP3    H212472   0.872   2.527   1.034
 4170TIP3   OH212473   5.202   2.333   5.296
 4170TIP3    H112474   5.164   2.323   5.209
 4170TIP3    H212475   5.202   2.427   5.312
 4171TIP3   OH212476   1.697   5.912   3.652
 4171TIP3    H112477   1.689   5.849   3.723
 4171TIP3    H212478   1.657   5.869   3.577
 4172TIP3   OH212479   0.372   1.463   0.916
 4172TIP3    H112480   0.418   1.407   0.854
 4172TIP3    H212481   0.326   1.402   0.974
 4173TIP3   OH212482   6.690   1.473   2.383
 4173TIP3    H112483   6.632   1.411   2.428
 4173TIP3    H212484   6.745   1.419   2.328
 4174TIP3   OH212485   4.479   0.876   5.853
 4174TIP3    H112486   4.502   0.837   5.768
 4174TIP3    H212487   4.400   0.926   5.835
 4175TIP3   OH212488   5.433   0.286   2.423
 4175TIP3    H112489   5.342   0.304   2.447
 4175TIP3    H212490   5.440   0.316   2.332
 4176TIP3   OH212491   5.600   5.829   1.415
 4176TIP3    H112492   5.626   5.803   1.327
 4176TIP3    H212493   5.530   5.768   1.438
 4177TIP3   OH212494   0.728   1.055   1.870
 4177TIP3    H112495   0.663   0.993   1.903
 4177TIP3    H212496   0.808   1.003   1.859
 4178TIP3   OH212497   6.716   3.738   1.762
 4178TIP3    H112498   6.812   3.735   1.756
 4178TIP3    H212499   6.697   3.827   1.791
 4179TIP3   OH212500   6.929   4.218   1.936
 4179TIP3    H112501   6.887   4.248   2.017
 4179TIP3    H212502   6.991   4.151   1.966
 4180TIP3   OH212503   7.211   4.111   1.390
 4180TIP3    H112504   7.218   4.200   1.423
 4180TIP3    H212505   7.160   4.119   1.309
 4181TIP3   OH212506   3.770   6.313   4.343
 4181TIP3    H112507   3.693   6.256   4.344
 4181TIP3    H212508   3.778   6.341   4.252
 4182TIP3   OH212509   0.636   6.561   1.007
 4182TIP3    H112510   0.718   6.605   0.986
 4182TIP3    H212511   0.617   6.586   1.097
 4183TIP3   OH212512   0.447   3.626   5.477
 4183TIP3    H112513   0.518   3.618   5.540
 4183TIP3    H212514   0.409   3.713   5.494
 4184TIP3   OH212515   5.558   2.513   1.829
 4184TIP3    H112516   5.491   2.493   1.894
 4184TIP3    H212517   5.526   2.592   1.784
 4185TIP3   OH212518   5.896   3.337   2.191
 4185TIP3    H112519   5.828   3.271   2.203
 4185TIP3    H212520   5.973   3.287   2.162
 4186TIP3   OH212521   4.920   2.969   4.538
 4186TIP3    H112522   4.949   2.882   4.564
 4186TIP3    H212523   4.970   2.988   4.459
 4187TIP3   OH212524   5.266   3.651   1.013
 4187TIP3    H112525   5.221   3.710   0.953
 4187TIP3    H212526   5.254   3.690   1.099
 4188TIP3   OH212527   6.204   4.813   2.949
 4188TIP3    H112528   6.140   4.884   2.945
 4188TIP3    H212529   6.151   4.733   2.958
 4189TIP3   OH212530   5.451   4.450   3.502
 4189TIP3    H112531   5.420   4.375   3.452
 4189TIP3    H212532   5.538   4.469   3.466
 4190TIP3   OH212533   7.150   0.688   1.858
 4190TIP3    H112534   7.167   0.758   1.921
 4190TIP3    H212535   7.187   0.610   1.899
 4191TIP3   OH212536   0.306   4.922   5.531
 4191TIP3    H112537   0.400   4.919   5.513
 4191TIP3    H212538   0.287   4.841   5.578
 4192TIP3   OH212539   2.875   2.221   1.234
 4192TIP3    H112540   2.785   2.249   1.248
 4192TIP3    H212541   2.870   2.126   1.224
 4193TIP3   OH212542   3.487   0.516   0.398
 4193TIP3    H112543   3.514   0.473   0.480
 4193TIP3    H212544   3.564   0.566   0.372
 4194TIP3   OH212545   0.216   2.408   3.579
 4194TIP3    H112546   0.308   2.403   3.602
 4194TIP3    H212547   0.170   2.381   3.659
 4195TIP3   OH212548   3.011   4.432   3.781
 4195TIP3    H112549   3.030   4.401   3.692
 4195TIP3    H212550   2.917   4.416   3.793
 4196TIP3   OH212551   7.164   2.020   3.728
 4196TIP3    H112552   7.181   2.083   3.798
 4196TIP3    H212553   7.126   2.073   3.658
 4197TIP3   OH212554   0.088   1.592   5.786
 4197TIP3    H112555   0.105   1.612   5.694
 4197TIP3    H212556   0.003   1.632   5.804
 4198TIP3   OH212557   5.863   0.667   0.193
 4198TIP3    H112558   5.899   0.702   0.275
 4198TIP3    H212559   5.824   0.743   0.150
 4199TIP3   OH212560   6.299   0.787   0.930
 4199TIP3    H112561   6.237   0.714   0.937
 4199TIP3    H212562   6.287   0.836   1.011
 4200TIP3   OH212563   1.939   1.910   1.657
 4200TIP3    H112564   1.933   1.982   1.593
 4200TIP3    H212565   2.031   1.908   1.683
 4201TIP3   OH212566   5.887   5.870   4.831
 4201TIP3    H112567   5.876   5.960   4.799
 4201TIP3    H212568   5.949   5.877   4.904
 4202TIP3   OH212569   4.049   6.663   1.963
 4202TIP3    H112570   4.083   6.577   1.938
 4202TIP3    H212571   4.070   6.720   1.890
 4203TIP3   OH212572   0.688   3.402   0.240
 4203TIP3    H112573   0.709   3.494   0.255
 4203TIP3    H212574   0.618   3.404   0.175
 4204TIP3   OH212575   2.261   0.127   3.788
 4204TIP3    H112576   2.296   0.039   3.802
 4204TIP3    H212577   2.335   0.185   3.803
 4205TIP3   OH212578   0.422   3.169   0.925
 4205TIP3    H112579   0.464   3.129   0.848
 4205TIP3    H212580   0.328   3.157   0.910
 4206TIP3   OH212581   5.962   5.179   1.500
 4206TIP3    H112582   5.998   5.105   1.450
 4206TIP3    H212583   5.868   5.170   1.490
 4207TIP3   OH212584   2.862   5.854   1.868
 4207TIP3    H112585   2.937   5.839   1.810
 4207TIP3    H212586   2.786   5.831   1.816
 4208TIP3   OH212587   1.807   1.568   4.564
 4208TIP3    H112588   1.818   1.652   4.609
 4208TIP3    H212589   1.883   1.517   4.590
 4209TIP3   OH212590   4.035   4.746   1.159
 4209TIP3    H112591   3.956   4.698   1.134
 4209TIP3    H212592   4.073   4.775   1.077
 4210TIP3   OH212593   2.887   4.588   4.447
 4210TIP3    H112594   2.974   4.584   4.486
 4210TIP3    H212595   2.898   4.554   4.358
 4211TIP3   OH212596   4.469   4.333   3.893
 4211TIP3    H112597   4.538   4.267   3.885
 4211TIP3    H212598   4.412   4.299   3.963
 4212TIP3   OH212599   3.068   2.233   4.545
 4212TIP3    H112600   3.129   2.183   4.598
 4212TIP3    H212601   3.108   2.235   4.458
 4213TIP3   OH212602   3.609   1.165   3.005
 4213TIP3    H112603   3.628   1.259   2.997
 4213TIP3    H212604   3.694   1.122   2.994
 4214TIP3   OH212605   5.149   2.943   0.588
 4214TIP3    H112606   5.172   2.851   0.593
 4214TIP3    H212607   5.224   2.984   0.544
 4215TIP3   OH212608   0.632   3.088   0.680
 4215TIP3    H112609   0.618   3.161   0.620
 4215TIP3    H212610   0.649   3.013   0.623
 4216TIP3   OH212611   5.291   5.660   3.747
 4216TIP3    H112612   5.340   5.584   3.715
 4216TIP3    H212613   5.326   5.676   3.835
 4217TIP3   OH212614   5.184   3.633   2.800
 4217TIP3    H112615   5.153   3.723   2.806
 4217TIP3    H212616   5.137   3.586   2.868
 4218TIP3   OH212617   3.986   6.584   3.825
 4218TIP3    H112618   3.933   6.551   3.752
 4218TIP3    H212619   4.051   6.641   3.784
 4219TIP3   OH212620   5.672   5.554   2.530
 4219TIP3    H112621   5.732   5.519   2.597
 4219TIP3    H212622   5.622   5.477   2.502
 4220TIP3   OH212623   6.524   5.551   0.954
 4220TIP3    H112624   6.506   5.501   0.874
 4220TIP3    H212625   6.619   5.560   0.955
 4221TIP3   OH212626   2.870   1.487   3.150
 4221TIP3    H112627   2.850   1.481   3.243
 4221TIP3    H212628   2.820   1.416   3.109
 4222TIP3   OH212629   2.574   0.335   5.714
 4222TIP3    H112630   2.499   0.378   5.754
 4222TIP3    H212631   2.544   0.246   5.697
 4223TIP3   OH212632   0.206   0.188   3.765
 4223TIP3    H112633   0.218   0.193   3.860
 4223TIP3    H212634   0.230   0.098   3.743
 4224TIP3   OH212635   0.060   2.495   5.609
 4224TIP3    H112636   0.115   2.420   5.588
 4224TIP3    H212637   0.002   2.463   5.678
 4225TIP3   OH212638   4.171   3.011   4.747
 4225TIP3    H112639   4.113   2.944   4.712
 4225TIP3    H212640   4.120   3.052   4.817
 4226TIP3   OH212641   4.245   3.788   3.025
 4226TIP3    H112642   4.229   3.767   2.933
 4226TIP3    H212643   4.165   3.758   3.070
 4227TIP3   OH212644   5.511   2.822   4.907
 4227TIP3    H112645   5.476   2.850   4.823
 4227TIP3    H212646   5.584   2.881   4.924
 4228TIP3   OH212647   1.618   2.467   1.625
 4228TIP3    H112648   1.626   2.558   1.656
 4228TIP3    H212649   1.562   2.425   1.691
 4229TIP3   OH212650   1.761   4.840   0.065
 4229TIP3    H112651   1.687   4.813   0.010
 4229TIP3    H212652   1.827   4.871   0.003
 4230TIP3   OH212653   0.083   0.953   5.657
 4230TIP3    H112654   0.098   0.919   5.569
 4230TIP3    H212655   0.159   0.924   5.708
 4231TIP3   OH212656   4.592   1.371   4.405
 4231TIP3    H112657   4.649   1.360   4.329
 4231TIP3    H212658   4.583   1.466   4.416
 4232TIP3   OH212659   4.613   0.538   5.779
 4232TIP3    H112660   4.523   0.547   5.812
 4232TIP3    H212661   4.625   0.615   5.723
 4233TIP3   OH212662   6.307   4.164   4.320
 4233TIP3    H112663   6.257   4.084   4.299
 4233TIP3    H212664   6.276   4.228   4.256
 4234TIP3   OH212665   5.951   5.575   1.331
 4234TIP3    H112666   5.934   5.625   1.250
 4234TIP3    H212667   5.864   5.565   1.371
 4235TIP3   OH212668   3.424   2.948   2.080
 4235TIP3    H112669   3.509   2.992   2.084
 4235TIP3    H212670   3.408   2.933   1.987
 4236TIP3   OH212671   6.329   6.567   0.794
 4236TIP3    H112672   6.360   6.491   0.744
 4236TIP3    H212673   6.268   6.611   0.734
 4237TIP3   OH212674   5.424   5.415   1.143
 4237TIP3    H112675   5.465   5.415   1.057
 4237TIP3    H212676   5.361   5.343   1.140
 4238TIP3   OH212677   0.756   3.107   3.670
 4238TIP3    H112678   0.793   3.032   3.622
 4238TIP3    H212679   0.663   3.106   3.648
 4239TIP3   OH212680   0.445   2.303   2.597
 4239TIP3    H112681   0.477   2.277   2.683
 4239TIP3    H212682   0.518   2.284   2.538
 4240TIP3   OH212683   3.773   1.781   5.691
 4240TIP3    H112684   3.808   1.695   5.669
 4240TIP3    H212685   3.678   1.768   5.693
 4241TIP3   OH212686   6.182   5.677   3.674
 4241TIP3    H112687   6.275   5.677   3.652
 4241TIP3    H212688   6.150   5.593   3.642
 4242TIP3   OH212689   5.875   5.432   0.705
 4242TIP3    H112690   5.924   5.391   0.634
 4242TIP3    H212691   5.841   5.513   0.667
 4243TIP3   OH212692   5.010   1.775   1.233
 4243TIP3    H112693   5.104   1.782   1.218
 4243TIP3    H212694   5.002   1.704   1.297
 4244TIP3   OH212695   5.510   3.350   3.271
 4244TIP3    H112696   5.500   3.424   3.210
 4244TIP3    H212697   5.525   3.275   3.214
 4245TIP3   OH212698   5.036   3.283   3.274
 4245TIP3    H112699   5.099   3.272   3.346
 4245TIP3    H212700   4.954   3.249   3.308
 4246TIP3   OH212701   3.266   4.313   5.177
 4246TIP3    H112702   3.206   4.302   5.103
 4246TIP3    H212703   3.333   4.245   5.164
 4247TIP3   OH212704   2.579   3.178   1.977
 4247TIP3    H112705   2.498   3.199   1.932
 4247TIP3    H212706   2.562   3.200   2.069
 4248TIP3   OH212707   2.225   5.452   1.276
 4248TIP3    H112708   2.149   5.394   1.285
 4248TIP3    H212709   2.276   5.414   1.205
 4249TIP3   OH212710   7.030   4.492   5.752
 4249TIP3    H112711   6.940   4.521   5.743
 4249TIP3    H212712   7.024   4.397   5.761
 4250TIP3   OH212713   4.475   1.907   0.643
 4250TIP3    H112714   4.398   1.957   0.619
 4250TIP3    H212715   4.543   1.934   0.581
 4251TIP3   OH212716   2.839   2.229   4.933
 4251TIP3    H112717   2.878   2.143   4.913
 4251TIP3    H212718   2.805   2.260   4.849
 4252TIP3   OH212719   5.420   3.876   3.227
 4252TIP3    H112720   5.429   3.935   3.152
 4252TIP3    H212721   5.461   3.924   3.299
 4253TIP3   OH212722   0.957   6.093   1.650
 4253TIP3    H112723   0.940   6.180   1.686
 4253TIP3    H212724   1.052   6.087   1.645
 4254TIP3   OH212725   2.336   5.020   1.176
 4254TIP3    H112726   2.270   5.030   1.107
 4254TIP3    H212727   2.403   5.085   1.155
 4255TIP3   OH212728   3.314   4.433   3.594
 4255TIP3    H112729   3.230   4.388   3.608
 4255TIP3    H212730   3.322   4.493   3.668
 4256TIP3   OH212731   1.587   5.599   0.326
 4256TIP3    H112732   1.526   5.556   0.265
 4256TIP3    H212733   1.539   5.605   0.408
 4257TIP3   OH212734   3.002   2.802   1.306
 4257TIP3    H112735   3.077   2.813   1.247
 4257TIP3    H212736   2.988   2.889   1.344
 4258TIP3   OH212737   4.324   0.447   4.034
 4258TIP3    H112738   4.276   0.429   4.115
 4258TIP3    H212739   4.277   0.520   3.994
 4259TIP3   OH212740   1.814   2.611   2.100
 4259TIP3    H112741   1.747   2.556   2.142
 4259TIP3    H212742   1.889   2.606   2.159
 4260TIP3   OH212743   6.309   6.581   1.061
 4260TIP3    H112744   6.324   6.569   0.967
 4260TIP3    H212745   6.365   6.516   1.102
 4261TIP3   OH212746   1.919   1.759   2.157
 4261TIP3    H112747   1.888   1.683   2.205
 4261TIP3    H212748   1.909   1.735   2.065
 4262TIP3   OH212749   6.666   5.559   0.642
 4262TIP3    H112750   6.712   5.585   0.722
 4262TIP3    H212751   6.579   5.598   0.650
 4263TIP3   OH212752   2.948   1.935   0.623
 4263TIP3    H112753   2.861   1.964   0.595
 4263TIP3    H212754   2.961   1.976   0.708
 4264TIP3   OH212755   6.532   1.461   0.940
 4264TIP3    H112756   6.533   1.541   0.887
 4264TIP3    H212757   6.582   1.398   0.889
 4265TIP3   OH212758   1.501   6.729   1.116
 4265TIP3    H112759   1.490   6.752   1.208
 4265TIP3    H212760   1.596   6.722   1.105
 4266TIP3   OH212761   5.965   1.309   1.825
 4266TIP3    H112762   5.952   1.219   1.795
 4266TIP3    H212763   5.877   1.341   1.841
 4267TIP3   OH212764   0.494   2.370   5.408
 4267TIP3    H112765   0.503   2.419   5.326
 4267TIP3    H212766   0.562   2.303   5.404
 4268TIP3   OH212767   6.504   6.155   0.113
 4268TIP3    H112768   6.557   6.234   0.121
 4268TIP3    H212769   6.416   6.187   0.093
 4269TIP3   OH212770   5.961   5.345   5.538
 4269TIP3    H112771   5.932   5.376   5.452
 4269TIP3    H212772   6.028   5.279   5.519
 4270TIP3   OH212773   3.890   5.310   5.625
 4270TIP3    H112774   3.907   5.316   5.719
 4270TIP3    H212775   3.915   5.221   5.601
 4271TIP3   OH212776   1.529   1.095   4.427
 4271TIP3    H112777   1.588   1.070   4.356
 4271TIP3    H212778   1.449   1.046   4.411
 4272TIP3   OH212779   5.399   4.618   2.154
 4272TIP3    H112780   5.465   4.686   2.139
 4272TIP3    H212781   5.352   4.647   2.232
 4273TIP3   OH212782   3.987   1.372   2.994
 4273TIP3    H112783   4.042   1.432   3.045
 4273TIP3    H212784   3.936   1.324   3.059
 4274TIP3   OH212785   4.569   2.475   0.186
 4274TIP3    H112786   4.572   2.385   0.153
 4274TIP3    H212787   4.537   2.467   0.276
 4275TIP3   OH212788   6.159   2.872   4.799
 4275TIP3    H112789   6.185   2.812   4.729
 4275TIP3    H212790   6.068   2.893   4.780
 4276TIP3   OH212791   6.773   1.054   0.721
 4276TIP3    H112792   6.694   1.106   0.740
 4276TIP3    H212793   6.787   1.066   0.627
 4277TIP3   OH212794   1.286   0.050   3.110
 4277TIP3    H112795   1.213   0.043   3.049
 4277TIP3    H212796   1.364   0.051   3.055
 4278TIP3   OH212797   1.114   4.120   1.657
 4278TIP3    H112798   1.132   4.038   1.610
 4278TIP3    H212799   1.028   4.107   1.696
 4279TIP3   OH212800   0.706   0.588   0.614
 4279TIP3    H112801   0.648   0.523   0.655
 4279TIP3    H212802   0.732   0.645   0.686
 4280TIP3   OH212803   2.450   5.519   3.698
 4280TIP3    H112804   2.505   5.579   3.648
 4280TIP3    H212805   2.411   5.462   3.632
 4281TIP3   OH212806   4.061   0.436   1.916
 4281TIP3    H112807   3.974   0.425   1.956
 4281TIP3    H212808   4.117   0.465   1.988
 4282TIP3   OH212809   1.857   2.177   3.817
 4282TIP3    H112810   1.764   2.171   3.797
 4282TIP3    H212811   1.893   2.093   3.788
 4283TIP3   OH212812   6.931   0.917   5.695
 4283TIP3    H112813   7.007   0.922   5.753
 4283TIP3    H212814   6.874   0.988   5.725
 4284TIP3   OH212815   3.584   3.426   3.645
 4284TIP3    H112816   3.503   3.476   3.640
 4284TIP3    H212817   3.556   3.336   3.663
 4285TIP3   OH212818   2.461   2.007   1.406
 4285TIP3    H112819   2.473   1.925   1.454
 4285TIP3    H212820   2.427   1.979   1.320
 4286TIP3   OH212821   4.720   1.580   3.405
 4286TIP3    H112822   4.803   1.549   3.368
 4286TIP3    H212823   4.689   1.507   3.459
 4287TIP3   OH212824   1.199   5.610   5.799
 4287TIP3    H112825   1.129   5.636   5.739
 4287TIP3    H212826   1.199   5.678   5.866
 4288TIP3   OH212827   6.693   4.877   5.665
 4288TIP3    H112828   6.680   4.796   5.715
 4288TIP3    H212829   6.622   4.877   5.600
 4289TIP3   OH212830   5.674   0.369   2.556
 4289TIP3    H112831   5.597   0.356   2.500
 4289TIP3    H212832   5.683   0.464   2.562
 4290TIP3   OH212833   4.043   1.585   2.368
 4290TIP3    H112834   4.054   1.491   2.382
 4290TIP3    H212835   3.949   1.597   2.357
 4291TIP3   OH212836   4.185   1.819   5.416
 4291TIP3    H112837   4.099   1.859   5.433
 4291TIP3    H212838   4.229   1.882   5.358
 4292TIP3   OH212839   5.127   4.314   1.352
 4292TIP3    H112840   5.040   4.311   1.312
 4292TIP3    H212841   5.121   4.255   1.427
 4293TIP3   OH212842   6.119   4.396   1.357
 4293TIP3    H112843   6.060   4.441   1.297
 4293TIP3    H212844   6.061   4.353   1.420
 4294TIP3   OH212845   5.190   3.833   0.436
 4294TIP3    H112846   5.191   3.888   0.514
 4294TIP3    H212847   5.251   3.762   0.456
 4295TIP3   OH212848   4.074   0.918   1.187
 4295TIP3    H112849   4.090   0.833   1.226
 4295TIP3    H212850   4.077   0.980   1.260
 4296TIP3   OH212851   5.929   1.431   5.629
 4296TIP3    H112852   5.913   1.482   5.708
 4296TIP3    H212853   5.899   1.343   5.651
 4297TIP3   OH212854   4.862   1.464   5.293
 4297TIP3    H112855   4.930   1.405   5.326
 4297TIP3    H212856   4.897   1.498   5.211
 4298TIP3   OH212857   1.644   3.931   1.878
 4298TIP3    H112858   1.723   3.972   1.914
 4298TIP3    H212859   1.583   4.003   1.863
 4299TIP3   OH212860   1.315   1.090   0.899
 4299TIP3    H112861   1.391   1.084   0.842
 4299TIP3    H212862   1.319   1.178   0.935
 4300TIP3   OH212863   2.048   2.408   5.875
 4300TIP3    H112864   2.045   2.443   5.786
 4300TIP3    H212865   2.039   2.314   5.864
 4301TIP3   OH212866   7.044   0.688   2.920
 4301TIP3    H112867   6.956   0.663   2.894
 4301TIP3    H212868   7.053   0.657   3.010
 4302TIP3   OH212869   4.075   2.341   5.486
 4302TIP3    H112870   3.990   2.299   5.477
 4302TIP3    H212871   4.118   2.294   5.558
 4303TIP3   OH212872  -0.029   6.701   3.889
 4303TIP3    H112873  -0.089   6.643   3.937
 4303TIP3    H212874   0.055   6.692   3.934
 4304TIP3   OH212875   6.418   6.166   2.245
 4304TIP3    H112876   6.432   6.072   2.262
 4304TIP3    H212877   6.424   6.207   2.331
 4305TIP3   OH212878   3.393   2.522   0.190
 4305TIP3    H112879   3.382   2.442   0.138
 4305TIP3    H212880   3.326   2.515   0.258
 4306TIP3   OH212881   6.111   1.079   0.502
 4306TIP3    H112882   6.110   0.988   0.531
 4306TIP3    H212883   6.020   1.107   0.505
 4307TIP3   OH212884   6.038   4.806   0.960
 4307TIP3    H112885   6.111   4.843   1.010
 4307TIP3    H212886   5.982   4.881   0.940
 4308TIP3   OH212887   3.589   3.624   5.550
 4308TIP3    H112888   3.652   3.685   5.511
 4308TIP3    H212889   3.589   3.549   5.491
 4309TIP3   OH212890   6.857   5.072   0.494
 4309TIP3    H112891   6.887   5.044   0.408
 4309TIP3    H212892   6.831   5.164   0.481
 4310TIP3   OH212893   2.629   3.241   5.410
 4310TIP3    H112894   2.546   3.206   5.443
 4310TIP3    H212895   2.626   3.334   5.433
 4311TIP3   OH212896   7.215   6.141   4.241
 4311TIP3    H112897   7.178   6.229   4.229
 4311TIP3    H212898   7.159   6.084   4.188
 4312TIP3   OH212899   4.629   3.990   2.193
 4312TIP3    H112900   4.664   3.901   2.182
 4312TIP3    H212901   4.680   4.044   2.133
 4313TIP3   OH212902   4.469   0.080   4.144
 4313TIP3    H112903   4.446   0.048   4.232
 4313TIP3    H212904   4.539   0.143   4.160
 4314TIP3   OH212905   3.815   3.484   0.314
 4314TIP3    H112906   3.740   3.449   0.362
 4314TIP3    H212907   3.787   3.571   0.285
 4315TIP3   OH212908   0.441   3.724   5.209
 4315TIP3    H112909   0.532   3.752   5.218
 4315TIP3    H212910   0.431   3.653   5.273
 4316TIP3   OH212911   0.370   2.563   2.605
 4316TIP3    H112912   0.405   2.474   2.601
 4316TIP3    H212913   0.281   2.551   2.639
 4317TIP3   OH212914   0.611   5.980   5.085
 4317TIP3    H112915   0.607   6.045   5.156
 4317TIP3    H212916   0.683   6.010   5.029
 4318TIP3   OH212917   3.671   2.668   1.292
 4318TIP3    H112918   3.718   2.749   1.272
 4318TIP3    H212919   3.716   2.600   1.241
 4319TIP3   OH212920   2.929   5.269   2.949
 4319TIP3    H112921   2.871   5.321   2.894
 4319TIP3    H212922   2.929   5.182   2.908
 4320TIP3   OH212923   0.102   4.176   5.622
 4320TIP3    H112924   0.061   4.094   5.592
 4320TIP3    H212925   0.040   4.211   5.687
 4321TIP3   OH212926   4.044   3.339   5.185
 4321TIP3    H112927   3.985   3.265   5.200
 4321TIP3    H212928   4.010   3.381   5.105
 4322TIP3   OH212929   3.731   1.943   2.136
 4322TIP3    H112930   3.696   2.011   2.193
 4322TIP3    H212931   3.714   1.975   2.047
 4323TIP3   OH212932   6.795   5.838   0.167
 4323TIP3    H112933   6.703   5.852   0.188
 4323TIP3    H212934   6.817   5.755   0.208
 4324TIP3   OH212935   0.019   4.844   3.727
 4324TIP3    H112936   0.002   4.828   3.634
 4324TIP3    H212937   0.016   4.757   3.767
 4325TIP3   OH212938   4.214   6.204   5.018
 4325TIP3    H112939   4.249   6.226   4.932
 4325TIP3    H212940   4.217   6.109   5.022
 4326TIP3   OH212941   1.827   4.156   3.810
 4326TIP3    H112942   1.846   4.221   3.742
 4326TIP3    H212943   1.909   4.107   3.819
 4327TIP3   OH212944   1.714   3.159   1.727
 4327TIP3    H112945   1.664   3.088   1.768
 4327TIP3    H212946   1.671   3.239   1.758
 4328TIP3   OH212947   3.175   4.080   0.685
 4328TIP3    H112948   3.173   4.041   0.598
 4328TIP3    H212949   3.109   4.149   0.682
 4329TIP3   OH212950   3.942   1.446   4.264
 4329TIP3    H112951   3.863   1.494   4.287
 4329TIP3    H212952   3.946   1.373   4.326
 4330TIP3   OH212953   3.538   6.525   3.873
 4330TIP3    H112954   3.528   6.578   3.793
 4330TIP3    H212955   3.479   6.566   3.936
 4331TIP3   OH212956   0.374   5.831   0.068
 4331TIP3    H112957   0.360   5.920   0.099
 4331TIP3    H212958   0.451   5.801   0.117
 4332TIP3   OH212959   3.783   2.417   2.709
 4332TIP3    H112960   3.707   2.369   2.742
 4332TIP3    H212961   3.746   2.492   2.663
 4333TIP3   OH212962   5.534   1.037   0.650
 4333TIP3    H112963   5.627   1.055   0.659
 4333TIP3    H212964   5.505   1.094   0.578
 4334TIP3   OH212965   3.654   4.063   1.255
 4334TIP3    H112966   3.739   4.068   1.212
 4334TIP3    H212967   3.614   4.149   1.240
 4335TIP3   OH212968   3.944   3.680   5.790
 4335TIP3    H112969   3.930   3.621   5.716
 4335TIP3    H212970   4.017   3.735   5.762
 4336TIP3   OH212971   0.243   4.734   5.773
 4336TIP3    H112972   0.232   4.704   5.863
 4336TIP3    H212973   0.160   4.713   5.730
 4337TIP3   OH212974   3.660   6.291   3.436
 4337TIP3    H112975   3.729   6.275   3.500
 4337TIP3    H212976   3.603   6.356   3.477
 4338TIP3   OH212977   3.119   3.239   4.699
 4338TIP3    H112978   3.145   3.153   4.732
 4338TIP3    H212979   3.058   3.220   4.627
 4339TIP3   OH212980   3.205   3.680   4.281
 4339TIP3    H112981   3.179   3.658   4.371
 4339TIP3    H212982   3.249   3.765   4.290
 4340TIP3   OH212983   5.148   1.007   5.219
 4340TIP3    H112984   5.088   0.950   5.268
 4340TIP3    H212985   5.139   1.093   5.260
 4341TIP3   OH212986   2.678   5.074   4.289
 4341TIP3    H112987   2.679   5.004   4.355
 4341TIP3    H212988   2.752   5.053   4.232
 4342TIP3   OH212989   3.101   1.470   1.357
 4342TIP3    H112990   3.114   1.419   1.437
 4342TIP3    H212991   3.006   1.487   1.355
 4343TIP3   OH212992   3.683   4.064   1.545
 4343TIP3    H112993   3.709   3.972   1.537
 4343TIP3    H212994   3.686   4.098   1.456
 4344TIP3   OH212995   0.395   0.365   3.117
 4344TIP3    H112996   0.463   0.403   3.172
 4344TIP3    H212997   0.313   0.385   3.163
 4345TIP3   OH212998   6.677   3.109   4.661
 4345TIP3    H112999   6.708   3.089   4.572
 4345TIP3    H213000   6.639   3.196   4.654
 4346TIP3   OH213001   3.640   0.151   5.147
 4346TIP3    H113002   3.640   0.058   5.169
 4346TIP3    H213003   3.703   0.158   5.075
 4347TIP3   OH213004   2.477  -0.097   2.012
 4347TIP3    H113005   2.457  -0.006   1.989
 4347TIP3    H213006   2.502  -0.138   1.930
 4348TIP3   OH213007   0.568   4.993   0.495
 4348TIP3    H113008   0.483   5.014   0.532
 4348TIP3    H213009   0.584   5.061   0.430
 4349TIP3   OH213010   2.017   1.848   2.890
 4349TIP3    H113011   2.108   1.832   2.867
 4349TIP3    H213012   1.968   1.819   2.813
 4350TIP3   OH213013   6.274   6.023   5.296
 4350TIP3    H113014   6.300   6.067   5.215
 4350TIP3    H213015   6.180   6.038   5.302
 4351TIP3   OH213016   0.841   2.107   0.887
 4351TIP3    H113017   0.872   2.037   0.945
 4351TIP3    H213018   0.919   2.133   0.838
 4352TIP3   OH213019   3.685   1.850   1.505
 4352TIP3    H113020   3.730   1.930   1.479
 4352TIP3    H213021   3.592   1.874   1.505
 4353TIP3   OH213022   5.962   0.684   0.679
 4353TIP3    H113023   5.914   0.603   0.660
 4353TIP3    H213024   5.958   0.692   0.774
 4354TIP3   OH213025   2.518   5.161   1.029
 4354TIP3    H113026   2.478   5.241   0.996
 4354TIP3    H213027   2.585   5.191   1.091
 4355TIP3   OH213028   4.670   4.212   5.873
 4355TIP3    H113029   4.762   4.232   5.860
 4355TIP3    H213030   4.643   4.171   5.790
 4356TIP3   OH213031   0.545   4.365   4.581
 4356TIP3    H113032   0.490   4.291   4.608
 4356TIP3    H213033   0.500   4.442   4.615
 4357TIP3   OH213034   5.506   3.000   5.344
 4357TIP3    H113035   5.538   3.062   5.279
 4357TIP3    H213036   5.465   2.930   5.293
 4358TIP3   OH213037   3.242   5.610   2.912
 4358TIP3    H113038   3.223   5.517   2.901
 4358TIP3    H213039   3.171   5.655   2.866
 4359TIP3   OH213040   2.667   1.536   5.641
 4359TIP3    H113041   2.716   1.586   5.575
 4359TIP3    H213042   2.727   1.530   5.716
 4360TIP3   OH213043   3.021   0.662   1.755
 4360TIP3    H113044   3.080   0.737   1.749
 4360TIP3    H213045   2.954   0.690   1.817
 4361TIP3   OH213046   0.133   3.669   2.987
 4361TIP3    H113047   0.211   3.655   2.933
 4361TIP3    H213048   0.064   3.692   2.925
 4362TIP3   OH213049   4.427   1.204   5.572
 4362TIP3    H113050   4.338   1.176   5.594
 4362TIP3    H213051   4.433   1.294   5.605
 4363TIP3   OH213052   4.724   4.264   5.076
 4363TIP3    H113053   4.683   4.182   5.104
 4363TIP3    H213054   4.759   4.245   4.990
 4364TIP3   OH213055   5.502   2.331   3.668
 4364TIP3    H113056   5.536   2.246   3.640
 4364TIP3    H213057   5.457   2.313   3.751
 4365TIP3   OH213058   3.193   5.329   2.896
 4365TIP3    H113059   3.100   5.313   2.914
 4365TIP3    H213060   3.239   5.298   2.974
 4366TIP3   OH213061   6.489   0.513   2.681
 4366TIP3    H113062   6.424   0.499   2.750
 4366TIP3    H213063   6.446   0.570   2.618
 4367TIP3   OH213064   1.848   1.485   1.136
 4367TIP3    H113065   1.844   1.407   1.192
 4367TIP3    H213066   1.925   1.533   1.166
 4368TIP3   OH213067   5.522   1.540   5.058
 4368TIP3    H113068   5.430   1.560   5.045
 4368TIP3    H213069   5.524   1.478   5.131
 4369TIP3   OH213070   4.110   6.321   4.140
 4369TIP3    H113071   4.029   6.274   4.120
 4369TIP3    H213072   4.084   6.388   4.203
 4370TIP3   OH213073   2.486   3.326   3.544
 4370TIP3    H113074   2.507   3.235   3.526
 4370TIP3    H213075   2.484   3.332   3.639
 4371TIP3   OH213076   2.144   5.578   3.611
 4371TIP3    H113077   2.220   5.636   3.616
 4371TIP3    H213078   2.119   5.566   3.703
 4372TIP3   OH213079   2.007   0.732   1.152
 4372TIP3    H113080   1.939   0.765   1.093
 4372TIP3    H213081   1.968   0.737   1.239
 4373TIP3   OH213082   2.698   1.483   2.405
 4373TIP3    H113083   2.613   1.440   2.408
 4373TIP3    H213084   2.683   1.568   2.446
 4374TIP3   OH213085   4.675   1.543   2.712
 4374TIP3    H113086   4.629   1.460   2.725
 4374TIP3    H213087   4.757   1.532   2.761
 4375TIP3   OH213088   7.130   5.091   1.871
 4375TIP3    H113089   7.042   5.108   1.836
 4375TIP3    H213090   7.122   5.008   1.917
 4376TIP3   OH213091   2.295   0.739   4.759
 4376TIP3    H113092   2.258   0.724   4.672
 4376TIP3    H213093   2.245   0.812   4.795
 4377TIP3   OH213094   1.097   1.537   1.314
 4377TIP3    H113095   1.120   1.519   1.405
 4377TIP3    H213096   1.047   1.460   1.287
 4378TIP3   OH213097   6.385   3.147   1.839
 4378TIP3    H113098   6.458   3.209   1.830
 4378TIP3    H213099   6.426   3.068   1.873
 4379TIP3   OH213100   6.019   5.250   0.561
 4379TIP3    H113101   6.082   5.248   0.489
 4379TIP3    H213102   6.016   5.160   0.593
 4380TIP3   OH213103   3.508   2.709   4.601
 4380TIP3    H113104   3.482   2.800   4.619
 4380TIP3    H213105   3.459   2.684   4.523
 4381TIP3   OH213106   1.461   4.631   4.727
 4381TIP3    H113107   1.492   4.721   4.740
 4381TIP3    H213108   1.407   4.613   4.804
 4382TIP3   OH213109   6.301   1.689   5.111
 4382TIP3    H113110   6.213   1.690   5.148
 4382TIP3    H213111   6.287   1.675   5.017
 4383TIP3   OH213112   3.380   0.586   0.024
 4383TIP3    H113113   3.293   0.618   0.049
 4383TIP3    H213114   3.389   0.503   0.070
 4384TIP3   OH213115   6.811   4.615   4.941
 4384TIP3    H113116   6.762   4.658   4.870
 4384TIP3    H213117   6.886   4.673   4.957
 4385TIP3   OH213118   6.101   5.808   0.695
 4385TIP3    H113119   6.039   5.786   0.626
 4385TIP3    H213120   6.153   5.729   0.707
 4386TIP3   OH213121   0.611   5.952   2.218
 4386TIP3    H113122   0.536   5.893   2.216
 4386TIP3    H213123   0.687   5.895   2.218
 4387TIP3   OH213124   1.758   6.598   1.942
 4387TIP3    H113125   1.783   6.537   2.012
 4387TIP3    H213126   1.763   6.546   1.862
 4388TIP3   OH213127   2.432   1.187   4.235
 4388TIP3    H113128   2.347   1.224   4.257
 4388TIP3    H213129   2.493   1.228   4.296
 4389TIP3   OH213130   1.958   1.112   1.124
 4389TIP3    H113131   2.001   1.196   1.133
 4389TIP3    H213132   1.962   1.072   1.211
 4390TIP3   OH213133   3.144   0.912   2.753
 4390TIP3    H113134   3.186   0.958   2.681
 4390TIP3    H213135   3.084   0.976   2.791
 4391TIP3   OH213136   2.538   1.496   1.256
 4391TIP3    H113137   2.581   1.439   1.192
 4391TIP3    H213138   2.488   1.436   1.311
 4392TIP3   OH213139   5.946   3.080   5.507
 4392TIP3    H113140   5.926   3.000   5.459
 4392TIP3    H213141   6.020   3.119   5.459
 4393TIP3   OH213142   6.936   6.092   2.291
 4393TIP3    H113143   6.995   6.167   2.289
 4393TIP3    H213144   6.955   6.044   2.211
 4394TIP3   OH213145   1.093   5.606   2.996
 4394TIP3    H113146   1.102   5.673   3.064
 4394TIP3    H213147   1.173   5.553   3.003
 4395TIP3   OH213148   3.609   6.587   5.047
 4395TIP3    H113149   3.529   6.537   5.033
 4395TIP3    H213150   3.650   6.590   4.961
 4396TIP3   OH213151   6.257   3.437   3.231
 4396TIP3    H113152   6.187   3.502   3.238
 4396TIP3    H213153   6.328   3.484   3.186
 4397TIP3   OH213154   6.787   1.841   4.352
 4397TIP3    H113155   6.729   1.868   4.424
 4397TIP3    H213156   6.865   1.807   4.395
 4398TIP3   OH213157   3.842   0.568   4.639
 4398TIP3    H113158   3.764   0.584   4.586
 4398TIP3    H213159   3.873   0.655   4.663
 4399TIP3   OH213160   0.345   3.430   1.237
 4399TIP3    H113161   0.270   3.452   1.182
 4399TIP3    H213162   0.343   3.496   1.307
 4400TIP3   OH213163   7.110   3.372   3.006
 4400TIP3    H113164   7.049   3.390   2.934
 4400TIP3    H213165   7.096   3.280   3.028
 4401TIP3   OH213166   1.990   4.551   1.081
 4401TIP3    H113167   2.075   4.514   1.105
 4401TIP3    H213168   1.987   4.635   1.126
 4402TIP3   OH213169   7.118   0.592   5.515
 4402TIP3    H113170   7.060   0.661   5.484
 4402TIP3    H213171   7.151   0.551   5.434
 4403TIP3   OH213172   3.470   1.780   0.896
 4403TIP3    H113173   3.504   1.746   0.979
 4403TIP3    H213174   3.380   1.748   0.892
 4404TIP3   OH213175   0.424   0.809   4.133
 4404TIP3    H113176   0.484   0.882   4.121
 4404TIP3    H213177   0.480   0.731   4.129
 4405TIP3   OH213178   0.581   5.972   2.649
 4405TIP3    H113179   0.647   5.915   2.688
 4405TIP3    H213180   0.604   5.976   2.556
 4406TIP3   OH213181   2.250   5.437   1.563
 4406TIP3    H113182   2.242   5.412   1.471
 4406TIP3    H213183   2.301   5.365   1.603
 4407TIP3   OH213184   0.652   3.107   0.349
 4407TIP3    H113185   0.606   3.167   0.290
 4407TIP3    H213186   0.616   3.021   0.328
 4408TIP3   OH213187   7.089   2.067   2.327
 4408TIP3    H113188   7.003   2.041   2.293
 4408TIP3    H213189   7.152   2.028   2.265
 4409TIP3   OH213190   6.209   2.397   5.786
 4409TIP3    H113191   6.252   2.446   5.716
 4409TIP3    H213192   6.229   2.305   5.768
 4410TIP3   OH213193   5.392   4.751   5.041
 4410TIP3    H113194   5.367   4.664   5.010
 4410TIP3    H213195   5.480   4.739   5.077
 4411TIP3   OH213196   4.386   0.208   0.603
 4411TIP3    H113197   4.478   0.182   0.603
 4411TIP3    H213198   4.389   0.303   0.616
 4412TIP3   OH213199   4.803   2.368   0.580
 4412TIP3    H113200   4.870   2.349   0.646
 4412TIP3    H213201   4.852   2.385   0.500
 4413TIP3   OH213202   5.467   2.277   2.549
 4413TIP3    H113203   5.519   2.224   2.610
 4413TIP3    H213204   5.377   2.249   2.564
 4414TIP3   OH213205   4.817   5.128   3.485
 4414TIP3    H113206   4.909   5.124   3.511
 4414TIP3    H213207   4.814   5.084   3.400
 4415TIP3   OH213208   3.199   1.738   0.937
 4415TIP3    H113209   3.151   1.734   0.854
 4415TIP3    H213210   3.185   1.653   0.978
 4416TIP3   OH213211   6.179   2.432   0.987
 4416TIP3    H113212   6.257   2.377   0.988
 4416TIP3    H213213   6.160   2.445   0.895
 4417TIP3   OH213214   3.729   2.184   4.852
 4417TIP3    H113215   3.640   2.209   4.878
 4417TIP3    H213216   3.718   2.144   4.766
 4418TIP3   OH213217   3.211   5.097   4.394
 4418TIP3    H113218   3.179   5.012   4.364
 4418TIP3    H213219   3.280   5.075   4.457
 4419TIP3   OH213220   2.404   3.395   0.116
 4419TIP3    H113221   2.458   3.319   0.095
 4419TIP3    H213222   2.316   3.360   0.128
 4420TIP3   OH213223   3.316   2.402   1.151
 4420TIP3    H113224   3.325   2.469   1.083
 4420TIP3    H213225   3.226   2.411   1.182
 4421TIP3   OH213226   3.560   4.400   1.415
 4421TIP3    H113227   3.543   4.395   1.321
 4421TIP3    H213228   3.630   4.337   1.430
 4422TIP3   OH213229   6.629   4.019   3.036
 4422TIP3    H113230   6.537   4.005   3.014
 4422TIP3    H213231   6.641   4.114   3.033
 4423TIP3   OH213232   4.044   5.199   1.983
 4423TIP3    H113233   4.028   5.196   2.078
 4423TIP3    H213234   3.959   5.184   1.944
 4424TIP3   OH213235   6.079   3.718   5.720
 4424TIP3    H113236   6.087   3.700   5.813
 4424TIP3    H213237   6.117   3.805   5.709
 4425TIP3   OH213238   6.520   2.810   3.213
 4425TIP3    H113239   6.482   2.878   3.270
 4425TIP3    H213240   6.502   2.728   3.259
 4426TIP3   OH213241   6.799   2.519   1.767
 4426TIP3    H113242   6.803   2.429   1.799
 4426TIP3    H213243   6.889   2.550   1.770
 4427TIP3   OH213244   2.162   5.533   2.502
 4427TIP3    H113245   2.090   5.591   2.526
 4427TIP3    H213246   2.240   5.588   2.505
 4428TIP3   OH213247   5.173   4.284   5.496
 4428TIP3    H113248   5.239   4.250   5.436
 4428TIP3    H213249   5.221   4.301   5.577
 4429TIP3   OH213250   4.564   4.465   2.332
 4429TIP3    H113251   4.523   4.482   2.417
 4429TIP3    H213252   4.658   4.477   2.348
 4430TIP3   OH213253   0.131   5.776   5.311
 4430TIP3    H113254   0.062   5.721   5.351
 4430TIP3    H213255   0.209   5.758   5.364
 4431TIP3   OH213256   5.864   6.648   4.921
 4431TIP3    H113257   5.905   6.714   4.977
 4431TIP3    H213258   5.921   6.572   4.927
 4432TIP3   OH213259   3.287   4.847   4.181
 4432TIP3    H113260   3.287   4.922   4.122
 4432TIP3    H213261   3.255   4.774   4.128
 4433TIP3   OH213262   6.733   6.336   5.183
 4433TIP3    H113263   6.718   6.349   5.276
 4433TIP3    H213264   6.648   6.352   5.142
 4434TIP3   OH213265   5.370   5.020   2.307
 4434TIP3    H113266   5.416   4.974   2.237
 4434TIP3    H213267   5.407   4.984   2.388
 4435TIP3   OH213268   2.427   0.909   3.130
 4435TIP3    H113269   2.348   0.872   3.169
 4435TIP3    H213270   2.482   0.934   3.205
 4436TIP3   OH213271   3.676   0.458   5.747
 4436TIP3    H113272   3.677   0.385   5.808
 4436TIP3    H213273   3.708   0.533   5.797
 4437TIP3   OH213274   1.131   1.231   0.110
 4437TIP3    H113275   1.107   1.224   0.017
 4437TIP3    H213276   1.182   1.313   0.115
 4438TIP3   OH213277   5.261   4.111   0.650
 4438TIP3    H113278   5.323   4.172   0.691
 4438TIP3    H213279   5.240   4.152   0.566
 4439TIP3   OH213280   5.266   1.304   3.582
 4439TIP3    H113281   5.284   1.247   3.507
 4439TIP3    H213282   5.191   1.356   3.554
 4440TIP3   OH213283   3.430   6.308   2.436
 4440TIP3    H113284   3.500   6.279   2.493
 4440TIP3    H213285   3.444   6.259   2.354
 4441TIP3   OH213286   0.498   3.606   4.377
 4441TIP3    H113287   0.422   3.633   4.429
 4441TIP3    H213288   0.517   3.517   4.407
 4442TIP3   OH213289   1.267   4.920   2.763
 4442TIP3    H113290   1.356   4.886   2.767
 4442TIP3    H213291   1.277   5.008   2.726
 4443TIP3   OH213292   5.427   4.292   4.736
 4443TIP3    H113293   5.397   4.276   4.825
 4443TIP3    H213294   5.472   4.377   4.741
 4444TIP3   OH213295   6.081   5.091   3.656
 4444TIP3    H113296   6.081   5.027   3.727
 4444TIP3    H213297   6.171   5.124   3.653
 4445TIP3   OH213298   1.884   6.638   4.194
 4445TIP3    H113299   1.845   6.725   4.201
 4445TIP3    H213300   1.945   6.645   4.120
 4446TIP3   OH213301   3.122   1.653   4.566
 4446TIP3    H113302   3.049   1.591   4.565
 4446TIP3    H213303   3.109   1.705   4.486
 4447TIP3   OH213304   6.763   4.951   2.988
 4447TIP3    H113305   6.807   4.869   2.963
 4447TIP3    H213306   6.677   4.945   2.945
 4448TIP3   OH213307   3.033   3.892   2.596
 4448TIP3    H113308   2.941   3.905   2.571
 4448TIP3    H213309   3.081   3.955   2.542
 4449TIP3   OH213310   4.975   0.028   2.148
 4449TIP3    H113311   4.925  -0.039   2.194
 4449TIP3    H213312   4.913   0.100   2.135
 4450TIP3   OH213313   5.099   1.883   5.361
 4450TIP3    H113314   5.160   1.956   5.360
 4450TIP3    H213315   5.118   1.837   5.444
 4451TIP3   OH213316   7.039   0.530   5.244
 4451TIP3    H113317   7.034   0.440   5.210
 4451TIP3    H213318   6.948   0.556   5.255
 4452TIP3   OH213319   5.865   4.835   5.795
 4452TIP3    H113320   5.831   4.831   5.884
 4452TIP3    H213321   5.954   4.867   5.805
 4453TIP3   OH213322   4.427   4.007   4.319
 4453TIP3    H113323   4.500   3.946   4.321
 4453TIP3    H213324   4.431   4.052   4.404
 4454TIP3   OH213325   0.608   1.003   4.092
 4454TIP3    H113326   0.636   1.089   4.123
 4454TIP3    H213327   0.673   0.943   4.129
 4455TIP3   OH213328   0.618   1.620   5.842
 4455TIP3    H113329   0.544   1.585   5.794
 4455TIP3    H213330   0.689   1.558   5.826
 4456TIP3   OH213331   6.054   1.690   5.262
 4456TIP3    H113332   6.059   1.776   5.305
 4456TIP3    H213333   5.985   1.644   5.309
 4457TIP3   OH213334   2.538   6.449   4.254
 4457TIP3    H113335   2.605   6.517   4.256
 4457TIP3    H213336   2.456   6.496   4.236
 4458TIP3   OH213337   6.375   6.654   2.203
 4458TIP3    H113338   6.291   6.608   2.208
 4458TIP3    H213339   6.388   6.689   2.291
 4459TIP3   OH213340   1.158   0.499   4.263
 4459TIP3    H113341   1.172   0.404   4.265
 4459TIP3    H213342   1.069   0.511   4.296
 4460TIP3   OH213343   0.956   2.619   2.314
 4460TIP3    H113344   1.016   2.545   2.323
 4460TIP3    H213345   0.976   2.675   2.389
 4461TIP3   OH213346   0.746   4.072   5.794
 4461TIP3    H113347   0.675   4.066   5.730
 4461TIP3    H213348   0.779   3.983   5.802
 4462TIP3   OH213349   0.828   4.811   5.182
 4462TIP3    H113350   0.852   4.786   5.271
 4462TIP3    H213351   0.890   4.764   5.126
 4463TIP3   OH213352   4.695   5.888   5.523
 4463TIP3    H113353   4.764   5.953   5.530
 4463TIP3    H213354   4.673   5.866   5.613
 4464TIP3   OH213355   1.206   6.024   3.653
 4464TIP3    H113356   1.188   6.118   3.648
 4464TIP3    H213357   1.234   6.000   3.565
 4465TIP3   OH213358   4.620   2.634   5.424
 4465TIP3    H113359   4.672   2.713   5.411
 4465TIP3    H213360   4.563   2.655   5.498
 4466TIP3   OH213361   5.598   2.318   4.254
 4466TIP3    H113362   5.535   2.253   4.285
 4466TIP3    H213363   5.577   2.331   4.162
 4467TIP3   OH213364   7.044   5.328   0.601
 4467TIP3    H113365   7.103   5.253   0.597
 4467TIP3    H213366   6.963   5.297   0.559
 4468TIP3   OH213367   2.461   4.573   3.747
 4468TIP3    H113368   2.365   4.581   3.751
 4468TIP3    H213369   2.493   4.663   3.749
 4469TIP3   OH213370   6.373   5.557   0.414
 4469TIP3    H113371   6.400   5.608   0.490
 4469TIP3    H213372   6.302   5.608   0.375
 4470TIP3   OH213373   4.137   1.583   3.512
 4470TIP3    H113374   4.085   1.508   3.482
 4470TIP3    H213375   4.204   1.544   3.568
 4471TIP3   OH213376   0.386   5.717   5.105
 4471TIP3    H113377   0.312   5.752   5.056
 4471TIP3    H213378   0.352   5.640   5.150
 4472TIP3   OH213379   5.281   1.491   4.696
 4472TIP3    H113380   5.347   1.473   4.629
 4472TIP3    H213381   5.198   1.493   4.648
 4473TIP3   OH213382   5.947   6.152   0.355
 4473TIP3    H113383   5.954   6.115   0.443
 4473TIP3    H213384   5.968   6.079   0.297
 4474TIP3   OH213385   1.825   4.986   2.729
 4474TIP3    H113386   1.867   5.020   2.808
 4474TIP3    H213387   1.865   4.900   2.716
 4475TIP3   OH213388   6.032   0.759   4.239
 4475TIP3    H113389   6.034   0.664   4.239
 4475TIP3    H213390   5.992   0.782   4.154
 4476TIP3   OH213391   5.141   3.844   3.169
 4476TIP3    H113392   5.235   3.852   3.184
 4476TIP3    H213393   5.120   3.753   3.190
 4477TIP3   OH213394   0.087   6.734   2.274
 4477TIP3    H113395   0.117   6.656   2.321
 4477TIP3    H213396   0.097   6.711   2.181
 4478TIP3   OH213397   3.396   2.545   4.360
 4478TIP3    H113398   3.431   2.473   4.413
 4478TIP3    H213399   3.387   2.508   4.272
 4479TIP3   OH213400   4.926   2.117   2.756
 4479TIP3    H113401   4.883   2.201   2.736
 4479TIP3    H213402   4.933   2.074   2.671
 4480TIP3   OH213403   4.874   4.327   1.258
 4480TIP3    H113404   4.838   4.390   1.320
 4480TIP3    H213405   4.826   4.342   1.177
 4481TIP3   OH213406   1.368   6.155   0.445
 4481TIP3    H113407   1.427   6.082   0.425
 4481TIP3    H213408   1.380   6.216   0.372
 4482TIP3   OH213409   2.777   2.519   0.450
 4482TIP3    H113410   2.864   2.483   0.463
 4482TIP3    H213411   2.787   2.584   0.381
 4483TIP3   OH213412   2.915   4.477   0.628
 4483TIP3    H113413   2.987   4.540   0.617
 4483TIP3    H213414   2.851   4.525   0.681
 4484TIP3   OH213415   6.260   4.961   1.064
 4484TIP3    H113416   6.349   4.976   1.096
 4484TIP3    H213417   6.228   5.048   1.041
 4485TIP3   OH213418   5.138   3.403   1.385
 4485TIP3    H113419   5.071   3.414   1.318
 4485TIP3    H213420   5.092   3.360   1.457
 4486TIP3   OH213421   0.098   1.018   0.882
 4486TIP3    H113422   0.175   0.964   0.901
 4486TIP3    H213423   0.040   0.961   0.832
 4487TIP3   OH213424   1.916   4.763   0.532
 4487TIP3    H113425   1.838   4.817   0.543
 4487TIP3    H213426   1.954   4.759   0.619
 4488TIP3   OH213427   4.626   3.759   0.726
 4488TIP3    H113428   4.648   3.752   0.819
 4488TIP3    H213429   4.690   3.702   0.682
 4489TIP3   OH213430   4.830   3.191   4.980
 4489TIP3    H113431   4.778   3.111   4.971
 4489TIP3    H213432   4.857   3.213   4.891
 4490TIP3   OH213433   2.333   1.907   4.718
 4490TIP3    H113434   2.289   1.859   4.648
 4490TIP3    H213435   2.389   1.969   4.673
 4491TIP3   OH213436   1.323   3.388   0.327
 4491TIP3    H113437   1.228   3.393   0.343
 4491TIP3    H213438   1.361   3.442   0.396
 4492TIP3   OH213439   6.580   1.256   5.654
 4492TIP3    H113440   6.602   1.333   5.602
 4492TIP3    H213441   6.500   1.221   5.614
 4493TIP3   OH213442   3.963   4.481   3.816
 4493TIP3    H113443   3.974   4.480   3.911
 4493TIP3    H213444   3.873   4.511   3.803
 4494TIP3   OH213445   5.004   6.764   0.452
 4494TIP3    H113446   4.917   6.766   0.413
 4494TIP3    H213447   5.033   6.673   0.441
 4495TIP3   OH213448   1.127   0.366   1.325
 4495TIP3    H113449   1.042   0.348   1.286
 4495TIP3    H213450   1.150   0.453   1.294
 4496TIP3   OH213451   5.715   6.128   3.315
 4496TIP3    H113452   5.768   6.089   3.385
 4496TIP3    H213453   5.626   6.126   3.349
 4497TIP3   OH213454   4.798   3.940   1.103
 4497TIP3    H113455   4.840   3.982   1.179
 4497TIP3    H213456   4.704   3.947   1.121
 4498TIP3   OH213457   0.753   6.523   5.237
 4498TIP3    H113458   0.844   6.542   5.214
 4498TIP3    H213459   0.726   6.598   5.291
 4499TIP3   OH213460   2.780   3.643   3.462
 4499TIP3    H113461   2.691   3.627   3.430
 4499TIP3    H213462   2.787   3.739   3.467
 4500TIP3   OH213463   0.915   6.375   4.114
 4500TIP3    H113464   0.923   6.378   4.210
 4500TIP3    H213465   0.845   6.437   4.094
 4501TIP3   OH213466   1.067   1.864   5.211
 4501TIP3    H113467   1.127   1.830   5.278
 4501TIP3    H213468   1.095   1.955   5.199
 4502TIP3   OH213469   1.511   5.798   3.443
 4502TIP3    H113470   1.573   5.741   3.399
 4502TIP3    H213471   1.430   5.748   3.445
 4503TIP3   OH213472   7.100   1.312   3.076
 4503TIP3    H113473   7.079   1.227   3.115
 4503TIP3    H213474   7.079   1.300   2.983
 4504TIP3   OH213475   2.637   2.988   1.379
 4504TIP3    H113476   2.626   3.076   1.345
 4504TIP3    H213477   2.550   2.948   1.373
 4505TIP3   OH213478   1.448   3.077   5.152
 4505TIP3    H113479   1.359   3.044   5.164
 4505TIP3    H213480   1.484   3.081   5.241
 4506TIP3   OH213481   1.752   2.962   5.078
 4506TIP3    H113482   1.679   2.940   5.019
 4506TIP3    H213483   1.796   3.034   5.034
 4507TIP3   OH213484   1.496  -0.047   1.466
 4507TIP3    H113485   1.493   0.032   1.520
 4507TIP3    H213486   1.457  -0.115   1.521
 4508TIP3   OH213487   4.592   0.298   1.668
 4508TIP3    H113488   4.658   0.305   1.736
 4508TIP3    H213489   4.539   0.223   1.693
 4509TIP3   OH213490   0.973   6.606   0.055
 4509TIP3    H113491   1.010   6.620  -0.032
 4509TIP3    H213492   0.956   6.512   0.059
 4510TIP3   OH213493   6.017   5.016   1.823
 4510TIP3    H113494   6.093   4.960   1.839
 4510TIP3    H213495   5.950   4.957   1.788
 4511TIP3   OH213496   2.050   6.401   2.376
 4511TIP3    H113497   1.990   6.475   2.373
 4511TIP3    H213498   2.135   6.440   2.395
 4512TIP3   OH213499   0.679   5.217   1.037
 4512TIP3    H113500   0.679   5.125   1.008
 4512TIP3    H213501   0.766   5.230   1.075
 4513TIP3   OH213502   5.293   1.916   2.797
 4513TIP3    H113503   5.350   1.935   2.723
 4513TIP3    H213504   5.352   1.890   2.867
 4514TIP3   OH213505   7.100   4.220   3.771
 4514TIP3    H113506   7.134   4.232   3.682
 4514TIP3    H213507   7.045   4.297   3.785
 4515TIP3   OH213508   3.417   4.878   3.195
 4515TIP3    H113509   3.421   4.952   3.133
 4515TIP3    H213510   3.505   4.872   3.231
 4516TIP3   OH213511   3.887   2.850   5.608
 4516TIP3    H113512   3.879   2.882   5.698
 4516TIP3    H213513   3.886   2.755   5.616
 4517TIP3   OH213514   1.176   4.038   4.614
 4517TIP3    H113515   1.159   4.010   4.524
 4517TIP3    H213516   1.149   4.130   4.615
 4518TIP3   OH213517   4.053   5.031   0.076
 4518TIP3    H113518   4.028   4.959   0.134
 4518TIP3    H213519   3.982   5.095   0.085
 4519TIP3   OH213520   2.181   4.277   4.335
 4519TIP3    H113521   2.126   4.341   4.380
 4519TIP3    H213522   2.265   4.282   4.380
 4520TIP3   OH213523   0.901   6.254   0.921
 4520TIP3    H113524   0.901   6.294   0.834
 4520TIP3    H213525   0.988   6.215   0.930
 4521TIP3   OH213526   6.154   0.774   2.836
 4521TIP3    H113527   6.246   0.788   2.857
 4521TIP3    H213528   6.156   0.710   2.764
 4522TIP3   OH213529   4.570   4.274   5.536
 4522TIP3    H113530   4.476   4.287   5.539
 4522TIP3    H213531   4.597   4.311   5.452
 4523TIP3   OH213532   4.012   5.200   4.718
 4523TIP3    H113533   4.024   5.295   4.713
 4523TIP3    H213534   4.008   5.181   4.811
 4524TIP3   OH213535   6.109   1.585   2.980
 4524TIP3    H113536   6.184   1.627   3.023
 4524TIP3    H213537   6.123   1.491   2.994
 4525TIP3   OH213538   2.415   3.146   4.747
 4525TIP3    H113539   2.433   3.229   4.791
 4525TIP3    H213540   2.416   3.081   4.817
 4526TIP3   OH213541   4.368   3.256   5.762
 4526TIP3    H113542   4.424   3.261   5.685
 4526TIP3    H213543   4.402   3.182   5.812
 4527TIP3   OH213544   2.715   4.618   5.859
 4527TIP3    H113545   2.716   4.612   5.764
 4527TIP3    H213546   2.630   4.657   5.880
 4528TIP3   OH213547   4.875   4.973   3.258
 4528TIP3    H113548   4.966   4.963   3.229
 4528TIP3    H213549   4.863   4.904   3.323
 4529TIP3   OH213550   4.578   0.984   1.878
 4529TIP3    H113551   4.642   1.016   1.814
 4529TIP3    H213552   4.581   0.889   1.870
 4530TIP3   OH213553   6.668   2.837   3.802
 4530TIP3    H113554   6.664   2.887   3.720
 4530TIP3    H213555   6.652   2.902   3.870
 4531TIP3   OH213556   3.717   2.792   2.150
 4531TIP3    H113557   3.791   2.731   2.141
 4531TIP3    H213558   3.681   2.799   2.061
 4532TIP3   OH213559   2.351   4.800   4.027
 4532TIP3    H113560   2.391   4.800   3.940
 4532TIP3    H213561   2.425   4.787   4.087
 4533TIP3   OH213562   2.352   2.133   0.531
 4533TIP3    H113563   2.343   2.056   0.587
 4533TIP3    H213564   2.442   2.162   0.546
 4534TIP3   OH213565   1.829   1.536   2.711
 4534TIP3    H113566   1.765   1.493   2.654
 4534TIP3    H213567   1.888   1.582   2.651
 4535TIP3   OH213568   2.612   4.821   1.678
 4535TIP3    H113569   2.589   4.751   1.739
 4535TIP3    H213570   2.708   4.816   1.672
 4536TIP3   OH213571   3.471   5.496   4.649
 4536TIP3    H113572   3.483   5.404   4.675
 4536TIP3    H213573   3.396   5.495   4.590
 4537TIP3   OH213574   4.175   2.585   5.450
 4537TIP3    H113575   4.142   2.635   5.375
 4537TIP3    H213576   4.155   2.494   5.430
 4538TIP3   OH213577   4.190   5.117   3.445
 4538TIP3    H113578   4.178   5.090   3.536
 4538TIP3    H213579   4.122   5.071   3.397
 4539TIP3   OH213580   5.900   5.465   5.298
 4539TIP3    H113581   5.955   5.540   5.320
 4539TIP3    H213582   5.931   5.436   5.213
 4540TIP3   OH213583   3.146   0.438   5.593
 4540TIP3    H113584   3.197   0.407   5.518
 4540TIP3    H213585   3.182   0.525   5.612
 4541TIP3   OH213586   1.045   3.572   0.140
 4541TIP3    H113587   1.055   3.515   0.216
 4541TIP3    H213588   1.113   3.638   0.149
 4542TIP3   OH213589   6.056   6.230  -0.007
 4542TIP3    H113590   6.118   6.268   0.054
 4542TIP3    H213591   6.019   6.306  -0.054
 4543TIP3   OH213592   2.985   1.426   0.751
 4543TIP3    H113593   2.990   1.519   0.730
 4543TIP3    H213594   2.979   1.382   0.666
 4544TIP3   OH213595   2.229   3.930   4.299
 4544TIP3    H113596   2.256   3.849   4.255
 4544TIP3    H213597   2.137   3.941   4.274
 4545TIP3   OH213598   3.205   2.869   0.597
 4545TIP3    H113599   3.184   2.914   0.515
 4545TIP3    H213600   3.156   2.916   0.664
 4546TIP3   OH213601  -0.017   2.787   4.621
 4546TIP3    H113602  -0.036   2.830   4.704
 4546TIP3    H213603  -0.101   2.784   4.576
 4547TIP3   OH213604   1.962   2.679   2.932
 4547TIP3    H113605   2.046   2.722   2.912
 4547TIP3    H213606   1.896   2.743   2.905
 4548TIP3   OH213607   2.369   1.864   5.003
 4548TIP3    H113608   2.440   1.802   5.018
 4548TIP3    H213609   2.358   1.866   4.908
 4549TIP3   OH213610   2.547   3.912   1.251
 4549TIP3    H113611   2.490   3.892   1.326
 4549TIP3    H213612   2.590   3.830   1.231
 4550TIP3   OH213613   7.059   2.604   1.785
 4550TIP3    H113614   7.142   2.612   1.738
 4550TIP3    H213615   7.084   2.578   1.874
 4551TIP3   OH213616   2.917   5.927   0.762
 4551TIP3    H113617   2.939   5.997   0.822
 4551TIP3    H213618   2.959   5.951   0.680
 4552TIP3   OH213619   5.294   3.144  -0.059
 4552TIP3    H113620   5.251   3.191   0.012
 4552TIP3    H213621   5.262   3.188  -0.139
 4553TIP3   OH213622   4.721   5.106   1.430
 4553TIP3    H113623   4.784   5.172   1.460
 4553TIP3    H213624   4.757   5.023   1.461
 4554TIP3   OH213625   4.721   4.809   4.220
 4554TIP3    H113626   4.798   4.753   4.212
 4554TIP3    H213627   4.658   4.773   4.158
 4555TIP3   OH213628   2.708   0.386   2.402
 4555TIP3    H113629   2.649   0.451   2.365
 4555TIP3    H213630   2.654   0.339   2.466
 4556TIP3   OH213631   4.153   1.489   3.203
 4556TIP3    H113632   4.164   1.491   3.298
 4556TIP3    H213633   4.092   1.560   3.184
 4557TIP3   OH213634   4.959   2.256   1.629
 4557TIP3    H113635   4.905   2.187   1.667
 4557TIP3    H213636   5.040   2.212   1.603
 4558TIP3   OH213637   6.965   6.374   0.354
 4558TIP3    H113638   6.957   6.459   0.310
 4558TIP3    H213639   7.034   6.387   0.419
 4559TIP3   OH213640   3.441   3.573   0.263
 4559TIP3    H113641   3.388   3.525   0.327
 4559TIP3    H213642   3.464   3.654   0.308
 4560TIP3   OH213643   7.070   5.254   5.435
 4560TIP3    H113644   7.060   5.159   5.437
 4560TIP3    H213645   7.002   5.284   5.374
 4561TIP3   OH213646   1.645   0.607   1.596
 4561TIP3    H113647   1.664   0.515   1.615
 4561TIP3    H213648   1.640   0.611   1.500
 4562TIP3   OH213649   0.743   1.218   5.394
 4562TIP3    H113650   0.680   1.263   5.449
 4562TIP3    H213651   0.818   1.278   5.389
 4563TIP3   OH213652   7.095   2.539   2.849
 4563TIP3    H113653   7.078   2.464   2.906
 4563TIP3    H213654   7.127   2.607   2.908
 4564TIP3   OH213655   0.270   0.243   2.038
 4564TIP3    H113656   0.184   0.203   2.025
 4564TIP3    H213657   0.302   0.259   1.949
 4565TIP3   OH213658   2.082   3.863   5.801
 4565TIP3    H113659   2.075   3.838   5.893
 4565TIP3    H213660   2.169   3.902   5.793
 4566TIP3   OH213661   3.119   3.375   5.919
 4566TIP3    H113662   3.042   3.356   5.972
 4566TIP3    H213663   3.162   3.289   5.909
 4567TIP3   OH213664   5.736   0.902   0.357
 4567TIP3    H113665   5.676   0.848   0.408
 4567TIP3    H213666   5.688   0.922   0.276
 4568TIP3   OH213667   2.249   4.884   4.794
 4568TIP3    H113668   2.327   4.848   4.754
 4568TIP3    H213669   2.227   4.960   4.740
 4569TIP3   OH213670   5.502   4.818   1.648
 4569TIP3    H113671   5.547   4.762   1.584
 4569TIP3    H213672   5.551   4.803   1.729
 4570TIP3   OH213673   0.152   1.934   3.235
 4570TIP3    H113674   0.135   1.929   3.141
 4570TIP3    H213675   0.100   2.008   3.265
 4571TIP3   OH213676   7.081   4.605   1.087
 4571TIP3    H113677   7.144   4.627   1.155
 4571TIP3    H213678   7.018   4.548   1.130
 4572TIP3   OH213679   7.037   1.435   3.921
 4572TIP3    H113680   7.088   1.488   3.859
 4572TIP3    H213681   7.089   1.435   4.001
 4573TIP3   OH213682   3.562   4.451   4.463
 4573TIP3    H113683   3.520   4.397   4.396
 4573TIP3    H213684   3.601   4.388   4.523
 4574TIP3   OH213685   5.094   5.695   3.531
 4574TIP3    H113686   5.021   5.755   3.543
 4574TIP3    H213687   5.120   5.670   3.620
 4575TIP3   OH213688   0.554   4.074   5.606
 4575TIP3    H113689   0.486   4.123   5.653
 4575TIP3    H213690   0.506   4.007   5.557
 4576TIP3   OH213691   2.196   3.972   0.024
 4576TIP3    H113692   2.287   3.990   0.001
 4576TIP3    H213693   2.171   3.897  -0.030
 4577TIP3   OH213694   0.834   2.050   1.335
 4577TIP3    H113695   0.896   2.097   1.279
 4577TIP3    H213696   0.877   2.045   1.420
 4578TIP3   OH213697   0.164   0.469   5.344
 4578TIP3    H113698   0.167   0.562   5.366
 4578TIP3    H213699   0.079   0.459   5.300
 4579TIP3   OH213700   0.927   3.030   3.296
 4579TIP3    H113701   0.938   2.995   3.207
 4579TIP3    H213702   1.017   3.040   3.328
 4580TIP3   OH213703   0.229   5.272   3.537
 4580TIP3    H113704   0.165   5.282   3.608
 4580TIP3    H213705   0.244   5.361   3.506
 4581TIP3   OH213706   4.113   0.402   2.456
 4581TIP3    H113707   4.057   0.465   2.411
 4581TIP3    H213708   4.202   0.438   2.446
 4582TIP3   OH213709   3.938   0.775   2.900
 4582TIP3    H113710   3.875   0.733   2.959
 4582TIP3    H213711   3.890   0.849   2.863
 4583TIP3   OH213712   1.054   1.841   2.385
 4583TIP3    H113713   1.020   1.784   2.454
 4583TIP3    H213714   1.011   1.925   2.400
 4584TIP3   OH213715   5.695   4.844   2.499
 4584TIP3    H113716   5.664   4.789   2.427
 4584TIP3    H213717   5.617   4.889   2.530
 4585TIP3   OH213718   1.742   0.253   5.200
 4585TIP3    H113719   1.716   0.292   5.283
 4585TIP3    H213720   1.662   0.213   5.166
 4586TIP3   OH213721   6.078   6.211   3.498
 4586TIP3    H113722   6.149   6.148   3.510
 4586TIP3    H213723   6.000   6.158   3.487
 4587TIP3   OH213724   0.940   2.598   2.023
 4587TIP3    H113725   1.023   2.558   2.051
 4587TIP3    H213726   0.877   2.571   2.090
 4588TIP3   OH213727   4.020   4.756   4.904
 4588TIP3    H113728   4.108   4.721   4.901
 4588TIP3    H213729   4.013   4.811   4.825
 4589TIP3   OH213730   2.606   2.070   2.829
 4589TIP3    H113731   2.540   2.038   2.890
 4589TIP3    H213732   2.573   2.044   2.742
 4590TIP3   OH213733   3.192   3.177   0.028
 4590TIP3    H113734   3.169   3.211  -0.058
 4590TIP3    H213735   3.255   3.107   0.011
 4591TIP3   OH213736   4.317   1.215   0.910
 4591TIP3    H113737   4.360   1.220   0.824
 4591TIP3    H213738   4.362   1.145   0.956
 4592TIP3   OH213739   0.596   2.264   0.809
 4592TIP3    H113740   0.683   2.264   0.848
 4592TIP3    H213741   0.597   2.192   0.746
 4593TIP3   OH213742   5.265   2.891   1.564
 4593TIP3    H113743   5.258   2.920   1.474
 4593TIP3    H213744   5.273   2.972   1.615
 4594TIP3   OH213745   1.874   3.795   3.652
 4594TIP3    H113746   1.920   3.731   3.598
 4594TIP3    H213747   1.781   3.779   3.634
 4595TIP3   OH213748   0.880   2.086   2.085
 4595TIP3    H113749   0.918   2.048   2.006
 4595TIP3    H213750   0.800   2.037   2.100
 4596TIP3   OH213751   4.693   3.599   4.486
 4596TIP3    H113752   4.616   3.549   4.459
 4596TIP3    H213753   4.686   3.604   4.581
 4597TIP3   OH213754  -0.021   6.493   5.440
 4597TIP3    H113755   0.058   6.481   5.493
 4597TIP3    H213756  -0.021   6.418   5.380
 4598TIP3   OH213757   1.276   6.496   0.064
 4598TIP3    H113758   1.296   6.453  -0.020
 4598TIP3    H213759   1.182   6.515   0.060
 4599TIP3   OH213760   3.408   4.328   0.901
 4599TIP3    H113761   3.482   4.386   0.916
 4599TIP3    H213762   3.363   4.366   0.825
 4600TIP3   OH213763   3.766   4.904   4.458
 4600TIP3    H113764   3.846   4.916   4.407
 4600TIP3    H213765   3.696   4.900   4.393
 4601TIP3   OH213766   5.009   3.299   1.974
 4601TIP3    H113767   4.934   3.358   1.963
 4601TIP3    H213768   4.991   3.254   2.057
 4602TIP3   OH213769   4.909   5.782   5.360
 4602TIP3    H113770   4.822   5.819   5.380
 4602TIP3    H213771   4.910   5.774   5.265
 4603TIP3   OH213772   6.875   0.598   1.156
 4603TIP3    H113773   6.898   0.585   1.248
 4603TIP3    H213774   6.923   0.676   1.130
 4604TIP3   OH213775   0.897   1.337   5.710
 4604TIP3    H113776   0.842   1.259   5.708
 4604TIP3    H213777   0.906   1.363   5.619
 4605TIP3   OH213778   2.491   1.547   5.353
 4605TIP3    H113779   2.432   1.524   5.425
 4605TIP3    H213780   2.530   1.631   5.380
 4606TIP3   OH213781   3.220   0.761   2.958
 4606TIP3    H113782   3.182   0.797   2.878
 4606TIP3    H213783   3.294   0.818   2.978
 4607TIP3   OH213784   3.068   3.310   1.847
 4607TIP3    H113785   2.995   3.252   1.869
 4607TIP3    H213786   3.146   3.265   1.880
 4608TIP3   OH213787   6.495   2.777   1.414
 4608TIP3    H113788   6.563   2.750   1.476
 4608TIP3    H213789   6.517   2.868   1.392
 4609TIP3   OH213790   3.366   6.536   5.595
 4609TIP3    H113791   3.395   6.447   5.613
 4609TIP3    H213792   3.300   6.526   5.526
 4610TIP3   OH213793   0.590   2.697   0.885
 4610TIP3    H113794   0.585   2.792   0.872
 4610TIP3    H213795   0.676   2.683   0.924
 4611TIP3   OH213796   2.313   3.691   3.763
 4611TIP3    H113797   2.342   3.776   3.798
 4611TIP3    H213798   2.286   3.642   3.841
 4612TIP3   OH213799   0.199   5.549   2.137
 4612TIP3    H113800   0.157   5.505   2.211
 4612TIP3    H213801   0.127   5.586   2.087
 4613TIP3   OH213802   3.395   3.125   5.173
 4613TIP3    H113803   3.351   3.123   5.087
 4613TIP3    H213804   3.487   3.141   5.153
 4614TIP3   OH213805   0.779   4.623   4.076
 4614TIP3    H113806   0.865   4.603   4.114
 4614TIP3    H213807   0.716   4.588   4.139
 4615TIP3   OH213808   2.291   4.776   0.827
 4615TIP3    H113809   2.293   4.692   0.781
 4615TIP3    H213810   2.356   4.767   0.897
 4616TIP3   OH213811   5.230   4.034   1.109
 4616TIP3    H113812   5.165   4.098   1.081
 4616TIP3    H213813   5.198   4.001   1.193
 4617TIP3   OH213814   5.745   4.673   3.564
 4617TIP3    H113815   5.746   4.596   3.507
 4617TIP3    H213816   5.814   4.729   3.529
 4618TIP3   OH213817   1.732   0.110   4.178
 4618TIP3    H113818   1.825   0.088   4.170
 4618TIP3    H213819   1.730   0.205   4.177
 4619TIP3   OH213820   4.743   0.065   3.978
 4619TIP3    H113821   4.719   0.138   4.035
 4619TIP3    H213822   4.837   0.053   3.992
 4620TIP3   OH213823   1.246   3.865   1.826
 4620TIP3    H113824   1.310   3.936   1.824
 4620TIP3    H213825   1.233   3.846   1.919
 4621TIP3   OH213826   4.240   3.218   1.310
 4621TIP3    H113827   4.203   3.192   1.395
 4621TIP3    H213828   4.192   3.166   1.246
 4622TIP3   OH213829   1.145   2.762   1.808
 4622TIP3    H113830   1.113   2.773   1.897
 4622TIP3    H213831   1.168   2.850   1.779
 4623TIP3   OH213832   1.507   4.960   3.425
 4623TIP3    H113833   1.547   4.902   3.490
 4623TIP3    H213834   1.554   4.940   3.344
 4624TIP3   OH213835   5.452   2.707   4.144
 4624TIP3    H113836   5.419   2.645   4.209
 4624TIP3    H213837   5.378   2.766   4.127
 4625TIP3   OH213838   3.346   5.828   2.634
 4625TIP3    H113839   3.336   5.825   2.538
 4625TIP3    H213840   3.262   5.797   2.667
 4626TIP3   OH213841   1.733   0.815   4.998
 4626TIP3    H113842   1.716   0.839   5.090
 4626TIP3    H213843   1.668   0.748   4.979
 4627TIP3   OH213844   0.225   0.633   2.792
 4627TIP3    H113845   0.163   0.671   2.854
 4627TIP3    H213846   0.183   0.552   2.762
 4628TIP3   OH213847   0.371   5.499   1.702
 4628TIP3    H113848   0.292   5.447   1.716
 4628TIP3    H213849   0.410   5.462   1.623
 4629TIP3   OH213850   3.957   0.618   2.368
 4629TIP3    H113851   3.870   0.658   2.379
 4629TIP3    H213852   4.016   0.693   2.361
 4630TIP3   OH213853   1.426   6.297   4.815
 4630TIP3    H113854   1.428   6.211   4.856
 4630TIP3    H213855   1.484   6.351   4.868
 4631TIP3   OH213856   7.017   5.009   4.415
 4631TIP3    H113857   7.103   5.009   4.456
 4631TIP3    H213858   7.027   4.950   4.339
 4632TIP3   OH213859   1.675   3.573   2.307
 4632TIP3    H113860   1.657   3.639   2.240
 4632TIP3    H213861   1.595   3.568   2.359
 4633TIP3   OH213862   3.686   6.066   1.843
 4633TIP3    H113863   3.630   6.094   1.916
 4633TIP3    H213864   3.772   6.054   1.882
 4634TIP3   OH213865   3.176   1.382   4.247
 4634TIP3    H113866   3.192   1.295   4.212
 4634TIP3    H213867   3.097   1.373   4.300
 4635TIP3   OH213868   4.775   4.492   2.091
 4635TIP3    H113869   4.802   4.446   2.171
 4635TIP3    H213870   4.732   4.571   2.123
 4636TIP3   OH213871   1.450   2.538   3.129
 4636TIP3    H113872   1.535   2.577   3.107
 4636TIP3    H213873   1.419   2.502   3.046
 4637TIP3   OH213874   4.035   4.159   3.942
 4637TIP3    H113875   4.126   4.132   3.928
 4637TIP3    H213876   4.039   4.218   4.017
 4638TIP3   OH213877   2.707   5.921   2.550
 4638TIP3    H113878   2.765   5.973   2.495
 4638TIP3    H213879   2.621   5.962   2.540
 4639TIP3   OH213880   5.993   1.233   1.022
 4639TIP3    H113881   5.967   1.315   1.065
 4639TIP3    H213882   5.998   1.255   0.929
 4640TIP3   OH213883   4.476   6.616   5.537
 4640TIP3    H113884   4.444   6.573   5.457
 4640TIP3    H213885   4.398   6.655   5.576
 4641TIP3   OH213886   4.714   3.572   5.449
 4641TIP3    H113887   4.781   3.587   5.516
 4641TIP3    H213888   4.631   3.580   5.495
 4642TIP3   OH213889   6.473   1.990   0.683
 4642TIP3    H113890   6.542   1.984   0.617
 4642TIP3    H213891   6.506   2.055   0.745
 4643TIP3   OH213892   6.745   5.906   2.808
 4643TIP3    H113893   6.695   5.833   2.845
 4643TIP3    H213894   6.680   5.975   2.794
 4644TIP3   OH213895   3.497   2.430   5.457
 4644TIP3    H113896   3.476   2.399   5.545
 4644TIP3    H213897   3.525   2.352   5.409
 4645TIP3   OH213898   0.899   4.072   4.910
 4645TIP3    H113899   0.978   4.125   4.909
 4645TIP3    H213900   0.832   4.126   4.869
 4646TIP3   OH213901   6.414   2.767   2.691
 4646TIP3    H113902   6.459   2.767   2.776
 4646TIP3    H213903   6.461   2.833   2.639
 4647TIP3   OH213904   6.942   0.857   3.576
 4647TIP3    H113905   6.986   0.809   3.646
 4647TIP3    H213906   6.906   0.789   3.519
 4648TIP3   OH213907   0.954   3.262   3.783
 4648TIP3    H113908   0.871   3.222   3.760
 4648TIP3    H213909   0.931   3.351   3.812
 4649TIP3   OH213910   0.292   5.982   1.507
 4649TIP3    H113911   0.297   5.995   1.413
 4649TIP3    H213912   0.327   5.894   1.521
 4650TIP3   OH213913   6.753   0.200   0.585
 4650TIP3    H113914   6.710   0.137   0.643
 4650TIP3    H213915   6.724   0.176   0.497
 4651TIP3   OH213916   5.748   4.532   2.686
 4651TIP3    H113917   5.780   4.448   2.721
 4651TIP3    H213918   5.819   4.594   2.703
 4652TIP3   OH213919   6.702   5.393   2.891
 4652TIP3    H113920   6.737   5.305   2.907
 4652TIP3    H213921   6.636   5.381   2.823
 4653TIP3   OH213922   2.106   5.161   0.723
 4653TIP3    H113923   2.054   5.234   0.754
 4653TIP3    H213924   2.044   5.107   0.673
 4654TIP3   OH213925   2.932   6.345   0.845
 4654TIP3    H113926   2.936   6.253   0.872
 4654TIP3    H213927   3.003   6.355   0.783
 4655TIP3   OH213928   3.577   2.536   3.547
 4655TIP3    H113929   3.555   2.614   3.597
 4655TIP3    H213930   3.537   2.550   3.462
 4656TIP3   OH213931   1.366   1.592   0.204
 4656TIP3    H113932   1.439   1.645   0.235
 4656TIP3    H213933   1.342   1.537   0.279
 4657TIP3   OH213934   3.991   1.384   5.018
 4657TIP3    H113935   4.038   1.320   5.073
 4657TIP3    H213936   3.899   1.361   5.029
 4658TIP3   OH213937   1.962   5.077   4.212
 4658TIP3    H113938   2.053   5.053   4.194
 4658TIP3    H213939   1.911   5.014   4.162
 4659TIP3   OH213940   2.669   6.393   3.365
 4659TIP3    H113941   2.691   6.486   3.375
 4659TIP3    H213942   2.666   6.380   3.270
 4660TIP3   OH213943   6.563   3.058   1.673
 4660TIP3    H113944   6.581   3.022   1.586
 4660TIP3    H213945   6.509   2.992   1.715
 4661TIP3   OH213946   0.374   2.317   1.457
 4661TIP3    H113947   0.414   2.404   1.471
 4661TIP3    H213948   0.428   2.258   1.509
 4662TIP3   OH213949   5.149   0.327   2.454
 4662TIP3    H113950   5.091   0.367   2.519
 4662TIP3    H213951   5.116   0.357   2.370
 4663TIP3   OH213952   0.975   1.204   3.886
 4663TIP3    H113953   1.031   1.177   3.813
 4663TIP3    H213954   0.887   1.209   3.849
 4664TIP3   OH213955   1.520   1.474   5.756
 4664TIP3    H113956   1.566   1.479   5.840
 4664TIP3    H213957   1.588   1.488   5.691
 4665TIP3   OH213958   0.445   5.671   4.264
 4665TIP3    H113959   0.410   5.641   4.348
 4665TIP3    H213960   0.504   5.601   4.235
 4666TIP3   OH213961   4.625   6.328   2.139
 4666TIP3    H113962   4.719   6.321   2.126
 4666TIP3    H213963   4.594   6.382   2.066
 4667TIP3   OH213964   5.390   6.683   1.514
 4667TIP3    H113965   5.341   6.754   1.555
 4667TIP3    H213966   5.443   6.646   1.585
 4668TIP3   OH213967   3.976   4.001   3.086
 4668TIP3    H113968   4.037   3.992   3.160
 4668TIP3    H213969   3.937   3.914   3.077
 4669TIP3   OH213970   5.396   6.431   2.192
 4669TIP3    H113971   5.361   6.498   2.133
 4669TIP3    H213972   5.488   6.455   2.203
 4670TIP3   OH213973   0.355   1.464   0.569
 4670TIP3    H113974   0.441   1.435   0.602
 4670TIP3    H213975   0.301   1.472   0.648
 4671TIP3   OH213976   5.741   1.039   4.144
 4671TIP3    H113977   5.764   0.991   4.224
 4671TIP3    H213978   5.652   1.070   4.160
 4672TIP3   OH213979   0.046   2.376   3.814
 4672TIP3    H113980  -0.007   2.455   3.805
 4672TIP3    H213981   0.132   2.408   3.840
 4673TIP3   OH213982   5.751   6.020   2.938
 4673TIP3    H113983   5.687   6.073   2.984
 4673TIP3    H213984   5.789   5.964   3.006
 4674TIP3   OH213985   5.882   3.737   0.931
 4674TIP3    H113986   5.818   3.764   0.996
 4674TIP3    H213987   5.967   3.755   0.971
 4675TIP3   OH213988   2.058   5.846   2.445
 4675TIP3    H113989   1.977   5.849   2.394
 4675TIP3    H213990   2.035   5.799   2.525
 4676TIP3   OH213991   4.119   6.259   2.049
 4676TIP3    H113992   4.129   6.340   1.999
 4676TIP3    H213993   4.060   6.282   2.120
 4677TIP3   OH213994   5.519   0.738   2.810
 4677TIP3    H113995   5.428   0.738   2.840
 4677TIP3    H213996   5.555   0.819   2.845
 4678TIP3   OH213997   3.394   2.063   0.244
 4678TIP3    H113998   3.472   2.117   0.252
 4678TIP3    H213999   3.417   1.981   0.289
 4679TIP3   OH214000   1.721   1.030   1.761
 4679TIP3    H114001   1.685   1.079   1.835
 4679TIP3    H214002   1.816   1.040   1.770
 4680TIP3   OH214003   4.527   3.914   1.213
 4680TIP3    H114004   4.487   3.991   1.252
 4680TIP3    H214005   4.452   3.857   1.191
 4681TIP3   OH214006   2.731   6.009   4.602
 4681TIP3    H114007   2.737   5.945   4.531
 4681TIP3    H214008   2.641   6.001   4.634
 4682TIP3   OH214009   5.881   1.450   2.688
 4682TIP3    H114010   5.955   1.418   2.739
 4682TIP3    H214011   5.852   1.374   2.637
 4683TIP3   OH214012   5.253   1.837   5.106
 4683TIP3    H114013   5.160   1.837   5.083
 4683TIP3    H214014   5.254   1.830   5.202
 4684TIP3   OH214015   1.271   2.797   2.939
 4684TIP3    H114016   1.229   2.823   2.856
 4684TIP3    H214017   1.291   2.704   2.928
 4685TIP3   OH214018   6.163   4.828   3.588
 4685TIP3    H114019   6.088   4.862   3.539
 4685TIP3    H214020   6.124   4.776   3.658
 4686TIP3   OH214021   6.992   3.226   4.703
 4686TIP3    H114022   7.037   3.280   4.768
 4686TIP3    H214023   7.018   3.136   4.725
 4687TIP3   OH214024   6.972   0.082   1.703
 4687TIP3    H114025   6.989   0.041   1.788
 4687TIP3    H214026   7.048   0.058   1.650
 4688TIP3   OH214027   0.176  -0.049   0.734
 4688TIP3    H114028   0.095  -0.018   0.773
 4688TIP3    H214029   0.162  -0.040   0.639
 4689TIP3   OH214030   0.528   4.067   3.159
 4689TIP3    H114031   0.528   4.039   3.251
 4689TIP3    H214032   0.595   4.135   3.155
 4690TIP3   OH214033   4.209   4.096   1.134
 4690TIP3    H114034   4.166   4.055   1.209
 4690TIP3    H214035   4.261   4.167   1.172
 4691TIP3   OH214036   3.888   3.718   2.631
 4691TIP3    H114037   3.845   3.795   2.594
 4691TIP3    H214038   3.817   3.664   2.665
 4692TIP3   OH214039   2.779   6.481   1.803
 4692TIP3    H114040   2.821   6.395   1.801
 4692TIP3    H214041   2.751   6.492   1.894
 4693TIP3   OH214042   4.870   0.362   1.090
 4693TIP3    H114043   4.843   0.451   1.113
 4693TIP3    H214044   4.789   0.312   1.089
 4694TIP3   OH214045   5.860   5.861   5.437
 4694TIP3    H114046   5.782   5.909   5.410
 4694TIP3    H214047   5.831   5.806   5.509
 4695TIP3   OH214048   0.814   3.686   3.644
 4695TIP3    H114049   0.742   3.660   3.586
 4695TIP3    H214050   0.887   3.702   3.586
 4696TIP3   OH214051   5.897   3.328   4.916
 4696TIP3    H114052   5.808   3.319   4.950
 4696TIP3    H214053   5.889   3.388   4.842
 4697TIP3   OH214054   3.620   4.160   3.457
 4697TIP3    H114055   3.691   4.104   3.425
 4697TIP3    H214056   3.540   4.116   3.426
 4698TIP3   OH214057   2.904   3.781   5.495
 4698TIP3    H114058   2.899   3.698   5.543
 4698TIP3    H214059   2.935   3.757   5.408
 4699TIP3   OH214060   0.888   0.213   1.279
 4699TIP3    H114061   0.795   0.189   1.284
 4699TIP3    H214062   0.908   0.245   1.367
 4700TIP3   OH214063   6.004   3.606   1.426
 4700TIP3    H114064   5.932   3.556   1.387
 4700TIP3    H214065   5.971   3.632   1.512
 4701TIP3   OH214066   4.033   5.748   1.697
 4701TIP3    H114067   4.038   5.842   1.680
 4701TIP3    H214068   3.951   5.737   1.745
 4702TIP3   OH214069   1.646   1.946   2.938
 4702TIP3    H114070   1.653   2.030   2.983
 4702TIP3    H214071   1.602   1.888   3.000
 4703TIP3   OH214072   2.754   4.264   2.978
 4703TIP3    H114073   2.784   4.174   2.992
 4703TIP3    H214074   2.687   4.277   3.045
 4704TIP3   OH214075   1.842   2.870   1.980
 4704TIP3    H114076   1.827   2.794   2.037
 4704TIP3    H214077   1.908   2.922   2.026
 4705TIP3   OH214078   2.895   5.614   3.000
 4705TIP3    H114079   2.865   5.664   2.924
 4705TIP3    H214080   2.819   5.563   3.027
 4706TIP3   OH214081   2.625   4.950   5.617
 4706TIP3    H114082   2.645   4.949   5.524
 4706TIP3    H214083   2.709   4.934   5.661
 4707TIP3   OH214084   1.768   6.358   2.750
 4707TIP3    H114085   1.800   6.307   2.675
 4707TIP3    H214086   1.793   6.307   2.826
 4708TIP3   OH214087   0.228   1.895   4.327
 4708TIP3    H114088   0.311   1.921   4.367
 4708TIP3    H214089   0.229   1.937   4.241
 4709TIP3   OH214090   1.143   0.620   1.759
 4709TIP3    H114091   1.197   0.563   1.704
 4709TIP3    H214092   1.197   0.697   1.774
 4710TIP3   OH214093   3.908   5.356   3.532
 4710TIP3    H114094   3.881   5.277   3.579
 4710TIP3    H214095   3.917   5.422   3.601
 4711TIP3   OH214096   4.720   5.762   3.980
 4711TIP3    H114097   4.751   5.850   3.959
 4711TIP3    H214098   4.720   5.759   4.076
 4712TIP3   OH214099   3.004   6.062   3.107
 4712TIP3    H114100   3.012   5.968   3.122
 4712TIP3    H214101   2.994   6.070   3.012
 4713TIP3   OH214102   0.924   0.300   1.548
 4713TIP3    H114103   0.974   0.230   1.590
 4713TIP3    H214104   0.930   0.374   1.610
 4714TIP3   OH214105   6.023   6.131   5.644
 4714TIP3    H114106   6.034   6.197   5.576
 4714TIP3    H214107   6.052   6.174   5.724
 4715TIP3   OH214108   1.679   3.267   1.491
 4715TIP3    H114109   1.702   3.243   1.581
 4715TIP3    H214110   1.600   3.320   1.500
 4716TIP3   OH214111   6.440   5.233   3.058
 4716TIP3    H114112   6.467   5.264   2.971
 4716TIP3    H214113   6.492   5.154   3.072
 4717TIP3   OH214114   3.929   5.332   3.242
 4717TIP3    H114115   3.878   5.408   3.270
 4717TIP3    H214116   3.944   5.283   3.322
 4718TIP3   OH214117   3.168   2.023   0.077
 4718TIP3    H114118   3.105   2.095   0.073
 4718TIP3    H214119   3.230   2.049   0.145
 4719TIP3   OH214120   6.240   6.782   3.380
 4719TIP3    H114121   6.214   6.826   3.461
 4719TIP3    H214122   6.186   6.703   3.377
 4720TIP3   OH214123   3.833   0.236   4.937
 4720TIP3    H114124   3.880   0.159   4.903
 4720TIP3    H214125   3.854   0.306   4.875
 4721TIP3   OH214126   4.533   2.724   0.673
 4721TIP3    H114127   4.566   2.674   0.748
 4721TIP3    H214128   4.597   2.707   0.604
 4722TIP3   OH214129   0.212   0.981   0.335
 4722TIP3    H114130   0.196   0.891   0.308
 4722TIP3    H214131   0.229   0.975   0.429
 4723TIP3   OH214132   5.518   1.567   2.365
 4723TIP3    H114133   5.494   1.596   2.276
 4723TIP3    H214134   5.437   1.530   2.400
 4724TIP3   OH214135   2.977   2.841   5.054
 4724TIP3    H114136   2.968   2.831   5.148
 4724TIP3    H214137   2.972   2.752   5.020
 4725TIP3   OH214138   3.462   6.270   3.180
 4725TIP3    H114139   3.519   6.195   3.200
 4725TIP3    H214140   3.383   6.231   3.143
 4726TIP3   OH214141   1.405   3.824   5.053
 4726TIP3    H114142   1.429   3.915   5.066
 4726TIP3    H214143   1.359   3.799   5.134
 4727TIP3   OH214144   5.071   5.674   5.147
 4727TIP3    H114145   5.099   5.764   5.129
 4727TIP3    H214146   5.149   5.632   5.185
 4728TIP3   OH214147   3.526   6.734   1.724
 4728TIP3    H114148   3.500   6.826   1.727
 4728TIP3    H214149   3.556   6.715   1.813
 4729TIP3   OH214150   0.839   5.719   1.976
 4729TIP3    H114151   0.831   5.654   1.906
 4729TIP3    H214152   0.847   5.803   1.930
 4730TIP3   OH214153   3.431   2.925   0.382
 4730TIP3    H114154   3.435   2.876   0.300
 4730TIP3    H214155   3.412   3.015   0.355
 4731TIP3   OH214156   0.700   0.952   2.906
 4731TIP3    H114157   0.715   1.016   2.975
 4731TIP3    H214158   0.604   0.948   2.898
 4732TIP3   OH214159   1.178   3.702   4.909
 4732TIP3    H114160   1.262   3.736   4.879
 4732TIP3    H214161   1.113   3.760   4.869
 4733TIP3   OH214162   6.662   5.709   1.201
 4733TIP3    H114163   6.726   5.710   1.129
 4733TIP3    H214164   6.618   5.794   1.194
 4734TIP3   OH214165   6.809   4.260   4.796
 4734TIP3    H114166   6.749   4.282   4.867
 4734TIP3    H214167   6.806   4.335   4.737
 4735TIP3   OH214168   7.048   5.649   2.349
 4735TIP3    H114169   7.010   5.631   2.263
 4735TIP3    H214170   7.112   5.719   2.332
 4736TIP3   OH214171   7.204   0.725   1.348
 4736TIP3    H114172   7.119   0.690   1.374
 4736TIP3    H214173   7.263   0.649   1.352
 4737TIP3   OH214174   1.725   4.857   4.198
 4737TIP3    H114175   1.715   4.920   4.126
 4737TIP3    H214176   1.809   4.814   4.180
 4738TIP3   OH214177   3.790   6.624   4.860
 4738TIP3    H114178   3.815   6.702   4.909
 4738TIP3    H214179   3.763   6.657   4.775
 4739TIP3   OH214180   5.474   4.315   2.175
 4739TIP3    H114181   5.392   4.305   2.223
 4739TIP3    H214182   5.515   4.393   2.212
 4740TIP3   OH214183   6.485   6.371   3.874
 4740TIP3    H114184   6.499   6.293   3.821
 4740TIP3    H214185   6.427   6.425   3.820
 4741TIP3   OH214186   5.380   0.610   2.615
 4741TIP3    H114187   5.451   0.644   2.670
 4741TIP3    H214188   5.368   0.520   2.646
 4742TIP3   OH214189   5.788   4.374   4.617
 4742TIP3    H114190   5.809   4.453   4.567
 4742TIP3    H214191   5.771   4.308   4.550
 4743TIP3   OH214192   4.586   6.225   5.798
 4743TIP3    H114193   4.540   6.169   5.861
 4743TIP3    H214194   4.608   6.304   5.848
 4744TIP3   OH214195   3.014   4.621   0.340
 4744TIP3    H114196   2.987   4.671   0.417
 4744TIP3    H214197   2.963   4.659   0.268
 4745TIP3   OH214198   1.707   4.252   4.599
 4745TIP3    H114199   1.722   4.339   4.636
 4745TIP3    H214200   1.769   4.195   4.643
 4746TIP3   OH214201   5.807   2.246   0.339
 4746TIP3    H114202   5.881   2.191   0.317
 4746TIP3    H214203   5.844   2.316   0.394
 4747TIP3   OH214204   0.859   5.490   1.302
 4747TIP3    H114205   0.943   5.500   1.346
 4747TIP3    H214206   0.796   5.529   1.362
 4748TIP3   OH214207   3.314   0.073   2.392
 4748TIP3    H114208   3.258   0.102   2.464
 4748TIP3    H214209   3.389   0.032   2.436
 4749TIP3   OH214210   2.512   4.787   2.487
 4749TIP3    H114211   2.578   4.719   2.470
 4749TIP3    H214212   2.556   4.869   2.467
 4750TIP3   OH214213   2.637   4.089   1.767
 4750TIP3    H114214   2.645   4.000   1.733
 4750TIP3    H214215   2.583   4.134   1.703
 4751TIP3   OH214216   0.983   3.846   4.787
 4751TIP3    H114217   0.960   3.938   4.801
 4751TIP3    H214218   0.975   3.835   4.692
 4752TIP3   OH214219   4.223   2.406   1.723
 4752TIP3    H114220   4.255   2.436   1.808
 4752TIP3    H214221   4.277   2.452   1.659
 4753TIP3   OH214222   1.143   6.535   2.326
 4753TIP3    H114223   1.088   6.456   2.320
 4753TIP3    H214224   1.089   6.598   2.374
 4754TIP3   OH214225   5.069   0.564   1.505
 4754TIP3    H114226   5.123   0.554   1.584
 4754TIP3    H214227   5.017   0.483   1.502
 4755TIP3   OH214228   4.557   3.967   3.713
 4755TIP3    H114229   4.498   4.039   3.688
 4755TIP3    H214230   4.638   4.011   3.740
 4756TIP3   OH214231   2.097   3.566   1.772
 4756TIP3    H114232   2.019   3.621   1.776
 4756TIP3    H214233   2.100   3.535   1.681
 4757TIP3   OH214234   1.773   4.159   0.310
 4757TIP3    H114235   1.688   4.119   0.325
 4757TIP3    H214236   1.835   4.102   0.356
 4758TIP3   OH214237   4.621   1.501   0.486
 4758TIP3    H114238   4.544   1.541   0.524
 4758TIP3    H214239   4.637   1.423   0.539
 4759TIP3   OH214240   2.476   0.278   3.859
 4759TIP3    H114241   2.431   0.341   3.916
 4759TIP3    H214242   2.473   0.318   3.772
 4760TIP3   OH214243   2.724   0.866   2.907
 4760TIP3    H114244   2.749   0.942   2.960
 4760TIP3    H214245   2.789   0.799   2.927
 4761TIP3   OH214246   2.356   2.908   0.360
 4761TIP3    H114247   2.385   2.896   0.450
 4761TIP3    H214248   2.437   2.920   0.310
 4762TIP3   OH214249   6.554   5.953   2.016
 4762TIP3    H114250   6.495   5.911   2.078
 4762TIP3    H214251   6.500   5.973   1.940
 4763TIP3   OH214252   6.005   0.248   1.555
 4763TIP3    H114253   6.064   0.206   1.617
 4763TIP3    H214254   5.998   0.338   1.587
 4764TIP3   OH214255   6.415   2.536   0.737
 4764TIP3    H114256   6.323   2.516   0.722
 4764TIP3    H214257   6.426   2.625   0.702
 4765TIP3   OH214258   7.016   3.684   4.216
 4765TIP3    H114259   6.947   3.683   4.281
 4765TIP3    H214260   6.977   3.644   4.138
 4766TIP3   OH214261   6.952   3.183   3.321
 4766TIP3    H114262   6.993   3.203   3.405
 4766TIP3    H214263   6.904   3.263   3.299
 4767TIP3   OH214264   6.912   1.909   2.186
 4767TIP3    H114265   6.870   1.842   2.239
 4767TIP3    H214266   6.841   1.950   2.137
 4768TIP3   OH214267   6.958   0.553   1.711
 4768TIP3    H114268   7.010   0.474   1.721
 4768TIP3    H214269   7.000   0.617   1.768
 4769TIP3   OH214270   0.585   3.416   3.873
 4769TIP3    H114271   0.573   3.321   3.862
 4769TIP3    H214272   0.508   3.445   3.921
 4770TIP3   OH214273   5.962   0.427   0.039
 4770TIP3    H114274   5.935   0.513   0.071
 4770TIP3    H214275   6.020   0.393   0.107
 4771TIP3   OH214276   0.935   6.761   4.027
 4771TIP3    H114277   0.850   6.717   4.025
 4771TIP3    H214278   0.937   6.804   4.112
 4772TIP3   OH214279   6.232   0.541   1.087
 4772TIP3    H114280   6.241   0.516   0.995
 4772TIP3    H214281   6.275   0.471   1.136
 4773TIP3   OH214282   3.456   4.124   5.097
 4773TIP3    H114283   3.521   4.109   5.029
 4773TIP3    H214284   3.501   4.100   5.178
 4774TIP3   OH214285   2.082   4.299   2.360
 4774TIP3    H114286   2.159   4.321   2.309
 4774TIP3    H214287   2.015   4.277   2.296
 4775TIP3   OH214288   1.921   5.344   4.324
 4775TIP3    H114289   1.951   5.263   4.282
 4775TIP3    H214290   1.846   5.317   4.376
 4776TIP3   OH214291   6.100   3.613   0.413
 4776TIP3    H114292   6.123   3.648   0.499
 4776TIP3    H214293   6.087   3.519   0.428
 4777TIP3   OH214294   4.033   6.504   4.668
 4777TIP3    H114295   3.995   6.586   4.699
 4777TIP3    H214296   3.981   6.436   4.710
 4778TIP3   OH214297   1.630   3.143   2.367
 4778TIP3    H114298   1.721   3.141   2.336
 4778TIP3    H214299   1.591   3.217   2.320
 4779TIP3   OH214300   6.389   6.077   5.631
 4779TIP3    H114301   6.397   6.170   5.607
 4779TIP3    H214302   6.302   6.052   5.601
 4780TIP3   OH214303   1.258   1.926   4.638
 4780TIP3    H114304   1.325   1.870   4.676
 4780TIP3    H214305   1.198   1.944   4.711
 4781TIP3   OH214306   0.351   1.148   5.664
 4781TIP3    H114307   0.352   1.168   5.570
 4781TIP3    H214308   0.259   1.154   5.689
 4782TIP3   OH214309   0.638   0.559   3.608
 4782TIP3    H114310   0.597   0.539   3.524
 4782TIP3    H214311   0.565   0.584   3.665
 4783TIP3   OH214312   2.332   6.300   5.829
 4783TIP3    H114313   2.355   6.284   5.738
 4783TIP3    H214314   2.272   6.374   5.826
 4784TIP3   OH214315   0.720   2.959   2.598
 4784TIP3    H114316   0.644   2.907   2.625
 4784TIP3    H214317   0.732   3.022   2.669
 4785TIP3   OH214318   0.161   1.153   2.970
 4785TIP3    H114319   0.124   1.239   2.949
 4785TIP3    H214320   0.230   1.172   3.034
 4786TIP3   OH214321   2.755   0.263   2.990
 4786TIP3    H114322   2.662   0.263   2.968
 4786TIP3    H214323   2.770   0.178   3.032
 4787TIP3   OH214324   0.670   4.044   0.439
 4787TIP3    H114325   0.717   4.021   0.358
 4787TIP3    H214326   0.589   4.085   0.409
 4788TIP3   OH214327   5.046   0.019   3.382
 4788TIP3    H114328   5.032   0.109   3.354
 4788TIP3    H214329   5.124   0.023   3.437
 4789TIP3   OH214330   5.950   4.855   5.516
 4789TIP3    H114331   5.977   4.944   5.494
 4789TIP3    H214332   5.916   4.862   5.606
 4790TIP3   OH214333   7.037   5.564   1.293
 4790TIP3    H114334   6.991   5.482   1.307
 4790TIP3    H214335   7.122   5.539   1.259
 4791TIP3   OH214336   1.107   2.209   2.198
 4791TIP3    H114337   1.039   2.196   2.132
 4791TIP3    H214338   1.066   2.183   2.280
 4792TIP3   OH214339   1.646   1.422   2.539
 4792TIP3    H114340   1.686   1.345   2.500
 4792TIP3    H214341   1.574   1.444   2.480
 4793TIP3   OH214342   3.446   5.027   2.518
 4793TIP3    H114343   3.433   5.105   2.571
 4793TIP3    H214344   3.528   4.989   2.551
 4794TIP3   OH214345   3.676   2.623   1.588
 4794TIP3    H114346   3.643   2.628   1.498
 4794TIP3    H214347   3.769   2.644   1.581
 4795TIP3   OH214348   6.512   5.781   5.573
 4795TIP3    H114349   6.549   5.703   5.613
 4795TIP3    H214350   6.449   5.813   5.637
 4796TIP3   OH214351   1.023   3.393   0.369
 4796TIP3    H114352   1.027   3.397   0.464
 4796TIP3    H214353   0.951   3.331   0.351
 4797TIP3   OH214354   4.459   1.671   2.140
 4797TIP3    H114355   4.450   1.632   2.053
 4797TIP3    H214356   4.403   1.618   2.196
 4798TIP3   OH214357   7.004   4.505   3.111
 4798TIP3    H114358   7.032   4.538   3.025
 4798TIP3    H214359   6.915   4.471   3.096
 4799TIP3   OH214360   4.588   1.756   4.313
 4799TIP3    H114361   4.600   1.767   4.408
 4799TIP3    H214362   4.673   1.725   4.282
 4800TIP3   OH214363   0.213   3.629   4.199
 4800TIP3    H114364   0.244   3.694   4.262
 4800TIP3    H214365   0.125   3.606   4.230
 4801TIP3   OH214366   2.347   3.709   2.952
 4801TIP3    H114367   2.381   3.636   2.900
 4801TIP3    H214368   2.262   3.729   2.912
 4802TIP3   OH214369   6.028  -0.046   2.632
 4802TIP3    H114370   5.975   0.026   2.599
 4802TIP3    H214371   6.091  -0.004   2.691
 4803TIP3   OH214372   4.217   0.591   1.526
 4803TIP3    H114373   4.137   0.601   1.578
 4803TIP3    H214374   4.272   0.533   1.578
 4804TIP3   OH214375   3.220   6.273   2.982
 4804TIP3    H114376   3.127   6.282   2.963
 4804TIP3    H214377   3.224   6.203   3.047
 4805TIP3   OH214378   0.587   1.898   5.811
 4805TIP3    H114379   0.545   1.889   5.725
 4805TIP3    H214380   0.598   1.808   5.842
 4806TIP3   OH214381   3.041   5.648   3.389
 4806TIP3    H114382   2.969   5.608   3.438
 4806TIP3    H214383   3.119   5.603   3.420
 4807TIP3   OH214384   3.886   5.566   1.312
 4807TIP3    H114385   3.942   5.506   1.263
 4807TIP3    H214386   3.947   5.621   1.361
 4808TIP3   OH214387   0.039   3.770   0.636
 4808TIP3    H114388  -0.006   3.693   0.670
 4808TIP3    H214389   0.126   3.738   0.612
 4809TIP3   OH214390   3.660   2.934   4.035
 4809TIP3    H114391   3.650   2.855   4.087
 4809TIP3    H214392   3.612   3.001   4.083
 4810TIP3   OH214393   1.600   6.001   3.181
 4810TIP3    H114394   1.514   6.003   3.140
 4810TIP3    H214395   1.622   6.093   3.195
 4811TIP3   OH214396   0.621   2.358   3.238
 4811TIP3    H114397   0.668   2.306   3.303
 4811TIP3    H214398   0.566   2.294   3.192
 4812TIP3   OH214399   3.215   0.097   1.002
 4812TIP3    H114400   3.246   0.007   1.012
 4812TIP3    H214401   3.209   0.109   0.907
 4813TIP3   OH214402   1.407   1.689   4.125
 4813TIP3    H114403   1.370   1.601   4.122
 4813TIP3    H214404   1.451   1.699   4.041
 4814TIP3   OH214405   6.779   0.593   2.367
 4814TIP3    H114406   6.834   0.525   2.404
 4814TIP3    H214407   6.692   0.554   2.361
 4815TIP3   OH214408   6.921   5.563   4.337
 4815TIP3    H114409   6.955   5.621   4.268
 4815TIP3    H214410   6.880   5.491   4.289
 4816TIP3   OH214411   1.446   5.843   2.366
 4816TIP3    H114412   1.401   5.839   2.451
 4816TIP3    H214413   1.530   5.886   2.385
 4817TIP3   OH214414   1.939   0.498   0.828
 4817TIP3    H114415   2.022   0.497   0.875
 4817TIP3    H214416   1.872   0.497   0.896
 4818TIP3   OH214417   3.747   0.921   1.156
 4818TIP3    H114418   3.834   0.959   1.152
 4818TIP3    H214419   3.702   0.970   1.225
 4819TIP3   OH214420   1.964   3.063   1.657
 4819TIP3    H114421   1.887   3.099   1.702
 4819TIP3    H214422   1.950   2.968   1.660
 4820TIP3   OH214423   0.792   5.579   2.537
 4820TIP3    H114424   0.849   5.617   2.470
 4820TIP3    H214425   0.826   5.491   2.551
 4821TIP3   OH214426   6.843   2.852   2.786
 4821TIP3    H114427   6.773   2.878   2.726
 4821TIP3    H214428   6.886   2.934   2.809
 4822TIP3   OH214429   0.580   0.079   2.256
 4822TIP3    H114430   0.608   0.010   2.316
 4822TIP3    H214431   0.565   0.155   2.313
 4823TIP3   OH214432   4.205   1.909   1.571
 4823TIP3    H114433   4.299   1.899   1.553
 4823TIP3    H214434   4.187   2.001   1.552
 4824TIP3   OH214435   4.893   4.053   1.327
 4824TIP3    H114436   4.878   4.042   1.421
 4824TIP3    H214437   4.909   4.147   1.317
 4825TIP3   OH214438   4.209   1.442   1.698
 4825TIP3    H114439   4.249   1.361   1.667
 4825TIP3    H214440   4.119   1.437   1.666
 4826TIP3   OH214441   0.113   2.127   4.743
 4826TIP3    H114442   0.148   2.048   4.784
 4826TIP3    H214443   0.158   2.132   4.658
 4827TIP3   OH214444   2.803   3.981   1.428
 4827TIP3    H114445   2.802   3.894   1.469
 4827TIP3    H214446   2.888   4.018   1.451
 4828TIP3   OH214447   3.020   3.007   3.256
 4828TIP3    H114448   2.928   3.029   3.242
 4828TIP3    H214449   3.019   2.955   3.337
 4829TIP3   OH214450   1.506   4.906   4.710
 4829TIP3    H114451   1.542   4.869   4.629
 4829TIP3    H214452   1.583   4.927   4.763
 4830TIP3   OH214453   0.252   3.693   3.723
 4830TIP3    H114454   0.267   3.687   3.629
 4830TIP3    H214455   0.317   3.756   3.754
 4831TIP3   OH214456   2.569   3.039   5.163
 4831TIP3    H114457   2.598   3.038   5.255
 4831TIP3    H214458   2.644   3.004   5.115
 4832TIP3   OH214459   1.496   5.227   3.505
 4832TIP3    H114460   1.563   5.225   3.575
 4832TIP3    H214461   1.490   5.136   3.476
 4833TIP3   OH214462   3.463   2.472   1.366
 4833TIP3    H114463   3.411   2.428   1.299
 4833TIP3    H214464   3.483   2.558   1.329
 4834TIP3   OH214465   1.768   2.382   1.406
 4834TIP3    H114466   1.837   2.443   1.383
 4834TIP3    H214467   1.722   2.425   1.479
 4835TIP3   OH214468   3.489   4.855   0.835
 4835TIP3    H114469   3.562   4.798   0.812
 4835TIP3    H214470   3.510   4.939   0.793
 4836TIP3   OH214471   0.857   1.650   2.301
 4836TIP3    H114472   0.947   1.682   2.304
 4836TIP3    H214473   0.864   1.555   2.310
 4837TIP3   OH214474   5.024   0.107   4.025
 4837TIP3    H114475   5.086   0.034   4.018
 4837TIP3    H214476   5.001   0.112   4.117
 4838TIP3   OH214477   1.742   5.478   2.730
 4838TIP3    H114478   1.814   5.428   2.691
 4838TIP3    H214479   1.764   5.485   2.823
 4839TIP3   OH214480   4.559   2.954   3.431
 4839TIP3    H114481   4.522   2.993   3.352
 4839TIP3    H214482   4.654   2.963   3.420
 4840TIP3   OH214483   7.138   2.550   2.052
 4840TIP3    H114484   7.171   2.625   2.102
 4840TIP3    H214485   7.066   2.516   2.105
 4841TIP3   OH214486   5.539   1.609   2.048
 4841TIP3    H114487   5.570   1.632   1.960
 4841TIP3    H214488   5.447   1.586   2.036
 4842TIP3   OH214489   2.564   2.151   1.161
 4842TIP3    H114490   2.519   2.123   1.241
 4842TIP3    H214491   2.564   2.072   1.106
 4843TIP3   OH214492   2.549   0.071   1.705
 4843TIP3    H114493   2.520   0.143   1.761
 4843TIP3    H214494   2.479   0.060   1.641
 4844TIP3   OH214495   5.668   1.145   1.488
 4844TIP3    H114496   5.650   1.192   1.407
 4844TIP3    H214497   5.583   1.108   1.514
 4845TIP3   OH214498   4.589   0.466   4.630
 4845TIP3    H114499   4.530   0.458   4.704
 4845TIP3    H214500   4.642   0.386   4.633
 4846TIP3   OH214501   5.889   1.668   5.747
 4846TIP3    H114502   5.844   1.724   5.684
 4846TIP3    H214503   5.974   1.711   5.762
 4847TIP3   OH214504   3.023   0.515   3.389
 4847TIP3    H114505   2.960   0.583   3.366
 4847TIP3    H214506   3.108   0.552   3.363
 4848TIP3   OH214507   0.745   3.403   0.895
 4848TIP3    H114508   0.812   3.378   0.831
 4848TIP3    H214509   0.697   3.322   0.911
 4849TIP3   OH214510   1.464   4.602   2.581
 4849TIP3    H114511   1.521   4.606   2.657
 4849TIP3    H214512   1.381   4.566   2.614
 4850TIP3   OH214513   1.680   5.198   4.745
 4850TIP3    H114514   1.700   5.105   4.733
 4850TIP3    H214515   1.628   5.201   4.826
 4851TIP3   OH214516   7.067   0.517   2.630
 4851TIP3    H114517   7.032   0.586   2.688
 4851TIP3    H214518   7.008   0.444   2.642
 4852TIP3   OH214519   3.042   0.429   3.648
 4852TIP3    H114520   3.016   0.463   3.562
 4852TIP3    H214521   3.136   0.411   3.639
 4853TIP3   OH214522   0.937   1.155   4.335
 4853TIP3    H114523   0.877   1.216   4.295
 4853TIP3    H214524   0.888   1.116   4.407
 4854TIP3   OH214525   5.886   2.473   5.425
 4854TIP3    H114526   5.963   2.508   5.380
 4854TIP3    H214527   5.819   2.466   5.357
 4855TIP3   OH214528   5.491   2.639   0.098
 4855TIP3    H114529   5.438   2.560   0.083
 4855TIP3    H214530   5.550   2.643   0.023
 4856TIP3   OH214531   5.596   6.234   5.726
 4856TIP3    H114532   5.647   6.155   5.744
 4856TIP3    H214533   5.629   6.299   5.787
 4857TIP3   OH214534   4.098   6.475   2.716
 4857TIP3    H114535   4.187   6.486   2.683
 4857TIP3    H214536   4.050   6.434   2.644
 4858TIP3   OH214537   2.304   5.022   5.068
 4858TIP3    H114538   2.257   4.973   5.001
 4858TIP3    H214539   2.235   5.068   5.117
 4859TIP3   OH214540   0.349   1.677   0.357
 4859TIP3    H114541   0.443   1.672   0.341
 4859TIP3    H214542   0.334   1.767   0.385
 4860TIP3   OH214543   6.340   5.006   5.684
 4860TIP3    H114544   6.391   4.947   5.629
 4860TIP3    H214545   6.363   5.094   5.654
 4861TIP3   OH214546   5.121   3.908   3.600
 4861TIP3    H114547   5.101   3.939   3.512
 4861TIP3    H214548   5.216   3.895   3.600
 4862TIP3   OH214549   6.117   2.815   2.653
 4862TIP3    H114550   6.212   2.805   2.659
 4862TIP3    H214551   6.089   2.830   2.743
 4863TIP3   OH214552   5.307   0.433   5.734
 4863TIP3    H114553   5.316   0.453   5.641
 4863TIP3    H214554   5.214   0.414   5.746
 4864TIP3   OH214555   2.189   4.369   0.782
 4864TIP3    H114556   2.191   4.274   0.783
 4864TIP3    H214557   2.281   4.395   0.775
 4865TIP3   OH214558   3.355   0.053   5.652
 4865TIP3    H114559   3.366   0.044   5.557
 4865TIP3    H214560   3.347   0.147   5.666
 4866TIP3   OH214561   6.222   3.620   5.489
 4866TIP3    H114562   6.283   3.668   5.546
 4866TIP3    H214563   6.140   3.668   5.496
 4867TIP3   OH214564   1.645   6.508   2.539
 4867TIP3    H114565   1.708   6.471   2.601
 4867TIP3    H214566   1.575   6.443   2.533
 4868TIP3   OH214567   3.575   4.548   2.132
 4868TIP3    H114568   3.569   4.454   2.146
 4868TIP3    H214569   3.522   4.564   2.054
 4869TIP3   OH214570   5.463   3.177   4.013
 4869TIP3    H114571   5.408   3.228   4.073
 4869TIP3    H214572   5.455   3.223   3.929
 4870TIP3   OH214573   6.806   2.668   4.673
 4870TIP3    H114574   6.834   2.600   4.735
 4870TIP3    H214575   6.756   2.730   4.727
 4871TIP3   OH214576   3.387   0.993   2.957
 4871TIP3    H114577   3.410   0.975   2.866
 4871TIP3    H214578   3.467   1.030   2.995
 4872TIP3   OH214579   6.975   5.920   1.296
 4872TIP3    H114580   6.879   5.917   1.301
 4872TIP3    H214581   7.003   5.917   1.387
 4873TIP3   OH214582   4.805   3.730   2.092
 4873TIP3    H114583   4.879   3.776   2.133
 4873TIP3    H214584   4.758   3.690   2.165
 4874TIP3   OH214585   5.872   2.376   0.842
 4874TIP3    H114586   5.849   2.339   0.927
 4874TIP3    H214587   5.872   2.471   0.857
 4875TIP3   OH214588   5.201   5.362   5.427
 4875TIP3    H114589   5.257   5.299   5.472
 4875TIP3    H214590   5.162   5.313   5.355
 4876TIP3   OH214591   6.742   4.979   1.637
 4876TIP3    H114592   6.748   4.963   1.543
 4876TIP3    H214593   6.725   5.072   1.645
 4877TIP3   OH214594   3.767   5.455   0.769
 4877TIP3    H114595   3.700   5.519   0.793
 4877TIP3    H214596   3.802   5.424   0.852
 4878TIP3   OH214597   4.018   5.864   2.420
 4878TIP3    H114598   3.950   5.806   2.454
 4878TIP3    H214599   4.097   5.838   2.468
 4879TIP3   OH214600   4.911   0.574   4.119
 4879TIP3    H114601   4.885   0.632   4.047
 4879TIP3    H214602   4.942   0.495   4.076
 4880TIP3   OH214603   1.699   4.600   2.751
 4880TIP3    H114604   1.788   4.632   2.745
 4880TIP3    H214605   1.704   4.509   2.723
 4881TIP3   OH214606   4.222   5.332   0.013
 4881TIP3    H114607   4.238   5.368   0.100
 4881TIP3    H214608   4.142   5.280   0.023
 4882TIP3   OH214609   3.916   5.818   3.838
 4882TIP3    H114610   4.012   5.814   3.833
 4882TIP3    H214611   3.893   5.754   3.906
 4883TIP3   OH214612   2.112   0.463   4.613
 4883TIP3    H114613   2.078   0.430   4.530
 4883TIP3    H214614   2.135   0.554   4.594
 4884TIP3   OH214615   4.618   6.454   1.100
 4884TIP3    H114616   4.670   6.449   1.020
 4884TIP3    H214617   4.617   6.548   1.123
 4885TIP3   OH214618   4.581   1.494   4.688
 4885TIP3    H114619   4.562   1.402   4.671
 4885TIP3    H214620   4.498   1.530   4.720
 4886TIP3   OH214621   7.107   4.419   2.666
 4886TIP3    H114622   7.148   4.499   2.634
 4886TIP3    H214623   7.087   4.369   2.587
 4887TIP3   OH214624   6.051   2.839   0.359
 4887TIP3    H114625   6.109   2.876   0.426
 4887TIP3    H214626   5.968   2.824   0.405
 4888TIP3   OH214627   5.293   3.966   2.732
 4888TIP3    H114628   5.260   3.972   2.643
 4888TIP3    H214629   5.219   3.932   2.782
 4889TIP3   OH214630   2.932   1.998   3.798
 4889TIP3    H114631   3.010   1.947   3.778
 4889TIP3    H214632   2.860   1.947   3.762
 4890TIP3   OH214633   0.531   3.929   0.667
 4890TIP3    H114634   0.591   3.857   0.685
 4890TIP3    H214635   0.557   3.962   0.581
 4891TIP3   OH214636   4.180   6.248   3.609
 4891TIP3    H114637   4.197   6.295   3.691
 4891TIP3    H214638   4.247   6.281   3.549
 4892TIP3   OH214639   2.442   0.229   1.095
 4892TIP3    H114640   2.517   0.169   1.095
 4892TIP3    H214641   2.366   0.173   1.111
 4893TIP3   OH214642   1.516   5.320   2.763
 4893TIP3    H114643   1.559   5.280   2.839
 4893TIP3    H214644   1.581   5.381   2.729
 4894TIP3   OH214645   4.192   0.063   0.732
 4894TIP3    H114646   4.261   0.111   0.688
 4894TIP3    H214647   4.127   0.129   0.757
 4895TIP3   OH214648   6.935   5.978   4.830
 4895TIP3    H114649   6.902   5.903   4.782
 4895TIP3    H214650   6.880   5.984   4.908
 4896TIP3   OH214651   3.460   2.413   5.727
 4896TIP3    H114652   3.551   2.424   5.753
 4896TIP3    H214653   3.414   2.487   5.766
 4897TIP3   OH214654   2.710   6.710   0.466
 4897TIP3    H114655   2.619   6.703   0.493
 4897TIP3    H214656   2.708   6.756   0.383
 4898TIP3   OH214657   3.503   5.638   5.322
 4898TIP3    H114658   3.592   5.650   5.288
 4898TIP3    H214659   3.513   5.583   5.399
 4899TIP3   OH214660   3.958   5.060   5.498
 4899TIP3    H114661   3.891   5.020   5.555
 4899TIP3    H214662   3.914   5.072   5.414
 4900TIP3   OH214663   3.504   5.736   4.761
 4900TIP3    H114664   3.476   5.655   4.718
 4900TIP3    H214665   3.563   5.778   4.699
 4901TIP3   OH214666   2.583   0.764   4.797
 4901TIP3    H114667   2.506   0.753   4.741
 4901TIP3    H214668   2.623   0.677   4.801
 4902TIP3   OH214669   6.425   5.017   3.897
 4902TIP3    H114670   6.419   5.035   3.803
 4902TIP3    H214671   6.334   5.004   3.925
 4903TIP3   OH214672   0.695   5.860   0.785
 4903TIP3    H114673   0.629   5.930   0.785
 4903TIP3    H214674   0.700   5.831   0.876
 4904TIP3   OH214675   6.050   0.773   0.427
 4904TIP3    H114676   5.994   0.724   0.488
 4904TIP3    H214677   6.124   0.714   0.412
 4905TIP3   OH214678   1.522   0.960   4.022
 4905TIP3    H114679   1.548   0.968   3.930
 4905TIP3    H214680   1.580   0.894   4.058
 4906TIP3   OH214681   0.714   4.257   3.271
 4906TIP3    H114682   0.686   4.227   3.358
 4906TIP3    H214683   0.808   4.270   3.278
 4907TIP3   OH214684   0.910   5.419   2.103
 4907TIP3    H114685   0.956   5.502   2.088
 4907TIP3    H214686   0.979   5.353   2.095
 4908TIP3   OH214687   6.307   3.953   3.491
 4908TIP3    H114688   6.221   3.912   3.482
 4908TIP3    H214689   6.290   4.047   3.483
 4909TIP3   OH214690   1.183   3.103   3.053
 4909TIP3    H114691   1.214   3.017   3.024
 4909TIP3    H214692   1.239   3.125   3.127
 4910TIP3   OH214693   1.936   3.076   5.528
 4910TIP3    H114694   1.901   3.031   5.451
 4910TIP3    H214695   1.930   3.169   5.506
 4911TIP3   OH214696   0.915   4.117   4.326
 4911TIP3    H114697   0.876   4.196   4.288
 4911TIP3    H214698   0.985   4.093   4.265
 4912TIP3   OH214699   5.879   5.116   2.960
 4912TIP3    H114700   5.890   5.207   2.931
 4912TIP3    H214701   5.823   5.123   3.038
 4913TIP3   OH214702   4.818   4.429   3.954
 4913TIP3    H114703   4.882   4.458   3.889
 4913TIP3    H214704   4.779   4.510   3.986
 4914TIP3   OH214705   2.822   6.525   5.737
 4914TIP3    H114706   2.765   6.487   5.670
 4914TIP3    H214707   2.800   6.478   5.817
 4915TIP3   OH214708   2.675   6.090   4.021
 4915TIP3    H114709   2.644   6.042   4.097
 4915TIP3    H214710   2.713   6.170   4.056
 4916TIP3   OH214711   5.953   3.722   3.733
 4916TIP3    H114712   6.004   3.644   3.708
 4916TIP3    H214713   5.996   3.754   3.813
 4917TIP3   OH214714   2.865   1.007   3.581
 4917TIP3    H114715   2.828   0.922   3.558
 4917TIP3    H214716   2.932   0.987   3.646
 4918TIP3   OH214717   6.752   5.447   2.075
 4918TIP3    H114718   6.837   5.489   2.087
 4918TIP3    H214719   6.766   5.383   2.006
 4919TIP3   OH214720   7.146   5.298   0.252
 4919TIP3    H114721   7.218   5.361   0.261
 4919TIP3    H214722   7.070   5.353   0.232
 4920TIP3   OH214723   2.759   2.719   3.520
 4920TIP3    H114724   2.709   2.695   3.598
 4920TIP3    H214725   2.700   2.777   3.471
 4921TIP3   OH214726   4.440   3.933   5.751
 4921TIP3    H114727   4.409   4.024   5.755
 4921TIP3    H214728   4.531   3.940   5.722
 4922TIP3   OH214729   1.994   0.987   4.272
 4922TIP3    H114730   2.050   1.027   4.338
 4922TIP3    H214731   1.942   0.923   4.320
 4923TIP3   OH214732   2.886   2.648   2.791
 4923TIP3    H114733   2.922   2.569   2.750
 4923TIP3    H214734   2.793   2.646   2.768
 4924TIP3   OH214735   2.909   3.732   4.679
 4924TIP3    H114736   2.988   3.679   4.666
 4924TIP3    H214737   2.910   3.794   4.607
 4925TIP3   OH214738   4.810   0.622   1.156
 4925TIP3    H114739   4.715   0.636   1.156
 4925TIP3    H214740   4.842   0.673   1.081
 4926TIP3   OH214741   0.347   2.248   5.833
 4926TIP3    H114742   0.330   2.279   5.744
 4926TIP3    H214743   0.442   2.254   5.843
 4927TIP3   OH214744   6.250   2.859   0.904
 4927TIP3    H114745   6.211   2.808   0.975
 4927TIP3    H214746   6.179   2.916   0.875
 4928TIP3   OH214747   5.176   1.768   3.352
 4928TIP3    H114748   5.249   1.712   3.379
 4928TIP3    H214749   5.105   1.745   3.412
 4929TIP3   OH214750   5.797   2.011   1.518
 4929TIP3    H114751   5.892   2.008   1.526
 4929TIP3    H214752   5.774   1.934   1.466
 4930TIP3   OH214753   7.163   1.785   3.344
 4930TIP3    H114754   7.225   1.830   3.286
 4930TIP3    H214755   7.216   1.757   3.419
 4931TIP3   OH214756   4.261   2.178   4.755
 4931TIP3    H114757   4.184   2.159   4.807
 4931TIP3    H214758   4.309   2.095   4.751
 4932TIP3   OH214759   1.235   3.344   2.900
 4932TIP3    H114760   1.330   3.351   2.901
 4932TIP3    H214761   1.215   3.266   2.952
 4933TIP3   OH214762   5.278   0.014   4.454
 4933TIP3    H114763   5.329   0.092   4.472
 4933TIP3    H214764   5.191   0.033   4.489
 4934TIP3   OH214765   1.147   1.845   4.095
 4934TIP3    H114766   1.144   1.867   4.189
 4934TIP3    H214767   1.238   1.820   4.079
 4935TIP3   OH214768   1.253   6.415   1.274
 4935TIP3    H114769   1.336   6.392   1.231
 4935TIP3    H214770   1.186   6.365   1.228
 4936TIP3   OH214771   2.421   6.555   1.438
 4936TIP3    H114772   2.496   6.556   1.378
 4936TIP3    H214773   2.460   6.548   1.525
 4937TIP3   OH214774   0.885   6.744   1.568
 4937TIP3    H114775   0.910   6.716   1.480
 4937TIP3    H214776   0.814   6.807   1.554
 4938TIP3   OH214777   6.543   1.396   1.235
 4938TIP3    H114778   6.523   1.435   1.150
 4938TIP3    H214779   6.579   1.310   1.214
 4939TIP3   OH214780   5.026   2.951   5.272
 4939TIP3    H114781   5.059   3.041   5.276
 4939TIP3    H214782   5.054   2.920   5.186
 4940TIP3   OH214783   6.390   3.609   3.695
 4940TIP3    H114784   6.462   3.649   3.647
 4940TIP3    H214785   6.406   3.632   3.786
 4941TIP3   OH214786   1.601   1.065   3.174
 4941TIP3    H114787   1.571   1.110   3.252
 4941TIP3    H214788   1.577   1.123   3.102
 4942TIP3   OH214789   6.843   0.284   3.547
 4942TIP3    H114790   6.782   0.248   3.611
 4942TIP3    H214791   6.787   0.322   3.479
 4943TIP3   OH214792   5.069   0.230   1.300
 4943TIP3    H114793   5.109   0.239   1.387
 4943TIP3    H214794   4.981   0.267   1.311
 4944TIP3   OH214795   3.567   5.706   1.744
 4944TIP3    H114796   3.539   5.628   1.792
 4944TIP3    H214797   3.650   5.730   1.784
 4945TIP3   OH214798   1.746   0.739   4.330
 4945TIP3    H114799   1.699   0.664   4.367
 4945TIP3    H214800   1.771   0.792   4.405
 4946TIP3   OH214801   1.266   6.588   3.109
 4946TIP3    H114802   1.320   6.608   3.185
 4946TIP3    H214803   1.329   6.567   3.040
 4947TIP3   OH214804   5.439   1.209   3.183
 4947TIP3    H114805   5.411   1.133   3.233
 4947TIP3    H214806   5.492   1.174   3.112
 4948TIP3   OH214807   5.320   6.830   3.537
 4948TIP3    H114808   5.240   6.785   3.510
 4948TIP3    H214809   5.308   6.921   3.509
 4949TIP3   OH214810   6.242   2.171   3.069
 4949TIP3    H114811   6.188   2.191   2.993
 4949TIP3    H214812   6.218   2.082   3.093
 4950TIP3   OH214813   4.742   1.764   3.753
 4950TIP3    H114814   4.687   1.771   3.675
 4950TIP3    H214815   4.698   1.699   3.808
 4951TIP3   OH214816   0.352   3.888   2.684
 4951TIP3    H114817   0.432   3.835   2.679
 4951TIP3    H214818   0.378   3.973   2.647
 4952TIP3   OH214819   6.410   1.967   5.084
 4952TIP3    H114820   6.448   1.968   5.171
 4952TIP3    H214821   6.376   1.878   5.073
 4953TIP3   OH214822   3.391   0.303   5.709
 4953TIP3    H114823   3.415   0.345   5.626
 4953TIP3    H214824   3.342   0.370   5.757
 4954TIP3   OH214825   3.953   4.829   2.838
 4954TIP3    H114826   3.970   4.761   2.903
 4954TIP3    H214827   3.868   4.865   2.862
 4955TIP3   OH214828   0.498   3.942   3.411
 4955TIP3    H114829   0.407   3.940   3.440
 4955TIP3    H214830   0.539   3.868   3.456
 4956TIP3   OH214831   2.315   5.793   3.519
 4956TIP3    H114832   2.388   5.762   3.465
 4956TIP3    H214833   2.342   5.880   3.547
 4957TIP3   OH214834   0.868   1.338   0.192
 4957TIP3    H114835   0.930   1.278   0.152
 4957TIP3    H214836   0.856   1.408   0.128
 4958TIP3   OH214837   5.393   3.296   3.776
 4958TIP3    H114838   5.360   3.283   3.687
 4958TIP3    H214839   5.371   3.387   3.797
 4959TIP3   OH214840   4.634   0.246   1.998
 4959TIP3    H114841   4.556   0.194   2.017
 4959TIP3    H214842   4.606   0.336   2.013
 4960TIP3   OH214843   5.458   2.216   3.103
 4960TIP3    H114844   5.396   2.289   3.102
 4960TIP3    H214845   5.427   2.159   3.173
 4961TIP3   OH214846   1.515   6.105   3.797
 4961TIP3    H114847   1.590   6.086   3.854
 4961TIP3    H214848   1.554   6.131   3.714
 4962TIP3   OH214849   1.653   6.086   2.141
 4962TIP3    H114850   1.672   6.129   2.058
 4962TIP3    H214851   1.666   5.993   2.124
 4963TIP3   OH214852   4.546   4.517   2.607
 4963TIP3    H114853   4.582   4.458   2.674
 4963TIP3    H214854   4.608   4.589   2.602
 4964TIP3   OH214855   0.626   3.701   2.370
 4964TIP3    H114856   0.716   3.701   2.403
 4964TIP3    H214857   0.577   3.754   2.433
 4965TIP3   OH214858   0.268   2.038   5.089
 4965TIP3    H114859   0.214   1.985   5.031
 4965TIP3    H214860   0.323   1.974   5.135
 4966TIP3   OH214861   0.026   3.059   1.461
 4966TIP3    H114862   0.020   3.083   1.554
 4966TIP3    H214863  -0.053   3.007   1.445
 4967TIP3   OH214864   4.861   2.516  -0.003
 4967TIP3    H114865   4.849   2.438   0.051
 4967TIP3    H214866   4.835   2.588   0.053
 4968TIP3   OH214867   5.107   3.328   4.049
 4968TIP3    H114868   5.080   3.236   4.052
 4968TIP3    H214869   5.181   3.333   4.109
 4969TIP3   OH214870   5.232   6.048   1.072
 4969TIP3    H114871   5.249   5.971   1.017
 4969TIP3    H214872   5.314   6.097   1.071
 4970TIP3   OH214873   0.797   3.395   3.508
 4970TIP3    H114874   0.755   3.332   3.566
 4970TIP3    H214875   0.727   3.424   3.449
 4971TIP3   OH214876   2.266   1.860   5.586
 4971TIP3    H114877   2.336   1.806   5.551
 4971TIP3    H214878   2.283   1.862   5.681
 4972TIP3   OH214879   4.041   6.416   1.802
 4972TIP3    H114880   4.094   6.463   1.737
 4972TIP3    H214881   4.032   6.328   1.766
 4973TIP3   OH214882   2.271   1.133   3.345
 4973TIP3    H114883   2.316   1.154   3.427
 4973TIP3    H214884   2.274   1.037   3.340
 4974TIP3   OH214885   0.431   1.300   4.379
 4974TIP3    H114886   0.476   1.341   4.453
 4974TIP3    H214887   0.406   1.374   4.323
 4975TIP3   OH214888   4.282   5.150   0.483
 4975TIP3    H114889   4.299   5.150   0.389
 4975TIP3    H214890   4.271   5.243   0.505
 4976TIP3   OH214891   6.531   1.304   2.526
 4976TIP3    H114892   6.512   1.320   2.618
 4976TIP3    H214893   6.488   1.220   2.507
 4977TIP3   OH214894   6.286   6.309   0.343
 4977TIP3    H114895   6.222   6.325   0.412
 4977TIP3    H214896   6.261   6.225   0.305
 4978TIP3   OH214897   5.802   6.566   4.496
 4978TIP3    H114898   5.764   6.515   4.567
 4978TIP3    H214899   5.751   6.647   4.494
 4979TIP3   OH214900   2.711   4.494   1.624
 4979TIP3    H114901   2.796   4.517   1.661
 4979TIP3    H214902   2.648   4.517   1.692
 4980TIP3   OH214903   3.968   4.388   5.166
 4980TIP3    H114904   3.983   4.299   5.133
 4980TIP3    H214905   4.056   4.427   5.169
 4981TIP3   OH214906   6.386   5.311   1.589
 4981TIP3    H114907   6.297   5.346   1.598
 4981TIP3    H214908   6.380   5.247   1.518
 4982TIP3   OH214909   1.839   3.112   0.965
 4982TIP3    H114910   1.765   3.081   0.914
 4982TIP3    H214911   1.901   3.145   0.900
 4983TIP3   OH214912   3.992   6.447   4.413
 4983TIP3    H114913   4.015   6.441   4.505
 4983TIP3    H214914   3.925   6.380   4.400
 4984TIP3   OH214915   5.538   5.728   5.249
 4984TIP3    H114916   5.473   5.658   5.240
 4984TIP3    H214917   5.607   5.690   5.302
 4985TIP3   OH214918   4.318   1.730   4.230
 4985TIP3    H114919   4.286   1.778   4.307
 4985TIP3    H214920   4.413   1.729   4.241
 4986TIP3   OH214921   0.306   0.049   5.134
 4986TIP3    H114922   0.223   0.020   5.174
 4986TIP3    H214923   0.373   0.023   5.198
 4987TIP3   OH214924   3.210   5.430   1.529
 4987TIP3    H114925   3.134   5.425   1.471
 4987TIP3    H214926   3.284   5.411   1.473
 4988TIP3   OH214927   2.054   4.145   2.734
 4988TIP3    H114928   2.098   4.225   2.705
 4988TIP3    H214929   2.082   4.133   2.825
 4989TIP3   OH214930   0.956   0.910   1.828
 4989TIP3    H114931   1.034   0.866   1.860
 4989TIP3    H214932   0.947   0.881   1.737
 4990TIP3   OH214933   3.794   2.765   3.340
 4990TIP3    H114934   3.751   2.713   3.272
 4990TIP3    H214935   3.731   2.834   3.361
 4991TIP3   OH214936   2.733   4.661   1.358
 4991TIP3    H114937   2.687   4.642   1.440
 4991TIP3    H214938   2.818   4.694   1.386
 4992TIP3   OH214939   6.204   3.459   5.809
 4992TIP3    H114940   6.290   3.481   5.772
 4992TIP3    H214941   6.142   3.478   5.739
 4993TIP3   OH214942   6.556   4.611   0.796
 4993TIP3    H114943   6.517   4.540   0.848
 4993TIP3    H214944   6.532   4.690   0.844
 4994TIP3   OH214945   4.442   4.612   3.229
 4994TIP3    H114946   4.365   4.556   3.234
 4994TIP3    H214947   4.484   4.602   3.315
 4995TIP3   OH214948   0.647   3.047   4.176
 4995TIP3    H114949   0.562   3.002   4.180
 4995TIP3    H214950   0.667   3.054   4.083
 4996TIP3   OH214951   6.908   6.115   0.317
 4996TIP3    H114952   6.995   6.091   0.351
 4996TIP3    H214953   6.907   6.210   0.319
 4997TIP3   OH214954   3.608   5.507   5.583
 4997TIP3    H114955   3.695   5.511   5.623
 4997TIP3    H214956   3.599   5.417   5.551
 4998TIP3   OH214957   1.322   5.163   4.666
 4998TIP3    H114958   1.229   5.171   4.687
 4998TIP3    H214959   1.325   5.162   4.570
 4999TIP3   OH214960   4.673   4.759   2.163
 4999TIP3    H114961   4.630   4.820   2.103
 4999TIP3    H214962   4.638   4.781   2.249
 5000TIP3   OH214963   4.681   4.104   3.020
 5000TIP3    H114964   4.678   4.107   3.116
 5000TIP3    H214965   4.619   4.035   2.996
 5001TIP3   OH214966   2.042   6.758   1.661
 5001TIP3    H114967   1.951   6.738   1.683
 5001TIP3    H214968   2.091   6.735   1.740
 5002TIP3   OH214969   3.404   4.901   1.804
 5002TIP3    H114970   3.441   4.918   1.717
 5002TIP3    H214971   3.437   4.971   1.859
 5003TIP3   OH214972   5.211   0.099   2.308
 5003TIP3    H114973   5.184   0.169   2.368
 5003TIP3    H214974   5.132   0.080   2.257
 5004TIP3   OH214975   5.100   1.741   1.872
 5004TIP3    H114976   5.086   1.823   1.919
 5004TIP3    H214977   5.018   1.693   1.883
 5005TIP3   OH214978   3.520   1.377   3.767
 5005TIP3    H114979   3.525   1.306   3.702
 5005TIP3    H214980   3.570   1.449   3.728
 5006TIP3   OH214981   3.896   1.906   0.744
 5006TIP3    H114982   3.812   1.880   0.705
 5006TIP3    H214983   3.875   1.928   0.834
 5007TIP3   OH214984   2.424   4.281   2.048
 5007TIP3    H114985   2.395   4.367   2.080
 5007TIP3    H214986   2.367   4.263   1.973
 5008TIP3   OH214987   2.773   3.010   3.110
 5008TIP3    H114988   2.760   3.104   3.125
 5008TIP3    H214989   2.698   2.968   3.151
 5009TIP3   OH214990   1.334   3.661   1.533
 5009TIP3    H114991   1.297   3.602   1.598
 5009TIP3    H214992   1.274   3.736   1.531
 5010TIP3   OH214993   1.403   2.102   5.411
 5010TIP3    H114994   1.459   2.161   5.461
 5010TIP3    H214995   1.395   2.144   5.325
 5011TIP3   OH214996   3.077   4.066   3.607
 5011TIP3    H114997   3.055   4.008   3.534
 5011TIP3    H214998   3.080   4.009   3.683
 5012TIP3   OH214999   4.639   6.754   0.105
 5012TIP3    H115000   4.563   6.754   0.047
 5012TIP3    H215001   4.664   6.846   0.112
 5013TIP3   OH215002   7.203   2.313   4.272
 5013TIP3    H115003   7.217   2.380   4.339
 5013TIP3    H215004   7.171   2.237   4.320
 5014TIP3   OH215005   4.895   1.481   3.658
 5014TIP3    H115006   4.802   1.469   3.675
 5014TIP3    H215007   4.926   1.534   3.732
 5015TIP3   OH215008   3.709   3.124   0.145
 5015TIP3    H115009   3.768   3.190   0.110
 5015TIP3    H215010   3.628   3.135   0.094
 5016TIP3   OH215011   4.559   5.795   2.872
 5016TIP3    H115012   4.534   5.708   2.842
 5016TIP3    H215013   4.553   5.791   2.967
 5017TIP3   OH215014   3.504   5.488   3.229
 5017TIP3    H115015   3.501   5.411   3.172
 5017TIP3    H215016   3.571   5.468   3.294
 5018TIP3   OH215017   0.482   1.863   4.887
 5018TIP3    H115018   0.442   1.917   4.818
 5018TIP3    H215019   0.438   1.778   4.880
 5019TIP3   OH215020   3.515   5.582   2.553
 5019TIP3    H115021   3.421   5.563   2.551
 5019TIP3    H215022   3.524   5.648   2.622
 5020TIP3   OH215023   3.528   4.570   3.184
 5020TIP3    H115024   3.573   4.654   3.178
 5020TIP3    H215025   3.598   4.505   3.171
 5021TIP3   OH215026   4.789   3.457   4.751
 5021TIP3    H115027   4.778   3.397   4.678
 5021TIP3    H215028   4.883   3.469   4.759
 5022TIP3   OH215029   3.003   0.389   0.931
 5022TIP3    H115030   2.988   0.317   0.870
 5022TIP3    H215031   2.916   0.415   0.959
 5023TIP3   OH215032   5.213   4.620   4.393
 5023TIP3    H115033   5.297   4.620   4.439
 5023TIP3    H215034   5.227   4.678   4.318
 5024TIP3   OH215035   4.501   6.695   2.698
 5024TIP3    H115036   4.412   6.693   2.732
 5024TIP3    H215037   4.490   6.698   2.603
 5025TIP3   OH215038   5.277   0.054   1.298
 5025TIP3    H115039   5.207   0.119   1.291
 5025TIP3    H215040   5.332   0.086   1.370
 5026TIP3   OH215041   2.111   5.325   3.312
 5026TIP3    H115042   2.102   5.319   3.217
 5026TIP3    H215043   2.154   5.243   3.337
 5027TIP3   OH215044   3.739   4.400   5.639
 5027TIP3    H115045   3.764   4.488   5.666
 5027TIP3    H215046   3.650   4.409   5.605
 5028TIP3   OH215047   7.124   4.120   1.134
 5028TIP3    H115048   7.046   4.065   1.122
 5028TIP3    H215049   7.195   4.070   1.094
 5029TIP3   OH215050   5.730   4.539   3.795
 5029TIP3    H115051   5.781   4.463   3.768
 5029TIP3    H215052   5.702   4.580   3.713
 5030TIP3   OH215053   7.134   2.780   5.804
 5030TIP3    H115054   7.049   2.736   5.816
 5030TIP3    H215055   7.177   2.731   5.734
 5031TIP3   OH215056   3.379   4.739   3.537
 5031TIP3    H115057   3.386   4.723   3.632
 5031TIP3    H215058   3.392   4.653   3.498
 5032TIP3   OH215059   3.527   1.181   3.274
 5032TIP3    H115060   3.566   1.176   3.186
 5032TIP3    H215061   3.588   1.133   3.330
 5033TIP3   OH215062   7.015   0.686   3.204
 5033TIP3    H115063   7.043   0.762   3.256
 5033TIP3    H215064   6.922   0.676   3.223
 5034TIP3   OH215065   1.514   3.989   0.585
 5034TIP3    H115066   1.562   3.946   0.513
 5034TIP3    H215067   1.521   3.928   0.658
 5035TIP3   OH215068   1.812   0.403   2.065
 5035TIP3    H115069   1.811   0.326   2.121
 5035TIP3    H215070   1.824   0.477   2.125
 5036TIP3   OH215071   4.820   2.412   4.177
 5036TIP3    H115072   4.783   2.498   4.155
 5036TIP3    H215073   4.745   2.353   4.177
 5037TIP3   OH215074   3.567   1.533   5.398
 5037TIP3    H115075   3.548   1.597   5.465
 5037TIP3    H215076   3.534   1.572   5.317
 5038TIP3   OH215077   1.123   3.580   2.022
 5038TIP3    H115078   1.123   3.674   2.044
 5038TIP3    H215079   1.091   3.537   2.101
 5039TIP3   OH215080   2.725   2.323   2.804
 5039TIP3    H115081   2.682   2.237   2.805
 5039TIP3    H215082   2.767   2.330   2.889
 5040TIP3   OH215083   0.265   4.279   3.419
 5040TIP3    H115084   0.257   4.189   3.451
 5040TIP3    H215085   0.318   4.323   3.486
 5041TIP3   OH215086   2.492   6.195   1.875
 5041TIP3    H115087   2.542   6.175   1.796
 5041TIP3    H215088   2.400   6.193   1.846
 5042TIP3   OH215089   5.466   1.943   2.143
 5042TIP3    H115090   5.417   1.893   2.078
 5042TIP3    H215091   5.550   1.898   2.152
 5043TIP3   OH215092   0.505   3.978   1.503
 5043TIP3    H115093   0.433   3.963   1.442
 5043TIP3    H215094   0.580   3.933   1.464
 5044TIP3   OH215095   5.057   2.626   2.178
 5044TIP3    H115096   5.113   2.560   2.139
 5044TIP3    H215097   4.968   2.591   2.168
 5045TIP3   OH215098   3.834   3.353   0.041
 5045TIP3    H115099   3.838   3.441   0.003
 5045TIP3    H215100   3.840   3.368   0.136
 5046TIP3   OH215101   1.515   1.207   3.417
 5046TIP3    H115102   1.576   1.145   3.457
 5046TIP3    H215103   1.570   1.283   3.395
 5047TIP3   OH215104   0.357   2.400   4.537
 5047TIP3    H115105   0.427   2.426   4.596
 5047TIP3    H215106   0.398   2.398   4.451
 5048TIP3   OH215107   3.183   2.987   4.802
 5048TIP3    H115108   3.137   2.984   4.886
 5048TIP3    H215109   3.209   2.897   4.785
 5049TIP3   OH215110   6.000   2.092   1.719
 5049TIP3    H115111   6.021   2.056   1.632
 5049TIP3    H215112   6.084   2.124   1.752
 5050TIP3   OH215113   6.224   2.849   1.364
 5050TIP3    H115114   6.315   2.827   1.385
 5050TIP3    H215115   6.219   2.944   1.376
 5051TIP3   OH215116   4.353   0.166   2.065
 5051TIP3    H115117   4.327   0.258   2.074
 5051TIP3    H215118   4.294   0.130   2.000
 5052TIP3   OH215119   6.851   0.147   0.242
 5052TIP3    H115120   6.876   0.062   0.277
 5052TIP3    H215121   6.759   0.158   0.269
 5053TIP3   OH215122   1.881   0.858   0.644
 5053TIP3    H115123   1.806   0.810   0.677
 5053TIP3    H215124   1.889   0.830   0.553
 5054TIP3   OH215125   3.089   4.945   3.944
 5054TIP3    H115126   3.005   4.967   3.904
 5054TIP3    H215127   3.121   4.871   3.892
 5055TIP3   OH215128   2.516   5.666   0.408
 5055TIP3    H115129   2.611   5.663   0.417
 5055TIP3    H215130   2.483   5.652   0.497
 5056TIP3   OH215131   4.712   1.142   3.006
 5056TIP3    H115132   4.728   1.048   3.015
 5056TIP3    H215133   4.685   1.171   3.093
 5057TIP3   OH215134   5.934   6.260   3.782
 5057TIP3    H115135   5.954   6.170   3.758
 5057TIP3    H215136   5.910   6.255   3.875
 5058TIP3   OH215137   2.161   3.168   1.979
 5058TIP3    H115138   2.107   3.239   2.014
 5058TIP3    H215139   2.238   3.212   1.944
 5059TIP3   OH215140   6.806   1.558   1.277
 5059TIP3    H115141   6.722   1.512   1.275
 5059TIP3    H215142   6.815   1.586   1.368
 5060TIP3   OH215143   5.759   5.703   4.296
 5060TIP3    H115144   5.804   5.788   4.296
 5060TIP3    H215145   5.667   5.724   4.279
 5061TIP3   OH215146   1.844   5.574   4.444
 5061TIP3    H115147   1.863   5.497   4.391
 5061TIP3    H215148   1.825   5.539   4.531
 5062TIP3   OH215149   6.458   2.428   3.511
 5062TIP3    H115150   6.517   2.357   3.537
 5062TIP3    H215151   6.375   2.406   3.552
 5063TIP3   OH215152   6.746   2.210   0.645
 5063TIP3    H115153   6.713   2.268   0.714
 5063TIP3    H215154   6.804   2.150   0.691
 5064TIP3   OH215155   1.925   1.910   3.702
 5064TIP3    H115156   1.837   1.926   3.668
 5064TIP3    H215157   1.914   1.834   3.760
 5065TIP3   OH215158   1.691   5.969   5.022
 5065TIP3    H115159   1.751   5.949   5.094
 5065TIP3    H215160   1.736   5.939   4.943
 5066TIP3   OH215161   3.685   1.864   3.599
 5066TIP3    H115162   3.736   1.784   3.609
 5066TIP3    H215163   3.633   1.870   3.679
 5067TIP3   OH215164   3.071   3.573   2.575
 5067TIP3    H115165   3.082   3.597   2.668
 5067TIP3    H215166   3.114   3.643   2.527
 5068TIP3   OH215167   7.057   4.110   2.585
 5068TIP3    H115168   7.120   4.133   2.517
 5068TIP3    H215169   7.111   4.086   2.661
 5069TIP3   OH215170   0.580   0.276   4.436
 5069TIP3    H115171   0.534   0.360   4.431
 5069TIP3    H215172   0.562   0.245   4.525
 5070TIP3   OH215173   5.121   5.490   4.707
 5070TIP3    H115174   5.114   5.572   4.756
 5070TIP3    H215175   5.042   5.441   4.730
 5071TIP3   OH215176   1.825   5.044   0.834
 5071TIP3    H115177   1.737   5.044   0.872
 5071TIP3    H215178   1.813   5.007   0.746
 5072TIP3   OH215179   0.974   6.536   2.027
 5072TIP3    H115180   1.016   6.616   2.058
 5072TIP3    H215181   0.922   6.563   1.952
 5073TIP3   OH215182   0.422   5.995   5.861
 5073TIP3    H115183   0.368   6.001   5.782
 5073TIP3    H215184   0.485   6.066   5.852
 5074TIP3   OH215185   1.555   3.417   3.833
 5074TIP3    H115186   1.517   3.456   3.755
 5074TIP3    H215187   1.602   3.340   3.802
 5075TIP3   OH215188   2.205   5.911   4.301
 5075TIP3    H115189   2.216   5.828   4.347
 5075TIP3    H215190   2.120   5.904   4.258
 5076TIP3   OH215191   3.002   5.917   4.501
 5076TIP3    H115192   2.915   5.903   4.538
 5076TIP3    H215193   3.054   5.845   4.535
 5077TIP3   OH215194   5.679   2.090   0.142
 5077TIP3    H115195   5.731   2.117   0.218
 5077TIP3    H215196   5.707   2.000   0.126
 5078TIP3   OH215197   5.132   0.474   1.766
 5078TIP3    H115198   5.036   0.477   1.759
 5078TIP3    H215199   5.155   0.552   1.816
 5079TIP3   OH215200   4.283   6.174   2.486
 5079TIP3    H115201   4.368   6.160   2.527
 5079TIP3    H215202   4.272   6.269   2.486
 5080TIP3   OH215203   1.044   5.894   5.235
 5080TIP3    H115204   1.133   5.931   5.234
 5080TIP3    H215205   0.987   5.967   5.213
 5081TIP3   OH215206   3.460   1.194   0.401
 5081TIP3    H115207   3.378   1.241   0.417
 5081TIP3    H215208   3.524   1.238   0.456
 5082TIP3   OH215209   5.696   3.890   4.092
 5082TIP3    H115210   5.638   3.827   4.136
 5082TIP3    H215211   5.720   3.848   4.010
 5083TIP3   OH215212   5.799   4.481   2.326
 5083TIP3    H115213   5.747   4.538   2.382
 5083TIP3    H215214   5.778   4.393   2.355
 5084TIP3   OH215215   0.445   4.415   3.599
 5084TIP3    H115216   0.380   4.464   3.650
 5084TIP3    H215217   0.492   4.482   3.549
 5085TIP3   OH215218   2.865   0.019   2.809
 5085TIP3    H115219   2.869   0.092   2.747
 5085TIP3    H215220   2.777   0.025   2.847
 5086TIP3   OH215221   0.568   1.390   1.983
 5086TIP3    H115222   0.564   1.486   1.984
 5086TIP3    H215223   0.625   1.368   2.057
 5087TIP3   OH215224   6.608   1.999   4.072
 5087TIP3    H115225   6.513   2.006   4.060
 5087TIP3    H215226   6.622   2.019   4.164
 5088TIP3   OH215227   4.688   2.898   4.370
 5088TIP3    H115228   4.695   2.805   4.393
 5088TIP3    H215229   4.744   2.943   4.433
 5089TIP3   OH215230   0.746   3.768   2.894
 5089TIP3    H115231   0.747   3.864   2.888
 5089TIP3    H215232   0.838   3.744   2.896
 5090TIP3   OH215233   4.768   4.471   2.823
 5090TIP3    H115234   4.756   4.405   2.755
 5090TIP3    H215235   4.753   4.423   2.905
 5091TIP3   OH215236   2.538   3.817   5.637
 5091TIP3    H115237   2.457   3.844   5.680
 5091TIP3    H215238   2.589   3.775   5.707
 5092TIP3   OH215239   6.105  -0.007   4.632
 5092TIP3    H115240   6.102   0.086   4.611
 5092TIP3    H215241   6.164  -0.044   4.566
 5093TIP3   OH215242   0.397   2.889   1.066
 5093TIP3    H115243   0.429   2.907   1.154
 5093TIP3    H215244   0.456   2.938   1.008
 5094TIP3   OH215245   5.312   0.327   0.375
 5094TIP3    H115246   5.310   0.295   0.284
 5094TIP3    H215247   5.321   0.247   0.427
 5095TIP3   OH215248   5.380   2.921   1.034
 5095TIP3    H115249   5.288   2.895   1.042
 5095TIP3    H215250   5.388   2.998   1.089
 5096TIP3   OH215251   2.360   0.483   1.067
 5096TIP3    H115252   2.403   0.400   1.045
 5096TIP3    H215253   2.395   0.545   1.003
 5097TIP3   OH215254   4.390   2.145   2.794
 5097TIP3    H115255   4.386   2.216   2.731
 5097TIP3    H215256   4.480   2.148   2.828
 5098TIP3   OH215257   4.101   1.864   0.076
 5098TIP3    H115258   4.141   1.907   0.151
 5098TIP3    H215259   4.145   1.779   0.072
 5099TIP3   OH215260   2.487   2.980   4.534
 5099TIP3    H115261   2.460   3.036   4.607
 5099TIP3    H215262   2.554   3.031   4.488
 5100TIP3   OH215263   0.854   2.234   2.799
 5100TIP3    H115264   0.845   2.272   2.887
 5100TIP3    H215265   0.765   2.206   2.776
 5101TIP3   OH215266   4.959   0.545   2.972
 5101TIP3    H115267   4.875   0.573   2.935
 5101TIP3    H215268   5.024   0.576   2.909
 5102TIP3   OH215269   6.219   0.057   0.271
 5102TIP3    H115270   6.260   0.032   0.354
 5102TIP3    H215271   6.269   0.133   0.241
 5103TIP3   OH215272   2.294   3.130   5.057
 5103TIP3    H115273   2.325   3.046   5.023
 5103TIP3    H215274   2.297   3.120   5.152
 5104TIP3   OH215275   4.065   2.081   3.131
 5104TIP3    H115276   4.005   2.025   3.082
 5104TIP3    H215277   4.012   2.114   3.204
 5105TIP3   OH215278   2.177   1.886   3.469
 5105TIP3    H115279   2.120   1.828   3.419
 5105TIP3    H215280   2.264   1.845   3.464
 5106TIP3   OH215281   3.660   4.759   1.271
 5106TIP3    H115282   3.569   4.747   1.297
 5106TIP3    H215283   3.700   4.804   1.345
 5107TIP3   OH215284   5.522   4.381   0.321
 5107TIP3    H115285   5.609   4.361   0.356
 5107TIP3    H215286   5.509   4.473   0.343
 5108TIP3   OH215287   4.049   4.353   1.120
 5108TIP3    H115288   4.053   4.409   1.042
 5108TIP3    H215289   4.096   4.273   1.095
 5109TIP3   OH215290   3.183   5.013   5.288
 5109TIP3    H115291   3.215   5.061   5.212
 5109TIP3    H215292   3.091   5.038   5.295
 5110TIP3   OH215293   0.208   3.023   5.578
 5110TIP3    H115294   0.183   2.954   5.640
 5110TIP3    H215295   0.302   3.013   5.568
 5111TIP3   OH215296   7.097   3.913   0.153
 5111TIP3    H115297   7.079   3.902   0.060
 5111TIP3    H215298   7.174   3.970   0.156
 5112TIP3   OH215299   5.863   4.724   2.878
 5112TIP3    H115300   5.768   4.736   2.871
 5112TIP3    H215301   5.900   4.805   2.842
 5113TIP3   OH215302   3.591   5.706   1.081
 5113TIP3    H115303   3.538   5.732   1.156
 5113TIP3    H215304   3.672   5.758   1.091
 5114TIP3   OH215305   6.047   3.115   3.525
 5114TIP3    H115306   6.140   3.124   3.504
 5114TIP3    H215307   6.007   3.195   3.492
 5115TIP3   OH215308   7.039   3.408   5.634
 5115TIP3    H115309   6.993   3.469   5.692
 5115TIP3    H215310   7.091   3.464   5.576
 5116TIP3   OH215311   1.372   6.380   0.927
 5116TIP3    H115312   1.426   6.372   1.006
 5116TIP3    H215313   1.365   6.290   0.894
 5117TIP3   OH215314   2.491   1.530   4.172
 5117TIP3    H115315   2.508   1.441   4.203
 5117TIP3    H215316   2.573   1.577   4.185
 5118TIP3   OH215317   3.161   0.813   4.294
 5118TIP3    H115318   3.076   0.855   4.277
 5118TIP3    H215319   3.141   0.720   4.301
 5119TIP3   OH215320   6.982   2.190   2.557
 5119TIP3    H115321   6.934   2.271   2.537
 5119TIP3    H215322   7.020   2.165   2.473
 5120TIP3   OH215323   4.191   6.107   1.151
 5120TIP3    H115324   4.251   6.059   1.094
 5120TIP3    H215325   4.230   6.100   1.238
 5121TIP3   OH215326   6.039   1.103   2.142
 5121TIP3    H115327   6.023   1.074   2.232
 5121TIP3    H215328   5.955   1.090   2.097
 5122TIP3   OH215329   5.192   0.255   1.530
 5122TIP3    H115330   5.280   0.231   1.560
 5122TIP3    H215331   5.154   0.303   1.604
 5123TIP3   OH215332   6.267   0.411   2.274
 5123TIP3    H115333   6.191   0.448   2.230
 5123TIP3    H215334   6.236   0.329   2.311
 5124TIP3   OH215335   0.857   5.881   3.289
 5124TIP3    H115336   0.776   5.858   3.243
 5124TIP3    H215337   0.907   5.931   3.225
 5125TIP3   OH215338   4.362   1.555   4.873
 5125TIP3    H115339   4.347   1.515   4.959
 5125TIP3    H215340   4.294   1.516   4.817
 5126TIP3   OH215341   1.304   3.673   3.074
 5126TIP3    H115342   1.299   3.732   3.000
 5126TIP3    H215343   1.282   3.587   3.038
 5127TIP3   OH215344   6.828   6.491   4.309
 5127TIP3    H115345   6.759   6.542   4.352
 5127TIP3    H215346   6.809   6.500   4.215
 5128TIP3   OH215347   6.210   2.205   5.332
 5128TIP3    H115348   6.268   2.130   5.319
 5128TIP3    H215349   6.155   2.206   5.254
 5129TIP3   OH215350   3.559   6.031   5.138
 5129TIP3    H115351   3.510   6.095   5.086
 5129TIP3    H215352   3.584   5.963   5.075
 5130TIP3   OH215353   1.188   2.231   0.604
 5130TIP3    H115354   1.227   2.226   0.691
 5130TIP3    H215355   1.204   2.322   0.576
 5131TIP3   OH215356   5.748   0.495   0.673
 5131TIP3    H115357   5.713   0.462   0.755
 5131TIP3    H215358   5.707   0.441   0.605
 5132TIP3   OH215359   4.465   3.563   1.002
 5132TIP3    H115360   4.493   3.472   0.992
 5132TIP3    H215361   4.545   3.611   1.023
 5133TIP3   OH215362   4.898   0.954   3.557
 5133TIP3    H115363   4.844   0.960   3.635
 5133TIP3    H215364   4.982   0.921   3.588
 5134TIP3   OH215365   0.179   0.214   4.840
 5134TIP3    H115366   0.095   0.214   4.796
 5134TIP3    H215367   0.212   0.125   4.829
 5135TIP3   OH215368   4.270   1.388   4.657
 5135TIP3    H115369   4.306   1.299   4.663
 5135TIP3    H215370   4.281   1.412   4.565
 5136TIP3   OH215371   1.351   1.845   0.042
 5136TIP3    H115372   1.364   1.768   0.097
 5136TIP3    H215373   1.257   1.848   0.026
 5137TIP3   OH215374   3.104   6.365   3.601
 5137TIP3    H115375   3.030   6.425   3.587
 5137TIP3    H215376   3.145   6.358   3.515
 5138TIP3   OH215377   4.289   0.985   1.731
 5138TIP3    H115378   4.201   1.017   1.752
 5138TIP3    H215379   4.298   0.906   1.783
 5139TIP3   OH215380   5.136   5.442   3.269
 5139TIP3    H115381   5.177   5.380   3.329
 5139TIP3    H215382   5.162   5.528   3.300
 5140TIP3   OH215383   5.992   2.278   3.291
 5140TIP3    H115384   5.953   2.365   3.293
 5140TIP3    H215385   6.086   2.294   3.277
 5141TIP3   OH215386   6.070   3.869   3.941
 5141TIP3    H115387   6.045   3.949   3.987
 5141TIP3    H215388   6.161   3.883   3.917
 5142TIP3   OH215389   5.072   2.968   2.692
 5142TIP3    H115390   5.000   3.013   2.736
 5142TIP3    H215391   5.045   2.962   2.601
 5143TIP3   OH215392   6.166   1.045   5.791
 5143TIP3    H115393   6.258   1.072   5.794
 5143TIP3    H215394   6.169   0.956   5.756
 5144TIP3   OH215395   2.199   5.381   4.431
 5144TIP3    H115396   2.127   5.371   4.369
 5144TIP3    H215397   2.252   5.302   4.420
 5145TIP3   OH215398   1.795   1.002   2.798
 5145TIP3    H115399   1.803   1.097   2.791
 5145TIP3    H215400   1.846   0.969   2.724
 5146TIP3   OH215401   4.171   0.988   4.628
 5146TIP3    H115402   4.250   1.009   4.579
 5146TIP3    H215403   4.196   1.000   4.720
 5147TIP3   OH215404   4.153   6.243   2.863
 5147TIP3    H115405   4.134   6.326   2.818
 5147TIP3    H215406   4.072   6.192   2.852
 5148TIP3   OH215407   5.374   4.939   5.342
 5148TIP3    H115408   5.349   5.028   5.368
 5148TIP3    H215409   5.291   4.895   5.325
 5149TIP3   OH215410   4.375   0.664   0.178
 5149TIP3    H115411   4.340   0.730   0.118
 5149TIP3    H215412   4.453   0.631   0.134
 5150TIP3   OH215413   6.234   0.316   3.641
 5150TIP3    H115414   6.310   0.263   3.665
 5150TIP3    H215415   6.176   0.255   3.596
 5151TIP3   OH215416   5.579   2.001   2.416
 5151TIP3    H115417   5.561   1.972   2.506
 5151TIP3    H215418   5.657   1.951   2.391
 5152TIP3   OH215419   2.601   0.523   1.794
 5152TIP3    H115420   2.529   0.486   1.845
 5152TIP3    H215421   2.680   0.484   1.833
 5153TIP3   OH215422   5.198   0.678   2.199
 5153TIP3    H115423   5.124   0.729   2.233
 5153TIP3    H215424   5.189   0.684   2.103
 5154TIP3   OH215425   1.623   2.539   2.372
 5154TIP3    H115426   1.530   2.547   2.353
 5154TIP3    H215427   1.651   2.462   2.323
 5155TIP3   OH215428   3.134   0.493   4.017
 5155TIP3    H115429   3.080   0.534   3.950
 5155TIP3    H215430   3.156   0.564   4.077
 5156TIP3   OH215431   3.648   2.268   3.970
 5156TIP3    H115432   3.586   2.315   3.914
 5156TIP3    H215433   3.733   2.307   3.949
 5157TIP3   OH215434   0.112   1.772   1.152
 5157TIP3    H115435   0.206   1.754   1.157
 5157TIP3    H215436   0.079   1.755   1.240
 5158TIP3   OH215437   0.146   1.413   0.288
 5158TIP3    H115438   0.169   1.362   0.210
 5158TIP3    H215439   0.051   1.400   0.297
 5159TIP3   OH215440   2.243   3.454   3.651
 5159TIP3    H115441   2.294   3.419   3.579
 5159TIP3    H215442   2.251   3.549   3.641
 5160TIP3   OH215443   1.877   3.345   5.501
 5160TIP3    H115444   1.872   3.386   5.587
 5160TIP3    H215445   1.824   3.400   5.444
 5161TIP3   OH215446   1.315   3.603   2.741
 5161TIP3    H115447   1.367   3.524   2.725
 5161TIP3    H215448   1.226   3.578   2.718
 5162TIP3   OH215449   5.866   1.339   5.207
 5162TIP3    H115450   5.839   1.266   5.262
 5162TIP3    H215451   5.875   1.413   5.268
 5163TIP3   OH215452   6.295   1.333   4.644
 5163TIP3    H115453   6.213   1.284   4.644
 5163TIP3    H215454   6.304   1.366   4.554
 5164TIP3   OH215455   6.456   6.573   4.237
 5164TIP3    H115456   6.499   6.599   4.318
 5164TIP3    H215457   6.515   6.604   4.168
 5165TIP3   OH215458   1.939   5.150   2.127
 5165TIP3    H115459   1.972   5.079   2.181
 5165TIP3    H215460   2.017   5.197   2.098
 5166TIP3   OH215461   6.542   5.778   4.341
 5166TIP3    H115462   6.499   5.717   4.282
 5166TIP3    H215463   6.472   5.835   4.372
 5167TIP3   OH215464   2.492   0.934   3.415
 5167TIP3    H115465   2.524   0.943   3.505
 5167TIP3    H215466   2.472   0.841   3.406
 5168TIP3   OH215467   5.040   2.102   2.231
 5168TIP3    H115468   5.027   2.049   2.309
 5168TIP3    H215469   5.086   2.180   2.262
 5169TIP3   OH215470   3.014   2.721   0.968
 5169TIP3    H115471   2.985   2.810   0.991
 5169TIP3    H215472   2.960   2.664   1.023
 5170TIP3   OH215473   3.374   6.278   5.702
 5170TIP3    H115474   3.452   6.267   5.757
 5170TIP3    H215475   3.321   6.200   5.719
 5171TIP3   OH215476   2.669   5.086   2.935
 5171TIP3    H115477   2.578   5.063   2.949
 5171TIP3    H215478   2.669   5.181   2.924
 5172TIP3   OH215479   0.351   5.050   3.408
 5172TIP3    H115480   0.312   5.125   3.452
 5172TIP3    H215481   0.277   5.007   3.365
 5173TIP3   OH215482   1.077   2.142   5.121
 5173TIP3    H115483   1.128   2.214   5.085
 5173TIP3    H215484   1.029   2.107   5.045
 5174TIP3   OH215485   0.846   3.911   0.797
 5174TIP3    H115486   0.910   3.841   0.806
 5174TIP3    H215487   0.804   3.918   0.883
 5175TIP3   OH215488   0.039   4.882   4.313
 5175TIP3    H115489   0.120   4.831   4.316
 5175TIP3    H215490   0.067   4.972   4.296
 5176TIP3   OH215491   3.182   2.670   4.042
 5176TIP3    H115492   3.168   2.740   3.978
 5176TIP3    H215493   3.193   2.715   4.125
 5177TIP3   OH215494   3.076   1.086   1.042
 5177TIP3    H115495   3.055   1.029   0.968
 5177TIP3    H215496   2.993   1.130   1.062
 5178TIP3   OH215497   1.543   2.192   3.822
 5178TIP3    H115498   1.491   2.124   3.864
 5178TIP3    H215499   1.501   2.206   3.737
 5179TIP3   OH215500   0.144   1.660   2.153
 5179TIP3    H115501   0.179   1.572   2.167
 5179TIP3    H215502   0.216   1.719   2.177
 5180TIP3   OH215503   3.478   5.210   4.699
 5180TIP3    H115504   3.525   5.207   4.616
 5180TIP3    H215505   3.426   5.129   4.699
 5181TIP3   OH215506   1.694   1.930   0.483
 5181TIP3    H115507   1.684   2.025   0.488
 5181TIP3    H215508   1.692   1.901   0.574
 5182TIP3   OH215509   5.112   1.946   3.797
 5182TIP3    H115510   5.160   2.019   3.836
 5182TIP3    H215511   5.030   1.985   3.766
 5183TIP3   OH215512   7.180   1.029   0.039
 5183TIP3    H115513   7.238   0.983  -0.022
 5183TIP3    H215514   7.092   1.005   0.012
 5184TIP3   OH215515   3.063   1.499   0.216
 5184TIP3    H115516   3.044   1.553   0.292
 5184TIP3    H215517   2.981   1.455   0.196
 5185TIP3   OH215518   6.732   6.137   0.959
 5185TIP3    H115519   6.799   6.197   0.994
 5185TIP3    H215520   6.738   6.148   0.864
 5186TIP3   OH215521   6.513   3.170   3.665
 5186TIP3    H115522   6.583   3.203   3.608
 5186TIP3    H215523   6.553   3.098   3.714
 5187TIP3   OH215524   0.235   4.670   4.336
 5187TIP3    H115525   0.223   4.592   4.390
 5187TIP3    H215526   0.288   4.641   4.262
 5188TIP3   OH215527   3.498   4.720   0.276
 5188TIP3    H115528   3.526   4.735   0.186
 5188TIP3    H215529   3.522   4.800   0.322
 5189TIP3   OH215530   5.034   4.688   5.781
 5189TIP3    H115531   4.980   4.711   5.706
 5189TIP3    H215532   4.986   4.723   5.856
 5190TIP3   OH215533   6.792   2.244   3.440
 5190TIP3    H115534   6.755   2.273   3.523
 5190TIP3    H215535   6.820   2.324   3.396
 5191TIP3   OH215536   0.302   1.967   0.641
 5191TIP3    H115537   0.206   1.967   0.650
 5191TIP3    H215538   0.317   1.979   0.547
 5192TIP3   OH215539   6.598   6.268   3.181
 5192TIP3    H115540   6.573   6.304   3.266
 5192TIP3    H215541   6.522   6.218   3.152
 5193TIP3   OH215542   1.894   1.647   5.417
 5193TIP3    H115543   1.857   1.608   5.337
 5193TIP3    H215544   1.957   1.711   5.385
 5194TIP3   OH215545   0.868   6.343   0.181
 5194TIP3    H115546   0.930   6.277   0.150
 5194TIP3    H215547   0.874   6.338   0.277
 5195TIP3   OH215548   6.847   3.040   2.503
 5195TIP3    H115549   6.803   3.112   2.549
 5195TIP3    H215550   6.875   3.078   2.420
 5196TIP3   OH215551   2.246   0.030   3.141
 5196TIP3    H115552   2.217  -0.061   3.133
 5196TIP3    H215553   2.239   0.066   3.053
 5197TIP3   OH215554   6.600   3.095   3.961
 5197TIP3    H115555   6.505   3.103   3.972
 5197TIP3    H215556   6.627   3.179   3.926
 5198TIP3   OH215557   7.066   1.474   2.338
 5198TIP3    H115558   7.092   1.566   2.337
 5198TIP3    H215559   6.988   1.471   2.282
 5199TIP3   OH215560   5.224   1.413   4.370
 5199TIP3    H115561   5.312   1.401   4.405
 5199TIP3    H215562   5.207   1.507   4.378
 5200TIP3   OH215563   5.021   5.125   0.193
 5200TIP3    H115564   5.066   5.132   0.109
 5200TIP3    H215565   4.929   5.110   0.170
 5201TIP3   OH215566   3.837   3.017   0.486
 5201TIP3    H115567   3.835   3.026   0.581
 5201TIP3    H215568   3.797   3.098   0.453
 5202TIP3   OH215569   4.949   4.274   5.368
 5202TIP3    H115570   4.964   4.188   5.330
 5202TIP3    H215571   5.022   4.287   5.428
 5203TIP3   OH215572   7.157   3.712   3.703
 5203TIP3    H115573   7.201   3.790   3.667
 5203TIP3    H215574   7.188   3.640   3.648
 5204TIP3   OH215575   6.664   0.270   5.302
 5204TIP3    H115576   6.752   0.240   5.322
 5204TIP3    H215577   6.675   0.362   5.278
 5205TIP3   OH215578   6.096   3.582   5.005
 5205TIP3    H115579   6.049   3.607   4.926
 5205TIP3    H215580   6.166   3.525   4.974
 5206TIP3   OH215581   1.707   0.535   3.554
 5206TIP3    H115582   1.709   0.605   3.620
 5206TIP3    H215583   1.791   0.490   3.565
 5207TIP3   OH215584   5.940   2.375   5.741
 5207TIP3    H115585   6.031   2.375   5.770
 5207TIP3    H215586   5.928   2.459   5.698
 5208TIP3   OH215587   4.561   4.952   5.680
 5208TIP3    H115588   4.537   5.008   5.606
 5208TIP3    H215589   4.480   4.944   5.730
 5209TIP3   OH215590   6.606   4.116   5.639
 5209TIP3    H115591   6.572   4.094   5.552
 5209TIP3    H215592   6.692   4.154   5.623
 5210TIP3   OH215593   5.815   0.215   0.287
 5210TIP3    H115594   5.898   0.264   0.285
 5210TIP3    H215595   5.835   0.138   0.340
 5211TIP3   OH215596   3.413   6.088   2.718
 5211TIP3    H115597   3.339   6.132   2.759
 5211TIP3    H215598   3.374   6.019   2.665
 5212TIP3   OH215599   2.774   4.016   2.565
 5212TIP3    H115600   2.724   4.044   2.488
 5212TIP3    H215601   2.794   4.098   2.611
 5213TIP3   OH215602   1.722   3.280   5.260
 5213TIP3    H115603   1.667   3.227   5.202
 5213TIP3    H215604   1.745   3.221   5.332
 5214TIP3   OH215605   7.001   4.798   3.132
 5214TIP3    H115606   7.063   4.727   3.116
 5214TIP3    H215607   6.919   4.753   3.154
 5215TIP3   OH215608   0.331   5.933   4.529
 5215TIP3    H115609   0.343   5.842   4.501
 5215TIP3    H215610   0.362   5.985   4.454
 5216TIP3   OH215611   1.258   5.149   3.797
 5216TIP3    H115612   1.353   5.137   3.804
 5216TIP3    H215613   1.243   5.171   3.706
 5217TIP3   OH215614   1.676   3.888   3.150
 5217TIP3    H115615   1.711   3.945   3.218
 5217TIP3    H215616   1.751   3.838   3.120
 5218TIP3   OH215617   6.558   6.047   5.821
 5218TIP3    H115618   6.514   6.038   5.737
 5218TIP3    H215619   6.549   6.140   5.843
 5219TIP3   OH215620   4.414   6.042   0.976
 5219TIP3    H115621   4.472   6.086   1.038
 5219TIP3    H215622   4.468   6.029   0.898
 5220TIP3   OH215623   6.765   4.530   5.676
 5220TIP3    H115624   6.786   4.524   5.583
 5220TIP3    H215625   6.671   4.510   5.681
 5221TIP3   OH215626   6.709   3.828   0.910
 5221TIP3    H115627   6.704   3.808   0.817
 5221TIP3    H215628   6.722   3.743   0.952
 5222TIP3   OH215629   0.827   5.939   1.838
 5222TIP3    H115630   0.762   5.996   1.878
 5222TIP3    H215631   0.885   5.998   1.789
 5223TIP3   OH215632   4.506   5.534   2.804
 5223TIP3    H115633   4.532   5.484   2.727
 5223TIP3    H215634   4.432   5.486   2.840
 5224TIP3   OH215635   3.003   0.377   3.095
 5224TIP3    H115636   3.057   0.315   3.046
 5224TIP3    H215637   2.914   0.343   3.085
 5225TIP3   OH215638   4.645   0.664   3.760
 5225TIP3    H115639   4.683   0.696   3.841
 5225TIP3    H215640   4.688   0.580   3.744
 5226TIP3   OH215641   3.987   0.482   1.193
 5226TIP3    H115642   3.934   0.410   1.159
 5226TIP3    H215643   3.951   0.560   1.150
 5227TIP3   OH215644   4.222   2.755   3.539
 5227TIP3    H115645   4.205   2.782   3.629
 5227TIP3    H215646   4.314   2.731   3.538
 5228TIP3   OH215647   3.839   3.311   1.232
 5228TIP3    H115648   3.754   3.341   1.264
 5228TIP3    H215649   3.902   3.349   1.293
 5229TIP3   OH215650   1.942   0.493   2.844
 5229TIP3    H115651   2.004   0.559   2.812
 5229TIP3    H215652   1.870   0.543   2.880
 5230TIP3   OH215653   4.468   1.892   1.536
 5230TIP3    H115654   4.503   1.981   1.527
 5230TIP3    H215655   4.543   1.835   1.523
 5231TIP3   OH215656   1.466   2.332   1.792
 5231TIP3    H115657   1.462   2.237   1.801
 5231TIP3    H215658   1.384   2.355   1.748
 5232TIP3   OH215659   4.831   6.603   3.908
 5232TIP3    H115660   4.858   6.547   3.981
 5232TIP3    H215661   4.911   6.616   3.857
 5233TIP3   OH215662   3.407   2.169   2.611
 5233TIP3    H115663   3.488   2.209   2.643
 5233TIP3    H215664   3.338   2.230   2.638
 5234TIP3   OH215665   5.437   0.443   1.677
 5234TIP3    H115666   5.402   0.528   1.701
 5234TIP3    H215667   5.507   0.463   1.614
 5235TIP3   OH215668   4.951   1.765   0.384
 5235TIP3    H115669   4.987   1.736   0.468
 5235TIP3    H215670   5.019   1.822   0.348
 5236TIP3   OH215671   2.205   0.859   3.391
 5236TIP3    H115672   2.119   0.849   3.431
 5236TIP3    H215673   2.219   0.777   3.343
 5237TIP3   OH215674   6.709   2.751   1.939
 5237TIP3    H115675   6.725   2.672   1.888
 5237TIP3    H215676   6.736   2.728   2.028
 5238TIP3   OH215677   0.917   4.954   3.561
 5238TIP3    H115678   0.966   4.904   3.625
 5238TIP3    H215679   0.858   5.009   3.612
 5239TIP3   OH215680   3.752   4.683   5.674
 5239TIP3    H115681   3.729   4.755   5.733
 5239TIP3    H215682   3.672   4.667   5.624
 5240TIP3   OH215683   6.266   3.067   2.909
 5240TIP3    H115684   6.284   3.160   2.894
 5240TIP3    H215685   6.310   3.023   2.836
 5241TIP3   OH215686   6.010   2.539   2.664
 5241TIP3    H115687   5.932   2.501   2.624
 5241TIP3    H215688   5.997   2.634   2.658
 5242TIP3   OH215689   5.309   2.345   1.806
 5242TIP3    H115690   5.358   2.376   1.730
 5242TIP3    H215691   5.228   2.395   1.805
 5243TIP3   OH215692   1.478   4.923   5.766
 5243TIP3    H115693   1.560   4.949   5.809
 5243TIP3    H215694   1.458   4.837   5.803
 5244TIP3   OH215695   0.470   6.654   1.469
 5244TIP3    H115696   0.488   6.746   1.488
 5244TIP3    H215697   0.447   6.616   1.554
 5245TIP3   OH215698   2.501   3.179   0.822
 5245TIP3    H115699   2.522   3.229   0.743
 5245TIP3    H215700   2.409   3.156   0.811
 5246TIP3   OH215701   2.432   3.610   2.503
 5246TIP3    H115702   2.373   3.674   2.463
 5246TIP3    H215703   2.512   3.614   2.450
 5247TIP3   OH215704   1.376   6.266   5.172
 5247TIP3    H115705   1.469   6.275   5.151
 5247TIP3    H215706   1.332   6.271   5.087
 5248TIP3   OH215707   3.715   4.936   0.241
 5248TIP3    H115708   3.679   5.010   0.291
 5248TIP3    H215709   3.810   4.951   0.242
 5249TIP3   OH215710   2.689   6.627   4.611
 5249TIP3    H115711   2.670   6.721   4.605
 5249TIP3    H215712   2.606   6.584   4.591
 5250TIP3   OH215713   2.446   3.275   0.553
 5250TIP3    H115714   2.436   3.198   0.496
 5250TIP3    H215715   2.539   3.299   0.544
 5251TIP3   OH215716   4.812   1.423   5.589
 5251TIP3    H115717   4.732   1.397   5.634
 5251TIP3    H215718   4.882   1.389   5.644
 5252TIP3   OH215719   3.021   2.544   5.735
 5252TIP3    H115720   3.040   2.615   5.797
 5252TIP3    H215721   3.081   2.560   5.661
 5253TIP3   OH215722   1.111   3.423   0.945
 5253TIP3    H115723   1.094   3.341   0.898
 5253TIP3    H215724   1.034   3.436   0.999
 5254TIP3   OH215725   1.474   5.173   4.921
 5254TIP3    H115726   1.422   5.127   4.987
 5254TIP3    H215727   1.419   5.173   4.843
 5255TIP3   OH215728   1.074   0.135   3.370
 5255TIP3    H115729   1.157   0.164   3.332
 5255TIP3    H215730   1.066   0.044   3.341
 5256TIP3   OH215731   4.372   0.214   3.655
 5256TIP3    H115732   4.356   0.243   3.745
 5256TIP3    H215733   4.427   0.136   3.664
 5257TIP3   OH215734   2.990   3.446   1.582
 5257TIP3    H115735   3.084   3.438   1.598
 5257TIP3    H215736   2.949   3.426   1.666
 5258TIP3   OH215737   0.954   1.334   3.155
 5258TIP3    H115738   0.864   1.346   3.184
 5258TIP3    H215739   1.000   1.412   3.187
 5259TIP3   OH215740   5.171   6.276   3.993
 5259TIP3    H115741   5.168   6.240   3.905
 5259TIP3    H215742   5.143   6.203   4.049
 5260TIP3   OH215743   6.154   4.590   1.744
 5260TIP3    H115744   6.149   4.654   1.673
 5260TIP3    H215745   6.100   4.517   1.714
 5261TIP3   OH215746   1.395   0.204   5.548
 5261TIP3    H115747   1.455   0.262   5.501
 5261TIP3    H215748   1.437   0.190   5.633
 5262TIP3   OH215749   5.526   4.072   1.004
 5262TIP3    H115750   5.455   4.036   1.057
 5262TIP3    H215751   5.589   4.106   1.068
 5263TIP3   OH215752   1.374   3.583   0.543
 5263TIP3    H115753   1.454   3.623   0.578
 5263TIP3    H215754   1.312   3.588   0.616
 5264TIP3   OH215755   3.507   0.597   2.496
 5264TIP3    H115756   3.521   0.503   2.486
 5264TIP3    H215757   3.566   0.622   2.567
 5265TIP3   OH215758   7.160   0.241   2.803
 5265TIP3    H115759   7.231   0.301   2.823
 5265TIP3    H215760   7.204   0.162   2.769
 5266TIP3   OH215761   2.146   4.564   5.652
 5266TIP3    H115762   2.080   4.542   5.586
 5266TIP3    H215763   2.096   4.594   5.727
 5267TIP3   OH215764   3.710   0.562   4.281
 5267TIP3    H115765   3.764   0.483   4.273
 5267TIP3    H215766   3.661   0.549   4.362
 5268TIP3   OH215767   1.967   1.929   4.365
 5268TIP3    H115768   1.971   1.885   4.280
 5268TIP3    H215769   2.005   2.016   4.348
 5269TIP3   OH215770   5.794   2.811   1.119
 5269TIP3    H115771   5.871   2.864   1.135
 5269TIP3    H215772   5.721   2.864   1.152
 5270TIP3   OH215773   4.670   3.168   2.403
 5270TIP3    H115774   4.731   3.100   2.373
 5270TIP3    H215775   4.725   3.244   2.420
 5271TIP3   OH215776   5.961   1.036   1.201
 5271TIP3    H115777   5.898   0.974   1.166
 5271TIP3    H215778   5.964   1.106   1.136
 5272TIP3   OH215779   5.444   3.189   2.646
 5272TIP3    H115780   5.457   3.231   2.561
 5272TIP3    H215781   5.366   3.232   2.682
 5273TIP3   OH215782   4.069   4.483   5.830
 5273TIP3    H115783   4.022   4.566   5.841
 5273TIP3    H215784   4.028   4.443   5.754
 5274TIP3   OH215785   3.545   0.007   2.516
 5274TIP3    H115786   3.544  -0.033   2.603
 5274TIP3    H215787   3.608   0.078   2.523
 5275TIP3   OH215788   0.171   1.647   1.875
 5275TIP3    H115789   0.110   1.581   1.841
 5275TIP3    H215790   0.147   1.656   1.968
 5276TIP3   OH215791   5.753   3.584   0.482
 5276TIP3    H115792   5.779   3.595   0.391
 5276TIP3    H215793   5.718   3.670   0.508
 5277TIP3   OH215794   3.798   4.401   0.783
 5277TIP3    H115795   3.768   4.321   0.825
 5277TIP3    H215796   3.892   4.389   0.774
 5278TIP3   OH215797   3.552   4.685   4.635
 5278TIP3    H115798   3.632   4.638   4.658
 5278TIP3    H215799   3.514   4.634   4.564
 5279TIP3   OH215800   5.677   1.655   4.869
 5279TIP3    H115801   5.753   1.668   4.925
 5279TIP3    H215802   5.620   1.597   4.919
 5280TIP3   OH215803   2.777   2.751   0.704
 5280TIP3    H115804   2.763   2.657   0.692
 5280TIP3    H215805   2.738   2.771   0.789
 5281TIP3   OH215806   5.422   0.182   5.699
 5281TIP3    H115807   5.360   0.119   5.736
 5281TIP3    H215808   5.395   0.266   5.735
 5282TIP3   OH215809   7.075   0.580   0.824
 5282TIP3    H115810   6.991   0.538   0.840
 5282TIP3    H215811   7.127   0.558   0.902
 5283TIP3   OH215812   1.470   5.137   0.311
 5283TIP3    H115813   1.536   5.203   0.286
 5283TIP3    H215814   1.446   5.096   0.228
 5284TIP3   OH215815   6.068   4.408   2.326
 5284TIP3    H115816   5.982   4.449   2.312
 5284TIP3    H215817   6.054   4.316   2.304
 5285TIP3   OH215818   4.619   1.609   0.205
 5285TIP3    H115819   4.700   1.590   0.252
 5285TIP3    H215820   4.556   1.546   0.240
 5286TIP3   OH215821   4.793   3.464   5.014
 5286TIP3    H115822   4.828   3.376   5.028
 5286TIP3    H215823   4.780   3.471   4.919
 5287TIP3   OH215824   3.710   1.182   4.276
 5287TIP3    H115825   3.653   1.216   4.345
 5287TIP3    H215826   3.656   1.121   4.227
 5288TIP3   OH215827   1.774   4.544   3.745
 5288TIP3    H115828   1.738   4.632   3.742
 5288TIP3    H215829   1.838   4.546   3.816
 5289TIP3   OH215830   1.270   3.279   1.904
 5289TIP3    H115831   1.262   3.247   1.994
 5289TIP3    H215832   1.362   3.300   1.894
 5290TIP3   OH215833   1.316   5.526   5.388
 5290TIP3    H115834   1.223   5.547   5.384
 5290TIP3    H215835   1.345   5.560   5.473
 5291TIP3   OH215836   1.008   3.009   0.199
 5291TIP3    H115837   0.957   3.087   0.178
 5291TIP3    H215838   1.099   3.039   0.200
 5292TIP3   OH215839   3.307   1.628   4.252
 5292TIP3    H115840   3.258   1.546   4.245
 5292TIP3    H215841   3.321   1.654   4.161
 5293TIP3   OH215842   6.254   3.497   5.240
 5293TIP3    H115843   6.222   3.531   5.324
 5293TIP3    H215844   6.176   3.498   5.184
 5294TIP3   OH215845   5.823   3.322   0.437
 5294TIP3    H115846   5.800   3.413   0.459
 5294TIP3    H215847   5.760   3.297   0.370
 5295TIP3   OH215848   4.742   5.535   3.020
 5295TIP3    H115849   4.766   5.480   3.095
 5295TIP3    H215850   4.717   5.472   2.952
 5296TIP3   OH215851   5.035   2.793   3.916
 5296TIP3    H115852   4.963   2.848   3.886
 5296TIP3    H215853   5.108   2.817   3.858
 5297TIP3   OH215854   2.750   1.607   3.421
 5297TIP3    H115855   2.731   1.670   3.490
 5297TIP3    H215856   2.728   1.651   3.340
 5298TIP3   OH215857   1.476   3.486   3.563
 5298TIP3    H115858   1.408   3.425   3.536
 5298TIP3    H215859   1.552   3.462   3.509
 5299TIP3   OH215860   5.183   5.195   0.388
 5299TIP3    H115861   5.178   5.290   0.398
 5299TIP3    H215862   5.104   5.171   0.340
 5300TIP3   OH215863   2.560   0.403   1.329
 5300TIP3    H115864   2.600   0.338   1.271
 5300TIP3    H215865   2.492   0.444   1.275
 5301TIP3   OH215866   6.260   4.361   4.114
 5301TIP3    H115867   6.342   4.384   4.069
 5301TIP3    H215868   6.195   4.356   4.044
 5302TIP3   OH215869   5.355   5.196   2.009
 5302TIP3    H115870   5.340   5.257   1.937
 5302TIP3    H215871   5.393   5.250   2.078
 5303TIP3   OH215872   1.508   5.162   4.084
 5303TIP3    H115873   1.524   5.241   4.137
 5303TIP3    H215874   1.422   5.130   4.113
 5304TIP3   OH215875   4.206   1.176   3.664
 5304TIP3    H115876   4.175   1.142   3.748
 5304TIP3    H215877   4.139   1.150   3.601
 5305TIP3   OH215878   6.403   5.909   1.313
 5305TIP3    H115879   6.408   5.819   1.281
 5305TIP3    H215880   6.460   5.958   1.254
 5306TIP3   OH215881   1.105  -0.041   5.556
 5306TIP3    H115882   1.182  -0.098   5.554
 5306TIP3    H215883   1.123   0.027   5.491
 5307TIP3   OH215884   6.388   3.523   3.996
 5307TIP3    H115885   6.397   3.435   4.034
 5307TIP3    H215886   6.479   3.554   3.986
 5308TIP3   OH215887   5.567   0.464   5.870
 5308TIP3    H115888   5.481   0.469   5.828
 5308TIP3    H215889   5.581   0.370   5.883
 5309TIP3   OH215890   6.721   5.961   0.444
 5309TIP3    H115891   6.781   5.990   0.376
 5309TIP3    H215892   6.742   5.868   0.456
 5310TIP3   OH215893   0.132   0.487   3.207
 5310TIP3    H115894   0.044   0.455   3.229
 5310TIP3    H215895   0.116   0.561   3.148
 5311TIP3   OH215896   6.719   5.591   5.122
 5311TIP3    H115897   6.642   5.542   5.151
 5311TIP3    H215898   6.708   5.678   5.161
 5312TIP3   OH215899   5.979   0.115   0.536
 5312TIP3    H115900   6.058   0.092   0.486
 5312TIP3    H215901   5.926   0.036   0.534
 5313TIP3   OH215902   0.942   1.621   1.104
 5313TIP3    H115903   1.008   1.604   1.172
 5313TIP3    H215904   0.898   1.537   1.091
 5314TIP3   OH215905   1.334   1.426   4.147
 5314TIP3    H115906   1.388   1.348   4.130
 5314TIP3    H215907   1.244   1.397   4.131
 5315TIP3   OH215908   0.747   5.534   4.478
 5315TIP3    H115909   0.729   5.476   4.552
 5315TIP3    H215910   0.676   5.517   4.416
 5316TIP3   OH215911   2.961   3.720   5.220
 5316TIP3    H115912   2.987   3.628   5.222
 5316TIP3    H215913   2.989   3.752   5.134
 5317TIP3   OH215914   3.612   4.946   4.745
 5317TIP3    H115915   3.604   4.852   4.760
 5317TIP3    H215916   3.683   4.954   4.681
 5318TIP3   OH215917   5.431   0.859   1.384
 5318TIP3    H115918   5.379   0.933   1.416
 5318TIP3    H215919   5.415   0.789   1.447
 5319TIP3   OH215920   2.519   1.342   3.666
 5319TIP3    H115921   2.509   1.344   3.571
 5319TIP3    H215922   2.445   1.394   3.699
 5320TIP3   OH215923   2.369   5.019   3.210
 5320TIP3    H115924   2.435   5.079   3.246
 5320TIP3    H215925   2.305   5.009   3.280
 5321TIP3   OH215926   1.326   1.326   1.007
 5321TIP3    H115927   1.326   1.282   1.091
 5321TIP3    H215928   1.405   1.380   1.008
 5322TIP3   OH215929   2.768   1.855   5.829
 5322TIP3    H115930   2.681   1.896   5.836
 5322TIP3    H215931   2.801   1.883   5.743
 5323TIP3   OH215932   5.162   0.339   4.703
 5323TIP3    H115933   5.251   0.374   4.697
 5323TIP3    H215934   5.153   0.311   4.794
 5324TIP3   OH215935   6.865   1.904   0.783
 5324TIP3    H115936   6.865   1.973   0.850
 5324TIP3    H215937   6.948   1.858   0.795
 5325TIP3   OH215938   6.591   2.100   3.280
 5325TIP3    H115939   6.634   2.176   3.320
 5325TIP3    H215940   6.553   2.133   3.199
 5326TIP3   OH215941   2.257   4.120   1.429
 5326TIP3    H115942   2.188   4.055   1.441
 5326TIP3    H215943   2.230   4.168   1.350
 5327TIP3   OH215944   5.052   6.500   4.615
 5327TIP3    H115945   4.972   6.550   4.631
 5327TIP3    H215946   5.054   6.485   4.520
 5328TIP3   OH215947   6.816   5.540   0.903
 5328TIP3    H115948   6.877   5.606   0.936
 5328TIP3    H215949   6.872   5.471   0.868
 5329TIP3   OH215950   3.931   0.270   3.629
 5329TIP3    H115951   3.954   0.201   3.567
 5329TIP3    H215952   3.903   0.343   3.574
 5330TIP3   OH215953   6.442   5.968   3.566
 5330TIP3    H115954   6.458   5.937   3.655
 5330TIP3    H215955   6.356   5.931   3.544
 5331TIP3   OH215956   4.247   3.315   2.997
 5331TIP3    H115957   4.211   3.289   3.082
 5331TIP3    H215958   4.326   3.364   3.018
 5332TIP3   OH215959   1.301   5.172   2.652
 5332TIP3    H115960   1.224   5.210   2.694
 5332TIP3    H215961   1.375   5.215   2.694
 5333TIP3   OH215962   4.905   0.913   4.970
 5333TIP3    H115963   4.969   0.945   5.034
 5333TIP3    H215964   4.956   0.861   4.908
 5334TIP3   OH215965   3.029   6.316   4.916
 5334TIP3    H115966   2.944   6.284   4.886
 5334TIP3    H215967   3.077   6.336   4.836
 5335TIP3   OH215968   6.452   3.204   5.656
 5335TIP3    H115969   6.467   3.129   5.599
 5335TIP3    H215970   6.402   3.266   5.602
 5336TIP3   OH215971   3.200   3.097   3.899
 5336TIP3    H115972   3.240   3.037   3.837
 5336TIP3    H215973   3.263   3.169   3.906
 5337TIP3   OH215974   5.448   2.880   3.286
 5337TIP3    H115975   5.484   2.946   3.226
 5337TIP3    H215976   5.521   2.857   3.343
 5338TIP3   OH215977   1.149   3.609   4.544
 5338TIP3    H115978   1.191   3.693   4.562
 5338TIP3    H215979   1.120   3.616   4.453
 5339TIP3   OH215980   1.009   6.560   3.030
 5339TIP3    H115981   1.099   6.592   3.039
 5339TIP3    H215982   0.961   6.633   2.991
 5340TIP3   OH215983   2.963   5.142   5.403
 5340TIP3    H115984   2.930   5.221   5.359
 5340TIP3    H215985   2.891   5.079   5.394
 5341TIP3   OH215986   3.490   1.651   0.594
 5341TIP3    H115987   3.434   1.600   0.652
 5341TIP3    H215988   3.485   1.740   0.630
 5342TIP3   OH215989   7.182   5.682   5.547
 5342TIP3    H115990   7.122   5.734   5.493
 5342TIP3    H215991   7.142   5.682   5.634
 5343TIP3   OH215992   5.818   2.134   2.118
 5343TIP3    H115993   5.746   2.153   2.059
 5343TIP3    H215994   5.839   2.042   2.102
 5344TIP3   OH215995   6.498   3.749   4.281
 5344TIP3    H115996   6.410   3.727   4.251
 5344TIP3    H215997   6.493   3.743   4.377
 5345TIP3   OH215998   3.143   0.286   4.239
 5345TIP3    H115999   3.228   0.241   4.243
 5345TIP3    H216000   3.136   0.314   4.148
 5346TIP3   OH216001   2.615   5.281   4.678
 5346TIP3    H116002   2.583   5.216   4.741
 5346TIP3    H216003   2.597   5.366   4.720
 5347TIP3   OH216004   1.940   4.996   3.166
 5347TIP3    H116005   2.014   4.967   3.220
 5347TIP3    H216006   1.886   5.047   3.226
 5348TIP3   OH216007   2.201   0.003   0.729
 5348TIP3    H116008   2.131  -0.053   0.761
 5348TIP3    H216009   2.161   0.089   0.718
 5349TIP3   OH216010   0.598   6.018   1.270
 5349TIP3    H116011   0.606   6.109   1.301
 5349TIP3    H216012   0.566   6.027   1.180
 5350TIP3   OH216013   0.042   4.945   2.305
 5350TIP3    H116014   0.054   4.852   2.327
 5350TIP3    H216015   0.103   4.961   2.233
 5351TIP3   OH216016   5.767   6.001   3.767
 5351TIP3    H116017   5.693   6.060   3.756
 5351TIP3    H216018   5.728   5.914   3.775
 5352TIP3   OH216019   5.090   6.765   4.718
 5352TIP3    H116020   4.995   6.773   4.704
 5352TIP3    H216021   5.111   6.677   4.688
 5353TIP3   OH216022   5.116   6.540   5.673
 5353TIP3    H116023   5.189   6.480   5.688
 5353TIP3    H216024   5.148   6.625   5.702
 5354TIP3   OH216025   1.147   1.123   2.851
 5354TIP3    H116026   1.171   1.196   2.794
 5354TIP3    H216027   1.167   1.154   2.939
 5355TIP3   OH216028   1.586   1.290   1.104
 5355TIP3    H116029   1.658   1.277   1.042
 5355TIP3    H216030   1.575   1.204   1.147
 5356TIP3   OH216031   3.023   6.254   1.514
 5356TIP3    H116032   2.997   6.169   1.550
 5356TIP3    H216033   2.942   6.304   1.508
 5357TIP3   OH216034   3.134   6.148   2.254
 5357TIP3    H116035   3.211   6.104   2.219
 5357TIP3    H216036   3.157   6.241   2.254
 5358TIP3   OH216037   0.284   4.004   1.291
 5358TIP3    H116038   0.200   4.001   1.337
 5358TIP3    H216039   0.282   3.927   1.233
 5359TIP3   OH216040   1.776   1.802   4.684
 5359TIP3    H116041   1.733   1.845   4.610
 5359TIP3    H216042   1.798   1.874   4.743
 5360TIP3   OH216043   1.725   5.043   1.475
 5360TIP3    H116044   1.783   5.060   1.401
 5360TIP3    H216045   1.643   5.014   1.434
 5361TIP3   OH216046   3.569   1.042   4.969
 5361TIP3    H116047   3.623   0.996   5.033
 5361TIP3    H216048   3.506   1.091   5.022
 5362TIP3   OH216049   4.653   6.817   3.933
 5362TIP3    H116050   4.724   6.754   3.924
 5362TIP3    H216051   4.616   6.801   4.020
 5363TIP3   OH216052   1.887   0.117   1.934
 5363TIP3    H116053   1.817   0.145   1.875
 5363TIP3    H216054   1.842   0.075   2.007
 5364TIP3   OH216055   6.603   0.063   4.135
 5364TIP3    H116056   6.574  -0.028   4.124
 5364TIP3    H216057   6.529   0.106   4.178
 5365TIP3   OH216058   4.067   4.728   4.593
 5365TIP3    H116059   3.999   4.771   4.644
 5365TIP3    H216060   4.106   4.799   4.541
 5366TIP3   OH216061   0.863   1.638   4.346
 5366TIP3    H116062   0.919   1.560   4.346
 5366TIP3    H216063   0.776   1.606   4.321
 5367TIP3   OH216064   5.408   3.601   5.616
 5367TIP3    H116065   5.414   3.536   5.686
 5367TIP3    H216066   5.492   3.594   5.570
 5368TIP3   OH216067   4.836   2.662   3.279
 5368TIP3    H116068   4.825   2.580   3.231
 5368TIP3    H216069   4.813   2.730   3.216
 5369TIP3   OH216070   2.547   5.827   3.353
 5369TIP3    H116071   2.616   5.884   3.320
 5369TIP3    H216072   2.544   5.754   3.291
 5370TIP3   OH216073   5.852   0.606   5.345
 5370TIP3    H116074   5.769   0.570   5.377
 5370TIP3    H216075   5.919   0.560   5.396
 5371TIP3   OH216076   1.202   6.680   5.161
 5371TIP3    H116077   1.289   6.670   5.200
 5371TIP3    H216078   1.210   6.643   5.073
 5372TIP3   OH216079   5.661   0.436   3.631
 5372TIP3    H116080   5.689   0.521   3.665
 5372TIP3    H216081   5.576   0.453   3.590
 5373TIP3   OH216082   4.857   1.608   1.916
 5373TIP3    H116083   4.807   1.529   1.934
 5373TIP3    H216084   4.862   1.652   2.001
 5374TIP3   OH216085   1.194   4.856   5.804
 5374TIP3    H116086   1.275   4.870   5.755
 5374TIP3    H216087   1.164   4.769   5.776
 5375TIP3   OH216088   6.852   5.360   1.836
 5375TIP3    H116089   6.776   5.332   1.785
 5375TIP3    H216090   6.900   5.418   1.777
 5376TIP3   OH216091   7.040   1.499   4.309
 5376TIP3    H116092   6.953   1.539   4.303
 5376TIP3    H216093   7.100   1.569   4.284
 5377TIP3   OH216094  -0.014   6.417   0.938
 5377TIP3    H116095   0.075   6.398   0.909
 5377TIP3    H216096  -0.024   6.511   0.924
 5378TIP3   OH216097   2.452   5.064   1.910
 5378TIP3    H116098   2.454   5.032   2.000
 5378TIP3    H216099   2.544   5.084   1.890
 5379TIP3   OH216100   5.578   2.877   4.363
 5379TIP3    H116101   5.557   2.784   4.365
 5379TIP3    H216102   5.587   2.898   4.270
 5380TIP3   OH216103   6.904   1.432   2.080
 5380TIP3    H116104   6.887   1.513   2.032
 5380TIP3    H216105   6.974   1.389   2.032
 5381TIP3   OH216106   0.347   2.255   4.894
 5381TIP3    H116107   0.309   2.222   4.975
 5381TIP3    H216108   0.272   2.277   4.839
 5382TIP3   OH216109   0.452   0.129   4.222
 5382TIP3    H116110   0.510   0.156   4.294
 5382TIP3    H216111   0.480   0.040   4.202
 5383TIP3   OH216112   1.411   2.554   4.122
 5383TIP3    H116113   1.319   2.525   4.117
 5383TIP3    H216114   1.457   2.495   4.062
 5384TIP3   OH216115   3.241   6.245   0.941
 5384TIP3    H116116   3.305   6.220   1.008
 5384TIP3    H216117   3.237   6.341   0.945
 5385TIP3   OH216118   3.779   4.979   1.155
 5385TIP3    H116119   3.814   4.952   1.070
 5385TIP3    H216120   3.716   4.911   1.178
 5386TIP3   OH216121   4.954   1.715   2.164
 5386TIP3    H116122   5.043   1.750   2.177
 5386TIP3    H216123   4.958   1.626   2.197
 5387TIP3   OH216124   5.385   3.652   4.683
 5387TIP3    H116125   5.436   3.589   4.734
 5387TIP3    H216126   5.294   3.625   4.697
 5388TIP3   OH216127   2.621   3.661   1.222
 5388TIP3    H116128   2.624   3.627   1.311
 5388TIP3    H216129   2.677   3.602   1.172
 5389TIP3   OH216130   1.272   1.441   0.476
 5389TIP3    H116131   1.271   1.371   0.541
 5389TIP3    H216132   1.328   1.509   0.514
 5390TIP3   OH216133   1.523   3.025   4.001
 5390TIP3    H116134   1.531   3.120   4.005
 5390TIP3    H216135   1.583   2.993   4.067
 5391TIP3   OH216136   0.198   0.947   3.758
 5391TIP3    H116137   0.108   0.968   3.783
 5391TIP3    H216138   0.252   0.999   3.817
 5392TIP3   OH216139   4.990   3.164   3.802
 5392TIP3    H116140   5.077   3.153   3.765
 5392TIP3    H216141   5.000   3.144   3.895
 5393TIP3   OH216142   2.346   3.047   2.859
 5393TIP3    H116143   2.425   3.012   2.901
 5393TIP3    H216144   2.327   3.127   2.909
 5394TIP3   OH216145   3.322   2.674   1.585
 5394TIP3    H116146   3.328   2.633   1.671
 5394TIP3    H216147   3.347   2.606   1.523
 5395TIP3   OH216148   1.340   5.944   0.668
 5395TIP3    H116149   1.259   5.972   0.711
 5395TIP3    H216150   1.370   6.021   0.621
 5396TIP3   OH216151   2.318   0.615   1.903
 5396TIP3    H116152   2.299   0.554   1.831
 5396TIP3    H216153   2.309   0.561   1.982
 5397TIP3   OH216154   5.400   2.657   0.733
 5397TIP3    H116155   5.345   2.614   0.798
 5397TIP3    H216156   5.342   2.667   0.656
 5398TIP3   OH216157   2.201   5.148   4.696
 5398TIP3    H116158   2.110   5.174   4.686
 5398TIP3    H216159   2.236   5.206   4.764
 5399TIP3   OH216160   6.615   0.259   2.635
 5399TIP3    H116161   6.606   0.241   2.728
 5399TIP3    H216162   6.609   0.354   2.628
 5400TIP3   OH216163   3.818   0.018   3.876
 5400TIP3    H116164   3.835  -0.006   3.785
 5400TIP3    H216165   3.726   0.043   3.878
 5401TIP3   OH216166   7.186   3.320   4.924
 5401TIP3    H116167   7.214   3.280   5.006
 5401TIP3    H216168   7.267   3.336   4.876
 5402TIP3   OH216169   5.398   2.413   0.251
 5402TIP3    H116170   5.462   2.446   0.314
 5402TIP3    H216171   5.448   2.353   0.196
 5403TIP3   OH216172   0.692   6.704   5.482
 5403TIP3    H116173   0.695   6.751   5.565
 5403TIP3    H216174   0.602   6.715   5.451
 5404TIP3   OH216175   1.864   2.144   0.596
 5404TIP3    H116176   1.798   2.212   0.597
 5404TIP3    H216177   1.898   2.144   0.506
 5405TIP3   OH216178   6.913   5.855   3.337
 5405TIP3    H116179   6.920   5.916   3.410
 5405TIP3    H216180   6.857   5.899   3.274
 5406TIP3   OH216181   5.227   4.677   0.817
 5406TIP3    H116182   5.193   4.766   0.823
 5406TIP3    H216183   5.321   4.686   0.833
 5407TIP3   OH216184   2.331   4.836   3.536
 5407TIP3    H116185   2.257   4.851   3.595
 5407TIP3    H216186   2.405   4.818   3.594
 5408TIP3   OH216187  -0.048   6.331   1.585
 5408TIP3    H116188  -0.046   6.426   1.595
 5408TIP3    H216189  -0.034   6.297   1.673
 5409TIP3   OH216190   4.854   5.152   2.334
 5409TIP3    H116191   4.882   5.145   2.425
 5409TIP3    H216192   4.898   5.079   2.290
 5410TIP3   OH216193   2.441   6.568   1.989
 5410TIP3    H116194   2.536   6.565   1.999
 5410TIP3    H216195   2.407   6.573   2.078
 5411TIP3   OH216196   1.311   0.525   3.403
 5411TIP3    H116197   1.343   0.499   3.489
 5411TIP3    H216198   1.279   0.444   3.363
 5412TIP3   OH216199   3.189   2.837   4.266
 5412TIP3    H116200   3.194   2.791   4.350
 5412TIP3    H216201   3.266   2.894   4.266
 5413TIP3   OH216202   0.129   6.063   5.233
 5413TIP3    H116203   0.123   5.974   5.269
 5413TIP3    H216204   0.189   6.055   5.159
 5414TIP3   OH216205   0.498   0.273   3.468
 5414TIP3    H116206   0.568   0.326   3.506
 5414TIP3    H216207   0.435   0.336   3.435
 5415TIP3   OH216208   5.278   6.164   5.001
 5415TIP3    H116209   5.206   6.216   5.037
 5415TIP3    H216210   5.349   6.227   4.990
 5416TIP3   OH216211   1.644   3.827   1.161
 5416TIP3    H116212   1.728   3.794   1.132
 5416TIP3    H216213   1.591   3.748   1.175
 5417TIP3   OH216214   0.860   0.621   1.726
 5417TIP3    H116215   0.819   0.616   1.813
 5417TIP3    H216216   0.953   0.610   1.742
 5418TIP3   OH216217   2.699   5.084   1.257
 5418TIP3    H116218   2.791   5.065   1.238
 5418TIP3    H216219   2.692   5.074   1.352
 5419TIP3   OH216220   1.237   5.381   3.982
 5419TIP3    H116221   1.329   5.405   3.986
 5419TIP3    H216222   1.234   5.308   3.919
 5420TIP3   OH216223   6.873   2.108   4.244
 5420TIP3    H116224   6.966   2.090   4.258
 5420TIP3    H216225   6.828   2.029   4.275
 5421TIP3   OH216226   1.573   5.233   1.618
 5421TIP3    H116227   1.605   5.145   1.633
 5421TIP3    H216228   1.652   5.287   1.613
 5422TIP3   OH216229   7.098   2.738   3.140
 5422TIP3    H116230   7.128   2.757   3.229
 5422TIP3    H216231   7.056   2.819   3.112
 5423TIP3   OH216232   3.237   5.899   3.948
 5423TIP3    H116233   3.295   5.968   3.917
 5423TIP3    H216234   3.151   5.939   3.952
 5424TIP3   OH216235   2.326   1.319   1.915
 5424TIP3    H116236   2.334   1.269   1.996
 5424TIP3    H216237   2.239   1.360   1.920
 5425TIP3   OH216238   4.135   3.777   1.974
 5425TIP3    H116239   4.217   3.794   2.019
 5425TIP3    H216240   4.070   3.772   2.043
 5426TIP3   OH216241   0.484   1.585   1.329
 5426TIP3    H116242   0.534   1.666   1.331
 5426TIP3    H216243   0.474   1.560   1.421
 5427TIP3   OH216244   2.751   2.494   2.456
 5427TIP3    H116245   2.682   2.438   2.490
 5427TIP3    H216246   2.830   2.466   2.502
 5428TIP3   OH216247   2.345   1.616   3.945
 5428TIP3    H116248   2.378   1.571   4.022
 5428TIP3    H216249   2.410   1.684   3.927
 5429TIP3   OH216250   4.982   1.508   2.750
 5429TIP3    H116251   5.010   1.436   2.693
 5429TIP3    H216252   4.936   1.465   2.822
 5430TIP3   OH216253   2.552   0.047   5.033
 5430TIP3    H116254   2.487  -0.022   5.042
 5430TIP3    H216255   2.501   0.126   5.018
 5431TIP3   OH216256   5.897   3.689   0.252
 5431TIP3    H116257   5.903   3.781   0.225
 5431TIP3    H216258   5.981   3.671   0.293
 5432TIP3   OH216259   2.888   2.856   4.299
 5432TIP3    H116260   2.889   2.806   4.381
 5432TIP3    H216261   2.965   2.825   4.251
 5433TIP3   OH216262   6.137   4.276   1.976
 5433TIP3    H116263   6.131   4.196   1.925
 5433TIP3    H216264   6.230   4.301   1.970
 5434TIP3   OH216265   5.779   3.690   3.209
 5434TIP3    H116266   5.719   3.622   3.179
 5434TIP3    H216267   5.789   3.749   3.134
 5435TIP3   OH216268   5.647   5.965   4.132
 5435TIP3    H116269   5.603   5.952   4.216
 5435TIP3    H216270   5.627   5.885   4.083
 5436TIP3   OH216271   0.308   1.695   0.780
 5436TIP3    H116272   0.342   1.609   0.807
 5436TIP3    H216273   0.381   1.735   0.732
 5437TIP3   OH216274   0.315   0.688   3.804
 5437TIP3    H116275   0.256   0.762   3.812
 5437TIP3    H216276   0.398   0.718   3.842
 5438TIP3   OH216277   1.656   4.836   0.610
 5438TIP3    H116278   1.642   4.741   0.604
 5438TIP3    H216279   1.571   4.871   0.635
 5439TIP3   OH216280   1.987   3.568   3.524
 5439TIP3    H116281   2.069   3.519   3.523
 5439TIP3    H216282   1.981   3.606   3.436
 5440TIP3   OH216283   5.108   1.356   2.074
 5440TIP3    H116284   5.058   1.312   2.005
 5440TIP3    H216285   5.042   1.379   2.139
 5441TIP3   OH216286   6.132   6.247   1.212
 5441TIP3    H116287   6.158   6.283   1.128
 5441TIP3    H216288   6.203   6.269   1.272
 5442TIP3   OH216289   0.273   2.842   2.611
 5442TIP3    H116290   0.361   2.808   2.621
 5442TIP3    H216291   0.234   2.788   2.543
 5443TIP3   OH216292   2.128   0.242   4.976
 5443TIP3    H116293   2.131   0.220   4.883
 5443TIP3    H216294   2.161   0.164   5.020
 5444TIP3   OH216295   5.382   1.632   3.455
 5444TIP3    H116296   5.309   1.574   3.478
 5444TIP3    H216297   5.448   1.575   3.417
 5445TIP3   OH216298   2.620   5.079   1.542
 5445TIP3    H116299   2.706   5.110   1.568
 5445TIP3    H216300   2.607   4.998   1.592
 5446TIP3   OH216301   4.374   6.830   1.521
 5446TIP3    H116302   4.323   6.749   1.511
 5446TIP3    H216303   4.436   6.811   1.591
 5447TIP3   OH216304   3.768   5.127   3.652
 5447TIP3    H116305   3.771   5.059   3.719
 5447TIP3    H216306   3.679   5.161   3.656
 5448TIP3   OH216307   5.942   3.486   4.435
 5448TIP3    H116308   6.036   3.487   4.418
 5448TIP3    H216309   5.904   3.540   4.366
 5449TIP3   OH216310   2.597   0.083   0.406
 5449TIP3    H116311   2.523   0.025   0.418
 5449TIP3    H216312   2.637   0.057   0.323
 5450TIP3   OH216313   0.621   1.678   5.063
 5450TIP3    H116314   0.530   1.651   5.051
 5450TIP3    H216315   0.624   1.769   5.034
 5451TIP3   OH216316   4.431   4.084   1.424
 5451TIP3    H116317   4.445   4.159   1.366
 5451TIP3    H216318   4.368   4.115   1.488
 5452TIP3   OH216319   3.003   6.627   1.902
 5452TIP3    H116320   2.948   6.704   1.920
 5452TIP3    H216321   2.950   6.574   1.842
 5453TIP3   OH216322   0.558   5.765   1.364
 5453TIP3    H116323   0.577   5.853   1.332
 5453TIP3    H216324   0.525   5.779   1.453
 5454TIP3   OH216325   3.244   5.575   0.776
 5454TIP3    H116326   3.149   5.566   0.770
 5454TIP3    H216327   3.271   5.602   0.688
 5455TIP3   OH216328   2.561   5.660   3.119
 5455TIP3    H116329   2.494   5.698   3.061
 5455TIP3    H216330   2.542   5.566   3.118
 5456TIP3   OH216331   3.819   0.526   3.940
 5456TIP3    H116332   3.752   0.486   3.885
 5456TIP3    H216333   3.890   0.462   3.944
 5457TIP3   OH216334   4.085   5.427   4.045
 5457TIP3    H116335   4.061   5.335   4.031
 5457TIP3    H216336   4.150   5.445   3.976
 5458TIP3   OH216337   6.911   4.389   3.907
 5458TIP3    H116338   6.829   4.435   3.927
 5458TIP3    H216339   6.910   4.313   3.966
 5459TIP3   OH216340   4.202   6.693   3.689
 5459TIP3    H116341   4.218   6.731   3.603
 5459TIP3    H216342   4.281   6.715   3.739
 5460TIP3   OH216343   3.335   5.458   5.838
 5460TIP3    H116344   3.323   5.519   5.911
 5460TIP3    H216345   3.339   5.513   5.760
 5461TIP3   OH216346   5.248   3.342   0.551
 5461TIP3    H116347   5.171   3.370   0.501
 5461TIP3    H216348   5.307   3.305   0.485
 5462TIP3   OH216349   2.003   3.705   3.296
 5462TIP3    H116350   1.942   3.698   3.222
 5462TIP3    H216351   2.016   3.799   3.307
 5463TIP3   OH216352   0.688   0.965   5.461
 5463TIP3    H116353   0.752   0.911   5.415
 5463TIP3    H216354   0.701   1.053   5.426
 5464TIP3   OH216355   5.351   2.884   5.126
 5464TIP3    H116356   5.257   2.873   5.113
 5464TIP3    H216357   5.387   2.900   5.039
 5465TIP3   OH216358   1.849   1.778   5.009
 5465TIP3    H116359   1.833   1.708   5.073
 5465TIP3    H216360   1.762   1.806   4.982
 5466TIP3   OH216361   6.734   2.938   5.134
 5466TIP3    H116362   6.714   2.907   5.223
 5466TIP3    H216363   6.806   3.000   5.145
 5467TIP3   OH216364   1.220   6.062   2.478
 5467TIP3    H116365   1.125   6.053   2.469
 5467TIP3    H216366   1.246   5.987   2.532
 5468TIP3   OH216367   3.263   5.493   2.616
 5468TIP3    H116368   3.289   5.408   2.650
 5468TIP3    H216369   3.176   5.509   2.652
 5469TIP3   OH216370   3.321   0.816   5.040
 5469TIP3    H116371   3.407   0.805   5.081
 5469TIP3    H216372   3.277   0.881   5.094
 5470TIP3   OH216373   4.118   1.763   4.685
 5470TIP3    H116374   4.109   1.816   4.765
 5470TIP3    H216375   4.090   1.675   4.711
 5471TIP3   OH216376   1.967   5.668   2.634
 5471TIP3    H116377   1.975   5.715   2.717
 5471TIP3    H216378   1.874   5.645   2.629
 5472TIP3   OH216379   4.188   1.236   2.812
 5472TIP3    H116380   4.274   1.194   2.816
 5472TIP3    H216381   4.156   1.235   2.902
 5473TIP3   OH216382   0.339   4.078   2.186
 5473TIP3    H116383   0.383   3.993   2.181
 5473TIP3    H216384   0.407   4.138   2.215
 5474TIP3   OH216385   2.719   0.428   0.975
 5474TIP3    H116386   2.691   0.517   0.993
 5474TIP3    H216387   2.683   0.408   0.889
 5475TIP3   OH216388   2.907   2.088   2.684
 5475TIP3    H116389   2.846   2.146   2.638
 5475TIP3    H216390   2.864   2.003   2.684
 5476TIP3   OH216391   4.590   5.169   5.323
 5476TIP3    H116392   4.619   5.111   5.253
 5476TIP3    H216393   4.559   5.110   5.392
 5477TIP3   OH216394   2.559   3.826   4.590
 5477TIP3    H116395   2.596   3.842   4.677
 5477TIP3    H216396   2.489   3.890   4.580
 5478TIP3   OH216397   5.827   0.999   4.618
 5478TIP3    H116398   5.741   1.034   4.640
 5478TIP3    H216399   5.864   0.972   4.702
 5479TIP3   OH216400   3.454   0.353   0.169
 5479TIP3    H116401   3.470   0.409   0.245
 5479TIP3    H216402   3.531   0.297   0.164
 5480TIP3   OH216403   6.449   4.669   3.821
 5480TIP3    H116404   6.526   4.704   3.867
 5480TIP3    H216405   6.441   4.579   3.851
 5481TIP3   OH216406   6.017   2.025   0.924
 5481TIP3    H116407   6.012   2.120   0.910
 5481TIP3    H216408   6.111   2.008   0.932
 5482TIP3   OH216409   2.870   5.717   4.723
 5482TIP3    H116410   2.804   5.744   4.786
 5482TIP3    H216411   2.825   5.657   4.664
 5483TIP3   OH216412   2.692   3.839   4.835
 5483TIP3    H116413   2.666   3.753   4.869
 5483TIP3    H216414   2.777   3.825   4.795
 5484TIP3   OH216415   6.151   3.508   3.584
 5484TIP3    H116416   6.171   3.424   3.625
 5484TIP3    H216417   6.224   3.565   3.610
 5485TIP3   OH216418   1.892   5.983   1.102
 5485TIP3    H116419   1.897   5.999   1.008
 5485TIP3    H216420   1.801   5.958   1.117
 5486TIP3   OH216421   4.479   5.879   5.115
 5486TIP3    H116422   4.412   5.940   5.085
 5486TIP3    H216423   4.431   5.799   5.136
 5487TIP3   OH216424   7.063   2.166   4.696
 5487TIP3    H116425   7.060   2.259   4.717
 5487TIP3    H216426   7.157   2.144   4.699
 5488TIP3   OH216427   6.484   0.780   0.346
 5488TIP3    H116428   6.459   0.828   0.266
 5488TIP3    H216429   6.466   0.842   0.417
 5489TIP3   OH216430   6.247   5.742   5.784
 5489TIP3    H116431   6.260   5.793   5.864
 5489TIP3    H216432   6.201   5.801   5.724
 5490TIP3   OH216433   2.962   3.385   4.403
 5490TIP3    H116434   3.043   3.346   4.370
 5490TIP3    H216435   2.899   3.376   4.331
 5491TIP3   OH216436   1.394   5.619   3.687
 5491TIP3    H116437   1.413   5.704   3.727
 5491TIP3    H216438   1.470   5.603   3.630
 5492TIP3   OH216439   6.072   5.530   4.061
 5492TIP3    H116440   6.136   5.468   4.025
 5492TIP3    H216441   6.060   5.595   3.991
 5493TIP3   OH216442   5.461   2.691   2.255
 5493TIP3    H116443   5.438   2.784   2.257
 5493TIP3    H216444   5.520   2.679   2.329
 5494TIP3   OH216445   5.973   2.908   0.107
 5494TIP3    H116446   5.983   3.003   0.102
 5494TIP3    H216447   6.004   2.885   0.194
 5495TIP3   OH216448   4.062   0.091   5.860
 5495TIP3    H116449   4.061   0.074   5.955
 5495TIP3    H216450   3.993   0.036   5.825
 5496TIP3   OH216451   4.263   0.392   0.161
 5496TIP3    H116452   4.234   0.412   0.072
 5496TIP3    H216453   4.278   0.477   0.202
 5497TIP3   OH216454   4.594   6.190   1.132
 5497TIP3    H116455   4.614   6.284   1.137
 5497TIP3    H216456   4.572   6.166   1.222
 5498TIP3   OH216457   5.848   0.583   4.419
 5498TIP3    H116458   5.820   0.507   4.469
 5498TIP3    H216459   5.811   0.570   4.332
 5499TIP3   OH216460   0.334   6.410   1.381
 5499TIP3    H116461   0.273   6.403   1.455
 5499TIP3    H216462   0.373   6.497   1.391
 5500TIP3   OH216463   4.502   5.299   0.772
 5500TIP3    H116464   4.452   5.220   0.792
 5500TIP3    H216465   4.465   5.366   0.829
 5501TIP3   OH216466   1.239   0.760   1.467
 5501TIP3    H116467   1.249   0.802   1.553
 5501TIP3    H216468   1.228   0.667   1.488
 5502TIP3   OH216469   5.585   0.711   4.875
 5502TIP3    H116470   5.627   0.795   4.894
 5502TIP3    H216471   5.500   0.716   4.919
 5503TIP3   OH216472   3.558   0.482   2.152
 5503TIP3    H116473   3.503   0.423   2.202
 5503TIP3    H216474   3.496   0.532   2.098
 5504TIP3   OH216475   4.254   3.422   2.735
 5504TIP3    H116476   4.264   3.383   2.822
 5504TIP3    H216477   4.223   3.350   2.680
 5505TIP3   OH216478   4.733   6.304   4.408
 5505TIP3    H116479   4.701   6.389   4.436
 5505TIP3    H216480   4.737   6.252   4.488
 5506TIP3   OH216481   1.182   5.065   3.150
 5506TIP3    H116482   1.238   5.009   3.095
 5506TIP3    H216483   1.175   5.017   3.232
 5507TIP3   OH216484   6.912   3.799   3.456
 5507TIP3    H116485   6.870   3.832   3.377
 5507TIP3    H216486   6.984   3.861   3.472
 5508TIP3   OH216487   0.837   4.250   3.754
 5508TIP3    H116488   0.766   4.188   3.749
 5508TIP3    H216489   0.823   4.310   3.680
 5509TIP3   OH216490   7.201   0.460   2.275
 5509TIP3    H116491   7.178   0.546   2.241
 5509TIP3    H216492   7.295   0.465   2.292
 5510TIP3   OH216493   7.189   3.458   1.297
 5510TIP3    H116494   7.192   3.362   1.296
 5510TIP3    H216495   7.164   3.481   1.386
 5511TIP3   OH216496   0.295   5.940   1.208
 5511TIP3    H116497   0.333   5.991   1.136
 5511TIP3    H216498   0.202   5.960   1.205
 5512TIP3   OH216499   7.212   3.504   4.280
 5512TIP3    H116500   7.156   3.462   4.346
 5512TIP3    H216501   7.157   3.572   4.242
 5513TIP3   OH216502   3.457   5.297   0.794
 5513TIP3    H116503   3.492   5.326   0.878
 5513TIP3    H216504   3.475   5.203   0.792
 5514TIP3   OH216505   6.309   2.616   3.754
 5514TIP3    H116506   6.329   2.661   3.672
 5514TIP3    H216507   6.220   2.583   3.741
 5515TIP3   OH216508   4.160   3.332   2.372
 5515TIP3    H116509   4.184   3.277   2.446
 5515TIP3    H216510   4.092   3.390   2.406
 5516TIP3   OH216511   6.338   0.812   4.209
 5516TIP3    H116512   6.328   0.869   4.134
 5516TIP3    H216513   6.250   0.780   4.228
 5517TIP3   OH216514   7.109   3.447   1.555
 5517TIP3    H116515   7.176   3.496   1.602
 5517TIP3    H216516   7.090   3.372   1.610
 5518TIP3   OH216517   4.519   2.638   2.337
 5518TIP3    H116518   4.595   2.649   2.280
 5518TIP3    H216519   4.496   2.728   2.363
 5519TIP3   OH216520   0.367   2.832   0.687
 5519TIP3    H116521   0.335   2.803   0.601
 5519TIP3    H216522   0.460   2.847   0.673
 5520TIP3   OH216523   1.440   0.789   2.880
 5520TIP3    H116524   1.357   0.791   2.833
 5520TIP3    H216525   1.424   0.840   2.959
 5521TIP3   OH216526   1.245   4.905   2.206
 5521TIP3    H116527   1.156   4.884   2.179
 5521TIP3    H216528   1.242   4.908   2.301
 5522TIP3   OH216529   3.876   0.977   5.780
 5522TIP3    H116530   3.882   1.047   5.845
 5522TIP3    H216531   3.791   0.990   5.738
 5523TIP3   OH216532   6.803   6.262   4.758
 5523TIP3    H116533   6.873   6.284   4.819
 5523TIP3    H216534   6.845   6.210   4.690
 5524TIP3   OH216535   0.455   2.447   5.132
 5524TIP3    H116536   0.422   2.447   5.042
 5524TIP3    H216537   0.400   2.384   5.179
 5525TIP3   OH216538   0.071   5.515   0.897
 5525TIP3    H116539   0.080   5.606   0.926
 5525TIP3    H216540   0.116   5.513   0.813
 5526TIP3   OH216541   6.817   0.507   0.886
 5526TIP3    H116542   6.826   0.546   0.973
 5526TIP3    H216543   6.796   0.415   0.902
 5527TIP3   OH216544   5.058   1.546   5.135
 5527TIP3    H116545   5.144   1.518   5.103
 5527TIP3    H216546   5.003   1.546   5.056
 5528TIP3   OH216547   0.579   0.649   5.274
 5528TIP3    H116548   0.586   0.587   5.200
 5528TIP3    H216549   0.669   0.677   5.290
 5529TIP3   OH216550   3.747   5.484   5.254
 5529TIP3    H116551   3.770   5.553   5.192
 5529TIP3    H216552   3.786   5.512   5.337
 5530TIP3   OH216553   3.414   1.888   3.692
 5530TIP3    H116554   3.460   1.928   3.765
 5530TIP3    H216555   3.388   1.961   3.637
 5531TIP3   OH216556   2.793   6.055   3.553
 5531TIP3    H116557   2.725   6.120   3.569
 5531TIP3    H216558   2.784   6.033   3.460
 5532TIP3   OH216559   0.086   2.531   0.884
 5532TIP3    H116560   0.105   2.437   0.883
 5532TIP3    H216561   0.157   2.569   0.935
 5533TIP3   OH216562   3.701   3.287   3.125
 5533TIP3    H116563   3.791   3.256   3.110
 5533TIP3    H216564   3.705   3.334   3.208
 5534TIP3   OH216565   1.538   4.173   3.393
 5534TIP3    H116566   1.495   4.208   3.471
 5534TIP3    H216567   1.506   4.083   3.386
 5535TIP3   OH216568   5.868   1.877   2.015
 5535TIP3    H116569   5.809   1.864   1.941
 5535TIP3    H216570   5.951   1.838   1.986
 5536TIP3   OH216571   1.779   1.935   5.320
 5536TIP3    H116572   1.837   1.863   5.297
 5536TIP3    H216573   1.815   1.969   5.403
 5537TIP3   OH216574   4.252   3.609   2.235
 5537TIP3    H116575   4.315   3.661   2.285
 5537TIP3    H216576   4.170   3.658   2.242
 5538TIP3   OH216577   3.641   5.643   3.818
 5538TIP3    H116578   3.701   5.681   3.753
 5538TIP3    H216579   3.570   5.606   3.766
 5539TIP3   OH216580   2.638   6.447   3.791
 5539TIP3    H116581   2.716   6.465   3.844
 5539TIP3    H216582   2.569   6.428   3.855
 5540TIP3   OH216583   0.293   4.904   2.582
 5540TIP3    H116584   0.342   4.840   2.633
 5540TIP3    H216585   0.308   4.879   2.491
 5541TIP3   OH216586   5.660   4.236   2.377
 5541TIP3    H116587   5.703   4.151   2.369
 5541TIP3    H216588   5.626   4.254   2.289
 5542TIP3   OH216589   6.003   4.290   2.989
 5542TIP3    H116590   6.044   4.206   3.009
 5542TIP3    H216591   5.934   4.299   3.055
 5543TIP3   OH216592   5.565   2.131   0.430
 5543TIP3    H116593   5.592   2.049   0.471
 5543TIP3    H216594   5.646   2.179   0.415
 5544TIP3   OH216595   6.018   6.571   0.275
 5544TIP3    H116596   6.040   6.643   0.334
 5544TIP3    H216597   6.102   6.548   0.233
 5545TIP3   OH216598   5.933   5.409   4.717
 5545TIP3    H116599   5.911   5.373   4.631
 5545TIP3    H216600   6.001   5.474   4.700
 5546TIP3   OH216601   0.709   5.595   2.816
 5546TIP3    H116602   0.625   5.634   2.839
 5546TIP3    H216603   0.706   5.585   2.721
 5547TIP3   OH216604   2.100   4.491   1.664
 5547TIP3    H116605   2.012   4.474   1.698
 5547TIP3    H216606   2.095   4.579   1.626
 5548TIP3   OH216607   3.704   4.692   0.785
 5548TIP3    H116608   3.751   4.712   0.704
 5548TIP3    H216609   3.724   4.600   0.802
 5549TIP3   OH216610   2.670   4.278   0.224
 5549TIP3    H116611   2.695   4.364   0.259
 5549TIP3    H216612   2.718   4.270   0.142
 5550TIP3   OH216613   6.864   2.093   5.322
 5550TIP3    H116614   6.952   2.102   5.286
 5550TIP3    H216615   6.839   2.182   5.346
 5551TIP3   OH216616   2.445   2.292   4.140
 5551TIP3    H116617   2.360   2.337   4.144
 5551TIP3    H216618   2.491   2.321   4.219
 5552TIP3   OH216619   6.036   4.845   2.311
 5552TIP3    H116620   6.006   4.811   2.396
 5552TIP3    H216621   6.118   4.798   2.294
 5553TIP3   OH216622   5.845   0.635   2.216
 5553TIP3    H116623   5.752   0.629   2.237
 5553TIP3    H216624   5.890   0.598   2.292
 5554TIP3   OH216625   1.628   4.585   5.494
 5554TIP3    H116626   1.665   4.672   5.480
 5554TIP3    H216627   1.669   4.554   5.575
 5555TIP3   OH216628   5.400   6.766   5.203
 5555TIP3    H116629   5.433   6.690   5.156
 5555TIP3    H216630   5.465   6.835   5.187
 5556TIP3   OH216631   1.402   0.888   3.137
 5556TIP3    H116632   1.473   0.952   3.131
 5556TIP3    H216633   1.325   0.940   3.160
 5557TIP3   OH216634   0.004   2.549   0.631
 5557TIP3    H116635   0.081   2.498   0.604
 5557TIP3    H216636   0.028   2.584   0.717
 5558TIP3   OH216637   1.776   2.637   3.846
 5558TIP3    H116638   1.829   2.715   3.829
 5558TIP3    H216639   1.823   2.565   3.805
 5559TIP3   OH216640   1.648   2.813   5.599
 5559TIP3    H116641   1.620   2.884   5.542
 5559TIP3    H216642   1.682   2.746   5.539
 5560TIP3   OH216643   4.916   2.020   1.775
 5560TIP3    H116644   4.839   2.008   1.830
 5560TIP3    H216645   4.990   2.005   1.834
 5561TIP3   OH216646   4.213   3.960   5.396
 5561TIP3    H116647   4.201   3.951   5.491
 5561TIP3    H216648   4.264   3.883   5.371
 5562TIP3   OH216649   3.389   3.174   4.511
 5562TIP3    H116650   3.297   3.199   4.510
 5562TIP3    H216651   3.434   3.250   4.474
 5563TIP3   OH216652   4.611   2.736   3.041
 5563TIP3    H116653   4.549   2.723   3.113
 5563TIP3    H216654   4.639   2.647   3.018
 5564TIP3   OH216655   4.999   3.490   0.081
 5564TIP3    H116656   4.919   3.541   0.088
 5564TIP3    H216657   4.970   3.399   0.079
 5565TIP3   OH216658   1.354   5.263   1.797
 5565TIP3    H116659   1.413   5.255   1.722
 5565TIP3    H216660   1.374   5.188   1.852
 5566TIP3   OH216661   6.134   0.501   4.843
 5566TIP3    H116662   6.181   0.444   4.904
 5566TIP3    H216663   6.054   0.525   4.890
 5567TIP3   OH216664   6.798   2.698   3.238
 5567TIP3    H116665   6.829   2.772   3.187
 5567TIP3    H216666   6.707   2.720   3.259
 5568TIP3   OH216667   0.948   6.251   5.870
 5568TIP3    H116668   0.888   6.293   5.931
 5568TIP3    H216669   1.035   6.263   5.909
 5569TIP3   OH216670   2.289   0.400   3.121
 5569TIP3    H116671   2.351   0.336   3.086
 5569TIP3    H216672   2.205   0.375   3.083
 5570TIP3   OH216673   1.853   1.091   5.118
 5570TIP3    H116674   1.780   1.054   5.168
 5570TIP3    H216675   1.930   1.045   5.150
 5571TIP3   OH216676   4.085   2.893   0.585
 5571TIP3    H116677   4.018   2.953   0.552
 5571TIP3    H216678   4.099   2.831   0.514
 5572TIP3   OH216679   0.552   3.536   2.172
 5572TIP3    H116680   0.618   3.574   2.114
 5572TIP3    H216681   0.562   3.585   2.254
 5573TIP3   OH216682   4.262   6.122   0.305
 5573TIP3    H116683   4.301   6.106   0.219
 5573TIP3    H216684   4.238   6.036   0.337
 5574TIP3   OH216685   1.208   0.720   0.129
 5574TIP3    H116686   1.226   0.778   0.203
 5574TIP3    H216687   1.255   0.760   0.056
 5575TIP3   OH216688   1.891   5.936   3.155
 5575TIP3    H116689   1.797   5.952   3.160
 5575TIP3    H216690   1.900   5.863   3.093
 5576TIP3   OH216691   5.297   5.838   0.882
 5576TIP3    H116692   5.278   5.745   0.894
 5576TIP3    H216693   5.281   5.854   0.789
 5577TIP3   OH216694   4.323   5.472   1.301
 5577TIP3    H116695   4.305   5.527   1.224
 5577TIP3    H216696   4.270   5.510   1.370
 5578TIP3   OH216697   4.141   2.825   2.104
 5578TIP3    H116698   4.081   2.892   2.134
 5578TIP3    H216699   4.211   2.873   2.060
 5579TIP3   OH216700   3.035   3.317   2.162
 5579TIP3    H116701   2.964   3.276   2.114
 5579TIP3    H216702   3.114   3.275   2.129
 5580TIP3   OH216703   2.820   1.538   1.317
 5580TIP3    H116704   2.882   1.581   1.258
 5580TIP3    H216705   2.740   1.527   1.265
 5581TIP3   OH216706   0.564   5.657   0.205
 5581TIP3    H116707   0.547   5.567   0.234
 5581TIP3    H216708   0.657   5.657   0.184
 5582TIP3   OH216709   0.134   3.649   0.359
 5582TIP3    H116710   0.199   3.699   0.409
 5582TIP3    H216711   0.051   3.693   0.378
 5583TIP3   OH216712   2.910   4.483   5.127
 5583TIP3    H116713   2.943   4.423   5.194
 5583TIP3    H216714   2.852   4.430   5.072
 5584TIP3   OH216715   1.805   0.233   2.772
 5584TIP3    H116716   1.825   0.216   2.680
 5584TIP3    H216717   1.841   0.319   2.790
 5585TIP3   OH216718   4.852   3.681   3.416
 5585TIP3    H116719   4.790   3.753   3.424
 5585TIP3    H216720   4.842   3.632   3.497
 5586TIP3   OH216721   0.476   2.139   3.102
 5586TIP3    H116722   0.391   2.175   3.127
 5586TIP3    H216723   0.485   2.060   3.155
 5587TIP3   OH216724   3.553   2.316   2.811
 5587TIP3    H116725   3.506   2.256   2.869
 5587TIP3    H216726   3.502   2.397   2.815
 5588TIP3   OH216727   2.218   1.543   0.988
 5588TIP3    H116728   2.174   1.465   0.953
 5588TIP3    H216729   2.159   1.575   1.056
 5589TIP3   OH216730   2.938   5.331   1.080
 5589TIP3    H116731   2.903   5.243   1.062
 5589TIP3    H216732   3.022   5.333   1.034
 5590TIP3   OH216733   5.095   1.202   0.834
 5590TIP3    H116734   5.079   1.144   0.760
 5590TIP3    H216735   5.184   1.180   0.863
 5591TIP3   OH216736   2.737   5.160   1.896
 5591TIP3    H116737   2.817   5.132   1.852
 5591TIP3    H216738   2.766   5.213   1.970
 5592TIP3   OH216739   2.760   1.564   3.740
 5592TIP3    H116740   2.725   1.517   3.664
 5592TIP3    H216741   2.739   1.656   3.724
 5593TIP3   OH216742   6.892   1.069   4.468
 5593TIP3    H116743   6.859   1.059   4.557
 5593TIP3    H216744   6.981   1.035   4.471
 5594TIP3   OH216745   6.358   5.751   4.628
 5594TIP3    H116746   6.410   5.807   4.570
 5594TIP3    H216747   6.320   5.810   4.692
 5595TIP3   OH216748   1.285   6.298   1.936
 5595TIP3    H116749   1.361   6.318   1.991
 5595TIP3    H216750   1.301   6.346   1.855
 5596TIP3   OH216751   0.256   5.428   4.874
 5596TIP3    H116752   0.337   5.467   4.907
 5596TIP3    H216753   0.208   5.502   4.836
 5597TIP3   OH216754   2.635   4.180   1.341
 5597TIP3    H116755   2.721   4.140   1.355
 5597TIP3    H216756   2.578   4.106   1.322
 5598TIP3   OH216757   1.059   5.925   2.843
 5598TIP3    H116758   1.115   5.975   2.902
 5598TIP3    H216759   1.109   5.846   2.823
 5599TIP3   OH216760   4.830   3.416   2.391
 5599TIP3    H116761   4.911   3.465   2.410
 5599TIP3    H216762   4.771   3.481   2.353
 5600TIP3   OH216763   7.066   0.008   4.426
 5600TIP3    H116764   7.012   0.014   4.505
 5600TIP3    H216765   7.004  -0.012   4.356
 5601TIP3   OH216766   0.666   2.276   2.416
 5601TIP3    H116767   0.738   2.220   2.388
 5601TIP3    H216768   0.705   2.363   2.423
 5602TIP3   OH216769   3.948   5.275   4.996
 5602TIP3    H116770   3.941   5.306   5.086
 5602TIP3    H216771   3.859   5.250   4.971
 5603TIP3   OH216772   0.418   3.031   3.177
 5603TIP3    H116773   0.383   2.965   3.236
 5603TIP3    H216774   0.495   3.066   3.222
 5604TIP3   OH216775   5.351   5.033   3.484
 5604TIP3    H116776   5.311   5.092   3.548
 5604TIP3    H216777   5.437   5.013   3.520
 5605TIP3   OH216778   6.384   1.743   4.275
 5605TIP3    H116779   6.319   1.755   4.345
 5605TIP3    H216780   6.342   1.781   4.197
 5606TIP3   OH216781   1.084   0.406   5.324
 5606TIP3    H116782   1.083   0.487   5.374
 5606TIP3    H216783   1.012   0.415   5.262
 5607TIP3   OH216784   1.773   1.573   1.566
 5607TIP3    H116785   1.725   1.528   1.635
 5607TIP3    H216786   1.731   1.659   1.559
 5608TIP3   OH216787   1.738   2.796   1.046
 5608TIP3    H116788   1.783   2.859   1.103
 5608TIP3    H216789   1.797   2.720   1.043
 5609TIP3   OH216790   2.024   6.459   0.476
 5609TIP3    H116791   2.031   6.364   0.481
 5609TIP3    H216792   1.989   6.476   0.388
 5610TIP3   OH216793   2.466   0.358   2.610
 5610TIP3    H116794   2.444   0.265   2.603
 5610TIP3    H216795   2.382   0.403   2.599
 5611TIP3   OH216796   0.186   1.758   2.741
 5611TIP3    H116797   0.128   1.753   2.665
 5611TIP3    H216798   0.260   1.812   2.710
 5612TIP3   OH216799   4.756   5.982   1.977
 5612TIP3    H116800   4.815   5.940   1.915
 5612TIP3    H216801   4.669   5.951   1.953
 5613TIP3   OH216802   5.058   5.521   0.178
 5613TIP3    H116803   5.006   5.461   0.125
 5613TIP3    H216804   5.062   5.602   0.126
 5614TIP3   OH216805   6.436   4.775   2.657
 5614TIP3    H116806   6.406   4.857   2.620
 5614TIP3    H216807   6.450   4.793   2.750
 5615TIP3   OH216808   5.202   0.039   1.980
 5615TIP3    H116809   5.231   0.129   1.965
 5615TIP3    H216810   5.137   0.047   2.050
 5616TIP3   OH216811   6.833   4.702   0.109
 5616TIP3    H116812   6.738   4.702   0.126
 5616TIP3    H216813   6.866   4.628   0.159
 5617TIP3   OH216814   5.321   5.071   0.854
 5617TIP3    H116815   5.273   5.154   0.853
 5617TIP3    H216816   5.254   5.005   0.872
 5618TIP3   OH216817   0.019   2.487   4.929
 5618TIP3    H116818  -0.014   2.514   5.014
 5618TIP3    H216819   0.097   2.541   4.914
 5619TIP3   OH216820   0.150   0.764   2.558
 5619TIP3    H116821   0.151   0.718   2.642
 5619TIP3    H216822   0.114   0.850   2.579
 5620TIP3   OH216823   1.862   1.353   3.866
 5620TIP3    H116824   1.929   1.327   3.929
 5620TIP3    H216825   1.783   1.368   3.919
 5621TIP3   OH216826   1.962   3.048   3.341
 5621TIP3    H116827   1.894   2.981   3.334
 5621TIP3    H216828   1.973   3.060   3.435
 5622TIP3   OH216829   5.721   5.479   4.997
 5622TIP3    H116830   5.634   5.468   5.035
 5622TIP3    H216831   5.762   5.393   5.006
 5623TIP3   OH216832   3.047   2.443   4.893
 5623TIP3    H116833   2.996   2.420   4.816
 5623TIP3    H216834   2.983   2.440   4.965
 5624TIP3   OH216835   7.152   3.526   0.677
 5624TIP3    H116836   7.076   3.472   0.700
 5624TIP3    H216837   7.182   3.490   0.593
 5625TIP3   OH216838   0.339   4.182   0.575
 5625TIP3    H116839   0.271   4.131   0.620
 5625TIP3    H216840   0.337   4.150   0.485
 5626TIP3   OH216841   4.604   5.211   3.609
 5626TIP3    H116842   4.585   5.197   3.702
 5626TIP3    H216843   4.692   5.177   3.597
 5627TIP3   OH216844   3.204   3.255   2.660
 5627TIP3    H116845   3.284   3.306   2.653
 5627TIP3    H216846   3.159   3.269   2.576
 5628TIP3   OH216847   2.126   5.597   0.654
 5628TIP3    H116848   2.137   5.662   0.724
 5628TIP3    H216849   2.214   5.561   0.641
 5629TIP3   OH216850   3.209   2.501   3.728
 5629TIP3    H116851   3.190   2.409   3.746
 5629TIP3    H216852   3.154   2.522   3.652
 5630TIP3   OH216853   6.048   2.568   0.314
 5630TIP3    H116854   5.976   2.557   0.376
 5630TIP3    H216855   6.055   2.662   0.302
 5631TIP3   OH216856   6.271   5.929   4.829
 5631TIP3    H116857   6.323   6.004   4.856
 5631TIP3    H216858   6.222   5.904   4.907
 5632TIP3   OH216859   0.654   3.388   4.757
 5632TIP3    H116860   0.724   3.325   4.737
 5632TIP3    H216861   0.697   3.473   4.755
 5633TIP3   OH216862   2.490   2.721   3.700
 5633TIP3    H116863   2.468   2.814   3.690
 5633TIP3    H216864   2.490   2.707   3.794
 5634TIP3   OH216865   5.569   6.656   0.612
 5634TIP3    H116866   5.624   6.732   0.594
 5634TIP3    H216867   5.629   6.581   0.604
 5635TIP3   OH216868   3.623   2.193   2.071
 5635TIP3    H116869   3.568   2.271   2.064
 5635TIP3    H216870   3.690   2.205   2.005
 5636TIP3   OH216871   6.209   2.696   5.497
 5636TIP3    H116872   6.178   2.634   5.431
 5636TIP3    H216873   6.253   2.765   5.447
 5637TIP3   OH216874   4.361   1.868   4.738
 5637TIP3    H116875   4.284   1.834   4.692
 5637TIP3    H216876   4.336   1.869   4.830
 5638TIP3   OH216877   5.195   3.223   3.022
 5638TIP3    H116878   5.127   3.175   3.069
 5638TIP3    H216879   5.178   3.315   3.041
 5639TIP3   OH216880   0.916   2.398   0.635
 5639TIP3    H116881   0.967   2.473   0.604
 5639TIP3    H216882   0.964   2.367   0.712
 5640TIP3   OH216883   6.433   4.881   3.656
 5640TIP3    H116884   6.436   4.830   3.736
 5640TIP3    H216885   6.353   4.854   3.613
 5641TIP3   OH216886   1.811   3.321   2.958
 5641TIP3    H116887   1.877   3.386   2.935
 5641TIP3    H216888   1.787   3.280   2.875
 5642TIP3   OH216889   5.359   4.296   3.724
 5642TIP3    H116890   5.436   4.243   3.745
 5642TIP3    H216891   5.391   4.358   3.658
 5643TIP3   OH216892   0.418   5.024   1.748
 5643TIP3    H116893   0.430   4.930   1.734
 5643TIP3    H216894   0.324   5.037   1.749
 5644TIP3   OH216895   4.562   6.701   5.273
 5644TIP3    H116896   4.581   6.610   5.295
 5644TIP3    H216897   4.512   6.696   5.191
 5645TIP3   OH216898   2.147   4.125   5.587
 5645TIP3    H116899   2.053   4.128   5.568
 5645TIP3    H216900   2.189   4.108   5.503
 5646TIP3   OH216901   3.984   1.573   5.563
 5646TIP3    H116902   3.986   1.626   5.483
 5646TIP3    H216903   4.069   1.530   5.565
 5647TIP3   OH216904   6.530   5.554   1.816
 5647TIP3    H116905   6.507   5.512   1.733
 5647TIP3    H216906   6.601   5.615   1.792
 5648TIP3   OH216907   5.547   5.678   2.295
 5648TIP3    H116908   5.600   5.654   2.371
 5648TIP3    H216909   5.458   5.684   2.329
 5649TIP3   OH216910   0.154   3.673   0.077
 5649TIP3    H116911   0.143   3.678   0.172
 5649TIP3    H216912   0.098   3.600   0.050
 5650TIP3   OH216913   6.528   4.305   2.217
 5650TIP3    H116914   6.467   4.235   2.236
 5650TIP3    H216915   6.491   4.350   2.141
 5651TIP3   OH216916   0.241   6.710   4.725
 5651TIP3    H116917   0.270   6.727   4.636
 5651TIP3    H216918   0.237   6.615   4.732
 5652TIP3   OH216919   6.353   4.508   0.433
 5652TIP3    H116920   6.390   4.472   0.353
 5652TIP3    H216921   6.390   4.454   0.503
 5653TIP3   OH216922   3.957   0.839   4.530
 5653TIP3    H116923   4.019   0.780   4.487
 5653TIP3    H216924   4.012   0.898   4.582
 5654TIP3   OH216925   2.227   3.186   3.675
 5654TIP3    H116926   2.202   3.278   3.681
 5654TIP3    H216927   2.144   3.139   3.661
 5655TIP3   OH216928   3.697   1.540   4.392
 5655TIP3    H116929   3.634   1.598   4.436
 5655TIP3    H216930   3.670   1.452   4.417
 5656TIP3   OH216931   0.323   1.804   5.249
 5656TIP3    H116932   0.333   1.752   5.169
 5656TIP3    H216933   0.412   1.820   5.278
 5657TIP3   OH216934   2.257   4.215   0.196
 5657TIP3    H116935   2.235   4.161   0.271
 5657TIP3    H216936   2.287   4.153   0.129
 5658TIP3   OH216937   4.186   4.520   3.308
 5658TIP3    H116938   4.155   4.445   3.259
 5658TIP3    H216939   4.109   4.576   3.318
 5659TIP3   OH216940   0.600   0.683   1.631
 5659TIP3    H116941   0.610   0.772   1.598
 5659TIP3    H216942   0.688   0.659   1.660
 5660TIP3   OH216943   6.237   3.372   1.179
 5660TIP3    H116944   6.243   3.424   1.099
 5660TIP3    H216945   6.190   3.428   1.241
 5661TIP3   OH216946   5.291   0.873   2.905
 5661TIP3    H116947   5.315   0.963   2.883
 5661TIP3    H216948   5.228   0.882   2.977
 5662TIP3   OH216949   4.837   2.380   2.714
 5662TIP3    H116950   4.795   2.445   2.771
 5662TIP3    H216951   4.923   2.417   2.696
 5663TIP3   OH216952   7.211   2.943   4.882
 5663TIP3    H116953   7.236   3.021   4.933
 5663TIP3    H216954   7.126   2.918   4.919
 5664TIP3   OH216955   6.788   1.654   1.826
 5664TIP3    H116956   6.742   1.573   1.803
 5664TIP3    H216957   6.718   1.715   1.851
 5665TIP3   OH216958   0.370   0.664   5.471
 5665TIP3    H116959   0.438   0.713   5.517
 5665TIP3    H216960   0.415   0.625   5.396
 5666TIP3   OH216961   5.494   1.794   1.512
 5666TIP3    H116962   5.490   1.888   1.532
 5666TIP3    H216963   5.458   1.788   1.423
 5667TIP3   OH216964   1.684   4.511   4.698
 5667TIP3    H116965   1.589   4.513   4.704
 5667TIP3    H216966   1.711   4.602   4.704
 5668TIP3   OH216967   4.975   3.935   0.070
 5668TIP3    H116968   5.023   3.854   0.059
 5668TIP3    H216969   4.920   3.920   0.147
 5669TIP3   OH216970   3.078   6.193   4.450
 5669TIP3    H116971   3.045   6.109   4.483
 5669TIP3    H216972   3.108   6.239   4.529
 5670TIP3   OH216973   5.877   5.069   0.956
 5670TIP3    H116974   5.818   5.121   0.902
 5670TIP3    H216975   5.834   5.065   1.042
 5671TIP3   OH216976   2.912   2.555   3.259
 5671TIP3    H116977   2.921   2.485   3.194
 5671TIP3    H216978   2.896   2.634   3.207
 5672TIP3   OH216979   2.946   5.361   0.192
 5672TIP3    H116980   2.957   5.374   0.098
 5672TIP3    H216981   2.969   5.270   0.207
 5673TIP3   OH216982   3.981   4.234   2.250
 5673TIP3    H116983   3.979   4.194   2.336
 5673TIP3    H216984   4.056   4.194   2.206
 5674TIP3   OH216985   0.541   6.335   0.126
 5674TIP3    H116986   0.592   6.350   0.046
 5674TIP3    H216987   0.576   6.399   0.188
 5675TIP3   OH216988   3.497   5.221   5.841
 5675TIP3    H116989   3.443   5.276   5.783
 5675TIP3    H216990   3.435   5.185   5.904
 5676TIP3   OH216991   0.414   4.736   2.765
 5676TIP3    H116992   0.404   4.642   2.751
 5676TIP3    H216993   0.477   4.743   2.836
 5677TIP3   OH216994   5.877   2.347   4.321
 5677TIP3    H116995   5.786   2.317   4.322
 5677TIP3    H216996   5.912   2.323   4.407
 5678TIP3   OH216997   4.865   0.113   1.774
 5678TIP3    H116998   4.854   0.071   1.689
 5678TIP3    H216999   4.837   0.048   1.837
 5679TIP3   OH217000   2.561   5.123   4.932
 5679TIP3    H117001   2.477   5.129   4.976
 5679TIP3    H217002   2.607   5.203   4.957
 5680TIP3   OH217003   4.671   5.135   5.862
 5680TIP3    H117004   4.657   5.063   5.800
 5680TIP3    H217005   4.743   5.105   5.918
 5681TIP3   OH217006   1.479   6.278   0.230
 5681TIP3    H117007   1.493   6.372   0.229
 5681TIP3    H217008   1.494   6.250   0.140
 5682TIP3   OH217009   0.530   3.832   4.733
 5682TIP3    H117010   0.462   3.768   4.755
 5682TIP3    H217011   0.587   3.786   4.672
 5683TIP3   OH217012   1.319   0.115   0.203
 5683TIP3    H117013   1.273   0.199   0.212
 5683TIP3    H217014   1.405   0.138   0.169
 5684TIP3   OH217015   4.191   4.683   4.039
 5684TIP3    H117016   4.111   4.734   4.024
 5684TIP3    H217017   4.166   4.619   4.106
 5685TIP3   OH217018   2.047   3.906   5.161
 5685TIP3    H117019   2.030   3.995   5.193
 5685TIP3    H217020   1.961   3.873   5.136
 5686TIP3   OH217021   5.185   2.380   2.110
 5686TIP3    H117022   5.194   2.373   2.205
 5686TIP3    H217023   5.239   2.310   2.075
 5687TIP3   OH217024   4.201   3.510   4.784
 5687TIP3    H117025   4.202   3.465   4.700
 5687TIP3    H217026   4.108   3.519   4.806
 5688TIP3   OH217027   3.315   2.733   4.861
 5688TIP3    H117028   3.376   2.700   4.795
 5688TIP3    H217029   3.300   2.658   4.919
 5689TIP3   OH217030   2.278   2.669   1.793
 5689TIP3    H117031   2.282   2.574   1.780
 5689TIP3    H217032   2.243   2.679   1.881
 5690TIP3   OH217033   4.905   5.016   1.849
 5690TIP3    H117034   4.975   5.052   1.902
 5690TIP3    H217035   4.903   4.923   1.871
 5691TIP3   OH217036   6.501   2.809   4.504
 5691TIP3    H117037   6.564   2.853   4.561
 5691TIP3    H217038   6.550   2.734   4.470
 5692TIP3   OH217039   1.283   4.088   5.240
 5692TIP3    H117040   1.280   4.085   5.336
 5692TIP3    H217041   1.193   4.069   5.212
 5693TIP3   OH217042   3.770   6.002   1.585
 5693TIP3    H117043   3.706   6.013   1.656
 5693TIP3    H217044   3.727   6.039   1.508
 5694TIP3   OH217045   4.289   5.401   2.923
 5694TIP3    H117046   4.313   5.309   2.934
 5694TIP3    H217047   4.293   5.437   3.011
 5695TIP3   OH217048   6.667   1.711   0.816
 5695TIP3    H117049   6.729   1.652   0.859
 5695TIP3    H217050   6.721   1.782   0.781
 5696TIP3   OH217051   3.761   0.606   0.363
 5696TIP3    H117052   3.826   0.552   0.407
 5696TIP3    H217053   3.794   0.695   0.372
 5697TIP3   OH217054   0.365   1.495   4.732
 5697TIP3    H117055   0.412   1.413   4.741
 5697TIP3    H217056   0.350   1.524   4.822
 5698TIP3   OH217057   5.061   4.272   2.869
 5698TIP3    H117058   5.002   4.262   2.944
 5698TIP3    H217059   5.040   4.197   2.813
 5699TIP3   OH217060   4.468   6.036   4.099
 5699TIP3    H117061   4.455   5.945   4.072
 5699TIP3    H217062   4.549   6.064   4.055
 5700TIP3   OH217063   2.687   0.050   4.321
 5700TIP3    H117064   2.689   0.118   4.388
 5700TIP3    H217065   2.623   0.081   4.257
 5701TIP3   OH217066   3.867   2.844   0.947
 5701TIP3    H117067   3.937   2.794   0.905
 5701TIP3    H217068   3.871   2.817   1.039
 5702TIP3   OH217069   2.690   5.808   1.672
 5702TIP3    H117070   2.654   5.723   1.648
 5702TIP3    H217071   2.653   5.869   1.608
 5703TIP3   OH217072   3.996   2.211   4.853
 5703TIP3    H117073   3.901   2.218   4.857
 5703TIP3    H217074   4.021   2.182   4.941
 5704TIP3   OH217075   3.675   1.394   4.086
 5704TIP3    H117076   3.687   1.336   4.161
 5704TIP3    H217077   3.593   1.366   4.046
 5705TIP3   OH217078   0.900   2.325   0.371
 5705TIP3    H117079   0.881   2.418   0.359
 5705TIP3    H217080   0.917   2.315   0.464
 5706TIP3   OH217081   3.378  -0.036   3.442
 5706TIP3    H117082   3.350  -0.033   3.350
 5706TIP3    H217083   3.317   0.022   3.487
 5707TIP3   OH217084   0.377   1.506   1.728
 5707TIP3    H117085   0.320   1.544   1.795
 5707TIP3    H217086   0.321   1.442   1.683
 5708TIP3   OH217087   5.755   4.655   5.611
 5708TIP3    H117088   5.796   4.719   5.669
 5708TIP3    H217089   5.671   4.694   5.587
 5709TIP3   OH217090   4.510   3.828   4.638
 5709TIP3    H117091   4.549   3.907   4.600
 5709TIP3    H217092   4.577   3.793   4.697
 5710TIP3   OH217093   6.570   6.763   1.385
 5710TIP3    H117094   6.613   6.677   1.386
 5710TIP3    H217095   6.487   6.749   1.431
 5711TIP3   OH217096   0.413   0.596   2.265
 5711TIP3    H117097   0.364   0.582   2.184
 5711TIP3    H217098   0.347   0.588   2.334
 5712TIP3   OH217099   3.943   3.256   1.562
 5712TIP3    H117100   3.990   3.337   1.544
 5712TIP3    H217101   3.880   3.280   1.630
 5713TIP3   OH217102   2.831   3.489   2.434
 5713TIP3    H117103   2.896   3.521   2.497
 5713TIP3    H217104   2.833   3.394   2.443
 5714TIP3   OH217105   4.952   1.314   1.527
 5714TIP3    H117106   4.965   1.259   1.449
 5714TIP3    H217107   4.860   1.341   1.523
 5715TIP3   OH217108   4.623   5.867   3.620
 5715TIP3    H117109   4.569   5.942   3.645
 5715TIP3    H217110   4.603   5.800   3.685
 5716TIP3   OH217111   1.090   5.602   3.737
 5716TIP3    H117112   1.184   5.607   3.719
 5716TIP3    H217113   1.066   5.512   3.717
 5717TIP3   OH217114   4.031   2.612   1.149
 5717TIP3    H117115   4.123   2.595   1.169
 5717TIP3    H217116   4.014   2.562   1.069
 5718TIP3   OH217117   4.564   2.426   0.467
 5718TIP3    H117118   4.652   2.399   0.493
 5718TIP3    H217119   4.559   2.519   0.491
 5719TIP3   OH217120   1.956   3.536   2.830
 5719TIP3    H117121   1.878   3.565   2.783
 5719TIP3    H217122   2.029   3.584   2.790
 5720TIP3   OH217123   0.515   6.360   2.532
 5720TIP3    H117124   0.590   6.354   2.590
 5720TIP3    H217125   0.447   6.307   2.574
 5721TIP3   OH217126   3.453   4.985   0.419
 5721TIP3    H117127   3.409   5.070   0.412
 5721TIP3    H217128   3.382   4.921   0.422
 5722TIP3   OH217129   4.913   5.071   5.403
 5722TIP3    H117130   4.864   5.121   5.468
 5722TIP3    H217131   4.865   5.085   5.321
 5723TIP3   OH217132   0.521   3.399   4.992
 5723TIP3    H117133   0.568   3.380   4.911
 5723TIP3    H217134   0.464   3.473   4.969
 5724TIP3   OH217135   5.352   5.161   4.903
 5724TIP3    H117136   5.283   5.096   4.918
 5724TIP3    H217137   5.432   5.109   4.896
 5725TIP3   OH217138   2.526   0.617   0.895
 5725TIP3    H117139   2.483   0.651   0.816
 5725TIP3    H217140   2.604   0.671   0.905
 5726TIP3   OH217141   5.313   5.510   5.208
 5726TIP3    H117142   5.376   5.442   5.185
 5726TIP3    H217143   5.275   5.481   5.290
 5727TIP3   OH217144   0.738   1.441   4.977
 5727TIP3    H117145   0.690   1.517   5.010
 5727TIP3    H217146   0.743   1.381   5.052
 5728TIP3   OH217147   7.062   2.307   3.026
 5728TIP3    H117148   7.113   2.331   3.103
 5728TIP3    H217149   7.109   2.233   2.988
 5729TIP3   OH217150   6.319   1.413   3.256
 5729TIP3    H117151   6.234   1.373   3.274
 5729TIP3    H217152   6.298   1.496   3.214
 5730TIP3   OH217153   6.885   0.644   3.942
 5730TIP3    H117154   6.899   0.728   3.987
 5730TIP3    H217155   6.973   0.611   3.925
 5731TIP3   OH217156   2.086   6.332   4.590
 5731TIP3    H117157   2.041   6.367   4.513
 5731TIP3    H217158   2.175   6.313   4.560
 5732TIP3   OH217159   0.068   5.355   3.750
 5732TIP3    H117160   0.012   5.427   3.720
 5732TIP3    H217161   0.137   5.398   3.801
 5733TIP3   OH217162   6.414   0.803   2.912
 5733TIP3    H117163   6.452   0.862   2.847
 5733TIP3    H217164   6.404   0.856   2.991
 5734TIP3   OH217165   5.010   2.892   2.216
 5734TIP3    H117166   5.016   2.799   2.194
 5734TIP3    H217167   5.096   2.928   2.194
 5735TIP3   OH217168   0.133   5.075   1.726
 5735TIP3    H117169   0.120   5.137   1.654
 5735TIP3    H217170   0.050   5.074   1.773
 5736TIP3   OH217171   6.489   1.958   3.673
 5736TIP3    H117172   6.485   2.000   3.587
 5736TIP3    H217173   6.446   1.874   3.661
 5737TIP3   OH217174   6.009   0.062   0.032
 5737TIP3    H117175   6.086   0.103  -0.008
 5737TIP3    H217176   6.043   0.019   0.111
 5738TIP3   OH217177   7.115   1.872   1.778
 5738TIP3    H117178   7.090   1.868   1.870
 5738TIP3    H217179   7.131   1.965   1.762
 5739TIP3   OH217180   4.720   4.629   3.236
 5739TIP3    H117181   4.731   4.679   3.318
 5739TIP3    H217182   4.625   4.626   3.223
 5740TIP3   OH217183   2.380   1.453   2.997
 5740TIP3    H117184   2.469   1.456   3.034
 5740TIP3    H217185   2.361   1.544   2.975
 5741TIP3   OH217186   3.197   6.059   5.764
 5741TIP3    H117187   3.197   6.104   5.848
 5741TIP3    H217188   3.107   6.029   5.753
 5742TIP3   OH217189   5.617   1.550   3.708
 5742TIP3    H117190   5.682   1.504   3.654
 5742TIP3    H217191   5.557   1.482   3.737
 5743TIP3   OH217192   4.086   3.834   3.804
 5743TIP3    H117193   4.150   3.899   3.831
 5743TIP3    H217194   4.001   3.872   3.827
 5744TIP3   OH217195   0.088   6.712   3.402
 5744TIP3    H117196   0.069   6.804   3.420
 5744TIP3    H217197   0.070   6.666   3.484
 5745TIP3   OH217198   5.761   3.336   3.840
 5745TIP3    H117199   5.790   3.282   3.766
 5745TIP3    H217200   5.828   3.404   3.848
 5746TIP3   OH217201   0.873   5.193   1.278
 5746TIP3    H117202   0.821   5.146   1.343
 5746TIP3    H217203   0.854   5.285   1.294
 5747TIP3   OH217204   5.597   3.265   5.537
 5747TIP3    H117205   5.666   3.253   5.602
 5747TIP3    H217206   5.641   3.248   5.453
 5748TIP3   OH217207   0.201   6.614   0.670
 5748TIP3    H117208   0.289   6.638   0.697
 5748TIP3    H217209   0.154   6.698   0.667
 5749TIP3   OH217210   6.842   5.281   1.047
 5749TIP3    H117211   6.902   5.295   0.974
 5749TIP3    H217212   6.881   5.330   1.120
 5750TIP3   OH217213   3.896   4.039   3.473
 5750TIP3    H117214   3.934   4.114   3.518
 5750TIP3    H217215   3.885   4.068   3.382
 5751TIP3   OH217216   2.653   0.380   0.710
 5751TIP3    H117217   2.710   0.431   0.651
 5751TIP3    H217218   2.566   0.387   0.671
 5752TIP3   OH217219   5.968   4.471   5.080
 5752TIP3    H117220   5.923   4.556   5.077
 5752TIP3    H217221   6.020   4.468   5.000
 5753TIP3   OH217222   0.300   5.094   4.564
 5753TIP3    H117223   0.237   5.085   4.493
 5753TIP3    H217224   0.254   5.147   4.630
 5754TIP3   OH217225   5.438   6.602   3.213
 5754TIP3    H117226   5.460   6.675   3.155
 5754TIP3    H217227   5.344   6.613   3.230
 5755TIP3   OH217228   4.080   5.758   2.184
 5755TIP3    H117229   4.086   5.818   2.259
 5755TIP3    H217230   3.997   5.713   2.197
 5756TIP3   OH217231   6.243   5.504   4.925
 5756TIP3    H117232   6.290   5.556   4.990
 5756TIP3    H217233   6.196   5.568   4.872
 5757TIP3   OH217234   3.325   5.626   3.800
 5757TIP3    H117235   3.319   5.713   3.839
 5757TIP3    H217236   3.246   5.580   3.832
 5758TIP3   OH217237   4.939   5.904   2.256
 5758TIP3    H117238   4.903   5.844   2.191
 5758TIP3    H217239   4.869   5.967   2.273
 5759TIP3   OH217240   1.414   1.607   0.672
 5759TIP3    H117241   1.480   1.597   0.740
 5759TIP3    H217242   1.382   1.696   0.681
 5760TIP3   OH217243   5.600   3.875   5.652
 5760TIP3    H117244   5.533   3.933   5.615
 5760TIP3    H217245   5.566   3.850   5.738
 5761TIP3   OH217246   4.003   4.878   1.399
 5761TIP3    H117247   3.993   4.851   1.308
 5761TIP3    H217248   3.946   4.819   1.448
 5762TIP3   OH217249   3.603   3.690   5.829
 5762TIP3    H117250   3.591   3.633   5.753
 5762TIP3    H217251   3.696   3.712   5.827
 5763TIP3   OH217252   2.568   6.796   0.147
 5763TIP3    H117253   2.486   6.785   0.100
 5763TIP3    H217254   2.614   6.712   0.136
 5764TIP3   OH217255   5.960   4.418   1.672
 5764TIP3    H117256   5.923   4.394   1.757
 5764TIP3    H217257   5.896   4.386   1.608
 5765TIP3   OH217258   5.592   6.184   5.076
 5765TIP3    H117259   5.662   6.221   5.023
 5765TIP3    H217260   5.584   6.094   5.044
 5766TIP3   OH217261   5.645   3.308   1.393
 5766TIP3    H117262   5.592   3.228   1.390
 5766TIP3    H217263   5.632   3.348   1.307
 5767TIP3   OH217264   5.096   6.168   3.423
 5767TIP3    H117265   5.011   6.126   3.407
 5767TIP3    H217266   5.076   6.243   3.478
 5768TIP3   OH217267   0.889   2.346   1.103
 5768TIP3    H117268   0.922   2.256   1.101
 5768TIP3    H217269   0.801   2.338   1.141
 5769TIP3   OH217270   1.948   5.144   2.918
 5769TIP3    H117271   2.036   5.177   2.900
 5769TIP3    H217272   1.957   5.090   2.996
 5770TIP3   OH217273   1.226   2.460   3.277
 5770TIP3    H117274   1.297   2.452   3.214
 5770TIP3    H217275   1.202   2.553   3.276
 5771TIP3   OH217276   0.520   6.345   4.206
 5771TIP3    H117277   0.598   6.353   4.152
 5771TIP3    H217278   0.449   6.329   4.144
 5772TIP3   OH217279   2.662   2.680   5.125
 5772TIP3    H117280   2.588   2.724   5.167
 5772TIP3    H217281   2.739   2.727   5.157
 5773TIP3   OH217282   6.710   6.384   5.476
 5773TIP3    H117283   6.706   6.403   5.570
 5773TIP3    H217284   6.780   6.318   5.468
 5774TIP3   OH217285   3.259   3.153   1.123
 5774TIP3    H117286   3.168   3.135   1.148
 5774TIP3    H217287   3.252   3.215   1.051
 5775TIP3   OH217288   5.150   5.356   1.532
 5775TIP3    H117289   5.108   5.275   1.560
 5775TIP3    H217290   5.078   5.419   1.524
 5776TIP3   OH217291   6.476   2.724   2.980
 5776TIP3    H117292   6.494   2.767   3.063
 5776TIP3    H217293   6.485   2.630   2.998
 5777TIP3   OH217294   1.537   1.282   0.249
 5777TIP3    H117295   1.544   1.336   0.171
 5777TIP3    H217296   1.540   1.345   0.322
 5778TIP3   OH217297   6.564   0.117   4.486
 5778TIP3    H117298   6.533   0.202   4.455
 5778TIP3    H217299   6.485   0.063   4.491
 5779TIP3   OH217300   4.795   2.242   2.432
 5779TIP3    H117301   4.857   2.315   2.425
 5779TIP3    H217302   4.845   2.171   2.471
 5780TIP3   OH217303   6.390   0.973   3.116
 5780TIP3    H117304   6.399   0.944   3.207
 5780TIP3    H217305   6.350   1.060   3.122
 5781TIP3   OH217306   3.348   5.267   1.761
 5781TIP3    H117307   3.277   5.297   1.704
 5781TIP3    H217308   3.316   5.284   1.849
 5782TIP3   OH217309   0.938   0.516   3.094
 5782TIP3    H117310   0.917   0.601   3.055
 5782TIP3    H217311   0.948   0.535   3.188
 5783TIP3   OH217312   6.970   0.574   1.413
 5783TIP3    H117313   6.955   0.572   1.507
 5783TIP3    H217314   6.992   0.484   1.390
 5784TIP3   OH217315   4.097   6.107   0.621
 5784TIP3    H117316   4.138   6.129   0.538
 5784TIP3    H217317   4.135   6.169   0.684
 5785TIP3   OH217318   7.060   1.579   1.728
 5785TIP3    H117319   7.045   1.668   1.761
 5785TIP3    H217320   7.010   1.523   1.787
 5786TIP3   OH217321   2.410   4.117   4.196
 5786TIP3    H117322   2.369   4.059   4.261
 5786TIP3    H217323   2.343   4.181   4.176
 5787TIP3   OH217324   5.288   4.203   0.369
 5787TIP3    H117325   5.379   4.232   0.364
 5787TIP3    H217326   5.288   4.117   0.326
 5788TIP3   OH217327   7.154   4.496   4.391
 5788TIP3    H117328   7.112   4.410   4.382
 5788TIP3    H217329   7.182   4.518   4.302
 5789TIP3   OH217330   5.480   1.546   4.216
 5789TIP3    H117331   5.475   1.500   4.300
 5789TIP3    H217332   5.454   1.635   4.236
 5790TIP3   OH217333   1.170   2.469   2.094
 5790TIP3    H117334   1.148   2.411   2.167
 5790TIP3    H217335   1.229   2.535   2.132
 5791TIP3   OH217336   6.829   5.081   4.136
 5791TIP3    H117337   6.738   5.106   4.155
 5791TIP3    H217338   6.831   4.987   4.152
 5792TIP3   OH217339   4.888   3.520   4.322
 5792TIP3    H117340   4.850   3.434   4.303
 5792TIP3    H217341   4.821   3.564   4.375
 5793TIP3   OH217342   7.084   6.724   5.365
 5793TIP3    H117343   7.113   6.634   5.381
 5793TIP3    H217344   7.165   6.775   5.362
 5794TIP3   OH217345   0.788   1.206   0.481
 5794TIP3    H117346   0.741   1.283   0.449
 5794TIP3    H217347   0.722   1.157   0.530
 5795TIP3   OH217348   0.781   5.951   4.404
 5795TIP3    H117349   0.876   5.954   4.388
 5795TIP3    H217350   0.767   5.867   4.448
 5796TIP3   OH217351   5.591   6.592   5.083
 5796TIP3    H117352   5.683   6.570   5.098
 5796TIP3    H217353   5.592   6.650   5.008
 5797TIP3   OH217354   0.182   4.991   4.911
 5797TIP3    H117355   0.171   5.049   4.987
 5797TIP3    H217356   0.229   5.044   4.847
 5798TIP3   OH217357   5.974   0.045   5.152
 5798TIP3    H117358   6.024  -0.027   5.114
 5798TIP3    H217359   5.960   0.018   5.243
 5799TIP3   OH217360   5.966   5.399   0.996
 5799TIP3    H117361   5.927   5.406   0.909
 5799TIP3    H217362   6.049   5.353   0.982
 5800TIP3   OH217363   0.030   0.954   1.985
 5800TIP3    H117364  -0.041   1.000   2.030
 5800TIP3    H217365   0.075   1.022   1.935
 5801TIP3   OH217366   2.160   2.713   4.942
 5801TIP3    H117367   2.131   2.745   4.857
 5801TIP3    H217368   2.191   2.624   4.926
 5802TIP3   OH217369   6.578   4.944   5.201
 5802TIP3    H117370   6.672   4.940   5.213
 5802TIP3    H217371   6.564   4.917   5.111
 5803TIP3   OH217372   2.438   4.101   3.457
 5803TIP3    H117373   2.390   4.021   3.477
 5803TIP3    H217374   2.388   4.171   3.500
 5804TIP3   OH217375   1.340   4.804   2.448
 5804TIP3    H117376   1.406   4.746   2.486
 5804TIP3    H217377   1.380   4.891   2.451
 5805TIP3   OH217378   2.120   6.172   2.223
 5805TIP3    H117379   2.141   6.132   2.307
 5805TIP3    H217380   2.081   6.256   2.246
 5806TIP3   OH217381   4.533   4.827   1.646
 5806TIP3    H117382   4.443   4.793   1.651
 5806TIP3    H217383   4.523   4.919   1.623
 5807TIP3   OH217384   1.593   2.329   0.908
 5807TIP3    H117385   1.602   2.393   0.978
 5807TIP3    H217386   1.622   2.246   0.947
 5808TIP3   OH217387   2.838   3.553   3.991
 5808TIP3    H117388   2.784   3.632   3.988
 5808TIP3    H217389   2.928   3.585   3.998
 5809TIP3   OH217390   0.102   4.548   1.224
 5809TIP3    H117391   0.087   4.515   1.135
 5809TIP3    H217392   0.151   4.479   1.268
 5810TIP3   OH217393   4.075   3.103   1.131
 5810TIP3    H117394   4.097   3.060   1.049
 5810TIP3    H217395   4.005   3.165   1.108
 5811TIP3   OH217396   6.556   2.447   1.454
 5811TIP3    H117397   6.562   2.446   1.359
 5811TIP3    H217398   6.557   2.540   1.477
 5812TIP3   OH217399   1.074   2.202   4.730
 5812TIP3    H117400   1.016   2.270   4.765
 5812TIP3    H217401   1.159   2.246   4.720
 5813TIP3   OH217402   6.997   0.229   3.023
 5813TIP3    H117403   7.046   0.165   3.074
 5813TIP3    H217404   7.049   0.243   2.944
 5814TIP3   OH217405   2.443   1.221   5.309
 5814TIP3    H117406   2.497   1.152   5.270
 5814TIP3    H217407   2.468   1.301   5.263
 5815TIP3   OH217408   1.707   5.281   2.331
 5815TIP3    H117409   1.717   5.189   2.352
 5815TIP3    H217410   1.795   5.317   2.336
 5816TIP3   OH217411   5.755   0.200   0.011
 5816TIP3    H117412   5.767   0.224   0.103
 5816TIP3    H217413   5.843   0.173  -0.018
 5817TIP3   OH217414   6.425   2.782   0.626
 5817TIP3    H117415   6.443   2.866   0.668
 5817TIP3    H217416   6.474   2.785   0.544
 5818TIP3   OH217417   2.154   4.853   2.204
 5818TIP3    H117418   2.170   4.782   2.266
 5818TIP3    H217419   2.132   4.809   2.122
 5819TIP3   OH217420   2.139   5.054   3.419
 5819TIP3    H117421   2.068   5.095   3.470
 5819TIP3    H217422   2.159   4.974   3.467
 5820TIP3   OH217423   2.058   1.674   1.240
 5820TIP3    H117424   2.024   1.763   1.230
 5820TIP3    H217425   2.128   1.682   1.305
 5821TIP3   OH217426   7.225   3.850   3.474
 5821TIP3    H117427   7.276   3.797   3.413
 5821TIP3    H217428   7.202   3.928   3.424
 5822TIP3   OH217429   5.652   5.448   4.556
 5822TIP3    H117430   5.644   5.432   4.650
 5822TIP3    H217431   5.701   5.530   4.549
 5823TIP3   OH217432   6.744   1.704   3.616
 5823TIP3    H117433   6.700   1.773   3.566
 5823TIP3    H217434   6.827   1.744   3.643
 5824TIP3   OH217435   7.162   2.550   5.192
 5824TIP3    H117436   7.239   2.596   5.225
 5824TIP3    H217437   7.145   2.482   5.257
 5825TIP3   OH217438   0.834   1.358   1.397
 5825TIP3    H117439   0.865   1.300   1.467
 5825TIP3    H217440   0.760   1.311   1.358
 5826TIP3   OH217441   5.245   2.567   2.430
 5826TIP3    H117442   5.249   2.616   2.512
 5826TIP3    H217443   5.299   2.618   2.369
 5827TIP3   OH217444   1.494   5.594   2.540
 5827TIP3    H117445   1.534   5.598   2.453
 5827TIP3    H217446   1.567   5.571   2.598
 5828TIP3   OH217447   1.356   5.811   0.979
 5828TIP3    H117448   1.364   5.747   0.908
 5828TIP3    H217449   1.274   5.789   1.023
 5829TIP3   OH217450   0.258   3.358   1.692
 5829TIP3    H117451   0.343   3.375   1.651
 5829TIP3    H217452   0.201   3.426   1.657
 5830TIP3   OH217453   4.738   6.729   1.894
 5830TIP3    H117454   4.749   6.740   1.988
 5830TIP3    H217455   4.793   6.654   1.871
 5831TIP3   OH217456   6.507   4.918   0.821
 5831TIP3    H117457   6.590   4.914   0.773
 5831TIP3    H217458   6.524   4.980   0.892
 5832TIP3   OH217459   6.424   0.192   0.078
 5832TIP3    H117460   6.460   0.279   0.097
 5832TIP3    H217461   6.377   0.203  -0.004
 5833TIP3   OH217462   5.669   4.089   1.235
 5833TIP3    H117463   5.761   4.107   1.256
 5833TIP3    H217464   5.622   4.110   1.316
 5834TIP3   OH217465   4.458   4.135   2.783
 5834TIP3    H117466   4.365   4.122   2.804
 5834TIP3    H217467   4.503   4.063   2.828
 5835TIP3   OH217468   7.177   0.945   4.519
 5835TIP3    H117469   7.193   0.950   4.424
 5835TIP3    H217470   7.252   0.990   4.558
 5836TIP3   OH217471   2.306   3.337   2.925
 5836TIP3    H117472   2.381   3.394   2.910
 5836TIP3    H217473   2.239   3.369   2.864
 5837TIP3   OH217474   4.515   5.742   1.249
 5837TIP3    H117475   4.515   5.737   1.345
 5837TIP3    H217476   4.423   5.726   1.225
 5838TIP3   OH217477   5.307   6.769   1.008
 5838TIP3    H117478   5.392   6.732   1.031
 5838TIP3    H217479   5.247   6.734   1.073
 5839TIP3   OH217480   4.282   4.683   4.912
 5839TIP3    H117481   4.329   4.744   4.968
 5839TIP3    H217482   4.299   4.713   4.823
 5840TIP3   OH217483   4.196   3.814   5.660
 5840TIP3    H117484   4.196   3.723   5.629
 5840TIP3    H217485   4.286   3.830   5.688
 5841TIP3   OH217486   3.846   0.441   3.060
 5841TIP3    H117487   3.932   0.446   3.018
 5841TIP3    H217488   3.805   0.363   3.022
 5842TIP3   OH217489   2.053   1.757   4.850
 5842TIP3    H117490   2.000   1.772   4.928
 5842TIP3    H217491   2.028   1.670   4.820
 5843TIP3   OH217492   5.488   4.586   2.760
 5843TIP3    H117493   5.570   4.537   2.752
 5843TIP3    H217494   5.514   4.670   2.797
 5844TIP3   OH217495   0.199   0.527   2.399
 5844TIP3    H117496   0.212   0.457   2.463
 5844TIP3    H217497   0.159   0.598   2.448
 5845TIP3   OH217498   3.414   3.011   4.294
 5845TIP3    H117499   3.414   3.070   4.370
 5845TIP3    H217500   3.441   3.066   4.221
 5846TIP3   OH217501   7.085   2.496   4.071
 5846TIP3    H117502   7.044   2.425   4.022
 5846TIP3    H217503   7.138   2.452   4.138
 5847TIP3   OH217504   7.145   0.728   3.825
 5847TIP3    H117505   7.155   0.663   3.895
 5847TIP3    H217506   7.166   0.811   3.867
 5848TIP3   OH217507   0.479   4.833   3.973
 5848TIP3    H117508   0.489   4.928   3.985
 5848TIP3    H217509   0.489   4.820   3.879
 5849TIP3   OH217510   6.153   6.491   2.230
 5849TIP3    H117511   6.128   6.495   2.323
 5849TIP3    H217512   6.158   6.398   2.211
 5850TIP3   OH217513   4.273   5.836   0.363
 5850TIP3    H117514   4.319   5.774   0.307
 5850TIP3    H217515   4.337   5.863   0.428
 5851TIP3   OH217516   4.771   0.359   0.657
 5851TIP3    H117517   4.861   0.355   0.688
 5851TIP3    H217518   4.757   0.452   0.637
 5852TIP3   OH217519   5.256   6.611   2.026
 5852TIP3    H117520   5.267   6.646   1.937
 5852TIP3    H217521   5.184   6.663   2.062
 5853TIP3   OH217522   1.654   4.226   0.659
 5853TIP3    H117523   1.726   4.188   0.710
 5853TIP3    H217524   1.610   4.150   0.620
 5854TIP3   OH217525   3.206   0.034   2.699
 5854TIP3    H117526   3.159  -0.045   2.725
 5854TIP3    H217527   3.154   0.070   2.627
 5855TIP3   OH217528   0.017   6.491   0.325
 5855TIP3    H117529  -0.047   6.513   0.257
 5855TIP3    H217530   0.091   6.453   0.278
 5856TIP3   OH217531   4.582   4.566   4.617
 5856TIP3    H117532   4.584   4.532   4.706
 5856TIP3    H217533   4.576   4.661   4.628
 5857TIP3   OH217534   6.386   1.473   4.120
 5857TIP3    H117535   6.298   1.493   4.087
 5857TIP3    H217536   6.401   1.539   4.188
 5858TIP3   OH217537   0.860   4.354   0.173
 5858TIP3    H117538   0.921   4.345   0.246
 5858TIP3    H217539   0.811   4.434   0.193
 5859TIP3   OH217540   2.172   2.376   1.155
 5859TIP3    H117541   2.102   2.388   1.092
 5859TIP3    H217542   2.149   2.435   1.228
 5860TIP3   OH217543   3.909   6.747   5.754
 5860TIP3    H117544   3.997   6.780   5.737
 5860TIP3    H217545   3.922   6.673   5.814
 5861TIP3   OH217546   6.482   5.690   2.637
 5861TIP3    H117547   6.522   5.665   2.554
 5861TIP3    H217548   6.476   5.786   2.632
 5862TIP3   OH217549   6.227   6.771   3.933
 5862TIP3    H117550   6.237   6.768   4.028
 5862TIP3    H217551   6.209   6.862   3.912
 5863TIP3   OH217552   2.604   3.566   4.510
 5863TIP3    H117553   2.628   3.577   4.418
 5863TIP3    H217554   2.580   3.654   4.540
 5864TIP3   OH217555   1.025   5.608   1.632
 5864TIP3    H117556   0.985   5.677   1.578
 5864TIP3    H217557   1.070   5.656   1.701
 5865TIP3   OH217558   3.465   2.551   2.434
 5865TIP3    H117559   3.376   2.561   2.466
 5865TIP3    H217560   3.466   2.598   2.350
 5866TIP3   OH217561   0.978   4.234   5.872
 5866TIP3    H117562   1.047   4.269   5.816
 5866TIP3    H217563   0.912   4.200   5.811
 5867TIP3   OH217564   4.847   1.086   2.747
 5867TIP3    H117565   4.802   1.108   2.829
 5867TIP3    H217566   4.776   1.068   2.685
 5868TIP3   OH217567   5.758   4.437   5.315
 5868TIP3    H117568   5.731   4.364   5.260
 5868TIP3    H217569   5.830   4.478   5.267
 5869TIP3   OH217570   6.970   6.224   4.505
 5869TIP3    H117571   6.975   6.318   4.526
 5869TIP3    H217572   6.919   6.221   4.424
 5870TIP3   OH217573   4.035   0.758   2.121
 5870TIP3    H117574   4.113   0.733   2.170
 5870TIP3    H217575   4.055   0.735   2.030
 5871TIP3   OH217576   5.660   0.918   2.365
 5871TIP3    H117577   5.735   0.929   2.308
 5871TIP3    H217578   5.586   0.903   2.306
 5872TIP3   OH217579   1.195   4.071   3.281
 5872TIP3    H117580   1.263   4.004   3.269
 5872TIP3    H217581   1.199   4.093   3.374
 5873TIP3   OH217582   6.535   1.735   0.308
 5873TIP3    H117583   6.626   1.707   0.299
 5873TIP3    H217584   6.502   1.741   0.219
 5874TIP3   OH217585   0.690   1.166   5.138
 5874TIP3    H117586   0.616   1.226   5.147
 5874TIP3    H217587   0.738   1.175   5.221
 5875TIP3   OH217588   1.642   2.973   1.498
 5875TIP3    H117589   1.635   3.068   1.492
 5875TIP3    H217590   1.676   2.945   1.413
 5876TIP3   OH217591   4.364   2.585   1.931
 5876TIP3    H117592   4.296   2.653   1.928
 5876TIP3    H217593   4.360   2.550   2.020
 5877TIP3   OH217594   1.984   6.292   4.022
 5877TIP3    H117595   1.968   6.200   4.002
 5877TIP3    H217596   2.068   6.311   3.979
 5878TIP3   OH217597   4.949   3.270   1.578
 5878TIP3    H117598   4.950   3.190   1.630
 5878TIP3    H217599   4.903   3.334   1.631
 5879TIP3   OH217600   0.851   5.070   2.615
 5879TIP3    H117601   0.909   5.043   2.686
 5879TIP3    H217602   0.878   5.017   2.540
 5880TIP3   OH217603   5.054   4.423   4.995
 5880TIP3    H117604   5.085   4.506   4.958
 5880TIP3    H217605   5.035   4.443   5.086
 5881TIP3   OH217606   1.029   5.541   4.406
 5881TIP3    H117607   0.946   5.509   4.442
 5881TIP3    H217608   1.056   5.473   4.344
 5882TIP3   OH217609   5.921   0.947   2.582
 5882TIP3    H117610   5.933   1.039   2.560
 5882TIP3    H217611   5.836   0.923   2.545
 5883TIP3   OH217612   4.725   3.604   3.902
 5883TIP3    H117613   4.726   3.515   3.938
 5883TIP3    H217614   4.814   3.636   3.914
 5884TIP3   OH217615   3.876   4.486   1.592
 5884TIP3    H117616   3.972   4.494   1.599
 5884TIP3    H217617   3.847   4.471   1.682
 5885TIP3   OH217618   6.209   1.068   2.820
 5885TIP3    H117619   6.278   1.029   2.767
 5885TIP3    H217620   6.146   0.998   2.834
 5886TIP3   OH217621   3.826   4.289   1.406
 5886TIP3    H117622   3.834   4.300   1.311
 5886TIP3    H217623   3.881   4.359   1.442
 5887TIP3   OH217624   3.100   1.772   4.011
 5887TIP3    H117625   3.091   1.772   3.916
 5887TIP3    H217626   3.087   1.680   4.036
 5888TIP3   OH217627   6.103   5.868   5.608
 5888TIP3    H117628   6.101   5.960   5.632
 5888TIP3    H217629   6.012   5.845   5.591
 5889TIP3   OH217630   4.360   4.485   0.760
 5889TIP3    H117631   4.383   4.476   0.667
 5889TIP3    H217632   4.385   4.575   0.782
 5890TIP3   OH217633   0.296   1.391   3.045
 5890TIP3    H117634   0.247   1.464   3.081
 5890TIP3    H217635   0.304   1.411   2.952
 5891TIP3   OH217636   5.764   5.839   0.190
 5891TIP3    H117637   5.707   5.916   0.192
 5891TIP3    H217638   5.719   5.777   0.132
 5892TIP3   OH217639   6.694   2.166   4.607
 5892TIP3    H117640   6.756   2.238   4.603
 5892TIP3    H217641   6.634   2.181   4.534
 5893TIP3   OH217642   0.798   4.040   2.807
 5893TIP3    H117643   0.806   4.112   2.869
 5893TIP3    H217644   0.886   4.004   2.800
 5894TIP3   OH217645   7.219   6.758   4.392
 5894TIP3    H117646   7.219   6.665   4.414
 5894TIP3    H217647   7.310   6.777   4.369
 5895TIP3   OH217648   1.470   5.736   1.927
 5895TIP3    H117649   1.473   5.640   1.920
 5895TIP3    H217650   1.396   5.753   1.986
 5896TIP3   OH217651   3.977   4.925   4.272
 5896TIP3    H117652   3.988   5.020   4.281
 5896TIP3    H217653   3.978   4.909   4.178
 5897TIP3   OH217654   0.572   5.784   3.320
 5897TIP3    H117655   0.638   5.792   3.389
 5897TIP3    H217656   0.621   5.757   3.242
 5898TIP3   OH217657   2.010   4.681   4.219
 5898TIP3    H117658   1.938   4.648   4.273
 5898TIP3    H217659   2.088   4.661   4.270
 5899TIP3   OH217660   0.397   0.284   4.991
 5899TIP3    H117661   0.371   0.195   5.014
 5899TIP3    H217662   0.343   0.306   4.915
 5900TIP3   OH217663   6.350   2.781   4.201
 5900TIP3    H117664   6.329   2.866   4.240
 5900TIP3    H217665   6.324   2.790   4.109
 5901TIP3   OH217666   6.581   3.074   0.950
 5901TIP3    H117667   6.579   3.068   0.854
 5901TIP3    H217668   6.496   3.112   0.973
 5902TIP3   OH217669   0.321   5.478   5.208
 5902TIP3    H117670   0.301   5.500   5.299
 5902TIP3    H217671   0.375   5.399   5.214
 5903TIP3   OH217672   5.175   1.653   0.244
 5903TIP3    H117673   5.189   1.746   0.262
 5903TIP3    H217674   5.225   1.607   0.311
 5904TIP3   OH217675   0.651   6.195   5.271
 5904TIP3    H117676   0.573   6.156   5.310
 5904TIP3    H217677   0.642   6.288   5.287
 5905TIP3   OH217678   4.964   0.793   5.700
 5905TIP3    H117679   5.055   0.819   5.717
 5905TIP3    H217680   4.971   0.708   5.656
 5906TIP3   OH217681   3.882   1.953   3.402
 5906TIP3    H117682   3.810   1.927   3.459
 5906TIP3    H217683   3.859   2.041   3.373
 5907TIP3   OH217684   6.581   1.861   1.192
 5907TIP3    H117685   6.538   1.816   1.120
 5907TIP3    H217686   6.674   1.840   1.181
 5908TIP3   OH217687   0.811   6.767   4.966
 5908TIP3    H117688   0.840   6.705   5.032
 5908TIP3    H217689   0.787   6.712   4.891
 5909TIP3   OH217690   7.016   6.329   4.882
 5909TIP3    H117691   7.055   6.253   4.925
 5909TIP3    H217692   7.087   6.367   4.831
 5910TIP3   OH217693   0.087   3.256   4.195
 5910TIP3    H117694   0.073   3.347   4.169
 5910TIP3    H217695   0.008   3.231   4.242
 5911TIP3   OH217696   5.372   1.557   5.364
 5911TIP3    H117697   5.449   1.529   5.413
 5911TIP3    H217698   5.350   1.483   5.308
 5912TIP3   OH217699   3.361   6.436   5.005
 5912TIP3    H117700   3.365   6.430   4.910
 5912TIP3    H217701   3.304   6.364   5.031
 5913TIP3   OH217702   0.084   3.995   4.350
 5913TIP3    H117703   0.014   3.947   4.396
 5913TIP3    H217704   0.060   3.989   4.257
 5914TIP3   OH217705   1.011   0.881   3.863
 5914TIP3    H117706   1.098   0.862   3.828
 5914TIP3    H217707   1.025   0.951   3.927
 5915TIP3   OH217708   4.221   0.216   1.793
 5915TIP3    H117709   4.280   0.252   1.726
 5915TIP3    H217710   4.164   0.290   1.816
 5916TIP3   OH217711   1.245   5.123   5.549
 5916TIP3    H117712   1.176   5.176   5.509
 5916TIP3    H217713   1.212   5.102   5.636
 5917TIP3   OH217714   4.699   2.790   0.966
 5917TIP3    H117715   4.710   2.842   0.887
 5917TIP3    H217716   4.664   2.852   1.031
 5918TIP3   OH217717   6.452   4.677   1.418
 5918TIP3    H117718   6.381   4.636   1.369
 5918TIP3    H217719   6.409   4.723   1.490
 5919TIP3   OH217720   0.206   6.391   3.129
 5919TIP3    H117721   0.259   6.362   3.204
 5919TIP3    H217722   0.190   6.312   3.078
 5920TIP3   OH217723   3.722   1.702   4.976
 5920TIP3    H117724   3.688   1.772   4.921
 5920TIP3    H217725   3.664   1.700   5.052
 5921TIP3   OH217726   3.319   5.678   3.438
 5921TIP3    H117727   3.320   5.686   3.342
 5921TIP3    H217728   3.374   5.750   3.469
 5922TIP3   OH217729   5.736   3.967   2.121
 5922TIP3    H117730   5.777   3.945   2.205
 5922TIP3    H217731   5.809   3.991   2.064
 5923TIP3   OH217732   2.826   4.841   4.643
 5923TIP3    H117733   2.884   4.787   4.698
 5923TIP3    H217734   2.738   4.815   4.669
 5924TIP3   OH217735   3.387   5.385   1.317
 5924TIP3    H117736   3.362   5.418   1.230
 5924TIP3    H217737   3.475   5.421   1.332
 5925TIP3   OH217738   1.867   6.237   5.656
 5925TIP3    H117739   1.915   6.244   5.574
 5925TIP3    H217740   1.895   6.154   5.694
 5926TIP3   OH217741   2.745   1.584   5.084
 5926TIP3    H117742   2.765   1.525   5.156
 5926TIP3    H217743   2.802   1.660   5.100
 5927TIP3   OH217744   0.695   3.866   4.990
 5927TIP3    H117745   0.617   3.865   4.936
 5927TIP3    H217746   0.762   3.907   4.935
 5928TIP3   OH217747   2.125   3.780   2.773
 5928TIP3    H117748   2.174   3.772   2.691
 5928TIP3    H217749   2.091   3.869   2.772
 5929TIP3   OH217750   3.137   5.205   5.900
 5929TIP3    H117751   3.104   5.202   5.810
 5929TIP3    H217752   3.172   5.293   5.910
 5930TIP3   OH217753   4.113   3.893   3.318
 5930TIP3    H117754   4.091   3.906   3.411
 5930TIP3    H217755   4.094   3.800   3.302
 5931TIP3   OH217756   4.400   5.501   5.558
 5931TIP3    H117757   4.346   5.576   5.582
 5931TIP3    H217758   4.477   5.508   5.614
 5932TIP3   OH217759   5.298   6.749   1.785
 5932TIP3    H117760   5.295   6.844   1.794
 5932TIP3    H217761   5.206   6.723   1.775
 5933TIP3   OH217762   2.045   6.012   0.767
 5933TIP3    H117763   1.977   5.982   0.707
 5933TIP3    H217764   2.038   6.108   0.766
 5934TIP3   OH217765   7.231   0.459   1.974
 5934TIP3    H117766   7.210   0.390   1.912
 5934TIP3    H217767   7.198   0.426   2.058
 5935TIP3   OH217768   0.286   3.936   3.096
 5935TIP3    H117769   0.292   3.924   3.001
 5935TIP3    H217770   0.367   3.981   3.120
 5936TIP3   OH217771   1.927   1.404   3.144
 5936TIP3    H117772   1.996   1.352   3.103
 5936TIP3    H217773   1.920   1.368   3.233
 5937TIP3   OH217774   2.471   0.167   3.196
 5937TIP3    H117775   2.399   0.106   3.178
 5937TIP3    H217776   2.547   0.111   3.211
 5938TIP3   OH217777   5.340   5.414   0.639
 5938TIP3    H117778   5.249   5.419   0.611
 5938TIP3    H217779   5.336   5.399   0.733
 5939TIP3   OH217780   2.816   1.649   0.922
 5939TIP3    H117781   2.742   1.710   0.920
 5939TIP3    H217782   2.776   1.563   0.930
 5940TIP3   OH217783   4.505   5.244   2.684
 5940TIP3    H117784   4.510   5.174   2.618
 5940TIP3    H217785   4.456   5.205   2.757
 5941TIP3   OH217786   3.566   1.047   4.114
 5941TIP3    H117787   3.585   0.956   4.138
 5941TIP3    H217788   3.500   1.041   4.045
 5942TIP3   OH217789   7.029   0.813   1.040
 5942TIP3    H117790   7.097   0.746   1.040
 5942TIP3    H217791   7.034   0.854   0.954
 5943TIP3   OH217792   2.627   0.583   5.597
 5943TIP3    H117793   2.675   0.624   5.668
 5943TIP3    H217794   2.600   0.498   5.633
 5944TIP3   OH217795   0.203   4.693   5.064
 5944TIP3    H117796   0.231   4.784   5.053
 5944TIP3    H217797   0.218   4.674   5.157
 5945TIP3   OH217798   4.188   5.560   1.520
 5945TIP3    H117799   4.127   5.486   1.519
 5945TIP3    H217800   4.142   5.628   1.569
 5946TIP3   OH217801   0.405   0.153   0.803
 5946TIP3    H117802   0.324   0.103   0.790
 5946TIP3    H217803   0.455   0.102   0.866
 5947TIP3   OH217804   4.999   6.094   0.922
 5947TIP3    H117805   5.059   6.074   0.994
 5947TIP3    H217806   4.934   6.025   0.924
 5948TIP3   OH217807   4.178   2.826   3.803
 5948TIP3    H117808   4.179   2.921   3.814
 5948TIP3    H217809   4.088   2.800   3.822
 5949TIP3   OH217810   1.429   5.054   1.975
 5949TIP3    H117811   1.366   5.009   2.032
 5949TIP3    H217812   1.507   5.065   2.030
 5950TIP3   OH217813   5.836   6.829   1.974
 5950TIP3    H117814   5.820   6.781   2.055
 5950TIP3    H217815   5.902   6.777   1.928
 5951TIP3   OH217816   4.835   6.111   5.777
 5951TIP3    H117817   4.742   6.132   5.785
 5951TIP3    H217818   4.877   6.195   5.757
 5952TIP3   OH217819   4.732   0.871   2.953
 5952TIP3    H117820   4.759   0.780   2.940
 5952TIP3    H217821   4.638   0.871   2.934
 5953TIP3   OH217822   4.762   4.557   1.827
 5953TIP3    H117823   4.669   4.532   1.823
 5953TIP3    H217824   4.787   4.541   1.918
 5954TIP3   OH217825   6.120   1.051   3.441
 5954TIP3    H117826   6.097   1.139   3.412
 5954TIP3    H217827   6.155   1.009   3.363
 5955TIP3   OH217828   5.689   1.375   1.902
 5955TIP3    H117829   5.629   1.398   1.973
 5955TIP3    H217830   5.652   1.296   1.864
 5956TIP3   OH217831   1.670   2.963   4.323
 5956TIP3    H117832   1.688   2.894   4.259
 5956TIP3    H217833   1.577   2.955   4.341
 5957TIP3   OH217834   6.009   5.937   0.189
 5957TIP3    H117835   5.920   5.902   0.200
 5957TIP3    H217836   6.045   5.889   0.115
 5958TIP3   OH217837   1.988   2.842   3.904
 5958TIP3    H117838   1.955   2.920   3.950
 5958TIP3    H217839   2.074   2.826   3.943
 5959TIP3   OH217840   6.706   3.138   1.181
 5959TIP3    H117841   6.671   3.092   1.106
 5959TIP3    H217842   6.720   3.228   1.150
 5960TIP3   OH217843   5.250   2.140   3.938
 5960TIP3    H117844   5.190   2.175   4.004
 5960TIP3    H217845   5.312   2.211   3.923
 5961TIP3   OH217846   4.769   4.715   2.607
 5961TIP3    H117847   4.820   4.658   2.664
 5961TIP3    H217848   4.723   4.774   2.667
 5962TIP3   OH217849   3.155   5.037   4.916
 5962TIP3    H117850   3.117   5.116   4.878
 5962TIP3    H217851   3.085   5.000   4.969
 5963TIP3   OH217852   6.453   1.232   3.403
 5963TIP3    H117853   6.411   1.304   3.355
 5963TIP3    H217854   6.547   1.252   3.397
 5964TIP3   OH217855   0.053   3.381   0.368
 5964TIP3    H117856   0.084   3.469   0.343
 5964TIP3    H217857   0.134   3.332   0.386
 5965TIP3   OH217858   6.907   5.590   1.689
 5965TIP3    H117859   6.935   5.664   1.744
 5965TIP3    H217860   6.845   5.628   1.627
 5966TIP3   OH217861   3.027   3.348   0.198
 5966TIP3    H117862   3.106   3.298   0.179
 5966TIP3    H217863   2.957   3.300   0.153
 5967TIP3   OH217864   6.311   0.994   3.944
 5967TIP3    H117865   6.359   1.077   3.941
 5967TIP3    H217866   6.293   0.973   3.852
 5968TIP3   OH217867   0.634   3.341   2.948
 5968TIP3    H117868   0.557   3.289   2.969
 5968TIP3    H217869   0.600   3.426   2.923
 5969TIP3   OH217870   1.574   3.993   4.614
 5969TIP3    H117871   1.639   4.061   4.596
 5969TIP3    H217872   1.602   3.955   4.697
 5970TIP3   OH217873   2.594   5.145   0.087
 5970TIP3    H117874   2.605   5.227   0.039
 5970TIP3    H217875   2.568   5.082   0.021
 5971TIP3   OH217876   6.310   2.517   4.535
 5971TIP3    H117877   6.397   2.554   4.555
 5971TIP3    H217878   6.317   2.424   4.558
 5972TIP3   OH217879   0.581   4.722   0.468
 5972TIP3    H117880   0.584   4.817   0.477
 5972TIP3    H217881   0.498   4.696   0.508
 5973TIP3   OH217882   2.111   0.190   4.004
 5973TIP3    H117883   2.113   0.285   4.015
 5973TIP3    H217884   2.159   0.174   3.923
 5974TIP3   OH217885   5.195   5.802   4.834
 5974TIP3    H117886   5.177   5.855   4.912
 5974TIP3    H217887   5.240   5.725   4.868
 5975TIP3   OH217888   2.750   4.511   0.342
 5975TIP3    H117889   2.719   4.602   0.342
 5975TIP3    H217890   2.836   4.516   0.382
 5976TIP3   OH217891   5.676   6.380   0.581
 5976TIP3    H117892   5.711   6.365   0.493
 5976TIP3    H217893   5.742   6.342   0.639
 5977TIP3   OH217894   1.877   5.079   0.539
 5977TIP3    H117895   1.820   5.157   0.539
 5977TIP3    H217896   1.872   5.047   0.449
 5978TIP3   OH217897   3.847   3.505   0.782
 5978TIP3    H117898   3.894   3.516   0.700
 5978TIP3    H217899   3.897   3.440   0.831
 5979TIP3   OH217900   6.626   1.441   5.046
 5979TIP3    H117901   6.552   1.416   4.991
 5979TIP3    H217902   6.601   1.415   5.134
 5980TIP3   OH217903   0.848   1.101   1.088
 5980TIP3    H117904   0.806   1.030   1.039
 5980TIP3    H217905   0.822   1.086   1.179
 5981TIP3   OH217906   0.882   0.960   3.210
 5981TIP3    H117907   0.853   0.915   3.289
 5981TIP3    H217908   0.831   1.041   3.208
 5982TIP3   OH217909   0.848   5.561   3.487
 5982TIP3    H117910   0.915   5.524   3.546
 5982TIP3    H217911   0.855   5.655   3.500
 5983TIP3   OH217912   4.871   1.043   4.731
 5983TIP3    H117913   4.783   1.029   4.766
 5983TIP3    H217914   4.899   0.957   4.701
 5984TIP3   OH217915   6.107   0.097   3.514
 5984TIP3    H117916   6.038   0.088   3.448
 5984TIP3    H217917   6.084   0.033   3.581
 5985TIP3   OH217918   3.191   4.535   1.108
 5985TIP3    H117919   3.154   4.564   1.024
 5985TIP3    H217920   3.119   4.488   1.150
 5986TIP3   OH217921   3.190   1.578   3.331
 5986TIP3    H117922   3.277   1.610   3.355
 5986TIP3    H217923   3.206   1.495   3.287
 5987TIP3   OH217924   3.942   1.042   4.311
 5987TIP3    H117925   3.940   0.999   4.396
 5987TIP3    H217926   3.872   1.107   4.314
 5988TIP3   OH217927   6.938   4.637   5.239
 5988TIP3    H117928   6.980   4.650   5.154
 5988TIP3    H217929   6.924   4.726   5.272
 5989TIP3   OH217930   4.842   6.671   4.708
 5989TIP3    H117931   4.782   6.644   4.639
 5989TIP3    H217932   4.825   6.611   4.780
 5990TIP3   OH217933   1.594   3.034   3.558
 5990TIP3    H117934   1.656   2.962   3.561
 5990TIP3    H217935   1.571   3.042   3.465
 5991TIP3   OH217936   2.324   0.646   0.187
 5991TIP3    H117937   2.312   0.704   0.112
 5991TIP3    H217938   2.276   0.689   0.258
 5992TIP3   OH217939   3.117   0.554   4.326
 5992TIP3    H117940   3.168   0.555   4.406
 5992TIP3    H217941   3.103   0.460   4.308
 5993TIP3   OH217942   6.067   3.218   1.041
 5993TIP3    H117943   6.130   3.230   1.112
 5993TIP3    H217944   6.037   3.306   1.020
 5994TIP3   OH217945   6.181   1.875   0.661
 5994TIP3    H117946   6.272   1.906   0.662
 5994TIP3    H217947   6.170   1.834   0.576
 5995TIP3   OH217948   2.454   1.478   1.618
 5995TIP3    H117949   2.541   1.451   1.589
 5995TIP3    H217950   2.396   1.407   1.589
 5996TIP3   OH217951   6.918   0.550   0.370
 5996TIP3    H117952   6.947   0.486   0.436
 5996TIP3    H217953   6.938   0.635   0.409
 5997TIP3   OH217954   1.072   5.420   3.260
 5997TIP3    H117955   1.045   5.432   3.351
 5997TIP3    H217956   1.156   5.375   3.266
 5998TIP3   OH217957   3.028   5.819   2.486
 5998TIP3    H117958   2.964   5.877   2.445
 5998TIP3    H217959   3.084   5.790   2.414
 5999TIP3   OH217960   0.956   4.838   1.094
 5999TIP3    H117961   0.943   4.761   1.149
 5999TIP3    H217962   0.954   4.805   1.005
 6000TIP3   OH217963   2.133   6.133   5.010
 6000TIP3    H117964   2.065   6.128   4.943
 6000TIP3    H217965   2.121   6.218   5.051
 6001TIP3   OH217966   0.079   3.358   2.617
 6001TIP3    H117967   0.089   3.334   2.709
 6001TIP3    H217968   0.168   3.376   2.586
 6002TIP3   OH217969   3.768   5.829   5.344
 6002TIP3    H117970   3.826   5.886   5.293
 6002TIP3    H217971   3.825   5.757   5.373
 6003TIP3   OH217972   2.879   3.444   0.507
 6003TIP3    H117973   2.960   3.471   0.550
 6003TIP3    H217974   2.809   3.478   0.563
 6004TIP3   OH217975   0.292   1.176   3.213
 6004TIP3    H117976   0.386   1.172   3.233
 6004TIP3    H217977   0.278   1.267   3.184
 6005TIP3   OH217978   1.811   5.357   1.647
 6005TIP3    H117979   1.849   5.356   1.736
 6005TIP3    H217980   1.832   5.444   1.613
 6006TIP3   OH217981   0.245   1.934   3.678
 6006TIP3    H117982   0.154   1.958   3.694
 6006TIP3    H217983   0.280   2.007   3.627
 6007TIP3   OH217984   3.172   6.687   3.388
 6007TIP3    H117985   3.160   6.700   3.294
 6007TIP3    H217986   3.198   6.595   3.395
 6008TIP3   OH217987   5.841   0.804   1.975
 6008TIP3    H117988   5.831   0.747   2.051
 6008TIP3    H217989   5.787   0.881   1.995
 6009TIP3   OH217990   6.576   0.585   4.658
 6009TIP3    H117991   6.535   0.659   4.613
 6009TIP3    H217992   6.633   0.626   4.723
 6010TIP3   OH217993   2.458   2.809   0.855
 6010TIP3    H117994   2.426   2.725   0.890
 6010TIP3    H217995   2.384   2.868   0.866
 6011TIP3   OH217996   2.872   6.775   5.827
 6011TIP3    H117997   2.857   6.750   5.918
 6011TIP3    H217998   2.817   6.715   5.776
 6012TIP3   OH217999   5.609   3.457   2.201
 6012TIP3    H118000   5.532   3.463   2.144
 6012TIP3    H218001   5.671   3.519   2.163
 6013TIP3   OH218002   6.101   1.534   0.166
 6013TIP3    H118003   6.062   1.512   0.082
 6013TIP3    H218004   6.103   1.451   0.214
 6014TIP3   OH218005   1.340   4.575   5.505
 6014TIP3    H118006   1.432   4.550   5.513
 6014TIP3    H218007   1.340   4.671   5.505
 6015TIP3   OH218008   0.127   2.900   0.784
 6015TIP3    H118009   0.151   2.962   0.853
 6015TIP3    H218010   0.210   2.865   0.753
 6016TIP3   OH218011   4.218   5.409   4.981
 6016TIP3    H118012   4.240   5.466   5.054
 6016TIP3    H218013   4.131   5.376   5.002
 6017TIP3   OH218014   4.311   4.401   3.540
 6017TIP3    H118015   4.306   4.441   3.453
 6017TIP3    H218016   4.270   4.464   3.598
 6018TIP3   OH218017   0.053   4.332   1.052
 6018TIP3    H118018   0.099   4.303   0.974
 6018TIP3    H218019  -0.033   4.289   1.047
 6019TIP3   OH218020   7.150   1.106   2.256
 6019TIP3    H118021   7.109   1.020   2.247
 6019TIP3    H218022   7.112   1.158   2.186
 6020TIP3   OH218023   5.778   4.522   4.059
 6020TIP3    H118024   5.752   4.522   3.967
 6020TIP3    H218025   5.718   4.460   4.101
 6021TIP3   OH218026   4.099   0.801   5.669
 6021TIP3    H118027   4.013   0.837   5.689
 6021TIP3    H218028   4.094   0.710   5.701
 6022TIP3   OH218029   6.788   5.348   0.439
 6022TIP3    H118030   6.755   5.428   0.480
 6022TIP3    H218031   6.711   5.306   0.402
 6023TIP3   OH218032   2.157   6.203   2.728
 6023TIP3    H118033   2.206   6.285   2.737
 6023TIP3    H218034   2.115   6.191   2.813
 6024TIP3   OH218035   3.192   6.594   0.364
 6024TIP3    H118036   3.153   6.682   0.366
 6024TIP3    H218037   3.126   6.538   0.405
 6025TIP3   OH218038   2.264   5.644   5.169
 6025TIP3    H118039   2.192   5.680   5.117
 6025TIP3    H218040   2.317   5.594   5.106
 6026TIP3   OH218041   1.140   0.129   2.710
 6026TIP3    H118042   1.178   0.212   2.737
 6026TIP3    H218043   1.128   0.080   2.792
 6027TIP3   OH218044   1.296   2.256   2.518
 6027TIP3    H118045   1.332   2.175   2.482
 6027TIP3    H218046   1.206   2.233   2.543
 6028TIP3   OH218047   4.886   2.757   1.180
 6028TIP3    H118048   4.854   2.835   1.225
 6028TIP3    H218049   4.817   2.736   1.117
 6029TIP3   OH218050   6.457   1.233   3.975
 6029TIP3    H118051   6.467   1.246   3.881
 6029TIP3    H218052   6.473   1.320   4.013
 6030TIP3   OH218053   5.278   1.890   0.998
 6030TIP3    H118054   5.293   1.981   0.973
 6030TIP3    H218055   5.188   1.873   0.974
 6031TIP3   OH218056   3.562   5.068   0.665
 6031TIP3    H118057   3.542   5.009   0.593
 6031TIP3    H218058   3.657   5.065   0.673
 6032TIP3   OH218059   2.184   0.140   4.380
 6032TIP3    H118060   2.266   0.105   4.347
 6032TIP3    H218061   2.197   0.235   4.382
 6033TIP3   OH218062   7.032   0.915   2.764
 6033TIP3    H118063   7.032   0.824   2.794
 6033TIP3    H218064   7.008   0.909   2.671
 6034TIP3   OH218065   2.184   6.081   2.485
 6034TIP3    H118066   2.147   6.112   2.568
 6034TIP3    H218067   2.165   5.987   2.484
 6035TIP3   OH218068   2.031   5.434   5.085
 6035TIP3    H118069   2.095   5.466   5.149
 6035TIP3    H218070   1.947   5.447   5.128
 6036TIP3   OH218071   1.195   5.215   3.509
 6036TIP3    H118072   1.276   5.243   3.467
 6036TIP3    H218073   1.179   5.127   3.475
 6037TIP3   OH218074   0.311  -0.005   4.445
 6037TIP3    H118075   0.288   0.013   4.536
 6037TIP3    H218076   0.342   0.079   4.410
 6038TIP3   OH218077   4.344   4.655   2.124
 6038TIP3    H118078   4.323   4.582   2.182
 6038TIP3    H218079   4.415   4.701   2.168
 6039TIP3   OH218080   6.154   5.153   2.656
 6039TIP3    H118081   6.102   5.233   2.662
 6039TIP3    H218082   6.164   5.138   2.562
 6040TIP3   OH218083   0.182   4.931   3.224
 6040TIP3    H118084   0.266   4.965   3.191
 6040TIP3    H218085   0.185   4.837   3.206
 6041TIP3   OH218086   4.098   6.603   5.160
 6041TIP3    H118087   4.074   6.516   5.130
 6041TIP3    H218088   4.092   6.598   5.255
 6042TIP3   OH218089   3.007   3.755   4.945
 6042TIP3    H118090   2.970   3.704   4.873
 6042TIP3    H218091   3.101   3.739   4.939
 6043TIP3   OH218092   3.543   5.064   0.044
 6043TIP3    H118093   3.604   5.008   0.092
 6043TIP3    H218094   3.534   5.142   0.099
 6044TIP3   OH218095   4.345   5.476   4.741
 6044TIP3    H118096   4.306   5.433   4.817
 6044TIP3    H218097   4.275   5.479   4.676
 6045TIP3   OH218098   5.629   2.997   4.109
 6045TIP3    H118099   5.712   3.031   4.077
 6045TIP3    H218100   5.562   3.048   4.063
 6046TIP3   OH218101   3.516   5.875  -0.038
 6046TIP3    H118102   3.515   5.959   0.008
 6046TIP3    H218103   3.548   5.813   0.026
 6047TIP3   OH218104   5.555   3.836   2.761
 6047TIP3    H118105   5.524   3.748   2.739
 6047TIP3    H218106   5.475   3.888   2.772
 6048TIP3   OH218107   5.522   3.709   0.338
 6048TIP3    H118108   5.475   3.676   0.415
 6048TIP3    H218109   5.581   3.776   0.373
 6049TIP3   OH218110   2.284   3.760   1.002
 6049TIP3    H118111   2.318   3.784   0.916
 6049TIP3    H218112   2.294   3.840   1.054
 6050TIP3   OH218113   6.383   4.027   5.445
 6050TIP3    H118114   6.306   4.085   5.442
 6050TIP3    H218115   6.427   4.042   5.362
 6051TIP3   OH218116   0.653   5.518   2.163
 6051TIP3    H118117   0.618   5.491   2.079
 6051TIP3    H218118   0.747   5.504   2.157
 6052TIP3   OH218119   0.037   2.241   0.893
 6052TIP3    H118120   0.122   2.207   0.864
 6052TIP3    H218121   0.022   2.198   0.977
 6053TIP3   OH218122   5.319   5.353   3.463
 6053TIP3    H118123   5.255   5.321   3.526
 6053TIP3    H218124   5.384   5.398   3.516
 6054TIP3   OH218125   4.663   2.537   2.554
 6054TIP3    H118126   4.698   2.448   2.543
 6054TIP3    H218127   4.600   2.547   2.483
 6055TIP3   OH218128   2.644   1.447   0.844
 6055TIP3    H118129   2.625   1.362   0.805
 6055TIP3    H218130   2.576   1.505   0.810
 6056TIP3   OH218131   1.995   5.375   4.046
 6056TIP3    H118132   2.083   5.347   4.073
 6056TIP3    H218133   1.945   5.378   4.127
 6057TIP3   OH218134   1.198   6.740   2.783
 6057TIP3    H118135   1.283   6.776   2.758
 6057TIP3    H218136   1.207   6.645   2.769
 6058TIP3   OH218137   3.010   0.688   1.350
 6058TIP3    H118138   3.027   0.594   1.352
 6058TIP3    H218139   2.917   0.696   1.375
 6059TIP3   OH218140   5.302   6.020   4.283
 6059TIP3    H118141   5.280   6.042   4.374
 6059TIP3    H218142   5.233   6.060   4.231
 6060TIP3   OH218143   4.290   3.403   3.786
 6060TIP3    H118144   4.245   3.477   3.745
 6060TIP3    H218145   4.354   3.443   3.845
 6061TIP3   OH218146   3.471   2.400   3.808
 6061TIP3    H118147   3.515   2.407   3.724
 6061TIP3    H218148   3.392   2.454   3.798
 6062TIP3   OH218149   3.730   0.917   2.483
 6062TIP3    H118150   3.784   0.990   2.453
 6062TIP3    H218151   3.737   0.852   2.413
 6063TIP3   OH218152   5.724   2.607   5.811
 6063TIP3    H118153   5.743   2.626   5.719
 6063TIP3    H218154   5.640   2.561   5.810
 6064TIP3   OH218155   6.616   5.238   1.703
 6064TIP3    H118156   6.555   5.291   1.651
 6064TIP3    H218157   6.572   5.226   1.787
 6065TIP3   OH218158   6.639   0.412   1.456
 6065TIP3    H118159   6.593   0.339   1.497
 6065TIP3    H218160   6.732   0.390   1.465
 6066TIP3   OH218161   2.043   2.465   2.372
 6066TIP3    H118162   2.022   2.523   2.445
 6066TIP3    H218163   2.133   2.438   2.388
 6067TIP3   OH218164   1.297   5.343   0.388
 6067TIP3    H118165   1.273   5.382   0.304
 6067TIP3    H218166   1.340   5.261   0.366
 6068TIP3   OH218167   6.211   3.990   5.696
 6068TIP3    H118168   6.124   4.018   5.667
 6068TIP3    H218169   6.208   3.995   5.791
 6069TIP3   OH218170   3.112   3.114   5.047
 6069TIP3    H118171   3.039   3.177   5.042
 6069TIP3    H218172   3.073   3.035   5.082
 6070TIP3   OH218173   1.324   5.307   3.138
 6070TIP3    H118174   1.342   5.337   3.049
 6070TIP3    H218175   1.267   5.231   3.126
 6071TIP3   OH218176   1.081   4.734   0.277
 6071TIP3    H118177   1.098   4.815   0.324
 6071TIP3    H218178   1.029   4.760   0.201
 6072TIP3   OH218179   0.166   5.926   4.208
 6072TIP3    H118180   0.140   6.014   4.234
 6072TIP3    H218181   0.111   5.905   4.133
 6073TIP3   OH218182   5.727   5.291   2.756
 6073TIP3    H118183   5.644   5.266   2.716
 6073TIP3    H218184   5.792   5.275   2.689
 6074TIP3   OH218185   4.524   3.198   1.692
 6074TIP3    H118186   4.437   3.189   1.652
 6074TIP3    H218187   4.507   3.238   1.777
 6075TIP3   OH218188   1.031   1.510   0.367
 6075TIP3    H118189   1.117   1.484   0.400
 6075TIP3    H218190   0.984   1.427   0.356
 6076TIP3   OH218191   4.696   1.351   0.754
 6076TIP3    H118192   4.708   1.290   0.827
 6076TIP3    H218193   4.613   1.395   0.773
 6077TIP3   OH218194   3.218   3.621   2.877
 6077TIP3    H118195   3.131   3.586   2.896
 6077TIP3    H218196   3.277   3.568   2.931
 6078TIP3   OH218197   4.341   1.389   3.586
 6078TIP3    H118198   4.375   1.374   3.498
 6078TIP3    H218199   4.278   1.318   3.600
 6079TIP3   OH218200   2.996   4.285   1.788
 6079TIP3    H118201   3.031   4.199   1.808
 6079TIP3    H218202   2.901   4.273   1.787
 6080TIP3   OH218203   0.361   1.823   1.794
 6080TIP3    H118204   0.435   1.779   1.835
 6080TIP3    H218205   0.286   1.766   1.814
 6081TIP3   OH218206   4.417   6.471   4.817
 6081TIP3    H118207   4.395   6.378   4.811
 6081TIP3    H218208   4.381   6.509   4.737
 6082TIP3   OH218209   3.054   1.683   4.860
 6082TIP3    H118210   3.059   1.610   4.798
 6082TIP3    H218211   3.074   1.760   4.806
 6083TIP3   OH218212   2.988   4.717   1.421
 6083TIP3    H118213   3.067   4.680   1.461
 6083TIP3    H218214   3.017   4.752   1.337
 6084TIP3   OH218215   1.826   5.865   1.507
 6084TIP3    H118216   1.851   5.795   1.447
 6084TIP3    H218217   1.753   5.829   1.558
 6085TIP3   OH218218   6.168   2.556   4.840
 6085TIP3    H118219   6.249   2.606   4.829
 6085TIP3    H218220   6.196   2.465   4.844
 6086TIP3   OH218221   2.515   4.495   4.235
 6086TIP3    H118222   2.579   4.557   4.201
 6086TIP3    H218223   2.485   4.447   4.158
 6087TIP3   OH218224   5.637   5.236   1.568
 6087TIP3    H118225   5.647   5.178   1.644
 6087TIP3    H218226   5.569   5.195   1.515
 6088TIP3   OH218227   5.667   4.782   1.881
 6088TIP3    H118228   5.596   4.773   1.944
 6088TIP3    H218229   5.733   4.720   1.909
 6089TIP3   OH218230   4.460   5.560   0.912
 6089TIP3    H118231   4.516   5.611   0.854
 6089TIP3    H218232   4.520   5.501   0.959
 6090TIP3   OH218233   7.125   5.807   5.075
 6090TIP3    H118234   7.183   5.758   5.132
 6090TIP3    H218235   7.119   5.754   4.995
 6091TIP3   OH218236   0.956   1.543   4.803
 6091TIP3    H118237   0.874   1.494   4.813
 6091TIP3    H218238   0.943   1.596   4.724
 6092TIP3   OH218239   6.055   1.301   2.858
 6092TIP3    H118240   6.083   1.283   2.948
 6092TIP3    H218241   6.102   1.236   2.805
 6093TIP3   OH218242   3.838   5.974   0.067
 6093TIP3    H118243   3.914   5.949   0.120
 6093TIP3    H218244   3.857   5.939  -0.020
 6094TIP3   OH218245   5.724   3.820   1.782
 6094TIP3    H118246   5.816   3.806   1.762
 6094TIP3    H218247   5.716   3.800   1.875
 6095TIP3   OH218248   2.388   5.810   5.351
 6095TIP3    H118249   2.459   5.750   5.373
 6095TIP3    H218250   2.331   5.760   5.292
 6096TIP3   OH218251   4.848   2.485   3.517
 6096TIP3    H118252   4.855   2.519   3.607
 6096TIP3    H218253   4.858   2.562   3.462
 6097TIP3   OH218254   1.702   5.833   5.385
 6097TIP3    H118255   1.749   5.750   5.385
 6097TIP3    H218256   1.771   5.900   5.388
 6098TIP3   OH218257   4.492   4.869   3.651
 6098TIP3    H118258   4.483   4.949   3.703
 6098TIP3    H218259   4.417   4.815   3.677
 6099TIP3   OH218260   3.911   3.242   2.721
 6099TIP3    H118261   3.951   3.214   2.803
 6099TIP3    H218262   3.841   3.178   2.706
 6100TIP3   OH218263   1.369   4.317   0.216
 6100TIP3    H118264   1.390   4.410   0.205
 6100TIP3    H218265   1.312   4.297   0.142
 6101TIP3   OH218266   6.863   4.624   1.999
 6101TIP3    H118267   6.928   4.602   1.933
 6101TIP3    H218268   6.906   4.690   2.053
 6102TIP3   OH218269   3.674   6.131   2.433
 6102TIP3    H118270   3.691   6.098   2.521
 6102TIP3    H218271   3.692   6.057   2.376
 6103TIP3   OH218272   4.248   6.634   0.063
 6103TIP3    H118273   4.215   6.599  -0.020
 6103TIP3    H218274   4.169   6.647   0.116
 6104TIP3   OH218275   1.447   3.095   0.956
 6104TIP3    H118276   1.459   3.013   1.004
 6104TIP3    H218277   1.501   3.085   0.877
 6105TIP3   OH218278   3.924   1.941   5.452
 6105TIP3    H118279   3.961   1.929   5.540
 6105TIP3    H218280   3.833   1.913   5.461
 6106TIP3   OH218281  -0.027   5.692   3.750
 6106TIP3    H118282   0.064   5.719   3.763
 6106TIP3    H218283  -0.050   5.725   3.663
 6107TIP3   OH218284   5.470   4.338   3.051
 6107TIP3    H118285   5.435   4.426   3.063
 6107TIP3    H218286   5.438   4.311   2.965
 6108TIP3   OH218287   2.408   2.368   4.532
 6108TIP3    H118288   2.313   2.374   4.520
 6108TIP3    H218289   2.435   2.458   4.549
 6109TIP3   OH218290   4.283   3.919   4.752
 6109TIP3    H118291   4.303   3.891   4.842
 6109TIP3    H218292   4.354   3.882   4.700
 6110TIP3   OH218293   6.469   3.250   5.201
 6110TIP3    H118294   6.515   3.292   5.128
 6110TIP3    H218295   6.390   3.213   5.161
 6111TIP3   OH218296   0.981   3.316   1.623
 6111TIP3    H118297   0.984   3.221   1.634
 6111TIP3    H218298   0.948   3.348   1.707
 6112TIP3   OH218299   1.666   5.091   5.567
 6112TIP3    H118300   1.608   5.024   5.604
 6112TIP3    H218301   1.752   5.050   5.566
 6113TIP3   OH218302   6.967   2.334   5.040
 6113TIP3    H118303   7.039   2.322   4.977
 6113TIP3    H218304   7.002   2.304   5.123
 6114TIP3   OH218305   4.299   0.197   3.921
 6114TIP3    H118306   4.282   0.283   3.960
 6114TIP3    H218307   4.344   0.149   3.990
 6115TIP3   OH218308   2.715   3.434   1.501
 6115TIP3    H118309   2.804   3.431   1.465
 6115TIP3    H218310   2.723   3.391   1.586
 6116TIP3   OH218311   4.231   4.349   0.053
 6116TIP3    H118312   4.309   4.393   0.022
 6116TIP3    H218313   4.191   4.410   0.115
 6117TIP3   OH218314   7.096   3.310   3.586
 6117TIP3    H118315   7.156   3.240   3.612
 6117TIP3    H218316   7.153   3.384   3.564
 6118TIP3   OH218317   0.321   4.064   3.930
 6118TIP3    H118318   0.365   3.990   3.972
 6118TIP3    H218319   0.233   4.031   3.911
 6119TIP3   OH218320   6.389   1.555   5.737
 6119TIP3    H118321   6.324   1.549   5.807
 6119TIP3    H218322   6.347   1.610   5.670
 6120TIP3   OH218323   1.180   5.370   0.614
 6120TIP3    H118324   1.243   5.373   0.542
 6120TIP3    H218325   1.106   5.320   0.580
 6121TIP3   OH218326   3.432   0.317   2.732
 6121TIP3    H118327   3.415   0.310   2.825
 6121TIP3    H218328   3.346   0.314   2.691
 6122TIP3   OH218329   7.102   2.161   5.635
 6122TIP3    H118330   7.174   2.110   5.597
 6122TIP3    H218331   7.048   2.097   5.681
 6123TIP3   OH218332   5.348   5.692   5.826
 6123TIP3    H118333   5.311   5.650   5.748
 6123TIP3    H218334   5.422   5.744   5.793
 6124TIP3   OH218335   6.467   5.034   4.369
 6124TIP3    H118336   6.412   4.966   4.407
 6124TIP3    H218337   6.546   5.035   4.422
 6125TIP3   OH218338   4.578   5.011   5.113
 6125TIP3    H118339   4.635   4.982   5.041
 6125TIP3    H218340   4.492   5.023   5.072
 6126TIP3   OH218341   5.582   0.708   0.484
 6126TIP3    H118342   5.495   0.671   0.499
 6126TIP3    H218343   5.631   0.638   0.440
 6127TIP3   OH218344   6.339   5.212   1.292
 6127TIP3    H118345   6.355   5.248   1.205
 6127TIP3    H218346   6.256   5.251   1.319
 6128TIP3   OH218347   2.913   2.740   3.048
 6128TIP3    H118348   2.908   2.729   2.953
 6128TIP3    H218349   2.894   2.833   3.062
 6129TIP3   OH218350   3.516   0.351   1.803
 6129TIP3    H118351   3.526   0.306   1.719
 6129TIP3    H218352   3.600   0.393   1.819
 6130TIP3   OH218353   3.697   0.308   3.816
 6130TIP3    H118354   3.757   0.234   3.821
 6130TIP3    H218355   3.695   0.331   3.724
 6131TIP3   OH218356   3.018   3.031   3.649
 6131TIP3    H118357   2.932   3.059   3.679
 6131TIP3    H218358   3.077   3.102   3.677
 6132TIP3   OH218359   6.053   4.651   3.273
 6132TIP3    H118360   6.113   4.592   3.319
 6132TIP3    H218361   6.076   4.641   3.181
 6133TIP3   OH218362   2.827   0.898   1.142
 6133TIP3    H118363   2.826   0.983   1.186
 6133TIP3    H218364   2.789   0.837   1.206
 6134TIP3   OH218365   4.809   0.386   1.395
 6134TIP3    H118366   4.790   0.450   1.328
 6134TIP3    H218367   4.751   0.312   1.376
 6135TIP3   OH218368   4.584   2.162   0.813
 6135TIP3    H118369   4.541   2.076   0.820
 6135TIP3    H218370   4.641   2.154   0.737
 6136TIP3   OH218371   5.408   5.557   4.455
 6136TIP3    H118372   5.430   5.631   4.513
 6136TIP3    H218373   5.492   5.514   4.439
 6137TIP3   OH218374   6.787   6.416   3.061
 6137TIP3    H118375   6.733   6.494   3.068
 6137TIP3    H218376   6.741   6.350   3.113
 6138TIP3   OH218377   2.531   3.609   0.238
 6138TIP3    H118378   2.519   3.558   0.159
 6138TIP3    H218379   2.452   3.595   0.289
 6139TIP3   OH218380   4.055   3.526   3.978
 6139TIP3    H118381   4.032   3.434   3.991
 6139TIP3    H218382   3.994   3.575   4.033
 6140TIP3   OH218383   2.776   5.736   2.788
 6140TIP3    H118384   2.761   5.818   2.741
 6140TIP3    H218385   2.697   5.684   2.771
 6141TIP3   OH218386   1.010   6.136   5.452
 6141TIP3    H118387   0.943   6.075   5.484
 6141TIP3    H218388   0.970   6.176   5.374
 6142TIP3   OH218389   1.444   4.737   1.793
 6142TIP3    H118390   1.478   4.825   1.783
 6142TIP3    H218391   1.504   4.682   1.742
 6143TIP3   OH218392   6.711   0.284   0.984
 6143TIP3    H118393   6.647   0.216   0.965
 6143TIP3    H218394   6.757   0.253   1.062
 6144TIP3   OH218395   2.584   6.481   0.733
 6144TIP3    H118396   2.495   6.508   0.710
 6144TIP3    H218397   2.590   6.391   0.703
 6145TIP3   OH218398   6.461   3.369   0.517
 6145TIP3    H118399   6.556   3.372   0.526
 6145TIP3    H218400   6.427   3.391   0.604
 6146TIP3   OH218401   4.178   0.156   0.400
 6146TIP3    H118402   4.165   0.204   0.319
 6146TIP3    H218403   4.219   0.220   0.459
 6147TIP3   OH218404   2.235   3.606   0.335
 6147TIP3    H118405   2.189   3.554   0.269
 6147TIP3    H218406   2.199   3.694   0.326
 6148TIP3   OH218407   5.089   6.036   2.088
 6148TIP3    H118408   5.181   6.059   2.103
 6148TIP3    H218409   5.062   5.991   2.168
 6149TIP3   OH218410   0.967   2.804   2.520
 6149TIP3    H118411   1.051   2.836   2.550
 6149TIP3    H218412   0.903   2.867   2.555
 6150TIP3   OH218413   3.218   4.695   4.417
 6150TIP3    H118414   3.249   4.749   4.344
 6150TIP3    H218415   3.217   4.754   4.492
 6151TIP3   OH218416   3.609   2.497   2.027
 6151TIP3    H118417   3.624   2.475   1.935
 6151TIP3    H218418   3.644   2.586   2.036
 6152TIP3   OH218419   6.054   3.717   3.169
 6152TIP3    H118420   5.967   3.685   3.192
 6152TIP3    H218421   6.077   3.668   3.090
 6153TIP3   OH218422   3.682   1.927   4.119
 6153TIP3    H118423   3.681   1.915   4.214
 6153TIP3    H218424   3.689   1.837   4.085
 6154TIP3   OH218425   1.029   2.592   1.575
 6154TIP3    H118426   1.071   2.660   1.627
 6154TIP3    H218427   0.942   2.582   1.615
 6155TIP3   OH218428   1.797   5.265   3.227
 6155TIP3    H118429   1.754   5.205   3.288
 6155TIP3    H218430   1.790   5.351   3.269
 6156TIP3   OH218431   0.215   3.423   3.814
 6156TIP3    H118432   0.227   3.513   3.783
 6156TIP3    H218433   0.269   3.418   3.893
 6157TIP3   OH218434   4.654   4.175   2.383
 6157TIP3    H118435   4.644   4.136   2.296
 6157TIP3    H218436   4.578   4.231   2.394
 6158TIP3   OH218437   6.090   0.921   5.488
 6158TIP3    H118438   6.138   1.003   5.477
 6158TIP3    H218439   6.144   0.870   5.549
 6159TIP3   OH218440   4.955   3.139   0.036
 6159TIP3    H118441   4.926   3.188   0.113
 6159TIP3    H218442   5.020   3.077   0.070
 6160TIP3   OH218443   2.705   2.077   3.189
 6160TIP3    H118444   2.749   2.016   3.248
 6160TIP3    H218445   2.719   2.041   3.101
 6161TIP3   OH218446   3.547   0.139   3.188
 6161TIP3    H118447   3.608   0.135   3.114
 6161TIP3    H218448   3.478   0.198   3.159
 6162TIP3   OH218449   3.836   4.489   4.129
 6162TIP3    H118450   3.828   4.402   4.169
 6162TIP3    H218451   3.826   4.550   4.202
 6163TIP3   OH218452   3.726   3.134   1.053
 6163TIP3    H118453   3.759   3.200   1.114
 6163TIP3    H218454   3.792   3.131   0.983
 6164TIP3   OH218455   3.992   2.882   2.592
 6164TIP3    H118456   3.910   2.859   2.549
 6164TIP3    H218457   4.048   2.915   2.522
 6165TIP3   OH218458   0.174   0.868   0.606
 6165TIP3    H118459   0.114   0.794   0.617
 6165TIP3    H218460   0.120   0.936   0.565
 6166TIP3   OH218461   5.423   5.997   2.390
 6166TIP3    H118462   5.365   6.011   2.464
 6166TIP3    H218463   5.492   5.941   2.424
 6167TIP3   OH218464   3.726   4.152   0.900
 6167TIP3    H118465   3.745   4.168   0.992
 6167TIP3    H218466   3.686   4.065   0.898
 6168TIP3   OH218467   7.039   3.045   0.929
 6168TIP3    H118468   6.995   3.025   1.012
 6168TIP3    H218469   7.090   2.967   0.910
 6169TIP3   OH218470   1.135   0.695   4.604
 6169TIP3    H118471   1.075   0.761   4.638
 6169TIP3    H218472   1.161   0.728   4.518
 6170TIP3   OH218473   3.243   3.806   4.577
 6170TIP3    H118474   3.200   3.727   4.609
 6170TIP3    H218475   3.330   3.777   4.551
 6171TIP3   OH218476   2.500   2.193   5.605
 6171TIP3    H118477   2.487   2.143   5.524
 6171TIP3    H218478   2.423   2.172   5.658
 6172TIP3   OH218479   3.891   6.544   3.574
 6172TIP3    H118480   3.866   6.454   3.597
 6172TIP3    H218481   3.819   6.575   3.520
 6173TIP3   OH218482   4.301   3.918   2.596
 6173TIP3    H118483   4.251   3.867   2.659
 6173TIP3    H218484   4.235   3.967   2.547
 6174TIP3   OH218485   0.782   3.177   2.753
 6174TIP3    H118486   0.756   3.226   2.830
 6174TIP3    H218487   0.866   3.137   2.777
 6175TIP3   OH218488   1.955   2.772   2.466
 6175TIP3    H118489   1.869   2.799   2.434
 6175TIP3    H218490   1.936   2.718   2.543
 6176TIP3   OH218491   2.553   5.312   5.640
 6176TIP3    H118492   2.477   5.340   5.590
 6176TIP3    H218493   2.553   5.216   5.633
 6177TIP3   OH218494   6.642   2.277   1.637
 6177TIP3    H118495   6.711   2.238   1.583
 6177TIP3    H218496   6.605   2.347   1.582
 6178TIP3   OH218497   6.310   1.038   1.482
 6178TIP3    H118498   6.247   1.107   1.460
 6178TIP3    H218499   6.389   1.062   1.432
 6179TIP3   OH218500   6.267   0.457   4.074
 6179TIP3    H118501   6.250   0.488   4.163
 6179TIP3    H218502   6.362   0.453   4.067
 6180TIP3   OH218503   3.232   5.238   3.660
 6180TIP3    H118504   3.196   5.327   3.666
 6180TIP3    H218505   3.244   5.211   3.751
 6181TIP3   OH218506   6.530   3.857   1.482
 6181TIP3    H118507   6.439   3.829   1.475
 6181TIP3    H218508   6.566   3.803   1.552
 6182TIP3   OH218509   1.667   1.489   5.470
 6182TIP3    H118510   1.717   1.420   5.514
 6182TIP3    H218511   1.729   1.562   5.463
 6183TIP3   OH218512   6.421   4.195   0.112
 6183TIP3    H118513   6.388   4.143   0.185
 6183TIP3    H218514   6.433   4.132   0.041
 6184TIP3   OH218515   1.718   5.299   3.670
 6184TIP3    H118516   1.708   5.252   3.753
 6184TIP3    H218517   1.812   5.292   3.651
 6185TIP3   OH218518   2.486   1.339   2.405
 6185TIP3    H118519   2.404   1.338   2.455
 6185TIP3    H218520   2.460   1.314   2.316
 6186TIP3   OH218521   1.213   4.114   5.503
 6186TIP3    H118522   1.236   4.170   5.577
 6186TIP3    H218523   1.127   4.146   5.475
 6187TIP3   OH218524   1.904   6.218   2.566
 6187TIP3    H118525   1.959   6.241   2.641
 6187TIP3    H218526   1.963   6.223   2.491
 6188TIP3   OH218527   4.778   1.596   2.460
 6188TIP3    H118528   4.754   1.598   2.553
 6188TIP3    H218529   4.775   1.688   2.433
 6189TIP3   OH218530   3.876   6.074   3.096
 6189TIP3    H118531   3.871   6.140   3.027
 6189TIP3    H218532   3.962   6.034   3.084
 6190TIP3   OH218533   6.568   0.284   1.981
 6190TIP3    H118534   6.480   0.290   1.943
 6190TIP3    H218535   6.625   0.267   1.906
 6191TIP3   OH218536   0.214   0.818   1.191
 6191TIP3    H118537   0.286   0.791   1.248
 6191TIP3    H218538   0.135   0.785   1.234
 6192TIP3   OH218539   5.799   3.491   2.467
 6192TIP3    H118540   5.855   3.513   2.393
 6192TIP3    H218541   5.714   3.530   2.446
 6193TIP3   OH218542   6.772   2.592   2.150
 6193TIP3    H118543   6.851   2.555   2.191
 6193TIP3    H218544   6.713   2.518   2.142
 6194TIP3   OH218545   6.635   2.858   4.780
 6194TIP3    H118546   6.589   2.882   4.860
 6194TIP3    H218547   6.662   2.942   4.741
 6195TIP3   OH218548   1.440   3.921   3.480
 6195TIP3    H118549   1.519   3.871   3.502
 6195TIP3    H218550   1.403   3.876   3.404
 6196TIP3   OH218551   0.342   5.375   0.647
 6196TIP3    H118552   0.266   5.426   0.676
 6196TIP3    H218553   0.412   5.401   0.706
 6197TIP3   OH218554   1.521   4.678   3.535
 6197TIP3    H118555   1.574   4.605   3.503
 6197TIP3    H218556   1.581   4.731   3.587
 6198TIP3   OH218557   2.150   6.618   4.398
 6198TIP3    H118558   2.076   6.677   4.416
 6198TIP3    H218559   2.112   6.548   4.344
 6199TIP3   OH218560   4.518   6.253   0.374
 6199TIP3    H118561   4.433   6.208   0.369
 6199TIP3    H218562   4.520   6.309   0.296
 6200TIP3   OH218563   0.092   3.771   1.343
 6200TIP3    H118564   0.166   3.760   1.284
 6200TIP3    H218565   0.125   3.746   1.429
 6201TIP3   OH218566   7.039   1.944   1.365
 6201TIP3    H118567   7.117   1.909   1.407
 6201TIP3    H218568   7.071   1.979   1.282
 6202TIP3   OH218569   0.116   6.387   3.587
 6202TIP3    H118570   0.195   6.441   3.593
 6202TIP3    H218571   0.044   6.448   3.600
 6203TIP3   OH218572   7.021   1.532   2.674
 6203TIP3    H118573   6.928   1.540   2.653
 6203TIP3    H218574   7.043   1.441   2.654
 6204TIP3   OH218575   4.866   5.551   0.905
 6204TIP3    H118576   4.814   5.485   0.952
 6204TIP3    H218577   4.824   5.634   0.927
 6205TIP3   OH218578   5.336   0.051   3.428
 6205TIP3    H118579   5.321   0.067   3.521
 6205TIP3    H218580   5.420   0.004   3.425
 6206TIP3   OH218581   6.813   5.961   4.448
 6206TIP3    H118582   6.894   5.924   4.484
 6206TIP3    H218583   6.828   5.962   4.353
 6207TIP3   OH218584   4.852   6.614   3.485
 6207TIP3    H118585   4.768   6.643   3.519
 6207TIP3    H218586   4.830   6.561   3.408
 6208TIP3   OH218587   4.770   3.268   3.067
 6208TIP3    H118588   4.688   3.230   3.035
 6208TIP3    H218589   4.787   3.222   3.149
 6209TIP3   OH218590   2.639   3.776   2.656
 6209TIP3    H118591   2.667   3.863   2.628
 6209TIP3    H218592   2.565   3.756   2.599
 6210TIP3   OH218593   1.804   5.743  -0.018
 6210TIP3    H118594   1.799   5.824   0.032
 6210TIP3    H218595   1.843   5.680   0.043
 6211TIP3   OH218596   6.070   4.970   1.343
 6211TIP3    H118597   6.008   4.904   1.313
 6211TIP3    H218598   6.150   4.953   1.293
 6212TIP3   OH218599   4.842   1.723   5.602
 6212TIP3    H118600   4.877   1.807   5.631
 6212TIP3    H218601   4.858   1.664   5.675
 6213TIP3   OH218602   2.639   3.574   4.947
 6213TIP3    H118603   2.583   3.499   4.969
 6213TIP3    H218604   2.717   3.535   4.908
 6214TIP3   OH218605   0.279   3.110   1.450
 6214TIP3    H118606   0.279   3.113   1.545
 6214TIP3    H218607   0.189   3.133   1.425
 6215TIP3   OH218608   0.073   3.965   0.988
 6215TIP3    H118609   0.092   3.879   1.027
 6215TIP3    H218610   0.141   3.977   0.921
 6216TIP3   OH218611   1.173   2.433   0.242
 6216TIP3    H118612   1.130   2.463   0.322
 6216TIP3    H218613   1.187   2.513   0.191
 6217TIP3   OH218614   7.142   4.373   1.457
 6217TIP3    H118615   7.163   4.365   1.550
 6217TIP3    H218616   7.084   4.449   1.453
 6218TIP3   OH218617   1.862   4.292   1.484
 6218TIP3    H118618   1.793   4.346   1.445
 6218TIP3    H218619   1.884   4.337   1.566
 6219TIP3   OH218620   6.122   5.791   2.792
 6219TIP3    H118621   6.150   5.746   2.712
 6219TIP3    H218622   6.026   5.796   2.784
 6220TIP3   OH218623   0.308   2.593   0.140
 6220TIP3    H118624   0.296   2.526   0.073
 6220TIP3    H218625   0.221   2.605   0.178
 6221TIP3   OH218626   1.978   4.318   0.546
 6221TIP3    H118627   2.050   4.277   0.497
 6221TIP3    H218628   2.011   4.325   0.636
 6222TIP3   OH218629   3.630   6.366   2.661
 6222TIP3    H118630   3.672   6.280   2.668
 6222TIP3    H218631   3.635   6.403   2.750
 6223TIP3   OH218632   3.125   5.912   0.595
 6223TIP3    H118633   3.176   5.918   0.675
 6223TIP3    H218634   3.156   5.832   0.552
 6224TIP3   OH218635   0.224   2.009   5.582
 6224TIP3    H118636   0.307   1.963   5.566
 6224TIP3    H218637   0.207   1.994   5.675
 6225TIP3   OH218638   0.454   5.064   1.245
 6225TIP3    H118639   0.437   5.005   1.172
 6225TIP3    H218640   0.537   5.107   1.223
 6226TIP3   OH218641   0.107   4.839   1.100
 6226TIP3    H118642   0.181   4.893   1.073
 6226TIP3    H218643   0.119   4.756   1.055
 6227TIP3   OH218644   3.090   4.606   0.843
 6227TIP3    H118645   3.134   4.529   0.806
 6227TIP3    H218646   3.084   4.667   0.769
 6228TIP3   OH218647   3.220   3.965   2.033
 6228TIP3    H118648   3.267   3.892   1.994
 6228TIP3    H218649   3.290   4.024   2.063
 6229TIP3   OH218650   6.349   0.653   2.490
 6229TIP3    H118651   6.395   0.720   2.438
 6229TIP3    H218652   6.381   0.570   2.455
 6230TIP3   OH218653   5.926   1.095   3.624
 6230TIP3    H118654   5.988   1.155   3.665
 6230TIP3    H218655   5.967   1.071   3.541
 6231TIP3   OH218656   5.662   3.267   3.487
 6231TIP3    H118657   5.612   3.293   3.410
 6231TIP3    H218658   5.749   3.245   3.452
 6232TIP3   OH218659   2.467   3.500   1.478
 6232TIP3    H118660   2.441   3.498   1.570
 6232TIP3    H218661   2.555   3.462   1.477
 6233TIP3   OH218662   4.378   4.701   4.334
 6233TIP3    H118663   4.401   4.696   4.241
 6233TIP3    H218664   4.405   4.616   4.370
 6234TIP3   OH218665   6.935   2.229   3.995
 6234TIP3    H118666   6.859   2.224   3.936
 6234TIP3    H218667   6.910   2.174   4.070
 6235TIP3   OH218668   5.555   5.334   2.422
 6235TIP3    H118669   5.497   5.258   2.424
 6235TIP3    H218670   5.640   5.301   2.451
 6236TIP3   OH218671   0.901   2.190   5.924
 6236TIP3    H118672   0.904   2.236   5.840
 6236TIP3    H218673   0.993   2.187   5.952
 6237TIP3   OH218674   6.454   3.436   3.432
 6237TIP3    H118675   6.400   3.410   3.358
 6237TIP3    H218676   6.397   3.431   3.508
 6238TIP3   OH218677   2.867   2.975   0.988
 6238TIP3    H118678   2.775   2.972   1.014
 6238TIP3    H218679   2.906   3.042   1.045
 6239TIP3   OH218680   5.677   2.272   0.680
 6239TIP3    H118681   5.696   2.195   0.626
 6239TIP3    H218682   5.758   2.287   0.729
 6240TIP3   OH218683   5.212   0.704   1.927
 6240TIP3    H118684   5.299   0.673   1.903
 6240TIP3    H218685   5.191   0.769   1.860
 6241TIP3   OH218686   4.374   6.491   4.283
 6241TIP3    H118687   4.318   6.512   4.208
 6241TIP3    H218688   4.372   6.395   4.288
 6242TIP3   OH218689   2.237   5.732   1.281
 6242TIP3    H118690   2.226   5.637   1.280
 6242TIP3    H218691   2.262   5.752   1.371
 6243TIP3   OH218692   6.941   1.698   5.531
 6243TIP3    H118693   7.007   1.689   5.462
 6243TIP3    H218694   6.869   1.745   5.489
 6244TIP3   OH218695   1.292   6.755   4.747
 6244TIP3    H118696   1.255   6.692   4.685
 6244TIP3    H218697   1.305   6.704   4.827
 6245TIP3   OH218698   5.614   5.489   4.157
 6245TIP3    H118699   5.678   5.554   4.185
 6245TIP3    H218700   5.657   5.405   4.170
 6246TIP3   OH218701   0.156   2.621   3.371
 6246TIP3    H118702   0.177   2.564   3.446
 6246TIP3    H218703   0.112   2.563   3.309
 6247TIP3   OH218704   6.899   5.126   2.068
 6247TIP3    H118705   6.891   5.209   2.022
 6247TIP3    H218706   6.856   5.063   2.010
 6248TIP3   OH218707   6.748   1.216   4.247
 6248TIP3    H118708   6.820   1.219   4.309
 6248TIP3    H218709   6.776   1.272   4.174
 6249TIP3   OH218710   1.607   0.015   0.884
 6249TIP3    H118711   1.689  -0.029   0.863
 6249TIP3    H218712   1.539  -0.049   0.862
 6250TIP3   OH218713   4.841   4.008   1.650
 6250TIP3    H118714   4.799   4.088   1.681
 6250TIP3    H218715   4.820   3.942   1.716
 6251TIP3   OH218716   4.838   4.400   2.348
 6251TIP3    H118717   4.894   4.423   2.423
 6251TIP3    H218718   4.795   4.319   2.375
 6252TIP3   OH218719   2.394   6.859   5.008
 6252TIP3    H118720   2.311   6.842   4.965
 6252TIP3    H218721   2.387   6.814   5.093
 6253TIP3   OH218722   1.741   6.072   0.873
 6253TIP3    H118723   1.706   6.010   0.936
 6253TIP3    H218724   1.706   6.043   0.788
 6254TIP3   OH218725   5.963   3.096   4.767
 6254TIP3    H118726   5.949   3.149   4.846
 6254TIP3    H218727   5.974   3.161   4.697
 6255TIP3   OH218728   0.174   4.674   3.171
 6255TIP3    H118729   0.087   4.688   3.209
 6255TIP3    H218730   0.190   4.581   3.182
 6256TIP3   OH218731   2.727   2.447   4.098
 6256TIP3    H118732   2.764   2.489   4.021
 6256TIP3    H218733   2.654   2.395   4.065
 6257TIP3   OH218734   1.793   4.602   4.390
 6257TIP3    H118735   1.720   4.624   4.332
 6257TIP3    H218736   1.759   4.618   4.478
 6258TIP3   OH218737   3.374   1.223   2.365
 6258TIP3    H118738   3.352   1.314   2.387
 6258TIP3    H218739   3.327   1.171   2.431
 6259TIP3   OH218740   3.741   5.496   4.569
 6259TIP3    H118741   3.796   5.475   4.644
 6259TIP3    H218742   3.654   5.508   4.606
 6260TIP3   OH218743   1.217   3.236   5.676
 6260TIP3    H118744   1.194   3.288   5.752
 6260TIP3    H218745   1.258   3.157   5.712
 6261TIP3   OH218746   1.730   2.567   3.432
 6261TIP3    H118747   1.816   2.526   3.435
 6261TIP3    H218748   1.670   2.496   3.411
 6262TIP3   OH218749   3.712   2.564   5.832
 6262TIP3    H118750   3.779   2.570   5.764
 6262TIP3    H218751   3.690   2.655   5.852
 6263TIP3   OH218752   4.636   5.565   2.105
 6263TIP3    H118753   4.579   5.488   2.102
 6263TIP3    H218754   4.681   5.558   2.189
 6264TIP3   OH218755   3.122   5.077   1.574
 6264TIP3    H118756   3.206   5.123   1.571
 6264TIP3    H218757   3.143   4.990   1.608
 6265TIP3   OH218758   4.501   5.112   3.385
 6265TIP3    H118759   4.551   5.150   3.457
 6265TIP3    H218760   4.443   5.048   3.426
 6266TIP3   OH218761   1.711   6.395   3.994
 6266TIP3    H118762   1.663   6.342   4.058
 6266TIP3    H218763   1.798   6.407   4.032
 6267TIP3   OH218764   4.436   6.072   1.340
 6267TIP3    H118765   4.380   6.043   1.412
 6267TIP3    H218766   4.520   6.028   1.356
 6268TIP3   OH218767   0.919   6.402   4.385
 6268TIP3    H118768   0.938   6.333   4.448
 6268TIP3    H218769   0.981   6.472   4.406
 6269TIP3   OH218770   3.101   6.559   4.319
 6269TIP3    H118771   3.036   6.510   4.370
 6269TIP3    H218772   3.177   6.565   4.377
 6270TIP3   OH218773   4.049   2.916   5.386
 6270TIP3    H118774   4.137   2.881   5.403
 6270TIP3    H218775   4.003   2.907   5.469
 6271TIP3   OH218776   6.529   1.403   2.977
 6271TIP3    H118777   6.601   1.393   2.915
 6271TIP3    H218778   6.567   1.379   3.062
 6272TIP3   OH218779   1.253   4.348   5.805
 6272TIP3    H118780   1.337   4.380   5.771
 6272TIP3    H218781   1.258   4.363   5.899
 6273TIP3   OH218782   2.785   1.483   0.548
 6273TIP3    H118783   2.851   1.553   0.540
 6273TIP3    H218784   2.807   1.440   0.631
 6274TIP3   OH218785   2.196   2.867   4.084
 6274TIP3    H118786   2.185   2.914   4.167
 6274TIP3    H218787   2.161   2.779   4.102
 6275TIP3   OH218788   3.624   1.680   4.025
 6275TIP3    H118789   3.667   1.595   4.034
 6275TIP3    H218790   3.539   1.661   3.985
 6276TIP3   OH218791   2.360   0.352   3.575
 6276TIP3    H118792   2.302   0.301   3.519
 6276TIP3    H218793   2.355   0.441   3.540
 6277TIP3   OH218794   5.510   3.128   0.699
 6277TIP3    H118795   5.459   3.047   0.689
 6277TIP3    H218796   5.515   3.164   0.611
 6278TIP3   OH218797   2.454   4.422   4.485
 6278TIP3    H118798   2.478   4.428   4.393
 6278TIP3    H218799   2.512   4.484   4.529
 6279TIP3   OH218800   5.028   5.989   0.009
 6279TIP3    H118801   5.063   6.064  -0.039
 6279TIP3    H218802   4.957   6.025   0.062
 6280TIP3   OH218803   3.169   0.705   3.233
 6280TIP3    H118804   3.210   0.701   3.147
 6280TIP3    H218805   3.221   0.769   3.281
 6281TIP3   OH218806   1.127   3.855   2.073
 6281TIP3    H118807   1.166   3.906   2.144
 6281TIP3    H218808   1.054   3.909   2.042
 6282TIP3   OH218809   3.322   0.919   3.308
 6282TIP3    H118810   3.338   1.010   3.284
 6282TIP3    H218811   3.310   0.920   3.403
 6283TIP3   OH218812   4.158   6.133   1.485
 6283TIP3    H118813   4.141   6.216   1.440
 6283TIP3    H218814   4.135   6.149   1.576
 6284TIP3   OH218815   5.385   1.409   1.408
 6284TIP3    H118816   5.320   1.455   1.462
 6284TIP3    H218817   5.466   1.414   1.457
 6285TIP3   OH218818   1.165   6.497   0.323
 6285TIP3    H118819   1.223   6.566   0.354
 6285TIP3    H218820   1.215   6.452   0.254
 6286TIP3   OH218821   0.425   0.096   3.030
 6286TIP3    H118822   0.406   0.175   3.081
 6286TIP3    H218823   0.513   0.071   3.057
 6287TIP3   OH218824   2.200   6.347   3.430
 6287TIP3    H118825   2.129   6.357   3.366
 6287TIP3    H218826   2.173   6.273   3.484
 6288TIP3   OH218827   0.186   0.324   2.933
 6288TIP3    H118828   0.267   0.352   2.976
 6288TIP3    H218829   0.214   0.251   2.877
 6289TIP3   OH218830   5.984   5.593   0.166
 6289TIP3    H118831   5.906   5.611   0.219
 6289TIP3    H218832   5.948   5.563   0.082
 6290TIP3   OH218833   5.437   2.290   1.501
 6290TIP3    H118834   5.508   2.263   1.560
 6290TIP3    H218835   5.436   2.385   1.508
 6291TIP3   OH218836   5.743   6.663   2.166
 6291TIP3    H118837   5.710   6.712   2.242
 6291TIP3    H218838   5.735   6.571   2.192
 6292TIP3   OH218839   4.024   2.420   0.937
 6292TIP3    H118840   3.951   2.359   0.944
 6292TIP3    H218841   4.100   2.371   0.968
 6293TIP3   OH218842   2.865   6.624   3.075
 6293TIP3    H118843   2.836   6.538   3.105
 6293TIP3    H218844   2.950   6.636   3.117
 6294TIP3   OH218845   4.299   1.481   2.287
 6294TIP3    H118846   4.208   1.512   2.279
 6294TIP3    H218847   4.291   1.390   2.315
 6295TIP3   OH218848   2.542   2.944   3.224
 6295TIP3    H118849   2.557   2.961   3.317
 6295TIP3    H218850   2.463   2.993   3.203
 6296TIP3   OH218851   2.361   6.676   2.251
 6296TIP3    H118852   2.346   6.596   2.300
 6296TIP3    H218853   2.278   6.723   2.256
 6297TIP3   OH218854   2.778   5.967   3.300
 6297TIP3    H118855   2.868   5.958   3.269
 6297TIP3    H218856   2.727   5.986   3.221
 6298TIP3   OH218857   0.374   3.404   3.277
 6298TIP3    H118858   0.333   3.347   3.342
 6298TIP3    H218859   0.305   3.421   3.212
 6299TIP3   OH218860   1.294   3.611   0.841
 6299TIP3    H118861   1.377   3.563   0.836
 6299TIP3    H218862   1.237   3.555   0.893
 6300TIP3   OH218863   5.668   2.735   3.982
 6300TIP3    H118864   5.648   2.657   4.034
 6300TIP3    H218865   5.620   2.806   4.027
 6301TIP3   OH218866   3.257   3.720   0.545
 6301TIP3    H118867   3.230   3.743   0.456
 6301TIP3    H218868   3.188   3.661   0.576
 6302TIP3   OH218869   3.237   0.099   0.321
 6302TIP3    H118870   3.221   0.091   0.227
 6302TIP3    H218871   3.172   0.163   0.351
 6303TIP3   OH218872   4.243   0.730   1.890
 6303TIP3    H118873   4.303   0.656   1.887
 6303TIP3    H218874   4.169   0.704   1.835
 6304TIP3   OH218875   3.548   5.862   4.504
 6304TIP3    H118876   3.463   5.858   4.459
 6304TIP3    H218877   3.609   5.822   4.443
 6305TIP3   OH218878   5.227   4.536   1.868
 6305TIP3    H118879   5.243   4.542   1.962
 6305TIP3    H218880   5.313   4.518   1.830
 6306TIP3   OH218881   2.792   0.268   0.437
 6306TIP3    H118882   2.774   0.316   0.356
 6306TIP3    H218883   2.721   0.205   0.444
 6307TIP3   OH218884   1.390   0.260   4.301
 6307TIP3    H118885   1.311   0.208   4.283
 6307TIP3    H218886   1.462   0.197   4.293
 6308TIP3   OH218887   2.268   2.590   0.605
 6308TIP3    H118888   2.356   2.611   0.572
 6308TIP3    H218889   2.213   2.588   0.527
 6309TIP3   OH218890   4.872   6.270   1.324
 6309TIP3    H118891   4.956   6.261   1.370
 6309TIP3    H218892   4.896   6.296   1.235
 6310TIP3   OH218893   4.876   6.058   0.240
 6310TIP3    H118894   4.952   6.108   0.270
 6310TIP3    H218895   4.806   6.123   0.232
 6311TIP3   OH218896   5.001   6.388   3.589
 6311TIP3    H118897   4.943   6.450   3.546
 6311TIP3    H218898   5.083   6.436   3.602
 6312TIP3   OH218899   3.496   2.969   4.669
 6312TIP3    H118900   3.585   2.962   4.636
 6312TIP3    H218901   3.464   3.053   4.637
 6313TIP3   OH218902   1.286   0.948   1.264
 6313TIP3    H118903   1.205   0.933   1.215
 6313TIP3    H218904   1.279   0.889   1.339
 6314TIP3   OH218905   5.292   0.658   3.124
 6314TIP3    H118906   5.215   0.714   3.121
 6314TIP3    H218907   5.340   0.688   3.201
 6315TIP3   OH218908   6.417   1.933   5.857
 6315TIP3    H118909   6.491   1.881   5.826
 6315TIP3    H218910   6.426   1.933   5.952
 6316TIP3   OH218911   4.337   2.177   0.082
 6316TIP3    H118912   4.310   2.173  -0.010
 6316TIP3    H218913   4.325   2.268   0.107
 6317TIP3   OH218914   3.736   2.874   3.048
 6317TIP3    H118915   3.640   2.877   3.044
 6317TIP3    H218916   3.763   2.854   2.958
 6318TIP3   OH218917   3.300   3.717   2.532
 6318TIP3    H118918   3.301   3.791   2.592
 6318TIP3    H218919   3.284   3.756   2.446
 6319TIP3   OH218920   0.077   5.766   4.466
 6319TIP3    H118921   0.100   5.807   4.383
 6319TIP3    H218922   0.105   5.830   4.532
 6320TIP3   OH218923   1.300   0.995   5.808
 6320TIP3    H118924   1.281   0.919   5.753
 6320TIP3    H218925   1.351   0.959   5.880
 6321TIP3   OH218926   5.019   4.130   2.060
 6321TIP3    H118927   4.924   4.145   2.061
 6321TIP3    H218928   5.056   4.207   2.104
 6322TIP3   OH218929   3.900   1.670   3.631
 6322TIP3    H118930   3.984   1.645   3.593
 6322TIP3    H218931   3.890   1.612   3.707
 6323TIP3   OH218932   7.157   1.786   0.313
 6323TIP3    H118933   7.124   1.717   0.371
 6323TIP3    H218934   7.207   1.739   0.247
 6324TIP3   OH218935   2.256   2.582   4.030
 6324TIP3    H118936   2.318   2.641   3.988
 6324TIP3    H218937   2.224   2.525   3.960
 6325TIP3   OH218938   5.353   4.284   1.072
 6325TIP3    H118939   5.416   4.253   1.006
 6325TIP3    H218940   5.316   4.204   1.108
 6326TIP3   OH218941   1.183   5.023   1.527
 6326TIP3    H118942   1.175   5.117   1.515
 6326TIP3    H218943   1.244   4.995   1.459
 6327TIP3   OH218944   6.419   4.582   2.948
 6327TIP3    H118945   6.442   4.567   2.856
 6327TIP3    H218946   6.365   4.661   2.946
 6328TIP3   OH218947   0.408   4.543   0.043
 6328TIP3    H118948   0.312   4.542   0.034
 6328TIP3    H218949   0.429   4.461   0.087
 6329TIP3   OH218950   5.062   5.108   0.615
 6329TIP3    H118951   5.130   5.126   0.550
 6329TIP3    H218952   5.064   5.013   0.626
 6330TIP3   OH218953   2.678   1.621   1.837
 6330TIP3    H118954   2.772   1.603   1.833
 6330TIP3    H218955   2.654   1.603   1.928
 6331TIP3   OH218956   1.591   0.461   2.483
 6331TIP3    H118957   1.573   0.516   2.559
 6331TIP3    H218958   1.685   0.474   2.466
 6332TIP3   OH218959   0.438   4.096   4.759
 6332TIP3    H118960   0.450   4.001   4.755
 6332TIP3    H218961   0.396   4.112   4.843
 6333TIP3   OH218962   1.667   5.325   0.221
 6333TIP3    H118963   1.635   5.410   0.253
 6333TIP3    H218964   1.756   5.319   0.256
 6334TIP3   OH218965   0.623   2.961   0.923
 6334TIP3    H118966   0.716   2.957   0.948
 6334TIP3    H218967   0.622   3.015   0.845
 6335TIP3   OH218968   5.318   1.132   0.458
 6335TIP3    H118969   5.311   1.041   0.430
 6335TIP3    H218970   5.227   1.160   0.471
 6336TIP3   OH218971   4.023   2.488   3.675
 6336TIP3    H118972   4.050   2.396   3.672
 6336TIP3    H218973   4.069   2.530   3.602
 6337TIP3   OH218974   0.691   4.919   5.747
 6337TIP3    H118975   0.599   4.908   5.768
 6337TIP3    H218976   0.708   5.013   5.756
 6338TIP3   OH218977   3.966   6.702   1.612
 6338TIP3    H118978   3.932   6.616   1.589
 6338TIP3    H218979   4.061   6.693   1.604
 6339TIP3   OH218980   0.517   2.937   1.606
 6339TIP3    H118981   0.546   2.863   1.660
 6339TIP3    H218982   0.460   2.987   1.664
 6340TIP3   OH218983   6.946   4.943   5.574
 6340TIP3    H118984   7.011   4.990   5.626
 6340TIP3    H218985   6.869   4.938   5.631
 6341TIP3   OH218986   5.145   4.477   1.019
 6341TIP3    H118987   5.195   4.405   1.057
 6341TIP3    H218988   5.211   4.539   0.989
 6342TIP3   OH218989   1.527   5.099   3.815
 6342TIP3    H118990   1.589   5.035   3.779
 6342TIP3    H218991   1.567   5.126   3.898
 6343TIP3   OH218992   0.546   1.114   0.605
 6343TIP3    H118993   0.468   1.098   0.657
 6343TIP3    H218994   0.517   1.105   0.514
 6344TIP3   OH218995   2.575   1.385   4.412
 6344TIP3    H118996   2.646   1.343   4.461
 6344TIP3    H218997   2.553   1.462   4.464
 6345TIP3   OH218998   2.794   4.207   1.051
 6345TIP3    H118999   2.719   4.190   0.994
 6345TIP3    H219000   2.755   4.238   1.133
 6346TIP3   OH219001   0.732   1.911   3.084
 6346TIP3    H119002   0.704   1.923   2.993
 6346TIP3    H219003   0.821   1.875   3.077
 6347TIP3   OH219004   2.363   4.388   5.598
 6347TIP3    H119005   2.303   4.462   5.610
 6347TIP3    H219006   2.307   4.311   5.607
 6348TIP3   OH219007   2.331   5.130   4.462
 6348TIP3    H119008   2.274   5.105   4.535
 6348TIP3    H219009   2.419   5.134   4.500
 6349TIP3   OH219010   2.944   1.397   1.027
 6349TIP3    H119011   2.962   1.382   0.934
 6349TIP3    H219012   3.025   1.437   1.061
 6350TIP3   OH219013   3.557   1.906   3.183
 6350TIP3    H119014   3.466   1.896   3.154
 6350TIP3    H219015   3.552   1.971   3.254
 6351TIP3   OH219016   3.850   2.212   1.919
 6351TIP3    H119017   3.886   2.273   1.855
 6351TIP3    H219018   3.894   2.129   1.900
 6352TIP3   OH219019   2.563   3.116   1.620
 6352TIP3    H119020   2.572   3.093   1.528
 6352TIP3    H219021   2.538   3.035   1.664
 6353TIP3   OH219022   3.397   6.376   0.448
 6353TIP3    H119023   3.331   6.347   0.384
 6353TIP3    H219024   3.397   6.308   0.515
 6354TIP3   OH219025   2.960   2.281   5.842
 6354TIP3    H119026   2.898   2.260   5.772
 6354TIP3    H219027   2.957   2.376   5.850
 6355TIP3   OH219028   3.065   4.441   1.574
 6355TIP3    H119029   3.033   4.370   1.629
 6355TIP3    H219030   3.015   4.432   1.492
 6356TIP3   OH219031   4.872   1.896   1.531
 6356TIP3    H119032   4.894   1.961   1.465
 6356TIP3    H219033   4.877   1.943   1.614
 6357TIP3   OH219034   5.508   6.288   1.766
 6357TIP3    H119035   5.573   6.219   1.778
 6357TIP3    H219036   5.425   6.240   1.759
 6358TIP3   OH219037   4.535   4.954   1.985
 6358TIP3    H119038   4.574   5.027   1.937
 6358TIP3    H219039   4.442   4.976   1.990
 6359TIP3   OH219040   4.560   3.853   1.552
 6359TIP3    H119041   4.526   3.934   1.514
 6359TIP3    H219042   4.621   3.820   1.486
 6360TIP3   OH219043   5.448   0.711   3.389
 6360TIP3    H119044   5.395   0.654   3.445
 6360TIP3    H219045   5.514   0.652   3.352
 6361TIP3   OH219046   2.244   5.920   0.559
 6361TIP3    H119047   2.269   6.000   0.605
 6361TIP3    H219048   2.296   5.921   0.478
 6362TIP3   OH219049   0.691   2.407   2.059
 6362TIP3    H119050   0.609   2.405   2.009
 6362TIP3    H219051   0.750   2.351   2.009
 6363TIP3   OH219052   4.488   0.947   0.442
 6363TIP3    H119053   4.409   0.994   0.414
 6363TIP3    H219054   4.530   0.919   0.360
 6364TIP3   OH219055   6.528   1.833   2.954
 6364TIP3    H119056   6.611   1.865   2.918
 6364TIP3    H219057   6.467   1.905   2.940
 6365TIP3   OH219058   4.960   6.357   1.011
 6365TIP3    H119059   4.930   6.268   0.992
 6365TIP3    H219060   5.029   6.374   0.947
 6366TIP3   OH219061   5.420   5.917   3.389
 6366TIP3    H119062   5.354   5.849   3.397
 6366TIP3    H219063   5.402   5.977   3.462
 6367TIP3   OH219064   6.083   4.040   1.682
 6367TIP3    H119065   6.017   4.089   1.632
 6367TIP3    H219066   6.167   4.075   1.652
 6368TIP3   OH219067   6.348   5.185   3.644
 6368TIP3    H119068   6.427   5.221   3.685
 6368TIP3    H219069   6.378   5.150   3.561
 6369TIP3   OH219070   5.151   3.729   0.060
 6369TIP3    H119071   5.099   3.652   0.035
 6369TIP3    H219072   5.242   3.702   0.049
 6370TIP3   OH219073   5.937  -0.007   3.999
 6370TIP3    H119074   5.905  -0.016   4.089
 6370TIP3    H219075   6.033  -0.009   4.008
 6371TIP3   OH219076   1.647   3.890   0.381
 6371TIP3    H119077   1.593   3.911   0.304
 6371TIP3    H219078   1.712   3.829   0.348
 6372TIP3   OH219079   0.276   4.172   4.438
 6372TIP3    H119080   0.225   4.184   4.519
 6372TIP3    H219081   0.222   4.113   4.385
 6373TIP3   OH219082   6.903   1.087   2.439
 6373TIP3    H119083   6.982   1.130   2.472
 6373TIP3    H219084   6.857   1.155   2.390
 6374TIP3   OH219085   1.139   6.376   3.274
 6374TIP3    H119086   1.072   6.410   3.334
 6374TIP3    H219087   1.158   6.450   3.216
 6375TIP3   OH219088   7.116   4.715   2.614
 6375TIP3    H119089   7.157   4.802   2.619
 6375TIP3    H219090   7.034   4.725   2.663
 6376TIP3   OH219091   2.222   1.727   4.334
 6376TIP3    H119092   2.167   1.777   4.275
 6376TIP3    H219093   2.216   1.774   4.418
 6377TIP3   OH219094   0.436   4.545   5.735
 6377TIP3    H119095   0.362   4.605   5.731
 6377TIP3    H219096   0.486   4.563   5.656
 6378TIP3   OH219097   4.244   1.477   4.387
 6378TIP3    H119098   4.184   1.439   4.324
 6378TIP3    H219099   4.263   1.564   4.353
 6379TIP3   OH219100   3.604   2.214   5.309
 6379TIP3    H119101   3.650   2.186   5.230
 6379TIP3    H219102   3.657   2.180   5.381
 6380TIP3   OH219103   5.374   4.246   3.298
 6380TIP3    H119104   5.278   4.247   3.288
 6380TIP3    H219105   5.407   4.265   3.210
 6381TIP3   OH219106   3.941   2.629   2.086
 6381TIP3    H119107   4.012   2.686   2.116
 6381TIP3    H219108   3.972   2.594   2.003
 6382TIP3   OH219109   3.570   6.257   3.932
 6382TIP3    H119110   3.601   6.337   3.889
 6382TIP3    H219111   3.638   6.193   3.914
 6383TIP3   OH219112   1.447   3.965   2.523
 6383TIP3    H119113   1.455   4.060   2.535
 6383TIP3    H219114   1.401   3.934   2.601
 6384TIP3   OH219115   0.736   3.662   4.600
 6384TIP3    H119116   0.794   3.734   4.575
 6384TIP3    H219117   0.787   3.583   4.583
 6385TIP3   OH219118   2.645   2.314   5.886
 6385TIP3    H119119   2.706   2.312   5.812
 6385TIP3    H219120   2.632   2.407   5.904
 6386TIP3   OH219121   1.616   5.563   1.496
 6386TIP3    H119122   1.635   5.613   1.575
 6386TIP3    H219123   1.533   5.519   1.515
 6387TIP3   OH219124   1.274   3.159   1.409
 6387TIP3    H119125   1.260   3.103   1.486
 6387TIP3    H219126   1.267   3.099   1.334
 6388TIP3   OH219127   5.764   1.979   4.996
 6388TIP3    H119128   5.783   2.066   5.029
 6388TIP3    H219129   5.713   1.937   5.066
 6389TIP3   OH219130   4.623   4.814   2.813
 6389TIP3    H119131   4.549   4.775   2.858
 6389TIP3    H219132   4.678   4.848   2.883
 6390TIP3   OH219133   4.289   0.246   5.777
 6390TIP3    H119134   4.239   0.167   5.798
 6390TIP3    H219135   4.350   0.256   5.851
 6391TIP3   OH219136   4.199   0.960   0.088
 6391TIP3    H119137   4.249   1.036   0.119
 6391TIP3    H219138   4.112   0.995   0.069
 6392TIP3   OH219139   1.645   1.917   3.287
 6392TIP3    H119140   1.646   1.867   3.205
 6392TIP3    H219141   1.583   1.869   3.343
 6393TIP3   OH219142   1.136   5.813   1.802
 6393TIP3    H119143   1.152   5.906   1.793
 6393TIP3    H219144   1.090   5.804   1.886
 6394TIP3   OH219145   1.069   4.122   0.259
 6394TIP3    H119146   1.071   4.183   0.185
 6394TIP3    H219147   1.049   4.177   0.335
 6395TIP3   OH219148   1.890   2.389   0.101
 6395TIP3    H119149   1.871   2.343   0.183
 6395TIP3    H219150   1.809   2.436   0.081
 6396TIP3   OH219151   0.825   3.764   5.525
 6396TIP3    H119152   0.869   3.801   5.602
 6396TIP3    H219153   0.762   3.701   5.561
 6397TIP3   OH219154   2.210   0.448   2.541
 6397TIP3    H119155   2.216   0.525   2.598
 6397TIP3    H219156   2.149   0.475   2.472
 6398TIP3   OH219157   5.049   4.823   0.547
 6398TIP3    H119158   4.980   4.759   0.535
 6398TIP3    H219159   5.104   4.815   0.469
 6399TIP3   OH219160   6.820   4.304   2.171
 6399TIP3    H119161   6.737   4.326   2.128
 6399TIP3    H219162   6.796   4.277   2.260
 6400TIP3   OH219163   1.303   1.837   1.439
 6400TIP3    H119164   1.368   1.770   1.419
 6400TIP3    H219165   1.354   1.915   1.460
 6401TIP3   OH219166   4.053   4.769   2.606
 6401TIP3    H119167   4.030   4.798   2.694
 6401TIP3    H219168   4.137   4.723   2.616
 6402TIP3   OH219169   2.735   0.831   0.908
 6402TIP3    H119170   2.780   0.862   0.986
 6402TIP3    H219171   2.796   0.769   0.867
 6403TIP3   OH219172   6.212   5.850   3.194
 6403TIP3    H119173   6.177   5.898   3.119
 6403TIP3    H219174   6.301   5.828   3.169
 6404TIP3   OH219175   3.521   3.758   4.558
 6404TIP3    H119176   3.533   3.751   4.653
 6404TIP3    H219177   3.589   3.701   4.521
 6405TIP3   OH219178   1.455   4.615   0.651
 6405TIP3    H119179   1.432   4.636   0.742
 6405TIP3    H219180   1.372   4.618   0.604
 6406TIP3   OH219181   2.821   0.643   2.277
 6406TIP3    H119182   2.730   0.620   2.296
 6406TIP3    H219183   2.859   0.563   2.243
 6407TIP3   OH219184   0.559   3.960   2.449
 6407TIP3    H119185   0.564   3.957   2.353
 6407TIP3    H219186   0.523   4.046   2.469
 6408TIP3   OH219187   3.199   0.982   5.249
 6408TIP3    H119188   3.163   0.920   5.312
 6408TIP3    H219189   3.126   1.001   5.190
 6409TIP3   OH219190   5.092   2.719   5.781
 6409TIP3    H119191   5.155   2.758   5.720
 6409TIP3    H219192   5.043   2.656   5.729
 6410TIP3   OH219193   6.343   2.772   0.175
 6410TIP3    H119194   6.268   2.770   0.115
 6410TIP3    H219195   6.381   2.859   0.162
 6411TIP3   OH219196   3.612   4.153   4.136
 6411TIP3    H119197   3.534   4.206   4.153
 6411TIP3    H219198   3.681   4.196   4.187
 6412TIP3   OH219199   4.399   3.985   1.801
 6412TIP3    H119200   4.446   3.910   1.765
 6412TIP3    H219201   4.453   4.060   1.776
 6413TIP3   OH219202   5.685   0.817   3.187
 6413TIP3    H119203   5.665   0.727   3.215
 6413TIP3    H219204   5.698   0.810   3.092
 6414TIP3   OH219205   2.451   0.719   2.487
 6414TIP3    H119206   2.521   0.748   2.545
 6414TIP3    H219207   2.390   0.673   2.545
 6415TIP3   OH219208   7.229   1.537   2.876
 6415TIP3    H119209   7.138   1.509   2.863
 6415TIP3    H219210   7.247   1.597   2.804
 6416TIP3   OH219211   5.331   2.149   0.927
 6416TIP3    H119212   5.415   2.194   0.930
 6416TIP3    H219213   5.301   2.159   0.837
 6417TIP3   OH219214   3.745   4.948   3.870
 6417TIP3    H119215   3.672   4.986   3.919
 6417TIP3    H219216   3.717   4.859   3.851
 6418TIP3   OH219217   4.260   1.163   2.169
 6418TIP3    H119218   4.304   1.092   2.121
 6418TIP3    H219219   4.254   1.130   2.258
 6419TIP3   OH219220   0.418   3.427   2.563
 6419TIP3    H119221   0.513   3.431   2.572
 6419TIP3    H219222   0.401   3.444   2.471
 6420TIP3   OH219223   5.241   5.732   4.329
 6420TIP3    H119224   5.292   5.775   4.261
 6420TIP3    H219225   5.297   5.662   4.361
 6421TIP3   OH219226   6.523   5.922   0.234
 6421TIP3    H119227   6.567   5.929   0.318
 6421TIP3    H219228   6.523   6.011   0.199
 6422TIP3   OH219229   5.292   3.082   1.765
 6422TIP3    H119230   5.309   3.176   1.772
 6422TIP3    H219231   5.350   3.042   1.830
 6423TIP3   OH219232   5.056   2.233   0.620
 6423TIP3    H119233   5.147   2.214   0.598
 6423TIP3    H219234   5.019   2.148   0.646
 6424TIP3   OH219235   7.109   2.225   1.416
 6424TIP3    H119236   7.149   2.310   1.400
 6424TIP3    H219237   7.171   2.180   1.474
 6425TIP3   OH219238   5.677   6.434   2.308
 6425TIP3    H119239   5.686   6.405   2.399
 6425TIP3    H219240   5.749   6.390   2.262
 6426TIP3   OH219241   4.152   1.075   4.143
 6426TIP3    H119242   4.079   1.071   4.204
 6426TIP3    H219243   4.179   1.167   4.142
 6427TIP3   OH219244   3.818   1.582   4.706
 6427TIP3    H119245   3.896   1.581   4.762
 6427TIP3    H219246   3.747   1.610   4.764
 6428TIP3   OH219247   3.635   5.507   1.450
 6428TIP3    H119248   3.642   5.591   1.496
 6428TIP3    H219249   3.707   5.508   1.387
 6429TIP3   OH219250   5.935   6.584   2.828
 6429TIP3    H119251   5.883   6.607   2.751
 6429TIP3    H219252   5.877   6.601   2.902
 6430TIP3   OH219253   0.279   6.195   2.581
 6430TIP3    H119254   0.232   6.114   2.565
 6430TIP3    H219255   0.211   6.259   2.602
 6431TIP3   OH219256   1.442   4.288   4.544
 6431TIP3    H119257   1.528   4.257   4.574
 6431TIP3    H219258   1.424   4.235   4.466
 6432TIP3   OH219259   5.099   1.662   4.362
 6432TIP3    H119260   5.127   1.693   4.276
 6432TIP3    H219261   5.029   1.722   4.388
 6433TIP3   OH219262   5.661   5.438   5.691
 6433TIP3    H119263   5.571   5.407   5.697
 6433TIP3    H219264   5.710   5.385   5.754
 6434TIP3   OH219265   6.770   4.006   2.414
 6434TIP3    H119266   6.856   3.973   2.439
 6434TIP3    H219267   6.782   4.100   2.405
 6435TIP3   OH219268   3.511   6.697   1.215
 6435TIP3    H119269   3.590   6.700   1.161
 6435TIP3    H219270   3.542   6.715   1.303
 6436TIP3   OH219271   4.702   3.711   4.780
 6436TIP3    H119272   4.772   3.757   4.825
 6436TIP3    H219273   4.731   3.620   4.776
 6437TIP3   OH219274   5.023   3.893   2.210
 6437TIP3    H119275   5.112   3.860   2.202
 6437TIP3    H219276   5.023   3.975   2.161
 6438TIP3   OH219277   5.943   0.741   5.681
 6438TIP3    H119278   5.955   0.650   5.652
 6438TIP3    H219279   6.029   0.781   5.672
 6439TIP3   OH219280   6.986   6.297   5.452
 6439TIP3    H119281   7.073   6.330   5.426
 6439TIP3    H219282   6.965   6.347   5.531
 6440TIP3   OH219283   5.746   4.419   3.425
 6440TIP3    H119284   5.826   4.390   3.468
 6440TIP3    H219285   5.751   4.383   3.337
 6441TIP3   OH219286   0.456   2.685   4.379
 6441TIP3    H119287   0.382   2.687   4.440
 6441TIP3    H219288   0.466   2.593   4.357
 6442TIP3   OH219289   7.114   2.055   5.195
 6442TIP3    H119290   7.188   2.051   5.255
 6442TIP3    H219291   7.148   2.096   5.116
 6443TIP3   OH219292   4.674   6.080   2.296
 6443TIP3    H119293   4.630   6.150   2.248
 6443TIP3    H219294   4.622   6.002   2.277
 6444TIP3   OH219295   0.202   3.337   4.744
 6444TIP3    H119296   0.262   3.266   4.764
 6444TIP3    H219297   0.167   3.315   4.658
 6445TIP3   OH219298   4.307   0.030   3.205
 6445TIP3    H119299   4.263  -0.054   3.217
 6445TIP3    H219300   4.381   0.027   3.265
 6446TIP3   OH219301   4.208   6.820   0.733
 6446TIP3    H119302   4.149   6.763   0.683
 6446TIP3    H219303   4.179   6.812   0.823
 6447TIP3   OH219304   3.248   2.586   2.079
 6447TIP3    H119305   3.255   2.619   2.168
 6447TIP3    H219306   3.163   2.616   2.048
 6448TIP3   OH219307   5.481   4.742   3.336
 6448TIP3    H119308   5.401   4.731   3.387
 6448TIP3    H219309   5.468   4.688   3.258
 6449TIP3   OH219310   0.982   0.500   4.742
 6449TIP3    H119311   1.015   0.550   4.667
 6449TIP3    H219312   0.987   0.409   4.715
 6450TIP3   OH219313   2.091   0.624   5.222
 6450TIP3    H119314   2.121   0.561   5.287
 6450TIP3    H219315   2.010   0.587   5.188
 6451TIP3   OH219316   6.744   0.762   0.674
 6451TIP3    H119317   6.742   0.856   0.693
 6451TIP3    H219318   6.807   0.754   0.601
 6452TIP3   OH219319   1.689   0.603   5.524
 6452TIP3    H119320   1.621   0.659   5.562
 6452TIP3    H219321   1.764   0.661   5.513
 6453TIP3   OH219322   6.233   5.478   4.324
 6453TIP3    H119323   6.265   5.447   4.408
 6453TIP3    H219324   6.139   5.490   4.337
 6454TIP3   OH219325   0.715   1.736   4.743
 6454TIP3    H119326   0.701   1.738   4.838
 6454TIP3    H219327   0.800   1.777   4.730
 6455TIP3   OH219328   2.362   5.893   0.320
 6455TIP3    H119329   2.408   5.967   0.280
 6455TIP3    H219330   2.431   5.834   0.348
 6456TIP3   OH219331   2.619   1.109   2.266
 6456TIP3    H119332   2.606   1.175   2.198
 6456TIP3    H219333   2.567   1.034   2.238
 6457TIP3   OH219334   1.052   6.130   3.383
 6457TIP3    H119335   1.129   6.073   3.386
 6457TIP3    H219336   1.081   6.208   3.336
 6458TIP3   OH219337   2.402   1.912   0.716
 6458TIP3    H119338   2.344   1.836   0.706
 6458TIP3    H219339   2.451   1.894   0.796
 6459TIP3   OH219340   3.215   2.618   0.471
 6459TIP3    H119341   3.231   2.689   0.533
 6459TIP3    H219342   3.120   2.617   0.459
 6460TIP3   OH219343   4.624   2.893   5.237
 6460TIP3    H119344   4.694   2.920   5.296
 6460TIP3    H219345   4.557   2.960   5.247
 6461TIP3   OH219346   5.877   2.551   2.259
 6461TIP3    H119347   5.956   2.503   2.284
 6461TIP3    H219348   5.840   2.501   2.186
 6462TIP3   OH219349   6.396   3.499   2.024
 6462TIP3    H119350   6.461   3.430   2.009
 6462TIP3    H219351   6.330   3.486   1.956
 6463TIP3   OH219352   5.267   0.301   4.969
 6463TIP3    H119353   5.333   0.370   4.982
 6463TIP3    H219354   5.309   0.221   5.000
 6464TIP3   OH219355   7.034   1.689   0.757
 6464TIP3    H119356   6.986   1.639   0.823
 6464TIP3    H219357   7.119   1.707   0.797
 6465TIP3   OH219358   2.278   2.288   1.499
 6465TIP3    H119359   2.196   2.296   1.548
 6465TIP3    H219360   2.257   2.230   1.426
 6466TIP3   OH219361   1.681   2.967   0.407
 6466TIP3    H119362   1.744   3.036   0.388
 6466TIP3    H219363   1.730   2.901   0.455
 6467TIP3   OH219364   5.190   0.717   5.350
 6467TIP3    H119365   5.222   0.805   5.369
 6467TIP3    H219366   5.269   0.664   5.339
 6468TIP3   OH219367   5.541   1.098   2.515
 6468TIP3    H119368   5.573   1.187   2.498
 6468TIP3    H219369   5.582   1.044   2.447
 6469TIP3   OH219370   2.651   5.611   1.447
 6469TIP3    H119371   2.697   5.573   1.522
 6469TIP3    H219372   2.582   5.548   1.427
 6470TIP3   OH219373   6.302   3.237   0.276
 6470TIP3    H119374   6.217   3.280   0.290
 6470TIP3    H219375   6.363   3.288   0.329
 6471TIP3   OH219376   0.775   0.160   5.212
 6471TIP3    H119377   0.760   0.217   5.288
 6471TIP3    H219378   0.853   0.109   5.235
 6472TIP3   OH219379   7.095   3.862   1.469
 6472TIP3    H119380   7.150   3.806   1.415
 6472TIP3    H219381   7.137   3.948   1.466
 6473TIP3   OH219382   6.553   3.709   0.669
 6473TIP3    H119383   6.521   3.626   0.704
 6473TIP3    H219384   6.530   3.706   0.576
 6474TIP3   OH219385   0.653   5.244   0.314
 6474TIP3    H119386   0.602   5.324   0.319
 6474TIP3    H219387   0.660   5.226   0.220
 6475TIP3   OH219388   3.401   3.703   3.343
 6475TIP3    H119389   3.484   3.749   3.331
 6475TIP3    H219390   3.410   3.658   3.427
 6476TIP3   OH219391   3.594   1.806   0.043
 6476TIP3    H119392   3.667   1.858   0.076
 6476TIP3    H219393   3.550   1.774   0.122
 6477TIP3   OH219394   5.040   0.434   5.763
 6477TIP3    H119395   4.973   0.385   5.811
 6477TIP3    H219396   4.991   0.483   5.697
 6478TIP3   OH219397   0.891   0.683   3.686
 6478TIP3    H119398   0.806   0.640   3.674
 6478TIP3    H219399   0.901   0.691   3.781
 6479TIP3   OH219400   4.556   2.347   4.887
 6479TIP3    H119401   4.485   2.398   4.847
 6479TIP3    H219402   4.613   2.413   4.926
 6480TIP3   OH219403   5.809   0.835   1.089
 6480TIP3    H119404   5.800   0.758   1.146
 6480TIP3    H219405   5.829   0.798   1.003
 6481TIP3   OH219406   1.557   2.996   3.290
 6481TIP3    H119407   1.611   2.985   3.212
 6481TIP3    H219408   1.536   2.906   3.317
 6482TIP3   OH219409   5.455   0.813   5.550
 6482TIP3    H119410   5.525   0.802   5.614
 6482TIP3    H219411   5.483   0.759   5.475
 6483TIP3   OH219412   7.196   1.044   3.890
 6483TIP3    H119413   7.143   1.030   3.969
 6483TIP3    H219414   7.242   1.126   3.905
 6484TIP3   OH219415   1.137   6.378   4.884
 6484TIP3    H119416   1.100   6.371   4.796
 6484TIP3    H219417   1.135   6.288   4.918
 6485TIP3   OH219418   7.099   4.266   0.398
 6485TIP3    H119419   7.033   4.197   0.402
 6485TIP3    H219420   7.073   4.328   0.467
 6486TIP3   OH219421   0.847   5.194   3.434
 6486TIP3    H119422   0.867   5.213   3.342
 6486TIP3    H219423   0.852   5.099   3.440
 6487TIP3   OH219424   0.927   1.597   5.739
 6487TIP3    H119425   0.994   1.614   5.805
 6487TIP3    H219426   0.922   1.502   5.734
 6488TIP3   OH219427   0.133   0.452   1.547
 6488TIP3    H119428   0.089   0.496   1.620
 6488TIP3    H219429   0.224   0.445   1.575
 6489TIP3   OH219430   1.489   6.326   1.178
 6489TIP3    H119431   1.559   6.387   1.198
 6489TIP3    H219432   1.515   6.244   1.221
 6490TIP3   OH219433   0.743   4.493   1.014
 6490TIP3    H119434   0.832   4.487   0.980
 6490TIP3    H219435   0.723   4.405   1.045
 6491TIP3   OH219436   3.476   1.152   3.588
 6491TIP3    H119437   3.500   1.188   3.502
 6491TIP3    H219438   3.434   1.068   3.568
 6492TIP3   OH219439   4.619   3.535   5.814
 6492TIP3    H119440   4.682   3.464   5.798
 6492TIP3    H219441   4.664   3.596   5.872
 6493TIP3   OH219442   0.666   3.677   1.850
 6493TIP3    H119443   0.711   3.656   1.769
 6493TIP3    H219444   0.735   3.678   1.917
 6494TIP3   OH219445   5.691   5.209   4.760
 6494TIP3    H119446   5.756   5.240   4.823
 6494TIP3    H219447   5.668   5.121   4.791
 6495TIP3   OH219448   6.945   2.837   4.943
 6495TIP3    H119449   6.901   2.755   4.923
 6495TIP3    H219450   6.889   2.878   5.010
 6496TIP3   OH219451   6.024   6.460   4.413
 6496TIP3    H119452   5.996   6.471   4.322
 6496TIP3    H219453   5.955   6.502   4.464
 6497TIP3   OH219454   5.670   5.185   0.808
 6497TIP3    H119455   5.676   5.163   0.715
 6497TIP3    H219456   5.690   5.278   0.811
 6498TIP3   OH219457   1.960   5.765   1.279
 6498TIP3    H119458   2.055   5.751   1.273
 6498TIP3    H219459   1.947   5.853   1.242
 6499TIP3   OH219460   2.695   3.771   5.134
 6499TIP3    H119461   2.678   3.685   5.095
 6499TIP3    H219462   2.780   3.762   5.175
 6500TIP3   OH219463   5.686   1.282   1.263
 6500TIP3    H119464   5.752   1.348   1.282
 6500TIP3    H219465   5.628   1.323   1.199
 6501TIP3   OH219466   4.457   5.204   4.699
 6501TIP3    H119467   4.385   5.143   4.682
 6501TIP3    H219468   4.415   5.290   4.699
 6502TIP3   OH219469   5.334   6.397   5.676
 6502TIP3    H119470   5.426   6.377   5.658
 6502TIP3    H219471   5.285   6.330   5.628
 6503TIP3   OH219472   0.966   3.977   1.383
 6503TIP3    H119473   1.038   3.930   1.426
 6503TIP3    H219474   0.993   4.069   1.386
 6504TIP3   OH219475   4.429   1.859   1.814
 6504TIP3    H119476   4.444   1.888   1.724
 6504TIP3    H219477   4.334   1.853   1.823
 6505TIP3   OH219478   0.572   6.667   3.385
 6505TIP3    H119479   0.664   6.675   3.360
 6505TIP3    H219480   0.566   6.580   3.425
 6506TIP3   OH219481   2.466   0.868   2.246
 6506TIP3    H119482   2.484   0.823   2.164
 6506TIP3    H219483   2.437   0.798   2.305
 6507TIP3   OH219484   7.034   4.911   1.039
 6507TIP3    H119485   7.096   4.868   1.098
 6507TIP3    H219486   7.067   5.000   1.030
 6508TIP3   OH219487   4.539   2.501   3.858
 6508TIP3    H119488   4.469   2.550   3.904
 6508TIP3    H219489   4.514   2.505   3.766
 6509TIP3   OH219490   4.174   3.189   3.217
 6509TIP3    H119491   4.197   3.266   3.270
 6509TIP3    H219492   4.174   3.116   3.279
 6510TIP3   OH219493   6.777   6.706   0.866
 6510TIP3    H119494   6.757   6.628   0.917
 6510TIP3    H219495   6.789   6.775   0.931
 6511TIP3   OH219496   3.819   1.511   2.241
 6511TIP3    H119497   3.785   1.441   2.297
 6511TIP3    H219498   3.753   1.520   2.172
 6512TIP3   OH219499   1.351   2.671   2.445
 6512TIP3    H119500   1.354   2.738   2.513
 6512TIP3    H219501   1.355   2.720   2.363
 6513TIP3   OH219502   1.988   3.868   4.604
 6513TIP3    H119503   2.011   3.961   4.599
 6513TIP3    H219504   1.925   3.855   4.533
 6514TIP3   OH219505   6.948   6.482   2.302
 6514TIP3    H119506   6.882   6.472   2.234
 6514TIP3    H219507   6.984   6.569   2.287
 6515TIP3   OH219508   0.216   6.133   0.418
 6515TIP3    H119509   0.309   6.150   0.431
 6515TIP3    H219510   0.211   6.097   0.329
 6516TIP3   OH219511   5.781   5.110   3.487
 6516TIP3    H119512   5.858   5.095   3.541
 6516TIP3    H219513   5.713   5.057   3.527
 6517TIP3   OH219514   6.539   5.400   2.659
 6517TIP3    H119515   6.622   5.421   2.616
 6517TIP3    H219516   6.479   5.468   2.631
 6518TIP3   OH219517   2.403   4.983   2.174
 6518TIP3    H119518   2.315   4.948   2.186
 6518TIP3    H219519   2.395   5.076   2.194
 6519TIP3   OH219520   0.136   1.375   1.614
 6519TIP3    H119521   0.141   1.281   1.596
 6519TIP3    H219522   0.043   1.393   1.623
 6520TIP3   OH219523   1.837   2.062   4.828
 6520TIP3    H119524   1.821   2.101   4.742
 6520TIP3    H219525   1.932   2.063   4.838
 6521TIP3   OH219526   5.099   6.304   5.866
 6521TIP3    H119527   5.124   6.230   5.810
 6521TIP3    H219528   5.047   6.361   5.808
 6522TIP3   OH219529   0.687   6.256   5.578
 6522TIP3    H119530   0.743   6.315   5.629
 6522TIP3    H219531   0.637   6.315   5.521
 6523TIP3   OH219532   3.787   4.035   2.445
 6523TIP3    H119533   3.756   4.004   2.360
 6523TIP3    H219534   3.723   4.000   2.507
 6524TIP3   OH219535   5.668   5.296   0.144
 6524TIP3    H119536   5.686   5.213   0.100
 6524TIP3    H219537   5.614   5.345   0.082
 6525TIP3   OH219538   6.577   4.170   2.711
 6525TIP3    H119539   6.604   4.197   2.624
 6525TIP3    H219540   6.650   4.194   2.768
 6526TIP3   OH219541   6.200   3.441   4.352
 6526TIP3    H119542   6.235   3.483   4.430
 6526TIP3    H219543   6.277   3.408   4.305
 6527TIP3   OH219544   6.061   5.104   5.373
 6527TIP3    H119545   5.998   5.064   5.313
 6527TIP3    H219546   6.122   5.150   5.315
 6528TIP3   OH219547   0.067   5.799   0.929
 6528TIP3    H119548   0.080   5.880   0.880
 6528TIP3    H219549   0.073   5.825   1.021
 6529TIP3   OH219550   0.693   2.716   5.458
 6529TIP3    H119551   0.716   2.757   5.375
 6529TIP3    H219552   0.737   2.769   5.524
 6530TIP3   OH219553   6.783   1.032   0.144
 6530TIP3    H119554   6.798   0.962   0.080
 6530TIP3    H219555   6.767   1.110   0.090
 6531TIP3   OH219556   4.258   3.430   5.945
 6531TIP3    H119557   4.312   3.374   5.888
 6531TIP3    H219558   4.322   3.483   5.993
 6532TIP3   OH219559   3.356   5.797   4.173
 6532TIP3    H119560   3.299   5.818   4.099
 6532TIP3    H219561   3.319   5.846   4.246
 6533TIP3   OH219562   3.571   1.159   4.601
 6533TIP3    H119563   3.646   1.213   4.626
 6533TIP3    H219564   3.606   1.070   4.595
 6534TIP3   OH219565   3.732   0.834   4.253
 6534TIP3    H119566   3.723   0.739   4.257
 6534TIP3    H219567   3.701   0.865   4.338
 6535TIP3   OH219568   4.174   1.900   5.717
 6535TIP3    H119569   4.249   1.931   5.768
 6535TIP3    H219570   4.108   1.879   5.782
 6536TIP3   OH219571   4.017   3.469   2.974
 6536TIP3    H119572   4.108   3.443   2.990
 6536TIP3    H219573   3.969   3.386   2.969
 6537TIP3   OH219574   3.051   1.842   4.363
 6537TIP3    H119575   3.100   1.921   4.345
 6537TIP3    H219576   3.104   1.771   4.326
 6538TIP3   OH219577   4.813   1.301   4.199
 6538TIP3    H119578   4.857   1.219   4.222
 6538TIP3    H219579   4.851   1.325   4.114
 6539TIP3   OH219580   2.046   1.859   5.770
 6539TIP3    H119581   2.027   1.910   5.692
 6539TIP3    H219582   1.990   1.895   5.838
 6540TIP3   OH219583   1.845   3.719   0.322
 6540TIP3    H119584   1.852   3.633   0.280
 6540TIP3    H219585   1.831   3.700   0.414
 6541TIP3   OH219586   3.367   3.593   3.598
 6541TIP3    H119587   3.272   3.608   3.598
 6541TIP3    H219588   3.404   3.679   3.621
 6542TIP3   OH219589   0.939   5.672   0.536
 6542TIP3    H119590   0.867   5.612   0.557
 6542TIP3    H219591   0.982   5.632   0.460
 6543TIP3   OH219592   0.009   6.013   1.833
 6543TIP3    H119593   0.056   5.935   1.804
 6543TIP3    H219594   0.064   6.086   1.804
 6544TIP3   OH219595   2.805   3.322   4.161
 6544TIP3    H119596   2.803   3.404   4.113
 6544TIP3    H219597   2.867   3.267   4.113
 6545TIP3   OH219598   5.512   2.707   0.391
 6545TIP3    H119599   5.515   2.623   0.437
 6545TIP3    H219600   5.522   2.684   0.299
 6546TIP3   OH219601   3.594   0.836   3.764
 6546TIP3    H119602   3.678   0.831   3.808
 6546TIP3    H219603   3.587   0.755   3.714
 6547TIP3   OH219604   1.494   3.301   2.169
 6547TIP3    H119605   1.545   3.264   2.096
 6547TIP3    H219606   1.465   3.387   2.137
 6548TIP3   OH219607   5.581   3.116   3.127
 6548TIP3    H119608   5.561   3.084   3.039
 6548TIP3    H219609   5.677   3.116   3.132
 6549TIP3   OH219610   5.889   6.026   3.522
 6549TIP3    H119611   5.909   5.943   3.479
 6549TIP3    H219612   5.854   6.000   3.608
 6550TIP3   OH219613   1.866   6.233   2.964
 6550TIP3    H119614   1.824   6.264   3.044
 6550TIP3    H219615   1.958   6.225   2.986
 6551TIP3   OH219616   4.685   0.262   4.157
 6551TIP3    H119617   4.658   0.349   4.125
 6551TIP3    H219618   4.736   0.280   4.236
 6552TIP3   OH219619   1.766   5.343   0.542
 6552TIP3    H119620   1.674   5.355   0.562
 6552TIP3    H219621   1.811   5.361   0.624
 6553TIP3   OH219622   3.003   4.314   0.341
 6553TIP3    H119623   3.032   4.405   0.355
 6553TIP3    H219624   2.963   4.316   0.254
 6554TIP3   OH219625   5.019   1.162   1.291
 6554TIP3    H119626   5.083   1.095   1.270
 6554TIP3    H219627   4.986   1.191   1.206
 6555TIP3   OH219628   7.006   3.814   0.833
 6555TIP3    H119629   7.096   3.794   0.806
 6555TIP3    H219630   6.961   3.839   0.753
 6556TIP3   OH219631   0.839   3.370   4.109
 6556TIP3    H119632   0.831   3.279   4.082
 6556TIP3    H219633   0.842   3.419   4.026
 6557TIP3   OH219634   2.978   1.650   5.407
 6557TIP3    H119635   3.022   1.679   5.487
 6557TIP3    H219636   3.046   1.607   5.356
 6558TIP3   OH219637   4.751   5.837   3.356
 6558TIP3    H119638   4.823   5.774   3.354
 6558TIP3    H219639   4.695   5.806   3.427
 6559TIP3   OH219640  -0.014   2.208   4.969
 6559TIP3    H119641   0.049   2.161   4.915
 6559TIP3    H219642   0.002   2.301   4.949
 6560TIP3   OH219643   6.860   2.773   0.752
 6560TIP3    H119644   6.815   2.836   0.808
 6560TIP3    H219645   6.951   2.777   0.779
 6561TIP3   OH219646   6.921   3.138   5.080
 6561TIP3    H119647   7.001   3.087   5.065
 6561TIP3    H219648   6.950   3.215   5.129
 6562TIP3   OH219649   3.830   2.784   4.269
 6562TIP3    H119650   3.874   2.741   4.195
 6562TIP3    H219651   3.742   2.747   4.270
 6563TIP3   OH219652   3.836   6.483   1.487
 6563TIP3    H119653   3.812   6.398   1.522
 6563TIP3    H219654   3.890   6.463   1.410
 6564TIP3   OH219655   3.266   1.872   0.439
 6564TIP3    H119656   3.260   1.901   0.530
 6564TIP3    H219657   3.196   1.920   0.394
 6565TIP3   OH219658   4.014   1.392   0.979
 6565TIP3    H119659   3.963   1.408   1.058
 6565TIP3    H219660   4.018   1.296   0.973
 6566TIP3   OH219661   2.463   5.158   2.665
 6566TIP3    H119662   2.539   5.156   2.607
 6566TIP3    H219663   2.414   5.236   2.639
 6567TIP3   OH219664   2.510   5.432   3.271
 6567TIP3    H119665   2.432   5.487   3.261
 6567TIP3    H219666   2.482   5.362   3.330
 6568TIP3   OH219667   2.853   4.114   3.791
 6568TIP3    H119668   2.934   4.066   3.773
 6568TIP3    H219669   2.799   4.053   3.840
 6569TIP3   OH219670   4.398   5.922   3.361
 6569TIP3    H119671   4.420   5.828   3.364
 6569TIP3    H219672   4.326   5.932   3.422
 6570TIP3   OH219673   6.889   6.444   0.024
 6570TIP3    H119674   6.902   6.368  -0.033
 6570TIP3    H219675   6.814   6.420   0.079
 6571TIP3   OH219676   3.054   0.245   4.509
 6571TIP3    H119677   3.056   0.275   4.418
 6571TIP3    H219678   3.135   0.195   4.519
 6572TIP3   OH219679   2.987   4.347   5.343
 6572TIP3    H119680   3.054   4.372   5.407
 6572TIP3    H219681   2.991   4.251   5.341
 6573TIP3   OH219682   5.047   3.456   0.376
 6573TIP3    H119683   5.049   3.515   0.301
 6573TIP3    H219684   4.961   3.471   0.416
 6574TIP3   OH219685   5.217   2.674   0.525
 6574TIP3    H119686   5.153   2.614   0.564
 6574TIP3    H219687   5.204   2.666   0.431
 6575TIP3   OH219688   6.938   6.435   5.705
 6575TIP3    H119689   6.890   6.518   5.708
 6575TIP3    H219690   7.009   6.447   5.768
 6576TIP3   OH219691   5.161   1.391   5.730
 6576TIP3    H119692   5.095   1.352   5.787
 6576TIP3    H219693   5.204   1.316   5.689
 6577TIP3   OH219694   0.496   4.093   1.079
 6577TIP3    H119695   0.489   4.001   1.054
 6577TIP3    H219696   0.435   4.103   1.152
 6578TIP3   OH219697   4.127   2.310   1.168
 6578TIP3    H119698   4.215   2.331   1.199
 6578TIP3    H219699   4.131   2.217   1.146
 6579TIP3   OH219700   0.271   0.535   2.050
 6579TIP3    H119701   0.324   0.455   2.049
 6579TIP3    H219702   0.181   0.505   2.037
 6580TIP3   OH219703   2.646   1.051   1.662
 6580TIP3    H119704   2.705   1.052   1.738
 6580TIP3    H219705   2.703   1.065   1.587
 6581TIP3   OH219706   6.872   6.092   2.555
 6581TIP3    H119707   6.884   6.063   2.464
 6581TIP3    H219708   6.861   6.187   2.548
 6582TIP3   OH219709   5.008   2.536   5.159
 6582TIP3    H119710   4.933   2.509   5.211
 6582TIP3    H219711   5.029   2.460   5.106
 6583TIP3   OH219712   3.497   3.910   5.354
 6583TIP3    H119713   3.413   3.894   5.311
 6583TIP3    H219714   3.477   3.904   5.447
 6584TIP3   OH219715   3.771   4.642   4.340
 6584TIP3    H119716   3.698   4.588   4.371
 6584TIP3    H219717   3.778   4.712   4.405
 6585TIP3   OH219718   0.269   0.357   4.282
 6585TIP3    H119719   0.219   0.291   4.330
 6585TIP3    H219720   0.347   0.311   4.251
 6586TIP3   OH219721   4.650   1.244   3.260
 6586TIP3    H119722   4.577   1.302   3.281
 6586TIP3    H219723   4.671   1.200   3.342
 6587TIP3   OH219724   3.349   3.776   1.482
 6587TIP3    H119725   3.339   3.858   1.434
 6587TIP3    H219726   3.261   3.737   1.482
 6588TIP3   OH219727   4.382   4.294   1.239
 6588TIP3    H119728   4.441   4.350   1.188
 6588TIP3    H219729   4.318   4.355   1.276
 6589TIP3   OH219730   4.467   5.476   4.101
 6589TIP3    H119731   4.561   5.470   4.115
 6589TIP3    H219732   4.434   5.389   4.121
 6590TIP3   OH219733   6.208   1.853   3.729
 6590TIP3    H119734   6.188   1.866   3.637
 6590TIP3    H219735   6.228   1.759   3.736
 6591TIP3   OH219736   1.473   0.707   3.581
 6591TIP3    H119737   1.459   0.624   3.536
 6591TIP3    H219738   1.549   0.692   3.638
 6592TIP3   OH219739   4.076   1.964   2.648
 6592TIP3    H119740   4.139   1.932   2.713
 6592TIP3    H219741   4.129   2.013   2.585
 6593TIP3   OH219742   2.375   0.092   2.602
 6593TIP3    H119743   2.464   0.058   2.597
 6593TIP3    H219744   2.332   0.058   2.523
 6594TIP3   OH219745   3.295   6.020   3.588
 6594TIP3    H119746   3.383   6.005   3.553
 6594TIP3    H219747   3.311   6.069   3.669
 6595TIP3   OH219748   5.148   5.535   1.176
 6595TIP3    H119749   5.084   5.467   1.195
 6595TIP3    H219750   5.233   5.492   1.186
 6596TIP3   OH219751   3.978   6.312   5.118
 6596TIP3    H119752   4.047   6.257   5.079
 6596TIP3    H219753   3.929   6.252   5.174
 6597TIP3   OH219754   2.778   6.594   4.275
 6597TIP3    H119755   2.745   6.664   4.218
 6597TIP3    H219756   2.838   6.638   4.335
 6598TIP3   OH219757   6.814   2.250   3.123
 6598TIP3    H119758   6.815   2.154   3.123
 6598TIP3    H219759   6.891   2.274   3.071
 6599TIP3   OH219760   5.445   4.004   5.843
 6599TIP3    H119761   5.459   4.083   5.895
 6599TIP3    H219762   5.449   4.035   5.752
 6600TIP3   OH219763   6.341   5.717   0.143
 6600TIP3    H119764   6.363   5.716   0.050
 6600TIP3    H219765   6.406   5.777   0.181
 6601TIP3   OH219766   6.265   6.338   1.709
 6601TIP3    H119767   6.200   6.384   1.656
 6601TIP3    H219768   6.307   6.407   1.760
 6602TIP3   OH219769   2.781   0.321   3.409
 6602TIP3    H119770   2.851   0.332   3.474
 6602TIP3    H219771   2.813   0.368   3.331
 6603TIP3   OH219772   2.261   0.867   1.823
 6603TIP3    H119773   2.255   0.775   1.849
 6603TIP3    H219774   2.341   0.872   1.770
 6604TIP3   OH219775   2.730   3.793   5.843
 6604TIP3    H119776   2.797   3.843   5.797
 6604TIP3    H219777   2.667   3.859   5.873
 6605TIP3   OH219778   2.210   6.582   1.220
 6605TIP3    H119779   2.183   6.644   1.287
 6605TIP3    H219780   2.246   6.507   1.268
 6606TIP3   OH219781   3.317   2.153   4.649
 6606TIP3    H119782   3.339   2.119   4.563
 6606TIP3    H219783   3.399   2.191   4.682
 6607TIP3   OH219784   2.271   2.184   1.928
 6607TIP3    H119785   2.317   2.231   1.998
 6607TIP3    H219786   2.331   2.113   1.904
 6608TIP3   OH219787   2.773   3.203   0.751
 6608TIP3    H119788   2.745   3.214   0.660
 6608TIP3    H219789   2.697   3.165   0.795
 6609TIP3   OH219790   3.717   0.235   2.919
 6609TIP3    H119791   3.624   0.215   2.909
 6609TIP3    H219792   3.758   0.204   2.838
 6610TIP3   OH219793   6.208   5.089   4.110
 6610TIP3    H119794   6.224   5.168   4.162
 6610TIP3    H219795   6.162   5.030   4.170
 6611TIP3   OH219796   4.011   0.225   0.950
 6611TIP3    H119797   3.945   0.274   0.902
 6611TIP3    H219798   3.962   0.153   0.991
 6612TIP3   OH219799   4.067   2.415   2.727
 6612TIP3    H119800   4.074   2.322   2.702
 6612TIP3    H219801   3.974   2.429   2.742
 6613TIP3   OH219802   3.748   0.169   5.497
 6613TIP3    H119803   3.748   0.096   5.558
 6613TIP3    H219804   3.683   0.230   5.532
 6614TIP3   OH219805   5.248   5.296   2.325
 6614TIP3    H119806   5.246   5.356   2.250
 6614TIP3    H219807   5.310   5.228   2.299
 6615TIP3   OH219808   6.794   0.711   0.158
 6615TIP3    H119809   6.810   0.617   0.156
 6615TIP3    H219810   6.841   0.742   0.236
 6616TIP3   OH219811   5.926   6.164   2.776
 6616TIP3    H119812   5.885   6.099   2.832
 6616TIP3    H219813   5.863   6.179   2.706
 6617TIP3   OH219814   6.546   2.047   2.633
 6617TIP3    H119815   6.546   2.141   2.652
 6617TIP3    H219816   6.523   2.006   2.716
 6618TIP3   OH219817   5.216   1.736   4.766
 6618TIP3    H119818   5.171   1.755   4.849
 6618TIP3    H219819   5.242   1.644   4.774
 6619TIP3   OH219820   5.234   1.474   0.883
 6619TIP3    H119821   5.183   1.395   0.864
 6619TIP3    H219822   5.219   1.491   0.976
 6620TIP3   OH219823   4.047   2.193   3.538
 6620TIP3    H119824   4.076   2.139   3.611
 6620TIP3    H219825   3.968   2.151   3.506
 6621TIP3   OH219826   3.950   4.250   3.644
 6621TIP3    H119827   3.883   4.207   3.697
 6621TIP3    H219828   3.975   4.328   3.694
 6622TIP3   OH219829   6.759   0.682   3.403
 6622TIP3    H119830   6.745   0.763   3.354
 6622TIP3    H219831   6.686   0.678   3.465
 6623TIP3   OH219832   6.352   2.554   0.345
 6623TIP3    H119833   6.260   2.557   0.372
 6623TIP3    H219834   6.360   2.625   0.281
 6624TIP3   OH219835   4.948   1.989   0.689
 6624TIP3    H119836   4.988   1.902   0.700
 6624TIP3    H219837   4.953   2.028   0.776
 6625TIP3   OH219838   2.115   0.947   2.084
 6625TIP3    H119839   2.179   0.949   2.013
 6625TIP3    H219840   2.063   1.027   2.072
 6626TIP3   OH219841   0.353   0.439   1.260
 6626TIP3    H119842   0.292   0.394   1.202
 6626TIP3    H219843   0.327   0.412   1.348
 6627TIP3   OH219844   4.335   1.607   1.180
 6627TIP3    H119845   4.394   1.623   1.106
 6627TIP3    H219846   4.364   1.524   1.216
 6628TIP3   OH219847   4.364   6.178   4.784
 6628TIP3    H119848   4.412   6.101   4.812
 6628TIP3    H219849   4.393   6.193   4.694
 6629TIP3   OH219850   0.720   3.850   1.370
 6629TIP3    H119851   0.807   3.888   1.377
 6629TIP3    H219852   0.732   3.771   1.317
 6630TIP3   OH219853   6.497   3.347   4.954
 6630TIP3    H119854   6.570   3.355   4.893
 6630TIP3    H219855   6.419   3.357   4.900
 6631TIP3   OH219856   2.703   5.531   5.750
 6631TIP3    H119857   2.665   5.534   5.838
 6631TIP3    H219858   2.638   5.484   5.698
 6632TIP3   OH219859   2.285   4.994   2.544
 6632TIP3    H119860   2.333   5.060   2.594
 6632TIP3    H219861   2.239   5.044   2.476
 6633TIP3   OH219862   5.577   0.067   5.395
 6633TIP3    H119863   5.589  -0.022   5.361
 6633TIP3    H219864   5.578   0.056   5.490
 6634TIP3   OH219865   0.692   5.138   0.034
 6634TIP3    H119866   0.637   5.060   0.048
 6634TIP3    H219867   0.761   5.129   0.099
 6635TIP3   OH219868   4.416   4.180   0.791
 6635TIP3    H119869   4.488   4.176   0.727
 6635TIP3    H219870   4.372   4.262   0.771
 6636TIP3   OH219871   2.318   0.562   5.519
 6636TIP3    H119872   2.277   0.523   5.442
 6636TIP3    H219873   2.410   0.572   5.494
 6637TIP3   OH219874   5.823   1.446   4.511
 6637TIP3    H119875   5.838   1.538   4.488
 6637TIP3    H219876   5.728   1.435   4.505
 6638TIP3   OH219877   2.449   4.777   1.075
 6638TIP3    H119878   2.451   4.866   1.111
 6638TIP3    H219879   2.428   4.721   1.149
 6639TIP3   OH219880   5.889   5.423   3.454
 6639TIP3    H119881   5.965   5.426   3.512
 6639TIP3    H219882   5.922   5.453   3.369
 6640TIP3   OH219883   4.721   4.387   3.377
 6640TIP3    H119884   4.742   4.462   3.321
 6640TIP3    H219885   4.667   4.424   3.447
 6641TIP3   OH219886   5.190   3.644   5.148
 6641TIP3    H119887   5.163   3.706   5.081
 6641TIP3    H219888   5.116   3.639   5.208
 6642TIP3   OH219889   7.057   1.231   4.274
 6642TIP3    H119890   7.127   1.215   4.338
 6642TIP3    H219891   7.049   1.326   4.271
 6643TIP3   OH219892   0.659   6.278   1.016
 6643TIP3    H119893   0.737   6.245   0.971
 6643TIP3    H219894   0.674   6.372   1.023
 6644TIP3   OH219895   2.427   2.550   1.466
 6644TIP3    H119896   2.413   2.457   1.452
 6644TIP3    H219897   2.519   2.557   1.492
 6645TIP3   OH219898   0.713   0.920   0.358
 6645TIP3    H119899   0.632   0.964   0.334
 6645TIP3    H219900   0.723   0.937   0.451
 6646TIP3   OH219901   6.942   6.669   4.933
 6646TIP3    H119902   6.982   6.655   4.847
 6646TIP3    H219903   6.957   6.587   4.980
 6647TIP3   OH219904   1.964   4.794   0.861
 6647TIP3    H119905   2.046   4.822   0.901
 6647TIP3    H219906   1.911   4.874   0.856
 6648TIP3   OH219907   6.482   0.742   1.941
 6648TIP3    H119908   6.547   0.712   1.877
 6648TIP3    H219909   6.409   0.775   1.888
 6649TIP3   OH219910   3.200   4.901   2.500
 6649TIP3    H119911   3.230   4.833   2.560
 6649TIP3    H219912   3.275   4.960   2.490
 6650TIP3   OH219913   5.635   3.490   1.816
 6650TIP3    H119914   5.713   3.545   1.814
 6650TIP3    H219915   5.570   3.542   1.862
 6651TIP3   OH219916   6.761   3.271   2.051
 6651TIP3    H119917   6.734   3.260   1.960
 6651TIP3    H219918   6.803   3.357   2.054
 6652TIP3   OH219919   5.459   2.983   2.339
 6652TIP3    H119920   5.536   2.970   2.394
 6652TIP3    H219921   5.438   3.076   2.348
 6653TIP3   OH219922   0.494   1.426   3.350
 6653TIP3    H119923   0.550   1.483   3.299
 6653TIP3    H219924   0.540   1.342   3.353
 6654TIP3   OH219925   2.148   1.543   3.514
 6654TIP3    H119926   2.097   1.613   3.473
 6654TIP3    H219927   2.197   1.503   3.442
 6655TIP3   OH219928   1.730   6.050   2.779
 6655TIP3    H119929   1.754   6.107   2.851
 6655TIP3    H219930   1.673   6.103   2.723
 6656TIP3   OH219931   1.718   1.726   4.347
 6656TIP3    H119932   1.791   1.663   4.346
 6656TIP3    H219933   1.757   1.808   4.378
 6657TIP3   OH219934   7.024   5.783   5.331
 6657TIP3    H119935   7.048   5.764   5.240
 6657TIP3    H219936   7.020   5.879   5.336
 6658TIP3   OH219937   3.365   5.971   0.339
 6658TIP3    H119938   3.326   5.891   0.374
 6658TIP3    H219939   3.375   6.028   0.415
 6659TIP3   OH219940   3.791   1.691   0.568
 6659TIP3    H119941   3.697   1.689   0.580
 6659TIP3    H219942   3.806   1.642   0.487
 6660TIP3   OH219943   5.270   5.667   2.308
 6660TIP3    H119944   5.206   5.723   2.353
 6660TIP3    H219945   5.217   5.618   2.245
 6661TIP3   OH219946   0.744   5.029   3.756
 6661TIP3    H119947   0.757   4.979   3.837
 6661TIP3    H219948   0.735   5.120   3.785
 6662TIP3   OH219949   1.168   0.164   5.378
 6662TIP3    H119950   1.134   0.251   5.358
 6662TIP3    H219951   1.251   0.180   5.424
 6663TIP3   OH219952   4.761   4.828   1.050
 6663TIP3    H119953   4.785   4.838   0.958
 6663TIP3    H219954   4.831   4.775   1.087
 6664TIP3   OH219955   6.521   1.468   1.499
 6664TIP3    H119956   6.507   1.463   1.404
 6664TIP3    H219957   6.436   1.495   1.534
 6665TIP3   OH219958   2.368   1.157   1.709
 6665TIP3    H119959   2.460   1.155   1.682
 6665TIP3    H219960   2.365   1.221   1.780
 6666TIP3   OH219961   4.024   2.963   2.851
 6666TIP3    H119962   4.049   2.877   2.886
 6666TIP3    H219963   3.997   2.946   2.761
 6667TIP3   OH219964   5.766   6.374   5.861
 6667TIP3    H119965   5.815   6.323   5.927
 6667TIP3    H219966   5.834   6.419   5.811
 6668TIP3   OH219967   6.750   5.139   2.772
 6668TIP3    H119968   6.832   5.181   2.745
 6668TIP3    H219969   6.713   5.105   2.690
 6669TIP3   OH219970   2.145   4.058   0.389
 6669TIP3    H119971   2.121   3.993   0.323
 6669TIP3    H219972   2.089   4.038   0.464
 6670TIP3   OH219973   0.250   3.969   0.768
 6670TIP3    H119974   0.326   3.938   0.719
 6670TIP3    H219975   0.176   3.919   0.731
 6671TIP3   OH219976   1.434   2.362   1.430
 6671TIP3    H119977   1.498   2.393   1.495
 6671TIP3    H219978   1.349   2.371   1.474
 6672TIP3   OH219979   0.444   1.763   3.043
 6672TIP3    H119980   0.499   1.823   3.094
 6672TIP3    H219981   0.498   1.737   2.970
 6673TIP3   OH219982   1.382   2.602   0.855
 6673TIP3    H119983   1.408   2.596   0.947
 6673TIP3    H219984   1.287   2.601   0.856
 6674TIP3   OH219985   4.554   2.362   1.888
 6674TIP3    H119986   4.578   2.346   1.979
 6674TIP3    H219987   4.518   2.450   1.887
 6675TIP3   OH219988   1.336   2.323   4.740
 6675TIP3    H119989   1.339   2.417   4.719
 6675TIP3    H219990   1.397   2.282   4.678
 6676TIP3   OH219991   5.519   3.709   4.180
 6676TIP3    H119992   5.443   3.671   4.135
 6676TIP3    H219993   5.488   3.726   4.269
 6677TIP3   OH219994   0.905   6.111   5.178
 6677TIP3    H119995   0.825   6.128   5.227
 6677TIP3    H219996   0.905   6.176   5.108
 6678TIP3   OH219997   2.191   0.119   2.071
 6678TIP3    H119998   2.108   0.155   2.040
 6678TIP3    H219999   2.248   0.195   2.080
 6679TIP3   OH220000   0.856   4.739   2.681
 6679TIP3    H120001   0.846   4.764   2.589
 6679TIP3    H220002   0.850   4.643   2.680
 6680TIP3   OH220003   4.772   1.592   4.183
 6680TIP3    H120004   4.801   1.502   4.196
 6680TIP3    H220005   4.853   1.641   4.168
 6681TIP3   OH220006   1.972   5.571   1.537
 6681TIP3    H120007   2.027   5.560   1.614
 6681TIP3    H220008   2.028   5.617   1.474
 6682TIP3   OH220009   1.837   4.347   3.578
 6682TIP3    H120010   1.754   4.357   3.531
 6682TIP3    H220011   1.846   4.428   3.628
 6683TIP3   OH220012   7.061   3.610   4.656
 6683TIP3    H120013   7.003   3.593   4.730
 6683TIP3    H220014   7.060   3.529   4.606
 6684TIP3   OH220015   1.040   2.402   2.884
 6684TIP3    H120016   1.016   2.347   2.809
 6684TIP3    H220017   0.980   2.375   2.953
 6685TIP3   OH220018   1.048   3.376   3.381
 6685TIP3    H120019   0.969   3.357   3.431
 6685TIP3    H220020   1.027   3.352   3.291
 6686TIP3   OH220021   0.257   4.530   1.628
 6686TIP3    H120022   0.222   4.614   1.658
 6686TIP3    H220023   0.323   4.553   1.563
 6687TIP3   OH220024   6.789   1.743   2.344
 6687TIP3    H120025   6.827   1.786   2.420
 6687TIP3    H220026   6.755   1.660   2.377
 6688TIP3   OH220027   1.013   4.254   2.676
 6688TIP3    H120028   0.999   4.175   2.728
 6688TIP3    H220029   1.045   4.223   2.592
 6689TIP3   OH220030   6.881   1.527   0.090
 6689TIP3    H120031   6.849   1.617   0.091
 6689TIP3    H220032   6.808   1.476   0.055
 6690TIP3   OH220033   3.136   0.439   1.657
 6690TIP3    H120034   3.076   0.510   1.680
 6690TIP3    H220035   3.221   0.482   1.646
 6691TIP3   OH220036   1.250   0.360   2.825
 6691TIP3    H120037   1.305   0.318   2.891
 6691TIP3    H220038   1.229   0.445   2.863
 6692TIP3   OH220039   0.953   4.795   1.471
 6692TIP3    H120040   1.045   4.818   1.480
 6692TIP3    H220041   0.951   4.733   1.398
 6693TIP3   OH220042   0.251   5.209   1.009
 6693TIP3    H120043   0.295   5.125   1.025
 6693TIP3    H220044   0.162   5.185   0.984
 6694TIP3   OH220045   2.008   2.123   3.359
 6694TIP3    H120046   2.086   2.141   3.308
 6694TIP3    H220047   2.027   2.040   3.404
 6695TIP3   OH220048   4.002   0.068   2.985
 6695TIP3    H120049   3.931   0.071   2.921
 6695TIP3    H220050   4.074   0.025   2.939
 6696TIP3   OH220051   0.897   6.332   2.233
 6696TIP3    H120052   0.952   6.360   2.160
 6696TIP3    H220053   0.878   6.240   2.214
 6697TIP3   OH220054   6.038   1.793   2.705
 6697TIP3    H120055   6.015   1.708   2.743
 6697TIP3    H220056   6.019   1.856   2.775
 6698TIP3   OH220057   1.983   1.187   2.061
 6698TIP3    H120058   2.012   1.242   1.988
 6698TIP3    H220059   1.906   1.233   2.096
 6699TIP3   OH220060   5.255   1.515   2.768
 6699TIP3    H120061   5.165   1.501   2.795
 6699TIP3    H220062   5.299   1.547   2.846
 6700TIP3   OH220063   3.269   4.101   0.932
 6700TIP3    H120064   3.224   4.088   0.849
 6700TIP3    H220065   3.306   4.189   0.925
 6701TIP3   OH220066   5.774   1.200   3.076
 6701TIP3    H120067   5.842   1.266   3.087
 6701TIP3    H220068   5.802   1.127   3.131
 6702TIP3   OH220069   6.926   6.323   1.025
 6702TIP3    H120070   7.002   6.338   0.970
 6702TIP3    H220071   6.962   6.315   1.114
 6703TIP3   OH220072   3.761   3.280   4.040
 6703TIP3    H120073   3.766   3.369   4.076
 6703TIP3    H220074   3.850   3.246   4.047
 6704TIP3   OH220075   2.352   3.969   5.073
 6704TIP3    H120076   2.365   3.880   5.038
 6704TIP3    H220077   2.435   3.990   5.115
 6705TIP3   OH220078   4.363   6.121   1.953
 6705TIP3    H120079   4.302   6.128   2.026
 6705TIP3    H220080   4.373   6.211   1.923
 6706TIP3   OH220081   1.514   0.573   1.370
 6706TIP3    H120082   1.553   0.641   1.316
 6706TIP3    H220083   1.549   0.491   1.333
 6707TIP3   OH220084   4.115   3.372   4.262
 6707TIP3    H120085   4.145   3.321   4.337
 6707TIP3    H220086   4.158   3.457   4.272
 6708TIP3   OH220087   6.451   3.036   0.159
 6708TIP3    H120088   6.394   3.091   0.213
 6708TIP3    H220089   6.450   3.078   0.073
 6709TIP3   OH220090   0.461   3.317   1.479
 6709TIP3    H120091   0.413   3.236   1.458
 6709TIP3    H220092   0.475   3.359   1.394
 6710TIP3   OH220093   6.590   6.136   4.086
 6710TIP3    H120094   6.585   6.194   4.009
 6710TIP3    H220095   6.549   6.187   4.156
 6711TIP3   OH220096   2.891   1.302   3.614
 6711TIP3    H120097   2.940   1.221   3.599
 6711TIP3    H220098   2.957   1.365   3.642
 6712TIP3   OH220099   1.321   1.489  -0.050
 6712TIP3    H120100   1.316   1.563  -0.110
 6712TIP3    H220101   1.353   1.527   0.032
 6713TIP3   OH220102   5.300   5.050   1.334
 6713TIP3    H120103   5.299   5.032   1.428
 6713TIP3    H220104   5.392   5.065   1.313
 6714TIP3   OH220105   1.134   3.080   3.657
 6714TIP3    H120106   1.208   3.127   3.695
 6714TIP3    H220107   1.057   3.130   3.684
 6715TIP3   OH220108   2.042   4.726   4.966
 6715TIP3    H120109   2.123   4.753   4.923
 6715TIP3    H220110   2.055   4.748   5.058
 6716TIP3   OH220111   4.578   2.130   1.393
 6716TIP3    H120112   4.660   2.099   1.354
 6716TIP3    H220113   4.605   2.176   1.472
 6717TIP3   OH220114   6.317   1.417   2.233
 6717TIP3    H120115   6.258   1.410   2.158
 6717TIP3    H220116   6.376   1.342   2.224
 6718TIP3   OH220117   2.405   2.019   2.993
 6718TIP3    H120118   2.393   2.113   2.983
 6718TIP3    H220119   2.388   2.002   3.086
 6719TIP3   OH220120   2.589   2.275   0.507
 6719TIP3    H120121   2.667   2.234   0.543
 6719TIP3    H220122   2.608   2.369   0.510
 6720TIP3   OH220123   2.723   0.695   4.122
 6720TIP3    H120124   2.643   0.749   4.127
 6720TIP3    H220125   2.696   0.616   4.075
 6721TIP3   OH220126   7.084   0.680   2.136
 6721TIP3    H120127   7.027   0.745   2.177
 6721TIP3    H220128   7.030   0.641   2.067
 6722TIP3   OH220129   2.254   5.288   4.111
 6722TIP3    H120130   2.264   5.194   4.120
 6722TIP3    H220131   2.343   5.323   4.121
 6723TIP3   OH220132   5.038   2.037   0.024
 6723TIP3    H120133   5.091   2.107   0.061
 6723TIP3    H220134   5.052   2.044  -0.071
 6724TIP3   OH220135   0.610   6.379   3.398
 6724TIP3    H120136   0.665   6.331   3.459
 6724TIP3    H220137   0.663   6.388   3.319
 6725TIP3   OH220138   4.214   5.536   0.214
 6725TIP3    H120139   4.305   5.552   0.236
 6725TIP3    H220140   4.205   5.565   0.123
 6726TIP3   OH220141   2.908   0.898   0.514
 6726TIP3    H120142   2.888   0.837   0.443
 6726TIP3    H220143   2.992   0.937   0.490
 6727TIP3   OH220144   6.028   0.499   5.564
 6727TIP3    H120145   6.123   0.504   5.567
 6727TIP3    H220146   6.005   0.430   5.626
 6728TIP3   OH220147   7.244   5.490   5.364
 6728TIP3    H120148   7.241   5.551   5.437
 6728TIP3    H220149   7.204   5.410   5.398
 6729TIP3   OH220150   4.039   2.144   3.973
 6729TIP3    H120151   4.096   2.119   3.901
 6729TIP3    H220152   3.979   2.070   3.983
 6730TIP3   OH220153   4.744   0.735   5.112
 6730TIP3    H120154   4.793   0.815   5.094
 6730TIP3    H220155   4.677   0.733   5.044
 6731TIP3   OH220156   2.683   1.177   2.813
 6731TIP3    H120157   2.609   1.116   2.822
 6731TIP3    H220158   2.700   1.180   2.719
 6732TIP3   OH220159   1.043   3.500   3.061
 6732TIP3    H120160   1.114   3.446   3.029
 6732TIP3    H220161   0.978   3.438   3.093
 6733TIP3   OH220162   1.912   5.610   4.892
 6733TIP3    H120163   1.977   5.549   4.926
 6733TIP3    H220164   1.913   5.597   4.797
 6734TIP3   OH220165   1.772   5.828   0.310
 6734TIP3    H120166   1.730   5.747   0.336
 6734TIP3    H220167   1.862   5.821   0.343
 6735TIP3   OH220168   5.713   4.887   3.148
 6735TIP3    H120169   5.655   4.863   3.221
 6735TIP3    H220170   5.766   4.959   3.182
 6736TIP3   OH220171   5.869   5.938   4.426
 6736TIP3    H120172   5.941   5.967   4.482
 6736TIP3    H220173   5.853   6.012   4.367
 6737TIP3   OH220174   7.016   3.385   4.499
 6737TIP3    H120175   7.011   3.331   4.578
 6737TIP3    H220176   7.009   3.322   4.427
 6738TIP3   OH220177   6.600   0.108   0.323
 6738TIP3    H120178   6.590   0.032   0.380
 6738TIP3    H220179   6.536   0.096   0.254
 6739TIP3   OH220180   0.328   2.946   1.973
 6739TIP3    H120181   0.294   2.965   2.061
 6739TIP3    H220182   0.423   2.951   1.982
 6740TIP3   OH220183   5.841   5.550   1.933
 6740TIP3    H120184   5.762   5.588   1.974
 6740TIP3    H220185   5.905   5.621   1.935
 6741TIP3   OH220186   1.401   3.374   1.075
 6741TIP3    H120187   1.412   3.287   1.036
 6741TIP3    H220188   1.306   3.390   1.072
 6742TIP3   OH220189   4.445   2.282   1.199
 6742TIP3    H120190   4.512   2.349   1.188
 6742TIP3    H220191   4.483   2.220   1.262
 6743TIP3   OH220192   6.788   0.919   3.257
 6743TIP3    H120193   6.844   0.993   3.282
 6743TIP3    H220194   6.804   0.907   3.164
 6744TIP3   OH220195   0.749   2.517   1.353
 6744TIP3    H120196   0.741   2.606   1.386
 6744TIP3    H220197   0.673   2.505   1.296
 6745TIP3   OH220198   5.429   4.672   4.534
 6745TIP3    H120199   5.493   4.738   4.509
 6745TIP3    H220200   5.475   4.615   4.596
 6746TIP3   OH220201   5.688   6.499   4.737
 6746TIP3    H120202   5.625   6.483   4.808
 6746TIP3    H220203   5.744   6.569   4.770
 6747TIP3   OH220204   4.882   4.758   2.378
 6747TIP3    H120205   4.837   4.727   2.457
 6747TIP3    H220206   4.812   4.775   2.315
 6748TIP3   OH220207   4.640   3.880   3.458
 6748TIP3    H120208   4.577   3.809   3.446
 6748TIP3    H220209   4.633   3.904   3.550
 6749TIP3   OH220210   2.967   5.643   2.016
 6749TIP3    H120211   2.913   5.659   1.939
 6749TIP3    H220212   3.007   5.728   2.035
 6750TIP3   OH220213   3.120   2.947   2.163
 6750TIP3    H120214   3.126   2.862   2.205
 6750TIP3    H220215   3.093   3.007   2.232
 6751TIP3   OH220216   5.100   5.113   2.028
 6751TIP3    H120217   5.188   5.146   2.012
 6751TIP3    H220218   5.107   5.062   2.109
 6752TIP3   OH220219   5.512   2.214   5.305
 6752TIP3    H120220   5.442   2.151   5.319
 6752TIP3    H220221   5.491   2.256   5.221
 6753TIP3   OH220222   4.138   6.528   3.423
 6753TIP3    H120223   4.089   6.538   3.504
 6753TIP3    H220224   4.075   6.548   3.354
 6754TIP3   OH220225   6.154   3.121   4.232
 6754TIP3    H120226   6.077   3.126   4.175
 6754TIP3    H220227   6.121   3.079   4.312
 6755TIP3   OH220228   5.943   1.372   4.769
 6755TIP3    H120229   5.988   1.305   4.717
 6755TIP3    H220230   5.865   1.393   4.717
 6756TIP3   OH220231   7.060   2.989   4.471
 6756TIP3    H120232   6.984   2.991   4.529
 6756TIP3    H220233   7.054   2.904   4.427
 6757TIP3   OH220234   1.118   5.044   2.452
 6757TIP3    H120235   1.145   5.109   2.387
 6757TIP3    H220236   1.173   5.061   2.528
 6758TIP3   OH220237   4.726   4.749   5.653
 6758TIP3    H120238   4.673   4.829   5.649
 6758TIP3    H220239   4.663   4.678   5.656
 6759TIP3   OH220240   1.792   4.939   0.312
 6759TIP3    H120241   1.871   4.893   0.339
 6759TIP3    H220242   1.791   4.931   0.216
 6760TIP3   OH220243   0.317   2.548   4.798
 6760TIP3    H120244   0.397   2.497   4.811
 6760TIP3    H220245   0.347   2.636   4.777
 6761TIP3   OH220246   3.497   3.618   3.948
 6761TIP3    H120247   3.455   3.684   3.893
 6761TIP3    H220248   3.591   3.634   3.936
 6762TIP3   OH220249   0.467   6.219   0.469
 6762TIP3    H120250   0.554   6.180   0.462
 6762TIP3    H220251   0.483   6.313   0.481
 6763TIP3   OH220252   2.278   3.980   2.069
 6763TIP3    H120253   2.371   3.960   2.058
 6763TIP3    H220254   2.264   3.976   2.164
 6764TIP3   OH220255   4.009   0.935   5.337
 6764TIP3    H120256   3.928   0.969   5.300
 6764TIP3    H220257   4.022   0.986   5.417
 6765TIP3   OH220258   4.737   2.647   2.160
 6765TIP3    H120259   4.790   2.704   2.105
 6765TIP3    H220260   4.751   2.559   2.123
 6766TIP3   OH220261   3.357   1.597   2.607
 6766TIP3    H120262   3.338   1.526   2.545
 6766TIP3    H220263   3.441   1.573   2.646
 6767TIP3   OH220264   4.250   3.194   1.605
 6767TIP3    H120265   4.187   3.136   1.647
 6767TIP3    H220266   4.206   3.279   1.602
 6768TIP3   OH220267   7.036   4.586   0.340
 6768TIP3    H120268   6.948   4.592   0.377
 6768TIP3    H220269   7.095   4.611   0.412
 6769TIP3   OH220270   6.566   0.734   4.057
 6769TIP3    H120271   6.481   0.744   4.101
 6769TIP3    H220272   6.626   0.786   4.110
 6770TIP3   OH220273   1.116   2.039   0.218
 6770TIP3    H120274   1.127   1.945   0.226
 6770TIP3    H220275   1.087   2.053   0.128
 6771TIP3   OH220276   3.918   6.059   2.213
 6771TIP3    H120277   3.967   6.017   2.284
 6771TIP3    H220278   3.912   6.151   2.239
 6772TIP3   OH220279   6.749   4.949   0.713
 6772TIP3    H120280   6.776   4.990   0.630
 6772TIP3    H220281   6.827   4.950   0.767
 6773TIP3   OH220282   1.750   6.815   3.605
 6773TIP3    H120283   1.710   6.768   3.678
 6773TIP3    H220284   1.795   6.889   3.645
 6774TIP3   OH220285   6.436   5.643   3.569
 6774TIP3    H120286   6.524   5.680   3.564
 6774TIP3    H220287   6.441   5.562   3.519
 6775TIP3   OH220288   6.841   2.472   4.280
 6775TIP3    H120289   6.856   2.383   4.248
 6775TIP3    H220290   6.806   2.520   4.205
 6776TIP3   OH220291   1.111   3.998   0.593
 6776TIP3    H120292   1.030   4.049   0.603
 6776TIP3    H220293   1.163   4.048   0.531
 6777TIP3   OH220294   0.245   6.432   0.194
 6777TIP3    H120295   0.294   6.511   0.171
 6777TIP3    H220296   0.313   6.369   0.221
 6778TIP3   OH220297   6.108   0.890   1.965
 6778TIP3    H120298   6.014   0.878   1.979
 6778TIP3    H220299   6.125   0.982   1.989
 6779TIP3   OH220300   3.354   3.169   0.290
 6779TIP3    H120301   3.268   3.134   0.316
 6779TIP3    H220302   3.334   3.232   0.222
 6780TIP3   OH220303   3.577   3.601   1.203
 6780TIP3    H120304   3.573   3.683   1.253
 6780TIP3    H220305   3.666   3.599   1.168
 6781TIP3   OH220306   0.943   4.473   2.341
 6781TIP3    H120307   0.923   4.549   2.287
 6781TIP3    H220308   1.022   4.497   2.390
 6782TIP3   OH220309   5.688   2.575   4.473
 6782TIP3    H120310   5.623   2.610   4.534
 6782TIP3    H220311   5.636   2.536   4.403
 6783TIP3   OH220312   5.591   0.553   3.236
 6783TIP3    H120313   5.668   0.495   3.239
 6783TIP3    H220314   5.517   0.493   3.232
 6784TIP3   OH220315   5.157   2.570   1.807
 6784TIP3    H120316   5.177   2.661   1.832
 6784TIP3    H220317   5.062   2.568   1.796
 6785TIP3   OH220318   6.239   6.165   4.283
 6785TIP3    H120319   6.260   6.227   4.214
 6785TIP3    H220320   6.177   6.211   4.339
 6786TIP3   OH220321   6.243   6.620   2.642
 6786TIP3    H120322   6.185   6.571   2.583
 6786TIP3    H220323   6.184   6.674   2.694
 6787TIP3   OH220324   4.107   5.070   2.860
 6787TIP3    H120325   4.182   5.056   2.918
 6787TIP3    H220326   4.074   4.982   2.843
 6788TIP3   OH220327   1.135   2.701   1.323
 6788TIP3    H120328   1.171   2.657   1.400
 6788TIP3    H220329   1.042   2.713   1.343
 6789TIP3   OH220330   2.631   6.020   3.080
 6789TIP3    H120331   2.543   6.056   3.095
 6789TIP3    H220332   2.669   6.076   3.012
 6790TIP3   OH220333   3.474   0.078   5.382
 6790TIP3    H120334   3.427   0.137   5.322
 6790TIP3    H220335   3.564   0.080   5.350
 6791TIP3   OH220336   2.887   3.181   0.013
 6791TIP3    H120337   2.838   3.253  -0.027
 6791TIP3    H220338   2.899   3.118  -0.058
 6792TIP3   OH220339   3.236   4.209   3.277
 6792TIP3    H120340   3.252   4.287   3.330
 6792TIP3    H220341   3.142   4.192   3.288
 6793TIP3   OH220342   3.497   4.973   1.543
 6793TIP3    H120343   3.512   4.900   1.482
 6793TIP3    H220344   3.469   5.045   1.487
 6794TIP3   OH220345   4.638   6.433   5.320
 6794TIP3    H120346   4.621   6.393   5.406
 6794TIP3    H220347   4.597   6.374   5.257
 6795TIP3   OH220348   6.030   0.660   4.640
 6795TIP3    H120349   6.077   0.598   4.695
 6795TIP3    H220350   5.946   0.618   4.623
 6796TIP3   OH220351   6.134   0.007   2.292
 6796TIP3    H120352   6.154   0.098   2.311
 6796TIP3    H220353   6.188  -0.043   2.353
 6797TIP3   OH220354   1.159   1.524   4.539
 6797TIP3    H120355   1.121   1.606   4.571
 6797TIP3    H220356   1.130   1.518   4.448
 6798TIP3   OH220357   1.686   0.363   4.901
 6798TIP3    H120358   1.738   0.402   4.830
 6798TIP3    H220359   1.752   0.336   4.965
 6799TIP3   OH220360   7.064   1.746   4.164
 6799TIP3    H120361   6.996   1.787   4.111
 6799TIP3    H220362   7.112   1.691   4.102
 6800TIP3   OH220363   0.271   2.278   5.227
 6800TIP3    H120364   0.189   2.293   5.273
 6800TIP3    H220365   0.268   2.185   5.202
 6801TIP3   OH220366   2.029   2.206   0.816
 6801TIP3    H120367   1.990   2.235   0.899
 6801TIP3    H220368   1.957   2.210   0.754
 6802TIP3   OH220369   0.684   0.192   0.976
 6802TIP3    H120370   0.617   0.165   1.039
 6802TIP3    H220371   0.686   0.122   0.911
 6803TIP3   OH220372   0.184   4.708   3.945
 6803TIP3    H120373   0.138   4.766   4.006
 6803TIP3    H220374   0.259   4.675   3.995
 6804TIP3   OH220375   0.159   5.223   5.113
 6804TIP3    H120376   0.163   5.304   5.063
 6804TIP3    H220377   0.241   5.223   5.164
 6805TIP3   OH220378   5.418   1.370   3.796
 6805TIP3    H120379   5.375   1.442   3.843
 6805TIP3    H220380   5.360   1.351   3.723
 6806TIP3   OH220381   6.878   1.888   4.025
 6806TIP3    H120382   6.901   1.879   3.932
 6806TIP3    H220383   6.788   1.922   4.023
 6807TIP3   OH220384   3.043   0.753   3.975
 6807TIP3    H120385   3.076   0.795   4.055
 6807TIP3    H220386   2.948   0.750   3.987
 6808TIP3   OH220387   2.844   0.562   0.565
 6808TIP3    H120388   2.850   0.612   0.484
 6808TIP3    H220389   2.927   0.515   0.572
 6809TIP3   OH220390   2.111   1.003   4.696
 6809TIP3    H120391   2.069   1.077   4.652
 6809TIP3    H220392   2.038   0.949   4.727
 6810TIP3   OH220393   2.091   6.230   5.424
 6810TIP3    H120394   2.036   6.165   5.379
 6810TIP3    H220395   2.069   6.313   5.384
 6811TIP3   OH220396   4.519   2.399   2.159
 6811TIP3    H120397   4.555   2.474   2.208
 6811TIP3    H220398   4.439   2.376   2.205
 6812TIP3   OH220399   0.441   4.910   5.827
 6812TIP3    H120400   0.423   4.962   5.905
 6812TIP3    H220401   0.367   4.850   5.821
 6813TIP3   OH220402   0.252   6.450   0.921
 6813TIP3    H120403   0.297   6.505   0.857
 6813TIP3    H220404   0.315   6.439   0.993
 6814TIP3   OH220405   1.098   1.523   1.584
 6814TIP3    H120406   1.033   1.455   1.605
 6814TIP3    H220407   1.171   1.504   1.642
 6815TIP3   OH220408   1.436   0.788   4.690
 6815TIP3    H120409   1.363   0.761   4.635
 6815TIP3    H220410   1.434   0.884   4.687
 6816TIP3   OH220411   3.820   5.835   1.176
 6816TIP3    H120412   3.869   5.862   1.254
 6816TIP3    H220413   3.869   5.760   1.142
 6817TIP3   OH220414   5.901   3.036   1.318
 6817TIP3    H120415   5.947   3.102   1.370
 6817TIP3    H220416   5.852   3.087   1.254
 6818TIP3   OH220417   6.074   1.300   5.905
 6818TIP3    H120418   6.132   1.225   5.918
 6818TIP3    H220419   5.997   1.264   5.861
 6819TIP3   OH220420   0.576   5.441   4.274
 6819TIP3    H120421   0.544   5.360   4.313
 6819TIP3    H220422   0.579   5.423   4.180
 6820TIP3   OH220423   6.938   5.324   1.391
 6820TIP3    H120424   6.978   5.239   1.371
 6820TIP3    H220425   6.948   5.333   1.486
 6821TIP3   OH220426   2.199   5.842   4.948
 6821TIP3    H120427   2.142   5.915   4.925
 6821TIP3    H220428   2.270   5.882   4.998
 6822TIP3   OH220429   1.806   2.826   3.201
 6822TIP3    H120430   1.794   2.762   3.270
 6822TIP3    H220431   1.866   2.784   3.139
 6823TIP3   OH220432   0.001   1.806   1.511
 6823TIP3    H120433  -0.026   1.812   1.603
 6823TIP3    H220434   0.082   1.857   1.507
 6824TIP3   OH220435   4.493   6.683   2.421
 6824TIP3    H120436   4.418   6.727   2.383
 6824TIP3    H220437   4.567   6.743   2.406
 6825TIP3   OH220438   6.275   4.917   0.649
 6825TIP3    H120439   6.249   4.825   0.651
 6825TIP3    H220440   6.345   4.924   0.714
 6826TIP3   OH220441   4.552   2.850   0.351
 6826TIP3    H120442   4.608   2.791   0.402
 6826TIP3    H220443   4.613   2.899   0.295
 6827TIP3   OH220444   4.894   3.121   1.327
 6827TIP3    H120445   4.885   3.170   1.409
 6827TIP3    H220446   4.825   3.055   1.331
 6828TIP3   OH220447   4.758   5.989   1.391
 6828TIP3    H120448   4.784   6.066   1.441
 6828TIP3    H220449   4.812   5.993   1.312
 6829TIP3   OH220450   4.308   5.631   2.237
 6829TIP3    H120451   4.365   5.707   2.225
 6829TIP3    H220452   4.225   5.656   2.196
 6830TIP3   OH220453   1.221   0.883   0.373
 6830TIP3    H120454   1.211   0.960   0.316
 6830TIP3    H220455   1.132   0.860   0.398
 6831TIP3   OH220456   6.450   0.131   3.743
 6831TIP3    H120457   6.514   0.201   3.750
 6831TIP3    H220458   6.502   0.051   3.736
 6832TIP3   OH220459   3.854   6.709   4.420
 6832TIP3    H120460   3.921   6.642   4.409
 6832TIP3    H220461   3.773   6.668   4.389
 6833TIP3   OH220462   2.840   5.572   3.578
 6833TIP3    H120463   2.801   5.507   3.519
 6833TIP3    H220464   2.768   5.630   3.601
 6834TIP3   OH220465   6.885   2.454   3.297
 6834TIP3    H120466   6.868   2.394   3.224
 6834TIP3    H220467   6.863   2.540   3.263
 6835TIP3   OH220468   3.505   5.308   0.193
 6835TIP3    H120469   3.479   5.385   0.141
 6835TIP3    H220470   3.564   5.343   0.259
 6836TIP3   OH220471   1.300   1.080   5.376
 6836TIP3    H120472   1.240   1.132   5.431
 6836TIP3    H220473   1.369   1.052   5.436
 6837TIP3   OH220474   4.872   3.942   5.142
 6837TIP3    H120475   4.780   3.969   5.135
 6837TIP3    H220476   4.867   3.850   5.167
 6838TIP3   OH220477   1.741   2.654   5.803
 6838TIP3    H120478   1.741   2.570   5.757
 6838TIP3    H220479   1.715   2.718   5.737
 6839TIP3   OH220480   3.292   0.097   0.706
 6839TIP3    H120481   3.360   0.066   0.646
 6839TIP3    H220482   3.336   0.164   0.759
 6840TIP3   OH220483   7.183   5.409   3.257
 6840TIP3    H120484   7.101   5.456   3.247
 6840TIP3    H220485   7.249   5.478   3.266
 6841TIP3   OH220486   3.079   3.652   3.626
 6841TIP3    H120487   3.041   3.660   3.713
 6841TIP3    H220488   3.046   3.569   3.593
 6842TIP3   OH220489   2.285   5.730   1.557
 6842TIP3    H120490   2.313   5.652   1.605
 6842TIP3    H220491   2.295   5.802   1.621
 6843TIP3   OH220492   2.612   5.878   1.382
 6843TIP3    H120493   2.573   5.903   1.298
 6843TIP3    H220494   2.609   5.782   1.382
 6844TIP3   OH220495   5.309   4.823   4.742
 6844TIP3    H120496   5.341   4.746   4.693
 6844TIP3    H220497   5.356   4.896   4.703
 6845TIP3   OH220498   6.478   4.695   1.100
 6845TIP3    H120499   6.404   4.638   1.122
 6845TIP3    H220500   6.445   4.784   1.114
 6846TIP3   OH220501   1.670   4.895   5.078
 6846TIP3    H120502   1.685   4.972   5.134
 6846TIP3    H220503   1.582   4.865   5.102
 6847TIP3   OH220504   5.411   4.398   1.497
 6847TIP3    H120505   5.373   4.481   1.526
 6847TIP3    H220506   5.341   4.356   1.447
 6848TIP3   OH220507   1.668   5.941   2.457
 6848TIP3    H120508   1.702   6.007   2.517
 6848TIP3    H220509   1.731   5.941   2.384
 6849TIP3   OH220510   6.146   4.024   2.482
 6849TIP3    H120511   6.150   4.093   2.548
 6849TIP3    H220512   6.204   4.053   2.412
 6850TIP3   OH220513   5.200   4.002   3.862
 6850TIP3    H120514   5.283   3.962   3.886
 6850TIP3    H220515   5.193   3.988   3.767
 6851TIP3   OH220516   0.018   2.097   2.955
 6851TIP3    H120517  -0.004   2.092   2.862
 6851TIP3    H220518   0.063   2.015   2.974
 6852TIP3   OH220519   0.305   0.877   0.945
 6852TIP3    H120520   0.287   0.873   1.039
 6852TIP3    H220521   0.299   0.786   0.916
 6853TIP3   OH220522   2.470   4.467   0.490
 6853TIP3    H120523   2.418   4.406   0.542
 6853TIP3    H220524   2.560   4.442   0.507
 6854TIP3   OH220525   1.009   1.776   3.861
 6854TIP3    H120526   0.932   1.821   3.826
 6854TIP3    H220527   1.037   1.831   3.935
 6855TIP3   OH220528   5.345   5.705   2.605
 6855TIP3    H120529   5.372   5.615   2.624
 6855TIP3    H220530   5.272   5.696   2.543
 6856TIP3   OH220531   6.155   6.677   4.530
 6856TIP3    H120532   6.110   6.594   4.516
 6856TIP3    H220533   6.233   6.654   4.581
 6857TIP3   OH220534   3.102   1.304   1.854
 6857TIP3    H120535   3.056   1.258   1.924
 6857TIP3    H220536   3.185   1.256   1.845
 6858TIP3   OH220537   4.321   2.027   3.155
 6858TIP3    H120538   4.233   2.046   3.187
 6858TIP3    H220539   4.306   1.968   3.080
 6859TIP3   OH220540   0.480   6.235   4.449
 6859TIP3    H120541   0.385   6.239   4.446
 6859TIP3    H220542   0.508   6.249   4.359
 6860TIP3   OH220543   2.533   2.501   5.385
 6860TIP3    H120544   2.506   2.484   5.475
 6860TIP3    H220545   2.629   2.497   5.388
 6861TIP3   OH220546   0.703   2.560   2.373
 6861TIP3    H120547   0.665   2.572   2.285
 6861TIP3    H220548   0.794   2.588   2.364
 6862TIP3   OH220549   3.983   1.311   4.028
 6862TIP3    H120550   3.985   1.369   4.104
 6862TIP3    H220551   3.904   1.258   4.041
 6863TIP3   OH220552   1.846   0.945   0.111
 6863TIP3    H120553   1.848   1.001   0.189
 6863TIP3    H220554   1.813   1.002   0.041
 6864TIP3   OH220555   6.619   2.515   5.264
 6864TIP3    H120556   6.539   2.508   5.212
 6864TIP3    H220557   6.607   2.593   5.318
 6865TIP3   OH220558   5.799   0.146   1.987
 6865TIP3    H120559   5.865   0.213   2.006
 6865TIP3    H220560   5.831   0.068   2.032
 6866TIP3   OH220561   3.469   2.065   5.831
 6866TIP3    H120562   3.400   2.132   5.830
 6866TIP3    H220563   3.469   2.029   5.742
 6867TIP3   OH220564   2.796   5.011   0.256
 6867TIP3    H120565   2.762   5.056   0.334
 6867TIP3    H220566   2.751   5.053   0.183
 6868TIP3   OH220567   1.848   0.256   3.438
 6868TIP3    H120568   1.872   0.191   3.504
 6868TIP3    H220569   1.930   0.300   3.416
 6869TIP3   OH220570   1.577   4.968   1.753
 6869TIP3    H120571   1.666   5.002   1.767
 6869TIP3    H220572   1.523   5.012   1.818
 6870TIP3   OH220573   3.353   0.851   1.007
 6870TIP3    H120574   3.272   0.858   1.059
 6870TIP3    H220575   3.322   0.845   0.916
 6871TIP3   OH220576   2.374   5.388   5.414
 6871TIP3    H120577   2.308   5.448   5.447
 6871TIP3    H220578   2.339   5.301   5.434
 6872TIP3   OH220579   0.279   2.296   5.554
 6872TIP3    H120580   0.264   2.204   5.533
 6872TIP3    H220581   0.359   2.318   5.507
 6873TIP3   OH220582   0.576   5.093   4.994
 6873TIP3    H120583   0.656   5.113   5.043
 6873TIP3    H220584   0.572   4.998   4.990
 6874TIP3   OH220585   4.476   4.738   4.057
 6874TIP3    H120586   4.513   4.745   3.969
 6874TIP3    H220587   4.384   4.716   4.042
 6875TIP3   OH220588   5.073   6.788   3.423
 6875TIP3    H120589   5.022   6.869   3.420
 6875TIP3    H220590   5.010   6.720   3.448
 6876TIP3   OH220591   5.215   3.061   3.642
 6876TIP3    H120592   5.192   3.015   3.561
 6876TIP3    H220593   5.297   3.019   3.670
 6877TIP3   OH220594   0.781   1.390   0.987
 6877TIP3    H120595   0.844   1.323   0.961
 6877TIP3    H220596   0.711   1.341   1.031
 6878TIP3   OH220597   1.807   0.940   2.434
 6878TIP3    H120598   1.717   0.913   2.417
 6878TIP3    H220599   1.848   0.864   2.475
 6879TIP3   OH220600   6.189   1.221   1.300
 6879TIP3    H120601   6.219   1.310   1.283
 6879TIP3    H220602   6.136   1.198   1.223
 6880TIP3   OH220603   2.511   5.967   2.074
 6880TIP3    H120604   2.601   5.989   2.098
 6880TIP3    H220605   2.483   6.040   2.018
 6881TIP3   OH220606   4.288   6.531   4.592
 6881TIP3    H120607   4.267   6.518   4.500
 6881TIP3    H220608   4.203   6.546   4.635
 6882TIP3   OH220609   2.699   4.608   2.422
 6882TIP3    H120610   2.779   4.612   2.475
 6882TIP3    H220611   2.729   4.595   2.333
 6883TIP3   OH220612   5.504   4.118   0.167
 6883TIP3    H120613   5.572   4.093   0.229
 6883TIP3    H220614   5.432   4.058   0.185
 6884TIP3   OH220615   3.133   0.358   0.094
 6884TIP3    H120616   3.226   0.338   0.105
 6884TIP3    H220617   3.121   0.441   0.139
 6885TIP3   OH220618   0.651   3.036   3.330
 6885TIP3    H120619   0.737   3.074   3.312
 6885TIP3    H220620   0.660   2.944   3.302
 6886TIP3   OH220621   6.231   3.973   0.241
 6886TIP3    H120622   6.229   3.982   0.336
 6886TIP3    H220623   6.270   3.886   0.226
 6887TIP3   OH220624   2.608   5.456   5.268
 6887TIP3    H120625   2.578   5.452   5.177
 6887TIP3    H220626   2.537   5.416   5.318
 6888TIP3   OH220627   5.893   6.510   1.903
 6888TIP3    H120628   5.956   6.575   1.932
 6888TIP3    H220629   5.895   6.442   1.970
 6889TIP3   OH220630   1.948   5.400   2.370
 6889TIP3    H120631   2.018   5.436   2.423
 6889TIP3    H220632   1.992   5.345   2.306
 6890TIP3   OH220633   2.416   2.304   2.135
 6890TIP3    H120634   2.498   2.257   2.149
 6890TIP3    H220635   2.434   2.393   2.163
 6891TIP3   OH220636   3.268   0.545   5.818
 6891TIP3    H120637   3.323   0.623   5.812
 6891TIP3    H220638   3.296   0.501   5.898
 6892TIP3   OH220639   2.946   2.664   4.472
 6892TIP3    H120640   3.034   2.669   4.509
 6892TIP3    H220641   2.945   2.583   4.422
 6893TIP3   OH220642   5.106   4.568   1.323
 6893TIP3    H120643   5.111   4.473   1.309
 6893TIP3    H220644   5.184   4.589   1.374
 6894TIP3   OH220645   1.414   4.337   0.555
 6894TIP3    H120646   1.362   4.269   0.512
 6894TIP3    H220647   1.469   4.373   0.485
 6895TIP3   OH220648   3.258   1.689   5.856
 6895TIP3    H120649   3.190   1.723   5.797
 6895TIP3    H220650   3.270   1.598   5.828
 6896TIP3   OH220651   3.627   0.986   5.307
 6896TIP3    H120652   3.554   1.045   5.325
 6896TIP3    H220653   3.696   1.043   5.274
 6897TIP3   OH220654   1.013   2.813   4.197
 6897TIP3    H120655   1.045   2.857   4.118
 6897TIP3    H220656   1.091   2.800   4.250
 6898TIP3   OH220657   2.844   5.642   1.246
 6898TIP3    H120658   2.769   5.640   1.305
 6898TIP3    H220659   2.837   5.727   1.201
 6899TIP3   OH220660   3.842   0.837   3.319
 6899TIP3    H120661   3.903   0.768   3.344
 6899TIP3    H220662   3.781   0.794   3.258
 6900TIP3   OH220663   6.068   6.595   3.229
 6900TIP3    H120664   6.080   6.687   3.205
 6900TIP3    H220665   6.003   6.597   3.299
 6901TIP3   OH220666   0.119   2.246   2.155
 6901TIP3    H120667   0.122   2.331   2.112
 6901TIP3    H220668   0.076   2.263   2.238
 6902TIP3   OH220669   5.170   3.413   5.029
 6902TIP3    H120670   5.198   3.492   5.074
 6902TIP3    H220671   5.130   3.445   4.948
 6903TIP3   OH220672   3.677   3.753   3.360
 6903TIP3    H120673   3.702   3.824   3.301
 6903TIP3    H220674   3.668   3.795   3.446
 6904TIP3   OH220675   4.412   1.473   5.694
 6904TIP3    H120676   4.368   1.520   5.765
 6904TIP3    H220677   4.493   1.441   5.734
 6905TIP3   OH220678   1.210   4.496   5.262
 6905TIP3    H120679   1.282   4.463   5.209
 6905TIP3    H220680   1.249   4.514   5.347
 6906TIP3   OH220681   1.738   0.424   1.114
 6906TIP3    H120682   1.773   0.460   1.195
 6906TIP3    H220683   1.762   0.331   1.117
 6907TIP3   OH220684   4.152   0.447   0.826
 6907TIP3    H120685   4.106   0.438   0.743
 6907TIP3    H220686   4.123   0.373   0.878
 6908TIP3   OH220687   0.421   0.928   3.564
 6908TIP3    H120688   0.331   0.910   3.590
 6908TIP3    H220689   0.474   0.878   3.626
 6909TIP3   OH220690   0.247   5.908   3.385
 6909TIP3    H120691   0.231   6.002   3.393
 6909TIP3    H220692   0.203   5.870   3.461
 6910TIP3   OH220693   0.366   6.286   3.321
 6910TIP3    H120694   0.395   6.195   3.321
 6910TIP3    H220695   0.437   6.335   3.363
 6911TIP3   OH220696   0.106   0.211   4.463
 6911TIP3    H120697   0.072   0.292   4.500
 6911TIP3    H220698   0.029   0.156   4.448
 6912TIP3   OH220699   3.859   3.612   4.225
 6912TIP3    H120700   3.811   3.689   4.194
 6912TIP3    H220701   3.907   3.642   4.302
 6913TIP3   OH220702   3.519   1.550   0.320
 6913TIP3    H120703   3.498   1.613   0.388
 6913TIP3    H220704   3.461   1.572   0.247
 6914TIP3   OH220705   6.733   2.840   1.004
 6914TIP3    H120706   6.692   2.926   0.998
 6914TIP3    H220707   6.659   2.779   1.003
 6915TIP3   OH220708   0.803   0.812   1.319
 6915TIP3    H120709   0.755   0.871   1.377
 6915TIP3    H220710   0.736   0.755   1.282
 6916TIP3   OH220711   1.585   4.432   0.395
 6916TIP3    H120712   1.565   4.502   0.334
 6916TIP3    H220713   1.638   4.370   0.345
 6917TIP3   OH220714   6.119   4.243   2.642
 6917TIP3    H120715   6.084   4.329   2.621
 6917TIP3    H220716   6.105   4.234   2.737
 6918TIP3   OH220717   5.259   5.709   1.336
 6918TIP3    H120718   5.195   5.663   1.281
 6918TIP3    H220719   5.276   5.649   1.409
 6919TIP3   OH220720   3.006   6.101   0.931
 6919TIP3    H120721   2.987   6.127   1.021
 6919TIP3    H220722   3.098   6.124   0.919
 6920TIP3   OH220723   5.334   3.365   1.747
 6920TIP3    H120724   5.393   3.411   1.687
 6920TIP3    H220725   5.256   3.420   1.752
 6921TIP3   OH220726   4.833   4.309   0.519
 6921TIP3    H120727   4.905   4.340   0.464
 6921TIP3    H220728   4.837   4.363   0.598
 6922TIP3   OH220729   5.422   4.310   0.762
 6922TIP3    H120730   5.449   4.395   0.798
 6922TIP3    H220731   5.504   4.262   0.750
 6923TIP3   OH220732   1.288   3.599   5.219
 6923TIP3    H120733   1.328   3.535   5.159
 6923TIP3    H220734   1.237   3.545   5.280
 6924TIP3   OH220735   0.580   4.372   1.784
 6924TIP3    H120736   0.522   4.298   1.766
 6924TIP3    H220737   0.645   4.370   1.714
 6925TIP3   OH220738   2.830   2.842   5.306
 6925TIP3    H120739   2.865   2.915   5.358
 6925TIP3    H220740   2.743   2.827   5.341
 6926TIP3   OH220741   6.883   3.581   0.443
 6926TIP3    H120742   6.916   3.521   0.377
 6926TIP3    H220743   6.961   3.627   0.475
 6927TIP3   OH220744   2.845   0.250   4.112
 6927TIP3    H120745   2.845   0.220   4.202
 6927TIP3    H220746   2.920   0.310   4.106
 6928TIP3   OH220747   1.629   2.349   3.347
 6928TIP3    H120748   1.560   2.299   3.390
 6928TIP3    H220749   1.647   2.299   3.267
 6929TIP3   OH220750   3.147   6.714   0.959
 6929TIP3    H120751   3.131   6.790   1.014
 6929TIP3    H220752   3.114   6.739   0.873
 6930TIP3   OH220753   0.958   6.817   2.929
 6930TIP3    H120754   0.902   6.849   2.858
 6930TIP3    H220755   1.046   6.815   2.891
 6931TIP3   OH220756   3.152   6.420   2.210
 6931TIP3    H120757   3.144   6.511   2.238
 6931TIP3    H220758   3.245   6.409   2.192
 6932TIP3   OH220759   2.347   5.452   0.681
 6932TIP3    H120760   2.364   5.400   0.760
 6932TIP3    H220761   2.348   5.388   0.610
 6933TIP3   OH220762   6.979   3.631   1.192
 6933TIP3    H120763   6.926   3.636   1.271
 6933TIP3    H220764   7.047   3.566   1.213
 6934TIP3   OH220765   2.799   3.716   1.517
 6934TIP3    H120766   2.733   3.653   1.548
 6934TIP3    H220767   2.882   3.682   1.549
 6935TIP3   OH220768   4.957   2.043   4.055
 6935TIP3    H120769   4.899   2.104   4.009
 6935TIP3    H220770   5.012   2.099   4.109
 6936TIP3   OH220771   3.395   3.212   1.639
 6936TIP3    H120772   3.330   3.165   1.587
 6936TIP3    H220773   3.473   3.215   1.583
 6937TIP3   OH220774   5.625   1.744   1.126
 6937TIP3    H120775   5.624   1.699   1.211
 6937TIP3    H220776   5.561   1.814   1.136
 6938TIP3   OH220777   5.910   2.795   2.891
 6938TIP3    H120778   5.869   2.789   2.977
 6938TIP3    H220779   5.996   2.753   2.902
 6939TIP3   OH220780   6.747   4.251   0.492
 6939TIP3    H120781   6.821   4.282   0.544
 6939TIP3    H220782   6.767   4.277   0.403
 6940TIP3   OH220783   1.992   0.049   4.593
 6940TIP3    H120784   2.007   0.121   4.655
 6940TIP3    H220785   2.066   0.054   4.533
 6941TIP3   OH220786   3.998   0.778   4.156
 6941TIP3    H120787   3.933   0.719   4.194
 6941TIP3    H220788   3.969   0.865   4.184
 6942TIP3   OH220789   1.449   2.805   5.791
 6942TIP3    H120790   1.531   2.805   5.741
 6942TIP3    H220791   1.453   2.724   5.842
 6943TIP3   OH220792   7.133   0.088   5.776
 6943TIP3    H120793   7.161   0.176   5.753
 6943TIP3    H220794   7.177   0.069   5.859
 6944TIP3   OH220795   4.305   4.082   5.174
 6944TIP3    H120796   4.273   4.078   5.083
 6944TIP3    H220797   4.230   4.055   5.227
 6945TIP3   OH220798   5.194   0.918   1.242
 6945TIP3    H120799   5.132   0.845   1.241
 6945TIP3    H220800   5.273   0.883   1.282
 6946TIP3   OH220801   2.805   3.929   0.849
 6946TIP3    H120802   2.875   3.994   0.854
 6946TIP3    H220803   2.788   3.919   0.755
 6947TIP3   OH220804   0.502   1.962   4.347
 6947TIP3    H120805   0.584   1.935   4.304
 6947TIP3    H220806   0.473   2.039   4.297
 6948TIP3   OH220807   2.037   2.528   5.614
 6948TIP3    H120808   2.027   2.618   5.585
 6948TIP3    H220809   2.038   2.476   5.534
 6949TIP3   OH220810   3.424   5.898   5.841
 6949TIP3    H120811   3.450   5.978   5.886
 6949TIP3    H220812   3.343   5.920   5.797
 6950TIP3   OH220813   5.340   0.436   2.226
 6950TIP3    H120814   5.286   0.515   2.221
 6950TIP3    H220815   5.292   0.371   2.175
 6951TIP3   OH220816   3.994   3.081   4.954
 6951TIP3    H120817   3.949   3.006   4.992
 6951TIP3    H220818   3.923   3.140   4.928
 6952TIP3   OH220819   3.736   1.446   1.972
 6952TIP3    H120820   3.826   1.429   1.998
 6952TIP3    H220821   3.727   1.403   1.886
 6953TIP3   OH220822   6.769   3.571   5.930
 6953TIP3    H120823   6.746   3.617   6.011
 6953TIP3    H220824   6.691   3.522   5.907
 6954TIP3   OH220825   3.732   6.407   5.258
 6954TIP3    H120826   3.740   6.470   5.185
 6954TIP3    H220827   3.642   6.419   5.289
 6955TIP3   OH220828   5.918   5.773   3.421
 6955TIP3    H120829   5.837   5.723   3.431
 6955TIP3    H220830   5.988   5.707   3.421
 6956TIP3   OH220831   1.683   1.042   3.542
 6956TIP3    H120832   1.666   0.964   3.489
 6956TIP3    H220833   1.778   1.047   3.549
 6957TIP3   OH220834   6.820   3.840   4.841
 6957TIP3    H120835   6.909   3.868   4.821
 6957TIP3    H220836   6.794   3.895   4.916
 6958TIP3   OH220837   1.213   1.174   3.425
 6958TIP3    H120838   1.214   1.095   3.370
 6958TIP3    H220839   1.304   1.204   3.426
 6959TIP3   OH220840   7.058   0.141   3.395
 6959TIP3    H120841   6.994   0.150   3.466
 6959TIP3    H220842   7.076   0.231   3.367
 6960TIP3   OH220843   1.596   4.400   4.954
 6960TIP3    H120844   1.640   4.451   4.886
 6960TIP3    H220845   1.664   4.342   4.989
 6961TIP3   OH220846   6.189   5.106   3.017
 6961TIP3    H120847   6.279   5.138   3.023
 6961TIP3    H220848   6.135   5.184   3.030
 6962TIP3   OH220849   0.101   4.534   4.642
 6962TIP3    H120850   0.084   4.442   4.660
 6962TIP3    H220851   0.048   4.554   4.564
 6963TIP3   OH220852   6.161   1.525   1.307
 6963TIP3    H120853   6.179   1.476   1.388
 6963TIP3    H220854   6.199   1.611   1.323
 6964TIP3   OH220855   6.550   5.105   4.113
 6964TIP3    H120856   6.508   5.073   4.192
 6964TIP3    H220857   6.489   5.086   4.042
 6965TIP3   OH220858   0.329   6.545   3.652
 6965TIP3    H120859   0.352   6.615   3.591
 6965TIP3    H220860   0.411   6.496   3.663
 6966TIP3   OH220861   0.955   2.827   5.547
 6966TIP3    H120862   0.926   2.898   5.605
 6966TIP3    H220863   1.039   2.799   5.582
 6967TIP3   OH220864   3.219   4.135   2.960
 6967TIP3    H120865   3.156   4.207   2.967
 6967TIP3    H220866   3.169   4.057   2.983
 6968TIP3   OH220867   0.585   4.366   5.897
 6968TIP3    H120868   0.560   4.301   5.832
 6968TIP3    H220869   0.558   4.450   5.860
 6969TIP3   OH220870   2.613   3.690   3.702
 6969TIP3    H120871   2.547   3.633   3.663
 6969TIP3    H220872   2.697   3.650   3.679
 6970TIP3   OH220873   2.578   0.609   1.539
 6970TIP3    H120874   2.563   0.536   1.480
 6970TIP3    H220875   2.589   0.569   1.625
 6971TIP3   OH220876   4.608   6.063   0.770
 6971TIP3    H120877   4.662   6.027   0.840
 6971TIP3    H220878   4.671   6.092   0.704
 6972TIP3   OH220879   5.421   1.453   3.032
 6972TIP3    H120880   5.408   1.369   3.075
 6972TIP3    H220881   5.490   1.437   2.967
 6973TIP3   OH220882   0.906   4.848   2.424
 6973TIP3    H120883   0.913   4.818   2.334
 6973TIP3    H220884   0.991   4.886   2.444
 6974TIP3   OH220885   5.822   1.712   0.467
 6974TIP3    H120886   5.910   1.675   0.463
 6974TIP3    H220887   5.764   1.639   0.445
 6975TIP3   OH220888   0.200   6.786   2.591
 6975TIP3    H120889   0.264   6.830   2.535
 6975TIP3    H220890   0.238   6.700   2.610
 6976TIP3   OH220891   1.651   4.080   0.988
 6976TIP3    H120892   1.569   4.124   1.010
 6976TIP3    H220893   1.660   4.012   1.054
 6977TIP3   OH220894   0.623   1.700   0.333
 6977TIP3    H120895   0.640   1.716   0.240
 6977TIP3    H220896   0.658   1.777   0.377
 6978TIP3   OH220897   0.676   0.458   0.966
 6978TIP3    H120898   0.771   0.469   0.967
 6978TIP3    H220899   0.663   0.363   0.975
 6979TIP3   OH220900   4.715   5.838   5.808
 6979TIP3    H120901   4.711   5.827   5.903
 6979TIP3    H220902   4.767   5.918   5.796
 6980TIP3   OH220903   2.919   4.358   1.360
 6980TIP3    H120904   2.937   4.363   1.266
 6980TIP3    H220905   2.825   4.373   1.368
 6981TIP3   OH220906   1.314   4.471   3.454
 6981TIP3    H120907   1.380   4.529   3.493
 6981TIP3    H220908   1.317   4.392   3.508
 6982TIP3   OH220909   0.645   4.468   2.243
 6982TIP3    H120910   0.721   4.522   2.220
 6982TIP3    H220911   0.601   4.452   2.159
 6983TIP3   OH220912   1.408   3.912   5.557
 6983TIP3    H120913   1.323   3.956   5.545
 6983TIP3    H220914   1.399   3.830   5.510
 6984TIP3   OH220915   1.952   3.637   5.678
 6984TIP3    H120916   1.940   3.641   5.583
 6984TIP3    H220917   1.989   3.723   5.700
 6985TIP3   OH220918   5.780   4.877   2.195
 6985TIP3    H120919   5.783   4.933   2.117
 6985TIP3    H220920   5.869   4.877   2.228
 6986TIP3   OH220921   7.050   5.039   3.755
 6986TIP3    H120922   7.111   4.966   3.753
 6986TIP3    H220923   6.966   5.002   3.728
 6987TIP3   OH220924   4.346   1.405   4.040
 6987TIP3    H120925   4.398   1.338   3.996
 6987TIP3    H220926   4.363   1.485   3.990
 6988TIP3   OH220927   5.282   2.807   5.607
 6988TIP3    H120928   5.257   2.748   5.537
 6988TIP3    H220929   5.373   2.831   5.588
 6989TIP3   OH220930   4.639   0.781   5.634
 6989TIP3    H120931   4.733   0.793   5.643
 6989TIP3    H220932   4.624   0.778   5.539
 6990TIP3   OH220933   1.004   3.742   2.938
 6990TIP3    H120934   1.012   3.821   2.991
 6990TIP3    H220935   1.024   3.670   2.998
 6991TIP3   OH220936   4.023   0.638   5.282
 6991TIP3    H120937   3.935   0.604   5.300
 6991TIP3    H220938   4.030   0.715   5.340
 6992TIP3   OH220939   6.269   2.502   2.717
 6992TIP3    H120940   6.174   2.514   2.708
 6992TIP3    H220941   6.305   2.590   2.707
 6993TIP3   OH220942   3.406   3.500   4.226
 6993TIP3    H120943   3.440   3.505   4.137
 6993TIP3    H220944   3.334   3.564   4.228
 6994TIP3   OH220945   3.528   1.663   5.698
 6994TIP3    H120946   3.530   1.573   5.728
 6994TIP3    H220947   3.472   1.709   5.761
 6995TIP3   OH220948   5.414   6.389   4.876
 6995TIP3    H120949   5.370   6.380   4.792
 6995TIP3    H220950   5.369   6.461   4.919
 6996TIP3   OH220951   4.584   6.227   3.672
 6996TIP3    H120952   4.586   6.311   3.718
 6996TIP3    H220953   4.522   6.174   3.722
 6997TIP3   OH220954   0.622   2.218   4.864
 6997TIP3    H120955   0.644   2.204   4.772
 6997TIP3    H220956   0.529   2.238   4.864
 6998TIP3   OH220957   3.000   2.398   0.515
 6998TIP3    H120958   2.996   2.427   0.606
 6998TIP3    H220959   3.071   2.334   0.514
 6999TIP3   OH220960   0.591   2.829   0.533
 6999TIP3    H120961   0.668   2.773   0.546
 6999TIP3    H220962   0.584   2.838   0.437
 7000TIP3   OH220963   5.510   1.115   4.330
 7000TIP3    H120964   5.503   1.197   4.378
 7000TIP3    H220965   5.489   1.047   4.395
 7001TIP3   OH220966   6.687   6.197   2.106
 7001TIP3    H120967   6.659   6.116   2.062
 7001TIP3    H220968   6.756   6.169   2.166
 7002TIP3   OH220969   1.318   4.380   1.271
 7002TIP3    H120970   1.273   4.425   1.199
 7002TIP3    H220971   1.337   4.449   1.335
 7003TIP3   OH220972   3.393   2.035   4.405
 7003TIP3    H120973   3.469   1.979   4.387
 7003TIP3    H220974   3.349   2.043   4.321
 7004TIP3   OH220975   1.273   5.208   1.008
 7004TIP3    H120976   1.188   5.166   1.025
 7004TIP3    H220977   1.282   5.273   1.077
 7005TIP3   OH220978   1.900   6.408   3.715
 7005TIP3    H120979   1.909   6.420   3.810
 7005TIP3    H220980   1.911   6.313   3.702
 7006TIP3   OH220981   4.396   0.051   4.410
 7006TIP3    H120982   4.301   0.062   4.400
 7006TIP3    H220983   4.430   0.140   4.414
 7007TIP3   OH220984   5.353   6.313   2.805
 7007TIP3    H120985   5.327   6.249   2.872
 7007TIP3    H220986   5.427   6.359   2.844
 7008TIP3   OH220987   4.322   2.268   4.498
 7008TIP3    H120988   4.299   2.258   4.591
 7008TIP3    H220989   4.241   2.245   4.452
 7009TIP3   OH220990   0.987   0.851   2.234
 7009TIP3    H120991   1.037   0.799   2.297
 7009TIP3    H220992   1.037   0.844   2.153
 7010TIP3   OH220993   7.147   2.805   3.393
 7010TIP3    H120994   7.229   2.755   3.392
 7010TIP3    H220995   7.174   2.895   3.408
 7011TIP3   OH220996   5.407   4.187   5.345
 7011TIP3    H120997   5.497   4.159   5.361
 7011TIP3    H220998   5.395   4.174   5.251
 7012TIP3   OH220999   3.468   0.734   5.837
 7012TIP3    H121000   3.554   0.777   5.837
 7012TIP3    H221001   3.415   0.787   5.778
 7013TIP3   OH221002   3.184   6.287   0.302
 7013TIP3    H121003   3.146   6.240   0.376
 7013TIP3    H221004   3.109   6.309   0.247
 7014TIP3   OH221005   5.134   2.536   2.975
 7014TIP3    H121006   5.201   2.604   2.976
 7014TIP3    H221007   5.093   2.542   3.062
 7015TIP3   OH221008   3.255   2.107   5.229
 7015TIP3    H121009   3.343   2.134   5.258
 7015TIP3    H221010   3.213   2.188   5.201
 7016TIP3   OH221011   6.220   0.029   1.998
 7016TIP3    H121012   6.302  -0.018   2.007
 7016TIP3    H221013   6.190   0.044   2.087
 7017TIP3   OH221014   3.851   0.870   0.375
 7017TIP3    H121015   3.867   0.960   0.347
 7017TIP3    H221016   3.931   0.845   0.422
 7018TIP3   OH221017   4.636   1.626   5.402
 7018TIP3    H121018   4.615   1.633   5.309
 7018TIP3    H221019   4.554   1.648   5.447
 7019TIP3   OH221020   6.631   1.215   1.490
 7019TIP3    H121021   6.612   1.171   1.573
 7019TIP3    H221022   6.570   1.289   1.487
 7020TIP3   OH221023   2.503   0.067   5.348
 7020TIP3    H121024   2.547   0.105   5.272
 7020TIP3    H221025   2.575   0.044   5.407
 7021TIP3   OH221026   3.770   1.192   2.264
 7021TIP3    H121027   3.678   1.188   2.241
 7021TIP3    H221028   3.804   1.105   2.243
 7022TIP3   OH221029   3.613   3.603   3.072
 7022TIP3    H121030   3.634   3.513   3.098
 7022TIP3    H221031   3.606   3.651   3.155
 7023TIP3   OH221032   6.541   3.040   4.960
 7023TIP3    H121033   6.584   3.123   4.938
 7023TIP3    H221034   6.601   2.998   5.021
 7024TIP3   OH221035   6.316   0.894   1.753
 7024TIP3    H121036   6.233   0.897   1.800
 7024TIP3    H221037   6.302   0.948   1.675
 7025TIP3   OH221038   4.787   1.851   2.324
 7025TIP3    H121039   4.702   1.889   2.299
 7025TIP3    H221040   4.813   1.799   2.249
 7026TIP3   OH221041   3.756   3.889   2.216
 7026TIP3    H121042   3.813   3.930   2.152
 7026TIP3    H221043   3.690   3.843   2.164
 7027TIP3   OH221044   4.934   0.374   2.607
 7027TIP3    H121045   4.967   0.380   2.696
 7027TIP3    H221046   4.904   0.463   2.586
 7028TIP3   OH221047   2.749   0.512   4.883
 7028TIP3    H121048   2.784   0.440   4.935
 7028TIP3    H221049   2.789   0.502   4.797
 7029TIP3   OH221050   1.567   3.851   0.847
 7029TIP3    H121051   1.482   3.867   0.888
 7029TIP3    H221052   1.620   3.926   0.871
 7030TIP3   OH221053   6.897   3.635   0.084
 7030TIP3    H121054   6.935   3.562   0.131
 7030TIP3    H221055   6.938   3.713   0.122
 7031TIP3   OH221056   2.918   4.913   2.037
 7031TIP3    H121057   2.922   4.836   2.093
 7031TIP3    H221058   2.832   4.908   1.995
 7032TIP3   OH221059   4.440   3.284   1.961
 7032TIP3    H121060   4.476   3.314   2.045
 7032TIP3    H221061   4.373   3.348   1.939
 7033TIP3   OH221062   1.738   3.331   1.164
 7033TIP3    H121063   1.667   3.278   1.200
 7033TIP3    H221064   1.764   3.285   1.084
 7034TIP3   OH221065   3.094   6.637   2.389
 7034TIP3    H121066   3.151   6.626   2.465
 7034TIP3    H221067   3.058   6.725   2.398
 7035TIP3   OH221068   6.478   5.431   5.169
 7035TIP3    H121069   6.423   5.481   5.229
 7035TIP3    H221070   6.482   5.343   5.206
 7036TIP3   OH221071   4.178   0.660   3.960
 7036TIP3    H121072   4.154   0.692   3.873
 7036TIP3    H221073   4.117   0.704   4.019
 7037TIP3   OH221074   0.766   2.935   4.754
 7037TIP3    H121075   0.805   3.021   4.767
 7037TIP3    H221076   0.734   2.938   4.663
 7038TIP3   OH221077   3.216   3.862   5.807
 7038TIP3    H121078   3.275   3.830   5.738
 7038TIP3    H221079   3.258   3.942   5.839
 7039TIP3   OH221080   5.291   0.985   0.754
 7039TIP3    H121081   5.323   0.954   0.838
 7039TIP3    H221082   5.369   1.012   0.707
 7040TIP3   OH221083   5.197   5.182   3.658
 7040TIP3    H121084   5.267   5.132   3.701
 7040TIP3    H221085   5.144   5.215   3.730
 7041TIP3   OH221086   4.555   6.512   1.958
 7041TIP3    H121087   4.498   6.575   2.001
 7041TIP3    H221088   4.601   6.563   1.891
 7042TIP3   OH221089   0.848   0.843   3.462
 7042TIP3    H121090   0.778   0.876   3.519
 7042TIP3    H221091   0.906   0.794   3.521
 7043TIP3   OH221092   4.768   1.745   4.709
 7043TIP3    H121093   4.704   1.673   4.711
 7043TIP3    H221094   4.716   1.823   4.691
 7044TIP3   OH221095   4.625   5.055   4.376
 7044TIP3    H121096   4.668   5.027   4.457
 7044TIP3    H221097   4.638   4.982   4.316
 7045TIP3   OH221098   5.136   2.066   2.998
 7045TIP3    H121099   5.100   2.015   3.071
 7045TIP3    H221100   5.158   2.001   2.931
 7046TIP3   OH221101   0.017   3.442   0.042
 7046TIP3    H121102  -0.045   3.395  -0.015
 7046TIP3    H221103   0.071   3.372   0.080
 7047TIP3   OH221104   6.901   5.138   5.872
 7047TIP3    H121105   6.977   5.157   5.818
 7047TIP3    H221106   6.937   5.116   5.958
 7048TIP3   OH221107   1.409   2.476   2.655
 7048TIP3    H121108   1.399   2.546   2.590
 7048TIP3    H221109   1.367   2.400   2.614
 7049TIP3   OH221110   0.267   2.788   2.942
 7049TIP3    H121111   0.263   2.768   2.848
 7049TIP3    H221112   0.291   2.704   2.983
 7050TIP3   OH221113   0.771   4.270   1.483
 7050TIP3    H121114   0.711   4.254   1.410
 7050TIP3    H221115   0.727   4.235   1.560
 7051TIP3   OH221116   5.596   0.007   4.338
 7051TIP3    H121117   5.583   0.089   4.385
 7051TIP3    H221118   5.523  -0.048   4.365
 7052TIP3   OH221119   0.379   1.217   3.599
 7052TIP3    H121120   0.370   1.233   3.505
 7052TIP3    H221121   0.343   1.129   3.611
 7053TIP3   OH221122   5.686   0.975   2.954
 7053TIP3    H121123   5.690   1.068   2.977
 7053TIP3    H221124   5.773   0.956   2.919
 7054TIP3   OH221125   6.077   3.183   1.461
 7054TIP3    H121126   6.162   3.215   1.432
 7054TIP3    H221127   6.094   3.144   1.546
 7055TIP3   OH221128   0.380   6.197   1.956
 7055TIP3    H121129   0.357   6.120   2.008
 7055TIP3    H221130   0.314   6.200   1.887
 7056TIP3   OH221131   6.598   6.174   3.748
 7056TIP3    H121132   6.643   6.169   3.663
 7056TIP3    H221133   6.576   6.084   3.768
 7057TIP3   OH221134   4.744   4.162   2.012
 7057TIP3    H121135   4.720   4.251   2.037
 7057TIP3    H221136   4.705   4.151   1.925
 7058TIP3   OH221137   5.795   1.079   1.748
 7058TIP3    H121138   5.723   1.125   1.703
 7058TIP3    H221139   5.767   1.076   1.839
 7059TIP3   OH221140   0.422   0.747   3.000
 7059TIP3    H121141   0.485   0.674   3.001
 7059TIP3    H221142   0.438   0.793   3.083
 7060TIP3   OH221143   4.391   5.207   2.264
 7060TIP3    H121144   4.471   5.244   2.228
 7060TIP3    H221145   4.371   5.261   2.340
 7061TIP3   OH221146   7.030   3.350   0.942
 7061TIP3    H121147   7.125   3.340   0.949
 7061TIP3    H221148   7.001   3.272   0.896
 7062TIP3   OH221149   2.771   6.123   0.500
 7062TIP3    H121150   2.795   6.045   0.450
 7062TIP3    H221151   2.716   6.174   0.441
 7063TIP3   OH221152   5.771   2.433   2.565
 7063TIP3    H121153   5.721   2.511   2.543
 7063TIP3    H221154   5.780   2.385   2.483
 7064TIP3   OH221155   5.842   4.621   2.075
 7064TIP3    H121156   5.829   4.582   2.161
 7064TIP3    H221157   5.936   4.616   2.060
 7065TIP3   OH221158   4.149   4.705   0.044
 7065TIP3    H121159   4.074   4.682   0.099
 7065TIP3    H221160   4.143   4.646  -0.031
 7066TIP3   OH221161   2.576   1.668   0.711
 7066TIP3    H121162   2.639   1.668   0.638
 7066TIP3    H221163   2.596   1.748   0.760
 7067TIP3   OH221164   3.989   4.625   5.538
 7067TIP3    H121165   3.922   4.652   5.601
 7067TIP3    H221166   3.995   4.699   5.478
 7068TIP3   OH221167   6.898   2.608   2.672
 7068TIP3    H121168   6.968   2.572   2.727
 7068TIP3    H221169   6.883   2.696   2.706
 7069TIP3   OH221170   3.311   5.366   4.129
 7069TIP3    H121171   3.380   5.417   4.172
 7069TIP3    H221172   3.248   5.348   4.198
 7070TIP3   OH221173   4.540   2.269   3.117
 7070TIP3    H121174   4.447   2.245   3.117
 7070TIP3    H221175   4.572   2.236   3.033
 7071TIP3   OH221176   5.341   2.449   3.169
 7071TIP3    H121177   5.255   2.477   3.199
 7071TIP3    H221178   5.377   2.526   3.125
 7072TIP3   OH221179   1.677   3.397   0.494
 7072TIP3    H121180   1.631   3.465   0.544
 7072TIP3    H221181   1.638   3.315   0.523
 7073TIP3   OH221182   2.284   4.994   0.583
 7073TIP3    H121183   2.327   4.958   0.660
 7073TIP3    H221184   2.224   5.060   0.617
 7074TIP3   OH221185   4.780   5.776   4.878
 7074TIP3    H121186   4.796   5.822   4.961
 7074TIP3    H221187   4.758   5.687   4.905
 7075TIP3   OH221188   1.548   3.367   1.784
 7075TIP3    H121189   1.570   3.424   1.858
 7075TIP3    H221190   1.502   3.424   1.723
 7076TIP3   OH221191   5.370   1.794   4.277
 7076TIP3    H121192   5.321   1.844   4.342
 7076TIP3    H221193   5.365   1.846   4.197
 7077TIP3   OH221194   4.315   4.750   5.468
 7077TIP3    H121195   4.228   4.760   5.429
 7077TIP3    H221196   4.357   4.835   5.455
 7078TIP3   OH221197   2.472   4.615   1.504
 7078TIP3    H121198   2.435   4.586   1.588
 7078TIP3    H221199   2.518   4.696   1.525
 7079TIP3   OH221200   0.403   4.851   4.777
 7079TIP3    H121201   0.389   4.832   4.870
 7079TIP3    H221202   0.382   4.944   4.768
 7080TIP3   OH221203   4.174   0.968   2.957
 7080TIP3    H121204   4.097   0.911   2.954
 7080TIP3    H221205   4.190   0.982   3.050
 7081TIP3   OH221206   4.425   0.107   0.924
 7081TIP3    H121207   4.408   0.015   0.947
 7081TIP3    H221208   4.437   0.106   0.829
 7082TIP3   OH221209   3.901   1.708   1.748
 7082TIP3    H121210   3.892   1.803   1.743
 7082TIP3    H221211   3.897   1.688   1.842
 7083TIP3   OH221212   6.666   3.357   3.903
 7083TIP3    H121213   6.675   3.451   3.918
 7083TIP3    H221214   6.718   3.339   3.825
 7084TIP3   OH221215   2.628   0.445   3.627
 7084TIP3    H121216   2.696   0.388   3.663
 7084TIP3    H221217   2.634   0.432   3.532
 7085TIP3   OH221218   6.166   4.454   3.505
 7085TIP3    H121219   6.189   4.481   3.593
 7085TIP3    H221220   6.090   4.396   3.517
 7086TIP3   OH221221   1.339   1.507   3.525
 7086TIP3    H121222   1.245   1.505   3.513
 7086TIP3    H221223   1.352   1.494   3.619
 7087TIP3   OH221224   7.119   4.246   4.338
 7087TIP3    H121225   7.202   4.268   4.296
 7087TIP3    H221226   7.131   4.158   4.372
 7088TIP3   OH221227   2.686   1.328   3.431
 7088TIP3    H121228   2.695   1.422   3.416
 7088TIP3    H221229   2.743   1.311   3.506
 7089TIP3   OH221230   5.649   3.422   5.910
 7089TIP3    H121231   5.707   3.475   5.855
 7089TIP3    H221232   5.690   3.335   5.909
 7090TIP3   OH221233   2.077   5.194   1.706
 7090TIP3    H121234   2.104   5.276   1.746
 7090TIP3    H221235   2.139   5.180   1.634
 7091TIP3   OH221236   5.199   3.931   0.852
 7091TIP3    H121237   5.208   3.987   0.775
 7091TIP3    H221238   5.211   3.990   0.926
 7092TIP3   OH221239   0.291   6.398   1.691
 7092TIP3    H121240   0.359   6.450   1.733
 7092TIP3    H221241   0.214   6.455   1.688
 7093TIP3   OH221242   1.442   3.424   1.486
 7093TIP3    H121243   1.412   3.513   1.471
 7093TIP3    H221244   1.370   3.369   1.457
 7094TIP3   OH221245   6.816   2.199   1.442
 7094TIP3    H121246   6.793   2.257   1.369
 7094TIP3    H221247   6.911   2.205   1.448
 7095TIP3   OH221248   1.998   6.086   1.852
 7095TIP3    H121249   1.994   5.998   1.815
 7095TIP3    H221250   2.018   6.142   1.777
 7096TIP3   OH221251   7.144   3.004   2.066
 7096TIP3    H121252   7.155   3.096   2.042
 7096TIP3    H221253   7.051   2.986   2.051
 7097TIP3   OH221254   6.074   2.184   0.659
 7097TIP3    H121255   5.996   2.131   0.677
 7097TIP3    H221256   6.140   2.120   0.630
 7098TIP3   OH221257   3.401   4.002   3.347
 7098TIP3    H121258   3.339   4.074   3.336
 7098TIP3    H221259   3.345   3.924   3.354
 7099TIP3   OH221260   2.573   0.163   3.511
 7099TIP3    H121261   2.632   0.222   3.465
 7099TIP3    H221262   2.490   0.211   3.515
 7100TIP3   OH221263   4.485   0.031   0.331
 7100TIP3    H121264   4.394   0.051   0.353
 7100TIP3    H221265   4.535   0.098   0.377
 7101TIP3   OH221266   4.426   2.538   0.914
 7101TIP3    H121267   4.390   2.469   0.859
 7101TIP3    H221268   4.515   2.508   0.934
 7102TIP3   OH221269   3.618   6.028   0.838
 7102TIP3    H121270   3.678   6.050   0.767
 7102TIP3    H221271   3.643   6.086   0.910
 7103TIP3   OH221272   3.041   0.266   0.387
 7103TIP3    H121273   2.956   0.291   0.424
 7103TIP3    H221274   3.041   0.303   0.299
 7104TIP3   OH221275   5.764   6.036   2.296
 7104TIP3    H121276   5.714   6.039   2.214
 7104TIP3    H221277   5.769   5.943   2.316
 7105TIP3   OH221278   1.277   1.200   0.579
 7105TIP3    H121279   1.257   1.122   0.631
 7105TIP3    H221280   1.229   1.188   0.497
 7106TIP3   OH221281   1.259   2.139   1.271
 7106TIP3    H121282   1.291   2.119   1.358
 7106TIP3    H221283   1.313   2.086   1.212
 7107TIP3   OH221284   1.271   3.670   3.405
 7107TIP3    H121285   1.220   3.637   3.331
 7107TIP3    H221286   1.336   3.601   3.422
 7108TIP3   OH221287   6.527   0.651   3.560
 7108TIP3    H121288   6.437   0.620   3.567
 7108TIP3    H221289   6.562   0.644   3.649
 7109TIP3   OH221290   6.153   1.775   1.702
 7109TIP3    H121291   6.089   1.828   1.655
 7109TIP3    H221292   6.186   1.833   1.771
 7110TIP3   OH221293   5.353   5.232   1.677
 7110TIP3    H121294   5.315   5.146   1.695
 7110TIP3    H221295   5.283   5.281   1.634
 7111TIP3   OH221296   2.507   3.580   2.028
 7111TIP3    H121297   2.471   3.545   1.947
 7111TIP3    H221298   2.527   3.671   2.008
 7112TIP3   OH221299   5.483   4.938   2.080
 7112TIP3    H121300   5.577   4.957   2.076
 7112TIP3    H221301   5.441   5.019   2.053
 7113TIP3   OH221302   1.073   1.150   0.393
 7113TIP3    H121303   0.987   1.182   0.418
 7113TIP3    H221304   1.092   1.195   0.310
 7114TIP3   OH221305   0.939   3.448   1.866
 7114TIP3    H121306   1.014   3.494   1.902
 7114TIP3    H221307   0.914   3.386   1.934
 7115TIP3   OH221308   5.840   6.596   1.648
 7115TIP3    H121309   5.751   6.578   1.616
 7115TIP3    H221310   5.841   6.562   1.737
 7116TIP3   OH221311   4.041   4.348   0.638
 7116TIP3    H121312   4.111   4.289   0.610
 7116TIP3    H221313   3.994   4.370   0.557
 7117TIP3   OH221314   6.143   2.775   3.369
 7117TIP3    H121315   6.062   2.790   3.418
 7117TIP3    H221316   6.213   2.795   3.431
 7118TIP3   OH221317   4.896   4.054   2.873
 7118TIP3    H121318   4.827   4.093   2.927
 7118TIP3    H221319   4.849   4.004   2.806
 7119TIP3   OH221320   1.601   2.922   1.822
 7119TIP3    H121321   1.656   2.861   1.871
 7119TIP3    H221322   1.584   2.877   1.740
 7120TIP3   OH221323   5.740   4.075   1.690
 7120TIP3    H121324   5.660   4.122   1.716
 7120TIP3    H221325   5.726   3.985   1.722
 7121TIP3   OH221326   5.793   0.332   4.832
 7121TIP3    H121327   5.761   0.419   4.856
 7121TIP3    H221328   5.830   0.297   4.913
 7122TIP3   OH221329   5.254   6.186   3.203
 7122TIP3    H121330   5.205   6.158   3.281
 7122TIP3    H221331   5.193   6.242   3.155
 7123TIP3   OH221332   3.259   2.347   2.740
 7123TIP3    H121333   3.241   2.378   2.830
 7123TIP3    H221334   3.251   2.426   2.686
 7124TIP3   OH221335   3.197   0.591   4.582
 7124TIP3    H121336   3.258   0.665   4.587
 7124TIP3    H221337   3.234   0.525   4.640
 7125TIP3   OH221338   3.118   2.941   0.316
 7125TIP3    H121339   3.111   2.847   0.335
 7125TIP3    H221340   3.058   2.954   0.242
 7126TIP3   OH221341   0.940   6.010   2.454
 7126TIP3    H121342   0.963   5.946   2.387
 7126TIP3    H221343   0.859   6.050   2.423
 7127TIP3   OH221344   6.103   1.853   5.796
 7127TIP3    H121345   6.029   1.913   5.807
 7127TIP3    H221346   6.180   1.907   5.813
 7128TIP3   OH221347   3.514   5.165   3.691
 7128TIP3    H121348   3.493   5.089   3.745
 7128TIP3    H221349   3.432   5.214   3.684
 7129TIP3   OH221350   2.741   1.139   1.255
 7129TIP3    H121351   2.661   1.091   1.274
 7129TIP3    H221352   2.714   1.209   1.196
 7130TIP3   OH221353   1.686   1.428   3.370
 7130TIP3    H121354   1.714   1.395   3.455
 7130TIP3    H221355   1.747   1.500   3.351
 7131TIP3   OH221356   3.894   2.857   3.902
 7131TIP3    H121357   3.809   2.878   3.940
 7131TIP3    H221358   3.874   2.820   3.815
 7132TIP3   OH221359   1.582   4.523   2.321
 7132TIP3    H121360   1.521   4.574   2.269
 7132TIP3    H221361   1.575   4.558   2.410
 7133TIP3   OH221362   6.810   2.423   5.711
 7133TIP3    H121363   6.736   2.396   5.766
 7133TIP3    H221364   6.784   2.400   5.622
 7134TIP3   OH221365   6.815   1.291   5.384
 7134TIP3    H121366   6.789   1.355   5.450
 7134TIP3    H221367   6.737   1.281   5.329
 7135TIP3   OH221368   3.657   2.102   4.585
 7135TIP3    H121369   3.667   2.044   4.509
 7135TIP3    H221370   3.653   2.190   4.547
 7136TIP3   OH221371   5.480   6.498   4.430
 7136TIP3    H121372   5.469   6.546   4.512
 7136TIP3    H221373   5.416   6.427   4.436
 7137TIP3   OH221374   1.770   2.826   3.504
 7137TIP3    H121375   1.740   2.739   3.478
 7137TIP3    H221376   1.852   2.810   3.551
 7138TIP3   OH221377   2.478   2.009   1.780
 7138TIP3    H121378   2.499   2.064   1.705
 7138TIP3    H221379   2.537   1.934   1.771
 7139TIP3   OH221380   0.074   1.285   5.307
 7139TIP3    H121381  -0.015   1.305   5.336
 7139TIP3    H221382   0.120   1.369   5.312
 7140TIP3   OH221383   2.962   0.430   2.195
 7140TIP3    H121384   2.931   0.361   2.136
 7140TIP3    H221385   2.938   0.400   2.282
 7141TIP3   OH221386   0.571   4.071   4.333
 7141TIP3    H121387   0.539   4.082   4.243
 7141TIP3    H221388   0.491   4.068   4.385
 7142TIP3   OH221389   4.819   5.398   4.700
 7142TIP3    H121390   4.779   5.473   4.745
 7142TIP3    H221391   4.749   5.363   4.646
 7143TIP3   OH221392   6.147   4.231   4.639
 7143TIP3    H121393   6.133   4.139   4.663
 7143TIP3    H221394   6.235   4.251   4.671
 7144TIP3   OH221395   0.775   0.067   3.479
 7144TIP3    H121396   0.754   0.014   3.402
 7144TIP3    H221397   0.700   0.057   3.537
 7145TIP3   OH221398   3.341   6.500   0.944
 7145TIP3    H121399   3.305   6.587   0.927
 7145TIP3    H221400   3.401   6.484   0.871
 7146TIP3   OH221401   5.025   1.593   3.870
 7146TIP3    H121402   5.053   1.522   3.928
 7146TIP3    H221403   5.101   1.607   3.812
 7147TIP3   OH221404   6.530   2.250   4.360
 7147TIP3    H121405   6.507   2.290   4.277
 7147TIP3    H221406   6.520   2.156   4.345
 7148TIP3   OH221407   6.666   4.701   2.463
 7148TIP3    H121408   6.604   4.738   2.526
 7148TIP3    H221409   6.621   4.706   2.379
 7149TIP3   OH221410   1.954   0.273   0.454
 7149TIP3    H121411   1.927   0.363   0.469
 7149TIP3    H221412   1.970   0.238   0.542
 7150TIP3   OH221413   3.535   3.744   4.828
 7150TIP3    H121414   3.492   3.754   4.913
 7150TIP3    H221415   3.627   3.729   4.849
 7151TIP3   OH221416   0.182   6.444   2.277
 7151TIP3    H121417   0.270   6.440   2.313
 7151TIP3    H221418   0.192   6.487   2.193
 7152TIP3   OH221419   1.097   3.371   0.636
 7152TIP3    H121420   1.182   3.330   0.649
 7152TIP3    H221421   1.094   3.441   0.702
 7153TIP3   OH221422   2.727   6.419   0.994
 7153TIP3    H121423   2.814   6.389   0.965
 7153TIP3    H221424   2.679   6.432   0.912
 7154TIP3   OH221425   6.115   2.507   1.626
 7154TIP3    H121426   6.046   2.484   1.563
 7154TIP3    H221427   6.168   2.427   1.633
 7155TIP3   OH221428   5.935   1.658   0.750
 7155TIP3    H121429   5.990   1.644   0.673
 7155TIP3    H221430   5.900   1.746   0.739
 7156TIP3   OH221431   0.113   1.968   5.343
 7156TIP3    H121432   0.145   1.997   5.429
 7156TIP3    H221433   0.183   1.912   5.309
 7157TIP3   OH221434   0.530   2.573   0.307
 7157TIP3    H121435   0.478   2.550   0.231
 7157TIP3    H221436   0.486   2.530   0.380
 7158TIP3   OH221437   2.421   0.790   5.924
 7158TIP3    H121438   2.457   0.703   5.944
 7158TIP3    H221439   2.493   0.835   5.879
 7159TIP3   OH221440   2.987   0.336   2.475
 7159TIP3    H121441   2.895   0.356   2.457
 7159TIP3    H221442   2.990   0.240   2.478
 7160TIP3   OH221443   6.682   2.826   2.553
 7160TIP3    H121444   6.664   2.806   2.461
 7160TIP3    H221445   6.752   2.892   2.549
 7161TIP3   OH221446   4.993   4.401   1.749
 7161TIP3    H121447   4.916   4.443   1.789
 7161TIP3    H221448   5.066   4.429   1.803
 7162TIP3   OH221449   4.456   6.495   0.170
 7162TIP3    H121450   4.502   6.424   0.124
 7162TIP3    H221451   4.411   6.543   0.100
 7163TIP3   OH221452   0.253   1.199   4.906
 7163TIP3    H121453   0.314   1.266   4.937
 7163TIP3    H221454   0.170   1.221   4.947
 7164TIP3   OH221455   5.561   0.786   4.206
 7164TIP3    H121456   5.648   0.813   4.237
 7164TIP3    H221457   5.555   0.819   4.117
 7165TIP3   OH221458   4.804   6.032   3.939
 7165TIP3    H121459   4.776   6.110   3.987
 7165TIP3    H221460   4.864   6.065   3.872
 7166TIP3   OH221461   4.286   5.647   1.104
 7166TIP3    H121462   4.347   5.623   1.034
 7166TIP3    H221463   4.206   5.671   1.058
 7167TIP3   OH221464   6.234   4.618   1.250
 7167TIP3    H121465   6.157   4.650   1.203
 7167TIP3    H221466   6.204   4.536   1.291
 7168TIP3   OH221467   2.716   5.137   0.481
 7168TIP3    H121468   2.647   5.100   0.535
 7168TIP3    H221469   2.687   5.226   0.463
 7169TIP3   OH221470   6.242   2.294   3.588
 7169TIP3    H121471   6.256   2.225   3.523
 7169TIP3    H221472   6.147   2.295   3.602
 7170TIP3   OH221473   1.211   1.596   2.467
 7170TIP3    H121474   1.131   1.613   2.516
 7170TIP3    H221475   1.236   1.681   2.431
 7171TIP3   OH221476   1.693   1.529   1.813
 7171TIP3    H121477   1.702   1.446   1.860
 7171TIP3    H221478   1.609   1.565   1.842
 7172TIP3   OH221479   0.068   3.904   2.676
 7172TIP3    H121480   0.160   3.921   2.657
 7172TIP3    H221481   0.040   3.979   2.728
 7173TIP3   OH221482   3.715   5.097   5.644
 7173TIP3    H121483   3.645   5.070   5.585
 7173TIP3    H221484   3.692   5.187   5.668
 7174TIP3   OH221485   4.827   4.166   4.447
 7174TIP3    H121486   4.859   4.095   4.390
 7174TIP3    H221487   4.907   4.205   4.483
 7175TIP3   OH221488   6.399   2.638   5.131
 7175TIP3    H121489   6.394   2.730   5.106
 7175TIP3    H221490   6.368   2.590   5.054
 7176TIP3   OH221491   0.928   3.990   4.014
 7176TIP3    H121492   0.898   3.933   4.085
 7176TIP3    H221493   1.012   4.025   4.045
 7177TIP3   OH221494   6.728   0.707   5.542
 7177TIP3    H121495   6.755   0.719   5.451
 7177TIP3    H221496   6.769   0.780   5.588
 7178TIP3   OH221497   2.009   6.280   1.677
 7178TIP3    H121498   1.928   6.327   1.654
 7178TIP3    H221499   2.077   6.347   1.672
 7179TIP3   OH221500   4.860   6.402   1.641
 7179TIP3    H121501   4.883   6.310   1.629
 7179TIP3    H221502   4.900   6.447   1.566
 7180TIP3   OH221503   2.388   3.565   1.759
 7180TIP3    H121504   2.294   3.576   1.773
 7180TIP3    H221505   2.416   3.648   1.721
 7181TIP3   OH221506   2.756   0.076   3.917
 7181TIP3    H121507   2.784   0.110   4.002
 7181TIP3    H221508   2.727   0.152   3.868
 7182TIP3   OH221509   3.863   5.406   3.838
 7182TIP3    H121510   3.789   5.362   3.879
 7182TIP3    H221511   3.925   5.421   3.910
 7183TIP3   OH221512   0.430   2.261   2.208
 7183TIP3    H121513   0.475   2.210   2.140
 7183TIP3    H221514   0.495   2.272   2.277
 7184TIP3   OH221515   3.161   3.090   5.526
 7184TIP3    H121516   3.196   3.036   5.455
 7184TIP3    H221517   3.174   3.180   5.495
 7185TIP3   OH221518   5.142   5.866   3.859
 7185TIP3    H121519   5.215   5.828   3.809
 7185TIP3    H221520   5.129   5.952   3.819
 7186TIP3   OH221521   2.342   6.783   4.464
 7186TIP3    H121522   2.281   6.734   4.408
 7186TIP3    H221523   2.385   6.715   4.516
 7187TIP3   OH221524   3.621   4.307   4.682
 7187TIP3    H121525   3.666   4.348   4.756
 7187TIP3    H221526   3.690   4.261   4.634
 7188TIP3   OH221527   0.663   4.160   3.999
 7188TIP3    H121528   0.619   4.198   3.923
 7188TIP3    H221529   0.723   4.094   3.962
 7189TIP3   OH221530   4.215   3.639   3.636
 7189TIP3    H121531   4.168   3.693   3.699
 7189TIP3    H221532   4.307   3.652   3.656
 7190TIP3   OH221533   4.798   4.129   0.908
 7190TIP3    H121534   4.887   4.158   0.925
 7190TIP3    H221535   4.785   4.056   0.968
 7191TIP3   OH221536   3.436   2.975   4.928
 7191TIP3    H121537   3.381   2.897   4.939
 7191TIP3    H221538   3.461   2.975   4.836
 7192TIP3   OH221539   0.831   2.788   0.107
 7192TIP3    H121540   0.857   2.730   0.178
 7192TIP3    H221541   0.883   2.867   0.121
 7193TIP3   OH221542   2.370   5.737   1.023
 7193TIP3    H121543   2.287   5.754   0.977
 7193TIP3    H221544   2.348   5.746   1.115
 7194TIP3   OH221545   7.110   3.916   4.803
 7194TIP3    H121546   7.187   3.881   4.848
 7194TIP3    H221547   7.113   4.010   4.820
 7195TIP3   OH221548   2.403   4.416   3.996
 7195TIP3    H121549   2.318   4.412   3.954
 7195TIP3    H221550   2.454   4.347   3.954
 7196TIP3   OH221551   0.348   0.085   5.428
 7196TIP3    H121552   0.427   0.093   5.481
 7196TIP3    H221553   0.338  -0.010   5.414
 7197TIP3   OH221554   1.479   0.273   2.226
 7197TIP3    H121555   1.573   0.259   2.214
 7197TIP3    H221556   1.473   0.334   2.300
 7198TIP3   OH221557   1.517   1.722   4.804
 7198TIP3    H121558   1.610   1.726   4.785
 7198TIP3    H221559   1.482   1.659   4.740
 7199TIP3   OH221560   4.959   2.341   4.398
 7199TIP3    H121561   4.927   2.393   4.325
 7199TIP3    H221562   4.956   2.399   4.474
 7200TIP3   OH221563   5.852   6.660   0.723
 7200TIP3    H121564   5.822   6.735   0.773
 7200TIP3    H221565   5.836   6.684   0.632
 7201TIP3   OH221566   5.033   1.983   3.250
 7201TIP3    H121567   5.084   1.917   3.297
 7201TIP3    H221568   4.987   2.031   3.318
 7202TIP3   OH221569   6.659   6.392   0.198
 7202TIP3    H121570   6.653   6.395   0.293
 7202TIP3    H221571   6.612   6.470   0.168
 7203TIP3   OH221572   3.686   2.680   0.227
 7203TIP3    H121573   3.689   2.634   0.311
 7203TIP3    H221574   3.745   2.629   0.170
 7204TIP3   OH221575   2.496   5.492   3.980
 7204TIP3    H121576   2.511   5.399   4.001
 7204TIP3    H221577   2.477   5.492   3.886
 7205TIP3   OH221578   1.595   6.268   3.536
 7205TIP3    H121579   1.551   6.350   3.513
 7205TIP3    H221580   1.684   6.279   3.504
 7206TIP3   OH221581   1.347   6.725   0.293
 7206TIP3    H121582   1.292   6.690   0.223
 7206TIP3    H221583   1.298   6.799   0.328
 7207TIP3   OH221584   4.056   3.766   1.449
 7207TIP3    H121585   4.048   3.831   1.380
 7207TIP3    H221586   4.148   3.769   1.475
 7208TIP3   OH221587   1.687   5.310   5.053
 7208TIP3    H121588   1.751   5.306   4.982
 7208TIP3    H221589   1.606   5.278   5.014
 7209TIP3   OH221590   6.949   5.629   2.105
 7209TIP3    H121591   7.030   5.629   2.053
 7209TIP3    H221592   6.892   5.691   2.060
 7210TIP3   OH221593   1.254   2.078   1.936
 7210TIP3    H121594   1.313   2.088   2.011
 7210TIP3    H221595   1.233   2.168   1.910
 7211TIP3   OH221596   2.645   4.769   4.092
 7211TIP3    H121597   2.605   4.807   4.013
 7211TIP3    H221598   2.682   4.686   4.061
 7212TIP3   OH221599   0.298   5.177   5.617
 7212TIP3    H121600   0.290   5.090   5.579
 7212TIP3    H221601   0.271   5.166   5.708
 7213TIP3   OH221602   5.321   1.009   3.798
 7213TIP3    H121603   5.368   1.042   3.721
 7213TIP3    H221604   5.384   0.950   3.840
 7214TIP3   OH221605   1.014   2.092   1.141
 7214TIP3    H121606   1.099   2.113   1.180
 7214TIP3    H221607   1.010   1.996   1.144
 7215TIP3   OH221608   5.447   6.089   3.965
 7215TIP3    H121609   5.516   6.061   4.024
 7215TIP3    H221610   5.422   6.176   3.996
 7216TIP3   OH221611   1.024   2.677   0.692
 7216TIP3    H121612   0.960   2.639   0.752
 7216TIP3    H221613   1.057   2.755   0.738
 7217TIP3   OH221614   0.306   4.373   3.889
 7217TIP3    H121615   0.309   4.440   3.956
 7217TIP3    H221616   0.275   4.294   3.935
 7218TIP3   OH221617   2.444   4.616   1.785
 7218TIP3    H121618   2.403   4.536   1.817
 7218TIP3    H221619   2.516   4.632   1.846
 7219TIP3   OH221620   5.111   6.423   4.879
 7219TIP3    H121621   5.165   6.498   4.904
 7219TIP3    H221622   5.086   6.440   4.788
 7220TIP3   OH221623   3.146   6.826   0.082
 7220TIP3    H121624   3.224   6.870   0.050
 7220TIP3    H221625   3.132   6.753   0.021
 7221TIP3   OH221626   1.321   2.793   4.224
 7221TIP3    H121627   1.306   2.855   4.153
 7221TIP3    H221628   1.356   2.715   4.180
 7222TIP3   OH221629   4.597   0.721   4.835
 7222TIP3    H121630   4.620   0.732   4.743
 7222TIP3    H221631   4.596   0.810   4.871
 7223TIP3   OH221632   7.259   5.410   4.423
 7223TIP3    H121633   7.165   5.426   4.416
 7223TIP3    H221634   7.297   5.465   4.355
 7224TIP3   OH221635   1.792   1.723   3.472
 7224TIP3    H121636   1.871   1.705   3.422
 7224TIP3    H221637   1.753   1.799   3.428
 7225TIP3   OH221638   1.463   1.513   2.114
 7225TIP3    H121639   1.535   1.450   2.114
 7225TIP3    H221640   1.442   1.525   2.021
 7226TIP3   OH221641   4.465   3.652   3.295
 7226TIP3    H121642   4.553   3.657   3.258
 7226TIP3    H221643   4.410   3.702   3.234
 7227TIP3   OH221644   7.175   4.915   2.926
 7227TIP3    H121645   7.140   4.895   2.839
 7227TIP3    H221646   7.108   4.882   2.987
 7228TIP3   OH221647   6.933   3.629   2.424
 7228TIP3    H121648   6.886   3.674   2.495
 7228TIP3    H221649   6.977   3.556   2.468
 7229TIP3   OH221650   1.957   1.205   3.373
 7229TIP3    H121651   1.967   1.136   3.438
 7229TIP3    H221652   1.970   1.162   3.289
 7230TIP3   OH221653   6.210   3.423   1.811
 7230TIP3    H121654   6.262   3.431   1.731
 7230TIP3    H221655   6.223   3.333   1.840
 7231TIP3   OH221656   4.058   2.634   5.191
 7231TIP3    H121657   3.980   2.691   5.186
 7231TIP3    H221658   4.113   2.663   5.119
 7232TIP3   OH221659   3.926   2.073   0.476
 7232TIP3    H121660   3.965   2.021   0.547
 7232TIP3    H221661   3.995   2.076   0.409
 7233TIP3   OH221662   5.671   2.822   3.720
 7233TIP3    H121663   5.614   2.899   3.714
 7233TIP3    H221664   5.670   2.798   3.812
 7234TIP3   OH221665   2.800   6.670   0.774
 7234TIP3    H121666   2.746   6.632   0.705
 7234TIP3    H221667   2.740   6.687   0.846
 7235TIP3   OH221668   6.755   2.928   4.433
 7235TIP3    H121669   6.749   2.920   4.337
 7235TIP3    H221670   6.811   2.855   4.459
 7236TIP3   OH221671   2.314   3.997   2.930
 7236TIP3    H121672   2.328   3.908   2.962
 7236TIP3    H221673   2.383   4.010   2.864
 7237TIP3   OH221674   0.718   3.617   1.059
 7237TIP3    H121675   0.737   3.534   1.014
 7237TIP3    H221676   0.792   3.629   1.118
 7238TIP3   OH221677   4.244   4.561   0.271
 7238TIP3    H121678   4.327   4.525   0.237
 7238TIP3    H221679   4.245   4.653   0.244
 7239TIP3   OH221680   6.750   4.249   3.129
 7239TIP3    H121681   6.759   4.225   3.221
 7239TIP3    H221682   6.717   4.339   3.131
 7240TIP3   OH221683   2.907   1.863   2.168
 7240TIP3    H121684   2.952   1.947   2.158
 7240TIP3    H221685   2.971   1.807   2.212
 7241TIP3   OH221686   0.843   1.532   1.862
 7241TIP3    H121687   0.824   1.446   1.826
 7241TIP3    H221688   0.800   1.593   1.803
 7242TIP3   OH221689   3.507   2.593   2.853
 7242TIP3    H121690   3.430   2.649   2.842
 7242TIP3    H221691   3.569   2.624   2.787
 7243TIP3   OH221692   5.876   2.753   1.747
 7243TIP3    H121693   5.789   2.715   1.738
 7243TIP3    H221694   5.913   2.747   1.658
 7244TIP3   OH221695   0.367   1.687   1.088
 7244TIP3    H121696   0.399   1.664   1.176
 7244TIP3    H221697   0.383   1.609   1.036
 7245TIP3   OH221698   6.210   0.282   0.607
 7245TIP3    H121699   6.295   0.257   0.569
 7245TIP3    H221700   6.164   0.199   0.619
 7246TIP3   OH221701   3.829   6.767   0.834
 7246TIP3    H121702   3.867   6.853   0.852
 7246TIP3    H221703   3.784   6.743   0.916
 7247TIP3   OH221704   0.705   4.901   1.397
 7247TIP3    H121705   0.766   4.847   1.448
 7247TIP3    H221706   0.620   4.858   1.407
 7248TIP3   OH221707   2.628   3.635   2.318
 7248TIP3    H121708   2.610   3.602   2.230
 7248TIP3    H221709   2.699   3.581   2.351
 7249TIP3   OH221710   2.537   0.634   0.411
 7249TIP3    H121711   2.477   0.617   0.338
 7249TIP3    H221712   2.517   0.565   0.475
 7250TIP3   OH221713   3.340   0.622   1.702
 7250TIP3    H121714   3.431   0.620   1.731
 7250TIP3    H221715   3.299   0.689   1.756
 7251TIP3   OH221716   0.813   0.025   4.029
 7251TIP3    H121717   0.827   0.117   4.051
 7251TIP3    H221718   0.743   0.026   3.965
 7252TIP3   OH221719   6.858   2.768   0.068
 7252TIP3    H121720   6.860   2.705  -0.003
 7252TIP3    H221721   6.775   2.752   0.113
 7253TIP3   OH221722   3.451   0.513   5.001
 7253TIP3    H121723   3.483   0.483   5.087
 7253TIP3    H221724   3.448   0.608   5.009
 7254TIP3   OH221725   1.733   6.007   0.117
 7254TIP3    H121726   1.639   5.988   0.120
 7254TIP3    H221727   1.768   5.965   0.195
 7255TIP3   OH221728   0.206   0.639   4.492
 7255TIP3    H121729   0.213   0.663   4.585
 7255TIP3    H221730   0.144   0.567   4.491
 7256TIP3   OH221731   3.418   6.128   0.128
 7256TIP3    H121732   3.337   6.169   0.098
 7256TIP3    H221733   3.394   6.088   0.213
 7257TIP3   OH221734   3.420   0.215   3.695
 7257TIP3    H121735   3.345   0.163   3.668
 7257TIP3    H221736   3.474   0.221   3.616
 7258TIP3   OH221737   5.801   4.226   4.916
 7258TIP3    H121738   5.894   4.215   4.935
 7258TIP3    H221739   5.800   4.278   4.835
 7259TIP3   OH221740   6.359   0.934   5.192
 7259TIP3    H121741   6.300   0.881   5.137
 7259TIP3    H221742   6.319   1.021   5.193
 7260TIP3   OH221743   4.603   3.257   2.642
 7260TIP3    H121744   4.543   3.193   2.679
 7260TIP3    H221745   4.598   3.242   2.547
 7261TIP3   OH221746   2.776   5.680   2.444
 7261TIP3    H121747   2.860   5.678   2.490
 7261TIP3    H221748   2.725   5.747   2.490
 7262TIP3   OH221749   1.234   5.497   2.504
 7262TIP3    H121750   1.265   5.410   2.482
 7262TIP3    H221751   1.311   5.553   2.497
 7263TIP3   OH221752   7.024   6.917   2.820
 7263TIP3    H121753   6.957   6.853   2.796
 7263TIP3    H221754   7.091   6.907   2.752
 7264TIP3   OH221755   6.635   2.543   0.186
 7264TIP3    H121756   6.562   2.581   0.234
 7264TIP3    H221757   6.701   2.524   0.253
 7265TIP3   OH221758   0.098   0.913   1.532
 7265TIP3    H121759   0.058   0.839   1.486
 7265TIP3    H221760   0.169   0.874   1.583
 7266TIP3   OH221761   0.025   4.945   2.637
 7266TIP3    H121762   0.015   5.032   2.600
 7266TIP3    H221763   0.113   4.918   2.611
 7267TIP3   OH221764   2.139   6.067   1.162
 7267TIP3    H121765   2.049   6.035   1.162
 7267TIP3    H221766   2.133   6.155   1.124
 7268TIP3   OH221767   1.887   3.178   4.984
 7268TIP3    H121768   1.965   3.214   4.942
 7268TIP3    H221769   1.819   3.244   4.970
 7269TIP3   OH221770   4.857   2.302   0.170
 7269TIP3    H121771   4.908   2.236   0.217
 7269TIP3    H221772   4.782   2.255   0.135
 7270TIP3   OH221773   4.217   4.451   2.242
 7270TIP3    H121774   4.198   4.362   2.213
 7270TIP3    H221775   4.209   4.448   2.338
 7271TIP3   OH221776   2.013   0.212   0.751
 7271TIP3    H121777   2.002   0.301   0.784
 7271TIP3    H221778   1.989   0.156   0.825
 7272TIP3   OH221779   3.916   2.488   3.158
 7272TIP3    H121780   3.870   2.458   3.236
 7272TIP3    H221781   3.897   2.421   3.092
 7273TIP3   OH221782   5.540   5.671   1.184
 7273TIP3    H121783   5.471   5.604   1.180
 7273TIP3    H221784   5.607   5.639   1.123
 7274TIP3   OH221785   2.868   6.303   4.142
 7274TIP3    H121786   2.849   6.358   4.218
 7274TIP3    H221787   2.947   6.254   4.167
 7275TIP3   OH221788   5.853   3.655   1.989
 7275TIP3    H121789   5.922   3.678   2.051
 7275TIP3    H221790   5.891   3.587   1.934
 7276TIP3   OH221791   3.063   5.560   5.278
 7276TIP3    H121792   3.093   5.540   5.190
 7276TIP3    H221793   2.981   5.511   5.288
 7277TIP3   OH221794   5.722   0.305   5.308
 7277TIP3    H121795   5.799   0.257   5.337
 7277TIP3    H221796   5.652   0.239   5.307
 7278TIP3   OH221797   6.117   1.291   0.261
 7278TIP3    H121798   6.040   1.236   0.247
 7278TIP3    H221799   6.181   1.233   0.303
 7279TIP3   OH221800   6.835   0.507   2.086
 7279TIP3    H121801   6.830   0.533   2.178
 7279TIP3    H221802   6.744   0.508   2.056
 7280TIP3   OH221803   3.444   4.621   5.250
 7280TIP3    H121804   3.394   4.542   5.271
 7280TIP3    H221805   3.390   4.667   5.186
 7281TIP3   OH221806   1.507   1.696   3.474
 7281TIP3    H121807   1.452   1.619   3.486
 7281TIP3    H221808   1.593   1.669   3.507
 7282TIP3   OH221809   3.212   5.367   0.938
 7282TIP3    H121810   3.227   5.288   0.886
 7282TIP3    H221811   3.256   5.436   0.889
 7283TIP3   OH221812   5.568   6.543   1.681
 7283TIP3    H121813   5.552   6.449   1.678
 7283TIP3    H221814   5.565   6.565   1.774
 7284TIP3   OH221815   2.977   4.963   2.824
 7284TIP3    H121816   2.991   4.870   2.845
 7284TIP3    H221817   2.913   4.962   2.753
 7285TIP3   OH221818   5.959   2.786   1.483
 7285TIP3    H121819   6.046   2.769   1.447
 7285TIP3    H221820   5.921   2.852   1.425
 7286TIP3   OH221821   0.943   1.817   0.894
 7286TIP3    H121822   1.003   1.789   0.824
 7286TIP3    H221823   0.938   1.741   0.952
 7287TIP3   OH221824   6.244   3.891   1.480
 7287TIP3    H121825   6.239   3.986   1.463
 7287TIP3    H221826   6.215   3.851   1.398
 7288TIP3   OH221827   5.652   1.685   3.141
 7288TIP3    H121828   5.694   1.645   3.064
 7288TIP3    H221829   5.606   1.761   3.105
 7289TIP3   OH221830   2.391   0.740   0.643
 7289TIP3    H121831   2.339   0.820   0.630
 7289TIP3    H221832   2.456   0.742   0.573
 7290TIP3   OH221833   5.322   4.091   4.586
 7290TIP3    H121834   5.356   4.171   4.625
 7290TIP3    H221835   5.360   4.020   4.638
 7291TIP3   OH221836   1.448   5.380   2.300
 7291TIP3    H121837   1.463   5.472   2.324
 7291TIP3    H221838   1.535   5.340   2.303
 7292TIP3   OH221839   2.000   2.236   1.837
 7292TIP3    H121840   1.942   2.164   1.864
 7292TIP3    H221841   2.080   2.223   1.889
 7293TIP3   OH221842   1.960   6.670   2.762
 7293TIP3    H121843   1.901   6.692   2.689
 7293TIP3    H221844   2.048   6.685   2.727
 7294TIP3   OH221845   4.651   3.811   0.309
 7294TIP3    H121846   4.604   3.888   0.339
 7294TIP3    H221847   4.742   3.839   0.302
 7295TIP3   OH221848   5.861   3.115   3.133
 7295TIP3    H121849   5.864   3.196   3.082
 7295TIP3    H221850   5.952   3.086   3.137
 7296TIP3   OH221851   0.060   4.385   5.824
 7296TIP3    H121852  -0.024   4.426   5.845
 7296TIP3    H221853   0.090   4.430   5.745
 7297TIP3   OH221854   7.019   2.230   1.920
 7297TIP3    H121855   6.950   2.178   1.960
 7297TIP3    H221856   7.049   2.289   1.990
 7298TIP3   OH221857   1.710   3.845   5.236
 7298TIP3    H121858   1.754   3.797   5.166
 7298TIP3    H221859   1.665   3.917   5.192
 7299TIP3   OH221860   2.442   6.690   5.245
 7299TIP3    H121861   2.478   6.654   5.164
 7299TIP3    H221862   2.503   6.661   5.313
 7300TIP3   OH221863   5.764   6.248   1.543
 7300TIP3    H121864   5.722   6.163   1.553
 7300TIP3    H221865   5.853   6.235   1.575
 7301TIP3   OH221866   5.330   1.873   0.664
 7301TIP3    H121867   5.333   1.857   0.758
 7301TIP3    H221868   5.411   1.834   0.630
 7302TIP3   OH221869   5.667   1.542   0.753
 7302TIP3    H121870   5.745   1.596   0.735
 7302TIP3    H221871   5.676   1.517   0.845
 7303TIP3   OH221872   2.419   6.444   4.875
 7303TIP3    H121873   2.492   6.390   4.907
 7303TIP3    H221874   2.359   6.449   4.950
 7304TIP3   OH221875   4.360   0.531   2.380
 7304TIP3    H121876   4.446   0.541   2.339
 7304TIP3    H221877   4.327   0.621   2.388
 7305TIP3   OH221878   5.205   5.719   3.285
 7305TIP3    H121879   5.138   5.771   3.240
 7305TIP3    H221880   5.175   5.716   3.376
 7306TIP3   OH221881   6.760   2.447   0.420
 7306TIP3    H121882   6.750   2.540   0.442
 7306TIP3    H221883   6.740   2.401   0.502
 7307TIP3   OH221884   6.848   1.214   1.854
 7307TIP3    H121885   6.808   1.266   1.784
 7307TIP3    H221886   6.775   1.166   1.892
 7308TIP3   OH221887   0.294   5.669   1.241
 7308TIP3    H121888   0.326   5.756   1.214
 7308TIP3    H221889   0.341   5.651   1.322
 7309TIP3   OH221890   5.940   4.789   2.592
 7309TIP3    H121891   5.953   4.859   2.655
 7309TIP3    H221892   5.852   4.804   2.557
 7310TIP3   OH221893   1.249   6.189   2.993
 7310TIP3    H121894   1.163   6.230   2.990
 7310TIP3    H221895   1.305   6.245   2.940
 7311TIP3   OH221896   2.194   3.319   1.098
 7311TIP3    H121897   2.271   3.271   1.129
 7311TIP3    H221898   2.206   3.408   1.130
 7312TIP3   OH221899   1.265   5.674   3.437
 7312TIP3    H121900   1.299   5.589   3.409
 7312TIP3    H221901   1.259   5.668   3.532
 7313TIP3   OH221902   2.514   4.110   0.363
 7313TIP3    H121903   2.556   4.174   0.305
 7313TIP3    H221904   2.541   4.138   0.451
 7314TIP3   OH221905   6.198   0.126   1.695
 7314TIP3    H121906   6.208   0.113   1.789
 7314TIP3    H221907   6.223   0.042   1.656
 7315TIP3   OH221908   6.412   2.272   4.606
 7315TIP3    H121909   6.396   2.179   4.617
 7315TIP3    H221910   6.469   2.278   4.529
 7316TIP3   OH221911   2.901   0.867   4.208
 7316TIP3    H121912   2.823   0.820   4.178
 7316TIP3    H221913   2.866   0.946   4.250
 7317TIP3   OH221914   5.571   3.791   2.231
 7317TIP3    H121915   5.531   3.859   2.286
 7317TIP3    H221916   5.616   3.840   2.162
 7318TIP3   OH221917   2.018   1.594   0.483
 7318TIP3    H121918   2.011   1.618   0.390
 7318TIP3    H221919   2.101   1.546   0.489
 7319TIP3   OH221920   2.383   2.837   5.797
 7319TIP3    H121921   2.425   2.920   5.818
 7319TIP3    H221922   2.400   2.824   5.704
 7320TIP3   OH221923   5.615   3.593   3.621
 7320TIP3    H121924   5.568   3.512   3.603
 7320TIP3    H221925   5.677   3.603   3.548
 7321TIP3   OH221926   2.662   4.838   3.496
 7321TIP3    H121927   2.707   4.753   3.497
 7321TIP3    H221928   2.612   4.839   3.578
 7322TIP3   OH221929   1.798   1.635   3.754
 7322TIP3    H121930   1.799   1.635   3.658
 7322TIP3    H221931   1.844   1.554   3.778
 7323TIP3   OH221932   6.866   4.245   5.560
 7323TIP3    H121933   6.847   4.325   5.510
 7323TIP3    H221934   6.858   4.175   5.496
 7324TIP3   OH221935   4.797   4.782   3.719
 7324TIP3    H121936   4.833   4.825   3.796
 7324TIP3    H221937   4.711   4.820   3.707
 7325TIP3   OH221938   1.806   4.109   2.887
 7325TIP3    H121939   1.887   4.061   2.905
 7325TIP3    H221940   1.826   4.161   2.809
 7326TIP3   OH221941   4.457   2.631   4.706
 7326TIP3    H121942   4.403   2.566   4.751
 7326TIP3    H221943   4.395   2.689   4.662
 7327TIP3   OH221944   1.813   5.367   1.965
 7327TIP3    H121945   1.857   5.302   2.020
 7327TIP3    H221946   1.819   5.448   2.015
 7328TIP3   OH221947   4.120   3.494   0.913
 7328TIP3    H121948   4.175   3.444   0.853
 7328TIP3    H221949   4.132   3.585   0.886
 7329TIP3   OH221950   1.262   6.597   1.949
 7329TIP3    H121951   1.185   6.553   1.985
 7329TIP3    H221952   1.274   6.675   2.003
 7330TIP3   OH221953   5.024   0.595   5.098
 7330TIP3    H121954   5.012   0.505   5.069
 7330TIP3    H221955   4.938   0.621   5.131
 7331TIP3   OH221956   7.091   4.619   2.882
 7331TIP3    H121957   7.062   4.549   2.824
 7331TIP3    H221958   7.178   4.642   2.850
 7332TIP3   OH221959   3.213   2.212   0.521
 7332TIP3    H121960   3.282   2.274   0.543
 7332TIP3    H221961   3.225   2.140   0.583
 7333TIP3   OH221962   4.253   5.740   4.851
 7333TIP3    H121963   4.307   5.665   4.826
 7333TIP3    H221964   4.229   5.781   4.768
 7334TIP3   OH221965   4.765   0.209   3.644
 7334TIP3    H121966   4.688   0.233   3.593
 7334TIP3    H221967   4.784   0.287   3.697
 7335TIP3   OH221968   4.170   5.243   0.926
 7335TIP3    H121969   4.221   5.215   1.002
 7335TIP3    H221970   4.233   5.243   0.854
 7336TIP3   OH221971   5.293   1.124   2.270
 7336TIP3    H121972   5.287   1.126   2.365
 7336TIP3    H221973   5.219   1.176   2.240
 7337TIP3   OH221974   4.881   5.430   2.367
 7337TIP3    H121975   4.906   5.345   2.330
 7337TIP3    H221976   4.943   5.492   2.329
 7338TIP3   OH221977   5.174   1.202   1.623
 7338TIP3    H121978   5.181   1.240   1.710
 7338TIP3    H221979   5.105   1.251   1.580
 7339TIP3   OH221980   4.330   1.007   4.863
 7339TIP3    H121981   4.319   1.056   4.945
 7339TIP3    H221982   4.347   0.917   4.891
 7340TIP3   OH221983   1.696   5.237   4.447
 7340TIP3    H121984   1.641   5.159   4.448
 7340TIP3    H221985   1.705   5.261   4.540
 7341TIP3   OH221986   2.828   2.597   3.883
 7341TIP3    H121987   2.829   2.690   3.907
 7341TIP3    H221988   2.918   2.568   3.898
 7342TIP3   OH221989   1.920   4.098   4.952
 7342TIP3    H121990   2.007   4.058   4.948
 7342TIP3    H221991   1.867   4.048   4.890
 7343TIP3   OH221992   5.960   4.297   3.582
 7343TIP3    H121993   5.948   4.309   3.676
 7343TIP3    H221994   5.964   4.202   3.570
 7344TIP3   OH221995   2.186   5.343   5.797
 7344TIP3    H121996   2.104   5.391   5.804
 7344TIP3    H221997   2.245   5.385   5.860
 7345TIP3   OH221998   7.057   1.292   0.729
 7345TIP3    H121999   7.037   1.231   0.800
 7345TIP3    H222000   7.054   1.379   0.769
 7346TIP3   OH222001   2.423   0.398   0.565
 7346TIP3    H122002   2.386   0.361   0.485
 7346TIP3    H222003   2.347   0.436   0.611
 7347TIP3   OH222004   0.105   0.855   3.357
 7347TIP3    H122005   0.051   0.792   3.404
 7347TIP3    H222006   0.143   0.806   3.284
 7348TIP3   OH222007   5.066   3.548   3.735
 7348TIP3    H122008   5.028   3.573   3.819
 7348TIP3    H222009   5.133   3.614   3.719
 7349TIP3   OH222010   3.441   0.721   2.052
 7349TIP3    H122011   3.501   0.786   2.016
 7349TIP3    H222012   3.362   0.729   1.997
 7350TIP3   OH222013   7.149   4.086   0.770
 7350TIP3    H122014   7.183   4.048   0.851
 7350TIP3    H222015   7.058   4.057   0.767
 7351TIP3   OH222016   0.121   4.364   2.923
 7351TIP3    H122017   0.151   4.369   3.014
 7351TIP3    H222018   0.107   4.455   2.898
 7352TIP3   OH222019   5.043   1.490   4.574
 7352TIP3    H122020   5.061   1.550   4.502
 7352TIP3    H222021   4.980   1.537   4.629
 7353TIP3   OH222022   0.502   0.406   5.779
 7353TIP3    H122023   0.519   0.438   5.868
 7353TIP3    H222024   0.563   0.333   5.768
 7354TIP3   OH222025   2.226   5.856   5.573
 7354TIP3    H122026   2.244   5.768   5.603
 7354TIP3    H222027   2.283   5.868   5.496
 7355TIP3   OH222028   2.700   6.660   5.040
 7355TIP3    H122029   2.744   6.619   4.965
 7355TIP3    H222030   2.711   6.754   5.025
 7356TIP3   OH222031   3.760   2.544   4.107
 7356TIP3    H122032   3.812   2.549   4.187
 7356TIP3    H222033   3.810   2.487   4.048
 7357TIP3   OH222034   5.418   2.719   1.287
 7357TIP3    H122035   5.370   2.755   1.212
 7357TIP3    H222036   5.486   2.783   1.306
 7358TIP3   OH222037   1.823   5.069   3.462
 7358TIP3    H122038   1.742   5.053   3.510
 7358TIP3    H222039   1.880   4.996   3.485
 7359TIP3   OH222040   7.182   2.600  -0.025
 7359TIP3    H122041   7.212   2.575   0.062
 7359TIP3    H222042   7.164   2.693  -0.019
 7360TIP3   OH222043   0.110   0.187   3.172
 7360TIP3    H122044   0.086   0.229   3.255
 7360TIP3    H222045   0.103   0.257   3.107
 7361TIP3   OH222046   0.430   3.356   5.482
 7361TIP3    H122047   0.428   3.452   5.478
 7361TIP3    H222048   0.396   3.335   5.569
 7362TIP3   OH222049   1.354   4.863   5.536
 7362TIP3    H122050   1.407   4.872   5.615
 7362TIP3    H222051   1.304   4.944   5.532
 7363TIP3   OH222052   1.150   1.530   0.786
 7363TIP3    H122053   1.231   1.531   0.735
 7363TIP3    H222054   1.085   1.573   0.730
 7364TIP3   OH222055   3.939   0.044   4.662
 7364TIP3    H122056   3.911   0.043   4.571
 7364TIP3    H222057   3.861   0.021   4.712
 7365TIP3   OH222058   1.806   1.472   0.245
 7365TIP3    H122059   1.780   1.549   0.194
 7365TIP3    H222060   1.756   1.479   0.326
 7366TIP3   OH222061   0.819   1.027   2.666
 7366TIP3    H122062   0.789   0.979   2.743
 7366TIP3    H222063   0.750   1.014   2.601
 7367TIP3   OH222064   5.962   2.856   3.873
 7367TIP3    H122065   5.927   2.767   3.882
 7367TIP3    H222066   5.886   2.913   3.888
 7368TIP3   OH222067   1.479   6.080   1.825
 7368TIP3    H122068   1.550   6.138   1.799
 7368TIP3    H222069   1.471   6.093   1.920
 7369TIP3   OH222070   5.563   0.053   0.384
 7369TIP3    H122071   5.618   0.113   0.334
 7369TIP3    H222072   5.478   0.057   0.341
 7370TIP3   OH222073   0.819   3.715   2.085
 7370TIP3    H122074   0.874   3.788   2.056
 7370TIP3    H222075   0.869   3.674   2.155
 7371TIP3   OH222076   1.597   5.136   0.966
 7371TIP3    H122077   1.638   5.205   1.018
 7371TIP3    H222078   1.509   5.168   0.947
 7372TIP3   OH222079   1.294   5.965   4.689
 7372TIP3    H122080   1.283   5.870   4.684
 7372TIP3    H222081   1.379   5.981   4.649
 7373TIP3   OH222082   6.421   1.742   3.429
 7373TIP3    H122083   6.359   1.786   3.371
 7373TIP3    H222084   6.507   1.770   3.398
 7374TIP3   OH222085   2.782   5.369   4.013
 7374TIP3    H122086   2.792   5.460   3.987
 7374TIP3    H222087   2.769   5.322   3.931
 7375TIP3   OH222088   6.521   4.030   0.992
 7375TIP3    H122089   6.512   4.045   1.086
 7375TIP3    H222090   6.604   3.984   0.982
 7376TIP3   OH222091   6.587   2.561   3.795
 7376TIP3    H122092   6.607   2.647   3.757
 7376TIP3    H222093   6.492   2.563   3.810
 7377TIP3   OH222094   3.855   0.944   2.219
 7377TIP3    H122095   3.935   0.891   2.213
 7377TIP3    H222096   3.789   0.893   2.172
 7378TIP3   OH222097   5.326   4.369   2.457
 7378TIP3    H122098   5.414   4.338   2.479
 7378TIP3    H222099   5.290   4.401   2.540
 7379TIP3   OH222100   1.171   4.186   1.392
 7379TIP3    H122101   1.220   4.156   1.468
 7379TIP3    H222102   1.235   4.233   1.339
 7380TIP3   OH222103   3.157   5.077   1.062
 7380TIP3    H122104   3.088   5.106   1.121
 7380TIP3    H222105   3.146   5.131   0.984
 7381TIP3   OH222106   4.598   4.946   0.657
 7381TIP3    H122107   4.675   4.989   0.619
 7381TIP3    H222108   4.629   4.860   0.685
 7382TIP3   OH222109   7.141   1.057   5.858
 7382TIP3    H122110   7.115   1.141   5.821
 7382TIP3    H222111   7.197   1.017   5.791
 7383TIP3   OH222112   6.913   0.311   4.626
 7383TIP3    H122113   6.818   0.301   4.634
 7383TIP3    H222114   6.929   0.323   4.533
 7384TIP3   OH222115   6.600   3.962   4.749
 7384TIP3    H122116   6.686   3.920   4.759
 7384TIP3    H222117   6.553   3.906   4.687
 7385TIP3   OH222118   5.527   3.543   4.976
 7385TIP3    H122119   5.484   3.489   5.043
 7385TIP3    H222120   5.531   3.487   4.899
 7386TIP3   OH222121   6.072   5.959   2.540
 7386TIP3    H122122   6.031   5.874   2.556
 7386TIP3    H222123   6.026   6.019   2.599
 7387TIP3   OH222124   3.387   1.155   5.124
 7387TIP3    H122125   3.322   1.109   5.177
 7387TIP3    H222126   3.336   1.204   5.060
 7388TIP3   OH222127   3.410   6.749   3.606
 7388TIP3    H122128   3.326   6.703   3.600
 7388TIP3    H222129   3.411   6.807   3.529
 7389TIP3   OH222130   4.712   5.715   1.061
 7389TIP3    H122131   4.645   5.699   1.128
 7389TIP3    H222132   4.794   5.723   1.110
 7390TIP3   OH222133   3.524   1.444   2.122
 7390TIP3    H122134   3.593   1.449   2.055
 7390TIP3    H222135   3.449   1.489   2.082
 7391TIP3   OH222136   2.925   4.847   0.909
 7391TIP3    H122137   2.945   4.757   0.935
 7391TIP3    H222138   2.956   4.854   0.819
 7392TIP3   OH222139   6.142   2.350   1.953
 7392TIP3    H122140   6.132   2.276   2.013
 7392TIP3    H222141   6.219   2.329   1.901
 7393TIP3   OH222142   5.832   5.321   1.218
 7393TIP3    H122143   5.873   5.335   1.133
 7393TIP3    H222144   5.869   5.389   1.274
 7394TIP3   OH222145   4.473   3.353   5.401
 7394TIP3    H122146   4.503   3.296   5.471
 7394TIP3    H222147   4.487   3.442   5.434
 7395TIP3   OH222148   5.675   0.076   4.806
 7395TIP3    H122149   5.589   0.046   4.776
 7395TIP3    H222150   5.667   0.171   4.810
 7396TIP3   OH222151   2.405   6.540   3.340
 7396TIP3    H122152   2.420   6.623   3.384
 7396TIP3    H222153   2.328   6.503   3.384
 7397TIP3   OH222154   2.670   2.447   1.290
 7397TIP3    H122155   2.680   2.542   1.300
 7397TIP3    H222156   2.591   2.437   1.238
 7398TIP3   OH222157   5.146   4.324   2.232
 7398TIP3    H122158   5.127   4.415   2.207
 7398TIP3    H222159   5.196   4.331   2.313
 7399TIP3   OH222160   1.797   1.906   0.748
 7399TIP3    H122161   1.873   1.849   0.743
 7399TIP3    H222162   1.832   1.994   0.732
 7400TIP3   OH222163   4.872   6.368   5.674
 7400TIP3    H122164   4.940   6.418   5.629
 7400TIP3    H222165   4.792   6.388   5.626
 7401TIP3   OH222166   6.854   1.641   1.520
 7401TIP3    H122167   6.901   1.608   1.597
 7401TIP3    H222168   6.848   1.736   1.534
 7402TIP3   OH222169   2.528   2.927   0.595
 7402TIP3    H122170   2.459   2.962   0.651
 7402TIP3    H222171   2.569   2.859   0.649
 7403TIP3   OH222172   1.103   0.223   4.222
 7403TIP3    H122173   1.029   0.225   4.282
 7403TIP3    H222174   1.065   0.206   4.136
 7404TIP3   OH222175   6.590   2.665   5.746
 7404TIP3    H122176   6.575   2.759   5.753
 7404TIP3    H222177   6.582   2.632   5.835
 7405TIP3   OH222178   2.228   3.433   4.655
 7405TIP3    H122179   2.307   3.394   4.617
 7405TIP3    H222180   2.213   3.512   4.602
 7406TIP3   OH222181   3.257   1.972   2.205
 7406TIP3    H122182   3.318   1.965   2.131
 7406TIP3    H222183   3.187   2.030   2.173
 7407TIP3   OH222184   2.161   1.230   5.467
 7407TIP3    H122185   2.209   1.149   5.485
 7407TIP3    H222186   2.107   1.210   5.391
 7408TIP3   OH222187   0.190   6.575   4.226
 7408TIP3    H122188   0.265   6.635   4.218
 7408TIP3    H222189   0.224   6.491   4.196
 7409TIP3   OH222190   3.909   3.526   5.023
 7409TIP3    H122191   3.913   3.622   5.014
 7409TIP3    H222192   3.830   3.501   4.976
 7410TIP3   OH222193   2.134   6.236   3.045
 7410TIP3    H122194   2.194   6.311   3.043
 7410TIP3    H222195   2.178   6.172   3.101
 7411TIP3   OH222196   4.936   1.449   2.301
 7411TIP3    H122197   4.912   1.357   2.317
 7411TIP3    H222198   4.874   1.500   2.353
 7412TIP3   OH222199   1.528   3.788   4.344
 7412TIP3    H122200   1.585   3.789   4.267
 7412TIP3    H222201   1.476   3.868   4.338
 7413TIP3   OH222202   3.538   3.712   1.709
 7413TIP3    H122203   3.625   3.694   1.673
 7413TIP3    H222204   3.485   3.736   1.634
 7414TIP3   OH222205   0.871   1.206   2.909
 7414TIP3    H122206   0.958   1.168   2.894
 7414TIP3    H222207   0.881   1.257   2.990
 7415TIP3   OH222208   5.983   3.571   2.287
 7415TIP3    H122209   6.077   3.580   2.269
 7415TIP3    H222210   5.961   3.483   2.258
 7416TIP3   OH222211   3.728   1.392   0.223
 7416TIP3    H122212   3.652   1.444   0.249
 7416TIP3    H222213   3.803   1.437   0.263
 7417TIP3   OH222214   0.855   5.614   4.973
 7417TIP3    H122215   0.890   5.620   5.061
 7417TIP3    H222216   0.762   5.633   4.982
 7418TIP3   OH222217   4.815   0.691   0.386
 7418TIP3    H122218   4.881   0.665   0.451
 7418TIP3    H222219   4.732   0.664   0.424
 7419TIP3   OH222220   1.553   5.011   4.408
 7419TIP3    H122221   1.603   4.953   4.351
 7419TIP3    H222222   1.470   5.023   4.362
 7420TIP3   OH222223   4.663   5.134   1.156
 7420TIP3    H122224   4.666   5.144   1.251
 7420TIP3    H222225   4.702   5.048   1.139
 7421TIP3   OH222226   5.058   3.550   5.797
 7421TIP3    H122227   5.145   3.591   5.793
 7421TIP3    H222228   5.065   3.486   5.868
 7422TIP3   OH222229   2.145   3.347   3.337
 7422TIP3    H122230   2.084   3.294   3.388
 7422TIP3    H222231   2.131   3.318   3.246
 7423TIP3   OH222232   1.102   5.344   5.783
 7423TIP3    H122233   1.112   5.433   5.815
 7423TIP3    H222234   1.052   5.299   5.851
 7424TIP3   OH222235   6.386   6.592   1.852
 7424TIP3    H122236   6.420   6.677   1.880
 7424TIP3    H222237   6.423   6.530   1.915
 7425TIP3   OH222238   2.448   6.100   5.370
 7425TIP3    H122239   2.472   6.085   5.461
 7425TIP3    H222240   2.425   6.013   5.337
 7426TIP3   OH222241   6.326   0.168   0.974
 7426TIP3    H122242   6.366   0.248   1.008
 7426TIP3    H222243   6.234   0.175   0.998
 7427TIP3   OH222244   1.513   4.646   4.471
 7427TIP3    H122245   1.474   4.662   4.557
 7427TIP3    H222246   1.502   4.552   4.457
 7428TIP3   OH222247   6.900   3.568   4.883
 7428TIP3    H122248   6.870   3.652   4.918
 7428TIP3    H222249   6.822   3.513   4.884
 7429TIP3   OH222250   5.954   1.228   2.525
 7429TIP3    H122251   6.038   1.270   2.544
 7429TIP3    H222252   5.926   1.266   2.442
 7430TIP3   OH222253   5.863   1.995   3.657
 7430TIP3    H122254   5.866   2.032   3.745
 7430TIP3    H222255   5.832   1.906   3.669
 7431TIP3   OH222256   0.241   2.760   4.506
 7431TIP3    H122257   0.232   2.817   4.430
 7431TIP3    H222258   0.167   2.783   4.562
 7432TIP3   OH222259   6.942   6.033   3.530
 7432TIP3    H122260   6.852   6.065   3.544
 7432TIP3    H222261   6.988   6.106   3.489
 7433TIP3   OH222262   4.114   4.506   0.909
 7433TIP3    H122263   4.152   4.493   0.822
 7433TIP3    H222264   4.045   4.571   0.895
 7434TIP3   OH222265   4.114   2.864   1.239
 7434TIP3    H122266   4.067   2.788   1.203
 7434TIP3    H222267   4.073   2.940   1.197
 7435TIP3   OH222268   3.155   6.633   5.267
 7435TIP3    H122269   3.140   6.546   5.229
 7435TIP3    H222270   3.234   6.664   5.223
 7436TIP3   OH222271   5.655   4.165   4.032
 7436TIP3    H122272   5.663   4.072   4.051
 7436TIP3    H222273   5.594   4.197   4.098
 7437TIP3   OH222274   4.062   6.632   5.446
 7437TIP3    H122275   4.093   6.684   5.520
 7437TIP3    H222276   4.111   6.550   5.453
 7438TIP3   OH222277   2.953   2.452   2.194
 7438TIP3    H122278   3.036   2.405   2.185
 7438TIP3    H222279   2.892   2.403   2.139
 7439TIP3   OH222280   3.044   2.822   3.850
 7439TIP3    H122281   2.968   2.858   3.896
 7439TIP3    H222282   3.063   2.884   3.780
 7440TIP3   OH222283   3.770   3.620   4.628
 7440TIP3    H122284   3.798   3.604   4.538
 7440TIP3    H222285   3.846   3.659   4.671
 7441TIP3   OH222286   3.260   0.685   0.402
 7441TIP3    H122287   3.325   0.615   0.390
 7441TIP3    H222288   3.311   0.760   0.431
 7442TIP3   OH222289   6.772   1.557   4.258
 7442TIP3    H122290   6.730   1.532   4.176
 7442TIP3    H222291   6.766   1.653   4.259
 7443TIP3   OH222292   2.180   0.260   5.601
 7443TIP3    H122293   2.086   0.271   5.616
 7443TIP3    H222294   2.220   0.292   5.681
 7444TIP3   OH222295   5.286   6.438   0.894
 7444TIP3    H122296   5.359   6.403   0.844
 7444TIP3    H222297   5.309   6.421   0.986
 7445TIP3   OH222298   6.926   4.375   3.522
 7445TIP3    H122299   6.956   4.444   3.464
 7445TIP3    H222300   7.006   4.331   3.551
 7446TIP3   OH222301   5.067   0.965   0.632
 7446TIP3    H122302   5.066   0.937   0.541
 7446TIP3    H222303   5.159   0.961   0.657
 7447TIP3   OH222304   4.942   0.761   4.714
 7447TIP3    H122305   4.859   0.722   4.685
 7447TIP3    H222306   5.006   0.692   4.699
 7448TIP3   OH222307   6.439   6.392   5.255
 7448TIP3    H122308   6.405   6.479   5.234
 7448TIP3    H222309   6.464   6.398   5.347
 7449TIP3   OH222310   6.715   4.780   3.219
 7449TIP3    H122311   6.729   4.858   3.166
 7449TIP3    H222312   6.654   4.808   3.288
 7450TIP3   OH222313   7.095   5.170   3.986
 7450TIP3    H122314   7.027   5.150   4.050
 7450TIP3    H222315   7.061   5.135   3.904
 7451TIP3   OH222316   2.781   0.665   5.802
 7451TIP3    H122317   2.839   0.588   5.797
 7451TIP3    H222318   2.739   0.658   5.888
 7452TIP3   OH222319   0.065   1.314   1.297
 7452TIP3    H122320  -0.028   1.293   1.305
 7452TIP3    H222321   0.071   1.407   1.318
 7453TIP3   OH222322   2.246   3.587   3.391
 7453TIP3    H122323   2.212   3.497   3.391
 7453TIP3    H222324   2.200   3.630   3.320
 7454TIP3   OH222325   4.931   2.508   0.953
 7454TIP3    H122326   4.908   2.601   0.945
 7454TIP3    H222327   5.008   2.507   1.009
 7455TIP3   OH222328   6.040   6.616   1.055
 7455TIP3    H122329   6.015   6.586   0.968
 7455TIP3    H222330   6.135   6.608   1.057
 7456TIP3   OH222331   2.678   3.235   1.254
 7456TIP3    H122332   2.706   3.326   1.259
 7456TIP3    H222333   2.735   3.195   1.188
 7457TIP3   OH222334   3.631   6.213   1.410
 7457TIP3    H122335   3.624   6.294   1.359
 7457TIP3    H222336   3.605   6.144   1.349
 7458TIP3   OH222337   0.843   4.474   2.610
 7458TIP3    H122338   0.884   4.397   2.649
 7458TIP3    H222339   0.862   4.467   2.516
 7459TIP3   OH222340   6.864   2.122   2.824
 7459TIP3    H122341   6.915   2.127   2.743
 7459TIP3    H222342   6.812   2.203   2.825
 7460TIP3   OH222343   5.463   2.623   5.100
 7460TIP3    H122344   5.506   2.642   5.017
 7460TIP3    H222345   5.444   2.709   5.138
 7461TIP3   OH222346   1.888   3.198   2.286
 7461TIP3    H122347   1.927   3.125   2.238
 7461TIP3    H222348   1.962   3.241   2.328
 7462TIP3   OH222349   4.368   5.073   4.275
 7462TIP3    H122350   4.340   5.165   4.268
 7462TIP3    H222351   4.459   5.078   4.303
 7463TIP3   OH222352   4.907   2.837   4.834
 7463TIP3    H122353   4.865   2.757   4.801
 7463TIP3    H222354   4.835   2.893   4.862
 7464TIP3   OH222355   0.343   3.648   3.469
 7464TIP3    H122356   0.365   3.555   3.460
 7464TIP3    H222357   0.328   3.678   3.379
 7465TIP3   OH222358   6.079   6.190   5.025
 7465TIP3    H122359   6.169   6.196   5.056
 7465TIP3    H222360   6.035   6.134   5.089
 7466TIP3   OH222361   5.527   2.605   3.022
 7466TIP3    H122362   5.617   2.607   3.057
 7466TIP3    H222363   5.537   2.579   2.931
 7467TIP3   OH222364   0.401   1.994   2.736
 7467TIP3    H122365   0.385   2.035   2.821
 7467TIP3    H222366   0.356   2.051   2.674
 7468TIP3   OH222367   3.723   1.138   0.687
 7468TIP3    H122368   3.663   1.114   0.757
 7468TIP3    H222369   3.693   1.224   0.658
 7469TIP3   OH222370   6.227   2.037   4.457
 7469TIP3    H122371   6.202   2.110   4.399
 7469TIP3    H222372   6.144   2.004   4.491
 7470TIP3   OH222373   0.411   3.673   1.723
 7470TIP3    H122374   0.410   3.757   1.678
 7470TIP3    H222375   0.489   3.676   1.778
 7471TIP3   OH222376   1.828   4.430   1.774
 7471TIP3    H122377   1.837   4.486   1.851
 7471TIP3    H222378   1.816   4.342   1.809
 7472TIP3   OH222379   0.109   3.526   5.588
 7472TIP3    H122380   0.148   3.449   5.629
 7472TIP3    H222381   0.097   3.501   5.496
 7473TIP3   OH222382   2.075   4.207   3.493
 7473TIP3    H122383   2.138   4.197   3.565
 7473TIP3    H222384   2.014   4.273   3.524
 7474TIP3   OH222385   2.823   3.538   5.746
 7474TIP3    H122386   2.741   3.498   5.718
 7474TIP3    H222387   2.798   3.627   5.772
 7475TIP3   OH222388   1.506   4.723   5.232
 7475TIP3    H122389   1.531   4.665   5.304
 7475TIP3    H222390   1.462   4.797   5.275
 7476TIP3   OH222391   6.749   3.773   2.998
 7476TIP3    H122392   6.701   3.854   3.017
 7476TIP3    H222393   6.820   3.801   2.940
 7477TIP3   OH222394   1.351   4.191   3.059
 7477TIP3    H122395   1.288   4.147   3.116
 7477TIP3    H222396   1.428   4.134   3.060
 7478TIP3   OH222397   6.825   6.080   5.102
 7478TIP3    H122398   6.799   6.159   5.150
 7478TIP3    H222399   6.918   6.093   5.083
 7479TIP3   OH222400   3.303   3.519   1.023
 7479TIP3    H122401   3.349   3.596   1.057
 7479TIP3    H222402   3.372   3.466   0.984
 7480TIP3   OH222403   1.051   3.999   2.793
 7480TIP3    H122404   1.062   3.937   2.865
 7480TIP3    H222405   1.116   3.973   2.729
 7481TIP3   OH222406   5.097   3.563   3.318
 7481TIP3    H122407   5.083   3.471   3.343
 7481TIP3    H222408   5.018   3.609   3.346
 7482TIP3   OH222409   7.150   2.646   2.399
 7482TIP3    H122410   7.196   2.698   2.333
 7482TIP3    H222411   7.085   2.597   2.350
 7483TIP3   OH222412   2.919   0.260   5.597
 7483TIP3    H122413   2.987   0.328   5.601
 7483TIP3    H222414   2.843   0.304   5.560
 7484TIP3   OH222415   5.260   0.199   3.650
 7484TIP3    H122416   5.324   0.236   3.711
 7484TIP3    H222417   5.184   0.255   3.658
 7485TIP3   OH222418   0.168   3.734   3.273
 7485TIP3    H122419   0.188   3.773   3.187
 7485TIP3    H222420   0.141   3.644   3.252
 7486TIP3   OH222421   1.191   1.253   2.424
 7486TIP3    H122422   1.112   1.207   2.454
 7486TIP3    H222423   1.263   1.212   2.471
 7487TIP3   OH222424   0.651   0.932   1.530
 7487TIP3    H122425   0.585   1.000   1.549
 7487TIP3    H222426   0.713   0.938   1.603
 7488TIP3   OH222427   7.019   5.032   3.278
 7488TIP3    H122428   7.102   5.076   3.256
 7488TIP3    H222429   6.976   5.018   3.193
 7489TIP3   OH222430   2.197   6.674   1.865
 7489TIP3    H122431   2.139   6.670   1.940
 7489TIP3    H222432   2.278   6.633   1.894
 7490TIP3   OH222433   1.172   3.449   5.424
 7490TIP3    H122434   1.202   3.507   5.495
 7490TIP3    H222435   1.077   3.453   5.428
 7491TIP3   OH222436   3.934   0.253   2.184
 7491TIP3    H122437   3.905   0.343   2.169
 7491TIP3    H222438   3.931   0.212   2.098
 7492TIP3   OH222439   3.190   2.215   5.581
 7492TIP3    H122440   3.226   2.239   5.667
 7492TIP3    H222441   3.171   2.298   5.538
 7493TIP3   OH222442   3.670   2.639   2.599
 7493TIP3    H122443   3.591   2.599   2.563
 7493TIP3    H222444   3.720   2.667   2.522
 7494TIP3   OH222445   0.589   1.338   3.024
 7494TIP3    H122446   0.495   1.352   3.027
 7494TIP3    H222447   0.608   1.283   3.101
 7495TIP3   OH222448   1.637   1.952   4.957
 7495TIP3    H122449   1.702   1.987   4.896
 7495TIP3    H222450   1.557   2.001   4.936
 7496TIP3   OH222451   1.941   0.199   2.533
 7496TIP3    H122452   2.028   0.232   2.511
 7496TIP3    H222453   1.937   0.112   2.495
 7497TIP3   OH222454   4.338   3.700   1.501
 7497TIP3    H122455   4.421   3.729   1.539
 7497TIP3    H222456   4.346   3.722   1.408
 7498TIP3   OH222457   6.187   0.468   0.840
 7498TIP3    H122458   6.101   0.466   0.799
 7498TIP3    H222459   6.230   0.388   0.809
 7499TIP3   OH222460   2.841   6.621   5.275
 7499TIP3    H122461   2.919   6.668   5.247
 7499TIP3    H222462   2.783   6.624   5.200
 7500TIP3   OH222463   4.034   3.199   4.050
 7500TIP3    H122464   4.051   3.254   4.126
 7500TIP3    H222465   4.040   3.109   4.083
 7501TIP3   OH222466   3.099   3.467   5.171
 7501TIP3    H122467   3.123   3.466   5.078
 7501TIP3    H222468   3.063   3.380   5.187
 7502TIP3   OH222469   6.218   0.812   4.523
 7502TIP3    H122470   6.147   0.761   4.562
 7502TIP3    H222471   6.175   0.865   4.456
 7503TIP3   OH222472   5.514   4.137   1.450
 7503TIP3    H122473   5.499   4.221   1.492
 7503TIP3    H222474   5.447   4.079   1.487
 7504TIP3   OH222475   0.185   1.874   2.986
 7504TIP3    H122476   0.264   1.831   3.017
 7504TIP3    H222477   0.166   1.833   2.902
 7505TIP3   OH222478   2.064   0.158   0.145
 7505TIP3    H122479   2.125   0.124   0.081
 7505TIP3    H222480   2.072   0.253   0.139
 7506TIP3   OH222481   1.667   0.727   3.764
 7506TIP3    H122482   1.755   0.757   3.787
 7506TIP3    H222483   1.616   0.738   3.845
 7507TIP3   OH222484   4.495   1.415   1.341
 7507TIP3    H122485   4.545   1.412   1.260
 7507TIP3    H222486   4.559   1.400   1.410
 7508TIP3   OH222487   6.841   4.087   0.830
 7508TIP3    H122488   6.838   4.146   0.906
 7508TIP3    H222489   6.807   4.004   0.864
 7509TIP3   OH222490   0.730   6.694   0.628
 7509TIP3    H122491   0.774   6.776   0.652
 7509TIP3    H222492   0.665   6.720   0.563
 7510TIP3   OH222493   7.067   2.968   4.054
 7510TIP3    H122494   6.993   2.931   4.101
 7510TIP3    H222495   7.029   3.029   3.991
 7511TIP3   OH222496   0.869   1.545   3.726
 7511TIP3    H122497   0.932   1.494   3.674
 7511TIP3    H222498   0.923   1.592   3.790
 7512TIP3   OH222499   4.210   5.332   4.301
 7512TIP3    H122500   4.260   5.410   4.326
 7512TIP3    H222501   4.121   5.349   4.331
 7513TIP3   OH222502   5.726   4.066   3.190
 7513TIP3    H122503   5.732   4.161   3.188
 7513TIP3    H222504   5.816   4.035   3.188
 7514TIP3   OH222505   6.422   6.336   5.550
 7514TIP3    H122506   6.352   6.380   5.600
 7514TIP3    H222507   6.502   6.361   5.595
 7515TIP3   OH222508   6.496   1.218   2.142
 7515TIP3    H122509   6.491   1.123   2.150
 7515TIP3    H222510   6.519   1.233   2.051
 7516TIP3   OH222511   6.075   5.652   4.766
 7516TIP3    H122512   6.096   5.676   4.676
 7516TIP3    H222513   5.986   5.683   4.780
 7517TIP3   OH222514   2.330   3.343   2.540
 7517TIP3    H122515   2.369   3.430   2.532
 7517TIP3    H222516   2.397   3.289   2.582
 7518TIP3   OH222517   4.814   5.641   0.400
 7518TIP3    H122518   4.787   5.549   0.394
 7518TIP3    H222519   4.777   5.682   0.322
 7519TIP3   OH222520   4.889   0.159   4.775
 7519TIP3    H122521   4.807   0.188   4.734
 7519TIP3    H222522   4.863   0.089   4.835
 7520TIP3   OH222523   1.768   2.308   1.964
 7520TIP3    H122524   1.807   2.354   1.890
 7520TIP3    H222525   1.832   2.316   2.034
 7521TIP3   OH222526   3.415   5.792   1.276
 7521TIP3    H122527   3.372   5.783   1.361
 7521TIP3    H222528   3.383   5.719   1.224
 7522TIP3   OH222529   4.313   5.879   4.440
 7522TIP3    H122530   4.394   5.865   4.490
 7522TIP3    H222531   4.244   5.848   4.498
 7523TIP3   OH222532   6.784   6.732   3.874
 7523TIP3    H122533   6.702   6.779   3.863
 7523TIP3    H222534   6.848   6.799   3.897
 7524TIP3   OH222535   4.524   0.035   3.364
 7524TIP3    H122536   4.605  -0.009   3.339
 7524TIP3    H222537   4.552   0.120   3.399
 7525TIP3   OH222538   3.243   0.693   3.784
 7525TIP3    H122539   3.294   0.614   3.802
 7525TIP3    H222540   3.169   0.688   3.845
 7526TIP3   OH222541   1.017   2.126   1.573
 7526TIP3    H122542   1.065   2.196   1.530
 7526TIP3    H222543   1.066   2.046   1.551
 7527TIP3   OH222544   4.497   2.205   3.876
 7527TIP3    H122545   4.455   2.240   3.797
 7527TIP3    H222546   4.562   2.271   3.900
 7528TIP3   OH222547   5.957   3.976   1.962
 7528TIP3    H122548   5.943   4.002   1.871
 7528TIP3    H222549   6.036   3.922   1.960
 7529TIP3   OH222550   0.939   3.506   4.725
 7529TIP3    H122551   1.004   3.529   4.658
 7529TIP3    H222552   0.944   3.578   4.788
 7530TIP3   OH222553   0.863   5.771   4.606
 7530TIP3    H122554   0.955   5.785   4.627
 7530TIP3    H222555   0.851   5.676   4.608
 7531TIP3   OH222556   4.615   6.517   4.518
 7531TIP3    H122557   4.529   6.476   4.530
 7531TIP3    H222558   4.601   6.609   4.538
 7532TIP3   OH222559   3.704   3.092   3.591
 7532TIP3    H122560   3.721   3.132   3.506
 7532TIP3    H222561   3.614   3.059   3.585
 7533TIP3   OH222562   6.218   0.489   3.054
 7533TIP3    H122563   6.195   0.512   3.144
 7533TIP3    H222564   6.292   0.547   3.033
 7534TIP3   OH222565   0.921   6.640   1.030
 7534TIP3    H122566   0.904   6.628   1.123
 7534TIP3    H222567   1.013   6.617   1.020
 7535TIP3   OH222568   0.906   2.896   4.425
 7535TIP3    H122569   0.949   2.835   4.485
 7535TIP3    H222570   0.937   2.870   4.338
 7536TIP3   OH222571   0.330   1.608   0.023
 7536TIP3    H122572   0.390   1.550   0.070
 7536TIP3    H222573   0.385   1.648  -0.045
 7537TIP3   OH222574   3.293   6.547   2.941
 7537TIP3    H122575   3.370   6.569   2.888
 7537TIP3    H222576   3.295   6.451   2.946
 7538TIP3   OH222577   2.634   2.424   3.643
 7538TIP3    H122578   2.654   2.442   3.551
 7538TIP3    H222579   2.697   2.476   3.692
 7539TIP3   OH222580   3.104   6.150   4.190
 7539TIP3    H122581   3.100   6.171   4.283
 7539TIP3    H222582   3.195   6.163   4.166
 7540TIP3   OH222583   4.865   2.503   1.762
 7540TIP3    H122584   4.885   2.558   1.686
 7540TIP3    H222585   4.887   2.414   1.734
 7541TIP3   OH222586   0.057   0.312   0.759
 7541TIP3    H122587   0.149   0.330   0.743
 7541TIP3    H222588   0.011   0.356   0.688
 7542TIP3   OH222589   1.464   2.610   5.016
 7542TIP3    H122590   1.382   2.570   4.987
 7542TIP3    H222591   1.467   2.693   4.969
 7543TIP3   OH222592   1.414   3.541   2.051
 7543TIP3    H122593   1.329   3.565   2.089
 7543TIP3    H222594   1.471   3.614   2.073
 7544TIP3   OH222595   4.246   1.884   2.097
 7544TIP3    H122596   4.301   1.806   2.111
 7544TIP3    H222597   4.308   1.951   2.069
 7545TIP3   OH222598   2.553   2.203   1.601
 7545TIP3    H122599   2.637   2.245   1.586
 7545TIP3    H222600   2.527   2.170   1.515
 7546TIP3   OH222601   0.350   0.302   2.315
 7546TIP3    H122602   0.373   0.395   2.309
 7546TIP3    H222603   0.336   0.275   2.224
 7547TIP3   OH222604   2.803   0.101   1.631
 7547TIP3    H122605   2.714   0.091   1.666
 7547TIP3    H222606   2.794   0.169   1.564
 7548TIP3   OH222607   3.018   1.363   5.615
 7548TIP3    H122608   2.989   1.273   5.601
 7548TIP3    H222609   2.947   1.404   5.665
 7549TIP3   OH222610   6.142   1.343   2.029
 7549TIP3    H122611   6.068   1.334   1.968
 7549TIP3    H222612   6.125   1.278   2.097
 7550TIP3   OH222613   4.142   2.096   4.346
 7550TIP3    H122614   4.133   2.006   4.377
 7550TIP3    H222615   4.212   2.091   4.279
 7551TIP3   OH222616   5.311   6.556   0.545
 7551TIP3    H122617   5.392   6.604   0.530
 7551TIP3    H222618   5.303   6.550   0.640
 7552TIP3   OH222619   4.335   1.557   2.655
 7552TIP3    H122620   4.252   1.531   2.615
 7552TIP3    H222621   4.342   1.651   2.637
 7553TIP3   OH222622   6.853   2.225   2.158
 7553TIP3    H122623   6.820   2.162   2.222
 7553TIP3    H222624   6.773   2.264   2.121
 7554TIP3   OH222625   0.356   2.561   0.756
 7554TIP3    H122626   0.440   2.554   0.803
 7554TIP3    H222627   0.322   2.647   0.780
 7555TIP3   OH222628   3.185   5.798   1.007
 7555TIP3    H122629   3.098   5.759   1.004
 7555TIP3    H222630   3.178   5.867   1.073
 7556TIP3   OH222631   6.644   0.071   2.433
 7556TIP3    H122632   6.645   0.127   2.510
 7556TIP3    H222633   6.577   0.109   2.376
 7557TIP3   OH222634   2.047   1.870   5.385
 7557TIP3    H122635   2.118   1.836   5.331
 7557TIP3    H222636   2.091   1.924   5.450
 7558TIP3   OH222637   0.713   2.561   0.630
 7558TIP3    H122638   0.796   2.514   0.619
 7558TIP3    H222639   0.662   2.505   0.689
 7559TIP3   OH222640   4.219   3.653   0.571
 7559TIP3    H122641   4.259   3.661   0.658
 7559TIP3    H222642   4.168   3.572   0.575
 7560TIP3   OH222643   4.770   2.465   5.290
 7560TIP3    H122644   4.693   2.515   5.319
 7560TIP3    H222645   4.747   2.374   5.306
 7561TIP3   OH222646   3.082   1.517   5.058
 7561TIP3    H122647   3.027   1.577   5.006
 7561TIP3    H222648   3.171   1.537   5.031
 7562TIP3   OH222649   2.366   3.523   5.167
 7562TIP3    H122650   2.316   3.598   5.133
 7562TIP3    H222651   2.435   3.563   5.220
 7563TIP3   OH222652   2.030   2.088   5.567
 7563TIP3    H122653   1.946   2.050   5.592
 7563TIP3    H222654   2.017   2.121   5.479
 7564TIP3   OH222655   1.459   2.567   5.293
 7564TIP3    H122656   1.384   2.617   5.325
 7564TIP3    H222657   1.453   2.574   5.197
 7565TIP3   OH222658   4.593   1.793   3.520
 7565TIP3    H122659   4.578   1.852   3.446
 7565TIP3    H222660   4.654   1.728   3.486
 7566TIP3   OH222661   2.708   4.577   0.802
 7566TIP3    H122662   2.690   4.651   0.744
 7566TIP3    H222663   2.703   4.614   0.890
 7567TIP3   OH222664   0.589   4.814   3.704
 7567TIP3    H122665   0.652   4.746   3.726
 7567TIP3    H222666   0.642   4.893   3.692
 7568TIP3   OH222667   5.468   6.614   2.784
 7568TIP3    H122668   5.502   6.528   2.809
 7568TIP3    H222669   5.393   6.628   2.842
 7569TIP3   OH222670   6.378   5.937   0.830
 7569TIP3    H122671   6.429   6.017   0.840
 7569TIP3    H222672   6.294   5.957   0.871
 7570TIP3   OH222673   6.486   0.595   5.137
 7570TIP3    H122674   6.531   0.522   5.094
 7570TIP3    H222675   6.447   0.645   5.065
 7571TIP3   OH222676   1.784   0.501   0.292
 7571TIP3    H122677   1.854   0.482   0.230
 7571TIP3    H222678   1.762   0.417   0.331
 7572TIP3   OH222679   1.357   5.763   1.654
 7572TIP3    H122680   1.407   5.750   1.735
 7572TIP3    H222681   1.267   5.780   1.684
 7573TIP3   OH222682   5.309   3.327   4.231
 7573TIP3    H122683   5.274   3.411   4.261
 7573TIP3    H222684   5.395   3.321   4.273
 7574TIP3   OH222685   3.264   6.398   1.547
 7574TIP3    H122686   3.287   6.416   1.456
 7574TIP3    H222687   3.178   6.356   1.542
 7575TIP3   OH222688   1.573   6.567   4.537
 7575TIP3    H122689   1.633   6.498   4.565
 7575TIP3    H222690   1.567   6.625   4.612
 7576TIP3   OH222691   6.219   0.582   0.284
 7576TIP3    H122692   6.310   0.597   0.311
 7576TIP3    H222693   6.209   0.631   0.203
 7577TIP3   OH222694   5.612   5.802   2.623
 7577TIP3    H122695   5.534   5.814   2.678
 7577TIP3    H222696   5.605   5.712   2.591
 7578TIP3   OH222697   5.377   2.942   0.422
 7578TIP3    H122698   5.328   2.923   0.343
 7578TIP3    H222699   5.427   2.862   0.441
 7579TIP3   OH222700   6.748   4.478   4.127
 7579TIP3    H122701   6.697   4.521   4.196
 7579TIP3    H222702   6.838   4.510   4.141
 7580TIP3   OH222703   7.140   2.480   3.228
 7580TIP3    H122704   7.069   2.465   3.289
 7580TIP3    H222705   7.121   2.564   3.187
 7581TIP3   OH222706   7.002   4.783   2.201
 7581TIP3    H122707   7.053   4.716   2.247
 7581TIP3    H222708   7.067   4.831   2.149
 7582TIP3   OH222709   4.153   0.655   3.423
 7582TIP3    H122710   4.159   0.697   3.509
 7582TIP3    H222711   4.188   0.567   3.437
 7583TIP3   OH222712   6.524   3.710   2.747
 7583TIP3    H122713   6.470   3.754   2.812
 7583TIP3    H222714   6.468   3.641   2.711
 7584TIP3   OH222715   5.081   6.394   2.828
 7584TIP3    H122716   5.013   6.381   2.761
 7584TIP3    H222717   5.162   6.404   2.777
 7585TIP3   OH222718   1.598   6.663   3.382
 7585TIP3    H122719   1.674   6.691   3.433
 7585TIP3    H222720   1.538   6.737   3.386
 7586TIP3   OH222721   5.591   2.278   0.997
 7586TIP3    H122722   5.613   2.342   1.065
 7586TIP3    H222723   5.576   2.330   0.918
 7587TIP3   OH222724   3.026   5.770   1.669
 7587TIP3    H122725   3.024   5.799   1.578
 7587TIP3    H222726   3.118   5.776   1.694
 7588TIP3   OH222727   3.924   4.201   2.635
 7588TIP3    H122728   3.859   4.174   2.571
 7588TIP3    H222729   3.912   4.139   2.708
 7589TIP3   OH222730   5.380   2.096   5.664
 7589TIP3    H122731   5.348   2.186   5.674
 7589TIP3    H222732   5.476   2.104   5.672
 7590TIP3   OH222733   1.061   5.997   4.461
 7590TIP3    H122734   1.118   5.926   4.491
 7590TIP3    H222735   1.052   6.054   4.537
 7591TIP3   OH222736   1.964   0.942   3.560
 7591TIP3    H122737   1.935   0.881   3.491
 7591TIP3    H222738   1.947   0.896   3.642
 7592TIP3   OH222739   5.791   2.373   2.836
 7592TIP3    H122740   5.840   2.293   2.816
 7592TIP3    H222741   5.765   2.408   2.751
 7593TIP3   OH222742   3.028   1.044   3.780
 7593TIP3    H122743   3.003   1.045   3.872
 7593TIP3    H222744   3.096   1.110   3.772
 7594TIP3   OH222745   7.025   6.036   2.025
 7594TIP3    H122746   6.963   5.976   1.984
 7594TIP3    H222747   7.098   6.042   1.963
 7595TIP3   OH222748   4.373   4.218   2.487
 7595TIP3    H122749   4.379   4.192   2.579
 7595TIP3    H222750   4.300   4.280   2.485
 7596TIP3   OH222751   3.932   3.178   0.899
 7596TIP3    H122752   3.993   3.105   0.893
 7596TIP3    H222753   3.953   3.233   0.823
 7597TIP3   OH222754   4.380   5.192   1.126
 7597TIP3    H122755   4.473   5.173   1.138
 7597TIP3    H222756   4.344   5.191   1.215
 7598TIP3   OH222757   6.603   0.377   2.967
 7598TIP3    H122758   6.549   0.452   2.995
 7598TIP3    H222759   6.542   0.303   2.966
 7599TIP3   OH222760   2.202   6.552   5.532
 7599TIP3    H122761   2.178   6.524   5.620
 7599TIP3    H222762   2.282   6.504   5.512
 7600TIP3   OH222763   2.962   5.540   4.352
 7600TIP3    H122764   3.000   5.456   4.327
 7600TIP3    H222765   2.966   5.592   4.272
 7601TIP3   OH222766   2.253   5.568   3.302
 7601TIP3    H122767   2.232   5.614   3.383
 7601TIP3    H222768   2.220   5.479   3.314
 7602TIP3   OH222769   6.490   2.319   2.724
 7602TIP3    H122770   6.544   2.369   2.663
 7602TIP3    H222771   6.405   2.364   2.724
 7603TIP3   OH222772   5.963   2.665   5.651
 7603TIP3    H122773   6.051   2.658   5.612
 7603TIP3    H222774   5.903   2.652   5.577
 7604TIP3   OH222775   0.699   0.053   3.116
 7604TIP3    H122776   0.726   0.136   3.155
 7604TIP3    H222777   0.715   0.064   3.022
 7605TIP3   OH222778   6.880   3.518   2.012
 7605TIP3    H122779   6.943   3.519   2.085
 7605TIP3    H222780   6.837   3.603   2.016
 7606TIP3   OH222781   0.702   4.384   0.489
 7606TIP3    H122782   0.660   4.338   0.563
 7606TIP3    H222783   0.774   4.327   0.464
 7607TIP3   OH222784   6.314   4.030   4.712
 7607TIP3    H122785   6.352   3.957   4.761
 7607TIP3    H222786   6.389   4.085   4.688
 7608TIP3   OH222787   5.370   6.085   5.655
 7608TIP3    H122788   5.436   6.144   5.690
 7608TIP3    H222789   5.415   6.000   5.648
 7609TIP3   OH222790   2.457   2.038   3.296
 7609TIP3    H122791   2.548   2.033   3.266
 7609TIP3    H222792   2.433   1.948   3.317
 7610TIP3   OH222793   7.171   4.638   0.807
 7610TIP3    H122794   7.100   4.633   0.871
 7610TIP3    H222795   7.250   4.617   0.855
 7611TIP3   OH222796   1.041   0.039   2.959
 7611TIP3    H122797   0.996  -0.043   2.981
 7611TIP3    H222798   1.002   0.104   3.018
 7612TIP3   OH222799   3.438   6.631   3.241
 7612TIP3    H122800   3.351   6.592   3.231
 7612TIP3    H222801   3.446   6.690   3.166
 7613TIP3   OH222802   4.652   0.251   0.409
 7613TIP3    H122803   4.705   0.281   0.483
 7613TIP3    H222804   4.610   0.330   0.375
 7614TIP3   OH222805   3.014   6.802   4.796
 7614TIP3    H122806   2.990   6.824   4.886
 7614TIP3    H222807   2.983   6.712   4.785
 7615TIP3   OH222808   1.320   0.222   3.871
 7615TIP3    H122809   1.388   0.290   3.874
 7615TIP3    H222810   1.263   0.242   3.945
 7616TIP3   OH222811   1.712   6.362   0.563
 7616TIP3    H122812   1.751   6.448   0.548
 7616TIP3    H222813   1.779   6.313   0.611
 7617TIP3   OH222814   5.159   2.904   3.418
 7617TIP3    H122815   5.230   2.840   3.414
 7617TIP3    H222816   5.120   2.902   3.331
 7618TIP3   OH222817   0.699   1.614   2.507
 7618TIP3    H122818   0.770   1.582   2.562
 7618TIP3    H222819   0.741   1.634   2.423
 7619TIP3   OH222820   2.540   4.234   3.861
 7619TIP3    H122821   2.576   4.256   3.775
 7619TIP3    H222822   2.582   4.151   3.884
 7620TIP3   OH222823   3.468   3.087   5.518
 7620TIP3    H122824   3.424   3.151   5.575
 7620TIP3    H222825   3.428   3.099   5.432
 7621TIP3   OH222826   7.093   3.710   2.792
 7621TIP3    H122827   7.161   3.774   2.771
 7621TIP3    H222828   7.049   3.747   2.870
 7622TIP3   OH222829   5.878   2.271   1.144
 7622TIP3    H122830   5.909   2.360   1.157
 7622TIP3    H222831   5.845   2.244   1.230
 7623TIP3   OH222832   1.851   2.646   4.315
 7623TIP3    H122833   1.762   2.664   4.285
 7623TIP3    H222834   1.855   2.682   4.403
 7624TIP3   OH222835   1.696   1.292   4.073
 7624TIP3    H122836   1.610   1.253   4.053
 7624TIP3    H222837   1.719   1.255   4.158
 7625TIP3   OH222838   6.858   6.746   1.438
 7625TIP3    H122839   6.766   6.768   1.450
 7625TIP3    H222840   6.862   6.700   1.354
 7626TIP3   OH222841   0.076   4.900   1.369
 7626TIP3    H122842   0.155   4.949   1.392
 7626TIP3    H222843   0.087   4.880   1.276
 7627TIP3   OH222844   7.048   2.889   0.230
 7627TIP3    H122845   7.061   2.818   0.293
 7627TIP3    H222846   6.983   2.856   0.169
 7628TIP3   OH222847   3.753   1.083   3.390
 7628TIP3    H122848   3.789   0.998   3.366
 7628TIP3    H222849   3.794   1.103   3.474
 7629TIP3   OH222850   3.859   6.255   3.653
 7629TIP3    H122851   3.951   6.279   3.667
 7629TIP3    H222852   3.841   6.191   3.722
 7630TIP3   OH222853   2.416   2.075   5.373
 7630TIP3    H122854   2.388   2.142   5.311
 7630TIP3    H222855   2.340   2.017   5.383
 7631TIP3   OH222856   1.431   2.989   4.482
 7631TIP3    H122857   1.351   3.018   4.439
 7631TIP3    H222858   1.447   3.055   4.550
 7632TIP3   OH222859   4.985   1.939   4.654
 7632TIP3    H122860   4.906   1.888   4.639
 7632TIP3    H222861   5.041   1.882   4.705
 7633TIP3   OH222862   6.130   5.373   1.369
 7633TIP3    H122863   6.064   5.442   1.357
 7633TIP3    H222864   6.080   5.298   1.402
 7634TIP3   OH222865   2.360   3.750   1.374
 7634TIP3    H122866   2.426   3.687   1.402
 7634TIP3    H222867   2.309   3.703   1.308
 7635TIP3   OH222868   2.429   5.523   0.189
 7635TIP3    H122869   2.339   5.553   0.174
 7635TIP3    H222870   2.471   5.596   0.235
 7636TIP3   OH222871   7.013   0.855   5.453
 7636TIP3    H122872   6.957   0.901   5.390
 7636TIP3    H222873   6.993   0.895   5.537
 7637TIP3   OH222874   7.065   6.517   4.471
 7637TIP3    H122875   7.071   6.471   4.388
 7637TIP3    H222876   6.982   6.563   4.468
 7638TIP3   OH222877   2.955   5.455   5.750
 7638TIP3    H122878   2.987   5.454   5.660
 7638TIP3    H222879   2.870   5.500   5.744
 7639TIP3   OH222880   3.803   2.446   2.237
 7639TIP3    H122881   3.869   2.504   2.199
 7639TIP3    H222882   3.729   2.450   2.177
 7640TIP3   OH222883   0.927   6.360   4.663
 7640TIP3    H122884   0.991   6.289   4.674
 7640TIP3    H222885   0.844   6.315   4.650
 7641TIP3   OH222886   2.626   1.835   0.342
 7641TIP3    H122887   2.713   1.855   0.309
 7641TIP3    H222888   2.622   1.881   0.427
 7642TIP3   OH222889   5.723   1.817   0.093
 7642TIP3    H122890   5.667   1.796   0.018
 7642TIP3    H222891   5.688   1.765   0.165
 7643TIP3   OH222892   1.248   4.562   1.692
 7643TIP3    H122893   1.172   4.582   1.747
 7643TIP3    H222894   1.320   4.612   1.731
 7644TIP3   OH222895   0.197   5.174   2.540
 7644TIP3    H122896   0.237   5.095   2.575
 7644TIP3    H222897   0.244   5.190   2.458
 7645TIP3   OH222898   1.297   6.109   3.999
 7645TIP3    H122899   1.373   6.104   3.940
 7645TIP3    H222900   1.307   6.193   4.043
 7646TIP3   OH222901   7.063   6.317   1.275
 7646TIP3    H122902   7.066   6.255   1.347
 7646TIP3    H222903   7.155   6.338   1.257
 7647TIP3   OH222904   4.882   5.115   5.104
 7647TIP3    H122905   4.943   5.050   5.069
 7647TIP3    H222906   4.883   5.185   5.038
 7648TIP3   OH222907   4.211   4.535   1.312
 7648TIP3    H122908   4.124   4.565   1.287
 7648TIP3    H222909   4.271   4.582   1.255
 7649TIP3   OH222910   5.847   0.114   3.387
 7649TIP3    H122911   5.813   0.204   3.382
 7649TIP3    H222912   5.812   0.071   3.309
 7650TIP3   OH222913   6.040   4.197   0.775
 7650TIP3    H122914   6.034   4.289   0.801
 7650TIP3    H222915   6.085   4.154   0.848
 7651TIP3   OH222916   5.004   5.925   2.686
 7651TIP3    H122917   5.036   5.860   2.749
 7651TIP3    H222918   4.908   5.924   2.697
 7652TIP3   OH222919   1.282   0.363   0.315
 7652TIP3    H122920   1.343   0.424   0.274
 7652TIP3    H222921   1.331   0.328   0.390
 7653TIP3   OH222922   7.104   2.082   4.420
 7653TIP3    H122923   7.063   2.081   4.506
 7653TIP3    H222924   7.185   2.032   4.431
 7654TIP3   OH222925   0.213   3.086   3.967
 7654TIP3    H122926   0.202   2.993   3.985
 7654TIP3    H222927   0.196   3.129   4.051
 7655TIP3   OH222928   0.086   1.379   1.889
 7655TIP3    H122929   0.144   1.349   1.958
 7655TIP3    H222930   0.105   1.322   1.815
 7656TIP3   OH222931   5.298   5.961   2.628
 7656TIP3    H122932   5.246   5.990   2.703
 7656TIP3    H222933   5.319   5.870   2.647
 7657TIP3   OH222934   5.831   5.224   5.027
 7657TIP3    H122935   5.806   5.188   5.112
 7657TIP3    H222936   5.909   5.176   5.001
 7658TIP3   OH222937   3.236   3.141   5.822
 7658TIP3    H122938   3.239   3.062   5.876
 7658TIP3    H222939   3.221   3.110   5.733
 7659TIP3   OH222940   3.692   0.899   4.550
 7659TIP3    H122941   3.778   0.856   4.554
 7659TIP3    H222942   3.633   0.840   4.597
 7660TIP3   OH222943   5.498   0.664   1.898
 7660TIP3    H122944   5.588   0.632   1.902
 7660TIP3    H222945   5.506   0.759   1.895
 7661TIP3   OH222946   4.229   5.740   1.958
 7661TIP3    H122947   4.155   5.749   2.018
 7661TIP3    H222948   4.190   5.731   1.871
 7662TIP3   OH222949   6.749   6.029   1.436
 7662TIP3    H122950   6.676   6.045   1.496
 7662TIP3    H222951   6.822   6.078   1.474
 7663TIP3   OH222952   2.769   5.715   0.532
 7663TIP3    H122953   2.812   5.755   0.607
 7663TIP3    H222954   2.773   5.781   0.463
 7664TIP3   OH222955   2.867   2.341   0.206
 7664TIP3    H122956   2.898   2.320   0.118
 7664TIP3    H222957   2.843   2.434   0.203
 7665TIP3   OH222958   5.527   0.976   1.146
 7665TIP3    H122959   5.621   0.973   1.132
 7665TIP3    H222960   5.513   0.927   1.227
 7666TIP3   OH222961   1.017   5.696   0.809
 7666TIP3    H122962   1.106   5.691   0.772
 7666TIP3    H222963   0.960   5.673   0.736
 7667TIP3   OH222964   3.686   3.079   2.663
 7667TIP3    H122965   3.595   3.091   2.692
 7667TIP3    H222966   3.687   3.108   2.572
 7668TIP3   OH222967   4.273   3.291   3.535
 7668TIP3    H122968   4.224   3.211   3.554
 7668TIP3    H222969   4.289   3.331   3.621
 7669TIP3   OH222970   4.408   1.696   5.504
 7669TIP3    H122971   4.334   1.756   5.492
 7669TIP3    H222972   4.389   1.650   5.585
 7670TIP3   OH222973   6.072   1.655   2.004
 7670TIP3    H122974   6.010   1.649   1.932
 7670TIP3    H222975   6.155   1.626   1.967
 7671TIP3   OH222976   4.248   3.967   0.867
 7671TIP3    H122977   4.323   4.018   0.835
 7671TIP3    H222978   4.205   4.025   0.930
 7672TIP3   OH222979   3.149   5.505   5.535
 7672TIP3    H122980   3.120   5.529   5.448
 7672TIP3    H222981   3.205   5.577   5.563
 7673TIP3   OH222982   3.468   4.029   2.189
 7673TIP3    H122983   3.533   4.030   2.119
 7673TIP3    H222984   3.487   4.108   2.239
 7674TIP3   OH222985   5.504   3.016   5.797
 7674TIP3    H122986   5.531   3.106   5.778
 7674TIP3    H222987   5.539   2.965   5.725
 7675TIP3   OH222988   5.445   2.483   2.083
 7675TIP3    H122989   5.474   2.564   2.126
 7675TIP3    H222990   5.351   2.494   2.071
 7676TIP3   OH222991   7.086   1.239   1.994
 7676TIP3    H122992   7.017   1.217   1.932
 7676TIP3    H222993   7.150   1.288   1.942
 7677TIP3   OH222994   3.330   1.955   4.998
 7677TIP3    H122995   3.374   1.879   5.035
 7677TIP3    H222996   3.286   1.996   5.073
 7678TIP3   OH222997   4.500   3.906   2.982
 7678TIP3    H122998   4.553   3.827   2.970
 7678TIP3    H222999   4.428   3.878   3.039
 7679TIP3   OH223000   6.451   1.937   2.386
 7679TIP3    H123001   6.483   1.956   2.474
 7679TIP3    H223002   6.456   1.842   2.378
 7680TIP3   OH223003   6.179   5.828   2.326
 7680TIP3    H123004   6.134   5.850   2.244
 7680TIP3    H223005   6.135   5.881   2.392
 7681TIP3   OH223006   0.833   3.651   2.596
 7681TIP3    H123007   0.908   3.593   2.603
 7681TIP3    H223008   0.870   3.738   2.581
 7682TIP3   OH223009   4.263   0.535   5.389
 7682TIP3    H123010   4.184   0.582   5.363
 7682TIP3    H223011   4.244   0.502   5.477
 7683TIP3   OH223012   4.989   1.743  -0.006
 7683TIP3    H123013   4.982   1.835   0.022
 7683TIP3    H223014   5.029   1.699   0.069
 7684TIP3   OH223015   2.056   2.442   5.359
 7684TIP3    H123016   2.067   2.349   5.340
 7684TIP3    H223017   2.119   2.486   5.302
 7685TIP3   OH223018   0.688   3.426   2.587
 7685TIP3    H123019   0.728   3.510   2.608
 7685TIP3    H223020   0.735   3.362   2.640
 7686TIP3   OH223021   1.152   3.880   0.138
 7686TIP3    H123022   1.193   3.838   0.213
 7686TIP3    H223023   1.124   3.966   0.170
 7687TIP3   OH223024   5.480   5.591   0.443
 7687TIP3    H123025   5.420   5.592   0.369
 7687TIP3    H223026   5.444   5.527   0.503
 7688TIP3   OH223027   5.391   6.217   3.441
 7688TIP3    H123028   5.357   6.210   3.351
 7688TIP3    H223029   5.444   6.297   3.440
 7689TIP3   OH223030   1.287   4.115   0.439
 7689TIP3    H123031   1.372   4.073   0.435
 7689TIP3    H223032   1.267   4.139   0.348
 7690TIP3   OH223033   2.149   3.330   5.598
 7690TIP3    H123034   2.081   3.353   5.534
 7690TIP3    H223035   2.106   3.339   5.683
 7691TIP3   OH223036   5.910   1.179   5.729
 7691TIP3    H123037   5.838   1.128   5.692
 7691TIP3    H223038   5.975   1.114   5.754
 7692TIP3   OH223039   0.160   1.247   2.625
 7692TIP3    H123040   0.208   1.322   2.589
 7692TIP3    H223041   0.143   1.272   2.716
 7693TIP3   OH223042   0.847   4.525   1.646
 7693TIP3    H123043   0.893   4.449   1.610
 7693TIP3    H223044   0.913   4.570   1.698
 7694TIP3   OH223045   0.860   2.752   4.992
 7694TIP3    H123046   0.848   2.815   4.921
 7694TIP3    H223047   0.772   2.717   5.008
 7695TIP3   OH223048   1.466   1.418   3.825
 7695TIP3    H123049   1.411   1.432   3.902
 7695TIP3    H223050   1.420   1.352   3.774
 7696TIP3   OH223051   1.343   6.163   5.537
 7696TIP3    H123052   1.420   6.210   5.570
 7696TIP3    H223053   1.369   6.071   5.538
 7697TIP3   OH223054   4.639   3.836   4.302
 7697TIP3    H123055   4.667   3.779   4.374
 7697TIP3    H223056   4.720   3.868   4.264
 7698TIP3   OH223057   7.261   6.600   5.164
 7698TIP3    H123058   7.172   6.569   5.183
 7698TIP3    H223059   7.318   6.532   5.199
 7699TIP3   OH223060   3.463   0.676   3.247
 7699TIP3    H123061   3.438   0.767   3.266
 7699TIP3    H223062   3.547   0.683   3.203
 7700TIP3   OH223063   0.647   6.640   4.730
 7700TIP3    H123064   0.590   6.621   4.656
 7700TIP3    H223065   0.593   6.621   4.807
 7701TIP3   OH223066   3.632   3.106   5.768
 7701TIP3    H123067   3.639   3.196   5.798
 7701TIP3    H223068   3.590   3.112   5.682
 7702TIP3   OH223069   0.997   5.008   4.770
 7702TIP3    H123070   1.069   4.946   4.755
 7702TIP3    H223071   0.918   4.956   4.761
 7703TIP3   OH223072   2.902   6.481   0.461
 7703TIP3    H123073   2.840   6.418   0.498
 7703TIP3    H223074   2.861   6.566   0.476
 7704TIP3   OH223075   6.589   2.558   2.623
 7704TIP3    H123076   6.507   2.601   2.597
 7704TIP3    H223077   6.653   2.629   2.628
 7705TIP3   OH223078   6.015   2.463   4.571
 7705TIP3    H123079   5.959   2.537   4.550
 7705TIP3    H223080   6.099   2.502   4.595
 7706TIP3   OH223081   4.917   0.907   3.278
 7706TIP3    H123082   4.831   0.867   3.260
 7706TIP3    H223083   4.913   0.931   3.370
 7707TIP3   OH223084   2.916   1.779   5.162
 7707TIP3    H123085   2.979   1.736   5.219
 7707TIP3    H223086   2.912   1.869   5.193
 7708TIP3   OH223087   2.186   2.010   4.136
 7708TIP3    H123088   2.155   2.100   4.133
 7708TIP3    H223089   2.278   2.017   4.161
 7709TIP3   OH223090   1.431   6.681   3.643
 7709TIP3    H123091   1.418   6.622   3.569
 7709TIP3    H223092   1.525   6.677   3.660
 7710TIP3   OH223093   6.842   4.718   0.885
 7710TIP3    H123094   6.903   4.728   0.959
 7710TIP3    H223095   6.769   4.776   0.906
 7711TIP3   OH223096   1.365   5.457   2.031
 7711TIP3    H123097   1.400   5.415   2.110
 7711TIP3    H223098   1.368   5.389   1.964
 7712TIP3   OH223099   4.716   3.748   1.342
 7712TIP3    H123100   4.811   3.755   1.351
 7712TIP3    H223101   4.695   3.806   1.268
 7713TIP3   OH223102   3.952   1.842   1.460
 7713TIP3    H123103   4.014   1.840   1.533
 7713TIP3    H223104   3.867   1.854   1.501
 7714TIP3   OH223105   5.623   1.858   5.174
 7714TIP3    H123106   5.564   1.892   5.242
 7714TIP3    H223107   5.580   1.779   5.142
 7715TIP3   OH223108   0.859   2.498   4.664
 7715TIP3    H123109   0.930   2.561   4.652
 7715TIP3    H223110   0.821   2.489   4.576
 7716TIP3   OH223111   2.984   2.676   1.952
 7716TIP3    H123112   2.933   2.637   1.881
 7716TIP3    H223113   2.919   2.705   2.015
 7717TIP3   OH223114   2.847   1.500   5.838
 7717TIP3    H123115   2.811   1.428   5.890
 7717TIP3    H223116   2.911   1.541   5.896
 7718TIP3   OH223117   3.005   3.175   2.853
 7718TIP3    H123118   3.075   3.200   2.793
 7718TIP3    H223119   3.029   3.216   2.936
 7719TIP3   OH223120   2.621   2.680   1.038
 7719TIP3    H123121   2.600   2.755   0.981
 7719TIP3    H223122   2.667   2.719   1.112
 7720TIP3   OH223123   4.576   4.423   3.616
 7720TIP3    H123124   4.485   4.395   3.608
 7720TIP3    H223125   4.607   4.380   3.695
 7721TIP3   OH223126   3.373   0.784   4.618
 7721TIP3    H123127   3.446   0.781   4.678
 7721TIP3    H223128   3.317   0.854   4.651
 7722TIP3   OH223129   2.856   1.898   4.144
 7722TIP3    H123130   2.899   1.982   4.125
 7722TIP3    H223131   2.909   1.834   4.096
 7723TIP3   OH223132   3.514   6.174   4.335
 7723TIP3    H123133   3.453   6.182   4.261
 7723TIP3    H223134   3.457   6.156   4.410
 7724TIP3   OH223135   2.044   3.979   3.767
 7724TIP3    H123136   1.987   3.925   3.711
 7724TIP3    H223137   2.037   3.939   3.854
 7725TIP3   OH223138   3.961   1.868   3.863
 7725TIP3    H123139   3.968   1.810   3.939
 7725TIP3    H223140   3.949   1.809   3.789
 7726TIP3   OH223141   4.283   2.080   1.024
 7726TIP3    H123142   4.289   2.006   1.084
 7726TIP3    H223143   4.336   2.149   1.066
 7727TIP3   OH223144   5.040   0.512   4.350
 7727TIP3    H123145   4.989   0.547   4.277
 7727TIP3    H223146   5.083   0.589   4.389
 7728TIP3   OH223147   7.002   1.931   5.772
 7728TIP3    H123148   7.001   1.969   5.860
 7728TIP3    H223149   7.035   1.842   5.785
 7729TIP3   OH223150   2.065   4.339   4.892
 7729TIP3    H123151   2.151   4.297   4.890
 7729TIP3    H223152   2.003   4.266   4.883
 7730TIP3   OH223153   0.350   1.938   0.949
 7730TIP3    H123154   0.373   1.853   0.986
 7730TIP3    H223155   0.331   1.920   0.857
 7731TIP3   OH223156   6.376   4.975   2.214
 7731TIP3    H123157   6.296   5.001   2.167
 7731TIP3    H223158   6.436   5.049   2.201
 7732TIP3   OH223159   4.265   6.661   0.484
 7732TIP3    H123160   4.253   6.592   0.418
 7732TIP3    H223161   4.272   6.614   0.567
 7733TIP3   OH223162   6.207   4.730   5.529
 7733TIP3    H123163   6.208   4.776   5.614
 7733TIP3    H223164   6.137   4.773   5.480
 7734TIP3   OH223165   4.527   1.141   2.362
 7734TIP3    H123166   4.548   1.115   2.273
 7734TIP3    H223167   4.534   1.237   2.362
 7735TIP3   OH223168   5.420   3.129   1.213
 7735TIP3    H123169   5.382   3.152   1.298
 7735TIP3    H223170   5.389   3.199   1.154
 7736TIP3   OH223171   7.060   3.881   3.013
 7736TIP3    H123172   7.150   3.906   3.036
 7736TIP3    H223173   7.009   3.959   3.030
 7737TIP3   OH223174   6.163   0.550   5.870
 7737TIP3    H123175   6.075   0.538   5.906
 7737TIP3    H223176   6.217   0.486   5.916
 7738TIP3   OH223177   5.679   3.052   1.561
 7738TIP3    H123178   5.672   3.119   1.629
 7738TIP3    H223179   5.734   2.984   1.601
 7739TIP3   OH223180   1.047   5.064   4.414
 7739TIP3    H123181   1.043   4.981   4.461
 7739TIP3    H223182   1.046   5.131   4.483
 7740TIP3   OH223183   6.825   4.702   2.893
 7740TIP3    H123184   6.818   4.712   2.798
 7740TIP3    H223185   6.915   4.672   2.908
 7741TIP3   OH223186   3.795   5.675   2.129
 7741TIP3    H123187   3.768   5.755   2.174
 7741TIP3    H223188   3.766   5.604   2.187
 7742TIP3   OH223189   1.518   2.761   4.631
 7742TIP3    H123190   1.452   2.695   4.656
 7742TIP3    H223191   1.473   2.818   4.569
 7743TIP3   OH223192   4.217   4.106   2.901
 7743TIP3    H123193   4.172   4.190   2.913
 7743TIP3    H223194   4.170   4.045   2.957
 7744TIP3   OH223195   0.434   4.150   2.594
 7744TIP3    H123196   0.400   4.208   2.526
 7744TIP3    H223197   0.483   4.207   2.653
 7745TIP3   OH223198   4.683   0.713   4.573
 7745TIP3    H123199   4.648   0.626   4.593
 7745TIP3    H223200   4.704   0.710   4.480
 7746TIP3   OH223201   4.350   0.053   5.055
 7746TIP3    H123202   4.440   0.021   5.048
 7746TIP3    H223203   4.344   0.090   5.143
 7747TIP3   OH223204   5.363   1.791   3.065
 7747TIP3    H123205   5.399   1.705   3.087
 7747TIP3    H223206   5.293   1.805   3.129
 7748TIP3   OH223207   1.629   4.602   1.640
 7748TIP3    H123208   1.702   4.546   1.666
 7748TIP3    H223209   1.667   4.690   1.636
 7749TIP3   OH223210   5.925   0.928   2.877
 7749TIP3    H123211   5.921   0.960   2.787
 7749TIP3    H223212   6.004   0.874   2.880
 7750TIP3   OH223213   3.543   3.744   2.063
 7750TIP3    H123214   3.481   3.748   2.137
 7750TIP3    H223215   3.488   3.751   1.985
 7751TIP3   OH223216   4.076   5.801   4.549
 7751TIP3    H123217   4.066   5.868   4.617
 7751TIP3    H223218   4.018   5.830   4.478
 7752TIP3   OH223219   3.366   4.282   4.559
 7752TIP3    H123220   3.352   4.202   4.610
 7752TIP3    H223221   3.449   4.318   4.593
 7753TIP3   OH223222   4.157   4.542   1.608
 7753TIP3    H123223   4.210   4.581   1.678
 7753TIP3    H223224   4.178   4.594   1.530
 7754TIP3   OH223225   5.564   3.624   2.456
 7754TIP3    H123226   5.476   3.637   2.491
 7754TIP3    H223227   5.564   3.674   2.374
 7755TIP3   OH223228   3.876   0.631   0.775
 7755TIP3    H123229   3.910   0.640   0.686
 7755TIP3    H223230   3.782   0.648   0.767
 7756TIP3   OH223231   2.339   4.785   2.746
 7756TIP3    H123232   2.337   4.698   2.785
 7756TIP3    H223233   2.365   4.843   2.818
 7757TIP3   OH223234   0.657   0.195   5.678
 7757TIP3    H123235   0.704   0.202   5.595
 7757TIP3    H223236   0.717   0.150   5.736
 7758TIP3   OH223237   5.621   6.402   3.190
 7758TIP3    H123238   5.637   6.402   3.284
 7758TIP3    H223239   5.559   6.473   3.176
 7759TIP3   OH223240  -0.033   1.000   3.176
 7759TIP3    H123241  -0.001   0.951   3.252
 7759TIP3    H223242   0.046   1.028   3.130
 7760TIP3   OH223243   6.211   2.728   2.326
 7760TIP3    H123244   6.187   2.642   2.359
 7760TIP3    H223245   6.132   2.760   2.281
 7761TIP3   OH223246   2.690   2.494   4.714
 7761TIP3    H123247   2.723   2.409   4.684
 7761TIP3    H223248   2.678   2.544   4.634
 7762TIP3   OH223249   4.017   0.406   4.876
 7762TIP3    H123250   4.102   0.409   4.833
 7762TIP3    H223251   3.988   0.497   4.878
 7763TIP3   OH223252   4.721   6.761   3.206
 7763TIP3    H123253   4.664   6.810   3.266
 7763TIP3    H223254   4.810   6.785   3.232
 7764TIP3   OH223255   5.427   0.861   2.244
 7764TIP3    H123256   5.353   0.801   2.253
 7764TIP3    H223257   5.386   0.946   2.229
 7765TIP3   OH223258   2.780   2.213   0.689
 7765TIP3    H123259   2.810   2.303   0.675
 7765TIP3    H223260   2.785   2.200   0.784
 7766TIP3   OH223261   5.415   0.420   4.669
 7766TIP3    H123262   5.436   0.508   4.638
 7766TIP3    H223263   5.456   0.414   4.755
 7767TIP3   OH223264   5.482   2.567   5.380
 7767TIP3    H123265   5.460   2.560   5.288
 7767TIP3    H223266   5.398   2.568   5.425
 7768TIP3   OH223267   5.801   6.382   0.308
 7768TIP3    H123268   5.866   6.317   0.335
 7768TIP3    H223269   5.852   6.461   0.294
 7769TIP3   OH223270   3.988   5.230   0.673
 7769TIP3    H123271   4.079   5.217   0.645
 7769TIP3    H223272   3.992   5.298   0.740
 7770TIP3   OH223273   0.793   4.466   3.580
 7770TIP3    H123274   0.808   4.531   3.648
 7770TIP3    H223275   0.730   4.507   3.520
 7771TIP3   OH223276   1.845   5.902   2.255
 7771TIP3    H123277   1.888   5.977   2.213
 7771TIP3    H223278   1.831   5.839   2.184
 7772TIP3   OH223279   4.763   4.934   4.549
 7772TIP3    H123280   4.836   4.901   4.496
 7772TIP3    H223281   4.802   4.956   4.633
 7773TIP3   OH223282   0.037   3.590   2.384
 7773TIP3    H123283   0.068   3.625   2.468
 7773TIP3    H223284   0.116   3.572   2.334
 7774TIP3   OH223285   1.557   1.132   5.767
 7774TIP3    H123286   1.533   1.153   5.858
 7774TIP3    H223287   1.475   1.134   5.720
 7775TIP3   OH223288   1.700   6.608   3.802
 7775TIP3    H123289   1.769   6.560   3.755
 7775TIP3    H223290   1.696   6.565   3.888
 7776TIP3   OH223291   2.620   0.537   2.757
 7776TIP3    H123292   2.599   0.462   2.701
 7776TIP3    H223293   2.671   0.500   2.829
 7777TIP3   OH223294   0.522   6.044   3.380
 7777TIP3    H123295   0.506   5.952   3.361
 7777TIP3    H223296   0.502   6.053   3.474
 7778TIP3   OH223297   3.035   5.680   5.907
 7778TIP3    H123298   3.023   5.602   5.853
 7778TIP3    H223299   3.130   5.695   5.905
 7779TIP3   OH223300   5.270   0.710   3.903
 7779TIP3    H123301   5.359   0.740   3.886
 7779TIP3    H223302   5.280   0.639   3.967
 7780TIP3   OH223303   1.207   1.322   2.001
 7780TIP3    H123304   1.150   1.347   2.074
 7780TIP3    H223305   1.198   1.393   1.938
 7781TIP3   OH223306   1.353   1.102   2.562
 7781TIP3    H123307   1.320   1.013   2.546
 7781TIP3    H223308   1.406   1.093   2.641
 7782TIP3   OH223309   0.642   5.391   3.508
 7782TIP3    H123310   0.669   5.313   3.460
 7782TIP3    H223311   0.713   5.454   3.495
 7783TIP3   OH223312   3.550   3.109   2.967
 7783TIP3    H123313   3.613   3.149   3.026
 7783TIP3    H223314   3.532   3.023   3.005
 7784TIP3   OH223315   5.691   5.718   3.669
 7784TIP3    H123316   5.708   5.625   3.684
 7784TIP3    H223317   5.653   5.722   3.581
 7785TIP3   OH223318   6.553   0.345   4.817
 7785TIP3    H123319   6.469   0.301   4.809
 7785TIP3    H223320   6.549   0.418   4.755
 7786TIP3   OH223321   6.503   0.159   5.498
 7786TIP3    H123322   6.542   0.212   5.429
 7786TIP3    H223323   6.463   0.223   5.558
 7787TIP3   OH223324   1.441   4.714   2.163
 7787TIP3    H123325   1.411   4.692   2.075
 7787TIP3    H223326   1.371   4.767   2.200
 7788TIP3   OH223327   6.576   6.605   3.442
 7788TIP3    H123328   6.526   6.640   3.368
 7788TIP3    H223329   6.585   6.679   3.502
 7789TIP3   OH223330   5.696   4.581   1.650
 7789TIP3    H123331   5.636   4.535   1.710
 7789TIP3    H223332   5.752   4.512   1.615
 7790TIP3   OH223333   5.661   1.909   4.020
 7790TIP3    H123334   5.721   1.984   4.024
 7790TIP3    H223335   5.589   1.933   4.078
 7791TIP3   OH223336   1.514   0.139   5.153
 7791TIP3    H123337   1.504   0.151   5.059
 7791TIP3    H223338   1.446   0.194   5.192
 7792TIP3   OH223339   6.517   4.079   0.492
 7792TIP3    H123340   6.473   4.048   0.571
 7792TIP3    H223341   6.603   4.107   0.522
 7793TIP3   OH223342   4.887   0.138   2.419
 7793TIP3    H123343   4.820   0.200   2.389
 7793TIP3    H223344   4.899   0.161   2.511
 7794TIP3   OH223345   1.278   3.903   0.804
 7794TIP3    H123346   1.261   3.809   0.801
 7794TIP3    H223347   1.227   3.939   0.731
 7795TIP3   OH223348   1.086   1.217   5.495
 7795TIP3    H123349   1.147   1.282   5.530
 7795TIP3    H223350   1.052   1.257   5.415
 7796TIP3   OH223351   1.250   0.087   2.197
 7796TIP3    H123352   1.236   0.078   2.291
 7796TIP3    H223353   1.329   0.140   2.190
 7797TIP3   OH223354   4.541   6.665   3.603
 7797TIP3    H123355   4.503   6.726   3.665
 7797TIP3    H223356   4.477   6.658   3.533
 7798TIP3   OH223357   7.084   2.679   0.400
 7798TIP3    H123358   6.997   2.645   0.420
 7798TIP3    H223359   7.132   2.671   0.482
 7799TIP3   OH223360   0.974   4.640   5.358
 7799TIP3    H123361   0.930   4.560   5.384
 7799TIP3    H223362   1.043   4.612   5.298
 7800TIP3   OH223363   5.634   6.776   2.389
 7800TIP3    H123364   5.564   6.717   2.416
 7800TIP3    H223365   5.641   6.839   2.461
 7801TIP3   OH223366   6.526   2.132   4.909
 7801TIP3    H123367   6.480   2.092   4.983
 7801TIP3    H223368   6.505   2.076   4.835
 7802TIP3   OH223369   1.547   4.835   2.790
 7802TIP3    H123370   1.584   4.747   2.794
 7802TIP3    H223371   1.624   4.892   2.785
 7803TIP3   OH223372   6.622   1.038   1.688
 7803TIP3    H123373   6.558   0.972   1.716
 7803TIP3    H223374   6.695   0.987   1.653
 7804TIP3   OH223375   6.224   4.651   0.628
 7804TIP3    H123376   6.147   4.673   0.575
 7804TIP3    H223377   6.281   4.602   0.569
 7805TIP3   OH223378   4.298   4.001   3.856
 7805TIP3    H123379   4.306   4.052   3.776
 7805TIP3    H223380   4.374   3.943   3.856
 7806TIP3   OH223381   3.030   5.814   3.162
 7806TIP3    H123382   2.997   5.767   3.085
 7806TIP3    H223383   3.071   5.745   3.216
 7807TIP3   OH223384   0.550   0.999   2.603
 7807TIP3    H123385   0.517   0.909   2.602
 7807TIP3    H223386   0.525   1.033   2.689
 7808TIP3   OH223387   6.346   5.259   0.014
 7808TIP3    H123388   6.296   5.336   0.041
 7808TIP3    H223389   6.285   5.208  -0.040
 7809TIP3   OH223390   1.693   3.797   4.127
 7809TIP3    H123391   1.688   3.862   4.058
 7809TIP3    H223392   1.775   3.750   4.110
 7810TIP3   OH223393  -0.036   4.279   5.220
 7810TIP3    H123394  -0.030   4.355   5.277
 7810TIP3    H223395   0.038   4.289   5.159
 7811TIP3   OH223396   1.918   5.969   3.433
 7811TIP3    H123397   1.840   6.013   3.468
 7811TIP3    H223398   1.905   5.969   3.338
 7812TIP3   OH223399   4.938   2.556   5.567
 7812TIP3    H123400   4.888   2.535   5.646
 7812TIP3    H223401   4.873   2.593   5.507
 7813TIP3   OH223402   3.665   2.182   4.229
 7813TIP3    H123403   3.744   2.202   4.278
 7813TIP3    H223404   3.696   2.160   4.141
 7814TIP3   OH223405   6.150   2.485   5.316
 7814TIP3    H123406   6.151   2.400   5.360
 7814TIP3    H223407   6.238   2.494   5.281
 7815TIP3   OH223408   2.937   3.313   5.625
 7815TIP3    H123409   2.901   3.400   5.645
 7815TIP3    H223410   2.917   3.261   5.703
 7816TIP3   OH223411   6.568   3.890   5.803
 7816TIP3    H123412   6.513   3.837   5.746
 7816TIP3    H223413   6.596   3.963   5.748
 7817TIP3   OH223414   3.544   5.720   2.831
 7817TIP3    H123415   3.489   5.782   2.784
 7817TIP3    H223416   3.482   5.666   2.880
 7818TIP3   OH223417   0.291   5.019   1.460
 7818TIP3    H123418   0.345   5.050   1.387
 7818TIP3    H223419   0.354   4.986   1.524
 7819TIP3   OH223420   1.328   4.181   0.842
 7819TIP3    H123421   1.360   4.092   0.829
 7819TIP3    H223422   1.253   4.188   0.783
 7820TIP3   OH223423   4.386   4.169   4.794
 7820TIP3    H123424   4.467   4.141   4.837
 7820TIP3    H223425   4.340   4.087   4.775
 7821TIP3   OH223426   6.696   1.211   3.126
 7821TIP3    H123427   6.683   1.215   3.221
 7821TIP3    H223428   6.733   1.124   3.111
 7822TIP3   OH223429   1.280   3.465   4.987
 7822TIP3    H123430   1.231   3.547   4.979
 7822TIP3    H223431   1.371   3.490   4.972
 7823TIP3   OH223432   4.855   3.255   0.242
 7823TIP3    H123433   4.786   3.303   0.288
 7823TIP3    H223434   4.894   3.199   0.308
 7824TIP3   OH223435   5.540   5.886   5.625
 7824TIP3    H123436   5.550   5.845   5.540
 7824TIP3    H223437   5.623   5.932   5.640
 7825TIP3   OH223438   6.486   1.567   5.292
 7825TIP3    H123439   6.485   1.647   5.240
 7825TIP3    H223440   6.399   1.529   5.280
 7826TIP3   OH223441   6.962   6.838   5.164
 7826TIP3    H123442   6.944   6.774   5.095
 7826TIP3    H223443   7.002   6.787   5.234
 7827TIP3   OH223444   0.653   3.370   0.560
 7827TIP3    H123445   0.637   3.329   0.475
 7827TIP3    H223446   0.747   3.357   0.575
 7828TIP3   OH223447   0.547   4.436   2.499
 7828TIP3    H123448   0.600   4.449   2.420
 7828TIP3    H223449   0.611   4.422   2.569
 7829TIP3   OH223450   0.785   0.442   2.531
 7829TIP3    H123451   0.845   0.507   2.495
 7829TIP3    H223452   0.744   0.401   2.455
 7830TIP3   OH223453   1.965   3.954   1.023
 7830TIP3    H123454   1.926   3.866   1.018
 7830TIP3    H223455   1.908   4.002   1.083
 7831TIP3   OH223456   6.475   6.232   0.883
 7831TIP3    H123457   6.501   6.304   0.825
 7831TIP3    H223458   6.556   6.184   0.898
 7832TIP3   OH223459   7.009   6.464   5.115
 7832TIP3    H123460   6.983   6.412   5.040
 7832TIP3    H223461   6.937   6.454   5.177
 7833TIP3   OH223462   1.167   0.802   3.393
 7833TIP3    H123463   1.168   0.851   3.311
 7833TIP3    H223464   1.159   0.710   3.366
 7834TIP3   OH223465   1.156   1.504   3.249
 7834TIP3    H123466   1.130   1.585   3.205
 7834TIP3    H223467   1.251   1.501   3.237
 7835TIP3   OH223468   3.907   3.017   5.866
 7835TIP3    H123469   3.890   3.086   5.930
 7835TIP3    H223470   3.885   3.056   5.781
 7836TIP3   OH223471   4.221   3.644   0.170
 7836TIP3    H123472   4.168   3.724   0.171
 7836TIP3    H223473   4.310   3.674   0.156
 7837TIP3   OH223474   4.222   3.471   1.625
 7837TIP3    H123475   4.275   3.544   1.592
 7837TIP3    H223476   4.156   3.512   1.679
 7838TIP3   OH223477   6.746   0.293   3.984
 7838TIP3    H123478   6.717   0.212   4.026
 7838TIP3    H223479   6.802   0.336   4.049
 7839TIP3   OH223480   3.702   5.169   4.934
 7839TIP3    H123481   3.712   5.090   4.881
 7839TIP3    H223482   3.610   5.192   4.926
 7840TIP3   OH223483   5.656   2.556   1.121
 7840TIP3    H123484   5.697   2.531   1.204
 7840TIP3    H223485   5.675   2.649   1.112
 7841TIP3   OH223486   3.221   0.205   4.830
 7841TIP3    H123487   3.197   0.195   4.738
 7841TIP3    H223488   3.202   0.119   4.868
 7842TIP3   OH223489   7.143   5.046   5.704
 7842TIP3    H123490   7.189   4.963   5.694
 7842TIP3    H223491   7.192   5.092   5.773
 7843TIP3   OH223492   0.611   5.718   4.984
 7843TIP3    H123493   0.637   5.795   5.035
 7843TIP3    H223494   0.525   5.694   5.018
 7844TIP3   OH223495   3.799   3.021   4.618
 7844TIP3    H123496   3.840   2.956   4.674
 7844TIP3    H223497   3.861   3.034   4.546
 7845TIP3   OH223498   4.407   3.700   2.451
 7845TIP3    H123499   4.359   3.650   2.517
 7845TIP3    H223500   4.392   3.792   2.475
 7846TIP3   OH223501   2.092   4.412   2.604
 7846TIP3    H123502   2.086   4.367   2.519
 7846TIP3    H223503   2.127   4.499   2.582
 7847TIP3   OH223504   3.129   1.798   5.619
 7847TIP3    H123505   3.094   1.886   5.601
 7847TIP3    H223506   3.220   1.804   5.592
 7848TIP3   OH223507   7.126   6.601   0.106
 7848TIP3    H123508   7.078   6.544   0.047
 7848TIP3    H223509   7.208   6.619   0.061
 7849TIP3   OH223510   4.454   4.889   0.413
 7849TIP3    H123511   4.398   4.965   0.431
 7849TIP3    H223512   4.522   4.893   0.480
 7850TIP3   OH223513   3.985   3.857   0.289
 7850TIP3    H123514   3.895   3.873   0.315
 7850TIP3    H223515   4.018   3.795   0.355
 7851TIP3   OH223516   5.171   5.315   0.867
 7851TIP3    H123517   5.127   5.398   0.849
 7851TIP3    H223518   5.133   5.284   0.949
 7852TIP3   OH223519   3.234   1.282   3.236
 7852TIP3    H123520   3.326   1.257   3.226
 7852TIP3    H223521   3.221   1.289   3.331
 7853TIP3   OH223522   6.369   4.180   1.828
 7853TIP3    H123523   6.403   4.267   1.853
 7853TIP3    H223524   6.414   4.160   1.745
 7854TIP3   OH223525   1.057   2.192   2.610
 7854TIP3    H123526   1.000   2.169   2.536
 7854TIP3    H223527   0.999   2.195   2.685
 7855TIP3   OH223528   6.153   5.630   3.348
 7855TIP3    H123529   6.223   5.572   3.319
 7855TIP3    H223530   6.168   5.712   3.300
 7856TIP3   OH223531   6.976   1.679   5.064
 7856TIP3    H123532   6.896   1.712   5.025
 7856TIP3    H223533   6.975   1.585   5.046
 7857TIP3   OH223534   0.776   5.978   3.833
 7857TIP3    H123535   0.868   5.957   3.848
 7857TIP3    H223536   0.727   5.913   3.884
 7858TIP3   OH223537   0.549   4.497   0.786
 7858TIP3    H123538   0.551   4.402   0.776
 7858TIP3    H223539   0.630   4.519   0.832
 7859TIP3   OH223540   4.043   3.636   5.251
 7859TIP3    H123541   3.961   3.680   5.270
 7859TIP3    H223542   4.017   3.556   5.205
 7860TIP3   OH223543   3.817   6.683   4.068
 7860TIP3    H123544   3.847   6.728   4.147
 7860TIP3    H223545   3.847   6.739   3.996
 7861TIP3   OH223546  -0.038   2.088   2.687
 7861TIP3    H123547   0.032   2.134   2.642
 7861TIP3    H223548  -0.118   2.115   2.641
 7862TIP3   OH223549   7.249   2.211   3.358
 7862TIP3    H123550   7.264   2.293   3.403
 7862TIP3    H223551   7.173   2.173   3.402
 7863TIP3   OH223552   2.454   6.035   2.476
 7863TIP3    H123553   2.425   5.961   2.423
 7863TIP3    H223554   2.399   6.108   2.448
 7864TIP3   OH223555   6.049   2.498   3.855
 7864TIP3    H123556   6.121   2.517   3.915
 7864TIP3    H223557   5.971   2.499   3.911
 7865TIP3   OH223558   6.094   4.052   4.885
 7865TIP3    H123559   6.172   4.055   4.830
 7865TIP3    H223560   6.096   3.965   4.925
 7866TIP3   OH223561   5.610   1.493   5.481
 7866TIP3    H123562   5.626   1.458   5.568
 7866TIP3    H223563   5.643   1.427   5.421
 7867TIP3   OH223564   3.943   1.672   3.214
 7867TIP3    H123565   3.996   1.719   3.150
 7867TIP3    H223566   3.921   1.738   3.280
 7868TIP3   OH223567   3.775   1.098   3.902
 7868TIP3    H123568   3.754   1.018   3.854
 7868TIP3    H223569   3.721   1.095   3.981
 7869TIP3   OH223570   2.304   0.374   4.315
 7869TIP3    H123571   2.347   0.440   4.370
 7869TIP3    H223572   2.302   0.412   4.228
 7870TIP3   OH223573   1.448   6.758   1.390
 7870TIP3    H123574   1.528   6.718   1.425
 7870TIP3    H223575   1.377   6.713   1.435
 7871TIP3   OH223576   1.438   1.186   4.137
 7871TIP3    H123577   1.474   1.107   4.097
 7871TIP3    H223578   1.366   1.155   4.192
 7872TIP3   OH223579   5.387   1.993   4.789
 7872TIP3    H123580   5.475   1.981   4.754
 7872TIP3    H223581   5.347   1.906   4.786
 7873TIP3   OH223582   5.675   3.692   0.098
 7873TIP3    H123583   5.747   3.671   0.158
 7873TIP3    H223584   5.615   3.745   0.151
 7874TIP3   OH223585   1.093   0.654   2.414
 7874TIP3    H123586   1.068   0.595   2.486
 7874TIP3    H223587   1.130   0.596   2.348
 7875TIP3   OH223588   0.032   4.445   3.939
 7875TIP3    H123589  -0.042   4.457   3.879
 7875TIP3    H223590   0.078   4.529   3.939
 7876TIP3   OH223591   4.158   4.278   1.550
 7876TIP3    H123592   4.180   4.371   1.555
 7876TIP3    H223593   4.103   4.263   1.627
 7877TIP3   OH223594   4.507   2.810   5.760
 7877TIP3    H123595   4.459   2.744   5.710
 7877TIP3    H223596   4.534   2.766   5.840
 7878TIP3   OH223597   5.342   0.963   4.822
 7878TIP3    H123598   5.409   0.987   4.757
 7878TIP3    H223599   5.272   0.925   4.770
 7879TIP3   OH223600   4.421   1.389   3.321
 7879TIP3    H123601   4.440   1.482   3.310
 7879TIP3    H223602   4.363   1.367   3.248
 7880TIP3   OH223603   2.082   3.003   4.290
 7880TIP3    H123604   1.995   3.042   4.287
 7880TIP3    H223605   2.134   3.061   4.345
 7881TIP3   OH223606   5.713   6.441   3.690
 7881TIP3    H123607   5.639   6.414   3.745
 7881TIP3    H223608   5.789   6.400   3.731
 7882TIP3   OH223609   6.567   0.980   5.418
 7882TIP3    H123610   6.524   0.900   5.387
 7882TIP3    H223611   6.498   1.026   5.467
 7883TIP3   OH223612   1.029   1.367   3.559
 7883TIP3    H123613   1.098   1.314   3.519
 7883TIP3    H223614   0.952   1.311   3.559
 7884TIP3   OH223615   1.375   1.997   2.406
 7884TIP3    H123616   1.369   1.945   2.486
 7884TIP3    H223617   1.408   1.937   2.340
 7885TIP3   OH223618   3.929   6.199   1.695
 7885TIP3    H123619   3.867   6.134   1.664
 7885TIP3    H223620   3.985   6.152   1.756
 7886TIP3   OH223621   1.882   4.017   1.988
 7886TIP3    H123622   1.894   4.091   2.047
 7886TIP3    H223623   1.917   3.942   2.036
 7887TIP3   OH223624   5.415   0.052   2.555
 7887TIP3    H123625   5.441   0.092   2.638
 7887TIP3    H223626   5.398   0.126   2.497
 7888TIP3   OH223627   2.270   4.276   4.634
 7888TIP3    H123628   2.310   4.264   4.720
 7888TIP3    H223629   2.333   4.329   4.585
 7889TIP3   OH223630   6.610   3.272   5.892
 7889TIP3    H123631   6.705   3.265   5.884
 7889TIP3    H223632   6.576   3.235   5.810
 7890TIP3   OH223633   5.450   1.154   5.028
 7890TIP3    H123634   5.416   1.094   4.961
 7890TIP3    H223635   5.508   1.212   4.980
 7891TIP3   OH223636   3.453   5.489   3.581
 7891TIP3    H123637   3.430   5.518   3.670
 7891TIP3    H223638   3.398   5.543   3.524
 7892TIP3   OH223639   5.299   2.100   5.020
 7892TIP3    H123640   5.281   2.026   5.079
 7892TIP3    H223641   5.348   2.061   4.947
 7893TIP3   OH223642   2.561   3.917   2.223
 7893TIP3    H123643   2.556   3.825   2.248
 7893TIP3    H223644   2.603   3.917   2.137
 7894TIP3   OH223645   4.772   3.487   1.907
 7894TIP3    H123646   4.787   3.571   1.950
 7894TIP3    H223647   4.677   3.476   1.909
 7895TIP3   OH223648   4.051   3.945   2.507
 7895TIP3    H123649   4.029   3.862   2.549
 7895TIP3    H223650   3.970   3.996   2.510
 7896TIP3   OH223651   6.560   6.126   2.783
 7896TIP3    H123652   6.567   6.209   2.831
 7896TIP3    H223653   6.563   6.153   2.691
 7897TIP3   OH223654   0.275   3.746   4.444
 7897TIP3    H123655   0.181   3.736   4.458
 7897TIP3    H223656   0.290   3.840   4.451
 7898TIP3   OH223657   4.154   4.876   1.892
 7898TIP3    H123658   4.158   4.884   1.988
 7898TIP3    H223659   4.141   4.966   1.862
 7899TIP3   OH223660   2.280   1.487   4.480
 7899TIP3    H123661   2.265   1.562   4.423
 7899TIP3    H223662   2.335   1.521   4.551
 7900TIP3   OH223663   3.122   0.756   4.846
 7900TIP3    H123664   3.104   0.662   4.850
 7900TIP3    H223665   3.186   0.771   4.916
 7901TIP3   OH223666   6.141   2.715   1.125
 7901TIP3    H123667   6.171   2.735   1.214
 7901TIP3    H223668   6.142   2.619   1.121
 7902TIP3   OH223669   2.725   6.016   5.091
 7902TIP3    H123670   2.814   6.050   5.080
 7902TIP3    H223671   2.731   5.957   5.166
 7903TIP3   OH223672   1.526   3.145   0.503
 7903TIP3    H123673   1.554   3.060   0.468
 7903TIP3    H223674   1.522   3.202   0.426
 7904TIP3   OH223675   5.789   3.134   4.481
 7904TIP3    H123676   5.727   3.151   4.410
 7904TIP3    H223677   5.871   3.113   4.436
 7905TIP3   OH223678   5.060   4.966   3.532
 7905TIP3    H123679   5.097   4.928   3.452
 7905TIP3    H223680   5.117   5.040   3.552
 7906TIP3   OH223681   6.271   6.826   1.183
 7906TIP3    H123682   6.274   6.784   1.270
 7906TIP3    H223683   6.289   6.755   1.122
 7907TIP3   OH223684   6.226   3.029   2.176
 7907TIP3    H123685   6.246   2.983   2.257
 7907TIP3    H223686   6.161   2.974   2.132
 7908TIP3   OH223687   3.463   3.848   2.986
 7908TIP3    H123688   3.518   3.885   3.055
 7908TIP3    H223689   3.507   3.766   2.963
 7909TIP3   OH223690   3.986   6.025   2.812
 7909TIP3    H123691   3.917   5.964   2.836
 7909TIP3    H223692   4.062   5.969   2.795
 7910TIP3   OH223693   6.053   1.589   3.302
 7910TIP3    H123694   6.080   1.601   3.393
 7910TIP3    H223695   5.977   1.646   3.291
 7911TIP3   OH223696   6.165   3.181   5.356
 7911TIP3    H123697   6.116   3.223   5.285
 7911TIP3    H223698   6.233   3.244   5.379
 7912TIP3   OH223699   2.942   2.878   0.090
 7912TIP3    H123700   2.979   2.846   0.007
 7912TIP3    H223701   2.850   2.893   0.070
 7913TIP3   OH223702   5.451   1.808   5.424
 7913TIP3    H123703   5.406   1.729   5.394
 7913TIP3    H223704   5.411   1.828   5.508
 7914TIP3   OH223705   2.723   3.391   3.794
 7914TIP3    H123706   2.628   3.385   3.803
 7914TIP3    H223707   2.752   3.434   3.874
 7915TIP3   OH223708   6.486   5.416   3.769
 7915TIP3    H123709   6.561   5.378   3.723
 7915TIP3    H223710   6.458   5.488   3.713
 7916TIP3   OH223711   3.398   1.133   5.467
 7916TIP3    H123712   3.325   1.071   5.468
 7916TIP3    H223713   3.357   1.219   5.480
 7917TIP3   OH223714   1.196   4.840   1.255
 7917TIP3    H123715   1.198   4.755   1.298
 7917TIP3    H223716   1.122   4.835   1.195
 7918TIP3   OH223717   1.853   3.702   1.056
 7918TIP3    H123718   1.894   3.626   1.098
 7918TIP3    H223719   1.794   3.664   0.991
 7919TIP3   OH223720   4.236   2.698   2.646
 7919TIP3    H123721   4.158   2.750   2.631
 7919TIP3    H223722   4.281   2.741   2.719
 7920TIP3   OH223723   1.022   5.287   5.523
 7920TIP3    H123724   1.074   5.320   5.596
 7920TIP3    H223725   1.037   5.349   5.452
 7921TIP3   OH223726   5.610   6.351   0.123
 7921TIP3    H123727   5.675   6.335   0.192
 7921TIP3    H223728   5.529   6.371   0.170
 7922TIP3   OH223729   4.922   3.408   1.169
 7922TIP3    H123730   4.927   3.417   1.074
 7922TIP3    H223731   4.917   3.313   1.184
 7923TIP3   OH223732   1.565   0.776   1.193
 7923TIP3    H123733   1.641   0.779   1.134
 7923TIP3    H223734   1.493   0.810   1.141
 7924TIP3   OH223735   0.222   4.409   3.170
 7924TIP3    H123736   0.313   4.412   3.140
 7924TIP3    H223737   0.226   4.362   3.254
 7925TIP3   OH223738   2.247   0.654   3.224
 7925TIP3    H123739   2.298   0.595   3.168
 7925TIP3    H223740   2.157   0.647   3.190
 7926TIP3   OH223741   1.884   3.697   0.585
 7926TIP3    H123742   1.970   3.738   0.596
 7926TIP3    H223743   1.887   3.620   0.643
 7927TIP3   OH223744   5.578   0.386   1.229
 7927TIP3    H123745   5.593   0.439   1.308
 7927TIP3    H223746   5.528   0.444   1.172
 7928TIP3   OH223747   0.834   3.981   0.233
 7928TIP3    H123748   0.827   3.957   0.141
 7928TIP3    H223749   0.927   4.000   0.246
 7929TIP3   OH223750   6.400   1.420   0.426
 7929TIP3    H123751   6.404   1.495   0.485
 7929TIP3    H223752   6.472   1.433   0.364
 7930TIP3   OH223753   3.556   3.368   4.430
 7930TIP3    H123754   3.503   3.420   4.370
 7930TIP3    H223755   3.642   3.365   4.389
 7931TIP3   OH223756   1.308   2.500   2.906
 7931TIP3    H123757   1.356   2.492   2.824
 7931TIP3    H223758   1.218   2.475   2.885
 7932TIP3   OH223759   4.937   3.158   2.845
 7932TIP3    H123760   4.875   3.196   2.909
 7932TIP3    H223761   4.959   3.232   2.788
 7933TIP3   OH223762   6.995   2.867   1.758
 7933TIP3    H123763   6.935   2.892   1.829
 7933TIP3    H223764   7.006   2.773   1.768
 7934TIP3   OH223765   4.228   5.939   5.029
 7934TIP3    H123766   4.142   5.918   5.064
 7934TIP3    H223767   4.250   5.865   4.973
 7935TIP3   OH223768   2.941   6.228   1.170
 7935TIP3    H123769   2.861   6.270   1.139
 7935TIP3    H223770   2.968   6.280   1.245
 7936TIP3   OH223771   2.895   1.408   5.233
 7936TIP3    H123772   2.978   1.437   5.194
 7936TIP3    H223773   2.920   1.377   5.320
 7937TIP3   OH223774   0.761   3.107   1.198
 7937TIP3    H123775   0.731   3.060   1.276
 7937TIP3    H223776   0.688   3.164   1.174
 7938TIP3   OH223777   6.914   5.775   2.605
 7938TIP3    H123778   6.964   5.741   2.532
 7938TIP3    H223779   6.913   5.704   2.669
 7939TIP3   OH223780   3.796   3.669   1.991
 7939TIP3    H123781   3.706   3.684   2.020
 7939TIP3    H223782   3.836   3.757   1.991
 7940TIP3   OH223783   4.124   3.426   1.176
 7940TIP3    H123784   4.186   3.365   1.216
 7940TIP3    H223785   4.157   3.439   1.087
 7941TIP3   OH223786   3.615   3.827   1.381
 7941TIP3    H123787   3.628   3.904   1.325
 7941TIP3    H223788   3.522   3.832   1.407
 7942TIP3   OH223789   4.878   4.483   1.032
 7942TIP3    H123790   4.866   4.562   1.085
 7942TIP3    H223791   4.973   4.474   1.024
 7943TIP3   OH223792   0.916   5.966   0.656
 7943TIP3    H123793   0.968   5.900   0.611
 7943TIP3    H223794   0.842   5.918   0.693
 7944TIP3   OH223795   2.271   6.189   0.667
 7944TIP3    H123796   2.366   6.188   0.672
 7944TIP3    H223797   2.246   6.270   0.712
 7945TIP3   OH223798   5.744   1.339   4.241
 7945TIP3    H123799   5.798   1.284   4.299
 7945TIP3    H223800   5.679   1.378   4.299
 7946TIP3   OH223801   4.382   4.907   1.286
 7946TIP3    H123802   4.422   4.907   1.200
 7946TIP3    H223803   4.305   4.963   1.276
 7947TIP3   OH223804   3.389   4.784   2.216
 7947TIP3    H123805   3.339   4.755   2.292
 7947TIP3    H223806   3.445   4.710   2.195
 7948TIP3   OH223807   0.545   4.978   5.354
 7948TIP3    H123808   0.631   4.935   5.350
 7948TIP3    H223809   0.561   5.057   5.406
 7949TIP3   OH223810   2.934   0.702   2.961
 7949TIP3    H123811   3.022   0.738   2.974
 7949TIP3    H223812   2.927   0.631   3.025
 7950TIP3   OH223813   5.505   2.861   2.720
 7950TIP3    H123814   5.549   2.910   2.650
 7950TIP3    H223815   5.430   2.916   2.744
 7951TIP3   OH223816   5.582   2.350   5.578
 7951TIP3    H123817   5.552   2.436   5.604
 7951TIP3    H223818   5.562   2.344   5.485
 7952TIP3   OH223819   0.631   6.247   3.948
 7952TIP3    H123820   0.559   6.190   3.973
 7952TIP3    H223821   0.699   6.188   3.915
 7953TIP3   OH223822   6.869   5.249   4.338
 7953TIP3    H123823   6.939   5.215   4.394
 7953TIP3    H223824   6.871   5.192   4.261
 7954TIP3   OH223825   1.717   0.749   4.055
 7954TIP3    H123826   1.758   0.754   4.142
 7954TIP3    H223827   1.782   0.704   4.000
 7955TIP3   OH223828   2.475   5.582   1.730
 7955TIP3    H123829   2.486   5.614   1.820
 7955TIP3    H223830   2.545   5.518   1.719
 7956TIP3   OH223831   6.629   3.116   2.726
 7956TIP3    H123832   6.558   3.117   2.661
 7956TIP3    H223833   6.588   3.147   2.807
 7957TIP3   OH223834   5.128   4.525   4.717
 7957TIP3    H123835   5.038   4.503   4.693
 7957TIP3    H223836   5.146   4.607   4.671
 7958TIP3   OH223837   5.709   4.497   1.306
 7958TIP3    H123838   5.636   4.458   1.257
 7958TIP3    H223839   5.725   4.436   1.377
 7959TIP3   OH223840   2.208   5.993   4.573
 7959TIP3    H123841   2.128   5.940   4.581
 7959TIP3    H223842   2.214   6.014   4.480
 7960TIP3   OH223843   5.467   3.215   0.439
 7960TIP3    H123844   5.525   3.246   0.369
 7960TIP3    H223845   5.454   3.122   0.420
 7961TIP3   OH223846   0.337   4.578   2.498
 7961TIP3    H123847   0.349   4.648   2.434
 7961TIP3    H223848   0.426   4.557   2.526
 7962TIP3   OH223849   6.282   1.727   0.126
 7962TIP3    H123850   6.332   1.670   0.068
 7962TIP3    H223851   6.199   1.681   0.140
 7963TIP3   OH223852   4.497   2.841   1.437
 7963TIP3    H123853   4.407   2.809   1.441
 7963TIP3    H223854   4.497   2.921   1.489
 7964TIP3   OH223855   0.705   1.883   0.758
 7964TIP3    H123856   0.783   1.868   0.811
 7964TIP3    H223857   0.715   1.973   0.726
 7965TIP3   OH223858   7.141   0.166   0.948
 7965TIP3    H123859   7.158   0.238   0.887
 7965TIP3    H223860   7.070   0.116   0.907
 7966TIP3   OH223861   2.772   6.418   5.427
 7966TIP3    H123862   2.787   6.331   5.389
 7966TIP3    H223863   2.805   6.478   5.360
 7967TIP3   OH223864   3.794   3.717   5.303
 7967TIP3    H123865   3.754   3.671   5.229
 7967TIP3    H223866   3.778   3.810   5.285
 7968TIP3   OH223867   3.796   2.280   0.622
 7968TIP3    H123868   3.861   2.226   0.578
 7968TIP3    H223869   3.797   2.363   0.573
 7969TIP3   OH223870   4.595   0.699   0.565
 7969TIP3    H123871   4.634   0.708   0.652
 7969TIP3    H223872   4.539   0.776   0.555
 7970TIP3   OH223873   1.526   0.351   5.368
 7970TIP3    H123874   1.448   0.378   5.320
 7970TIP3    H223875   1.565   0.434   5.398
 7971TIP3   OH223876   3.241   4.725   2.712
 7971TIP3    H123877   3.172   4.677   2.758
 7971TIP3    H223878   3.287   4.773   2.780
 7972TIP3   OH223879   3.818   0.310   4.278
 7972TIP3    H123880   3.878   0.265   4.218
 7972TIP3    H223881   3.731   0.285   4.248
 7973TIP3   OH223882   4.262   0.397   4.316
 7973TIP3    H123883   4.342   0.362   4.355
 7973TIP3    H223884   4.194   0.382   4.382
 7974TIP3   OH223885   2.000   3.413   1.986
 7974TIP3    H123886   2.018   3.422   1.893
 7974TIP3    H223887   1.906   3.431   1.994
 7975TIP3   OH223888   6.027   6.673   3.610
 7975TIP3    H123889   6.064   6.753   3.648
 7975TIP3    H223890   6.067   6.603   3.662
 7976TIP3   OH223891   4.585   4.004   5.171
 7976TIP3    H123892   4.493   4.030   5.174
 7976TIP3    H223893   4.604   3.973   5.259
 7977TIP3   OH223894   0.924   3.992   1.985
 7977TIP3    H123895   0.933   3.925   1.917
 7977TIP3    H223896   0.915   4.074   1.937
 7978TIP3   OH223897   0.213   3.063   3.608
 7978TIP3    H123898   0.278   2.994   3.617
 7978TIP3    H223899   0.149   3.046   3.676
 7979TIP3   OH223900   3.546   3.539   0.640
 7979TIP3    H123901   3.579   3.457   0.677
 7979TIP3    H223902   3.485   3.511   0.571
 7980TIP3   OH223903   3.388   2.416   0.569
 7980TIP3    H123904   3.331   2.489   0.545
 7980TIP3    H223905   3.473   2.437   0.530
 7981TIP3   OH223906   6.035   4.486   4.795
 7981TIP3    H123907   6.055   4.409   4.742
 7981TIP3    H223908   6.108   4.545   4.780
 7982TIP3   OH223909   4.342   6.457   1.223
 7982TIP3    H123910   4.408   6.427   1.161
 7982TIP3    H223911   4.390   6.472   1.304
 7983TIP3   OH223912   3.794   4.421   3.495
 7983TIP3    H123913   3.738   4.364   3.442
 7983TIP3    H223914   3.854   4.362   3.540
 7984TIP3   OH223915   2.336   3.969   5.747
 7984TIP3    H123916   2.289   4.042   5.707
 7984TIP3    H223917   2.381   4.008   5.822
 7985TIP3   OH223918   5.073   3.945   4.454
 7985TIP3    H123919   5.136   3.997   4.504
 7985TIP3    H223920   5.014   3.908   4.520
 7986TIP3   OH223921   0.540   0.187   2.505
 7986TIP3    H123922   0.470   0.237   2.461
 7986TIP3    H223923   0.523   0.200   2.598
 7987TIP3   OH223924   7.126   5.203   2.778
 7987TIP3    H123925   7.127   5.268   2.849
 7987TIP3    H223926   7.130   5.119   2.822
 7988TIP3   OH223927   3.665   5.853   2.296
 7988TIP3    H123928   3.716   5.806   2.361
 7988TIP3    H223929   3.581   5.807   2.294
 7989TIP3   OH223930   4.554   5.656   5.346
 7989TIP3    H123931   4.573   5.732   5.290
 7989TIP3    H223932   4.514   5.693   5.424
 7990TIP3   OH223933   1.509   1.043   3.759
 7990TIP3    H123934   1.572   1.033   3.687
 7990TIP3    H223935   1.471   1.130   3.746
 7991TIP3   OH223936   4.559   3.943   2.521
 7991TIP3    H123937   4.573   4.028   2.479
 7991TIP3    H223938   4.465   3.940   2.538
 7992TIP3   OH223939   5.267   5.678   3.013
 7992TIP3    H123940   5.321   5.745   3.055
 7992TIP3    H223941   5.214   5.642   3.085
 7993TIP3   OH223942   0.336   1.433   2.353
 7993TIP3    H123943   0.364   1.523   2.370
 7993TIP3    H223944   0.390   1.380   2.413
 7994TIP3   OH223945   3.686   6.468   4.110
 7994TIP3    H123946   3.731   6.544   4.073
 7994TIP3    H223947   3.631   6.436   4.039
 7995TIP3   OH223948   5.101   2.552   3.246
 7995TIP3    H123949   5.052   2.626   3.212
 7995TIP3    H223950   5.104   2.566   3.341
 7996TIP3   OH223951   4.807   1.404   2.923
 7996TIP3    H123952   4.793   1.458   3.001
 7996TIP3    H223953   4.775   1.317   2.948
 7997TIP3   OH223954   2.753   3.523   2.723
 7997TIP3    H123955   2.729   3.615   2.708
 7997TIP3    H223956   2.735   3.480   2.640
 7998TIP3   OH223957   3.241   1.159   4.055
 7998TIP3    H123958   3.146   1.162   4.042
 7998TIP3    H223959   3.274   1.110   3.981
 7999TIP3   OH223960   4.930   4.322   3.102
 7999TIP3    H123961   4.843   4.346   3.135
 7999TIP3    H223962   4.980   4.299   3.181
 8000TIP3   OH223963   7.241   4.391   0.681
 8000TIP3    H123964   7.174   4.326   0.661
 8000TIP3    H223965   7.192   4.468   0.710
 8001TIP3   OH223966   0.919   6.511   3.439
 8001TIP3    H123967   0.870   6.483   3.516
 8001TIP3    H223968   0.950   6.599   3.461
 8002TIP3   OH223969   4.680   5.605   2.435
 8002TIP3    H123970   4.601   5.552   2.438
 8002TIP3    H223971   4.748   5.545   2.403
 8003TIP3   OH223972   1.782   2.418   5.637
 8003TIP3    H123973   1.721   2.426   5.564
 8003TIP3    H223974   1.859   2.467   5.608
 8004TIP3   OH223975   6.083   4.575   3.009
 8004TIP3    H123976   6.011   4.607   2.955
 8004TIP3    H223977   6.119   4.501   2.959
 8005TIP3   OH223978   0.328   4.884   5.209
 8005TIP3    H123979   0.331   4.796   5.246
 8005TIP3    H223980   0.405   4.928   5.244
 8006TIP3   OH223981   0.310   4.383   4.283
 8006TIP3    H123982   0.289   4.330   4.360
 8006TIP3    H223983   0.251   4.350   4.215
 8007TIP3   OH223984   0.080   5.418   1.438
 8007TIP3    H123985   0.100   5.395   1.348
 8007TIP3    H223986   0.157   5.389   1.488
 8008TIP3   OH223987   6.192   2.141   5.682
 8008TIP3    H123988   6.129   2.181   5.622
 8008TIP3    H223989   6.254   2.096   5.624
 8009TIP3   OH223990   3.742   0.554   2.633
 8009TIP3    H123991   3.724   0.471   2.588
 8009TIP3    H223992   3.828   0.580   2.600
 8010TIP3   OH223993   6.292   6.330   3.351
 8010TIP3    H123994   6.279   6.335   3.256
 8010TIP3    H223995   6.210   6.291   3.384
 8011TIP3   OH223996   5.240   0.873   5.711
 8011TIP3    H123997   5.302   0.868   5.638
 8011TIP3    H223998   5.279   0.820   5.780
 8012TIP3   OH223999   0.630   1.719   2.163
 8012TIP3    H124000   0.710   1.691   2.208
 8012TIP3    H224001   0.641   1.813   2.151
 8013TIP3   OH224002   5.405   5.510   2.813
 8013TIP3    H124003   5.357   5.525   2.895
 8013TIP3    H224004   5.359   5.437   2.771
 8014TIP3   OH224005   2.474   4.439   2.397
 8014TIP3    H124006   2.558   4.480   2.416
 8014TIP3    H224007   2.454   4.464   2.306
 8015TIP3   OH224008   5.296   6.370   4.615
 8015TIP3    H124009   5.228   6.431   4.589
 8015TIP3    H224010   5.254   6.284   4.611
 8016TIP3   OH224011   1.160   4.412   2.963
 8016TIP3    H124012   1.114   4.484   3.006
 8016TIP3    H224013   1.236   4.395   3.020
 8017TIP3   OH224014   4.215   4.520   5.108
 8017TIP3    H124015   4.287   4.549   5.165
 8017TIP3    H224016   4.237   4.557   5.022
 8018TIP3   OH224017   0.568   3.688   5.731
 8018TIP3    H124018   0.567   3.762   5.791
 8018TIP3    H224019   0.486   3.642   5.747
 8019TIP3   OH224020   1.592   6.554   5.815
 8019TIP3    H124021   1.594   6.643   5.778
 8019TIP3    H224022   1.502   6.542   5.844
 8020TIP3   OH224023   4.349   1.305   0.462
 8020TIP3    H124024   4.417   1.301   0.395
 8020TIP3    H224025   4.300   1.385   0.441
 8021TIP3   OH224026   0.271   6.372   4.062
 8021TIP3    H124027   0.267   6.449   4.006
 8021TIP3    H224028   0.240   6.300   4.007
 8022TIP3   OH224029   0.334   1.175   5.333
 8022TIP3    H124030   0.328   1.093   5.284
 8022TIP3    H224031   0.245   1.211   5.331
 8023TIP3   OH224032   6.442   2.065   5.589
 8023TIP3    H124033   6.485   2.017   5.660
 8023TIP3    H224034   6.477   2.154   5.596
 8024TIP3   OH224035   1.765   0.397   1.693
 8024TIP3    H124036   1.715   0.347   1.629
 8024TIP3    H224037   1.848   0.351   1.700
 8025TIP3   OH224038   0.082   5.471   1.168
 8025TIP3    H124039   0.056   5.471   1.076
 8025TIP3    H224040   0.166   5.517   1.169
 8026TIP3   OH224041   3.592   1.664   3.060
 8026TIP3    H124042   3.648   1.694   2.988
 8026TIP3    H224043   3.583   1.740   3.117
 8027TIP3   OH224044   6.705   2.113   3.844
 8027TIP3    H124045   6.705   2.066   3.761
 8027TIP3    H224046   6.629   2.080   3.891
 8028TIP3   OH224047   2.655   2.997   5.690
 8028TIP3    H124048   2.704   2.928   5.734
 8028TIP3    H224049   2.662   3.073   5.748
 8029TIP3   OH224050   3.863   1.145   0.320
 8029TIP3    H124051   3.813   1.226   0.303
 8029TIP3    H224052   3.953   1.169   0.300
 8030TIP3   OH224053   4.974   2.266   5.448
 8030TIP3    H124054   4.982   2.360   5.465
 8030TIP3    H224055   4.986   2.258   5.353
 8031TIP3   OH224056   5.384   2.665   4.499
 8031TIP3    H124057   5.310   2.720   4.473
 8031TIP3    H224058   5.433   2.720   4.560
 8032TIP3   OH224059   1.949   2.423   3.730
 8032TIP3    H124060   1.910   2.337   3.747
 8032TIP3    H224061   1.943   2.433   3.635
 8033TIP3   OH224062   0.644   2.818   1.814
 8033TIP3    H124063   0.721   2.861   1.852
 8033TIP3    H224064   0.582   2.813   1.887
 8034TIP3   OH224065   6.747   1.908   4.656
 8034TIP3    H124066   6.806   1.925   4.730
 8034TIP3    H224067   6.724   1.995   4.623
 8035TIP3   OH224068   2.575   6.200   0.681
 8035TIP3    H124069   2.555   6.136   0.749
 8035TIP3    H224070   2.656   6.168   0.641
 8036TIP3   OH224071   4.367   0.935   2.069
 8036TIP3    H124072   4.290   0.909   2.018
 8036TIP3    H224073   4.433   0.955   2.002
 8037TIP3   OH224074   2.938   5.673   4.093
 8037TIP3    H124075   2.864   5.647   4.039
 8037TIP3    H224076   2.922   5.765   4.113
 8038TIP3   OH224077   0.456   6.262   5.770
 8038TIP3    H124078   0.517   6.240   5.700
 8038TIP3    H224079   0.491   6.341   5.810
 8039TIP3   OH224080   0.400   0.675   1.859
 8039TIP3    H124081   0.449   0.601   1.823
 8039TIP3    H224082   0.324   0.636   1.902
 8040TIP3   OH224083   5.713   4.715   4.245
 8040TIP3    H124084   5.763   4.682   4.319
 8040TIP3    H224085   5.716   4.645   4.180
 8041TIP3   OH224086   3.433   6.703   4.673
 8041TIP3    H124087   3.377   6.765   4.719
 8041TIP3    H224088   3.513   6.752   4.655
 8042TIP3   OH224089   3.390   4.678   2.985
 8042TIP3    H124090   3.307   4.636   3.004
 8042TIP3    H224091   3.419   4.714   3.069
 8043TIP3   OH224092   6.419   4.320   3.175
 8043TIP3    H124093   6.488   4.386   3.167
 8043TIP3    H224094   6.407   4.287   3.085
 8044TIP3   OH224095   1.727   1.052   4.226
 8044TIP3    H124096   1.812   1.048   4.268
 8044TIP3    H224097   1.724   0.974   4.170
 8045TIP3   OH224098   2.259   5.304   4.907
 8045TIP3    H124099   2.190   5.331   4.968
 8045TIP3    H224100   2.334   5.360   4.928
 8046TIP3   OH224101   3.906   2.228   4.373
 8046TIP3    H124102   3.992   2.190   4.354
 8046TIP3    H224103   3.906   2.243   4.467
 8047TIP3   OH224104   4.837   2.430   2.028
 8047TIP3    H124105   4.852   2.341   2.060
 8047TIP3    H224106   4.844   2.424   1.933
 8048TIP3   OH224107   1.796   0.420   3.836
 8048TIP3    H124108   1.821   0.481   3.905
 8048TIP3    H224109   1.858   0.437   3.765
 8049TIP3   OH224110   5.854   1.610   1.832
 8049TIP3    H124111   5.848   1.631   1.739
 8049TIP3    H224112   5.814   1.523   1.840
 8050TIP3   OH224113   4.935   2.457   1.433
 8050TIP3    H124114   4.920   2.394   1.503
 8050TIP3    H224115   4.908   2.541   1.470
 8051TIP3   OH224116   1.906   5.752   5.146
 8051TIP3    H124117   1.921   5.720   5.057
 8051TIP3    H224118   1.852   5.683   5.186
 8052TIP3   OH224119   5.566   3.417   4.683
 8052TIP3    H124120   5.557   3.447   4.592
 8052TIP3    H224121   5.512   3.338   4.688
 8053TIP3   OH224122   1.878   1.259   2.780
 8053TIP3    H124123   1.972   1.244   2.783
 8053TIP3    H224124   1.868   1.354   2.771
 8054TIP3   OH224125   6.747   5.971   3.168
 8054TIP3    H124126   6.671   5.965   3.227
 8054TIP3    H224127   6.725   6.044   3.110
 8055TIP3   OH224128   4.651   4.346   1.527
 8055TIP3    H124129   4.601   4.426   1.543
 8055TIP3    H224130   4.742   4.373   1.532
 8056TIP3   OH224131   2.138   4.545   3.645
 8056TIP3    H124132   2.114   4.527   3.554
 8056TIP3    H224133   2.113   4.637   3.659
 8057TIP3   OH224134   0.103   1.480   4.579
 8057TIP3    H124135   0.044   1.460   4.652
 8057TIP3    H224136   0.185   1.508   4.620
 8058TIP3   OH224137   1.239   1.022   4.389
 8058TIP3    H124138   1.230   0.927   4.385
 8058TIP3    H224139   1.155   1.053   4.422
 8059TIP3   OH224140   2.207   0.677   4.209
 8059TIP3    H124141   2.226   0.728   4.130
 8059TIP3    H224142   2.121   0.638   4.194
 8060TIP3   OH224143   3.305   6.820   5.066
 8060TIP3    H124144   3.312   6.833   4.972
 8060TIP3    H224145   3.390   6.848   5.100
 8061TIP3   OH224146   2.771   2.240   5.635
 8061TIP3    H124147   2.800   2.289   5.558
 8061TIP3    H224148   2.679   2.222   5.618
 8062TIP3   OH224149   1.745   0.886   5.263
 8062TIP3    H124150   1.806   0.848   5.326
 8062TIP3    H224151   1.661   0.847   5.285
 8063TIP3   OH224152   5.432   3.964   2.374
 8063TIP3    H124153   5.486   4.028   2.421
 8063TIP3    H224154   5.342   3.986   2.398
 8064TIP3   OH224155   2.217   2.622   3.601
 8064TIP3    H124156   2.303   2.649   3.632
 8064TIP3    H224157   2.225   2.623   3.505
 8065TIP3   OH224158   3.578   5.616   0.107
 8065TIP3    H124159   3.670   5.631   0.088
 8065TIP3    H224160   3.573   5.608   0.202
 8066TIP3   OH224161   3.362   5.262   3.117
 8066TIP3    H124162   3.311   5.282   3.195
 8066TIP3    H224163   3.433   5.205   3.148
 8067TIP3   OH224164   3.365   1.191   2.674
 8067TIP3    H124165   3.361   1.101   2.640
 8067TIP3    H224166   3.457   1.216   2.665
 8068TIP3   OH224167   1.375   6.715   0.851
 8068TIP3    H124168   1.369   6.773   0.927
 8068TIP3    H224169   1.427   6.641   0.880
 8069TIP3   OH224170   5.970   6.840   1.208
 8069TIP3    H124171   5.989   6.747   1.194
 8069TIP3    H224172   6.049   6.885   1.176
 8070TIP3   OH224173   1.450   5.267   5.366
 8070TIP3    H124174   1.424   5.353   5.399
 8070TIP3    H224175   1.413   5.205   5.429
 8071TIP3   OH224176   3.193   1.988   1.104
 8071TIP3    H124177   3.185   1.905   1.057
 8071TIP3    H224178   3.122   2.042   1.069
 8072TIP3   OH224179   1.498   4.058   0.222
 8072TIP3    H124180   1.453   4.142   0.218
 8072TIP3    H224181   1.479   4.016   0.138
 8073TIP3   OH224182   6.740   1.062   0.429
 8073TIP3    H124183   6.745   1.075   0.334
 8073TIP3    H224184   6.647   1.077   0.450
 8074TIP3   OH224185   1.888   0.756   0.359
 8074TIP3    H124186   1.853   0.670   0.337
 8074TIP3    H224187   1.867   0.811   0.283
 8075TIP3   OH224188   5.051   1.771   2.646
 8075TIP3    H124189   5.098   1.831   2.703
 8075TIP3    H224190   5.037   1.693   2.699
 8076TIP3   OH224191   3.167   3.063   0.812
 8076TIP3    H124192   3.162   3.140   0.868
 8076TIP3    H224193   3.082   3.060   0.768
 8077TIP3   OH224194   3.718   4.692   5.160
 8077TIP3    H124195   3.789   4.632   5.136
 8077TIP3    H224196   3.640   4.637   5.160
 8078TIP3   OH224197   2.868   2.336   3.071
 8078TIP3    H124198   2.782   2.305   3.102
 8078TIP3    H224199   2.916   2.256   3.050
 8079TIP3   OH224200   3.249   2.933   3.445
 8079TIP3    H124201   3.243   3.027   3.458
 8079TIP3    H224202   3.160   2.901   3.457
 8080TIP3   OH224203   1.616   0.844   3.374
 8080TIP3    H124204   1.540   0.815   3.425
 8080TIP3    H224205   1.580   0.862   3.287
 8081TIP3   OH224206   0.397   0.742   1.384
 8081TIP3    H124207   0.484   0.714   1.357
 8081TIP3    H224208   0.366   0.674   1.444
 8082TIP3   OH224209   7.198   3.196   1.228
 8082TIP3    H124210   7.217   3.167   1.317
 8082TIP3    H224211   7.112   3.158   1.209
 8083TIP3   OH224212   6.297   3.290   2.180
 8083TIP3    H124213   6.276   3.198   2.197
 8083TIP3    H224214   6.234   3.318   2.114
 8084TIP3   OH224215   3.804   5.191   5.273
 8084TIP3    H124216   3.731   5.140   5.238
 8084TIP3    H224217   3.775   5.282   5.268
 8085TIP3   OH224218   6.592   5.369   4.922
 8085TIP3    H124219   6.532   5.395   4.992
 8085TIP3    H224220   6.584   5.439   4.857
 8086TIP3   OH224221   1.495   6.383   2.070
 8086TIP3    H124222   1.591   6.377   2.068
 8086TIP3    H224223   1.477   6.434   2.149
 8087TIP3   OH224224   2.793   5.265   4.460
 8087TIP3    H124225   2.734   5.238   4.532
 8087TIP3    H224226   2.758   5.219   4.384
 8088TIP3   OH224227   3.816   3.793   5.005
 8088TIP3    H124228   3.741   3.752   5.049
 8088TIP3    H224229   3.824   3.879   5.045
 8089TIP3   OH224230   1.072   5.888   3.848
 8089TIP3    H124231   1.060   5.799   3.816
 8089TIP3    H224232   1.094   5.939   3.769
 8090TIP3   OH224233   2.278   1.057   2.406
 8090TIP3    H124234   2.368   1.039   2.433
 8090TIP3    H224235   2.273   1.026   2.316
 8091TIP3   OH224236   5.827   3.493   4.714
 8091TIP3    H124237   5.855   3.517   4.626
 8091TIP3    H224238   5.732   3.486   4.709
 8092TIP3   OH224239   5.735   6.154   4.352
 8092TIP3    H124240   5.739   6.249   4.345
 8092TIP3    H224241   5.679   6.137   4.428
 8093TIP3   OH224242   4.573   6.453   3.164
 8093TIP3    H124243   4.480   6.437   3.143
 8093TIP3    H224244   4.586   6.411   3.249
 8094TIP3   OH224245   1.822   6.588   4.953
 8094TIP3    H124246   1.917   6.571   4.955
 8094TIP3    H224247   1.814   6.679   4.983
 8095TIP3   OH224248   0.710   6.074   0.530
 8095TIP3    H124249   0.668   5.992   0.555
 8095TIP3    H224250   0.803   6.060   0.548
 8096TIP3   OH224251   3.441   5.615   2.281
 8096TIP3    H124252   3.489   5.568   2.349
 8096TIP3    H224253   3.402   5.546   2.226
 8097TIP3   OH224254   1.944   0.126   3.174
 8097TIP3    H124255   1.987   0.186   3.114
 8097TIP3    H224256   1.968   0.039   3.141
 8098TIP3   OH224257   4.014   5.002   3.256
 8098TIP3    H124258   3.960   5.069   3.214
 8098TIP3    H224259   3.956   4.960   3.319
 8099TIP3   OH224260   0.726   0.358   4.823
 8099TIP3    H124261   0.801   0.299   4.819
 8099TIP3    H224262   0.757   0.439   4.783
 8100TIP3   OH224263   7.146   1.487   3.433
 8100TIP3    H124264   7.097   1.501   3.353
 8100TIP3    H224265   7.120   1.399   3.462
 8101TIP3   OH224266   4.799   2.154   2.128
 8101TIP3    H124267   4.887   2.120   2.142
 8101TIP3    H224268   4.758   2.151   2.215
 8102TIP3   OH224269   2.009   2.198   4.326
 8102TIP3    H124270   2.073   2.265   4.350
 8102TIP3    H224271   1.984   2.219   4.236
 8103TIP3   OH224272   2.615   4.471   2.668
 8103TIP3    H124273   2.583   4.519   2.592
 8103TIP3    H224274   2.556   4.497   2.740
 8104TIP3   OH224275   0.552   6.802   0.436
 8104TIP3    H124276   0.566   6.894   0.413
 8104TIP3    H224277   0.478   6.775   0.382
 8105TIP3   OH224278  -0.002   6.287   5.272
 8105TIP3    H124279  -0.033   6.280   5.182
 8105TIP3    H224280   0.078   6.234   5.274
 8106TIP3   OH224281   5.408   2.356   3.928
 8106TIP3    H124282   5.353   2.434   3.933
 8106TIP3    H224283   5.495   2.389   3.908
 8107TIP3   OH224284   5.428   4.935   2.574
 8107TIP3    H124285   5.332   4.933   2.565
 8107TIP3    H224286   5.442   4.956   2.666
 8108TIP3   OH224287   4.043   1.332   0.516
 8108TIP3    H124288   4.061   1.248   0.558
 8108TIP3    H224289   4.025   1.392   0.589
 8109TIP3   OH224290   4.232   2.943   3.349
 8109TIP3    H124291   4.155   2.912   3.301
 8109TIP3    H224292   4.234   2.889   3.428
 8110TIP3   OH224293   2.153   3.488   1.507
 8110TIP3    H124294   2.231   3.532   1.474
 8110TIP3    H224295   2.080   3.543   1.477
 8111TIP3   OH224296   5.667   4.204   0.718
 8111TIP3    H124297   5.713   4.120   0.714
 8111TIP3    H224298   5.727   4.266   0.677
 8112TIP3   OH224299   7.150   5.096   0.445
 8112TIP3    H124300   7.157   5.168   0.382
 8112TIP3    H224301   7.113   5.023   0.395
 8113TIP3   OH224302  -0.018   3.380   3.963
 8113TIP3    H124303   0.043   3.386   3.889
 8113TIP3    H224304   0.016   3.307   4.015
 8114TIP3   OH224305   3.345   5.893   4.932
 8114TIP3    H124306   3.262   5.852   4.956
 8114TIP3    H224307   3.392   5.824   4.885
 8115TIP3   OH224308   4.078   3.728   1.111
 8115TIP3    H124309   4.058   3.636   1.091
 8115TIP3    H224310   4.052   3.776   1.033
 8116TIP3   OH224311   6.185   5.981   4.095
 8116TIP3    H124312   6.200   6.062   4.143
 8116TIP3    H224313   6.107   5.999   4.042
 8117TIP3   OH224314   1.715   4.551   3.368
 8117TIP3    H124315   1.665   4.508   3.299
 8117TIP3    H224316   1.807   4.539   3.343
 8118TIP3   OH224317   3.472   3.196   3.758
 8118TIP3    H124318   3.420   3.127   3.716
 8118TIP3    H224319   3.561   3.160   3.763
 8119TIP3   OH224320   7.084   1.280   2.536
 8119TIP3    H124321   7.179   1.278   2.524
 8119TIP3    H224322   7.052   1.333   2.463
 8120TIP3   OH224323   6.548   0.008   0.993
 8120TIP3    H124324   6.547  -0.079   1.033
 8120TIP3    H224325   6.462   0.044   1.014
 8121TIP3   OH224326   6.280   2.689   1.723
 8121TIP3    H124327   6.304   2.751   1.655
 8121TIP3    H224328   6.207   2.639   1.686
 8122TIP3   OH224329   0.841   3.336   1.381
 8122TIP3    H124330   0.775   3.270   1.402
 8122TIP3    H224331   0.910   3.322   1.445
 8123TIP3   OH224332   4.304   2.827   0.208
 8123TIP3    H124333   4.385   2.844   0.256
 8123TIP3    H224334   4.261   2.757   0.257
 8124TIP3   OH224335   5.012   0.407   2.234
 8124TIP3    H124336   5.023   0.414   2.139
 8124TIP3    H224337   4.920   0.385   2.246
 8125TIP3   OH224338   3.203   5.220   5.565
 8125TIP3    H124339   3.184   5.313   5.577
 8125TIP3    H224340   3.131   5.187   5.512
 8126TIP3   OH224341   4.272   1.081   1.361
 8126TIP3    H124342   4.292   0.992   1.389
 8126TIP3    H224343   4.300   1.136   1.435
 8127TIP3   OH224344   6.862   5.546   5.505
 8127TIP3    H124345   6.916   5.619   5.474
 8127TIP3    H224346   6.849   5.492   5.427
 8128TIP3   OH224347   2.712   0.811   4.545
 8128TIP3    H124348   2.806   0.816   4.564
 8128TIP3    H224349   2.673   0.773   4.624
 8129TIP3   OH224350   3.229   4.487   4.229
 8129TIP3    H124351   3.203   4.559   4.286
 8129TIP3    H224352   3.194   4.511   4.143
 8130TIP3   OH224353   1.176   2.634   5.348
 8130TIP3    H124354   1.085   2.663   5.345
 8130TIP3    H224355   1.177   2.566   5.415
 8131TIP3   OH224356   2.929   6.389   2.849
 8131TIP3    H124357   2.986   6.316   2.826
 8131TIP3    H224358   2.964   6.463   2.799
 8132TIP3   OH224359   0.145   4.472   3.677
 8132TIP3    H124360   0.177   4.428   3.756
 8132TIP3    H224361   0.202   4.549   3.668
 8133TIP3   OH224362   4.698   1.448   1.532
 8133TIP3    H124363   4.645   1.408   1.601
 8133TIP3    H224364   4.734   1.527   1.572
 8134TIP3   OH224365   0.862   4.486   4.703
 8134TIP3    H124366   0.853   4.558   4.640
 8134TIP3    H224367   0.878   4.408   4.649
 8135TIP3   OH224368   1.651   5.063   2.124
 8135TIP3    H124369   1.659   4.980   2.170
 8135TIP3    H224370   1.736   5.105   2.135
 8136TIP3   OH224371   4.788   5.685   2.649
 8136TIP3    H124372   4.754   5.641   2.571
 8136TIP3    H224373   4.710   5.705   2.701
 8137TIP3   OH224374   1.307   6.016   3.374
 8137TIP3    H124375   1.377   5.952   3.387
 8137TIP3    H224376   1.351   6.093   3.338
 8138TIP3   OH224377   7.046   1.377   5.251
 8138TIP3    H124378   7.001   1.386   5.167
 8138TIP3    H224379   6.979   1.346   5.312
 8139TIP3   OH224380   5.943   3.985   5.710
 8139TIP3    H124381   5.874   3.987   5.776
 8139TIP3    H224382   5.913   4.046   5.642
 8140TIP3   OH224383   5.781   1.434   3.499
 8140TIP3    H124384   5.748   1.491   3.430
 8140TIP3    H224385   5.757   1.346   3.471
 8141TIP3   OH224386   1.952   2.118   2.944
 8141TIP3    H124387   1.959   2.024   2.926
 8141TIP3    H224388   1.912   2.122   3.031
 8142TIP3   OH224389   2.378   4.413   5.115
 8142TIP3    H124390   2.291   4.416   5.156
 8142TIP3    H224391   2.436   4.454   5.179
 8143TIP3   OH224392   5.546   6.145   2.686
 8143TIP3    H124393   5.497   6.065   2.667
 8143TIP3    H224394   5.480   6.207   2.716
 8144TIP3   OH224395   0.773   5.545   1.059
 8144TIP3    H124396   0.805   5.472   1.005
 8144TIP3    H224397   0.827   5.541   1.138
 8145TIP3   OH224398   2.219   6.479   3.673
 8145TIP3    H124399   2.206   6.453   3.582
 8145TIP3    H224400   2.140   6.528   3.696
 8146TIP3   OH224401   0.280   4.312   2.408
 8146TIP3    H124402   0.297   4.393   2.458
 8146TIP3    H224403   0.305   4.334   2.318
 8147TIP3   OH224404   6.693   3.521   2.871
 8147TIP3    H124405   6.639   3.561   2.802
 8147TIP3    H224406   6.740   3.594   2.910
 8148TIP3   OH224407   3.407   3.466   2.707
 8148TIP3    H124408   3.355   3.546   2.720
 8148TIP3    H224409   3.404   3.422   2.792
 8149TIP3   OH224410   4.318   6.140   5.751
 8149TIP3    H124411   4.284   6.227   5.728
 8149TIP3    H224412   4.321   6.093   5.668
 8150TIP3   OH224413   0.630   4.561   1.478
 8150TIP3    H124414   0.703   4.549   1.539
 8150TIP3    H224415   0.626   4.478   1.430
 8151TIP3   OH224416   3.883   5.925   4.837
 8151TIP3    H124417   3.972   5.950   4.813
 8151TIP3    H224418   3.833   5.934   4.756
 8152TIP3   OH224419   4.363   3.919   2.073
 8152TIP3    H124420   4.375   3.935   1.979
 8152TIP3    H224421   4.451   3.919   2.109
 8153TIP3   OH224422   2.880   5.986   1.455
 8153TIP3    H124423   2.847   5.937   1.530
 8153TIP3    H224424   2.835   5.948   1.379
 8154TIP3   OH224425   5.601   1.949   3.014
 8154TIP3    H124426   5.509   1.950   3.040
 8154TIP3    H224427   5.646   1.998   3.083
 8155TIP3   OH224428   3.801   4.941   3.420
 8155TIP3    H124429   3.779   4.855   3.455
 8155TIP3    H224430   3.810   4.997   3.498
 8156TIP3   OH224431   6.214   0.112   3.894
 8156TIP3    H124432   6.300   0.136   3.860
 8156TIP3    H224433   6.212   0.148   3.983
 8157TIP3   OH224434   3.141   1.028   0.373
 8157TIP3    H124435   3.121   0.981   0.293
 8157TIP3    H224436   3.232   1.056   0.362
 8158TIP3   OH224437   4.087   3.965   0.031
 8158TIP3    H124438   4.050   3.945  -0.055
 8158TIP3    H224439   4.027   3.924   0.093
 8159TIP3   OH224440   2.818   6.158   5.358
 8159TIP3    H124441   2.879   6.132   5.427
 8159TIP3    H224442   2.873   6.195   5.289
 8160TIP3   OH224443   5.949   0.846   3.776
 8160TIP3    H124444   5.942   0.936   3.743
 8160TIP3    H224445   6.040   0.839   3.806
 8161TIP3   OH224446   5.340   4.249   2.813
 8161TIP3    H124447   5.247   4.271   2.802
 8161TIP3    H224448   5.369   4.223   2.726
 8162TIP3   OH224449   2.804   1.830   5.502
 8162TIP3    H124450   2.850   1.750   5.476
 8162TIP3    H224451   2.844   1.899   5.450
 8163TIP3   OH224452   0.096   1.874   4.913
 8163TIP3    H124453   0.009   1.852   4.880
 8163TIP3    H224454   0.145   1.792   4.909
 8164TIP3   OH224455   5.625   3.186   2.854
 8164TIP3    H124456   5.548   3.191   2.797
 8164TIP3    H224457   5.693   3.148   2.799
 8165TIP3   OH224458   2.070   1.332   0.871
 8165TIP3    H124459   1.976   1.326   0.853
 8165TIP3    H224460   2.110   1.267   0.813
 8166TIP3   OH224461   3.891   1.723   2.039
 8166TIP3    H124462   3.881   1.661   2.111
 8166TIP3    H224463   3.865   1.807   2.077
 8167TIP3   OH224464   6.653   1.638   5.740
 8167TIP3    H124465   6.562   1.621   5.765
 8167TIP3    H224466   6.648   1.712   5.680
 8168TIP3   OH224467   7.217   1.435   0.998
 8168TIP3    H124468   7.136   1.418   1.047
 8168TIP3    H224469   7.282   1.453   1.066
 8169TIP3   OH224470   3.055   4.335   3.539
 8169TIP3    H124471   3.058   4.242   3.563
 8169TIP3    H224472   2.984   4.341   3.475
 8170TIP3   OH224473   2.951   4.200   3.290
 8170TIP3    H124474   2.923   4.114   3.259
 8170TIP3    H224475   2.870   4.251   3.295
 8171TIP3   OH224476   0.204   2.700   1.959
 8171TIP3    H124477   0.261   2.627   1.981
 8171TIP3    H224478   0.259   2.778   1.969
 8172TIP3   OH224479   2.651   5.396   0.471
 8172TIP3    H124480   2.724   5.416   0.412
 8172TIP3    H224481   2.673   5.441   0.552
 8173TIP3   OH224482   1.000   5.096   0.787
 8173TIP3    H124483   1.008   5.065   0.877
 8173TIP3    H224484   0.952   5.026   0.743
 8174TIP3   OH224485   6.031   6.435   4.917
 8174TIP3    H124486   6.083   6.417   4.839
 8174TIP3    H224487   6.057   6.368   4.980
 8175TIP3   OH224488   2.799   3.612   0.258
 8175TIP3    H124489   2.708   3.634   0.242
 8175TIP3    H224490   2.797   3.560   0.338
 8176TIP3   OH224491   4.799   3.828   2.571
 8176TIP3    H124492   4.707   3.848   2.553
 8176TIP3    H224493   4.796   3.757   2.635
 8177TIP3   OH224494   6.345   6.242   4.578
 8177TIP3    H124495   6.387   6.323   4.608
 8177TIP3    H224496   6.413   6.175   4.586
 8178TIP3   OH224497   6.040   4.116   2.214
 8178TIP3    H124498   6.058   4.176   2.141
 8178TIP3    H224499   6.006   4.037   2.172
 8179TIP3   OH224500   1.364   1.897   3.743
 8179TIP3    H124501   1.432   1.830   3.752
 8179TIP3    H224502   1.363   1.942   3.827
 8180TIP3   OH224503   4.884   1.788   2.966
 8180TIP3    H124504   4.825   1.857   2.996
 8180TIP3    H224505   4.860   1.775   2.874
 8181TIP3   OH224506   5.916   6.752   0.081
 8181TIP3    H124507   5.870   6.685   0.132
 8181TIP3    H224508   5.990   6.778   0.136
 8182TIP3   OH224509   2.283   0.815   1.161
 8182TIP3    H124510   2.303   0.747   1.224
 8182TIP3    H224511   2.194   0.795   1.131
 8183TIP3   OH224512   0.776   6.091   4.863
 8183TIP3    H124513   0.751   6.172   4.907
 8183TIP3    H224514   0.729   6.093   4.780
 8184TIP3   OH224515   1.332   1.739   5.012
 8184TIP3    H124516   1.400   1.751   4.946
 8184TIP3    H224517   1.378   1.742   5.095
 8185TIP3   OH224518   1.042   5.879   4.829
 8185TIP3    H124519   0.947   5.891   4.826
 8185TIP3    H224520   1.054   5.784   4.823
 8186TIP3   OH224521   5.477   4.513   0.065
 8186TIP3    H124522   5.482   4.454   0.140
 8186TIP3    H224523   5.557   4.565   0.071
 8187TIP3   OH224524   1.702   6.629   1.494
 8187TIP3    H124525   1.783   6.582   1.474
 8187TIP3    H224526   1.724   6.682   1.571
 8188TIP3   OH224527   2.700   2.281   5.136
 8188TIP3    H124528   2.625   2.331   5.103
 8188TIP3    H224529   2.755   2.265   5.059
 8189TIP3   OH224530   3.625   3.267   0.439
 8189TIP3    H124531   3.598   3.210   0.368
 8189TIP3    H224532   3.550   3.323   0.456
 8190TIP3   OH224533   7.051   3.491   2.638
 8190TIP3    H124534   7.045   3.544   2.717
 8190TIP3    H224535   7.143   3.464   2.634
 8191TIP3   OH224536   5.790   1.993   1.099
 8191TIP3    H124537   5.867   2.014   1.046
 8191TIP3    H224538   5.775   2.071   1.153
 8192TIP3   OH224539   5.263   3.811   4.323
 8192TIP3    H124540   5.339   3.814   4.381
 8192TIP3    H224541   5.205   3.879   4.355
 8193TIP3   OH224542   4.034   1.279   4.477
 8193TIP3    H124543   4.106   1.325   4.520
 8193TIP3    H224544   4.058   1.186   4.484
 8194TIP3   OH224545   6.492   3.957   1.909
 8194TIP3    H124546   6.443   4.036   1.884
 8194TIP3    H224547   6.580   3.971   1.873
 8195TIP3   OH224548   1.077   1.305   0.913
 8195TIP3    H124549   1.073   1.388   0.865
 8195TIP3    H224550   1.166   1.303   0.949
 8196TIP3   OH224551   4.749   5.989   0.994
 8196TIP3    H124552   4.693   6.035   1.057
 8196TIP3    H224553   4.752   5.899   1.027
 8197TIP3   OH224554   2.896   2.212   3.448
 8197TIP3    H124555   2.915   2.228   3.541
 8197TIP3    H224556   2.823   2.270   3.428
 8198TIP3   OH224557   1.701   2.061   3.540
 8198TIP3    H124558   1.758   2.032   3.470
 8198TIP3    H224559   1.625   2.098   3.495
 8199TIP3   OH224560   6.899   2.700   3.986
 8199TIP3    H124561   6.967   2.641   4.018
 8199TIP3    H224562   6.820   2.671   4.030
 8200TIP3   OH224563   3.096   3.856   3.408
 8200TIP3    H124564   3.112   3.783   3.467
 8200TIP3    H224565   3.149   3.836   3.330
 8201TIP3   OH224566   2.126   3.300   4.882
 8201TIP3    H124567   2.183   3.267   4.951
 8201TIP3    H224568   2.184   3.352   4.826
 8202TIP3   OH224569   3.688   4.792   3.173
 8202TIP3    H124570   3.719   4.827   3.089
 8202TIP3    H224571   3.723   4.852   3.239
 8203TIP3   OH224572   1.955   5.313   0.195
 8203TIP3    H124573   1.995   5.392   0.160
 8203TIP3    H224574   1.983   5.310   0.286
 8204TIP3   OH224575   5.870   6.254   0.773
 8204TIP3    H124576   5.946   6.305   0.802
 8204TIP3    H224577   5.837   6.213   0.852
 8205TIP3   OH224578   5.392   3.865   5.308
 8205TIP3    H124579   5.404   3.838   5.217
 8205TIP3    H224580   5.297   3.865   5.321
 8206TIP3   OH224581   2.833   0.324   3.767
 8206TIP3    H124582   2.872   0.239   3.748
 8206TIP3    H224583   2.907   0.383   3.781
 8207TIP3   OH224584   7.116   1.069   0.572
 8207TIP3    H124585   7.083   1.148   0.613
 8207TIP3    H224586   7.146   1.097   0.486
 8208TIP3   OH224587   2.839   6.595   2.305
 8208TIP3    H124588   2.785   6.627   2.378
 8208TIP3    H224589   2.925   6.581   2.344
 8209TIP3   OH224590   0.540   5.943   4.253
 8209TIP3    H124591   0.512   5.855   4.274
 8209TIP3    H224592   0.603   5.965   4.322
 8210TIP3   OH224593   2.830   0.024   4.981
 8210TIP3    H124594   2.840   0.048   4.889
 8210TIP3    H224595   2.737   0.038   4.999
 8211TIP3   OH224596   2.626   5.671   5.433
 8211TIP3    H124597   2.689   5.740   5.415
 8211TIP3    H224598   2.628   5.615   5.356
 8212TIP3   OH224599   4.788   6.201   3.069
 8212TIP3    H124600   4.703   6.185   3.110
 8212TIP3    H224601   4.767   6.239   2.984
 8213TIP3   OH224602   4.242   2.364   0.281
 8213TIP3    H124603   4.285   2.386   0.364
 8213TIP3    H224604   4.271   2.433   0.221
 8214TIP3   OH224605   4.835   5.433   3.665
 8214TIP3    H124606   4.764   5.387   3.621
 8214TIP3    H224607   4.879   5.483   3.595
 8215TIP3   OH224608   2.262   3.828   1.681
 8215TIP3    H124609   2.350   3.861   1.663
 8215TIP3    H224610   2.209   3.862   1.609
 8216TIP3   OH224611   5.792   0.074   1.029
 8216TIP3    H124612   5.815  -0.004   1.080
 8216TIP3    H224613   5.700   0.090   1.050
 8217TIP3   OH224614   4.033   1.691   1.004
 8217TIP3    H124615   3.983   1.683   1.085
 8217TIP3    H224616   4.089   1.613   1.002
 8218TIP3   OH224617   1.650   4.873   3.206
 8218TIP3    H124618   1.743   4.893   3.205
 8218TIP3    H224619   1.643   4.794   3.152
 8219TIP3   OH224620   2.253   2.166   2.293
 8219TIP3    H124621   2.224   2.098   2.232
 8219TIP3    H224622   2.324   2.211   2.247
 8220TIP3   OH224623   2.683   1.942   5.014
 8220TIP3    H124624   2.610   1.961   5.074
 8220TIP3    H224625   2.746   2.012   5.030
 8221TIP3   OH224626   0.632   1.397   5.570
 8221TIP3    H124627   0.598   1.471   5.520
 8221TIP3    H224628   0.569   1.385   5.640
 8222TIP3   OH224629   2.537   4.513   5.301
 8222TIP3    H124630   2.524   4.605   5.324
 8222TIP3    H224631   2.622   4.491   5.338
 8223TIP3   OH224632   5.929   5.482   4.319
 8223TIP3    H124633   5.863   5.551   4.323
 8223TIP3    H224634   5.979   5.501   4.240
 8224TIP3   OH224635   3.647   5.393   3.437
 8224TIP3    H124636   3.736   5.409   3.469
 8224TIP3    H224637   3.591   5.436   3.501
 8225TIP3   OH224638   6.813   2.865   5.981
 8225TIP3    H124639   6.829   2.813   5.903
 8225TIP3    H224640   6.721   2.892   5.974
 8226TIP3   OH224641   2.906   6.238   1.839
 8226TIP3    H124642   2.919   6.240   1.934
 8226TIP3    H224643   2.995   6.229   1.804
 8227TIP3   OH224644   6.123   1.528   4.071
 8227TIP3    H124645   6.074   1.586   4.013
 8227TIP3    H224646   6.102   1.440   4.041
 8228TIP3   OH224647   1.098   0.177   0.579
 8228TIP3    H124648   1.040   0.248   0.604
 8228TIP3    H224649   1.177   0.190   0.631
 8229TIP3   OH224650   3.833   5.023   0.642
 8229TIP3    H124651   3.893   5.097   0.649
 8229TIP3    H224652   3.872   4.967   0.575
 8230TIP3   OH224653   3.056   6.649   0.672
 8230TIP3    H124654   2.965   6.653   0.701
 8230TIP3    H224655   3.072   6.556   0.656
 8231TIP3   OH224656   1.474   2.457   5.704
 8231TIP3    H124657   1.474   2.376   5.756
 8231TIP3    H224658   1.528   2.437   5.628
 8232TIP3   OH224659   1.651   6.305   5.198
 8232TIP3    H124660   1.656   6.319   5.292
 8232TIP3    H224661   1.742   6.311   5.168
 8233TIP3   OH224662   4.029   3.619   1.745
 8233TIP3    H124663   4.026   3.686   1.813
 8233TIP3    H224664   3.995   3.662   1.667
 8234TIP3   OH224665   4.878   5.558   5.543
 8234TIP3    H124666   4.889   5.640   5.495
 8234TIP3    H224667   4.842   5.497   5.478
 8235TIP3   OH224668   2.010   6.020   3.914
 8235TIP3    H124669   2.101   6.010   3.942
 8235TIP3    H224670   2.003   5.966   3.835
 8236TIP3   OH224671   5.309   0.297   1.900
 8236TIP3    H124672   5.247   0.359   1.860
 8236TIP3    H224673   5.390   0.310   1.851
 8237TIP3   OH224674   3.448   2.780   0.161
 8237TIP3    H124675   3.404   2.695   0.162
 8237TIP3    H224676   3.532   2.765   0.203
 8238TIP3   OH224677   6.586   6.199   4.926
 8238TIP3    H124678   6.617   6.114   4.955
 8238TIP3    H224679   6.659   6.235   4.874
 8239TIP3   OH224680   1.511   1.383   2.778
 8239TIP3    H124681   1.564   1.398   2.700
 8239TIP3    H224682   1.440   1.326   2.748
 8240TIP3   OH224683   0.880   5.229   4.896
 8240TIP3    H124684   0.922   5.143   4.888
 8240TIP3    H224685   0.858   5.236   4.989
 8241TIP3   OH224686   2.985   3.591   2.171
 8241TIP3    H124687   2.933   3.631   2.242
 8241TIP3    H224688   2.970   3.497   2.180
 8242TIP3   OH224689   1.721   3.631   2.732
 8242TIP3    H124690   1.755   3.567   2.669
 8242TIP3    H224691   1.732   3.715   2.689
 8243TIP3   OH224692   6.457   5.894   2.273
 8243TIP3    H124693   6.367   5.861   2.269
 8243TIP3    H224694   6.498   5.841   2.341
 8244TIP3   OH224695   6.303   2.065   0.471
 8244TIP3    H124696   6.326   2.132   0.407
 8244TIP3    H224697   6.379   2.059   0.528
 8245TIP3   OH224698   4.340   1.208   0.053
 8245TIP3    H124699   4.408   1.244   0.110
 8245TIP3    H224700   4.386   1.190  -0.030
 8246TIP3   OH224701   3.459   1.996   1.995
 8246TIP3    H124702   3.411   2.053   1.935
 8246TIP3    H224703   3.523   2.053   2.037
 8247TIP3   OH224704   2.668   5.424   1.066
 8247TIP3    H124705   2.670   5.511   1.027
 8247TIP3    H224706   2.756   5.390   1.052
 8248TIP3   OH224707   6.752   3.520   5.174
 8248TIP3    H124708   6.661   3.535   5.202
 8248TIP3    H224709   6.788   3.608   5.162
 8249TIP3   OH224710   0.409   1.072   3.890
 8249TIP3    H124711   0.460   1.060   3.971
 8249TIP3    H224712   0.384   1.165   3.891
 8250TIP3   OH224713   3.637   5.265   2.236
 8250TIP3    H124714   3.542   5.275   2.248
 8250TIP3    H224715   3.650   5.171   2.225
 8251TIP3   OH224716   5.140   6.191   1.442
 8251TIP3    H124717   5.119   6.202   1.535
 8251TIP3    H224718   5.235   6.205   1.438
 8252TIP3   OH224719   6.035   0.520   3.797
 8252TIP3    H124720   6.081   0.578   3.857
 8252TIP3    H224721   6.104   0.466   3.759
 8253TIP3   OH224722   1.217   5.805   5.444
 8253TIP3    H124723   1.289   5.852   5.484
 8253TIP3    H224724   1.163   5.873   5.404
 8254TIP3   OH224725   1.404   4.036   3.742
 8254TIP3    H124726   1.316   4.004   3.761
 8254TIP3    H224727   1.423   4.003   3.654
 8255TIP3   OH224728   3.930   0.349   0.650
 8255TIP3    H124729   3.931   0.253   0.658
 8255TIP3    H224730   3.864   0.378   0.713
 8256TIP3   OH224731   0.865   4.709   4.534
 8256TIP3    H124732   0.827   4.718   4.447
 8256TIP3    H224733   0.813   4.767   4.589
 8257TIP3   OH224734   3.626   0.332   2.534
 8257TIP3    H124735   3.707   0.286   2.552
 8257TIP3    H224736   3.567   0.305   2.604
 8258TIP3   OH224737   2.093   5.274   0.435
 8258TIP3    H124738   2.183   5.272   0.466
 8258TIP3    H224739   2.042   5.231   0.504
 8259TIP3   OH224740   1.103   3.806   5.418
 8259TIP3    H124741   1.014   3.836   5.406
 8259TIP3    H224742   1.134   3.786   5.330
 8260TIP3   OH224743   1.684   5.806   4.413
 8260TIP3    H124744   1.607   5.763   4.449
 8260TIP3    H224745   1.753   5.740   4.418
 8261TIP3   OH224746   5.349   4.116   4.112
 8261TIP3    H124747   5.271   4.131   4.059
 8261TIP3    H224748   5.388   4.037   4.075
 8262TIP3   OH224749   2.505   3.338   2.222
 8262TIP3    H124750   2.426   3.300   2.259
 8262TIP3    H224751   2.475   3.416   2.175
 8263TIP3   OH224752   4.425   1.771   3.002
 8263TIP3    H124753   4.513   1.805   2.984
 8263TIP3    H224754   4.422   1.687   2.956
 8264TIP3   OH224755   0.372   4.815   2.332
 8264TIP3    H124756   0.373   4.825   2.237
 8264TIP3    H224757   0.463   4.827   2.359
 8265TIP3   OH224758   6.931   6.192   1.546
 8265TIP3    H124759   6.904   6.172   1.636
 8265TIP3    H224760   7.024   6.214   1.554
 8266TIP3   OH224761   1.938   0.439   5.080
 8266TIP3    H124762   1.876   0.386   5.131
 8266TIP3    H224763   2.002   0.376   5.047
 8267TIP3   OH224764   5.714   2.036   5.411
 8267TIP3    H124765   5.736   2.028   5.318
 8267TIP3    H224766   5.646   2.103   5.414
 8268TIP3   OH224767   4.082   1.760   0.594
 8268TIP3    H124768   4.015   1.824   0.620
 8268TIP3    H224769   4.045   1.675   0.618
 8269TIP3   OH224770   2.466   0.294   2.904
 8269TIP3    H124771   2.465   0.329   2.814
 8269TIP3    H224772   2.483   0.201   2.893
 8270TIP3   OH224773   6.091   6.345   0.548
 8270TIP3    H124774   5.996   6.349   0.539
 8270TIP3    H224775   6.107   6.260   0.590
 8271TIP3   OH224776   1.127   2.326   1.861
 8271TIP3    H124777   1.129   2.371   1.946
 8271TIP3    H224778   1.040   2.287   1.857
 8272TIP3   OH224779   4.002   1.782   2.966
 8272TIP3    H124780   4.051   1.838   2.907
 8272TIP3    H224781   3.967   1.712   2.910
 8273TIP3   OH224782   4.230   4.727   0.493
 8273TIP3    H124783   4.268   4.640   0.499
 8273TIP3    H224784   4.303   4.785   0.469
 8274TIP3   OH224785   4.849   0.683   2.623
 8274TIP3    H124786   4.910   0.687   2.549
 8274TIP3    H224787   4.890   0.738   2.690
 8275TIP3   OH224788   4.044   4.771   0.847
 8275TIP3    H124789   4.024   4.770   0.753
 8275TIP3    H224790   3.984   4.836   0.884
 8276TIP3   OH224791   6.681   2.593   4.079
 8276TIP3    H124792   6.604   2.591   4.137
 8276TIP3    H224793   6.648   2.562   3.995
 8277TIP3   OH224794   0.013   6.156   2.835
 8277TIP3    H124795   0.105   6.132   2.847
 8277TIP3    H224796  -0.020   6.168   2.924
 8278TIP3   OH224797   6.020   2.802   2.151
 8278TIP3    H124798   6.053   2.751   2.077
 8278TIP3    H224799   5.955   2.745   2.192
 8279TIP3   OH224800   3.926   4.930   4.680
 8279TIP3    H124801   3.861   4.925   4.609
 8279TIP3    H224802   3.953   5.021   4.681
 8280TIP3   OH224803   0.679   5.868   3.578
 8280TIP3    H124804   0.587   5.880   3.601
 8280TIP3    H224805   0.727   5.920   3.642
 8281TIP3   OH224806   1.587   2.923   0.158
 8281TIP3    H124807   1.670   2.879   0.138
 8281TIP3    H224808   1.601   2.961   0.245
 8282TIP3   OH224809   5.483   3.270   2.371
 8282TIP3    H124810   5.397   3.288   2.334
 8282TIP3    H224811   5.542   3.328   2.322
 8283TIP3   OH224812   1.592   3.749   2.111
 8283TIP3    H124813   1.629   3.760   2.023
 8283TIP3    H224814   1.625   3.823   2.161
 8284TIP3   OH224815   0.556   0.859   3.809
 8284TIP3    H124816   0.493   0.926   3.834
 8284TIP3    H224817   0.633   0.908   3.780
 8285TIP3   OH224818   5.657   5.355   3.563
 8285TIP3    H124819   5.738   5.395   3.531
 8285TIP3    H224820   5.656   5.268   3.522
 8286TIP3   OH224821   5.650   0.762   0.762
 8286TIP3    H124822   5.623   0.782   0.672
 8286TIP3    H224823   5.694   0.677   0.755
 8287TIP3   OH224824   6.988   5.106   5.131
 8287TIP3    H124825   6.965   5.170   5.064
 8287TIP3    H224826   7.040   5.041   5.086
 8288TIP3   OH224827   3.552   0.072   3.894
 8288TIP3    H124828   3.495   0.007   3.938
 8288TIP3    H224829   3.493   0.120   3.837
 8289TIP3   OH224830   2.635   4.847   2.181
 8289TIP3    H124831   2.634   4.859   2.276
 8289TIP3    H224832   2.554   4.890   2.151
 8290TIP3   OH224833   4.957   1.266   1.848
 8290TIP3    H124834   4.896   1.339   1.845
 8290TIP3    H224835   4.913   1.196   1.800
 8291TIP3   OH224836   3.193   0.261   5.373
 8291TIP3    H124837   3.236   0.241   5.290
 8291TIP3    H224838   3.140   0.184   5.391
 8292TIP3   OH224839   0.318   6.004   5.061
 8292TIP3    H124840   0.393   5.944   5.055
 8292TIP3    H224841   0.299   6.027   4.970
 8293TIP3   OH224842   6.176   4.200   3.202
 8293TIP3    H124843   6.253   4.245   3.167
 8293TIP3    H224844   6.200   4.177   3.292
 8294TIP3   OH224845   7.109   3.779   0.397
 8294TIP3    H124846   7.113   3.842   0.325
 8294TIP3    H224847   7.114   3.832   0.476
 8295TIP3   OH224848   0.365   3.207   0.479
 8295TIP3    H124849   0.331   3.153   0.550
 8295TIP3    H224850   0.413   3.277   0.523
 8296TIP3   OH224851   5.268   1.455   4.975
 8296TIP3    H124852   5.285   1.369   5.013
 8296TIP3    H224853   5.267   1.439   4.880
 8297TIP3   OH224854   2.705   4.043   4.452
 8297TIP3    H124855   2.677   3.956   4.480
 8297TIP3    H224856   2.673   4.050   4.362
 8298TIP3   OH224857   4.314   3.299   0.765
 8298TIP3    H124858   4.367   3.347   0.701
 8298TIP3    H224859   4.378   3.267   0.828
 8299TIP3   OH224860   5.384   4.600   3.111
 8299TIP3    H124861   5.386   4.693   3.090
 8299TIP3    H224862   5.324   4.563   3.046
 8300TIP3   OH224863   4.612   2.176   0.140
 8300TIP3    H124864   4.643   2.097   0.185
 8300TIP3    H224865   4.517   2.164   0.134
 8301TIP3   OH224866   4.687   0.149   1.331
 8301TIP3    H124867   4.690   0.179   1.240
 8301TIP3    H224868   4.602   0.103   1.338
 8302TIP3   OH224869   2.219   3.211   1.588
 8302TIP3    H124870   2.151   3.145   1.602
 8302TIP3    H224871   2.173   3.284   1.545
 8303TIP3   OH224872   2.847   1.946   3.423
 8303TIP3    H124873   2.806   1.908   3.500
 8303TIP3    H224874   2.862   2.038   3.446
 8304TIP3   OH224875   4.536   1.914   2.570
 8304TIP3    H124876   4.450   1.883   2.541
 8304TIP3    H224877   4.548   1.997   2.525
 8305TIP3   OH224878   6.525   4.833   4.945
 8305TIP3    H124879   6.606   4.854   4.899
 8305TIP3    H224880   6.467   4.798   4.878
 8306TIP3   OH224881   2.504   4.147   2.754
 8306TIP3    H124882   2.505   4.168   2.661
 8306TIP3    H224883   2.576   4.198   2.791
 8307TIP3   OH224884   1.324   0.108   4.670
 8307TIP3    H124885   1.307   0.022   4.632
 8307TIP3    H224886   1.374   0.155   4.603
 8308TIP3   OH224887   1.105   1.525   1.875
 8308TIP3    H124888   1.145   1.611   1.883
 8308TIP3    H224889   1.011   1.543   1.873
 8309TIP3   OH224890   2.813   3.889   0.149
 8309TIP3    H124891   2.824   3.799   0.179
 8309TIP3    H224892   2.718   3.905   0.155
 8310TIP3   OH224893   2.543   0.981   0.216
 8310TIP3    H124894   2.500   0.941   0.291
 8310TIP3    H224895   2.473   1.028   0.170
 8311TIP3   OH224896   0.766   5.742   5.705
 8311TIP3    H124897   0.774   5.837   5.695
 8311TIP3    H224898   0.853   5.708   5.681
 8312TIP3   OH224899   4.502   6.504   1.441
 8312TIP3    H124900   4.532   6.415   1.459
 8312TIP3    H224901   4.419   6.511   1.488
 8313TIP3   OH224902   6.946   3.779   5.519
 8313TIP3    H124903   6.913   3.711   5.460
 8313TIP3    H224904   6.951   3.735   5.604
 8314TIP3   OH224905   6.683   5.004   2.553
 8314TIP3    H124906   6.712   5.025   2.464
 8314TIP3    H224907   6.587   5.009   2.548
 8315TIP3   OH224908   5.294   2.981   4.301
 8315TIP3    H124909   5.227   2.918   4.327
 8315TIP3    H224910   5.307   3.035   4.379
 8316TIP3   OH224911   5.463   5.322   5.112
 8316TIP3    H124912   5.520   5.255   5.151
 8316TIP3    H224913   5.414   5.275   5.044
 8317TIP3   OH224914   5.433   0.579   4.317
 8317TIP3    H124915   5.507   0.623   4.277
 8317TIP3    H224916   5.366   0.576   4.248
 8318TIP3   OH224917   0.996   2.002   0.481
 8318TIP3    H124918   1.031   2.087   0.506
 8318TIP3    H224919   1.046   1.977   0.403
 8319TIP3   OH224920   6.304   4.969   5.111
 8319TIP3    H124921   6.352   4.948   5.030
 8319TIP3    H224922   6.371   4.964   5.180
 8320TIP3   OH224923   3.422   5.077   5.030
 8320TIP3    H124924   3.402   5.164   5.066
 8320TIP3    H224925   3.344   5.054   4.979
 8321TIP3   OH224926   2.103   4.696   1.954
 8321TIP3    H124927   2.189   4.723   1.924
 8321TIP3    H224928   2.043   4.758   1.913
 8322TIP3   OH224929   2.691   0.922   5.795
 8322TIP3    H124930   2.737   0.839   5.788
 8322TIP3    H224931   2.659   0.940   5.706
 8323TIP3   OH224932   3.408   5.097   1.323
 8323TIP3    H124933   3.370   5.183   1.305
 8323TIP3    H224934   3.461   5.077   1.246
 8324TIP3   OH224935   1.137   0.845   2.851
 8324TIP3    H124936   1.131   0.938   2.830
 8324TIP3    H224937   1.056   0.826   2.899
 8325TIP3   OH224938   5.248   5.715   1.692
 8325TIP3    H124939   5.340   5.690   1.699
 8325TIP3    H224940   5.223   5.740   1.781
 8326TIP3   OH224941   1.289   6.262   4.585
 8326TIP3    H124942   1.342   6.283   4.662
 8326TIP3    H224943   1.224   6.200   4.617
 8327TIP3   OH224944   3.908   0.688   1.053
 8327TIP3    H124945   3.886   0.688   0.960
 8327TIP3    H224946   3.863   0.764   1.089
 8328TIP3   OH224947   3.094   0.761   1.100
 8328TIP3    H124948   3.035   0.834   1.081
 8328TIP3    H224949   3.050   0.714   1.171
 8329TIP3   OH224950   6.018   0.600   3.230
 8329TIP3    H124951   5.974   0.610   3.314
 8329TIP3    H224952   6.043   0.689   3.204
 8330TIP3   OH224953   4.081   0.123   0.081
 8330TIP3    H124954   4.074   0.117  -0.014
 8330TIP3    H224955   4.097   0.033   0.110
 8331TIP3   OH224956   1.259   0.590   1.201
 8331TIP3    H124957   1.338   0.589   1.256
 8331TIP3    H224958   1.238   0.683   1.191
 8332TIP3   OH224959   1.843   6.396   2.135
 8332TIP3    H124960   1.839   6.445   2.217
 8332TIP3    H224961   1.931   6.360   2.132
 8333TIP3   OH224962   1.232   3.775   1.233
 8333TIP3    H124963   1.309   3.717   1.235
 8333TIP3    H224964   1.267   3.861   1.256
 8334TIP3   OH224965   4.471   2.296   3.575
 8334TIP3    H124966   4.435   2.208   3.560
 8334TIP3    H224967   4.446   2.346   3.497
 8335TIP3   OH224968   5.673   6.407   4.264
 8335TIP3    H124969   5.637   6.472   4.325
 8335TIP3    H224970   5.737   6.456   4.212
 8336TIP3   OH224971   1.620   5.529   3.561
 8336TIP3    H124972   1.608   5.523   3.466
 8336TIP3    H224973   1.659   5.445   3.585
 8337TIP3   OH224974   1.638   5.733   3.213
 8337TIP3    H124975   1.612   5.820   3.243
 8337TIP3    H224976   1.599   5.725   3.126
 8338TIP3   OH224977   4.483   2.166   0.526
 8338TIP3    H124978   4.560   2.125   0.565
 8338TIP3    H224979   4.514   2.251   0.495
 8339TIP3   OH224980   3.045   2.599   1.499
 8339TIP3    H124981   3.105   2.661   1.542
 8339TIP3    H224982   3.034   2.634   1.411
 8340TIP3   OH224983   0.550   4.680   4.423
 8340TIP3    H124984   0.532   4.773   4.412
 8340TIP3    H224985   0.489   4.651   4.490
 8341TIP3   OH224986   2.210   2.429   3.816
 8341TIP3    H124987   2.234   2.452   3.727
 8341TIP3    H224988   2.114   2.429   3.816
 8342TIP3   OH224989   2.915   1.994   0.892
 8342TIP3    H124990   2.913   2.085   0.922
 8342TIP3    H224991   2.832   1.958   0.922
 8343TIP3   OH224992   6.710   6.493   2.125
 8343TIP3    H124993   6.711   6.525   2.035
 8343TIP3    H224994   6.708   6.397   2.116
 8344TIP3   OH224995   5.693   0.501   0.328
 8344TIP3    H124996   5.748   0.556   0.272
 8344TIP3    H224997   5.747   0.424   0.347
 8345TIP3   OH224998   3.498   5.880   5.501
 8345TIP3    H124999   3.567   5.834   5.452
 8345TIP3    H225000   3.438   5.911   5.433
 8346TIP3   OH225001   1.490   1.427   1.336
 8346TIP3    H125002   1.541   1.389   1.265
 8346TIP3    H225003   1.407   1.379   1.335
 8347TIP3   OH225004   2.970   1.026   5.712
 8347TIP3    H125005   2.884   1.038   5.671
 8347TIP3    H225006   2.959   1.059   5.801
 8348TIP3   OH225007   6.986   0.651   4.530
 8348TIP3    H125008   6.958   0.729   4.483
 8348TIP3    H225009   7.001   0.681   4.620
 8349TIP3   OH225010   4.224   1.650  -0.004
 8349TIP3    H125011   4.319   1.661  -0.006
 8349TIP3    H225012   4.203   1.608  -0.088
 8350TIP3   OH225013   4.733   2.259   3.636
 8350TIP3    H125014   4.638   2.260   3.626
 8350TIP3    H225015   4.763   2.332   3.583
 8351TIP3   OH225016   6.828   1.906   1.531
 8351TIP3    H125017   6.910   1.926   1.486
 8351TIP3    H225018   6.813   1.980   1.588
 8352TIP3   OH225019   6.340   6.575   3.767
 8352TIP3    H125020   6.300   6.652   3.808
 8352TIP3    H225021   6.266   6.522   3.736
 8353TIP3   OH225022   1.645   6.425   5.469
 8353TIP3    H125023   1.587   6.489   5.511
 8353TIP3    H225024   1.645   6.350   5.528
 8354TIP3   OH225025   3.595   0.954   5.664
 8354TIP3    H125026   3.515   1.004   5.681
 8354TIP3    H225027   3.571   0.892   5.595
 8355TIP3   OH225028   6.122   3.081   2.629
 8355TIP3    H125029   6.120   2.989   2.603
 8355TIP3    H225030   6.214   3.107   2.619
 8356TIP3   OH225031   4.494   4.594   1.494
 8356TIP3    H125032   4.540   4.668   1.531
 8356TIP3    H225033   4.403   4.622   1.489
 8357TIP3   OH225034   6.992   3.742   1.752
 8357TIP3    H125035   7.058   3.736   1.821
 8357TIP3    H225036   7.034   3.792   1.682
 8358TIP3   OH225037   4.893   1.152   5.300
 8358TIP3    H125038   4.869   1.059   5.304
 8358TIP3    H225039   4.901   1.171   5.207
 8359TIP3   OH225040   0.375   0.483   4.782
 8359TIP3    H125041   0.390   0.492   4.876
 8359TIP3    H225042   0.325   0.561   4.757
 8360TIP3   OH225043   3.765   3.996   0.081
 8360TIP3    H125044   3.742   4.089   0.077
 8360TIP3    H225045   3.779   3.979   0.174
 8361TIP3   OH225046   2.849   5.111   0.910
 8361TIP3    H125047   2.872   5.116   0.817
 8361TIP3    H225048   2.886   5.028   0.940
 8362TIP3   OH225049   5.819   6.610   3.938
 8362TIP3    H125050   5.806   6.618   3.844
 8362TIP3    H225051   5.744   6.655   3.977
 8363TIP3   OH225052   0.690   4.833   2.915
 8363TIP3    H125053   0.752   4.789   2.858
 8363TIP3    H225054   0.741   4.858   2.992
 8364TIP3   OH225055   5.078   3.348   5.391
 8364TIP3    H125056   5.133   3.271   5.380
 8364TIP3    H225057   4.997   3.326   5.345
 8365TIP3   OH225058   6.076   0.034   5.847
 8365TIP3    H125059   6.029  -0.050   5.851
 8365TIP3    H225060   6.160   0.013   5.806
 8366TIP3   OH225061   5.340   3.480   2.081
 8366TIP3    H125062   5.326   3.391   2.113
 8366TIP3    H225063   5.292   3.483   1.998
 8367TIP3   OH225064   0.075   5.553   5.107
 8367TIP3    H125065   0.039   5.554   5.196
 8367TIP3    H225066   0.164   5.520   5.117
 8368TIP3   OH225067   5.086   4.966   2.286
 8368TIP3    H125068   5.175   4.992   2.310
 8368TIP3    H225069   5.051   4.925   2.366
 8369TIP3   OH225070   4.471   3.552   5.584
 8369TIP3    H125071   4.492   3.570   5.675
 8369TIP3    H225072   4.381   3.520   5.586
 8370TIP3   OH225073   4.958   1.283   0.144
 8370TIP3    H125074   4.883   1.228   0.167
 8370TIP3    H225075   4.932   1.372   0.167
 8371TIP3   OH225076   3.784   4.569   4.720
 8371TIP3    H125077   3.791   4.559   4.815
 8371TIP3    H225078   3.866   4.533   4.686
 8372TIP3   OH225079   0.528   0.593   3.337
 8372TIP3    H125080   0.436   0.569   3.352
 8372TIP3    H225081   0.529   0.689   3.340
 8373TIP3   OH225082   5.548   1.125   4.706
 8373TIP3    H125083   5.546   1.185   4.631
 8373TIP3    H225084   5.604   1.169   4.770
 8374TIP3   OH225085   3.264   1.890   5.383
 8374TIP3    H125086   3.330   1.857   5.323
 8374TIP3    H225087   3.235   1.973   5.344
 8375TIP3   OH225088   0.346   6.073   0.151
 8375TIP3    H125089   0.416   6.138   0.140
 8375TIP3    H225090   0.291   6.083   0.073
 8376TIP3   OH225091   6.405   2.154   1.542
 8376TIP3    H125092   6.483   2.210   1.542
 8376TIP3    H225093   6.440   2.066   1.525
 8377TIP3   OH225094   1.554   4.262   2.212
 8377TIP3    H125095   1.461   4.282   2.203
 8377TIP3    H225096   1.592   4.338   2.256
 8378TIP3   OH225097   1.723   3.849   2.531
 8378TIP3    H125098   1.777   3.929   2.531
 8378TIP3    H225099   1.633   3.881   2.538
 8379TIP3   OH225100   3.959   1.368   3.496
 8379TIP3    H125101   3.927   1.326   3.576
 8379TIP3    H225102   3.942   1.303   3.428
 8380TIP3   OH225103   0.026   0.663   5.769
 8380TIP3    H125104   0.097   0.601   5.753
 8380TIP3    H225105  -0.021   0.667   5.685
 8381TIP3   OH225106   0.105   0.180   2.415
 8381TIP3    H125107   0.175   0.235   2.380
 8381TIP3    H225108   0.147   0.095   2.429
 8382TIP3   OH225109   3.903   1.814   2.493
 8382TIP3    H125110   3.914   1.835   2.401
 8382TIP3    H225111   3.969   1.867   2.538
 8383TIP3   OH225112   2.952   4.655   4.177
 8383TIP3    H125113   2.867   4.641   4.133
 8383TIP3    H225114   3.015   4.660   4.105
 8384TIP3   OH225115   2.944   6.062   2.823
 8384TIP3    H125116   2.963   6.093   2.735
 8384TIP3    H225117   2.851   6.082   2.836
 8385TIP3   OH225118   1.151   0.275   0.887
 8385TIP3    H125119   1.149   0.370   0.885
 8385TIP3    H225120   1.243   0.252   0.879
 8386TIP3   OH225121   6.102   1.946   3.492
 8386TIP3    H125122   6.047   1.960   3.415
 8386TIP3    H225123   6.047   1.972   3.566
 8387TIP3   OH225124   2.543   0.760   1.991
 8387TIP3    H125125   2.479   0.722   1.932
 8387TIP3    H225126   2.600   0.687   2.015
 8388TIP3   OH225127   2.140   4.094   0.864
 8388TIP3    H125128   2.112   4.036   0.935
 8388TIP3    H225129   2.214   4.048   0.823
 8389TIP3   OH225130   2.559   6.055   5.636
 8389TIP3    H125131   2.484   6.032   5.691
 8389TIP3    H225132   2.603   5.972   5.620
 8390TIP3   OH225133   3.146   3.357   5.476
 8390TIP3    H125134   3.070   3.340   5.531
 8390TIP3    H225135   3.203   3.410   5.530
 8391TIP3   OH225136   1.431   1.794   4.411
 8391TIP3    H125137   1.483   1.758   4.339
 8391TIP3    H225138   1.350   1.824   4.369
 8392TIP3   OH225139   5.841   4.150   5.516
 8392TIP3    H125140   5.745   4.150   5.512
 8392TIP3    H225141   5.866   4.242   5.510
 8393TIP3   OH225142   6.641   5.425   1.268
 8393TIP3    H125143   6.714   5.390   1.320
 8393TIP3    H225144   6.666   5.515   1.249
 8394TIP3   OH225145   4.612   5.995   4.547
 8394TIP3    H125146   4.699   5.960   4.526
 8394TIP3    H225147   4.575   5.932   4.608
 8395TIP3   OH225148   5.799   4.643   4.926
 8395TIP3    H125149   5.797   4.724   4.875
 8395TIP3    H225150   5.861   4.587   4.880
 8396TIP3   OH225151   2.224   3.152   4.473
 8396TIP3    H125152   2.243   3.244   4.452
 8396TIP3    H225153   2.297   3.125   4.529
 8397TIP3   OH225154   1.319   3.822   4.638
 8397TIP3    H125155   1.403   3.861   4.613
 8397TIP3    H225156   1.256   3.893   4.625
 8398TIP3   OH225157   7.060   1.910   4.842
 8398TIP3    H125158   7.081   1.994   4.801
 8398TIP3    H225159   7.025   1.932   4.928
 8399TIP3   OH225160   3.561   2.659   0.858
 8399TIP3    H125161   3.649   2.629   0.836
 8399TIP3    H225162   3.555   2.746   0.819
 8400TIP3   OH225163   2.018   1.694   0.231
 8400TIP3    H125164   2.083   1.764   0.220
 8400TIP3    H225165   2.049   1.623   0.176
 8401TIP3   OH225166   0.166   0.748   4.160
 8401TIP3    H125167   0.135   0.666   4.198
 8401TIP3    H225168   0.255   0.730   4.133
 8402TIP3   OH225169   0.314   4.615   5.310
 8402TIP3    H125170   0.237   4.607   5.367
 8402TIP3    H225171   0.384   4.574   5.361
 8403TIP3   OH225172   2.926   6.361   0.208
 8403TIP3    H125173   2.859   6.397   0.149
 8403TIP3    H225174   2.913   6.409   0.290
 8404TIP3   OH225175   4.821   2.743   2.643
 8404TIP3    H125176   4.893   2.700   2.688
 8404TIP3    H225177   4.771   2.671   2.604
 8405TIP3   OH225178   2.053   0.746   2.864
 8405TIP3    H125179   2.047   0.766   2.957
 8405TIP3    H225180   1.986   0.801   2.823
 8406TIP3   OH225181   2.178   6.043   1.490
 8406TIP3    H125182   2.271   6.047   1.509
 8406TIP3    H225183   2.173   6.038   1.395
 8407TIP3   OH225184   6.246   3.631   4.588
 8407TIP3    H125185   6.337   3.647   4.611
 8407TIP3    H225186   6.212   3.716   4.560
 8408TIP3   OH225187   2.045   2.624   0.072
 8408TIP3    H125188   2.010   2.539   0.101
 8408TIP3    H225189   2.000   2.641  -0.011
 8409TIP3   OH225190   2.496   1.258   5.577
 8409TIP3    H125191   2.498   1.353   5.589
 8409TIP3    H225192   2.441   1.245   5.500
 8410TIP3   OH225193   3.257   4.275   1.326
 8410TIP3    H125194   3.335   4.329   1.319
 8410TIP3    H225195   3.210   4.289   1.243
 8411TIP3   OH225196   1.869   0.724   2.621
 8411TIP3    H125197   1.777   0.724   2.646
 8411TIP3    H225198   1.889   0.632   2.602
 8412TIP3   OH225199   2.191   1.843   1.863
 8412TIP3    H125200   2.145   1.781   1.919
 8412TIP3    H225201   2.272   1.799   1.839
 8413TIP3   OH225202   1.282   3.067   0.219
 8413TIP3    H125203   1.292   3.031   0.307
 8413TIP3    H225204   1.307   3.159   0.228
 8414TIP3   OH225205   3.049   4.396   2.115
 8414TIP3    H125206   3.090   4.479   2.090
 8414TIP3    H225207   2.975   4.421   2.170
 8415TIP3   OH225208   4.167   2.991   2.408
 8415TIP3    H125209   4.256   2.958   2.396
 8415TIP3    H225210   4.165   3.074   2.361
 8416TIP3   OH225211   2.422   1.777   3.451
 8416TIP3    H125212   2.480   1.750   3.380
 8416TIP3    H225213   2.481   1.793   3.525
 8417TIP3   OH225214   5.117   4.973   4.893
 8417TIP3    H125215   5.165   4.920   4.829
 8417TIP3    H225216   5.051   5.019   4.841
 8418TIP3   OH225217   6.732   2.716   0.481
 8418TIP3    H125218   6.789   2.771   0.534
 8418TIP3    H225219   6.662   2.775   0.453
 8419TIP3   OH225220   2.342   6.642   2.922
 8419TIP3    H125221   2.316   6.694   2.847
 8419TIP3    H225222   2.394   6.702   2.976
 8420TIP3   OH225223   2.842  -0.012   3.102
 8420TIP3    H125224   2.905  -0.055   3.160
 8420TIP3    H225225   2.760  -0.061   3.115
 8421TIP3   OH225226   6.072   2.244   4.715
 8421TIP3    H125227   5.988   2.199   4.710
 8421TIP3    H225228   6.059   2.325   4.667
 8422TIP3   OH225229   1.857   3.273   0.691
 8422TIP3    H125230   1.951   3.282   0.710
 8422TIP3    H225231   1.850   3.294   0.598
 8423TIP3   OH225232   0.858   0.119   0.261
 8423TIP3    H125233   0.799   0.119   0.186
 8423TIP3    H225234   0.935   0.167   0.232
 8424TIP3   OH225235   6.560   4.370   1.353
 8424TIP3    H125236   6.567   4.288   1.401
 8424TIP3    H225237   6.603   4.434   1.409
 8425TIP3   OH225238   4.423   3.044   5.486
 8425TIP3    H125239   4.392   3.103   5.417
 8425TIP3    H225240   4.491   3.094   5.532
 8426TIP3   OH225241   2.913   2.497   1.088
 8426TIP3    H125242   2.996   2.487   1.134
 8426TIP3    H225243   2.847   2.497   1.157
 8427TIP3   OH225244   2.724   4.448   3.772
 8427TIP3    H125245   2.767   4.488   3.696
 8427TIP3    H225246   2.636   4.486   3.773
 8428TIP3   OH225247   3.463   1.574   1.123
 8428TIP3    H125248   3.420   1.580   1.208
 8428TIP3    H225249   3.530   1.642   1.125
 8429TIP3   OH225250   1.141   6.050   2.026
 8429TIP3    H125251   1.195   6.124   1.998
 8429TIP3    H225252   1.052   6.085   2.028
 8430TIP3   OH225253   3.448   4.113   1.645
 8430TIP3    H125254   3.534   4.083   1.615
 8430TIP3    H225255   3.392   4.104   1.568
 8431TIP3   OH225256   4.649   4.571   0.389
 8431TIP3    H125257   4.701   4.521   0.325
 8431TIP3    H225258   4.692   4.555   0.473
 8432TIP3   OH225259   4.305   5.367   5.344
 8432TIP3    H125260   4.380   5.353   5.285
 8432TIP3    H225261   4.336   5.434   5.406
 8433TIP3   OH225262   5.068   6.753   2.513
 8433TIP3    H125263   4.985   6.711   2.530
 8433TIP3    H225264   5.125   6.683   2.482
 8434TIP3   OH225265   5.853   1.012   3.244
 8434TIP3    H125266   5.796   0.940   3.218
 8434TIP3    H225267   5.802   1.060   3.309
 8435TIP3   OH225268   3.208   6.333   2.623
 8435TIP3    H125269   3.277   6.281   2.581
 8435TIP3    H225270   3.253   6.409   2.659
 8436TIP3   OH225271   3.826   0.813   3.919
 8436TIP3    H125272   3.865   0.840   4.002
 8436TIP3    H225273   3.825   0.717   3.923
 8437TIP3   OH225274   0.416   3.733   0.149
 8437TIP3    H125275   0.418   3.826   0.127
 8437TIP3    H225276   0.334   3.701   0.111
 8438TIP3   OH225277   2.621   3.876   1.969
 8438TIP3    H125278   2.612   3.957   1.919
 8438TIP3    H225279   2.715   3.872   1.990
 8439TIP3   OH225280   7.163   4.911   5.086
 8439TIP3    H125281   7.239   4.912   5.028
 8439TIP3    H225282   7.196   4.941   5.170
 8440TIP3   OH225283   5.371   0.447   3.537
 8440TIP3    H125284   5.355   0.363   3.579
 8440TIP3    H225285   5.284   0.486   3.529
 8441TIP3   OH225286   2.455   4.406   0.762
 8441TIP3    H125287   2.489   4.320   0.738
 8441TIP3    H225288   2.531   4.464   0.757
 8442TIP3   OH225289   1.993   4.153   5.267
 8442TIP3    H125290   1.922   4.155   5.331
 8442TIP3    H225291   2.010   4.246   5.248
 8443TIP3   OH225292   5.974   4.026   3.531
 8443TIP3    H125293   6.006   3.997   3.445
 8443TIP3    H225294   5.910   3.960   3.556
 8444TIP3   OH225295   1.401   4.157   4.798
 8444TIP3    H125296   1.434   4.224   4.739
 8444TIP3    H225297   1.375   4.085   4.741
 8445TIP3   OH225298   5.112   4.227   3.613
 8445TIP3    H125299   5.203   4.249   3.629
 8445TIP3    H225300   5.071   4.229   3.699
 8446TIP3   OH225301   4.805   2.945   0.778
 8446TIP3    H125302   4.870   3.014   0.792
 8446TIP3    H225303   4.745   2.981   0.713
 8447TIP3   OH225304   3.495   2.312   4.441
 8447TIP3    H125305   3.565   2.302   4.378
 8447TIP3    H225306   3.440   2.234   4.429
 8448TIP3   OH225307   0.255   2.787   3.915
 8448TIP3    H125308   0.294   2.796   4.002
 8448TIP3    H225309   0.164   2.762   3.931
 8449TIP3   OH225310   3.042   1.389   2.944
 8449TIP3    H125311   3.133   1.363   2.955
 8449TIP3    H225312   3.000   1.366   3.027
 8450TIP3   OH225313   3.241   4.071  -0.028
 8450TIP3    H125314   3.180   4.093   0.043
 8450TIP3    H225315   3.226   3.978  -0.045
 8451TIP3   OH225316   4.493   2.390   5.242
 8451TIP3    H125317   4.494   2.423   5.332
 8451TIP3    H225318   4.476   2.468   5.188
 8452TIP3   OH225319   4.374   0.442   1.071
 8452TIP3    H125320   4.329   0.507   1.126
 8452TIP3    H225321   4.324   0.361   1.084
 8453TIP3   OH225322   1.451   0.327   1.215
 8453TIP3    H125323   1.489   0.240   1.229
 8453TIP3    H225324   1.356   0.311   1.213
 8454TIP3   OH225325   2.888   2.523   1.736
 8454TIP3    H125326   2.905   2.429   1.736
 8454TIP3    H225327   2.942   2.557   1.665
 8455TIP3   OH225328   1.851   4.170   5.496
 8455TIP3    H125329   1.823   4.080   5.479
 8455TIP3    H225330   1.798   4.198   5.571
 8456TIP3   OH225331   5.172   2.550   0.243
 8456TIP3    H125332   5.258   2.531   0.281
 8456TIP3    H225333   5.192   2.585   0.156
 8457TIP3   OH225334   5.581   2.880   5.584
 8457TIP3    H125335   5.578   2.918   5.496
 8457TIP3    H225336   5.644   2.809   5.577
 8458TIP3   OH225337   3.916   3.363   1.865
 8458TIP3    H125338   3.965   3.434   1.825
 8458TIP3    H225339   3.966   3.340   1.944
 8459TIP3   OH225340   5.589   5.634   0.756
 8459TIP3    H125341   5.573   5.643   0.662
 8459TIP3    H225342   5.565   5.719   0.793
 8460TIP3   OH225343   6.127   3.023   3.145
 8460TIP3    H125344   6.143   2.932   3.173
 8460TIP3    H225345   6.165   3.027   3.057
 8461TIP3   OH225346   1.622   5.861   1.684
 8461TIP3    H125347   1.590   5.924   1.749
 8461TIP3    H225348   1.543   5.828   1.642
 8462TIP3   OH225349   3.408   3.498   5.050
 8462TIP3    H125350   3.403   3.405   5.073
 8462TIP3    H225351   3.336   3.512   4.988
 8463TIP3   OH225352   1.775   4.226   4.313
 8463TIP3    H125353   1.705   4.283   4.282
 8463TIP3    H225354   1.781   4.244   4.407
 8464TIP3   OH225355   6.684   4.381   1.946
 8464TIP3    H125356   6.769   4.420   1.964
 8464TIP3    H225357   6.673   4.390   1.851
 8465TIP3   OH225358   3.047   3.733   4.018
 8465TIP3    H125359   3.120   3.708   4.074
 8465TIP3    H225360   2.981   3.766   4.079
 8466TIP3   OH225361   0.071   1.696   0.098
 8466TIP3    H125362   0.153   1.647   0.091
 8466TIP3    H225363   0.007   1.644   0.050
 8467TIP3   OH225364   0.641   1.676   1.732
 8467TIP3    H125365   0.674   1.668   1.642
 8467TIP3    H225366   0.579   1.604   1.741
 8468TIP3   OH225367   4.824   6.456   3.272
 8468TIP3    H125368   4.773   6.385   3.309
 8468TIP3    H225369   4.866   6.418   3.195
 8469TIP3   OH225370   1.184   3.242   3.957
 8469TIP3    H125371   1.106   3.257   3.904
 8469TIP3    H225372   1.249   3.302   3.922
 8470TIP3   OH225373   1.692   5.247   2.977
 8470TIP3    H125374   1.772   5.219   2.931
 8470TIP3    H225375   1.712   5.232   3.069
 8471TIP3   OH225376   4.275   6.787   5.626
 8471TIP3    H125377   4.257   6.833   5.708
 8471TIP3    H225378   4.220   6.832   5.561
 8472TIP3   OH225379   5.346   3.625   3.730
 8472TIP3    H125380   5.414   3.692   3.725
 8472TIP3    H225381   5.365   3.565   3.658
 8473TIP3   OH225382   0.653   3.058   3.908
 8473TIP3    H125383   0.714   3.049   3.835
 8473TIP3    H225384   0.575   3.100   3.869
 8474TIP3   OH225385   5.534   4.630   0.858
 8474TIP3    H125386   5.534   4.710   0.806
 8474TIP3    H225387   5.626   4.616   0.881
 8475TIP3   OH225388   0.386   6.780   3.532
 8475TIP3    H125389   0.457   6.769   3.468
 8475TIP3    H225390   0.318   6.829   3.485
 8476TIP3   OH225391   6.481   2.351   0.059
 8476TIP3    H125392   6.529   2.404   0.122
 8476TIP3    H225393   6.408   2.405   0.032
 8477TIP3   OH225394   5.665   0.973   3.660
 8477TIP3    H125395   5.749   0.996   3.619
 8477TIP3    H225396   5.653   1.039   3.728
 8478TIP3   OH225397   5.019   0.416   0.065
 8478TIP3    H125398   4.985   0.406  -0.024
 8478TIP3    H225399   4.963   0.484   0.104
 8479TIP3   OH225400   5.953   4.521   1.169
 8479TIP3    H125401   5.942   4.463   1.094
 8479TIP3    H225402   5.869   4.517   1.215
 8480TIP3   OH225403   2.154   4.347   3.851
 8480TIP3    H125404   2.153   4.423   3.793
 8480TIP3    H225405   2.189   4.276   3.797
 8481TIP3   OH225406   5.251   2.756   2.641
 8481TIP3    H125407   5.214   2.835   2.682
 8481TIP3    H225408   5.341   2.754   2.673
 8482TIP3   OH225409   4.909   2.514   0.339
 8482TIP3    H125410   4.995   2.543   0.308
 8482TIP3    H225411   4.883   2.447   0.276
 8483TIP3   OH225412   0.252   6.607   3.912
 8483TIP3    H125413   0.280   6.579   3.825
 8483TIP3    H225414   0.274   6.700   3.916
 8484TIP3   OH225415   1.473   6.191   0.692
 8484TIP3    H125416   1.415   6.209   0.618
 8484TIP3    H225417   1.531   6.267   0.695
 8485TIP3   OH225418   3.767   4.497   1.835
 8485TIP3    H125419   3.776   4.442   1.912
 8485TIP3    H225420   3.680   4.477   1.800
 8486TIP3   OH225421   0.416   0.349   5.285
 8486TIP3    H125422   0.352   0.395   5.339
 8486TIP3    H225423   0.369   0.272   5.252
 8487TIP3   OH225424   3.436   4.327   4.252
 8487TIP3    H125425   3.392   4.262   4.307
 8487TIP3    H225426   3.370   4.395   4.237
 8488TIP3   OH225427   5.990   1.385   0.780
 8488TIP3    H125428   6.071   1.393   0.730
 8488TIP3    H225429   5.969   1.474   0.808
 8489TIP3   OH225430   3.096   1.000   1.629
 8489TIP3    H125431   3.139   0.982   1.546
 8489TIP3    H225432   3.008   1.028   1.605
 8490TIP3   OH225433   0.469   3.045   4.838
 8490TIP3    H125434   0.460   3.115   4.773
 8490TIP3    H225435   0.548   3.069   4.887
 8491TIP3   OH225436   5.155   6.366   0.171
 8491TIP3    H125437   5.077   6.385   0.120
 8491TIP3    H225438   5.135   6.284   0.217
 8492TIP3   OH225439   0.570   0.881   4.785
 8492TIP3    H125440   0.632   0.929   4.839
 8492TIP3    H225441   0.542   0.944   4.719
 8493TIP3   OH225442   2.994   6.529   4.052
 8493TIP3    H125443   2.962   6.439   4.051
 8493TIP3    H225444   2.964   6.564   4.136
 8494TIP3   OH225445   5.644   0.493   5.483
 8494TIP3    H125446   5.586   0.457   5.550
 8494TIP3    H225447   5.661   0.420   5.424
 8495TIP3   OH225448   1.978   5.798   4.564
 8495TIP3    H125449   1.918   5.734   4.524
 8495TIP3    H225450   2.062   5.752   4.570
 8496TIP3   OH225451   3.664   3.484   4.900
 8496TIP3    H125452   3.581   3.483   4.947
 8496TIP3    H225453   3.640   3.505   4.810
 8497TIP3   OH225454   1.485   1.321   3.032
 8497TIP3    H125455   1.475   1.379   3.107
 8497TIP3    H225456   1.484   1.380   2.956
 8498TIP3   OH225457   5.714   5.523   0.313
 8498TIP3    H125458   5.629   5.556   0.341
 8498TIP3    H225459   5.695   5.440   0.269
 8499TIP3   OH225460   3.457   0.133   2.151
 8499TIP3    H125461   3.535   0.083   2.174
 8499TIP3    H225462   3.405   0.135   2.232
 8500TIP3   OH225463   6.243   1.794   0.400
 8500TIP3    H125464   6.281   1.882   0.404
 8500TIP3    H225465   6.276   1.758   0.317
 8501TIP3   OH225466   4.255   3.653   4.275
 8501TIP3    H125467   4.261   3.662   4.370
 8501TIP3    H225468   4.210   3.733   4.247
 8502TIP3   OH225469   2.172   3.084   0.624
 8502TIP3    H125470   2.227   3.044   0.690
 8502TIP3    H225471   2.150   3.170   0.659
 8503TIP3   OH225472   5.609   6.374   1.028
 8503TIP3    H125473   5.700   6.352   1.049
 8503TIP3    H225474   5.601   6.351   0.935
 8504TIP3   OH225475   6.885   5.789   1.052
 8504TIP3    H125476   6.946   5.800   1.125
 8504TIP3    H225477   6.917   5.851   0.985
 8505TIP3   OH225478   2.966   3.027   0.631
 8505TIP3    H125479   2.926   2.939   0.631
 8505TIP3    H225480   2.893   3.086   0.651
 8506TIP3   OH225481   3.487   3.478   5.355
 8506TIP3    H125482   3.402   3.520   5.370
 8506TIP3    H225483   3.494   3.470   5.260
 8507TIP3   OH225484   4.389   3.365   4.956
 8507TIP3    H125485   4.327   3.406   4.896
 8507TIP3    H225486   4.352   3.384   5.043
 8508TIP3   OH225487   3.055   2.110   2.085
 8508TIP3    H125488   2.998   2.140   2.156
 8508TIP3    H225489   3.091   2.190   2.047
 8509TIP3   OH225490   4.690   0.271   0.125
 8509TIP3    H125491   4.784   0.269   0.141
 8509TIP3    H225492   4.651   0.240   0.207
 8510TIP3   OH225493   3.168   1.522   1.085
 8510TIP3    H125494   3.153   1.521   1.180
 8510TIP3    H225495   3.259   1.495   1.074
 8511TIP3   OH225496   5.578   6.677   1.934
 8511TIP3    H125497   5.611   6.648   2.019
 8511TIP3    H225498   5.638   6.748   1.909
 8512TIP3   OH225499   0.565   2.452   4.695
 8512TIP3    H125500   0.619   2.531   4.688
 8512TIP3    H225501   0.610   2.398   4.761
 8513TIP3   OH225502   5.757   4.853   4.743
 8513TIP3    H125503   5.794   4.937   4.717
 8513TIP3    H225504   5.744   4.806   4.660
 8514TIP3   OH225505   1.404   0.643   2.305
 8514TIP3    H125506   1.409   0.649   2.209
 8514TIP3    H225507   1.330   0.583   2.321
 8515TIP3   OH225508   4.013   1.093   0.663
 8515TIP3    H125509   3.918   1.090   0.654
 8515TIP3    H225510   4.029   1.083   0.757
 8516TIP3   OH225511   3.327   1.805   1.839
 8516TIP3    H125512   3.296   1.836   1.754
 8516TIP3    H225513   3.362   1.883   1.881
 8517TIP3   OH225514   1.240   0.571   4.952
 8517TIP3    H125515   1.201   0.582   4.865
 8517TIP3    H225516   1.165   0.571   5.011
 8518TIP3   OH225517   4.718   2.665   4.134
 8518TIP3    H125518   4.658   2.621   4.194
 8518TIP3    H225519   4.666   2.735   4.095
 8519TIP3   OH225520   6.050   6.527   2.471
 8519TIP3    H125521   5.980   6.572   2.519
 8519TIP3    H225522   6.005   6.457   2.424
 8520TIP3   OH225523   2.015   1.453   0.070
 8520TIP3    H125524   1.973   1.390   0.013
 8520TIP3    H225525   1.960   1.456   0.148
 8521TIP3   OH225526   4.629   5.449   1.307
 8521TIP3    H125527   4.646   5.537   1.343
 8521TIP3    H225528   4.536   5.450   1.286
 8522TIP3   OH225529   1.639   1.306   4.534
 8522TIP3    H125530   1.615   1.307   4.627
 8522TIP3    H225531   1.597   1.228   4.499
 8523TIP3   OH225532   1.928   6.211   4.779
 8523TIP3    H125533   1.879   6.143   4.733
 8523TIP3    H225534   2.006   6.224   4.725
 8524TIP3   OH225535   3.916   1.975   1.009
 8524TIP3    H125536   3.927   2.026   1.089
 8524TIP3    H225537   3.968   1.896   1.024
 8525TIP3   OH225538   2.120   1.806   4.577
 8525TIP3    H125539   2.078   1.802   4.663
 8525TIP3    H225540   2.067   1.867   4.526
 8526TIP3   OH225541   0.356   3.169   2.648
 8526TIP3    H125542   0.420   3.157   2.717
 8526TIP3    H225543   0.367   3.260   2.620
 8527TIP3   OH225544   6.679   4.387   3.654
 8527TIP3    H125545   6.766   4.391   3.615
 8527TIP3    H225546   6.655   4.479   3.667
 8528TIP3   OH225547   3.067   5.763   4.911
 8528TIP3    H125548   3.085   5.669   4.921
 8528TIP3    H225549   3.004   5.767   4.840
 8529TIP3   OH225550   0.712   6.596   1.319
 8529TIP3    H125551   0.695   6.503   1.307
 8529TIP3    H225552   0.660   6.621   1.395
 8530TIP3   OH225553   3.092   5.813   5.361
 8530TIP3    H125554   3.167   5.851   5.317
 8530TIP3    H225555   3.105   5.719   5.354
 8531TIP3   OH225556   6.663   1.849   3.395
 8531TIP3    H125557   6.617   1.920   3.350
 8531TIP3    H225558   6.753   1.853   3.363
 8532TIP3   OH225559   2.727   0.212   1.159
 8532TIP3    H125560   2.742   0.292   1.107
 8532TIP3    H225561   2.753   0.141   1.101
 8533TIP3   OH225562   4.216   3.353   0.163
 8533TIP3    H125563   4.198   3.315   0.249
 8533TIP3    H225564   4.232   3.446   0.180
 8534TIP3   OH225565   3.824   4.936   0.896
 8534TIP3    H125566   3.816   4.971   0.807
 8534TIP3    H225567   3.775   4.854   0.894
 8535TIP3   OH225568   0.862   2.390   4.132
 8535TIP3    H125569   0.840   2.461   4.072
 8535TIP3    H225570   0.937   2.347   4.092
 8536TIP3   OH225571   6.481   4.762   1.706
 8536TIP3    H125572   6.550   4.817   1.668
 8536TIP3    H225573   6.518   4.730   1.788
 8537TIP3   OH225574   7.072   4.415   2.262
 8537TIP3    H125575   7.004   4.375   2.208
 8537TIP3    H225576   7.025   4.473   2.322
 8538TIP3   OH225577   5.744   4.074   0.287
 8538TIP3    H125578   5.815   4.041   0.233
 8538TIP3    H225579   5.785   4.140   0.343
 8539TIP3   OH225580   6.550   6.618   5.052
 8539TIP3    H125581   6.596   6.688   5.099
 8539TIP3    H225582   6.587   6.620   4.964
 8540TIP3   OH225583   4.408   1.135   0.657
 8540TIP3    H125584   4.360   1.198   0.602
 8540TIP3    H225585   4.422   1.059   0.600
 8541TIP3   OH225586   1.013   2.389   1.379
 8541TIP3    H125587   0.924   2.359   1.362
 8541TIP3    H225588   1.002   2.472   1.426
 8542TIP3   OH225589   3.304   6.451   1.260
 8542TIP3    H125590   3.318   6.499   1.178
 8542TIP3    H225591   3.312   6.359   1.234
 8543TIP3   OH225592   4.017   3.460   0.560
 8543TIP3    H125593   3.959   3.510   0.504
 8543TIP3    H225594   3.986   3.370   0.552
 8544TIP3   OH225595   1.445   5.009   0.598
 8544TIP3    H125596   1.440   5.086   0.655
 8544TIP3    H225597   1.461   5.044   0.511
 8545TIP3   OH225598   5.542   5.076   1.023
 8545TIP3    H125599   5.447   5.075   1.009
 8545TIP3    H225600   5.579   5.079   0.935
 8546TIP3   OH225601   0.646   3.452   3.281
 8546TIP3    H125602   0.560   3.411   3.271
 8546TIP3    H225603   0.633   3.542   3.253
 8547TIP3   OH225604   1.413   6.222   3.210
 8547TIP3    H125605   1.349   6.193   3.146
 8547TIP3    H225606   1.439   6.309   3.180
 8548TIP3   OH225607   7.174   4.810   5.477
 8548TIP3    H125608   7.100   4.857   5.514
 8548TIP3    H225609   7.226   4.878   5.434
 8549TIP3   OH225610   1.438   3.992   1.256
 8549TIP3    H125611   1.505   3.926   1.238
 8549TIP3    H225612   1.462   4.065   1.199
 8550TIP3   OH225613   6.865   6.144   1.823
 8550TIP3    H125614   6.828   6.195   1.895
 8550TIP3    H225615   6.804   6.072   1.810
 8551TIP3   OH225616   5.607   3.539   5.468
 8551TIP3    H125617   5.622   3.445   5.477
 8551TIP3    H225618   5.556   3.548   5.387
 8552TIP3   OH225619   4.788   2.475   5.800
 8552TIP3    H125620   4.705   2.506   5.837
 8552TIP3    H225621   4.783   2.380   5.806
 8553TIP3   OH225622   5.057   3.780   1.762
 8553TIP3    H125623   5.087   3.862   1.801
 8553TIP3    H225624   4.962   3.781   1.773
 8554TIP3   OH225625   0.992   0.610   0.795
 8554TIP3    H125626   0.983   0.544   0.726
 8554TIP3    H225627   0.965   0.692   0.755
 8555TIP3   OH225628   0.482   3.869   3.715
 8555TIP3    H125629   0.572   3.890   3.743
 8555TIP3    H225630   0.430   3.943   3.746
 8556TIP3   OH225631   1.861   6.138   3.697
 8556TIP3    H125632   1.787   6.078   3.687
 8556TIP3    H225633   1.888   6.128   3.789
 8557TIP3   OH225634   6.335   0.373   1.888
 8557TIP3    H125635   6.255   0.381   1.939
 8557TIP3    H225636   6.331   0.445   1.825
 8558TIP3   OH225637   0.657   0.088   1.363
 8558TIP3    H125638   0.676   0.009   1.415
 8558TIP3    H225639   0.562   0.100   1.370
 8559TIP3   OH225640   6.824   1.034   4.736
 8559TIP3    H125641   6.745   0.982   4.754
 8559TIP3    H225642   6.896   0.973   4.749
 8560TIP3   OH225643   7.110   4.190   4.815
 8560TIP3    H125644   7.017   4.212   4.824
 8560TIP3    H225645   7.153   4.234   4.888
 8561TIP3   OH225646   4.062   1.510   4.781
 8561TIP3    H125647   4.041   1.442   4.845
 8561TIP3    H225648   4.129   1.472   4.726
 8562TIP3   OH225649   1.159   4.332   4.639
 8562TIP3    H125650   1.248   4.314   4.608
 8562TIP3    H225651   1.121   4.390   4.573
 8563TIP3   OH225652   1.724   6.009   4.245
 8563TIP3    H125653   1.689   6.071   4.309
 8563TIP3    H225654   1.711   5.923   4.285
 8564TIP3   OH225655   0.850   3.305   3.152
 8564TIP3    H125656   0.795   3.355   3.212
 8564TIP3    H225657   0.797   3.298   3.072
 8565TIP3   OH225658   5.088   2.267   5.076
 8565TIP3    H125659   5.014   2.254   5.017
 8565TIP3    H225660   5.163   2.228   5.030
 8566TIP3   OH225661   3.496   1.106   0.152
 8566TIP3    H125662   3.436   1.162   0.103
 8566TIP3    H225663   3.501   1.146   0.238
 8567TIP3   OH225664   6.260   2.207   1.747
 8567TIP3    H125665   6.262   2.120   1.787
 8567TIP3    H225666   6.302   2.195   1.662
 8568TIP3   OH225667   0.168   3.192   0.026
 8568TIP3    H125668   0.126   3.207  -0.058
 8568TIP3    H225669   0.185   3.098   0.029
 8569TIP3   OH225670   2.995   0.778   4.583
 8569TIP3    H125671   3.048   0.701   4.562
 8569TIP3    H225672   3.016   0.798   4.674
 8570TIP3   OH225673   1.613   0.782   2.632
 8570TIP3    H125674   1.577   0.832   2.705
 8570TIP3    H225675   1.577   0.823   2.554
 8571TIP3   OH225676   0.902   4.210   3.039
 8571TIP3    H125677   0.992   4.196   3.010
 8571TIP3    H225678   0.911   4.235   3.131
 8572TIP3   OH225679   5.558   0.177   3.028
 8572TIP3    H125680   5.562   0.234   2.952
 8572TIP3    H225681   5.640   0.127   3.024
 8573TIP3   OH225682   6.212   5.995   1.048
 8573TIP3    H125683   6.224   5.932   1.119
 8573TIP3    H225684   6.219   6.081   1.089
 8574TIP3   OH225685   3.975   1.417   1.323
 8574TIP3    H125686   4.067   1.393   1.316
 8574TIP3    H225687   3.928   1.343   1.285
 8575TIP3   OH225688   0.780   2.490   3.451
 8575TIP3    H125689   0.704   2.515   3.399
 8575TIP3    H225690   0.835   2.440   3.391
 8576TIP3   OH225691   6.036   0.373   0.319
 8576TIP3    H125692   6.077   0.458   0.307
 8576TIP3    H225693   6.069   0.342   0.403
 8577TIP3   OH225694   5.923   1.634   3.636
 8577TIP3    H125695   5.879   1.579   3.572
 8577TIP3    H225696   6.013   1.643   3.604
 8578TIP3   OH225697   1.236   3.676   3.835
 8578TIP3    H125698   1.331   3.678   3.829
 8578TIP3    H225699   1.211   3.599   3.783
 8579TIP3   OH225700   1.205   3.954   4.349
 8579TIP3    H125701   1.161   3.878   4.312
 8579TIP3    H225702   1.174   4.028   4.296
 8580TIP3   OH225703   6.195   1.366   2.499
 8580TIP3    H125704   6.256   1.350   2.571
 8580TIP3    H225705   6.252   1.376   2.422
 8581TIP3   OH225706   2.911   0.156   4.736
 8581TIP3    H125707   2.922   0.158   4.641
 8581TIP3    H225708   2.861   0.236   4.756
 8582TIP3   OH225709   1.670   0.174   3.211
 8582TIP3    H125710   1.614   0.103   3.179
 8582TIP3    H225711   1.758   0.151   3.179
 8583TIP3   OH225712   1.193   2.951   5.218
 8583TIP3    H125713   1.155   3.029   5.258
 8583TIP3    H225714   1.122   2.886   5.218
 8584TIP3   OH225715   2.056   1.082   3.152
 8584TIP3    H125716   2.149   1.073   3.175
 8584TIP3    H225717   2.056   1.118   3.064
 8585TIP3   OH225718   1.348   6.561   4.933
 8585TIP3    H125719   1.443   6.554   4.931
 8585TIP3    H225720   1.317   6.483   4.887
 8586TIP3   OH225721   6.921   1.193   4.945
 8586TIP3    H125722   6.885   1.178   4.857
 8586TIP3    H225723   6.937   1.105   4.979
 8587TIP3   OH225724   3.993   4.756   5.872
 8587TIP3    H125725   3.921   4.755   5.809
 8587TIP3    H225726   4.008   4.849   5.889
 8588TIP3   OH225727   4.273   4.135   2.225
 8588TIP3    H125728   4.312   4.142   2.312
 8588TIP3    H225729   4.292   4.046   2.197
 8589TIP3   OH225730   2.188   0.824   5.727
 8589TIP3    H125731   2.210   0.839   5.635
 8589TIP3    H225732   2.253   0.874   5.776
 8590TIP3   OH225733   4.248   2.293   3.034
 8590TIP3    H125734   4.200   2.210   3.029
 8590TIP3    H225735   4.217   2.334   3.115
 8591TIP3   OH225736   1.921   2.809   1.731
 8591TIP3    H125737   1.920   2.713   1.726
 8591TIP3    H225738   1.890   2.828   1.819
 8592TIP3   OH225739   3.739   5.418   4.101
 8592TIP3    H125740   3.665   5.433   4.160
 8592TIP3    H225741   3.730   5.327   4.073
 8593TIP3   OH225742   5.215   2.313   2.851
 8593TIP3    H125743   5.173   2.397   2.869
 8593TIP3    H225744   5.166   2.249   2.903
 8594TIP3   OH225745   3.537   0.616   3.567
 8594TIP3    H125746   3.524   0.541   3.626
 8594TIP3    H225747   3.470   0.604   3.500
 8595TIP3   OH225748   6.304   4.895   4.595
 8595TIP3    H125749   6.257   4.962   4.645
 8595TIP3    H225750   6.329   4.829   4.660
 8596TIP3   OH225751   4.047   4.412   1.855
 8596TIP3    H125752   4.091   4.490   1.888
 8596TIP3    H225753   3.978   4.394   1.919
 8597TIP3   OH225754   1.503   3.345   4.431
 8597TIP3    H125755   1.412   3.330   4.455
 8597TIP3    H225756   1.549   3.267   4.462
 8598TIP3   OH225757   5.150   6.063   0.688
 8598TIP3    H125758   5.082   6.020   0.637
 8598TIP3    H225759   5.105   6.100   0.764
 8599TIP3   OH225760   3.114   6.698   3.115
 8599TIP3    H125761   3.065   6.774   3.082
 8599TIP3    H225762   3.196   6.700   3.065
 8600TIP3   OH225763   2.147   4.208   1.944
 8600TIP3    H125764   2.192   4.133   1.982
 8600TIP3    H225765   2.205   4.239   1.875
 8601TIP3   OH225766   3.685   3.277   4.646
 8601TIP3    H125767   3.702   3.185   4.626
 8601TIP3    H225768   3.645   3.312   4.566
 8602TIP3   OH225769   6.538   2.042   2.077
 8602TIP3    H125770   6.582   1.961   2.050
 8602TIP3    H225771   6.452   2.014   2.107
 8603TIP3   OH225772   0.209   2.272   0.303
 8603TIP3    H125773   0.268   2.313   0.366
 8603TIP3    H225774   0.144   2.227   0.356
 8604TIP3   OH225775   1.619   0.689  -0.022
 8604TIP3    H125776   1.714   0.698  -0.017
 8604TIP3    H225777   1.586   0.750   0.044
 8605TIP3   OH225778   4.174  -0.030   1.724
 8605TIP3    H125779   4.169   0.063   1.744
 8605TIP3    H225780   4.165  -0.073   1.810
 8606TIP3   OH225781   4.018   6.700   2.981
 8606TIP3    H125782   3.933   6.668   2.951
 8606TIP3    H225783   4.027   6.667   3.070
 8607TIP3   OH225784   1.338   5.924   3.005
 8607TIP3    H125785   1.268   5.873   3.046
 8607TIP3    H225786   1.306   6.014   3.006
 8608TIP3   OH225787   0.301   5.657   5.511
 8608TIP3    H125788   0.260   5.578   5.547
 8608TIP3    H225789   0.291   5.722   5.580
 8609TIP3   OH225790   6.772   0.942   1.059
 8609TIP3    H125791   6.863   0.915   1.047
 8609TIP3    H225792   6.749   0.985   0.977
 8610TIP3   OH225793   3.530   0.338   0.593
 8610TIP3    H125794   3.534   0.243   0.600
 8610TIP3    H225795   3.474   0.366   0.665
 8611TIP3   OH225796   5.025   1.860   4.926
 8611TIP3    H125797   5.043   1.954   4.928
 8611TIP3    H225798   4.946   1.850   4.981
 8612TIP3   OH225799   4.582   2.173   1.664
 8612TIP3    H125800   4.523   2.244   1.687
 8612TIP3    H225801   4.615   2.140   1.747
 8613TIP3   OH225802   5.087   6.496   0.407
 8613TIP3    H125803   5.166   6.515   0.458
 8613TIP3    H225804   5.118   6.450   0.330
 8614TIP3   OH225805   6.350   3.237   1.372
 8614TIP3    H125806   6.331   3.284   1.291
 8614TIP3    H225807   6.397   3.300   1.426
 8615TIP3   OH225808   6.678   1.871   5.616
 8615TIP3    H125809   6.706   1.866   5.525
 8615TIP3    H225810   6.752   1.909   5.663
 8616TIP3   OH225811   3.779   1.270  -0.019
 8616TIP3    H125812   3.826   1.346  -0.052
 8616TIP3    H225813   3.744   1.297   0.065
 8617TIP3   OH225814   1.410   6.500   2.304
 8617TIP3    H125815   1.317   6.525   2.297
 8617TIP3    H225816   1.452   6.576   2.343
 8618TIP3   OH225817   5.121   6.175   1.860
 8618TIP3    H125818   5.138   6.130   1.942
 8618TIP3    H225819   5.128   6.268   1.882
 8619TIP3   OH225820   2.984   4.676   2.892
 8619TIP3    H125821   2.923   4.724   2.948
 8619TIP3    H225822   3.039   4.627   2.952
 8620TIP3   OH225823   4.495   3.227   4.742
 8620TIP3    H125824   4.472   3.144   4.783
 8620TIP3    H225825   4.470   3.293   4.807
 8621TIP3   OH225826   3.608   4.037   4.842
 8621TIP3    H125827   3.665   4.069   4.772
 8621TIP3    H225828   3.587   3.947   4.817
 8622TIP3   OH225829   5.566   2.219   2.838
 8622TIP3    H125830   5.628   2.288   2.862
 8622TIP3    H225831   5.526   2.193   2.922
 8623TIP3   OH225832   7.038   5.595   0.498
 8623TIP3    H125833   7.067   5.643   0.576
 8623TIP3    H225834   7.038   5.504   0.524
 8624TIP3   OH225835   0.253   0.512   5.678
 8624TIP3    H125836   0.324   0.469   5.726
 8624TIP3    H225837   0.295   0.548   5.600
 8625TIP3   OH225838   0.428   4.753   0.219
 8625TIP3    H125839   0.474   4.748   0.302
 8625TIP3    H225840   0.453   4.673   0.172
 8626TIP3   OH225841   4.512   3.939   0.551
 8626TIP3    H125842   4.510   3.887   0.631
 8626TIP3    H225843   4.570   4.012   0.571
 8627TIP3   OH225844   6.126   3.568   4.092
 8627TIP3    H125845   6.187   3.549   4.163
 8627TIP3    H225846   6.180   3.572   4.013
 8628TIP3   OH225847   0.941   1.774   4.946
 8628TIP3    H125848   0.998   1.774   5.023
 8628TIP3    H225849   0.945   1.684   4.913
 8629TIP3   OH225850   6.457   1.094   4.265
 8629TIP3    H125851   6.532   1.075   4.321
 8629TIP3    H225852   6.494   1.146   4.194
 8630TIP3   OH225853   5.398   4.113   5.035
 8630TIP3    H125854   5.408   4.018   5.035
 8630TIP3    H225855   5.308   4.127   5.005
 8631TIP3   OH225856   2.025   0.814   3.134
 8631TIP3    H125857   1.954   0.784   3.190
 8631TIP3    H225858   2.039   0.905   3.158
 8632TIP3   OH225859   1.013   0.441   5.659
 8632TIP3    H125860   1.082   0.470   5.719
 8632TIP3    H225861   0.966   0.521   5.635
 8633TIP3   OH225862   3.565   6.717   5.388
 8633TIP3    H125863   3.642   6.692   5.439
 8633TIP3    H225864   3.541   6.638   5.340
 8634TIP3   OH225865   5.950   3.612   2.674
 8634TIP3    H125866   5.869   3.592   2.627
 8634TIP3    H225867   5.965   3.705   2.657
 8635TIP3   OH225868   6.518   3.637   4.900
 8635TIP3    H125869   6.490   3.564   4.955
 8635TIP3    H225870   6.505   3.714   4.955
 8636TIP3   OH225871   1.047   1.742   0.627
 8636TIP3    H125872   1.020   1.829   0.598
 8636TIP3    H225873   1.007   1.682   0.564
 8637TIP3   OH225874   5.136   4.717   5.391
 8637TIP3    H125875   5.115   4.762   5.310
 8637TIP3    H225876   5.077   4.755   5.456
 8638TIP3   OH225877   6.476   1.976   4.361
 8638TIP3    H125878   6.466   1.883   4.341
 8638TIP3    H225879   6.389   2.003   4.392
 8639TIP3   OH225880   5.648   0.954   5.349
 8639TIP3    H125881   5.709   0.905   5.293
 8639TIP3    H225882   5.576   0.894   5.365
 8640TIP3   OH225883   2.626   2.607   2.750
 8640TIP3    H125884   2.619   2.512   2.740
 8640TIP3    H225885   2.550   2.631   2.803
 8641TIP3   OH225886   2.370   2.875   2.051
 8641TIP3    H125887   2.426   2.944   2.016
 8641TIP3    H225888   2.295   2.872   1.991
 8642TIP3   OH225889   1.769   5.533   3.316
 8642TIP3    H125890   1.729   5.614   3.284
 8642TIP3    H225891   1.817   5.559   3.394
 8643TIP3   OH225892   1.381   5.200   1.445
 8643TIP3    H125893   1.436   5.240   1.513
 8643TIP3    H225894   1.439   5.138   1.401
 8644TIP3   OH225895   4.624   6.501   0.492
 8644TIP3    H125896   4.656   6.412   0.473
 8644TIP3    H225897   4.532   6.488   0.518
 8645TIP3   OH225898   5.284   1.545   2.001
 8645TIP3    H125899   5.203   1.594   1.987
 8645TIP3    H225900   5.256   1.466   2.048
 8646TIP3   OH225901   4.266   0.682   4.303
 8646TIP3    H125902   4.292   0.590   4.314
 8646TIP3    H225903   4.186   0.678   4.251
 8647TIP3   OH225904   1.576   2.388   1.187
 8647TIP3    H125905   1.505   2.360   1.246
 8647TIP3    H225906   1.652   2.398   1.245
 8648TIP3   OH225907   3.617   6.566   5.698
 8648TIP3    H125908   3.662   6.614   5.628
 8648TIP3    H225909   3.524   6.575   5.676
 8649TIP3   OH225910   0.537   5.498   4.805
 8649TIP3    H125911   0.578   5.562   4.863
 8649TIP3    H225912   0.611   5.451   4.766
 8650TIP3   OH225913   5.688   5.458   0.946
 8650TIP3    H125914   5.650   5.498   0.868
 8650TIP3    H225915   5.757   5.517   0.974
 8651TIP3   OH225916   5.388   6.732   5.470
 8651TIP3    H125917   5.377   6.753   5.378
 8651TIP3    H225918   5.320   6.667   5.489
 8652TIP3   OH225919   0.812   6.421   3.209
 8652TIP3    H125920   0.836   6.467   3.289
 8652TIP3    H225921   0.863   6.464   3.141
 8653TIP3   OH225922   1.524   6.189   2.629
 8653TIP3    H125923   1.568   6.183   2.545
 8653TIP3    H225924   1.430   6.188   2.608
 8654TIP3   OH225925   3.422   4.059   2.807
 8654TIP3    H125926   3.456   3.991   2.865
 8654TIP3    H225927   3.346   4.094   2.853
 8655TIP3   OH225928   0.609   1.823   4.087
 8655TIP3    H125929   0.612   1.759   4.157
 8655TIP3    H225930   0.692   1.812   4.040
 8656TIP3   OH225931   1.253   0.308   3.221
 8656TIP3    H125932   1.307   0.232   3.200
 8656TIP3    H225933   1.261   0.364   3.144
 8657TIP3   OH225934   0.199   0.198   0.145
 8657TIP3    H125935   0.274   0.250   0.175
 8657TIP3    H225936   0.218   0.181   0.052
 8658TIP3   OH225937   0.807   4.057   5.216
 8658TIP3    H125938   0.798   3.980   5.160
 8658TIP3    H225939   0.834   4.127   5.157
 8659TIP3   OH225940   1.640   1.623   1.041
 8659TIP3    H125941   1.642   1.583   0.954
 8659TIP3    H225942   1.709   1.577   1.089
 8660TIP3   OH225943   6.964   1.822   3.744
 8660TIP3    H125944   7.010   1.739   3.735
 8660TIP3    H225945   7.028   1.889   3.721
 8661TIP3   OH225946   3.277   5.581   1.152
 8661TIP3    H125947   3.255   5.501   1.104
 8661TIP3    H225948   3.273   5.650   1.087
 8662TIP3   OH225949   3.804   0.977   2.780
 8662TIP3    H125950   3.873   1.031   2.741
 8662TIP3    H225951   3.723   1.017   2.748
 8663TIP3   OH225952   0.778   2.391   4.394
 8663TIP3    H125953   0.796   2.423   4.305
 8663TIP3    H225954   0.839   2.318   4.405
 8664TIP3   OH225955   4.687   2.963   1.235
 8664TIP3    H125956   4.609   2.911   1.253
 8664TIP3    H225957   4.653   3.047   1.204
 8665TIP3   OH225958   4.683   5.513   4.916
 8665TIP3    H125959   4.754   5.493   4.977
 8665TIP3    H225960   4.621   5.442   4.927
 8666TIP3   OH225961   2.758   0.050   0.164
 8666TIP3    H125962   2.849   0.075   0.149
 8666TIP3    H225963   2.754  -0.042   0.136
 8667TIP3   OH225964   5.982   6.031   5.278
 8667TIP3    H125965   5.940   5.981   5.349
 8667TIP3    H225966   5.941   6.117   5.282
 8668TIP3   OH225967   0.489   2.375   3.611
 8668TIP3    H125968   0.531   2.314   3.550
 8668TIP3    H225969   0.552   2.385   3.683
 8669TIP3   OH225970   2.893   4.770   0.107
 8669TIP3    H125971   2.856   4.786   0.019
 8669TIP3    H225972   2.874   4.850   0.155
 8670TIP3   OH225973   2.172   2.919   2.410
 8670TIP3    H125974   2.096   2.861   2.411
 8670TIP3    H225975   2.161   2.975   2.488
 8671TIP3   OH225976   3.872   3.922   1.969
 8671TIP3    H125977   3.835   4.010   1.974
 8671TIP3    H225978   3.942   3.929   1.904
 8672TIP3   OH225979   0.909   1.698   5.379
 8672TIP3    H125980   0.942   1.745   5.303
 8672TIP3    H225981   0.962   1.731   5.452
 8673TIP3   OH225982   0.708   0.393   2.284
 8673TIP3    H125983   0.792   0.409   2.242
 8673TIP3    H225984   0.649   0.369   2.212
 8674TIP3   OH225985   0.703   1.647   3.294
 8674TIP3    H125986   0.643   1.694   3.351
 8674TIP3    H225987   0.738   1.714   3.235
 8675TIP3   OH225988   6.224   5.463   0.160
 8675TIP3    H125989   6.273   5.545   0.156
 8675TIP3    H225990   6.135   5.490   0.183
 8676TIP3   OH225991   4.100   5.678   3.536
 8676TIP3    H125992   4.182   5.642   3.571
 8676TIP3    H225993   4.110   5.773   3.546
 8677TIP3   OH225994   0.406   2.854   3.687
 8677TIP3    H125995   0.461   2.776   3.682
 8677TIP3    H225996   0.344   2.836   3.758
 8678TIP3   OH225997   6.022   0.343   2.753
 8678TIP3    H125998   5.974   0.387   2.823
 8678TIP3    H225999   6.085   0.408   2.722
 8679TIP3   OH226000   2.621   4.277   3.259
 8679TIP3    H126001   2.614   4.371   3.246
 8679TIP3    H226002   2.537   4.251   3.297
 8680TIP3   OH226003   2.457   6.114   4.657
 8680TIP3    H126004   2.381   6.056   4.665
 8680TIP3    H226005   2.432   6.176   4.588
 8681TIP3   OH226006   2.148   5.798   0.887
 8681TIP3    H126007   2.070   5.755   0.922
 8681TIP3    H226008   2.118   5.883   0.857
 8682TIP3   OH226009   6.537   4.175   4.937
 8682TIP3    H126010   6.456   4.212   4.902
 8682TIP3    H226011   6.574   4.127   4.863
 8683TIP3   OH226012   0.047   1.506   4.881
 8683TIP3    H126013   0.062   1.421   4.923
 8683TIP3    H226014   0.125   1.557   4.901
 8684TIP3   OH226015   7.101   0.860   0.775
 8684TIP3    H126016   7.075   0.921   0.706
 8684TIP3    H226017   7.099   0.774   0.732
 8685TIP3   OH226018   6.950   2.598   1.410
 8685TIP3    H126019   6.967   2.662   1.341
 8685TIP3    H226020   6.883   2.540   1.374
 8686TIP3   OH226021   0.826   4.415   5.512
 8686TIP3    H126022   0.740   4.386   5.483
 8686TIP3    H226023   0.886   4.348   5.480
 8687TIP3   OH226024   5.006   5.177   5.766
 8687TIP3    H126025   5.075   5.221   5.715
 8687TIP3    H226026   4.929   5.181   5.710
 8688TIP3   OH226027   2.435   1.739   1.201
 8688TIP3    H126028   2.452   1.645   1.197
 8688TIP3    H226029   2.467   1.772   1.116
 8689TIP3   OH226030   5.053   4.879   3.823
 8689TIP3    H126031   5.057   4.787   3.799
 8689TIP3    H226032   5.052   4.926   3.740
 8690TIP3   OH226033   3.810   4.285   0.163
 8690TIP3    H126034   3.893   4.291   0.211
 8690TIP3    H226035   3.745   4.318   0.224
 8691TIP3   OH226036   3.387   2.139   1.217
 8691TIP3    H126037   3.377   2.234   1.206
 8691TIP3    H226038   3.304   2.102   1.188
 8692TIP3   OH226039   3.784   0.452   1.727
 8692TIP3    H126040   3.820   0.417   1.645
 8692TIP3    H226041   3.846   0.519   1.755
 8693TIP3   OH226042   2.428   5.969   1.176
 8693TIP3    H126043   2.342   6.011   1.173
 8693TIP3    H226044   2.428   5.910   1.101
 8694TIP3   OH226045   3.816   6.779   0.545
 8694TIP3    H126046   3.824   6.766   0.640
 8694TIP3    H226047   3.760   6.707   0.516
 8695TIP3   OH226048   1.549   6.530   0.139
 8695TIP3    H126049   1.582   6.596   0.200
 8695TIP3    H226050   1.465   6.565   0.110
 8696TIP3   OH226051   5.718   1.461   0.318
 8696TIP3    H126052   5.746   1.449   0.227
 8696TIP3    H226053   5.655   1.390   0.333
 8697TIP3   OH226054   4.345   1.665   0.540
 8697TIP3    H126055   4.255   1.692   0.560
 8697TIP3    H226056   4.400   1.722   0.593
 8698TIP3   OH226057   2.144   1.409   1.351
 8698TIP3    H126058   2.135   1.489   1.298
 8698TIP3    H226059   2.091   1.426   1.428
 8699TIP3   OH226060   5.970   5.904   0.917
 8699TIP3    H126061   6.041   5.960   0.951
 8699TIP3    H226062   6.009   5.858   0.843
 8700TIP3   OH226063   5.071   2.310   4.103
 8700TIP3    H126064   4.996   2.350   4.148
 8700TIP3    H226065   5.089   2.369   4.029
 8701TIP3   OH226066   5.635   0.988   0.129
 8701TIP3    H126067   5.547   0.976   0.094
 8701TIP3    H226068   5.689   0.926   0.080
 8702TIP3   OH226069   6.958   5.217   3.533
 8702TIP3    H126070   7.016   5.177   3.599
 8702TIP3    H226071   6.989   5.182   3.450
 8703TIP3   OH226072   5.487   6.402   3.849
 8703TIP3    H126073   5.421   6.470   3.850
 8703TIP3    H226074   5.477   6.357   3.933
 8704TIP3   OH226075   5.063   6.656   3.735
 8704TIP3    H126076   5.137   6.656   3.796
 8704TIP3    H226077   5.104   6.659   3.649
 8705TIP3   OH226078   2.942   5.048   4.174
 8705TIP3    H126079   2.980   4.999   4.101
 8705TIP3    H226080   2.943   4.986   4.247
 8706TIP3   OH226081   5.892   1.732   5.025
 8706TIP3    H126082   5.932   1.699   5.105
 8706TIP3    H226083   5.846   1.812   5.052
 8707TIP3   OH226084   5.519   4.638   5.925
 8707TIP3    H126085   5.499   4.600   5.840
 8707TIP3    H226086   5.434   4.666   5.959
 8708TIP3   OH226087   0.758   3.066   1.490
 8708TIP3    H126088   0.823   3.040   1.555
 8708TIP3    H226089   0.675   3.066   1.536
 8709TIP3   OH226090   1.936   4.148   1.756
 8709TIP3    H126091   1.946   4.101   1.838
 8709TIP3    H226092   2.022   4.143   1.714
 8710TIP3   OH226093   2.977   3.139   4.063
 8710TIP3    H126094   3.055   3.125   4.009
 8710TIP3    H226095   2.929   3.056   4.057
 8711TIP3   OH226096   2.885   3.325   3.048
 8711TIP3    H126097   2.863   3.417   3.033
 8711TIP3    H226098   2.810   3.291   3.097
 8712TIP3   OH226099   0.599   4.798   5.002
 8712TIP3    H126100   0.594   4.703   4.990
 8712TIP3    H226101   0.671   4.811   5.064
 8713TIP3   OH226102   4.978   6.170   5.117
 8713TIP3    H126103   5.018   6.231   5.179
 8713TIP3    H226104   5.012   6.084   5.144
 8714TIP3   OH226105   4.800   4.800   1.712
 8714TIP3    H126106   4.711   4.824   1.687
 8714TIP3    H226107   4.789   4.722   1.767
 8715TIP3   OH226108   6.500   5.118   4.848
 8715TIP3    H126109   6.546   5.199   4.871
 8715TIP3    H226110   6.567   5.050   4.852
 8716TIP3   OH226111   2.867   3.895   3.210
 8716TIP3    H126112   2.795   3.868   3.266
 8716TIP3    H226113   2.945   3.891   3.267
 8717TIP3   OH226114   3.539   6.520   0.717
 8717TIP3    H126115   3.559   6.610   0.742
 8717TIP3    H226116   3.513   6.526   0.625
 8718TIP3   OH226117   1.914   5.196   1.037
 8718TIP3    H126118   1.884   5.152   0.958
 8718TIP3    H226119   1.841   5.254   1.062
 8719TIP3   OH226120   5.573   1.480   3.309
 8719TIP3    H126121   5.601   1.557   3.258
 8719TIP3    H226122   5.564   1.410   3.244
 8720TIP3   OH226123   4.251   4.802   2.341
 8720TIP3    H126124   4.178   4.783   2.282
 8720TIP3    H226125   4.216   4.788   2.428
 8721TIP3   OH226126   4.755   4.429   0.163
 8721TIP3    H126127   4.788   4.343   0.138
 8721TIP3    H226128   4.789   4.488   0.094
 8722TIP3   OH226129   4.486   1.149   2.827
 8722TIP3    H126130   4.483   1.198   2.745
 8722TIP3    H226131   4.556   1.191   2.878
 8723TIP3   OH226132   6.634   6.004   1.171
 8723TIP3    H126133   6.682   6.036   1.095
 8723TIP3    H226134   6.680   6.039   1.246
 8724TIP3   OH226135   1.717   1.219   0.836
 8724TIP3    H126136   1.666   1.250   0.761
 8724TIP3    H226137   1.689   1.129   0.849
 8725TIP3   OH226138   2.188   0.212   4.715
 8725TIP3    H126139   2.168   0.280   4.650
 8725TIP3    H226140   2.273   0.178   4.688
 8726TIP3   OH226141   0.575   2.133   3.452
 8726TIP3    H126142   0.648   2.118   3.392
 8726TIP3    H226143   0.505   2.076   3.419
 8727TIP3   OH226144   0.461   5.244   2.933
 8727TIP3    H126145   0.452   5.287   3.019
 8727TIP3    H226146   0.385   5.274   2.883
 8728TIP3   OH226147   4.185   2.199   1.531
 8728TIP3    H126148   4.142   2.251   1.598
 8728TIP3    H226149   4.247   2.259   1.490
 8729TIP3   OH226150   2.301   4.636   5.429
 8729TIP3    H126151   2.307   4.550   5.470
 8729TIP3    H226152   2.259   4.692   5.494
 8730TIP3   OH226153   0.214   4.656   1.983
 8730TIP3    H126154   0.174   4.570   1.973
 8730TIP3    H226155   0.307   4.638   1.999
 8731TIP3   OH226156   4.492   5.080   3.832
 8731TIP3    H126157   4.448   5.031   3.901
 8731TIP3    H226158   4.543   5.146   3.877
 8732TIP3   OH226159   4.408   6.229   0.699
 8732TIP3    H126160   4.347   6.229   0.773
 8732TIP3    H226161   4.491   6.202   0.737
 8733TIP3   OH226162   3.228   5.466   4.506
 8733TIP3    H126163   3.197   5.510   4.427
 8733TIP3    H226164   3.162   5.399   4.524
 8734TIP3   OH226165   4.312   4.923   0.102
 8734TIP3    H126166   4.251   4.982   0.059
 8734TIP3    H226167   4.275   4.835   0.089
 8735TIP3   OH226168   3.447   6.438   5.273
 8735TIP3    H126169   3.391   6.382   5.327
 8735TIP3    H226170   3.419   6.419   5.183
 8736TIP3   OH226171   6.016   3.732   0.665
 8736TIP3    H126172   5.963   3.699   0.737
 8736TIP3    H226173   5.974   3.814   0.639
 8737TIP3   OH226174   0.336   0.583   5.053
 8737TIP3    H126175   0.397   0.524   5.097
 8737TIP3    H226176   0.253   0.536   5.053
 8738TIP3   OH226177   2.570   6.471   2.903
 8738TIP3    H126178   2.601   6.465   2.812
 8738TIP3    H226179   2.495   6.530   2.898
 8739TIP3   OH226180   6.149   5.063   2.071
 8739TIP3    H126181   6.108   5.079   1.986
 8739TIP3    H226182   6.179   5.150   2.100
 8740TIP3   OH226183   3.219   2.655   4.546
 8740TIP3    H126184   3.230   2.640   4.640
 8740TIP3    H226185   3.265   2.581   4.505
 8741TIP3   OH226186   3.541   4.997   5.472
 8741TIP3    H126187   3.582   4.910   5.471
 8741TIP3    H226188   3.528   5.019   5.380
 8742TIP3   OH226189   4.186   5.718   3.237
 8742TIP3    H126190   4.262   5.714   3.296
 8742TIP3    H226191   4.114   5.682   3.289
 8743TIP3   OH226192   2.066   4.621   4.717
 8743TIP3    H126193   2.086   4.546   4.774
 8743TIP3    H226194   2.041   4.691   4.777
 8744TIP3   OH226195   0.499   1.228   1.786
 8744TIP3    H126196   0.566   1.162   1.804
 8744TIP3    H226197   0.523   1.303   1.839
 8745TIP3   OH226198   4.945   4.601   4.393
 8745TIP3    H126199   5.040   4.610   4.399
 8745TIP3    H226200   4.930   4.562   4.307
 8746TIP3   OH226201   6.255   1.735   4.825
 8746TIP3    H126202   6.200   1.813   4.815
 8746TIP3    H226203   6.218   1.671   4.763
 8747TIP3   OH226204   7.032   6.634   2.064
 8747TIP3    H126205   6.980   6.711   2.041
 8747TIP3    H226206   7.121   6.668   2.075
 8748TIP3   OH226207   3.701   3.007   5.077
 8748TIP3    H126208   3.726   3.075   5.014
 8748TIP3    H226209   3.632   2.957   5.033
 8749TIP3   OH226210   4.549   1.313   0.268
 8749TIP3    H126211   4.591   1.227   0.272
 8749TIP3    H226212   4.611   1.372   0.310
 8750TIP3   OH226213   5.138   4.383   4.299
 8750TIP3    H126214   5.150   4.466   4.346
 8750TIP3    H226215   5.216   4.332   4.322
 8751TIP3   OH226216   2.919   5.123   4.758
 8751TIP3    H126217   2.855   5.163   4.816
 8751TIP3    H226218   2.878   5.041   4.730
 8752TIP3   OH226219   3.906   5.534   0.211
 8752TIP3    H126220   3.974   5.490   0.262
 8752TIP3    H226221   3.860   5.588   0.275
 8753TIP3   OH226222   6.353   3.720   0.122
 8753TIP3    H126223   6.393   3.634   0.111
 8753TIP3    H226224   6.271   3.714   0.073
 8754TIP3   OH226225   0.529   5.901   5.608
 8754TIP3    H126226   0.447   5.947   5.595
 8754TIP3    H226227   0.514   5.847   5.685
 8755TIP3   OH226228   0.673   4.228   4.804
 8755TIP3    H126229   0.614   4.161   4.770
 8755TIP3    H226230   0.690   4.285   4.729
 8756TIP3   OH226231   2.104   2.737   4.335
 8756TIP3    H126232   2.017   2.705   4.312
 8756TIP3    H226233   2.100   2.831   4.318
 8757TIP3   OH226234   1.214   1.788   1.909
 8757TIP3    H126235   1.196   1.766   2.000
 8757TIP3    H226236   1.215   1.884   1.907
 8758TIP3   OH226237   3.735   4.330   0.527
 8758TIP3    H126238   3.777   4.245   0.541
 8758TIP3    H226239   3.760   4.381   0.604
 8759TIP3   OH226240   0.127   1.436   0.755
 8759TIP3    H126241   0.085   1.425   0.840
 8759TIP3    H226242   0.108   1.355   0.708
 8760TIP3   OH226243   6.986   6.186   0.747
 8760TIP3    H126244   7.016   6.228   0.667
 8760TIP3    H226245   6.895   6.164   0.730
 8761TIP3   OH226246   4.977   6.600   1.150
 8761TIP3    H126247   4.953   6.527   1.093
 8761TIP3    H226248   5.051   6.567   1.200
 8762TIP3   OH226249   4.113   0.767   0.637
 8762TIP3    H126250   4.168   0.839   0.607
 8762TIP3    H226251   4.114   0.775   0.733
 8763TIP3   OH226252   5.214   6.470   1.575
 8763TIP3    H126253   5.268   6.441   1.502
 8763TIP3    H226254   5.271   6.465   1.651
 8764TIP3   OH226255   1.293   2.930   0.507
 8764TIP3    H126256   1.306   2.846   0.462
 8764TIP3    H226257   1.357   2.929   0.578
 8765TIP3   OH226258   6.047   5.079   3.319
 8765TIP3    H126259   5.979   5.137   3.352
 8765TIP3    H226260   6.066   5.111   3.231
 8766TIP3   OH226261   1.493   3.293   5.604
 8766TIP3    H126262   1.474   3.239   5.681
 8766TIP3    H226263   1.409   3.334   5.582
 8767TIP3   OH226264   1.138   0.962   4.892
 8767TIP3    H126265   1.215   0.945   4.947
 8767TIP3    H226266   1.123   0.880   4.846
 8768TIP3   OH226267   6.534   4.106   5.212
 8768TIP3    H126268   6.624   4.124   5.241
 8768TIP3    H226269   6.531   4.139   5.122
 8769TIP3   OH226270   5.332   5.308   3.954
 8769TIP3    H126271   5.314   5.394   3.991
 8769TIP3    H226272   5.245   5.270   3.938
 8770TIP3   OH226273   4.656   0.131   0.732
 8770TIP3    H126274   4.714   0.117   0.807
 8770TIP3    H226275   4.680   0.218   0.700
 8771TIP3   OH226276   5.878   2.315   1.785
 8771TIP3    H126277   5.908   2.225   1.774
 8771TIP3    H226278   5.956   2.369   1.773
 8772TIP3   OH226279   0.207   6.218   4.403
 8772TIP3    H126280   0.145   6.235   4.332
 8772TIP3    H226281   0.155   6.175   4.470
 8773TIP3   OH226282   4.272   1.959   0.251
 8773TIP3    H126283   4.258   1.993   0.340
 8773TIP3    H226284   4.341   2.015   0.215
 8774TIP3   OH226285   5.889   2.025   5.887
 8774TIP3    H126286   5.812   2.075   5.861
 8774TIP3    H226287   5.953   2.092   5.913
 8775TIP3   OH226288   5.972   1.986   3.256
 8775TIP3    H126289   5.976   2.081   3.270
 8775TIP3    H226290   5.879   1.965   3.261
 8776TIP3   OH226291   6.236   3.444   0.903
 8776TIP3    H126292   6.208   3.385   0.833
 8776TIP3    H226293   6.331   3.439   0.903
 8777TIP3   OH226294   6.577   4.594   4.713
 8777TIP3    H126295   6.588   4.610   4.620
 8777TIP3    H226296   6.490   4.628   4.733
 8778TIP3   OH226297   4.866   3.664   5.661
 8778TIP3    H126298   4.938   3.619   5.705
 8778TIP3    H226299   4.875   3.755   5.688
 8779TIP3   OH226300   6.615   0.619   1.246
 8779TIP3    H126301   6.612   0.539   1.299
 8779TIP3    H226302   6.696   0.611   1.196
 8780TIP3   OH226303   1.025   6.282   1.852
 8780TIP3    H126304   1.120   6.277   1.866
 8780TIP3    H226305   0.993   6.340   1.921
 8781TIP3   OH226306   0.742   6.069   2.966
 8781TIP3    H126307   0.765   6.015   2.890
 8781TIP3    H226308   0.784   6.153   2.949
 8782TIP3   OH226309   4.124   3.870   5.078
 8782TIP3    H126310   4.104   3.802   5.142
 8782TIP3    H226311   4.204   3.839   5.035
 8783TIP3   OH226312   2.563   4.744   0.665
 8783TIP3    H126313   2.520   4.740   0.580
 8783TIP3    H226314   2.549   4.834   0.695
 8784TIP3   OH226315   3.065   3.593   0.914
 8784TIP3    H126316   2.992   3.618   0.971
 8784TIP3    H226317   3.143   3.607   0.967
 8785TIP3   OH226318   7.127   3.128   3.102
 8785TIP3    H126319   7.219   3.101   3.092
 8785TIP3    H226320   7.112   3.126   3.196
 8786TIP3   OH226321   3.609   2.647   3.905
 8786TIP3    H126322   3.652   2.627   3.988
 8786TIP3    H226323   3.678   2.641   3.839
 8787TIP3   OH226324   0.824   4.225   2.227
 8787TIP3    H126325   0.823   4.305   2.280
 8787TIP3    H226326   0.877   4.248   2.150
 8788TIP3   OH226327   1.115   5.284   2.804
 8788TIP3    H126328   1.120   5.330   2.888
 8788TIP3    H226329   1.074   5.200   2.826
 8789TIP3   OH226330   0.710   5.546   3.214
 8789TIP3    H126331   0.778   5.529   3.149
 8789TIP3    H226332   0.750   5.524   3.298
 8790TIP3   OH226333   7.027   4.556   4.125
 8790TIP3    H126334   7.061   4.633   4.171
 8790TIP3    H226335   7.067   4.560   4.038
 8791TIP3   OH226336   1.870   6.587   5.820
 8791TIP3    H126337   1.864   6.658   5.756
 8791TIP3    H226338   1.783   6.547   5.820
 8792TIP3   OH226339   1.868   0.717   3.334
 8792TIP3    H126340   1.780   0.747   3.358
 8792TIP3    H226341   1.859   0.623   3.320
 8793TIP3   OH226342   2.920   6.521   4.507
 8793TIP3    H126343   2.861   6.578   4.556
 8793TIP3    H226344   2.869   6.442   4.490
 8794TIP3   OH226345   2.271   3.015   0.861
 8794TIP3    H126346   2.293   2.995   0.953
 8794TIP3    H226347   2.186   2.973   0.848
 8795TIP3   OH226348   3.546   3.975   0.875
 8795TIP3    H126349   3.468   4.022   0.848
 8795TIP3    H226350   3.541   3.890   0.830
 8796TIP3   OH226351   2.026   4.575   3.363
 8796TIP3    H126352   2.023   4.534   3.277
 8796TIP3    H226353   2.113   4.615   3.369
 8797TIP3   OH226354   5.586   0.071   1.833
 8797TIP3    H126355   5.644   0.112   1.897
 8797TIP3    H226356   5.602   0.120   1.752
 8798TIP3   OH226357   5.120   0.625   2.781
 8798TIP3    H126358   5.203   0.613   2.735
 8798TIP3    H226359   5.093   0.714   2.760
 8799TIP3   OH226360   1.082   5.719   1.179
 8799TIP3    H126361   1.127   5.770   1.247
 8799TIP3    H226362   1.037   5.784   1.126
 8800TIP3   OH226363   0.852   4.010   3.552
 8800TIP3    H126364   0.778   4.066   3.530
 8800TIP3    H226365   0.830   3.973   3.638
 8801TIP3   OH226366   6.666   4.126   4.059
 8801TIP3    H126367   6.758   4.134   4.032
 8801TIP3    H226368   6.616   4.150   3.982
 8802TIP3   OH226369   2.585   5.406   2.222
 8802TIP3    H126370   2.603   5.498   2.205
 8802TIP3    H226371   2.668   5.362   2.205
 8803TIP3   OH226372   0.471   5.256   5.183
 8803TIP3    H126373   0.495   5.188   5.120
 8803TIP3    H226374   0.555   5.293   5.211
 8804TIP3   OH226375   7.202   6.432   4.671
 8804TIP3    H126376   7.147   6.479   4.609
 8804TIP3    H226377   7.288   6.430   4.629
 8805TIP3   OH226378   1.880   4.621   2.361
 8805TIP3    H126379   1.971   4.649   2.372
 8805TIP3    H226380   1.882   4.527   2.376
 8806TIP3   OH226381   5.544   1.688   4.613
 8806TIP3    H126382   5.525   1.601   4.577
 8806TIP3    H226383   5.577   1.670   4.701
 8807TIP3   OH226384   1.023   3.605   1.607
 8807TIP3    H126385   0.956   3.537   1.603
 8807TIP3    H226386   1.085   3.574   1.674
 8808TIP3   OH226387   1.625   1.954   4.521
 8808TIP3    H126388   1.550   2.013   4.531
 8808TIP3    H226389   1.588   1.876   4.481
 8809TIP3   OH226390   6.465   2.117   2.907
 8809TIP3    H126391   6.391   2.155   2.953
 8809TIP3    H226392   6.501   2.189   2.855
 8810TIP3   OH226393   7.098   5.401   5.668
 8810TIP3    H126394   7.074   5.348   5.592
 8810TIP3    H226395   7.072   5.490   5.644
 8811TIP3   OH226396   7.038   5.706   5.784
 8811TIP3    H126397   6.980   5.782   5.794
 8811TIP3    H226398   7.008   5.644   5.851
 8812TIP3   OH226399   1.557   6.476   3.183
 8812TIP3    H126400   1.578   6.538   3.254
 8812TIP3    H226401   1.597   6.515   3.105
 8813TIP3   OH226402   4.768   1.268   5.045
 8813TIP3    H126403   4.788   1.253   4.953
 8813TIP3    H226404   4.705   1.340   5.045
 8814TIP3   OH226405   7.030   5.688   0.022
 8814TIP3    H126406   6.946   5.682   0.068
 8814TIP3    H226407   7.078   5.610   0.049
 8815TIP3   OH226408   5.239   6.543   3.554
 8815TIP3    H126409   5.286   6.573   3.632
 8815TIP3    H226410   5.299   6.481   3.513
 8816TIP3   OH226411   0.035   3.848   1.754
 8816TIP3    H126412   0.072   3.821   1.838
 8816TIP3    H226413   0.030   3.944   1.759
 8817TIP3   OH226414   4.238   1.319   1.171
 8817TIP3    H126415   4.318   1.328   1.222
 8817TIP3    H226416   4.268   1.300   1.082
 8818TIP3   OH226417   1.895   1.315   5.506
 8818TIP3    H126418   1.964   1.328   5.571
 8818TIP3    H226419   1.928   1.356   5.427
 8819TIP3   OH226420   6.127   4.524   5.360
 8819TIP3    H126421   6.159   4.522   5.270
 8819TIP3    H226422   6.177   4.594   5.402
 8820TIP3   OH226423   5.828   1.129   0.478
 8820TIP3    H126424   5.785   1.160   0.557
 8820TIP3    H226425   5.812   1.034   0.478
 8821TIP3   OH226426   6.112   1.914   5.411
 8821TIP3    H126427   6.146   1.973   5.344
 8821TIP3    H226428   6.076   1.972   5.478
 8822TIP3   OH226429   6.695   3.646   3.254
 8822TIP3    H126430   6.732   3.734   3.265
 8822TIP3    H226431   6.711   3.625   3.162
 8823TIP3   OH226432   6.528   1.528   4.636
 8823TIP3    H126433   6.563   1.561   4.554
 8823TIP3    H226434   6.489   1.443   4.613
 8824TIP3   OH226435   3.301   3.816   5.146
 8824TIP3    H126436   3.242   3.856   5.210
 8824TIP3    H226437   3.260   3.833   5.061
 8825TIP3   OH226438   0.934   0.263   2.097
 8825TIP3    H126439   0.971   0.196   2.154
 8825TIP3    H226440   1.003   0.281   2.033
 8826TIP3   OH226441   1.289   6.076   1.171
 8826TIP3    H126442   1.204   6.119   1.161
 8826TIP3    H226443   1.334   6.093   1.088
 8827TIP3   OH226444   3.706   3.427   1.597
 8827TIP3    H126445   3.693   3.448   1.689
 8827TIP3    H226446   3.749   3.505   1.561
 8828TIP3   OH226447   4.268   1.254   3.102
 8828TIP3    H126448   4.201   1.314   3.136
 8828TIP3    H226449   4.257   1.175   3.155
 8829TIP3   OH226450   1.062   2.957   0.645
 8829TIP3    H126451   1.002   2.970   0.572
 8829TIP3    H226452   1.149   2.952   0.605
 8830TIP3   OH226453   1.849   3.162   4.295
 8830TIP3    H126454   1.780   3.095   4.289
 8830TIP3    H226455   1.809   3.233   4.345
 8831TIP3   OH226456   5.268   4.676   5.619
 8831TIP3    H126457   5.247   4.661   5.527
 8831TIP3    H226458   5.186   4.702   5.659
 8832TIP3   OH226459   2.375   5.834   2.281
 8832TIP3    H126460   2.409   5.865   2.197
 8832TIP3    H226461   2.284   5.812   2.263
 8833TIP3   OH226462   7.162   4.315   3.198
 8833TIP3    H126463   7.250   4.344   3.175
 8833TIP3    H226464   7.106   4.391   3.180
 8834TIP3   OH226465   5.215   0.397   0.731
 8834TIP3    H126466   5.192   0.471   0.787
 8834TIP3    H226467   5.298   0.366   0.765
 8835TIP3   OH226468   5.207   1.915   0.376
 8835TIP3    H126469   5.254   1.914   0.459
 8835TIP3    H226470   5.253   1.979   0.322
 8836TIP3   OH226471   1.400   2.952   2.142
 8836TIP3    H126472   1.417   2.945   2.236
 8836TIP3    H226473   1.484   2.976   2.104
 8837TIP3   OH226474   6.678   1.176   3.748
 8837TIP3    H126475   6.774   1.186   3.751
 8837TIP3    H226476   6.664   1.101   3.691
 8838TIP3   OH226477   4.496   3.448   4.367
 8838TIP3    H126478   4.526   3.374   4.315
 8838TIP3    H226479   4.477   3.516   4.302
 8839TIP3   OH226480   3.752   4.176   5.792
 8839TIP3    H126481   3.772   4.252   5.738
 8839TIP3    H226482   3.837   4.134   5.807
 8840TIP3   OH226483   4.716   2.058   0.576
 8840TIP3    H126484   4.781   2.000   0.617
 8840TIP3    H226485   4.740   2.058   0.484
 8841TIP3   OH226486   0.310   6.385   2.832
 8841TIP3    H126487   0.345   6.296   2.828
 8841TIP3    H226488   0.267   6.389   2.918
 8842TIP3   OH226489   5.797   0.149   3.811
 8842TIP3    H126490   5.852   0.104   3.876
 8842TIP3    H226491   5.800   0.092   3.734
 8843TIP3   OH226492   4.555   3.236   1.250
 8843TIP3    H126493   4.591   3.323   1.268
 8843TIP3    H226494   4.460   3.248   1.251
 8844TIP3   OH226495   7.007   1.196   1.405
 8844TIP3    H126496   7.001   1.132   1.335
 8844TIP3    H226497   6.916   1.211   1.432
 8845TIP3   OH226498   1.432   2.231   5.146
 8845TIP3    H126499   1.351   2.279   5.125
 8845TIP3    H226500   1.451   2.181   5.066
 8846TIP3   OH226501   0.644   4.227   0.000
 8846TIP3    H126502   0.705   4.167  -0.043
 8846TIP3    H226503   0.692   4.258   0.077
 8847TIP3   OH226504   5.036   4.846   2.818
 8847TIP3    H126505   4.943   4.870   2.814
 8847TIP3    H226506   5.043   4.787   2.893
 8848TIP3   OH226507   3.160   1.091   3.039
 8848TIP3    H126508   3.187   1.166   3.091
 8848TIP3    H226509   3.240   1.063   2.994
 8849TIP3   OH226510   3.452   4.698   5.742
 8849TIP3    H126511   3.499   4.668   5.664
 8849TIP3    H226512   3.453   4.793   5.736
 8850TIP3   OH226513   6.880   5.199   3.017
 8850TIP3    H126514   6.842   5.217   3.103
 8850TIP3    H226515   6.831   5.122   2.985
 8851TIP3   OH226516   6.282   6.522   5.737
 8851TIP3    H126517   6.331   6.569   5.805
 8851TIP3    H226518   6.238   6.591   5.688
 8852TIP3   OH226519   2.520   1.020   4.873
 8852TIP3    H126520   2.553   0.942   4.828
 8852TIP3    H226521   2.583   1.089   4.853
 8853TIP3   OH226522   4.426   2.709   3.988
 8853TIP3    H126523   4.337   2.721   4.021
 8853TIP3    H226524   4.450   2.795   3.953
 8854TIP3   OH226525   4.365   5.739   5.714
 8854TIP3    H126526   4.456   5.763   5.731
 8854TIP3    H226527   4.328   5.724   5.801
 8855TIP3   OH226528   5.630   4.662   5.142
 8855TIP3    H126529   5.712   4.654   5.093
 8855TIP3    H226530   5.652   4.627   5.229
 8856TIP3   OH226531   0.010   0.334   5.645
 8856TIP3    H126532   0.028   0.295   5.559
 8856TIP3    H226533   0.068   0.411   5.649
 8857TIP3   OH226534   0.872   4.903   3.099
 8857TIP3    H126535   0.873   4.996   3.120
 8857TIP3    H226536   0.857   4.860   3.183
 8858TIP3   OH226537   3.866   3.848   0.928
 8858TIP3    H126538   3.794   3.786   0.936
 8858TIP3    H226539   3.887   3.848   0.834
 8859TIP3   OH226540   5.819   5.184   5.729
 8859TIP3    H126541   5.880   5.183   5.802
 8859TIP3    H226542   5.860   5.240   5.663
 8860TIP3   OH226543   0.428   2.016   4.010
 8860TIP3    H126544   0.487   1.942   4.027
 8860TIP3    H226545   0.432   2.028   3.915
 8861TIP3   OH226546   2.048   5.043   5.274
 8861TIP3    H126547   1.989   4.981   5.318
 8861TIP3    H226548   2.008   5.058   5.189
 8862TIP3   OH226549   3.605   5.308   1.695
 8862TIP3    H126550   3.519   5.281   1.727
 8862TIP3    H226551   3.586   5.359   1.617
 8863TIP3   OH226552   4.961   3.178   2.207
 8863TIP3    H126553   4.945   3.204   2.297
 8863TIP3    H226554   4.945   3.083   2.206
 8864TIP3   OH226555   6.086   1.795   1.220
 8864TIP3    H126556   6.167   1.781   1.270
 8864TIP3    H226557   6.105   1.759   1.134
 8865TIP3   OH226558   5.017   5.128   1.628
 8865TIP3    H126559   5.018   5.065   1.555
 8865TIP3    H226560   4.974   5.080   1.699
 8866TIP3   OH226561   6.079   4.212   5.149
 8866TIP3    H126562   6.112   4.173   5.068
 8866TIP3    H226563   6.036   4.293   5.121
 8867TIP3   OH226564   2.672   6.187   1.668
 8867TIP3    H126565   2.700   6.258   1.609
 8867TIP3    H226566   2.738   6.187   1.737
 8868TIP3   OH226567   6.784   5.680   0.422
 8868TIP3    H126568   6.872   5.650   0.445
 8868TIP3    H226569   6.732   5.664   0.502
 8869TIP3   OH226570   5.174   1.438   1.150
 8869TIP3    H126571   5.195   1.440   1.243
 8869TIP3    H226572   5.213   1.356   1.118
 8870TIP3   OH226573   5.922   4.019   0.609
 8870TIP3    H126574   5.965   4.088   0.660
 8870TIP3    H226575   5.909   4.058   0.523
 8871TIP3   OH226576   1.533   1.278   0.653
 8871TIP3    H126577   1.559   1.348   0.593
 8871TIP3    H226578   1.447   1.251   0.623
 8872TIP3   OH226579   3.965   2.831   4.709
 8872TIP3    H126580   3.912   2.752   4.703
 8872TIP3    H226581   4.044   2.811   4.658
 8873TIP3   OH226582   5.124   1.841   5.672
 8873TIP3    H126583   5.219   1.835   5.680
 8873TIP3    H226584   5.094   1.751   5.679
 8874TIP3   OH226585   6.053   3.338   0.333
 8874TIP3    H126586   6.018   3.336   0.244
 8874TIP3    H226587   5.976   3.330   0.389
 8875TIP3   OH226588   1.660   2.290   4.292
 8875TIP3    H126589   1.707   2.260   4.214
 8875TIP3    H226590   1.688   2.381   4.303
 8876TIP3   OH226591   4.462   1.352   2.044
 8876TIP3    H126592   4.397   1.306   2.098
 8876TIP3    H226593   4.412   1.421   2.001
 8877TIP3   OH226594   3.101   3.528   0.637
 8877TIP3    H126595   3.075   3.555   0.725
 8877TIP3    H226596   3.109   3.433   0.642
 8878TIP3   OH226597   3.993   1.701   4.067
 8878TIP3    H126598   4.065   1.737   4.119
 8878TIP3    H226599   3.986   1.610   4.094
 8879TIP3   OH226600   0.591   5.083   4.091
 8879TIP3    H126601   0.592   5.171   4.054
 8879TIP3    H226602   0.683   5.061   4.104
 8880TIP3   OH226603   2.418   5.568   5.891
 8880TIP3    H126604   2.459   5.514   5.958
 8880TIP3    H226605   2.328   5.581   5.922
 8881TIP3   OH226606   2.711   4.879   2.727
 8881TIP3    H126607   2.629   4.883   2.677
 8881TIP3    H226608   2.688   4.914   2.813
 8882TIP3   OH226609   5.155   1.227   5.384
 8882TIP3    H126610   5.059   1.221   5.377
 8882TIP3    H226611   5.175   1.188   5.469
 8883TIP3   OH226612   5.892   5.651   1.603
 8883TIP3    H126613   5.823   5.601   1.559
 8883TIP3    H226614   5.882   5.740   1.570
 8884TIP3   OH226615   3.048   5.283   4.564
 8884TIP3    H126616   2.959   5.280   4.530
 8884TIP3    H226617   3.051   5.216   4.631
 8885TIP3   OH226618   5.733   3.700   2.933
 8885TIP3    H126619   5.691   3.730   2.853
 8885TIP3    H226620   5.760   3.610   2.912
 8886TIP3   OH226621   0.100   0.238   3.462
 8886TIP3    H126622   0.164   0.270   3.525
 8886TIP3    H226623   0.015   0.268   3.497
 8887TIP3   OH226624   1.559   3.056   5.452
 8887TIP3    H126625   1.548   3.130   5.511
 8887TIP3    H226626   1.482   3.001   5.468
 8888TIP3   OH226627   4.578   1.682   4.997
 8888TIP3    H126628   4.518   1.667   4.924
 8888TIP3    H226629   4.542   1.630   5.069
 8889TIP3   OH226630   4.019   5.347   1.485
 8889TIP3    H126631   3.972   5.264   1.479
 8889TIP3    H226632   3.965   5.402   1.541
 8890TIP3   OH226633   5.117   1.538   3.520
 8890TIP3    H126634   5.148   1.589   3.595
 8890TIP3    H226635   5.025   1.519   3.540
 8891TIP3   OH226636   0.838   6.519   5.632
 8891TIP3    H126637   0.794   6.603   5.618
 8891TIP3    H226638   0.902   6.514   5.561
 8892TIP3   OH226639   0.219   0.711   4.744
 8892TIP3    H126640   0.130   0.680   4.762
 8892TIP3    H226641   0.237   0.774   4.813
 8893TIP3   OH226642   4.992   1.627   3.183
 8893TIP3    H126643   4.963   1.675   3.106
 8893TIP3    H226644   5.037   1.692   3.237
 8894TIP3   OH226645   7.084   5.790   0.732
 8894TIP3    H126646   7.157   5.778   0.793
 8894TIP3    H226647   7.103   5.873   0.688
 8895TIP3   OH226648   2.552   5.281   4.158
 8895TIP3    H126649   2.641   5.300   4.127
 8895TIP3    H226650   2.564   5.210   4.221
 8896TIP3   OH226651   3.263   1.381   5.502
 8896TIP3    H126652   3.258   1.461   5.451
 8896TIP3    H226653   3.180   1.378   5.550
 8897TIP3   OH226654   3.156   2.265   4.265
 8897TIP3    H126655   3.158   2.175   4.234
 8897TIP3    H226656   3.238   2.303   4.234
 8898TIP3   OH226657   3.166   3.248   0.583
 8898TIP3    H126658   3.108   3.176   0.558
 8898TIP3    H226659   3.219   3.212   0.655
 8899TIP3   OH226660   0.894   3.845   5.819
 8899TIP3    H126661   0.977   3.858   5.864
 8899TIP3    H226662   0.866   3.757   5.844
 8900TIP3   OH226663   7.041   5.753   4.506
 8900TIP3    H126664   7.024   5.675   4.454
 8900TIP3    H226665   7.135   5.768   4.497
 8901TIP3   OH226666   4.874   4.076   2.469
 8901TIP3    H126667   4.793   4.098   2.423
 8901TIP3    H226668   4.858   3.990   2.508
 8902TIP3   OH226669   3.889   6.125   1.162
 8902TIP3    H126670   3.974   6.130   1.207
 8902TIP3    H226671   3.885   6.034   1.130
 8903TIP3   OH226672   5.596   0.340   0.529
 8903TIP3    H126673   5.506   0.308   0.537
 8903TIP3    H226674   5.593   0.398   0.453
 8904TIP3   OH226675   6.282   0.566   3.561
 8904TIP3    H126676   6.286   0.483   3.609
 8904TIP3    H226677   6.192   0.596   3.572
 8905TIP3   OH226678   0.516   2.378   1.830
 8905TIP3    H126679   0.423   2.356   1.831
 8905TIP3    H226680   0.525   2.436   1.754
 8906TIP3   OH226681   2.641   0.871   5.515
 8906TIP3    H126682   2.659   0.783   5.550
 8906TIP3    H226683   2.568   0.858   5.455
 8907TIP3   OH226684   6.890   0.843   0.410
 8907TIP3    H126685   6.976   0.879   0.386
 8907TIP3    H226686   6.831   0.918   0.406
 8908TIP3   OH226687   6.136   3.674   1.037
 8908TIP3    H126688   6.149   3.608   0.969
 8908TIP3    H226689   6.222   3.714   1.048
 8909TIP3   OH226690   6.486   4.856   5.482
 8909TIP3    H126691   6.534   4.870   5.400
 8909TIP3    H226692   6.412   4.801   5.457
 8910TIP3   OH226693   4.810   1.926   0.957
 8910TIP3    H126694   4.749   1.899   0.889
 8910TIP3    H226695   4.874   1.855   0.962
 8911TIP3   OH226696   3.167   5.676   0.244
 8911TIP3    H126697   3.079   5.695   0.212
 8911TIP3    H226698   3.223   5.685   0.166
 8912TIP3   OH226699   4.651   1.192   0.534
 8912TIP3    H126700   4.690   1.245   0.603
 8912TIP3    H226701   4.574   1.151   0.575
 8913TIP3   OH226702   2.861   4.004   2.976
 8913TIP3    H126703   2.913   3.945   2.923
 8913TIP3    H226704   2.855   3.962   3.062
 8914TIP3   OH226705   6.637   0.079   5.097
 8914TIP3    H126706   6.569   0.014   5.118
 8914TIP3    H226707   6.644   0.133   5.175
 8915TIP3   OH226708   1.049   6.140   4.711
 8915TIP3    H126709   0.982   6.090   4.757
 8915TIP3    H226710   1.130   6.091   4.727
 8916TIP3   OH226711   1.132   0.571   0.466
 8916TIP3    H126712   1.172   0.491   0.432
 8916TIP3    H226713   1.191   0.641   0.439
 8917TIP3   OH226714   6.782   4.031   0.010
 8917TIP3    H126715   6.706   4.028   0.068
 8917TIP3    H226716   6.816   4.119   0.020
 8918TIP3   OH226717   0.626   2.037   5.072
 8918TIP3    H126718   0.621   2.126   5.039
 8918TIP3    H226719   0.566   1.987   5.015
 8919TIP3   OH226720   2.939   5.718   0.933
 8919TIP3    H126721   2.886   5.642   0.909
 8919TIP3    H226722   2.942   5.772   0.854
 8920TIP3   OH226723   2.666   1.198   2.555
 8920TIP3    H126724   2.608   1.253   2.502
 8920TIP3    H226725   2.707   1.138   2.493
 8921TIP3   OH226726   5.447   2.748   1.719
 8921TIP3    H126727   5.378   2.786   1.664
 8921TIP3    H226728   5.471   2.818   1.779
 8922TIP3   OH226729   2.634   4.567   4.628
 8922TIP3    H126730   2.723   4.586   4.599
 8922TIP3    H226731   2.645   4.514   4.707
 8923TIP3   OH226732   5.445   5.100   4.127
 8923TIP3    H126733   5.440   5.180   4.075
 8923TIP3    H226734   5.386   5.116   4.201
 8924TIP3   OH226735   4.076   4.827   5.370
 8924TIP3    H126736   4.089   4.920   5.387
 8924TIP3    H226737   4.030   4.824   5.286
 8925TIP3   OH226738   6.042   3.296   2.846
 8925TIP3    H126739   6.082   3.319   2.762
 8925TIP3    H226740   6.014   3.205   2.835
 8926TIP3   OH226741   3.992   0.676   1.702
 8926TIP3    H126742   3.959   0.747   1.756
 8926TIP3    H226743   3.943   0.683   1.620
 8927TIP3   OH226744   6.289   4.940   3.259
 8927TIP3    H126745   6.301   4.960   3.166
 8927TIP3    H226746   6.202   4.975   3.280
 8928TIP3   OH226747   1.824   2.503   5.221
 8928TIP3    H126748   1.906   2.515   5.269
 8928TIP3    H226749   1.824   2.410   5.198
 8929TIP3   OH226750   5.282   3.281   0.808
 8929TIP3    H126751   5.293   3.306   0.716
 8929TIP3    H226752   5.361   3.232   0.829
 8930TIP3   OH226753   2.193   2.229   0.315
 8930TIP3    H126754   2.243   2.190   0.387
 8930TIP3    H226755   2.253   2.291   0.274
 8931TIP3   OH226756   5.174   0.915   4.568
 8931TIP3    H126757   5.229   0.901   4.491
 8931TIP3    H226758   5.136   0.829   4.586
 8932TIP3   OH226759   3.229   3.587   2.026
 8932TIP3    H126760   3.155   3.562   2.082
 8932TIP3    H226761   3.226   3.683   2.023
 8933TIP3   OH226762   4.944   5.747   1.168
 8933TIP3    H126763   4.993   5.803   1.228
 8933TIP3    H226764   4.992   5.665   1.165
 8934TIP3   OH226765   6.822   0.991   5.307
 8934TIP3    H126766   6.851   1.068   5.357
 8934TIP3    H226767   6.732   0.977   5.334
 8935TIP3   OH226768   5.642   1.800   4.373
 8935TIP3    H126769   5.557   1.818   4.333
 8935TIP3    H226770   5.621   1.769   4.461
 8936TIP3   OH226771   4.374   6.061   0.055
 8936TIP3    H126772   4.416   5.979   0.031
 8936TIP3    H226773   4.290   6.060   0.009
 8937TIP3   OH226774   0.463   4.691   0.949
 8937TIP3    H126775   0.477   4.611   0.899
 8937TIP3    H226776   0.539   4.697   1.007
 8938TIP3   OH226777   4.399   2.641   5.125
 8938TIP3    H126778   4.355   2.672   5.204
 8938TIP3    H226779   4.481   2.690   5.123
 8939TIP3   OH226780   1.764   1.231   2.375
 8939TIP3    H126781   1.746   1.248   2.283
 8939TIP3    H226782   1.759   1.135   2.383
 8940TIP3   OH226783   6.083   3.321   0.730
 8940TIP3    H126784   6.036   3.249   0.689
 8940TIP3    H226785   6.015   3.373   0.772
 8941TIP3   OH226786   1.899   2.284   1.041
 8941TIP3    H126787   1.837   2.222   1.002
 8941TIP3    H226788   1.925   2.243   1.123
 8942TIP3   OH226789   6.711   0.852   2.368
 8942TIP3    H126790   6.739   0.762   2.381
 8942TIP3    H226791   6.785   0.894   2.324
 8943TIP3   OH226792  -0.012   5.784   3.491
 8943TIP3    H126793  -0.023   5.704   3.439
 8943TIP3    H226794  -0.035   5.854   3.430
 8944TIP3   OH226795   0.859   1.975   5.417
 8944TIP3    H126796   0.893   1.942   5.500
 8944TIP3    H226797   0.931   1.959   5.355
 8945TIP3   OH226798   2.336   5.772   3.894
 8945TIP3    H126799   2.258   5.717   3.887
 8945TIP3    H226800   2.397   5.734   3.830
 8946TIP3   OH226801   5.846   6.266   5.232
 8946TIP3    H126802   5.808   6.341   5.277
 8946TIP3    H226803   5.831   6.283   5.139
 8947TIP3   OH226804   1.769   3.012   2.576
 8947TIP3    H126805   1.717   2.931   2.583
 8947TIP3    H226806   1.735   3.055   2.497
 8948TIP3   OH226807   6.958   3.080   2.882
 8948TIP3    H126808   7.006   3.073   2.965
 8948TIP3    H226809   6.921   3.168   2.883
 8949TIP3   OH226810   0.943   0.182   5.693
 8949TIP3    H126811   0.978   0.268   5.670
 8949TIP3    H226812   1.004   0.120   5.654
 8950TIP3   OH226813   5.776   3.182   1.113
 8950TIP3    H126814   5.861   3.225   1.108
 8950TIP3    H226815   5.740   3.189   1.024
 8951TIP3   OH226816   4.515   5.793   1.950
 8951TIP3    H126817   4.421   5.795   1.964
 8951TIP3    H226818   4.543   5.709   1.985
 8952TIP3   OH226819   5.741   2.188   4.547
 8952TIP3    H126820   5.756   2.118   4.483
 8952TIP3    H226821   5.649   2.180   4.571
 8953TIP3   OH226822   0.702   4.944   0.933
 8953TIP3    H126823   0.718   4.873   0.995
 8953TIP3    H226824   0.675   4.899   0.853
 8954TIP3   OH226825   1.329   6.137   5.853
 8954TIP3    H126826   1.292   6.219   5.887
 8954TIP3    H226827   1.254   6.079   5.843
 8955TIP3   OH226828   4.645   4.139   0.680
 8955TIP3    H126829   4.678   4.139   0.770
 8955TIP3    H226830   4.714   4.182   0.630
 8956TIP3   OH226831   3.807   2.429   3.407
 8956TIP3    H126832   3.741   2.452   3.473
 8956TIP3    H226833   3.880   2.488   3.426
 8957TIP3   OH226834   5.037   3.153   4.327
 8957TIP3    H126835   5.049   3.228   4.386
 8957TIP3    H226836   5.123   3.113   4.321
 8958TIP3   OH226837   4.608   1.033   4.506
 8958TIP3    H126838   4.607   0.941   4.533
 8958TIP3    H226839   4.533   1.041   4.447
 8959TIP3   OH226840   2.680   3.249   3.217
 8959TIP3    H126841   2.705   3.246   3.309
 8959TIP3    H226842   2.587   3.268   3.217
 8960TIP3   OH226843   3.248   4.103   4.366
 8960TIP3    H126844   3.292   4.018   4.369
 8960TIP3    H226845   3.273   4.146   4.448
 8961TIP3   OH226846   6.857   4.559   1.383
 8961TIP3    H126847   6.929   4.621   1.394
 8961TIP3    H226848   6.785   4.613   1.351
 8962TIP3   OH226849   6.415   1.136   5.844
 8962TIP3    H126850   6.481   1.197   5.810
 8962TIP3    H226851   6.454   1.103   5.926
 8963TIP3   OH226852   4.812   5.212   0.824
 8963TIP3    H126853   4.847   5.210   0.735
 8963TIP3    H226854   4.718   5.203   0.813
 8964TIP3   OH226855   3.725   3.802   2.856
 8964TIP3    H126856   3.656   3.763   2.803
 8964TIP3    H226857   3.754   3.731   2.914
 8965TIP3   OH226858   3.946   0.231   3.213
 8965TIP3    H126859   3.972   0.186   3.132
 8965TIP3    H226860   3.883   0.297   3.184
 8966TIP3   OH226861   3.861   5.199   0.382
 8966TIP3    H126862   3.796   5.231   0.443
 8966TIP3    H226863   3.940   5.251   0.401
 8967TIP3   OH226864   1.239   6.067   1.672
 8967TIP3    H126865   1.282   6.052   1.588
 8967TIP3    H226866   1.311   6.072   1.735
 8968TIP3   OH226867   5.782   2.971   4.967
 8968TIP3    H126868   5.758   3.061   4.989
 8968TIP3    H226869   5.850   2.980   4.900
 8969TIP3   OH226870   4.497   4.705   0.206
 8969TIP3    H126871   4.491   4.786   0.257
 8969TIP3    H226872   4.548   4.646   0.261
 8970TIP3   OH226873   2.284   4.835   1.799
 8970TIP3    H126874   2.365   4.785   1.797
 8970TIP3    H226875   2.309   4.920   1.837
 8971TIP3   OH226876   6.236   4.130   0.973
 8971TIP3    H126877   6.238   4.225   0.987
 8971TIP3    H226878   6.327   4.107   0.953
 8972TIP3   OH226879   6.514   5.557   4.722
 8972TIP3    H126880   6.475   5.638   4.688
 8972TIP3    H226881   6.589   5.540   4.665
 8973TIP3   OH226882   6.704   3.671   2.177
 8973TIP3    H126883   6.749   3.740   2.227
 8973TIP3    H226884   6.705   3.595   2.235
 8974TIP3   OH226885   0.644   2.264   1.192
 8974TIP3    H126886   0.667   2.185   1.242
 8974TIP3    H226887   0.559   2.243   1.153
 8975TIP3   OH226888   6.153   2.207   2.791
 8975TIP3    H126889   6.220   2.193   2.724
 8975TIP3    H226890   6.073   2.224   2.742
 8976TIP3   OH226891   1.202   2.844   5.669
 8976TIP3    H126892   1.286   2.800   5.687
 8976TIP3    H226893   1.197   2.913   5.735
 8977TIP3   OH226894   3.886   0.855   1.870
 8977TIP3    H126895   3.933   0.929   1.908
 8977TIP3    H226896   3.796   0.867   1.898
 8978TIP3   OH226897   6.847   6.496   1.890
 8978TIP3    H126898   6.913   6.546   1.938
 8978TIP3    H226899   6.878   6.495   1.800
 8979TIP3   OH226900   5.864   5.884   2.724
 8979TIP3    H126901   5.803   5.835   2.668
 8979TIP3    H226902   5.808   5.928   2.788
 8980TIP3   OH226903   5.908   6.494   1.325
 8980TIP3    H126904   5.815   6.510   1.311
 8980TIP3    H226905   5.943   6.477   1.237
 8981TIP3   OH226906   2.471   0.307   1.580
 8981TIP3    H126907   2.533   0.340   1.646
 8981TIP3    H226908   2.515   0.322   1.497
 8982TIP3   OH226909   1.962   2.425   3.460
 8982TIP3    H126910   1.982   2.450   3.370
 8982TIP3    H226911   1.983   2.332   3.465
 8983TIP3   OH226912   6.451   0.326   4.357
 8983TIP3    H126913   6.404   0.345   4.439
 8983TIP3    H226914   6.445   0.408   4.307
 8984TIP3   OH226915   6.196   0.932   2.439
 8984TIP3    H126916   6.213   0.866   2.373
 8984TIP3    H226917   6.157   0.884   2.512
 8985TIP3   OH226918   2.524   6.347   4.010
 8985TIP3    H126919   2.549   6.386   4.093
 8985TIP3    H226920   2.541   6.253   4.021
 8986TIP3   OH226921   1.965   5.602   0.149
 8986TIP3    H126922   2.053   5.640   0.151
 8986TIP3    H226923   1.942   5.588   0.241
 8987TIP3   OH226924   4.940   0.277   3.318
 8987TIP3    H126925   5.007   0.322   3.267
 8987TIP3    H226926   4.888   0.348   3.357
 8988TIP3   OH226927   6.175   3.815   1.943
 8988TIP3    H126928   6.224   3.892   1.913
 8988TIP3    H226929   6.243   3.751   1.965
 8989TIP3   OH226930   0.135   6.267   3.858
 8989TIP3    H126931   0.118   6.177   3.830
 8989TIP3    H226932   0.161   6.312   3.778
 8990TIP3   OH226933   3.784   0.483   3.508
 8990TIP3    H126934   3.794   0.465   3.414
 8990TIP3    H226935   3.708   0.540   3.513
 8991TIP3   OH226936   6.143   2.092   1.251
 8991TIP3    H126937   6.195   2.054   1.180
 8991TIP3    H226938   6.053   2.091   1.217
 8992TIP3   OH226939   5.074   2.490   3.896
 8992TIP3    H126940   5.120   2.574   3.891
 8992TIP3    H226941   4.981   2.512   3.888
 8993TIP3   OH226942   3.044   3.852   2.864
 8993TIP3    H126943   3.131   3.820   2.888
 8993TIP3    H226944   3.056   3.893   2.779
 8994TIP3   OH226945   0.664   0.262   0.044
 8994TIP3    H126946   0.718   0.315  -0.014
 8994TIP3    H226947   0.648   0.181  -0.005
 8995TIP3   OH226948   5.483   2.219   4.637
 8995TIP3    H126949   5.421   2.165   4.686
 8995TIP3    H226950   5.428   2.275   4.582
 8996TIP3   OH226951   1.478   2.834   0.684
 8996TIP3    H126952   1.444   2.773   0.749
 8996TIP3    H226953   1.542   2.783   0.635
 8997TIP3   OH226954   6.789   0.568   2.818
 8997TIP3    H126955   6.709   0.609   2.786
 8997TIP3    H226956   6.767   0.475   2.825
 8998TIP3   OH226957   0.865   5.083   0.227
 8998TIP3    H126958   0.825   5.158   0.272
 8998TIP3    H226959   0.958   5.091   0.246
 8999TIP3   OH226960   5.804   1.786   2.522
 8999TIP3    H126961   5.788   1.757   2.612
 8999TIP3    H226962   5.850   1.713   2.480
 9000TIP3   OH226963   4.384   5.145   0.235
 9000TIP3    H126964   4.352   5.073   0.180
 9000TIP3    H226965   4.472   5.162   0.203
 9001TIP3   OH226966   1.645   2.269   2.228
 9001TIP3    H126967   1.577   2.202   2.229
 9001TIP3    H226968   1.726   2.222   2.244
 9002TIP3   OH226969   2.061   4.842   1.188
 9002TIP3    H126970   2.104   4.894   1.119
 9002TIP3    H226971   2.120   4.848   1.263
 9003TIP3   OH226972   6.757   1.106   5.779
 9003TIP3    H126973   6.708   1.165   5.723
 9003TIP3    H226974   6.713   1.110   5.863
 9004TIP3   OH226975   6.375   6.118   0.569
 9004TIP3    H126976   6.288   6.080   0.581
 9004TIP3    H226977   6.390   6.115   0.475
 9005TIP3   OH226978   5.299   4.813   4.208
 9005TIP3    H126979   5.374   4.856   4.168
 9005TIP3    H226980   5.223   4.860   4.172
 9006TIP3   OH226981   3.083   5.319   1.917
 9006TIP3    H126982   3.044   5.372   1.847
 9006TIP3    H226983   3.051   5.230   1.900
 9007TIP3   OH226984   5.240   2.961   2.090
 9007TIP3    H126985   5.323   2.914   2.096
 9007TIP3    H226986   5.189   2.912   2.025
 9008TIP3   OH226987   1.611   3.680   0.620
 9008TIP3    H126988   1.585   3.728   0.699
 9008TIP3    H226989   1.702   3.706   0.605
 9009TIP3   OH226990   6.756   5.076   3.400
 9009TIP3    H126991   6.805   4.995   3.398
 9009TIP3    H226992   6.805   5.133   3.459
 9010TIP3   OH226993   1.152   0.673   5.420
 9010TIP3    H126994   1.162   0.752   5.366
 9010TIP3    H226995   1.087   0.698   5.486
 9011TIP3   OH226996   4.048   4.351   0.339
 9011TIP3    H126997   4.107   4.276   0.347
 9011TIP3    H226998   4.103   4.421   0.303
 9012TIP3   OH226999   5.851   4.317   1.017
 9012TIP3    H127000   5.930   4.264   1.018
 9012TIP3    H227001   5.788   4.267   1.070
 9013TIP3   OH227002   6.348   0.744   4.958
 9013TIP3    H127003   6.369   0.793   4.878
 9013TIP3    H227004   6.253   0.731   4.953
 9014TIP3   OH227005   5.970   0.276   0.787
 9014TIP3    H127006   5.909   0.349   0.775
 9014TIP3    H227007   5.955   0.220   0.710
 9015TIP3   OH227008   7.137   6.434   3.958
 9015TIP3    H127009   7.074   6.384   3.905
 9015TIP3    H227010   7.223   6.405   3.928
 9016TIP3   OH227011   1.856   3.738   5.007
 9016TIP3    H127012   1.894   3.718   4.921
 9016TIP3    H227013   1.889   3.670   5.065
 9017TIP3   OH227014   2.413   3.804   0.755
 9017TIP3    H127015   2.462   3.757   0.687
 9017TIP3    H227016   2.477   3.818   0.825
 9018TIP3   OH227017   3.540   0.536   4.043
 9018TIP3    H127018   3.611   0.564   4.100
 9018TIP3    H227019   3.470   0.600   4.057
 9019TIP3   OH227020   3.987   1.665   5.041
 9019TIP3    H127021   3.906   1.713   5.024
 9019TIP3    H227022   3.972   1.577   5.005
 9020TIP3   OH227023   4.237   3.202   0.420
 9020TIP3    H127024   4.331   3.216   0.434
 9020TIP3    H227025   4.225   3.107   0.431
 9021TIP3   OH227026   6.429   5.787   3.042
 9021TIP3    H127027   6.499   5.752   2.986
 9021TIP3    H227028   6.475   5.817   3.121
 9022TIP3   OH227029   0.806   5.178   5.679
 9022TIP3    H127030   0.876   5.212   5.624
 9022TIP3    H227031   0.725   5.205   5.636
 9023TIP3   OH227032   4.343   0.802   1.104
 9023TIP3    H127033   4.298   0.784   1.021
 9023TIP3    H227034   4.285   0.765   1.171
 9024TIP3   OH227035   5.343   3.613   0.536
 9024TIP3    H127036   5.296   3.529   0.534
 9024TIP3    H227037   5.380   3.617   0.624
 9025TIP3   OH227038   1.208   3.030   1.766
 9025TIP3    H127039   1.254   3.108   1.796
 9025TIP3    H227040   1.269   2.987   1.706
 9026TIP3   OH227041   4.940   4.680   4.076
 9026TIP3    H127042   5.007   4.613   4.064
 9026TIP3    H227043   4.988   4.756   4.110
 9027TIP3   OH227044   0.905   1.968   4.668
 9027TIP3    H127045   0.955   2.029   4.722
 9027TIP3    H227046   0.823   2.013   4.650
 9028TIP3   OH227047   2.946   2.768   0.451
 9028TIP3    H127048   2.870   2.732   0.496
 9028TIP3    H227049   2.918   2.856   0.424
 9029TIP3   OH227050   2.375   6.677  -0.001
 9029TIP3    H127051   2.289   6.720  -0.006
 9029TIP3    H227052   2.354   6.587   0.023
 9030TIP3   OH227053   6.551   6.350   1.558
 9030TIP3    H127054   6.559   6.441   1.531
 9030TIP3    H227055   6.551   6.354   1.654
 9031TIP3   OH227056   3.075   5.467   3.665
 9031TIP3    H127057   3.057   5.458   3.759
 9031TIP3    H227058   2.993   5.501   3.628
 9032TIP3   OH227059   4.262   4.242   5.499
 9032TIP3    H127060   4.174   4.279   5.505
 9032TIP3    H227061   4.252   4.168   5.439
 9033TIP3   OH227062   3.454   1.307   4.337
 9033TIP3    H127063   3.430   1.367   4.266
 9033TIP3    H227064   3.381   1.247   4.344
 9034TIP3   OH227065   1.737   5.483   4.691
 9034TIP3    H127066   1.721   5.389   4.699
 9034TIP3    H227067   1.681   5.522   4.758
 9035TIP3   OH227068   3.117   4.822   1.199
 9035TIP3    H127069   3.156   4.892   1.147
 9035TIP3    H227070   3.121   4.745   1.143
 9036TIP3   OH227071   6.533   6.009   4.598
 9036TIP3    H127072   6.608   6.001   4.538
 9036TIP3    H227073   6.547   5.940   4.663
 9037TIP3   OH227074   4.899   6.355   0.573
 9037TIP3    H127075   4.930   6.364   0.663
 9037TIP3    H227076   4.964   6.401   0.520
 9038TIP3   OH227077   6.524   4.739   0.201
 9038TIP3    H127078   6.456   4.781   0.254
 9038TIP3    H227079   6.489   4.652   0.183
 9039TIP3   OH227080   2.818   1.972   1.200
 9039TIP3    H127081   2.781   1.959   1.287
 9039TIP3    H227082   2.748   1.943   1.141
 9040TIP3   OH227083   3.919   3.323   5.853
 9040TIP3    H127084   3.874   3.339   5.936
 9040TIP3    H227085   4.005   3.363   5.863
 9041TIP3   OH227086   4.482   2.552   4.227
 9041TIP3    H127087   4.407   2.588   4.274
 9041TIP3    H227088   4.449   2.536   4.138
 9042TIP3   OH227089   5.188   4.037   1.860
 9042TIP3    H127090   5.115   4.066   1.916
 9042TIP3    H227091   5.266   4.053   1.913
 9043TIP3   OH227092   5.065   0.883   0.391
 9043TIP3    H127093   5.018   0.845   0.316
 9043TIP3    H227094   5.155   0.893   0.360
 9044TIP3   OH227095   1.132   1.837   1.170
 9044TIP3    H127096   1.180   1.809   1.247
 9044TIP3    H227097   1.053   1.782   1.170
 9045TIP3   OH227098   0.334   0.216   4.005
 9045TIP3    H127099   0.371   0.182   4.086
 9045TIP3    H227100   0.396   0.283   3.976
 9046TIP3   OH227101   1.263   3.764   0.361
 9046TIP3    H127102   1.198   3.733   0.424
 9046TIP3    H227103   1.347   3.733   0.395
 9047TIP3   OH227104   3.966   2.504   4.345
 9047TIP3    H127105   3.975   2.409   4.337
 9047TIP3    H227106   3.915   2.517   4.424
 9048TIP3   OH227107   0.082   4.012   3.829
 9048TIP3    H127108   0.023   4.086   3.814
 9048TIP3    H227109   0.027   3.945   3.870
 9049TIP3   OH227110   3.298   0.102   4.531
 9049TIP3    H127111   3.282   0.008   4.535
 9049TIP3    H227112   3.390   0.112   4.557
 9050TIP3   OH227113   4.346   6.436   2.607
 9050TIP3    H127114   4.406   6.416   2.535
 9050TIP3    H227115   4.361   6.529   2.625
 9051TIP3   OH227116   6.319   5.734   5.079
 9051TIP3    H127117   6.340   5.729   5.173
 9051TIP3    H227118   6.231   5.773   5.077
 9052TIP3   OH227119   4.353   2.964   0.529
 9052TIP3    H127120   4.282   2.906   0.557
 9052TIP3    H227121   4.398   2.916   0.460
 9053TIP3   OH227122   3.099   4.040   1.820
 9053TIP3    H127123   3.124   4.025   1.911
 9053TIP3    H227124   3.095   3.953   1.781
 9054TIP3   OH227125   4.046   3.128   4.517
 9054TIP3    H127126   4.050   3.211   4.563
 9054TIP3    H227127   4.118   3.076   4.553
 9055TIP3   OH227128   3.218   1.367   0.446
 9055TIP3    H127129   3.186   1.434   0.386
 9055TIP3    H227130   3.138   1.330   0.485
 9056TIP3   OH227131   5.496   5.058   3.250
 9056TIP3    H127132   5.432   5.035   3.317
 9056TIP3    H227133   5.499   5.153   3.252
 9057TIP3   OH227134   3.859   0.396   1.487
 9057TIP3    H127135   3.820   0.403   1.400
 9057TIP3    H227136   3.886   0.304   1.493
 9058TIP3   OH227137   2.785   1.186   5.121
 9058TIP3    H127138   2.865   1.136   5.106
 9058TIP3    H227139   2.815   1.272   5.150
 9059TIP3   OH227140   0.808   2.578   1.758
 9059TIP3    H127141   0.857   2.555   1.837
 9059TIP3    H227142   0.750   2.649   1.786
 9060TIP3   OH227143   4.816   4.842   0.789
 9060TIP3    H127144   4.905   4.871   0.770
 9060TIP3    H227145   4.807   4.759   0.744
 9061TIP3   OH227146   6.675   6.537   4.035
 9061TIP3    H127147   6.734   6.606   4.005
 9061TIP3    H227148   6.625   6.512   3.958
 9062TIP3   OH227149   0.088   1.561   1.402
 9062TIP3    H127150   0.042   1.636   1.440
 9062TIP3    H227151   0.137   1.524   1.476
 9063TIP3   OH227152   4.612   0.548   0.044
 9063TIP3    H127153   4.702   0.561   0.017
 9063TIP3    H227154   4.611   0.461   0.084
 9064TIP3   OH227155   6.600   1.516   3.216
 9064TIP3    H127156   6.656   1.519   3.293
 9064TIP3    H227157   6.518   1.557   3.244
 9065TIP3   OH227158   4.847   1.299   3.930
 9065TIP3    H127159   4.898   1.222   3.903
 9065TIP3    H227160   4.826   1.344   3.848
 9066TIP3   OH227161   6.007   3.819   5.408
 9066TIP3    H127162   5.915   3.794   5.410
 9066TIP3    H227163   6.014   3.891   5.471
 9067TIP3   OH227164   3.435   4.329   2.039
 9067TIP3    H127165   3.489   4.250   2.037
 9067TIP3    H227166   3.371   4.316   1.969
 9068TIP3   OH227167   3.023   6.315   3.218
 9068TIP3    H127168   2.961   6.335   3.288
 9068TIP3    H227169   2.985   6.240   3.172
 9069TIP3   OH227170   0.100   1.641   4.349
 9069TIP3    H127171   0.083   1.629   4.443
 9069TIP3    H227172   0.156   1.719   4.345
 9070TIP3   OH227173   0.968   2.410   4.885
 9070TIP3    H127174   0.904   2.358   4.935
 9070TIP3    H227175   0.915   2.455   4.819
 9071TIP3   OH227176   6.678   5.299   5.753
 9071TIP3    H127177   6.621   5.280   5.826
 9071TIP3    H227178   6.760   5.254   5.774
 9072TIP3   OH227179   0.810   5.538   3.903
 9072TIP3    H127180   0.900   5.536   3.934
 9072TIP3    H227181   0.765   5.597   3.963
 9073TIP3   OH227182   4.358   4.040   3.382
 9073TIP3    H127183   4.430   4.028   3.320
 9073TIP3    H227184   4.296   3.970   3.362
 9074TIP3   OH227185   3.545   5.617   0.824
 9074TIP3    H127186   3.557   5.668   0.904
 9074TIP3    H227187   3.468   5.563   0.842
 9075TIP3   OH227188   4.611   5.627   3.763
 9075TIP3    H127189   4.681   5.569   3.734
 9075TIP3    H227190   4.639   5.657   3.849
 9076TIP3   OH227191   3.380   3.783   5.606
 9076TIP3    H127192   3.320   3.775   5.532
 9076TIP3    H227193   3.448   3.718   5.590
 9077TIP3   OH227194   6.527   3.926   3.669
 9077TIP3    H127195   6.582   3.868   3.617
 9077TIP3    H227196   6.460   3.957   3.608
 9078TIP3   OH227197   3.333   3.995   1.285
 9078TIP3    H127198   3.296   4.074   1.245
 9078TIP3    H227199   3.366   3.944   1.211
 9079TIP3   OH227200   4.263   1.008   5.768
 9079TIP3    H127201   4.225   1.095   5.755
 9079TIP3    H227202   4.189   0.948   5.755
 9080TIP3   OH227203   1.933   2.941   1.185
 9080TIP3    H127204   1.953   3.000   1.111
 9080TIP3    H227205   1.907   3.000   1.256
 9081TIP3   OH227206   6.694   3.321   3.497
 9081TIP3    H127207   6.604   3.350   3.489
 9081TIP3    H227208   6.714   3.280   3.412
 9082TIP3   OH227209   1.599   2.438   3.958
 9082TIP3    H127210   1.589   2.359   3.906
 9082TIP3    H227211   1.677   2.423   4.011
 9083TIP3   OH227212   0.216   0.458   3.676
 9083TIP3    H127213   0.261   0.529   3.723
 9083TIP3    H227214   0.240   0.379   3.724
 9084TIP3   OH227215   3.709   5.667   4.367
 9084TIP3    H127216   3.757   5.620   4.435
 9084TIP3    H227217   3.766   5.740   4.343
 9085TIP3   OH227218   1.015   4.661   1.826
 9085TIP3    H127219   0.941   4.654   1.888
 9085TIP3    H227220   1.029   4.755   1.817
 9086TIP3   OH227221   2.416   2.982   3.734
 9086TIP3    H127222   2.329   3.017   3.713
 9086TIP3    H227223   2.468   2.998   3.656
 9087TIP3   OH227224   2.670   1.002   0.620
 9087TIP3    H127225   2.639   0.955   0.697
 9087TIP3    H227226   2.756   0.965   0.602
 9088TIP3   OH227227   1.842   1.294   1.348
 9088TIP3    H127228   1.760   1.275   1.394
 9088TIP3    H227229   1.894   1.214   1.357
 9089TIP3   OH227230   1.880   4.601   1.401
 9089TIP3    H127231   1.839   4.660   1.464
 9089TIP3    H227232   1.808   4.560   1.354
 9090TIP3   OH227233   3.890   6.344   5.659
 9090TIP3    H127234   3.922   6.259   5.630
 9090TIP3    H227235   3.820   6.366   5.598
 9091TIP3   OH227236   1.657   3.692   5.695
 9091TIP3    H127237   1.630   3.740   5.617
 9091TIP3    H227238   1.745   3.660   5.675
 9092TIP3   OH227239   1.958   1.843   4.095
 9092TIP3    H127240   1.969   1.760   4.048
 9092TIP3    H227241   2.031   1.897   4.066
 9093TIP3   OH227242   6.494   2.684   0.972
 9093TIP3    H127243   6.431   2.755   0.964
 9093TIP3    H227244   6.479   2.630   0.894
 9094TIP3   OH227245   0.130   6.169   1.051
 9094TIP3    H127246   0.085   6.253   1.040
 9094TIP3    H227247   0.136   6.133   0.963
 9095TIP3   OH227248   7.064   0.406   3.309
 9095TIP3    H127249   7.071   0.494   3.345
 9095TIP3    H227250   6.995   0.414   3.242
 9096TIP3   OH227251   0.159   5.442   2.626
 9096TIP3    H127252   0.133   5.490   2.548
 9096TIP3    H227253   0.172   5.352   2.596
 9097TIP3   OH227254   0.179   1.091   2.380
 9097TIP3    H127255   0.098   1.081   2.331
 9097TIP3    H227256   0.155   1.142   2.457
 9098TIP3   OH227257   0.055   0.520   4.215
 9098TIP3    H127258   0.130   0.460   4.218
 9098TIP3    H227259   0.010   0.506   4.298
 9099TIP3   OH227260   1.603   1.882   0.936
 9099TIP3    H127261   1.598   1.791   0.964
 9099TIP3    H227262   1.666   1.882   0.864
 9100TIP3   OH227263   0.172   0.304   1.081
 9100TIP3    H127264   0.124   0.222   1.065
 9100TIP3    H227265   0.134   0.366   1.018
 9101TIP3   OH227266   3.525   0.474   5.525
 9101TIP3    H127267   3.522   0.570   5.516
 9101TIP3    H227268   3.585   0.459   5.597
 9102TIP3   OH227269   6.429   3.708   0.416
 9102TIP3    H127270   6.349   3.744   0.454
 9102TIP3    H227271   6.414   3.711   0.321
 9103TIP3   OH227272   0.565   1.447   4.039
 9103TIP3    H127273   0.497   1.491   4.091
 9103TIP3    H227274   0.544   1.469   3.948
 9104TIP3   OH227275   0.107   0.401   2.622
 9104TIP3    H127276   0.018   0.435   2.628
 9104TIP3    H227277   0.100   0.323   2.567
 9105TIP3   OH227278   3.103   0.260   1.180
 9105TIP3    H127279   3.155   0.195   1.133
 9105TIP3    H227280   3.091   0.331   1.116
 9106TIP3   OH227281   1.357   0.114   3.603
 9106TIP3    H127282   1.376   0.138   3.694
 9106TIP3    H227283   1.264   0.132   3.592
 9107TIP3   OH227284   3.670   0.830   0.144
 9107TIP3    H127285   3.711   0.749   0.114
 9107TIP3    H227286   3.712   0.850   0.227
 9108TIP3   OH227287   1.694   6.579   2.922
 9108TIP3    H127288   1.748   6.538   2.855
 9108TIP3    H227289   1.662   6.659   2.882
 9109TIP3   OH227290   5.160   3.796   4.924
 9109TIP3    H127291   5.150   3.874   4.869
 9109TIP3    H227292   5.125   3.724   4.871
 9110TIP3   OH227293   0.478   2.570   5.695
 9110TIP3    H127294   0.459   2.605   5.608
 9110TIP3    H227295   0.563   2.527   5.685
 9111TIP3   OH227296   6.006   4.713   0.463
 9111TIP3    H127297   6.024   4.642   0.402
 9111TIP3    H227298   5.913   4.733   0.450
 9112TIP3   OH227299   5.340   5.919   5.312
 9112TIP3    H127300   5.309   5.880   5.393
 9112TIP3    H227301   5.413   5.864   5.285
 9113TIP3   OH227302   0.449   3.251   4.674
 9113TIP3    H127303   0.432   3.310   4.601
 9113TIP3    H227304   0.526   3.289   4.717
 9114TIP3   OH227305   4.900   4.280   4.180
 9114TIP3    H127306   4.894   4.330   4.098
 9114TIP3    H227307   4.979   4.312   4.223
 9115TIP3   OH227308   4.253   6.178   3.200
 9115TIP3    H127309   4.196   6.125   3.144
 9115TIP3    H227310   4.308   6.114   3.245
 9116TIP3   OH227311   2.611   6.258   5.007
 9116TIP3    H127312   2.681   6.208   5.048
 9116TIP3    H227313   2.549   6.275   5.078
 9117TIP3   OH227314   6.239   5.446   5.316
 9117TIP3    H127315   6.174   5.503   5.277
 9117TIP3    H227316   6.237   5.367   5.262
 9118TIP3   OH227317   0.711   4.562   0.266
 9118TIP3    H127318   0.695   4.650   0.301
 9118TIP3    H227319   0.696   4.504   0.340
 9119TIP3   OH227320   6.189   2.948   0.552
 9119TIP3    H127321   6.164   3.025   0.603
 9119TIP3    H227322   6.253   2.902   0.606
 9120TIP3   OH227323   6.743   0.870   4.284
 9120TIP3    H127324   6.825   0.856   4.236
 9120TIP3    H227325   6.752   0.957   4.322
 9121TIP3   OH227326   2.914   5.837   3.776
 9121TIP3    H127327   2.871   5.754   3.797
 9121TIP3    H227328   2.939   5.873   3.861
 9122TIP3   OH227329   4.288   5.088   2.029
 9122TIP3    H127330   4.283   5.113   2.121
 9122TIP3    H227331   4.226   5.147   1.985
 9123TIP3   OH227332   5.649   5.626   0.007
 9123TIP3    H127333   5.558   5.621  -0.023
 9123TIP3    H227334   5.653   5.567   0.082
 9124TIP3   OH227335   3.933   5.908   3.374
 9124TIP3    H127336   3.909   5.818   3.351
 9124TIP3    H227337   3.925   5.956   3.292
 9125TIP3   OH227338   3.151   4.446   4.515
 9125TIP3    H127339   3.225   4.385   4.511
 9125TIP3    H227340   3.185   4.528   4.478
 9126TIP3   OH227341   4.306   3.556   1.953
 9126TIP3    H127342   4.297   3.541   2.047
 9126TIP3    H227343   4.220   3.589   1.926
 9127TIP3   OH227344   6.140   4.790   1.558
 9127TIP3    H127345   6.061   4.804   1.610
 9127TIP3    H227346   6.122   4.835   1.475
 9128TIP3   OH227347   4.379   0.489   0.671
 9128TIP3    H127348   4.324   0.479   0.748
 9128TIP3    H227349   4.393   0.584   0.664
 9129TIP3   OH227350   5.951   0.845   5.247
 9129TIP3    H127351   5.980   0.872   5.334
 9129TIP3    H227352   5.920   0.755   5.260
 9130TIP3   OH227353   0.304   6.768   5.752
 9130TIP3    H127354   0.245   6.693   5.758
 9130TIP3    H227355   0.275   6.828   5.821
 9131TIP3   OH227356   1.958   5.346   5.515
 9131TIP3    H127357   2.033   5.397   5.484
 9131TIP3    H227358   1.883   5.405   5.506
 9132TIP3   OH227359   6.550   5.208   0.998
 9132TIP3    H127360   6.563   5.120   1.032
 9132TIP3    H227361   6.609   5.263   1.050
 9133TIP3   OH227362   2.717   4.903   4.948
 9133TIP3    H127363   2.665   4.823   4.961
 9133TIP3    H227364   2.653   4.973   4.940
 9134TIP3   OH227365   6.522   3.870   4.046
 9134TIP3    H127366   6.573   3.951   4.044
 9134TIP3    H227367   6.509   3.853   4.140
 9135TIP3   OH227368   1.823   6.626   5.391
 9135TIP3    H127369   1.772   6.550   5.419
 9135TIP3    H227370   1.798   6.695   5.452
 9136TIP3   OH227371   0.543   4.347   1.287
 9136TIP3    H127372   0.582   4.350   1.200
 9136TIP3    H227373   0.450   4.333   1.272
 9137TIP3   OH227374   1.781   6.640   0.547
 9137TIP3    H127375   1.716   6.685   0.493
 9137TIP3    H227376   1.781   6.688   0.630
 9138TIP3   OH227377   2.720   3.228   0.478
 9138TIP3    H127378   2.796   3.286   0.487
 9138TIP3    H227379   2.716   3.209   0.384
 9139TIP3   OH227380   2.142   4.689   5.226
 9139TIP3    H127381   2.205   4.668   5.296
 9139TIP3    H227382   2.062   4.713   5.273
 9140TIP3   OH227383   4.687   3.875   5.400
 9140TIP3    H127384   4.633   3.902   5.474
 9140TIP3    H227385   4.696   3.780   5.411
 9141TIP3   OH227386   4.913   5.034   2.579
 9141TIP3    H127387   4.818   5.032   2.585
 9141TIP3    H227388   4.941   5.092   2.650
 9142TIP3   OH227389   2.284   3.502   0.584
 9142TIP3    H127390   2.281   3.513   0.489
 9142TIP3    H227391   2.348   3.433   0.598
 9143TIP3   OH227392   0.082   0.945   2.799
 9143TIP3    H127393   0.091   1.023   2.854
 9143TIP3    H227394  -0.012   0.931   2.792
 9144TIP3   OH227395   6.092   6.704   2.014
 9144TIP3    H127396   6.092   6.627   2.071
 9144TIP3    H227397   6.089   6.779   2.074
 9145TIP3   OH227398   3.294   5.922   4.409
 9145TIP3    H127399   3.251   6.006   4.425
 9145TIP3    H227400   3.252   5.862   4.471
 9146TIP3   OH227401   3.444   1.655   3.431
 9146TIP3    H127402   3.513   1.661   3.496
 9146TIP3    H227403   3.460   1.729   3.372
 9147TIP3   OH227404   0.167   3.071   0.988
 9147TIP3    H127405   0.243   3.047   1.041
 9147TIP3    H227406   0.105   3.109   1.051
 9148TIP3   OH227407   0.881   6.244   1.421
 9148TIP3    H127408   0.940   6.315   1.442
 9148TIP3    H227409   0.823   6.237   1.496
 9149TIP3   OH227410   5.568   5.119   5.265
 9149TIP3    H127411   5.517   5.038   5.260
 9149TIP3    H227412   5.615   5.112   5.348
 9150TIP3   OH227413   0.049   5.473   0.026
 9150TIP3    H127414   0.053   5.515  -0.060
 9150TIP3    H227415   0.136   5.433   0.037
 9151TIP3   OH227416   4.747   6.442   0.832
 9151TIP3    H127417   4.757   6.427   0.738
 9151TIP3    H227418   4.836   6.446   0.866
 9152TIP3   OH227419   2.406   6.161   3.143
 9152TIP3    H127420   2.367   6.153   3.230
 9152TIP3    H227421   2.457   6.242   3.147
 9153TIP3   OH227422   6.153   3.108   0.017
 9153TIP3    H127423   6.117   3.152  -0.061
 9153TIP3    H227424   6.150   3.174   0.085
 9154TIP3   OH227425   4.062   4.505   4.342
 9154TIP3    H127426   4.128   4.539   4.404
 9154TIP3    H227427   3.982   4.555   4.364
 9155TIP3   OH227428   1.023   3.469   2.744
 9155TIP3    H127429   1.004   3.554   2.783
 9155TIP3    H227430   1.082   3.427   2.806
 9156TIP3   OH227431   3.094   4.603   5.731
 9156TIP3    H127432   3.045   4.639   5.658
 9156TIP3    H227433   3.186   4.611   5.705
 9157TIP3   OH227434   0.566   6.262   1.378
 9157TIP3    H127435   0.484   6.291   1.418
 9157TIP3    H227436   0.631   6.268   1.448
 9158TIP3   OH227437   4.306   2.762   0.815
 9158TIP3    H127438   4.362   2.754   0.737
 9158TIP3    H227439   4.342   2.698   0.877
 9159TIP3   OH227440   6.279   6.536   0.221
 9159TIP3    H127441   6.351   6.582   0.263
 9159TIP3    H227442   6.279   6.449   0.261
 9160TIP3   OH227443   3.288   0.576   1.319
 9160TIP3    H127444   3.300   0.503   1.259
 9160TIP3    H227445   3.205   0.557   1.363
 9161TIP3   OH227446   2.402   3.214   1.265
 9161TIP3    H127447   2.493   3.231   1.289
 9161TIP3    H227448   2.352   3.234   1.344
 9162TIP3   OH227449   1.534   1.678   3.813
 9162TIP3    H127450   1.511   1.587   3.833
 9162TIP3    H227451   1.629   1.682   3.825
 9163TIP3   OH227452   3.111   3.541   4.556
 9163TIP3    H127453   3.050   3.489   4.504
 9163TIP3    H227454   3.189   3.485   4.563
 9164TIP3   OH227455   0.780   0.644   0.352
 9164TIP3    H127456   0.774   0.735   0.321
 9164TIP3    H227457   0.744   0.648   0.441
 9165TIP3   OH227458   0.423   3.915   1.931
 9165TIP3    H127459   0.467   3.831   1.947
 9165TIP3    H227460   0.339   3.908   1.975
 9166TIP3   OH227461   1.847   6.394   3.422
 9166TIP3    H127462   1.862   6.480   3.384
 9166TIP3    H227463   1.906   6.391   3.498
 9167TIP3   OH227464   5.947   3.472   1.791
 9167TIP3    H127465   5.911   3.453   1.704
 9167TIP3    H227466   6.029   3.422   1.794
 9168TIP3   OH227467   1.796   4.806   1.574
 9168TIP3    H127468   1.767   4.886   1.530
 9168TIP3    H227469   1.887   4.823   1.597
 9169TIP3   OH227470   3.084   3.300   0.920
 9169TIP3    H127471   3.104   3.393   0.928
 9169TIP3    H227472   2.993   3.297   0.891
 9170TIP3   OH227473   2.368   2.154   2.533
 9170TIP3    H127474   2.317   2.144   2.453
 9170TIP3    H227475   2.430   2.081   2.532
 9171TIP3   OH227476   5.041   3.091   1.798
 9171TIP3    H127477   5.132   3.083   1.772
 9171TIP3    H227478   5.040   3.156   1.868
 9172TIP3   OH227479   0.864   4.911   0.548
 9172TIP3    H127480   0.920   4.953   0.483
 9172TIP3    H227481   0.781   4.958   0.541
 9173TIP3   OH227482   3.794   3.597   3.652
 9173TIP3    H127483   3.734   3.528   3.680
 9173TIP3    H227484   3.866   3.551   3.608
 9174TIP3   OH227485   1.698   1.836   4.010
 9174TIP3    H127486   1.783   1.866   4.043
 9174TIP3    H227487   1.656   1.795   4.086
 9175TIP3   OH227488   6.765   2.618   2.960
 9175TIP3    H127489   6.756   2.644   3.052
 9175TIP3    H227490   6.802   2.695   2.917
 9176TIP3   OH227491   4.032   4.461   4.665
 9176TIP3    H127492   4.109   4.405   4.653
 9176TIP3    H227493   4.068   4.549   4.677
 9177TIP3   OH227494   6.064   5.335   3.098
 9177TIP3    H127495   5.982   5.371   3.133
 9177TIP3    H227496   6.124   5.409   3.098
 9178TIP3   OH227497   1.137   3.736   2.566
 9178TIP3    H127498   1.216   3.778   2.599
 9178TIP3    H227499   1.077   3.809   2.547
 9179TIP3   OH227500   1.883   2.543   1.021
 9179TIP3    H127501   1.883   2.447   1.020
 9179TIP3    H227502   1.921   2.566   1.106
 9180TIP3   OH227503   6.120   2.460   2.384
 9180TIP3    H127504   6.109   2.498   2.471
 9180TIP3    H227505   6.133   2.367   2.399
 9181TIP3   OH227506   5.944   1.567   2.450
 9181TIP3    H127507   5.997   1.489   2.437
 9181TIP3    H227508   5.902   1.555   2.535
 9182TIP3   OH227509   7.225   5.935   4.773
 9182TIP3    H127510   7.197   5.984   4.696
 9182TIP3    H227511   7.148   5.934   4.830
 9183TIP3   OH227512   3.995   6.522   2.188
 9183TIP3    H127513   4.022   6.571   2.110
 9183TIP3    H227514   4.024   6.576   2.262
 9184TIP3   OH227515   5.122   1.151   4.973
 9184TIP3    H127516   5.172   1.115   4.900
 9184TIP3    H227517   5.162   1.113   5.051
 9185TIP3   OH227518   3.020   0.923   0.834
 9185TIP3    H127519   2.979   0.841   0.861
 9185TIP3    H227520   3.102   0.896   0.793
 9186TIP3   OH227521   3.288   2.361   3.146
 9186TIP3    H127522   3.219   2.388   3.085
 9186TIP3    H227523   3.241   2.330   3.223
 9187TIP3   OH227524   3.520   3.181   4.096
 9187TIP3    H127525   3.479   3.243   4.036
 9187TIP3    H227526   3.614   3.196   4.086
 9188TIP3   OH227527   3.192   6.050   4.742
 9188TIP3    H127528   3.113   6.040   4.796
 9188TIP3    H227529   3.244   5.972   4.760
 9189TIP3   OH227530   6.357   5.477   3.200
 9189TIP3    H127531   6.411   5.405   3.167
 9189TIP3    H227532   6.331   5.526   3.121
 9190TIP3   OH227533   7.069   6.720   2.423
 9190TIP3    H127534   7.090   6.654   2.490
 9190TIP3    H227535   7.142   6.715   2.361
 9191TIP3   OH227536   4.999   6.575   1.492
 9191TIP3    H127537   5.010   6.626   1.411
 9191TIP3    H227538   5.083   6.531   1.503
 9192TIP3   OH227539   5.442   5.120   3.777
 9192TIP3    H127540   5.538   5.117   3.770
 9192TIP3    H227541   5.426   5.159   3.863
 9193TIP3   OH227542   2.081   4.498   2.872
 9193TIP3    H127543   2.114   4.431   2.932
 9193TIP3    H227544   2.105   4.466   2.785
 9194TIP3   OH227545   5.334   0.883   0.303
 9194TIP3    H127546   5.332   0.789   0.286
 9194TIP3    H227547   5.359   0.922   0.219
 9195TIP3   OH227548   1.877   6.563   3.125
 9195TIP3    H127549   1.955   6.518   3.093
 9195TIP3    H227550   1.816   6.559   3.051
 9196TIP3   OH227551   5.381   6.690   4.203
 9196TIP3    H127552   5.457   6.631   4.208
 9196TIP3    H227553   5.306   6.634   4.221
 9197TIP3   OH227554   3.360   2.447   4.127
 9197TIP3    H127555   3.410   2.394   4.065
 9197TIP3    H227556   3.314   2.510   4.072
 9198TIP3   OH227557   3.714   2.827   2.784
 9198TIP3    H127558   3.694   2.912   2.745
 9198TIP3    H227559   3.694   2.764   2.714
 9199TIP3   OH227560   0.271   4.437   0.772
 9199TIP3    H127561   0.191   4.407   0.728
 9199TIP3    H227562   0.307   4.357   0.812
 9200TIP3   OH227563   6.918   3.329   5.270
 9200TIP3    H127564   6.986   3.389   5.301
 9200TIP3    H227565   6.858   3.384   5.220
 9201TIP3   OH227566   7.012   3.420   0.253
 9201TIP3    H127567   7.100   3.411   0.288
 9201TIP3    H227568   6.988   3.332   0.224
 9202TIP3   OH227569   5.105   4.044   4.793
 9202TIP3    H127570   5.090   4.106   4.722
 9202TIP3    H227571   5.095   4.096   4.873
 9203TIP3   OH227572   6.790   3.384   3.238
 9203TIP3    H127573   6.712   3.361   3.186
 9203TIP3    H227574   6.772   3.473   3.270
 9204TIP3   OH227575   6.567   2.380   4.807
 9204TIP3    H127576   6.605   2.303   4.849
 9204TIP3    H227577   6.519   2.345   4.732
 9205TIP3   OH227578   4.328   6.424   3.073
 9205TIP3    H127579   4.269   6.434   2.999
 9205TIP3    H227580   4.302   6.342   3.115
 9206TIP3   OH227581   6.601   4.229   4.326
 9206TIP3    H127582   6.506   4.227   4.317
 9206TIP3    H227583   6.633   4.241   4.236
 9207TIP3   OH227584   3.412   0.855  -0.004
 9207TIP3    H127585   3.420   0.759  -0.004
 9207TIP3    H227586   3.319   0.871  -0.018
 9208TIP3   OH227587   0.177   2.266   3.119
 9208TIP3    H127588   0.132   2.255   3.203
 9208TIP3    H227589   0.112   2.240   3.054
 9209TIP3   OH227590   0.851   2.609   5.674
 9209TIP3    H127591   0.810   2.523   5.681
 9209TIP3    H227592   0.853   2.627   5.580
 9210TIP3   OH227593   0.262   4.315   1.247
 9210TIP3    H127594   0.203   4.264   1.191
 9210TIP3    H227595   0.248   4.280   1.335
 9211TIP3   OH227596   4.077   0.280   2.706
 9211TIP3    H127597   3.994   0.238   2.682
 9211TIP3    H227598   4.086   0.353   2.645
 9212TIP3   OH227599   4.515   6.026   5.408
 9212TIP3    H127600   4.427   5.996   5.429
 9212TIP3    H227601   4.573   5.958   5.441
 9213TIP3   OH227602   7.178   0.485   4.467
 9213TIP3    H127603   7.110   0.425   4.438
 9213TIP3    H227604   7.130   0.558   4.506
 9214TIP3   OH227605   2.901   2.241   0.967
 9214TIP3    H127606   2.894   2.333   0.994
 9214TIP3    H227607   2.876   2.191   1.045
 9215TIP3   OH227608   1.234   6.597   1.490
 9215TIP3    H127609   1.143   6.619   1.467
 9215TIP3    H227610   1.250   6.515   1.443
 9216TIP3   OH227611   5.591   6.637   0.966
 9216TIP3    H127612   5.568   6.545   0.975
 9216TIP3    H227613   5.581   6.655   0.872
 9217TIP3   OH227614   6.422   1.987   4.683
 9217TIP3    H127615   6.493   1.924   4.669
 9217TIP3    H227616   6.345   1.946   4.643
 9218TIP3   OH227617   3.936   5.338   2.944
 9218TIP3    H127618   3.934   5.383   3.029
 9218TIP3    H227619   4.016   5.285   2.947
 9219TIP3   OH227620   3.447   4.442   5.631
 9219TIP3    H127621   3.374   4.424   5.571
 9219TIP3    H227622   3.416   4.410   5.716
 9220TIP3   OH227623   4.759   6.726   2.198
 9220TIP3    H127624   4.781   6.637   2.226
 9220TIP3    H227625   4.746   6.775   2.279
 9221TIP3   OH227626   3.285   0.286   1.965
 9221TIP3    H127627   3.346   0.321   1.899
 9221TIP3    H227628   3.334   0.290   2.047
 9222TIP3   OH227629   3.448   2.675   5.339
 9222TIP3    H127630   3.524   2.718   5.300
 9222TIP3    H227631   3.479   2.588   5.363
 9223TIP3   OH227632   4.597   5.726   3.145
 9223TIP3    H127633   4.650   5.656   3.108
 9223TIP3    H227634   4.656   5.773   3.204
 9224TIP3   OH227635   1.592   5.621   2.295
 9224TIP3    H127636   1.537   5.698   2.284
 9224TIP3    H227637   1.634   5.609   2.209
 9225TIP3   OH227638   7.176   0.756   5.216
 9225TIP3    H127639   7.150   0.663   5.216
 9225TIP3    H227640   7.101   0.802   5.254
 9226TIP3   OH227641   4.565   3.087   0.640
 9226TIP3    H127642   4.484   3.059   0.598
 9226TIP3    H227643   4.549   3.074   0.734
 9227TIP3   OH227644   5.032   6.338   3.085
 9227TIP3    H127645   4.963   6.271   3.082
 9227TIP3    H227646   5.048   6.360   2.993
 9228TIP3   OH227647   1.264   4.733   4.320
 9228TIP3    H127648   1.226   4.743   4.407
 9228TIP3    H227649   1.339   4.674   4.333
 9229TIP3   OH227650   1.316   2.115   1.539
 9229TIP3    H127651   1.299   2.204   1.571
 9229TIP3    H227652   1.382   2.080   1.599
 9230TIP3   OH227653   5.228   2.121   4.439
 9230TIP3    H127654   5.252   2.213   4.427
 9230TIP3    H227655   5.134   2.117   4.418
 9231TIP3   OH227656   5.157   0.188   0.127
 9231TIP3    H127657   5.119   0.273   0.104
 9231TIP3    H227658   5.082   0.128   0.127
 9232TIP3   OH227659   3.690   1.078   1.745
 9232TIP3    H127660   3.757   1.038   1.690
 9232TIP3    H227661   3.698   1.172   1.728
 9233TIP3   OH227662   2.453   2.088   4.552
 9233TIP3    H127663   2.537   2.052   4.526
 9233TIP3    H227664   2.457   2.180   4.526
 9234TIP3   OH227665   5.532   5.776   4.603
 9234TIP3    H127666   5.506   5.849   4.659
 9234TIP3    H227667   5.589   5.722   4.658
 9235TIP3   OH227668   0.639   6.569   0.306
 9235TIP3    H127669   0.633   6.650   0.358
 9235TIP3    H227670   0.732   6.545   0.309
 9236TIP3   OH227671   2.319   0.674   1.418
 9236TIP3    H127672   2.320   0.769   1.419
 9236TIP3    H227673   2.276   0.650   1.500
 9237TIP3   OH227674   2.449   6.347   5.246
 9237TIP3    H127675   2.411   6.400   5.316
 9237TIP3    H227676   2.454   6.258   5.283
 9238TIP3   OH227677   0.202   2.798   1.416
 9238TIP3    H127678   0.214   2.893   1.412
 9238TIP3    H227679   0.227   2.774   1.505
 9239TIP3   OH227680   7.212   6.275   2.595
 9239TIP3    H127681   7.232   6.249   2.685
 9239TIP3    H227682   7.241   6.201   2.542
 9240TIP3   OH227683   4.633   1.188   3.530
 9240TIP3    H127684   4.620   1.278   3.559
 9240TIP3    H227685   4.681   1.146   3.602
 9241TIP3   OH227686   4.186   0.673   1.267
 9241TIP3    H127687   4.196   0.650   1.359
 9241TIP3    H227688   4.126   0.608   1.231
 9242TIP3   OH227689   6.760   4.044   5.035
 9242TIP3    H127690   6.803   4.129   5.037
 9242TIP3    H227691   6.676   4.061   4.992
 9243TIP3   OH227692   1.917   2.594   2.646
 9243TIP3    H127693   1.847   2.553   2.696
 9243TIP3    H227694   1.994   2.540   2.663
 9244TIP3   OH227695   1.703   3.513  -0.039
 9244TIP3    H127696   1.719   3.605  -0.057
 9244TIP3    H227697   1.701   3.507   0.057
 9245TIP3   OH227698   0.687   2.187   0.260
 9245TIP3    H127699   0.660   2.220   0.175
 9245TIP3    H227700   0.758   2.245   0.287
 9246TIP3   OH227701   6.504   3.433   0.235
 9246TIP3    H127702   6.561   3.358   0.218
 9246TIP3    H227703   6.501   3.440   0.330
 9247TIP3   OH227704   0.081   1.821   4.559
 9247TIP3    H127705   0.125   1.834   4.476
 9247TIP3    H227706   0.131   1.873   4.622
 9248TIP3   OH227707   6.045   2.929   1.900
 9248TIP3    H127708   6.023   2.922   1.993
 9248TIP3    H227709   5.996   2.858   1.859
 9249TIP3   OH227710   2.037   4.470   4.452
 9249TIP3    H127711   1.946   4.491   4.432
 9249TIP3    H227712   2.053   4.510   4.537
 9250TIP3   OH227713   5.928   5.081   4.707
 9250TIP3    H127714   5.933   5.164   4.660
 9250TIP3    H227715   6.014   5.071   4.748
 9251TIP3   OH227716   2.846   0.507   4.341
 9251TIP3    H127717   2.784   0.552   4.283
 9251TIP3    H227718   2.921   0.566   4.347
 9252TIP3   OH227719   2.006   4.146   4.537
 9252TIP3    H127720   2.095   4.175   4.559
 9252TIP3    H227721   2.007   4.135   4.442
 9253TIP3   OH227722   1.984   2.748   3.669
 9253TIP3    H127723   2.002   2.765   3.761
 9253TIP3    H227724   2.059   2.697   3.639
 9254TIP3   OH227725   6.561   4.201   3.797
 9254TIP3    H127726   6.538   4.123   3.748
 9254TIP3    H227727   6.608   4.256   3.734
 9255TIP3   OH227728   2.017   5.869   3.673
 9255TIP3    H127729   1.951   5.888   3.606
 9255TIP3    H227730   2.088   5.825   3.626
 9256TIP3   OH227731   6.999   6.056   4.107
 9256TIP3    H127732   6.956   6.090   4.185
 9256TIP3    H227733   6.965   6.110   4.035
 9257TIP3   OH227734   0.293   2.513   3.008
 9257TIP3    H127735   0.240   2.435   3.026
 9257TIP3    H227736   0.383   2.481   3.009
 9258TIP3   OH227737   4.933   4.731   1.992
 9258TIP3    H127738   4.986   4.677   2.051
 9258TIP3    H227739   4.846   4.732   2.033
 9259TIP3   OH227740   0.650   3.044   0.038
 9259TIP3    H127741   0.631   3.100  -0.038
 9259TIP3    H227742   0.739   3.068   0.063
 9260TIP3   OH227743   3.808   3.710   1.528
 9260TIP3    H127744   3.741   3.752   1.473
 9260TIP3    H227745   3.890   3.722   1.480
 9261TIP3   OH227746   4.166   4.848   3.066
 9261TIP3    H127747   4.122   4.886   3.141
 9261TIP3    H227748   4.113   4.772   3.042
 9262TIP3   OH227749   0.898   6.461   0.714
 9262TIP3    H127750   0.967   6.508   0.761
 9262TIP3    H227751   0.847   6.530   0.672
 9263TIP3   OH227752   1.924   3.979   0.552
 9263TIP3    H127753   1.861   3.910   0.535
 9263TIP3    H227754   1.892   4.021   0.632
 9264TIP3   OH227755   0.940   1.999   1.818
 9264TIP3    H127756   0.984   1.916   1.801
 9264TIP3    H227757   0.968   2.056   1.747
 9265TIP3   OH227758   3.072   5.287   4.276
 9265TIP3    H127759   3.019   5.233   4.216
 9265TIP3    H227760   3.101   5.226   4.344
 9266TIP3   OH227761   6.294   2.276   0.304
 9266TIP3    H127762   6.284   2.358   0.352
 9266TIP3    H227763   6.369   2.291   0.246
 9267TIP3   OH227764   6.968   2.940   1.500
 9267TIP3    H127765   6.970   3.034   1.519
 9267TIP3    H227766   6.961   2.898   1.585
 9268TIP3   OH227767   0.503   6.574   2.917
 9268TIP3    H127768   0.420   6.528   2.905
 9268TIP3    H227769   0.484   6.665   2.894
 9269TIP3   OH227770   6.693   2.084   2.373
 9269TIP3    H127771   6.629   2.027   2.330
 9269TIP3    H227772   6.683   2.065   2.466
 9270TIP3   OH227773   3.000   2.028   5.578
 9270TIP3    H127774   2.930   2.092   5.589
 9270TIP3    H227775   3.078   2.080   5.560
 9271TIP3   OH227776   6.860   2.993   1.976
 9271TIP3    H127777   6.806   2.914   1.974
 9271TIP3    H227778   6.798   3.065   1.989
 9272TIP3   OH227779   6.550   3.049   1.380
 9272TIP3    H127780   6.484   3.118   1.387
 9272TIP3    H227781   6.607   3.077   1.308
 9273TIP3   OH227782   1.479   2.901   4.945
 9273TIP3    H127783   1.390   2.909   4.912
 9273TIP3    H227784   1.484   2.965   5.016
 9274TIP3   OH227785   7.116   3.156   0.483
 9274TIP3    H127786   7.168   3.090   0.437
 9274TIP3    H227787   7.147   3.240   0.447
 9275TIP3   OH227788   4.663   5.418   0.425
 9275TIP3    H127789   4.646   5.324   0.426
 9275TIP3    H227790   4.702   5.436   0.511
 9276TIP3   OH227791   2.918   6.254   2.115
 9276TIP3    H127792   2.923   6.345   2.086
 9276TIP3    H227793   2.985   6.247   2.183
 9277TIP3   OH227794   6.409   0.721   5.390
 9277TIP3    H127795   6.349   0.786   5.354
 9277TIP3    H227796   6.453   0.683   5.314
 9278TIP3   OH227797   6.998   2.806   3.753
 9278TIP3    H127798   6.958   2.760   3.826
 9278TIP3    H227799   6.952   2.774   3.675
 9279TIP3   OH227800   0.165   5.606   3.300
 9279TIP3    H127801   0.218   5.631   3.224
 9279TIP3    H227802   0.229   5.596   3.371
 9280TIP3   OH227803   5.590   0.095   0.672
 9280TIP3    H127804   5.602   0.125   0.582
 9280TIP3    H227805   5.533   0.018   0.664
 9281TIP3   OH227806   2.551   4.638   5.017
 9281TIP3    H127807   2.589   4.553   5.041
 9281TIP3    H227808   2.479   4.616   4.958
 9282TIP3   OH227809   3.269   3.425   1.472
 9282TIP3    H127810   3.284   3.479   1.549
 9282TIP3    H227811   3.347   3.371   1.463
 9283TIP3   OH227812   1.873   6.290   0.860
 9283TIP3    H127813   1.825   6.207   0.858
 9283TIP3    H227814   1.934   6.281   0.933
 9284TIP3   OH227815   6.532   5.849   3.316
 9284TIP3    H127816   6.603   5.794   3.348
 9284TIP3    H227817   6.493   5.886   3.395
 9285TIP3   OH227818   7.020   6.577   3.055
 9285TIP3    H127819   6.939   6.527   3.049
 9285TIP3    H227820   7.072   6.531   3.121
 9286TIP3   OH227821   4.605   0.474   4.007
 9286TIP3    H127822   4.511   0.456   4.009
 9286TIP3    H227823   4.613   0.565   4.038
 9287TIP3   OH227824   6.125   3.885   4.578
 9287TIP3    H127825   6.200   3.928   4.620
 9287TIP3    H227826   6.068   3.859   4.651
 9288TIP3   OH227827   0.325   3.075   1.714
 9288TIP3    H127828   0.307   3.168   1.731
 9288TIP3    H227829   0.282   3.029   1.785
 9289TIP3   OH227830   3.337   2.448   4.864
 9289TIP3    H127831   3.374   2.364   4.891
 9289TIP3    H227832   3.242   2.433   4.863
 9290TIP3   OH227833   1.955   5.414   0.806
 9290TIP3    H127834   1.890   5.464   0.855
 9290TIP3    H227835   2.002   5.480   0.755
 9291TIP3   OH227836   1.876   1.124   4.831
 9291TIP3    H127837   1.870   1.085   4.919
 9291TIP3    H227838   1.860   1.217   4.846
 9292TIP3   OH227839   6.505   3.440   1.454
 9292TIP3    H127840   6.446   3.510   1.483
 9292TIP3    H227841   6.570   3.433   1.524
 9293TIP3   OH227842   6.090   3.623   0.028
 9293TIP3    H127843   6.002   3.600   0.059
 9293TIP3    H227844   6.109   3.560  -0.042
 9294TIP3   OH227845   1.181   5.764   0.396
 9294TIP3    H127846   1.179   5.859   0.411
 9294TIP3    H227847   1.267   5.737   0.429
 9295TIP3   OH227848   6.878   5.474   4.898
 9295TIP3    H127849   6.815   5.502   4.964
 9295TIP3    H227850   6.845   5.389   4.868
 9296TIP3   OH227851   3.179   1.278   4.999
 9296TIP3    H127852   3.167   1.270   4.905
 9296TIP3    H227853   3.149   1.367   5.020
 9297TIP3   OH227854   1.906   3.723   3.046
 9297TIP3    H127855   1.926   3.651   2.986
 9297TIP3    H227856   1.958   3.796   3.014
 9298TIP3   OH227857   2.646   5.838   0.135
 9298TIP3    H127858   2.665   5.781   0.060
 9298TIP3    H227859   2.576   5.896   0.104
 9299TIP3   OH227860   4.328   6.345   3.389
 9299TIP3    H127861   4.262   6.413   3.402
 9299TIP3    H227862   4.293   6.290   3.319
 9300TIP3   OH227863   1.558   3.814   0.092
 9300TIP3    H127864   1.627   3.797   0.028
 9300TIP3    H227865   1.533   3.727   0.123
 9301TIP3   OH227866   1.292   0.087   2.495
 9301TIP3    H127867   1.359   0.137   2.542
 9301TIP3    H227868   1.214   0.093   2.551
 9302TIP3   OH227869   5.070   5.775   2.477
 9302TIP3    H127870   5.053   5.828   2.555
 9302TIP3    H227871   4.998   5.796   2.418
 9303TIP3   OH227872   0.985   4.262   3.325
 9303TIP3    H127873   0.987   4.313   3.407
 9303TIP3    H227874   1.034   4.183   3.345
 9304TIP3   OH227875   6.628   4.451   1.101
 9304TIP3    H127876   6.611   4.442   1.195
 9304TIP3    H227877   6.601   4.540   1.081
 9305TIP3   OH227878   1.165   6.305   3.630
 9305TIP3    H127879   1.076   6.278   3.652
 9305TIP3    H227880   1.175   6.390   3.674
 9306TIP3   OH227881   5.116   4.158   5.028
 9306TIP3    H127882   5.094   4.130   5.116
 9306TIP3    H227883   5.071   4.242   5.017
 9307TIP3   OH227884   7.066   0.092   0.519
 9307TIP3    H127885   7.130   0.144   0.470
 9307TIP3    H227886   7.016   0.046   0.452
 9308TIP3   OH227887   4.442   1.211   3.805
 9308TIP3    H127888   4.443   1.116   3.790
 9308TIP3    H227889   4.372   1.243   3.748
 9309TIP3   OH227890   3.027   6.124   2.553
 9309TIP3    H127891   3.093   6.059   2.531
 9309TIP3    H227892   3.072   6.208   2.545
 9310TIP3   OH227893   4.530   0.448   5.422
 9310TIP3    H127894   4.525   0.359   5.458
 9310TIP3    H227895   4.442   0.465   5.387
 9311TIP3   OH227896   3.202   5.784   2.286
 9311TIP3    H127897   3.228   5.860   2.234
 9311TIP3    H227898   3.275   5.722   2.277
 9312TIP3   OH227899   1.015   4.928   2.073
 9312TIP3    H127900   0.966   4.846   2.065
 9312TIP3    H227901   0.953   4.996   2.046
 9313TIP3   OH227902   2.771   6.673   2.589
 9313TIP3    H127903   2.792   6.762   2.562
 9313TIP3    H227904   2.850   6.641   2.632
 9314TIP3   OH227905   2.983   5.520   2.708
 9314TIP3    H127906   2.914   5.456   2.725
 9314TIP3    H227907   2.945   5.604   2.732
 9315TIP3   OH227908   4.012   1.771   0.324
 9315TIP3    H127909   4.034   1.790   0.415
 9315TIP3    H227910   4.093   1.791   0.276
 9316TIP3   OH227911   2.330   4.705   3.028
 9316TIP3    H127912   2.319   4.793   2.992
 9316TIP3    H227913   2.280   4.706   3.110
 9317TIP3   OH227914   1.621   3.651   1.823
 9317TIP3    H127915   1.630   3.744   1.845
 9317TIP3    H227916   1.577   3.651   1.739
 9318TIP3   OH227917   3.140   6.363   0.683
 9318TIP3    H127918   3.130   6.313   0.602
 9318TIP3    H227919   3.209   6.316   0.731
 9319TIP3   OH227920   0.423   2.930   5.124
 9319TIP3    H127921   0.425   3.026   5.131
 9319TIP3    H227922   0.407   2.914   5.031
 9320TIP3   OH227923   0.444   0.733   2.669
 9320TIP3    H127924   0.373   0.716   2.731
 9320TIP3    H227925   0.496   0.652   2.669
 9321TIP3   OH227926   0.651   5.154   1.511
 9321TIP3    H127927   0.672   5.108   1.592
 9321TIP3    H227928   0.616   5.086   1.453
 9322TIP3   OH227929   2.684   5.409   1.678
 9322TIP3    H127930   2.766   5.389   1.724
 9322TIP3    H227931   2.658   5.325   1.638
 9323TIP3   OH227932   1.396   3.591   5.766
 9323TIP3    H127933   1.339   3.628   5.699
 9323TIP3    H227934   1.485   3.610   5.736
 9324TIP3   OH227935   5.567   5.008   5.846
 9324TIP3    H127936   5.516   4.937   5.884
 9324TIP3    H227937   5.658   4.986   5.867
 9325TIP3   OH227938   5.000   0.180   0.703
 9325TIP3    H127939   5.047   0.261   0.720
 9325TIP3    H227940   5.044   0.142   0.627
 9326TIP3   OH227941   1.994   3.716   5.403
 9326TIP3    H127942   2.066   3.770   5.370
 9326TIP3    H227943   2.003   3.633   5.356
 9327TIP3   OH227944   1.462   0.617   3.189
 9327TIP3    H127945   1.416   0.695   3.157
 9327TIP3    H227946   1.406   0.583   3.259
 9328TIP3   OH227947   2.433   5.261   3.527
 9328TIP3    H127948   2.427   5.241   3.621
 9328TIP3    H227949   2.499   5.200   3.494
 9329TIP3   OH227950   4.555   0.012   3.695
 9329TIP3    H127951   4.635   0.051   3.730
 9329TIP3    H227952   4.578  -0.015   3.606
 9330TIP3   OH227953   3.606   6.656   1.485
 9330TIP3    H127954   3.699   6.638   1.500
 9330TIP3    H227955   3.572   6.678   1.572
 9331TIP3   OH227956   1.742   3.059   5.748
 9331TIP3    H127957   1.764   3.109   5.670
 9331TIP3    H227958   1.796   2.980   5.742
 9332TIP3   OH227959   7.105   3.818   2.258
 9332TIP3    H127960   7.188   3.787   2.295
 9332TIP3    H227961   7.042   3.749   2.279
 9333TIP3   OH227962   4.415   0.090   4.708
 9333TIP3    H127963   4.338   0.146   4.712
 9333TIP3    H227964   4.386   0.010   4.663
 9334TIP3   OH227965   6.929   4.034   0.367
 9334TIP3    H127966   6.843   4.063   0.339
 9334TIP3    H227967   6.961   3.979   0.296
 9335TIP3   OH227968   1.464   4.676   4.134
 9335TIP3    H127969   1.401   4.722   4.079
 9335TIP3    H227970   1.525   4.744   4.163
 9336TIP3   OH227971   6.756   0.685   4.837
 9336TIP3    H127972   6.836   0.634   4.853
 9336TIP3    H227973   6.759   0.756   4.901
 9337TIP3   OH227974   1.838   3.967   5.770
 9337TIP3    H127975   1.819   3.930   5.684
 9337TIP3    H227976   1.929   3.943   5.787
 9338TIP3   OH227977   6.455   6.392   0.630
 9338TIP3    H127978   6.438   6.299   0.618
 9338TIP3    H227979   6.462   6.427   0.541
 9339TIP3   OH227980   0.520   1.488   0.191
 9339TIP3    H127981   0.592   1.528   0.241
 9339TIP3    H227982   0.564   1.425   0.134
 9340TIP3   OH227983   1.153   5.185   0.147
 9340TIP3    H127984   1.179   5.126   0.076
 9340TIP3    H227985   1.179   5.272   0.117
 9341TIP3   OH227986   4.095   1.042   3.883
 9341TIP3    H127987   4.119   1.061   3.973
 9341TIP3    H227988   4.000   1.033   3.885
 9342TIP3   OH227989   3.042   5.905   3.503
 9342TIP3    H127990   3.042   5.823   3.452
 9342TIP3    H227991   3.134   5.926   3.514
 9343TIP3   OH227992   6.160   2.185   4.212
 9343TIP3    H127993   6.210   2.264   4.194
 9343TIP3    H227994   6.069   2.215   4.216
 9344TIP3   OH227995   1.265   0.865   4.099
 9344TIP3    H127996   1.200   0.932   4.079
 9344TIP3    H227997   1.344   0.893   4.053
 9345TIP3   OH227998   5.979   5.714   3.874
 9345TIP3    H127999   6.042   5.701   3.803
 9345TIP3    H228000   5.994   5.804   3.903
 9346TIP3   OH228001   3.813   3.018   1.477
 9346TIP3    H128002   3.868   3.094   1.498
 9346TIP3    H228003   3.724   3.054   1.471
 9347TIP3   OH228004   3.360   1.413   1.702
 9347TIP3    H128005   3.276   1.459   1.693
 9347TIP3    H228006   3.423   1.471   1.658
 9348TIP3   OH228007   0.119   2.963   0.439
 9348TIP3    H128008   0.181   2.923   0.379
 9348TIP3    H228009   0.130   2.914   0.521
 9349TIP3   OH228010   1.339   4.253   2.788
 9349TIP3    H128011   1.263   4.309   2.804
 9349TIP3    H228012   1.359   4.216   2.874
 9350TIP3   OH228013   5.665   5.523   2.911
 9350TIP3    H128014   5.722   5.465   2.859
 9350TIP3    H228015   5.581   5.519   2.866
 9351TIP3   OH228016   1.177   2.669   5.021
 9351TIP3    H128017   1.184   2.626   5.107
 9351TIP3    H228018   1.133   2.752   5.039
 9352TIP3   OH228019   6.453   6.213   2.521
 9352TIP3    H128020   6.388   6.267   2.565
 9352TIP3    H228021   6.506   6.274   2.470
 9353TIP3   OH228022   4.169   1.530   5.867
 9353TIP3    H128023   4.155   1.459   5.930
 9353TIP3    H228024   4.171   1.609   5.920
 9354TIP3   OH228025   5.155   2.187   4.717
 9354TIP3    H128026   5.161   2.128   4.641
 9354TIP3    H228027   5.208   2.145   4.784
 9355TIP3   OH228028   1.188   4.733   2.938
 9355TIP3    H128029   1.225   4.736   3.027
 9355TIP3    H228030   1.224   4.811   2.895
 9356TIP3   OH228031   4.592   6.483   3.789
 9356TIP3    H128032   4.567   6.546   3.721
 9356TIP3    H228033   4.676   6.514   3.821
 9357TIP3   OH228034   6.859   6.194   5.826
 9357TIP3    H128035   6.795   6.215   5.894
 9357TIP3    H228036   6.879   6.278   5.784
 9358TIP3   OH228037   2.951   0.424   5.238
 9358TIP3    H128038   3.013   0.431   5.310
 9358TIP3    H228039   2.867   0.406   5.281
 9359TIP3   OH228040   6.817   5.466   4.049
 9359TIP3    H128041   6.727   5.436   4.039
 9359TIP3    H228042   6.836   5.512   3.967
 9360TIP3   OH228043   1.623   0.619   4.547
 9360TIP3    H128044   1.600   0.554   4.613
 9360TIP3    H228045   1.589   0.702   4.582
 9361TIP3   OH228046   3.029   0.741   2.572
 9361TIP3    H128047   3.066   0.789   2.646
 9361TIP3    H228048   2.961   0.798   2.537
 9362TIP3   OH228049   6.900   4.149   1.575
 9362TIP3    H128050   6.989   4.121   1.595
 9362TIP3    H228051   6.877   4.101   1.496
 9363TIP3   OH228052   0.070   1.796   0.885
 9363TIP3    H128053   0.143   1.750   0.844
 9363TIP3    H228054   0.092   1.796   0.979
 9364TIP3   OH228055   5.082   3.182   5.111
 9364TIP3    H128056   5.007   3.168   5.053
 9364TIP3    H228057   5.118   3.266   5.083
 9365TIP3   OH228058   0.408   5.030   3.763
 9365TIP3    H128059   0.441   5.095   3.701
 9365TIP3    H228060   0.321   5.060   3.786
 9366TIP3   OH228061   0.957   4.782   0.832
 9366TIP3    H128062   0.891   4.750   0.771
 9366TIP3    H228063   1.037   4.791   0.779
 9367TIP3   OH228064   5.937   2.567   5.004
 9367TIP3    H128065   5.975   2.503   5.064
 9367TIP3    H228066   5.994   2.565   4.927
 9368TIP3   OH228067   0.647   6.528   4.402
 9368TIP3    H128068   0.742   6.521   4.401
 9368TIP3    H228069   0.616   6.447   4.361
 9369TIP3   OH228070   5.239   6.590   1.304
 9369TIP3    H128071   5.279   6.519   1.254
 9369TIP3    H228072   5.310   6.626   1.356
 9370TIP3   OH228073   7.250   6.063   2.183
 9370TIP3    H128074   7.250   6.150   2.223
 9370TIP3    H228075   7.172   6.061   2.128
 9371TIP3   OH228076   1.351   1.915   3.481
 9371TIP3    H128077   1.335   1.929   3.574
 9371TIP3    H228078   1.416   1.844   3.478
 9372TIP3   OH228079   4.282   6.474   0.676
 9372TIP3    H128080   4.196   6.456   0.716
 9372TIP3    H228081   4.323   6.388   0.669
 9373TIP3   OH228082   4.962   1.222   5.858
 9373TIP3    H128083   4.909   1.270   5.922
 9373TIP3    H228084   4.904   1.154   5.824
 9374TIP3   OH228085   5.785   0.325   4.331
 9374TIP3    H128086   5.770   0.397   4.270
 9374TIP3    H228087   5.760   0.247   4.282
 9375TIP3   OH228088   4.280   1.798   0.891
 9375TIP3    H128089   4.206   1.843   0.850
 9375TIP3    H228090   4.259   1.705   0.883
 9376TIP3   OH228091   7.078   2.658   5.550
 9376TIP3    H128092   7.019   2.652   5.474
 9376TIP3    H228093   7.150   2.600   5.529
 9377TIP3   OH228094   5.242   6.660   4.955
 9377TIP3    H128095   5.308   6.728   4.941
 9377TIP3    H228096   5.162   6.709   4.976
 9378TIP3   OH228097   5.082   2.785   5.043
 9378TIP3    H128098   5.029   2.809   4.967
 9378TIP3    H228099   5.040   2.707   5.078
 9379TIP3   OH228100   1.970   5.920   4.203
 9379TIP3    H128101   1.916   5.998   4.192
 9379TIP3    H228102   1.926   5.852   4.151
 9380TIP3   OH228103   1.922   6.314   5.084
 9380TIP3    H128104   2.003   6.363   5.075
 9380TIP3    H228105   1.894   6.296   4.994
 9381TIP3   OH228106   1.533   3.608   4.989
 9381TIP3    H128107   1.507   3.599   4.897
 9381TIP3    H228108   1.480   3.682   5.021
 9382TIP3   OH228109   3.121   2.902   1.886
 9382TIP3    H128110   3.091   2.812   1.875
 9382TIP3    H228111   3.109   2.921   1.979
 9383TIP3   OH228112   5.025   1.158   3.043
 9383TIP3    H128113   5.013   1.240   2.994
 9383TIP3    H228114   4.977   1.172   3.124
 9384TIP3   OH228115   3.140   4.801   3.212
 9384TIP3    H128116   3.230   4.805   3.244
 9384TIP3    H228117   3.118   4.891   3.188
 9385TIP3   OH228118   4.673   4.397   4.307
 9385TIP3    H128119   4.729   4.358   4.373
 9385TIP3    H228120   4.719   4.381   4.224
 9386TIP3   OH228121   2.224   2.051   3.692
 9386TIP3    H128122   2.146   2.089   3.733
 9386TIP3    H228123   2.190   1.981   3.636
 9387TIP3   OH228124   5.855   0.883   1.414
 9387TIP3    H128125   5.900   0.941   1.352
 9387TIP3    H228126   5.778   0.932   1.442
 9388TIP3   OH228127   2.870   0.891   4.852
 9388TIP3    H128128   2.791   0.861   4.896
 9388TIP3    H228129   2.931   0.817   4.860
 9389TIP3   OH228130   2.531   2.625   4.538
 9389TIP3    H128131   2.485   2.669   4.609
 9389TIP3    H228132   2.518   2.682   4.462
 9390TIP3   OH228133   5.541   1.454   2.696
 9390TIP3    H128134   5.573   1.409   2.618
 9390TIP3    H228135   5.447   1.436   2.697
 9391TIP3   OH228136   3.648   1.696   2.433
 9391TIP3    H128137   3.601   1.700   2.516
 9391TIP3    H228138   3.732   1.737   2.450
 9392TIP3   OH228139   5.537   4.401   4.223
 9392TIP3    H128140   5.464   4.390   4.284
 9392TIP3    H228141   5.500   4.447   4.149
 9393TIP3   OH228142   7.114   5.175   2.368
 9393TIP3    H128143   7.162   5.095   2.348
 9393TIP3    H228144   7.024   5.155   2.345
 9394TIP3   OH228145   2.489   1.290   3.246
 9394TIP3    H128146   2.537   1.283   3.328
 9394TIP3    H228147   2.410   1.238   3.259
 9395TIP3   OH228148   4.345   1.013   4.399
 9395TIP3    H128149   4.343   1.098   4.354
 9395TIP3    H228150   4.331   0.949   4.330
 9396TIP3   OH228151   0.418   5.576   3.466
 9396TIP3    H128152   0.438   5.655   3.416
 9396TIP3    H228153   0.496   5.521   3.458
 9397TIP3   OH228154   6.990   0.319   4.351
 9397TIP3    H128155   6.978   0.365   4.268
 9397TIP3    H228156   6.952   0.232   4.336
 9398TIP3   OH228157   4.391   0.371   4.816
 9398TIP3    H128158   4.306   0.345   4.782
 9398TIP3    H228159   4.384   0.361   4.911
 9399TIP3   OH228160   6.190   5.901   3.509
 9399TIP3    H128161   6.208   5.838   3.578
 9399TIP3    H228162   6.149   5.850   3.439
 9400TIP3   OH228163   3.816   4.166   3.244
 9400TIP3    H128164   3.796   4.254   3.212
 9400TIP3    H228165   3.863   4.124   3.172
 9401TIP3   OH228166   5.698   0.803   1.689
 9401TIP3    H128167   5.686   0.898   1.677
 9401TIP3    H228168   5.757   0.796   1.764
 9402TIP3   OH228169   4.097   2.292   5.809
 9402TIP3    H128170   4.131   2.377   5.783
 9402TIP3    H228171   4.143   2.272   5.891
 9403TIP3   OH228172   3.575   0.712   1.108
 9403TIP3    H128173   3.639   0.783   1.112
 9403TIP3    H228174   3.492   0.756   1.086
 9404TIP3   OH228175   0.224   4.936   4.102
 9404TIP3    H128176   0.286   4.906   4.036
 9404TIP3    H228177   0.182   5.012   4.062
 9405TIP3   OH228178   4.398   2.366   2.531
 9405TIP3    H128179   4.307   2.378   2.560
 9405TIP3    H228180   4.434   2.454   2.527
 9406TIP3   OH228181   4.325   0.106   2.943
 9406TIP3    H128182   4.335   0.015   2.916
 9406TIP3    H228183   4.349   0.108   3.035
 9407TIP3   OH228184   0.769   6.346   5.014
 9407TIP3    H128185   0.692   6.344   5.072
 9407TIP3    H228186   0.818   6.423   5.043
 9408TIP3   OH228187   5.107   4.909   0.906
 9408TIP3    H128188   5.069   4.834   0.952
 9408TIP3    H228189   5.062   4.985   0.944
 9409TIP3   OH228190   3.137   1.003   2.059
 9409TIP3    H128191   3.074   1.029   2.126
 9409TIP3    H228192   3.204   0.953   2.106
 9410TIP3   OH228193   2.871   5.013   3.336
 9410TIP3    H128194   2.873   4.917   3.337
 9410TIP3    H228195   2.881   5.038   3.428
 9411TIP3   OH228196   4.556   0.639   1.190
 9411TIP3    H128197   4.522   0.552   1.169
 9411TIP3    H228198   4.484   0.698   1.170
 9412TIP3   OH228199   1.463   3.107   5.793
 9412TIP3    H128200   1.558   3.098   5.788
 9412TIP3    H228201   1.434   3.026   5.834
 9413TIP3   OH228202   0.576   2.235   4.122
 9413TIP3    H128203   0.652   2.214   4.177
 9413TIP3    H228204   0.555   2.153   4.077
 9414TIP3   OH228205   5.141   3.935   1.340
 9414TIP3    H128206   5.068   3.998   1.339
 9414TIP3    H228207   5.178   3.943   1.428
 9415TIP3   OH228208   5.447   0.541   1.045
 9415TIP3    H128209   5.454   0.630   1.010
 9415TIP3    H228210   5.464   0.484   0.970
 9416TIP3   OH228211   3.149   0.094   2.100
 9416TIP3    H128212   3.194   0.122   2.179
 9416TIP3    H228213   3.196   0.137   2.028
 9417TIP3   OH228214   0.795   5.849   2.789
 9417TIP3    H128215   0.765   5.768   2.830
 9417TIP3    H228216   0.890   5.847   2.798
 9418TIP3   OH228217   6.242   1.272  -0.002
 9418TIP3    H128218   6.302   1.205   0.031
 9418TIP3    H228219   6.163   1.262   0.052
 9419TIP3   OH228220   1.938   4.826   3.468
 9419TIP3    H128221   1.930   4.739   3.429
 9419TIP3    H228222   1.880   4.824   3.544
 9420TIP3   OH228223   3.334   0.755   4.061
 9420TIP3    H128224   3.283   0.785   4.136
 9420TIP3    H228225   3.321   0.822   3.994
 9421TIP3   OH228226   0.415   5.751   1.599
 9421TIP3    H128227   0.382   5.670   1.637
 9421TIP3    H228228   0.480   5.783   1.662
 9422TIP3   OH228229   3.311   1.927   3.098
 9422TIP3    H128230   3.226   1.921   3.142
 9422TIP3    H228231   3.289   1.962   3.011
 9423TIP3   OH228232   3.892   5.691   3.218
 9423TIP3    H128233   3.803   5.726   3.223
 9423TIP3    H228234   3.912   5.688   3.124
 9424TIP3   OH228235   4.340   4.953   0.981
 9424TIP3    H128236   4.370   5.037   1.016
 9424TIP3    H228237   4.278   4.976   0.913
 9425TIP3   OH228238   3.666   6.104   0.214
 9425TIP3    H128239   3.575   6.093   0.186
 9425TIP3    H228240   3.717   6.088   0.134
 9426TIP3   OH228241   2.190   2.632   0.305
 9426TIP3    H128242   2.284   2.651   0.295
 9426TIP3    H228243   2.157   2.630   0.216
 9427TIP3   OH228244   2.061   0.304   3.000
 9427TIP3    H128245   2.111   0.264   2.929
 9427TIP3    H228246   2.002   0.366   2.956
 9428TIP3   OH228247   1.057   3.720   4.283
 9428TIP3    H128248   0.962   3.707   4.291
 9428TIP3    H228249   1.079   3.678   4.200
 9429TIP3   OH228250   5.466   3.701   1.189
 9429TIP3    H128251   5.416   3.683   1.268
 9429TIP3    H228252   5.412   3.667   1.118
 9430TIP3   OH228253   6.304   1.242   3.024
 9430TIP3    H128254   6.394   1.277   3.025
 9430TIP3    H228255   6.298   1.195   2.940
 9431TIP3   OH228256   6.601   5.680   2.872
 9431TIP3    H128257   6.659   5.605   2.887
 9431TIP3    H228258   6.547   5.654   2.797
 9432TIP3   OH228259   5.269   3.207   2.224
 9432TIP3    H128260   5.265   3.116   2.195
 9432TIP3    H228261   5.180   3.241   2.210
 9433TIP3   OH228262   4.102   0.176   5.455
 9433TIP3    H128263   4.017   0.200   5.420
 9433TIP3    H228264   4.160   0.174   5.378
 9434TIP3   OH228265   6.060   3.556   2.954
 9434TIP3    H128266   6.014   3.594   2.879
 9434TIP3    H228267   6.058   3.462   2.938
 9435TIP3   OH228268   5.189   5.935   5.079
 9435TIP3    H128269   5.245   5.925   5.156
 9435TIP3    H228270   5.222   6.015   5.037
 9436TIP3   OH228271   6.946   6.735   5.629
 9436TIP3    H128272   6.912   6.817   5.663
 9436TIP3    H228273   6.963   6.753   5.536
 9437TIP3   OH228274   3.638   3.884   4.141
 9437TIP3    H128275   3.674   3.838   4.065
 9437TIP3    H228276   3.635   3.976   4.115
 9438TIP3   OH228277   5.041   2.598   2.722
 9438TIP3    H128278   5.117   2.649   2.693
 9438TIP3    H228279   5.058   2.582   2.815
 9439TIP3   OH228280   0.081   2.055   1.093
 9439TIP3    H128281   0.157   2.097   1.132
 9439TIP3    H228282   0.105   1.963   1.087
 9440TIP3   OH228283   3.616   1.864   4.756
 9440TIP3    H128284   3.610   1.932   4.688
 9440TIP3    H228285   3.529   1.826   4.759
 9441TIP3   OH228286   5.511   4.433   1.750
 9441TIP3    H128287   5.502   4.364   1.816
 9441TIP3    H228288   5.477   4.393   1.670
 9442TIP3   OH228289   2.874   4.729   5.268
 9442TIP3    H128290   2.781   4.727   5.248
 9442TIP3    H228291   2.910   4.653   5.222
 9443TIP3   OH228292   4.379   4.561   1.065
 9443TIP3    H128293   4.287   4.534   1.063
 9443TIP3    H228294   4.393   4.605   0.982
 9444TIP3   OH228295   4.274   3.430   3.310
 9444TIP3    H128296   4.351   3.486   3.314
 9444TIP3    H228297   4.275   3.382   3.393
 9445TIP3   OH228298   0.343   4.179   5.008
 9445TIP3    H128299   0.379   4.156   5.094
 9445TIP3    H228300   0.291   4.257   5.024
 9446TIP3   OH228301   6.065   1.064   1.683
 9446TIP3    H128302   6.046   1.128   1.613
 9446TIP3    H228303   5.979   1.033   1.711
 9447TIP3   OH228304   5.674   5.770   3.934
 9447TIP3    H128305   5.657   5.676   3.948
 9447TIP3    H228306   5.749   5.773   3.876
 9448TIP3   OH228307   6.083   2.469   2.974
 9448TIP3    H128308   5.999   2.429   2.952
 9448TIP3    H228309   6.148   2.409   2.936
 9449TIP3   OH228310   4.889   1.374   3.280
 9449TIP3    H128311   4.902   1.463   3.247
 9449TIP3    H228312   4.802   1.350   3.250
 9450TIP3   OH228313   5.082   2.551   1.189
 9450TIP3    H128314   5.056   2.476   1.242
 9450TIP3    H228315   5.030   2.623   1.223
 9451TIP3   OH228316   6.577   5.201   2.205
 9451TIP3    H128317   6.665   5.196   2.243
 9451TIP3    H228318   6.588   5.259   2.129
 9452TIP3   OH228319   4.303   3.675   4.546
 9452TIP3    H128320   4.278   3.642   4.633
 9452TIP3    H228321   4.393   3.705   4.557
 9453TIP3   OH228322   6.141   4.110   3.755
 9453TIP3    H128323   6.196   4.038   3.786
 9453TIP3    H228324   6.107   4.080   3.671
 9454TIP3   OH228325   0.255   2.137   3.483
 9454TIP3    H128326   0.250   2.224   3.522
 9454TIP3    H228327   0.169   2.124   3.443
 9455TIP3   OH228328   4.656   1.994   5.671
 9455TIP3    H128329   4.745   2.005   5.638
 9455TIP3    H228330   4.601   2.028   5.600
 9456TIP3   OH228331   7.005   0.775   4.176
 9456TIP3    H128332   7.067   0.705   4.199
 9456TIP3    H228333   7.053   0.855   4.195
 9457TIP3   OH228334   1.215   2.931   4.012
 9457TIP3    H128335   1.265   2.879   3.949
 9457TIP3    H228336   1.243   3.021   3.995
 9458TIP3   OH228337   1.218   4.860   4.805
 9458TIP3    H128338   1.195   4.856   4.898
 9458TIP3    H228339   1.312   4.882   4.805
 9459TIP3   OH228340   4.863   5.364   3.215
 9459TIP3    H128341   4.890   5.310   3.141
 9459TIP3    H228342   4.945   5.396   3.253
 9460TIP3   OH228343   4.500   2.701   3.519
 9460TIP3    H128344   4.505   2.789   3.481
 9460TIP3    H228345   4.579   2.657   3.487
 9461TIP3   OH228346   5.640   0.189   5.875
 9461TIP3    H128347   5.714   0.182   5.935
 9461TIP3    H228348   5.636   0.103   5.832
 9462TIP3   OH228349   2.654   3.350   1.764
 9462TIP3    H128350   2.632   3.274   1.710
 9462TIP3    H228351   2.652   3.316   1.854
 9463TIP3   OH228352   5.130   2.787   4.378
 9463TIP3    H128353   5.108   2.741   4.297
 9463TIP3    H228354   5.081   2.741   4.446
 9464TIP3   OH228355   2.763   1.314   3.884
 9464TIP3    H128356   2.754   1.399   3.840
 9464TIP3    H228357   2.677   1.273   3.873
 9465TIP3   OH228358   5.814   2.677   0.889
 9465TIP3    H128359   5.719   2.682   0.885
 9465TIP3    H228360   5.836   2.717   0.974
 9466TIP3   OH228361   2.836   4.248   4.052
 9466TIP3    H128362   2.904   4.256   4.119
 9466TIP3    H228363   2.883   4.227   3.972
 9467TIP3   OH228364   3.715   3.475   3.320
 9467TIP3    H128365   3.723   3.446   3.411
 9467TIP3    H228366   3.738   3.567   3.321
 9468TIP3   OH228367   2.447   1.265   4.987
 9468TIP3    H128368   2.527   1.276   4.936
 9468TIP3    H228369   2.425   1.172   4.976
 9469TIP3   OH228370   1.405   2.809   3.851
 9469TIP3    H128371   1.478   2.842   3.903
 9469TIP3    H228372   1.446   2.753   3.784
 9470TIP3   OH228373   5.399   3.528   0.140
 9470TIP3    H128374   5.474   3.503   0.087
 9470TIP3    H228375   5.435   3.587   0.206
 9471TIP3   OH228376   4.872   0.663   0.102
 9471TIP3    H128377   4.934   0.736   0.103
 9471TIP3    H228378   4.838   0.659   0.191
 9472TIP3   OH228379   5.891   5.948   1.606
 9472TIP3    H128380   5.965   5.948   1.667
 9472TIP3    H228381   5.909   6.021   1.546
 9473TIP3   OH228382   2.099   3.276   0.827
 9473TIP3    H128383   2.155   3.243   0.897
 9473TIP3    H228384   2.092   3.370   0.844
 9474TIP3   OH228385   5.705   1.212   5.410
 9474TIP3    H128386   5.675   1.125   5.383
 9474TIP3    H228387   5.675   1.221   5.500
 9475TIP3   OH228388   0.883   1.152   3.472
 9475TIP3    H128389   0.800   1.185   3.436
 9475TIP3    H228390   0.888   1.061   3.441
 9476TIP3   OH228391   5.345   6.035   1.706
 9476TIP3    H128392   5.374   5.966   1.767
 9476TIP3    H228393   5.264   6.000   1.668
 9477TIP3   OH228394   3.403   2.746   2.261
 9477TIP3    H128395   3.341   2.786   2.323
 9477TIP3    H228396   3.433   2.819   2.207
 9478TIP3   OH228397   2.916   4.630   4.763
 9478TIP3    H128398   3.001   4.597   4.793
 9478TIP3    H228399   2.854   4.560   4.784
 9479TIP3   OH228400   2.857   5.638   0.213
 9479TIP3    H128401   2.784   5.658   0.154
 9479TIP3    H228402   2.859   5.542   0.216
 9480TIP3   OH228403   1.693   4.686   0.890
 9480TIP3    H128404   1.785   4.659   0.883
 9480TIP3    H228405   1.690   4.771   0.845
 9481TIP3   OH228406   7.151   4.431  -0.062
 9481TIP3    H128407   7.080   4.366  -0.069
 9481TIP3    H228408   7.206   4.398   0.010
 9482TIP3   OH228409   5.585   1.824   3.498
 9482TIP3    H128410   5.607   1.807   3.589
 9482TIP3    H228411   5.500   1.782   3.486
 9483TIP3   OH228412   3.680   0.687   2.291
 9483TIP3    H128413   3.626   0.684   2.370
 9483TIP3    H228414   3.632   0.635   2.226
 9484TIP3   OH228415   5.458   3.642   0.780
 9484TIP3    H128416   5.504   3.726   0.782
 9484TIP3    H228417   5.404   3.643   0.859
 9485TIP3   OH228418   1.775   0.630   3.013
 9485TIP3    H128419   1.687   0.631   2.974
 9485TIP3    H228420   1.792   0.721   3.037
 9486TIP3   OH228421   6.444   4.586   5.608
 9486TIP3    H128422   6.487   4.592   5.693
 9486TIP3    H228423   6.384   4.662   5.606
 9487TIP3   OH228424   3.183   6.355   3.867
 9487TIP3    H128425   3.150   6.357   3.778
 9487TIP3    H228426   3.163   6.442   3.903
 9488TIP3   OH228427   3.531   1.168   2.144
 9488TIP3    H128428   3.520   1.263   2.149
 9488TIP3    H228429   3.483   1.135   2.220
 9489TIP3   OH228430   0.805   4.646   0.619
 9489TIP3    H128431   0.812   4.732   0.579
 9489TIP3    H228432   0.712   4.623   0.609
 9490TIP3   OH228433   5.700   2.837   3.401
 9490TIP3    H128434   5.795   2.850   3.408
 9490TIP3    H228435   5.667   2.857   3.489
 9491TIP3   OH228436   2.344   2.267   3.395
 9491TIP3    H128437   2.308   2.194   3.446
 9491TIP3    H228438   2.421   2.230   3.352
 9492TIP3   OH228439   6.902   0.307   2.723
 9492TIP3    H128440   6.994   0.282   2.719
 9492TIP3    H228441   6.863   0.247   2.786
 9493TIP3   OH228442   0.674   1.826   1.290
 9493TIP3    H128443   0.621   1.869   1.223
 9493TIP3    H228444   0.757   1.874   1.290
 9494TIP3   OH228445   2.945   1.380   4.399
 9494TIP3    H128446   2.873   1.332   4.440
 9494TIP3    H228447   2.904   1.459   4.363
 9495TIP3   OH228448   3.606   1.429   2.917
 9495TIP3    H128449   3.668   1.453   2.849
 9495TIP3    H228450   3.606   1.503   2.977
 9496TIP3   OH228451   6.004   2.712   0.683
 9496TIP3    H128452   6.080   2.770   0.684
 9496TIP3    H228453   5.933   2.765   0.720
 9497TIP3   OH228454   0.823  -0.020   4.512
 9497TIP3    H128455   0.811  -0.039   4.419
 9497TIP3    H228456   0.744  -0.055   4.554
 9498TIP3   OH228457   1.124   2.511   4.063
 9498TIP3    H128458   1.099   2.484   3.975
 9498TIP3    H228459   1.059   2.576   4.088
 9499TIP3   OH228460   0.185   6.805   2.898
 9499TIP3    H128461   0.180   6.753   2.978
 9499TIP3    H228462   0.148   6.749   2.830
 9500TIP3   OH228463   3.479   0.510   5.263
 9500TIP3    H128464   3.565   0.545   5.240
 9500TIP3    H228465   3.489   0.480   5.353
 9501TIP3   OH228466   5.563   5.451   1.775
 9501TIP3    H128467   5.642   5.431   1.826
 9501TIP3    H228468   5.556   5.379   1.713
 9502TIP3   OH228469   5.401   2.054   1.372
 9502TIP3    H128470   5.418   2.126   1.432
 9502TIP3    H228471   5.324   2.082   1.322
 9503TIP3   OH228472   1.590   1.444   4.286
 9503TIP3    H128473   1.499   1.417   4.279
 9503TIP3    H228474   1.625   1.435   4.197
 9504TIP3   OH228475   3.292   6.545   4.100
 9504TIP3    H128476   3.198   6.549   4.117
 9504TIP3    H228477   3.329   6.614   4.155
 9505TIP3   OH228478   2.302   4.341   1.768
 9505TIP3    H128479   2.236   4.400   1.731
 9505TIP3    H228480   2.339   4.296   1.692
 9506TIP3   OH228481   4.313   6.729   3.413
 9506TIP3    H128482   4.287   6.798   3.352
 9506TIP3    H228483   4.261   6.653   3.387
 9507TIP3   OH228484   0.805   3.212   5.299
 9507TIP3    H128485   0.876   3.185   5.240
 9507TIP3    H228486   0.835   3.294   5.338
 9508TIP3   OH228487   6.088   4.550   1.995
 9508TIP3    H128488   6.105   4.456   1.994
 9508TIP3    H228489   6.098   4.578   1.904
 9509TIP3   OH228490   5.597   4.530   4.734
 9509TIP3    H128491   5.662   4.471   4.695
 9509TIP3    H228492   5.641   4.569   4.809
 9510TIP3   OH228493   5.927   4.947   5.162
 9510TIP3    H128494   5.906   4.872   5.218
 9510TIP3    H228495   5.980   4.910   5.091
 9511TIP3   OH228496   3.091   5.836   2.763
 9511TIP3    H128497   3.038   5.907   2.797
 9511TIP3    H228498   3.053   5.816   2.678
 9512TIP3   OH228499   7.084   2.441   4.706
 9512TIP3    H128500   7.157   2.439   4.645
 9512TIP3    H228501   7.124   2.460   4.791
 9513TIP3   OH228502   3.691   2.999   0.774
 9513TIP3    H128503   3.750   2.957   0.837
 9513TIP3    H228504   3.632   2.929   0.746
 9514TIP3   OH228505   0.073   3.487   3.185
 9514TIP3    H128506   0.084   3.548   3.112
 9514TIP3    H228507  -0.011   3.445   3.169
 9515TIP3   OH228508   4.611   4.544   1.229
 9515TIP3    H128509   4.547   4.539   1.158
 9515TIP3    H228510   4.562   4.582   1.302
 9516TIP3   OH228511   3.409   1.952   2.451
 9516TIP3    H128512   3.408   2.043   2.479
 9516TIP3    H228513   3.501   1.933   2.434
 9517TIP3   OH228514   6.181   5.235   0.342
 9517TIP3    H128515   6.165   5.193   0.257
 9517TIP3    H228516   6.238   5.309   0.321
 9518TIP3   OH228517   6.583   6.374   2.869
 9518TIP3    H128518   6.664   6.386   2.919
 9518TIP3    H228519   6.589   6.436   2.797
 9519TIP3   OH228520   7.139   6.487   0.635
 9519TIP3    H128521   7.117   6.469   0.726
 9519TIP3    H228522   7.227   6.524   0.638
 9520TIP3   OH228523   0.223   0.088   2.785
 9520TIP3    H128524   0.222   0.021   2.854
 9520TIP3    H228525   0.235   0.038   2.704
 9521TIP3   OH228526   1.015   5.580   4.768
 9521TIP3    H128527   0.950   5.571   4.837
 9521TIP3    H228528   1.026   5.492   4.733
 9522TIP3   OH228529   1.798   2.421   4.579
 9522TIP3    H128530   1.858   2.427   4.653
 9522TIP3    H228531   1.787   2.327   4.565
 9523TIP3   OH228532   1.131   0.262   1.922
 9523TIP3    H128533   1.223   0.257   1.896
 9523TIP3    H228534   1.109   0.173   1.950
 9524TIP3   OH228535   1.837   3.131   1.337
 9524TIP3    H128536   1.761   3.189   1.335
 9524TIP3    H228537   1.870   3.137   1.426
 9525TIP3   OH228538   1.757   0.244   2.314
 9525TIP3    H128539   1.836   0.296   2.331
 9525TIP3    H228540   1.767   0.166   2.368
 9526TIP3   OH228541   3.082   4.399   2.685
 9526TIP3    H128542   3.083   4.403   2.781
 9526TIP3    H228543   2.990   4.387   2.662
 9527TIP3   OH228544   5.000   5.626   3.920
 9527TIP3    H128545   5.059   5.702   3.920
 9527TIP3    H228546   4.912   5.664   3.915
 9528TIP3   OH228547   4.997   2.422   4.694
 9528TIP3    H128548   5.029   2.471   4.770
 9528TIP3    H228549   5.032   2.334   4.705
 9529TIP3   OH228550   0.177   0.132   1.759
 9529TIP3    H128551   0.179   0.042   1.790
 9529TIP3    H228552   0.133   0.127   1.674
 9530TIP3   OH228553   4.176   3.963   4.172
 9530TIP3    H128554   4.264   3.961   4.210
 9530TIP3    H228555   4.188   4.003   4.086
 9531TIP3   OH228556   1.627   5.509   4.024
 9531TIP3    H128557   1.620   5.474   4.113
 9531TIP3    H228558   1.631   5.431   3.968
 9532TIP3   OH228559   4.008   4.630   3.025
 9532TIP3    H128560   3.929   4.576   3.030
 9532TIP3    H228561   4.080   4.566   3.024
 9533TIP3   OH228562   3.021   1.701   0.730
 9533TIP3    H128563   2.968   1.680   0.807
 9533TIP3    H228564   2.983   1.782   0.696
 9534TIP3   OH228565   6.068   4.541   0.829
 9534TIP3    H128566   6.154   4.563   0.793
 9534TIP3    H228567   6.033   4.624   0.859
 9535TIP3   OH228568   2.868   6.564   4.841
 9535TIP3    H128569   2.934   6.498   4.820
 9535TIP3    H228570   2.809   6.564   4.766
 9536TIP3   OH228571   1.765   2.612   4.976
 9536TIP3    H128572   1.676   2.580   4.991
 9536TIP3    H228573   1.812   2.593   5.057
 9537TIP3   OH228574   4.722   1.373   2.001
 9537TIP3    H128575   4.753   1.292   2.041
 9537TIP3    H228576   4.641   1.393   2.046
 9538TIP3   OH228577   3.936   6.304   2.333
 9538TIP3    H128578   3.982   6.376   2.290
 9538TIP3    H228579   3.909   6.341   2.417
 9539TIP3   OH228580   0.530   2.988   5.800
 9539TIP3    H128581   0.529   2.964   5.708
 9539TIP3    H228582   0.567   2.912   5.845
 9540TIP3   OH228583   1.782   3.279   3.285
 9540TIP3    H128584   1.769   3.276   3.190
 9540TIP3    H228585   1.839   3.205   3.305
 9541TIP3   OH228586   5.466   6.331   4.105
 9541TIP3    H128587   5.381   6.362   4.136
 9541TIP3    H228588   5.529   6.367   4.166
 9542TIP3   OH228589   3.673   4.005   4.436
 9542TIP3    H128590   3.606   3.939   4.455
 9542TIP3    H228591   3.710   3.979   4.352
 9543TIP3   OH228592   1.640   3.949   4.880
 9543TIP3    H128593   1.571   3.952   4.946
 9543TIP3    H228594   1.705   3.889   4.915
 9544TIP3   OH228595   6.334   6.774   0.590
 9544TIP3    H128596   6.387   6.829   0.532
 9544TIP3    H228597   6.246   6.779   0.552
 9545TIP3   OH228598   1.743   3.426   4.947
 9545TIP3    H128599   1.731   3.430   4.852
 9545TIP3    H228600   1.678   3.485   4.983
 9546TIP3   OH228601   3.303   6.694   1.529
 9546TIP3    H128602   3.379   6.666   1.479
 9546TIP3    H228603   3.230   6.644   1.492
 9547TIP3   OH228604   6.981   2.455   2.246
 9547TIP3    H128605   6.934   2.453   2.330
 9547TIP3    H228606   6.953   2.376   2.200
 9548TIP3   OH228607   2.731   1.158   0.323
 9548TIP3    H128608   2.678   1.086   0.288
 9548TIP3    H228609   2.671   1.232   0.327
 9549TIP3   OH228610   1.614   5.490   1.797
 9549TIP3    H128611   1.588   5.423   1.734
 9549TIP3    H228612   1.647   5.442   1.873
 9550TIP3   OH228613   0.686   5.284   2.763
 9550TIP3    H128614   0.741   5.341   2.816
 9550TIP3    H228615   0.607   5.270   2.815
 9551TIP3   OH228616   5.759   0.413   0.940
 9551TIP3    H128617   5.791   0.396   1.028
 9551TIP3    H228618   5.680   0.360   0.932
 9552TIP3   OH228619   3.068   0.695   5.140
 9552TIP3    H128620   3.098   0.636   5.070
 9552TIP3    H228621   2.973   0.696   5.131
 9553TIP3   OH228622   0.542   0.877   3.329
 9553TIP3    H128623   0.581   0.962   3.307
 9553TIP3    H228624   0.490   0.894   3.407
 9554TIP3   OH228625   6.922   4.279   5.081
 9554TIP3    H128626   7.013   4.298   5.104
 9554TIP3    H228627   6.873   4.355   5.114
 9555TIP3   OH228628   5.305   6.655   0.167
 9555TIP3    H128629   5.260   6.706   0.235
 9555TIP3    H228630   5.350   6.586   0.215
 9556TIP3   OH228631   1.890   0.122   1.014
 9556TIP3    H128632   1.937   0.164   1.086
 9556TIP3    H228633   1.799   0.117   1.045
 9557TIP3   OH228634   6.641   5.852   4.841
 9557TIP3    H128635   6.712   5.788   4.832
 9557TIP3    H228636   6.564   5.799   4.860
 9558TIP3   OH228637   1.230   4.323   2.353
 9558TIP3    H128638   1.191   4.409   2.369
 9558TIP3    H228639   1.236   4.317   2.258
 9559TIP3   OH228640   5.852   0.817   4.044
 9559TIP3    H128641   5.808   0.901   4.060
 9559TIP3    H228642   5.887   0.826   3.956
 9560TIP3   OH228643   4.667   5.423   1.761
 9560TIP3    H128644   4.619   5.477   1.823
 9560TIP3    H228645   4.599   5.382   1.707
 9561TIP3   OH228646   2.065   5.725   1.927
 9561TIP3    H128647   2.039   5.759   1.841
 9561TIP3    H228648   2.081   5.803   1.979
 9562TIP3   OH228649   2.970   1.190   4.010
 9562TIP3    H128650   2.913   1.234   3.947
 9562TIP3    H228651   2.912   1.168   4.083
 9563TIP3   OH228652   1.139   5.610   2.128
 9563TIP3    H128653   1.211   5.555   2.097
 9563TIP3    H228654   1.176   5.698   2.133
 9564TIP3   OH228655   4.507   5.339   5.105
 9564TIP3    H128656   4.444   5.291   5.051
 9564TIP3    H228657   4.570   5.273   5.134
 9565TIP3   OH228658   4.611   2.141   5.109
 9565TIP3    H128659   4.657   2.169   5.188
 9565TIP3    H228660   4.575   2.222   5.072
 9566TIP3   OH228661   1.212   3.442   3.705
 9566TIP3    H128662   1.131   3.461   3.658
 9566TIP3    H228663   1.269   3.401   3.640
 9567TIP3   OH228664   6.252   0.163   4.215
 9567TIP3    H128665   6.166   0.175   4.255
 9567TIP3    H228666   6.313   0.209   4.273
 9568TIP3   OH228667   0.484   1.385   5.156
 9568TIP3    H128668   0.428   1.336   5.217
 9568TIP3    H228669   0.427   1.455   5.123
 9569TIP3   OH228670   2.725   6.738   3.699
 9569TIP3    H128671   2.754   6.829   3.692
 9569TIP3    H228672   2.629   6.744   3.698
 9570TIP3   OH228673   0.221   2.355   1.867
 9570TIP3    H128674   0.205   2.263   1.887
 9570TIP3    H228675   0.195   2.365   1.776
 9571TIP3   OH228676   5.156   4.267   3.921
 9571TIP3    H128677   5.228   4.294   3.864
 9571TIP3    H228678   5.159   4.171   3.920
 9572TIP3   OH228679   1.521   3.137   1.253
 9572TIP3    H128680   1.481   3.061   1.211
 9572TIP3    H228681   1.451   3.175   1.305
 9573TIP3   OH228682   1.826   0.476   0.578
 9573TIP3    H128683   1.733   0.495   0.589
 9573TIP3    H228684   1.863   0.488   0.666
 9574TIP3   OH228685   4.657   5.022   4.826
 9574TIP3    H128686   4.613   4.939   4.807
 9574TIP3    H228687   4.591   5.089   4.807
 9575TIP3   OH228688   6.365   1.627   3.046
 9575TIP3    H128689   6.405   1.711   3.020
 9575TIP3    H228690   6.418   1.561   3.002
 9576TIP3   OH228691   0.483   1.711   4.593
 9576TIP3    H128692   0.572   1.726   4.626
 9576TIP3    H228693   0.450   1.638   4.645
 9577TIP3   OH228694   2.321   4.958   2.953
 9577TIP3    H128695   2.327   5.043   2.909
 9577TIP3    H228696   2.314   4.980   3.046
 9578TIP3   OH228697   2.519   6.535   1.696
 9578TIP3    H128698   2.613   6.521   1.705
 9578TIP3    H228699   2.482   6.511   1.781
 9579TIP3   OH228700   1.447   4.273   3.622
 9579TIP3    H128701   1.471   4.329   3.696
 9579TIP3    H228702   1.420   4.190   3.662
 9580TIP3   OH228703   1.910   3.964   2.319
 9580TIP3    H128704   1.814   3.968   2.316
 9580TIP3    H228705   1.929   3.870   2.317
 9581TIP3   OH228706   0.231   2.134   4.482
 9581TIP3    H128707   0.249   2.225   4.505
 9581TIP3    H228708   0.226   2.133   4.387
 9582TIP3   OH228709   4.712   0.304   5.654
 9582TIP3    H128710   4.793   0.329   5.611
 9582TIP3    H228711   4.681   0.385   5.695
 9583TIP3   OH228712   3.805   6.410   1.921
 9583TIP3    H128713   3.891   6.432   1.886
 9583TIP3    H228714   3.817   6.409   2.016
 9584TIP3   OH228715   5.597   6.701   5.663
 9584TIP3    H128716   5.528   6.721   5.599
 9584TIP3    H228717   5.676   6.736   5.622
 9585TIP3   OH228718   3.241   0.576   2.455
 9585TIP3    H128719   3.188   0.644   2.499
 9585TIP3    H228720   3.331   0.606   2.466
 9586TIP3   OH228721   6.580   3.047   5.363
 9586TIP3    H128722   6.668   3.084   5.362
 9586TIP3    H228723   6.527   3.109   5.312
 9587TIP3   OH228724   3.851   2.338   0.173
 9587TIP3    H128725   3.874   2.414   0.227
 9587TIP3    H228726   3.913   2.271   0.198
 9588TIP3   OH228727   6.880   4.772   3.761
 9588TIP3    H128728   6.819   4.833   3.803
 9588TIP3    H228729   6.833   4.737   3.686
 9589TIP3   OH228730   2.288   1.455   3.730
 9589TIP3    H128731   2.283   1.513   3.807
 9589TIP3    H228732   2.237   1.500   3.663
 9590TIP3   OH228733   4.397   6.063   3.801
 9590TIP3    H128734   4.316   6.066   3.750
 9590TIP3    H228735   4.368   6.050   3.891
 9591TIP3   OH228736   1.335   5.387   1.231
 9591TIP3    H128737   1.258   5.427   1.271
 9591TIP3    H228738   1.371   5.329   1.298
 9592TIP3   OH228739   4.432   2.432   3.328
 9592TIP3    H128740   4.483   2.378   3.267
 9592TIP3    H228741   4.341   2.413   3.305
 9593TIP3   OH228742   4.435   0.734   3.019
 9593TIP3    H128743   4.439   0.789   2.941
 9593TIP3    H228744   4.341   0.716   3.030
 9594TIP3   OH228745   1.838   2.929   5.337
 9594TIP3    H128746   1.823   2.978   5.255
 9594TIP3    H228747   1.774   2.858   5.334
 9595TIP3   OH228748   3.090   3.328   2.425
 9595TIP3    H128749   3.104   3.420   2.448
 9595TIP3    H228750   3.056   3.330   2.336
 9596TIP3   OH228751   4.615   4.205   1.756
 9596TIP3    H128752   4.563   4.278   1.790
 9596TIP3    H228753   4.631   4.228   1.664
 9597TIP3   OH228754   4.381   6.543   3.952
 9597TIP3    H128755   4.432   6.615   3.990
 9597TIP3    H228756   4.441   6.503   3.889
 9598TIP3   OH228757   4.555   6.365   2.828
 9598TIP3    H128758   4.488   6.375   2.760
 9598TIP3    H228759   4.507   6.369   2.910
 9599TIP3   OH228760   6.843   4.465   5.414
 9599TIP3    H128761   6.771   4.438   5.356
 9599TIP3    H228762   6.883   4.539   5.369
 9600TIP3   OH228763   0.467   6.593   0.744
 9600TIP3    H128764   0.532   6.644   0.695
 9600TIP3    H228765   0.520   6.534   0.799
 9601TIP3   OH228766   5.207   4.724   3.408
 9601TIP3    H128767   5.199   4.722   3.504
 9601TIP3    H228768   5.144   4.659   3.377
 9602TIP3   OH228769   4.261   4.625   1.857
 9602TIP3    H128770   4.218   4.709   1.842
 9602TIP3    H228771   4.289   4.629   1.949
 9603TIP3   OH228772  -0.004   6.863   4.652
 9603TIP3    H128773   0.059   6.811   4.701
 9603TIP3    H228774  -0.006   6.823   4.565
 9604TIP3   OH228775   6.350   1.406   2.759
 9604TIP3    H128776   6.286   1.468   2.794
 9604TIP3    H228777   6.414   1.394   2.829
 9605TIP3   OH228778   1.330   5.512   2.916
 9605TIP3    H128779   1.375   5.470   2.843
 9605TIP3    H228780   1.395   5.570   2.954
 9606TIP3   OH228781   5.835   5.677   4.586
 9606TIP3    H128782   5.779   5.722   4.524
 9606TIP3    H228783   5.923   5.687   4.550
 9607TIP3   OH228784   3.619   6.061   2.141
 9607TIP3    H128785   3.701   6.107   2.160
 9607TIP3    H228786   3.630   5.975   2.179
 9608TIP3   OH228787   2.821   4.293   2.712
 9608TIP3    H128788   2.751   4.357   2.697
 9608TIP3    H228789   2.812   4.269   2.804
 9609TIP3   OH228790   6.457   1.151   0.379
 9609TIP3    H128791   6.427   1.148   0.288
 9609TIP3    H228792   6.425   1.234   0.413
 9610TIP3   OH228793   1.562   5.021   1.248
 9610TIP3    H128794   1.540   5.038   1.156
 9610TIP3    H228795   1.657   5.008   1.247
 9611TIP3   OH228796   6.725   5.974   5.449
 9611TIP3    H128797   6.716   5.967   5.354
 9611TIP3    H228798   6.657   5.917   5.484
 9612TIP3   OH228799   2.277   2.542   5.244
 9612TIP3    H128800   2.272   2.636   5.263
 9612TIP3    H228801   2.354   2.512   5.292
 9613TIP3   OH228802   5.196   1.125   0.132
 9613TIP3    H128803   5.148   1.208   0.127
 9613TIP3    H228804   5.287   1.151   0.144
 9614TIP3   OH228805   4.904   5.408   1.252
 9614TIP3    H128806   4.907   5.481   1.313
 9614TIP3    H228807   4.812   5.382   1.249
 9615TIP3   OH228808   0.161   4.608   2.844
 9615TIP3    H128809   0.237   4.565   2.805
 9615TIP3    H228810   0.195   4.687   2.885
 9616TIP3   OH228811   2.797   2.324   1.520
 9616TIP3    H128812   2.776   2.376   1.443
 9616TIP3    H228813   2.871   2.269   1.493
 9617TIP3   OH228814   0.763   6.491   2.417
 9617TIP3    H128815   0.778   6.449   2.502
 9617TIP3    H228816   0.828   6.451   2.359
 9618TIP3   OH228817   0.934   4.860   5.919
 9618TIP3    H128818   1.020   4.845   5.878
 9618TIP3    H228819   0.871   4.822   5.858
 9619TIP3   OH228820   2.128   4.126   4.047
 9619TIP3    H128821   2.092   4.130   4.135
 9619TIP3    H228822   2.126   4.217   4.016
 9620TIP3   OH228823   1.878   0.804   5.500
 9620TIP3    H128824   1.873   0.891   5.540
 9620TIP3    H228825   1.951   0.761   5.544
 9621TIP3   OH228826   5.958   3.773   4.782
 9621TIP3    H128827   5.906   3.696   4.757
 9621TIP3    H228828   5.893   3.836   4.814
 9622TIP3   OH228829   0.786   0.990   3.716
 9622TIP3    H128830   0.869   0.963   3.755
 9622TIP3    H228831   0.802   1.079   3.685
 9623TIP3   OH228832   5.377   4.045   3.002
 9623TIP3    H128833   5.357   4.019   2.912
 9623TIP3    H228834   5.335   4.131   3.012
 9624TIP3   OH228835   6.736   5.808   1.708
 9624TIP3    H128836   6.644   5.831   1.723
 9624TIP3    H228837   6.749   5.822   1.614
 9625TIP3   OH228838   4.842   4.611   0.584
 9625TIP3    H128839   4.910   4.581   0.524
 9625TIP3    H228840   4.833   4.541   0.648
 9626TIP3   OH228841   6.295   3.317   3.767
 9626TIP3    H128842   6.368   3.256   3.751
 9626TIP3    H228843   6.332   3.383   3.826
 9627TIP3   OH228844   7.024   5.941   3.799
 9627TIP3    H128845   7.001   5.963   3.709
 9627TIP3    H228846   6.939   5.933   3.843
 9628TIP3   OH228847   2.114   6.764   0.036
 9628TIP3    H128848   2.110   6.767   0.132
 9628TIP3    H228849   2.084   6.851   0.008
 9629TIP3   OH228850   0.863   1.131   2.175
 9629TIP3    H128851   0.846   1.222   2.201
 9629TIP3    H228852   0.815   1.120   2.094
 9630TIP3   OH228853   2.986   5.236   2.581
 9630TIP3    H128854   3.068   5.187   2.592
 9630TIP3    H228855   3.013   5.328   2.582
 9631TIP3   OH228856   6.926   2.673   5.311
 9631TIP3    H128857   6.979   2.625   5.247
 9631TIP3    H228858   6.838   2.636   5.301
 9632TIP3   OH228859   3.024   6.517   1.162
 9632TIP3    H128860   3.014   6.462   1.083
 9632TIP3    H228861   3.098   6.575   1.141
 9633TIP3   OH228862   3.790   2.565   0.758
 9633TIP3    H128863   3.870   2.617   0.767
 9633TIP3    H228864   3.814   2.478   0.789
 9634TIP3   OH228865   4.407   2.671   3.210
 9634TIP3    H128866   4.422   2.606   3.279
 9634TIP3    H228867   4.393   2.753   3.257
 9635TIP3   OH228868   4.446   1.198   4.679
 9635TIP3    H128869   4.438   1.158   4.766
 9635TIP3    H228870   4.509   1.141   4.633
 9636TIP3   OH228871   4.186   4.910   3.710
 9636TIP3    H128872   4.139   4.875   3.634
 9636TIP3    H228873   4.180   4.840   3.775
 9637TIP3   OH228874   2.282   2.266   4.772
 9637TIP3    H128875   2.318   2.354   4.771
 9637TIP3    H228876   2.302   2.231   4.685
 9638TIP3   OH228877   1.983   0.272   1.535
 9638TIP3    H128878   2.038   0.202   1.570
 9638TIP3    H228879   2.040   0.321   1.476
 9639TIP3   OH228880   0.312   5.897   3.118
 9639TIP3    H128881   0.378   5.828   3.127
 9639TIP3    H228882   0.260   5.890   3.198
 9640TIP3   OH228883   0.357   0.824   5.180
 9640TIP3    H128884   0.426   0.793   5.238
 9640TIP3    H228885   0.343   0.752   5.119
 9641TIP3   OH228886   6.583   1.400   4.393
 9641TIP3    H128887   6.643   1.469   4.364
 9641TIP3    H228888   6.620   1.319   4.357
 9642TIP3   OH228889   2.694   3.125   0.215
 9642TIP3    H128890   2.778   3.130   0.169
 9642TIP3    H228891   2.630   3.156   0.151
 9643TIP3   OH228892   0.336   6.619   5.303
 9643TIP3    H128893   0.385   6.695   5.335
 9643TIP3    H228894   0.261   6.658   5.256
 9644TIP3   OH228895   3.242   0.487   1.028
 9644TIP3    H128896   3.180   0.437   0.975
 9644TIP3    H228897   3.204   0.575   1.032
 9645TIP3   OH228898   2.605   2.866   0.259
 9645TIP3    H128899   2.623   2.853   0.166
 9645TIP3    H228900   2.653   2.945   0.283
 9646TIP3   OH228901   3.489   4.305   3.880
 9646TIP3    H128902   3.450   4.388   3.853
 9646TIP3    H228903   3.525   4.322   3.967
 9647TIP3   OH228904   2.028   3.660   4.790
 9647TIP3    H128905   1.993   3.719   4.723
 9647TIP3    H228906   2.012   3.572   4.755
 9648TIP3   OH228907   5.764   2.212   2.401
 9648TIP3    H128908   5.688   2.162   2.429
 9648TIP3    H228909   5.780   2.183   2.311
 9649TIP3   OH228910   5.747   4.010   2.927
 9649TIP3    H128911   5.688   3.948   2.883
 9649TIP3    H228912   5.695   4.044   3.000
 9650TIP3   OH228913   1.057   5.223   1.771
 9650TIP3    H128914   1.147   5.237   1.798
 9650TIP3    H228915   1.054   5.253   1.680
 9651TIP3   OH228916   4.877   6.434   0.148
 9651TIP3    H128917   4.898   6.473   0.233
 9651TIP3    H228918   4.791   6.469   0.126
 9652TIP3   OH228919   4.664   2.399   0.947
 9652TIP3    H128920   4.643   2.312   0.912
 9652TIP3    H228921   4.753   2.416   0.918
 9653TIP3   OH228922   0.249   4.237   1.594
 9653TIP3    H128923   0.276   4.327   1.610
 9653TIP3    H228924   0.329   4.186   1.606
 9654TIP3   OH228925   6.810   5.830   1.972
 9654TIP3    H128926   6.723   5.808   2.006
 9654TIP3    H228927   6.803   5.816   1.877
 9655TIP3   OH228928   3.353   1.669   3.971
 9655TIP3    H128929   3.270   1.716   3.987
 9655TIP3    H228930   3.327   1.591   3.923
 9656TIP3   OH228931   1.224   0.844   2.569
 9656TIP3    H128932   1.188   0.779   2.510
 9656TIP3    H228933   1.197   0.815   2.656
 9657TIP3   OH228934   2.856   5.192   2.322
 9657TIP3    H128935   2.863   5.238   2.238
 9657TIP3    H228936   2.939   5.211   2.366
 9658TIP3   OH228937   6.696   5.569   4.520
 9658TIP3    H128938   6.791   5.559   4.514
 9658TIP3    H228939   6.678   5.657   4.487
 9659TIP3   OH228940   1.459   6.443   3.894
 9659TIP3    H128941   1.548   6.410   3.881
 9659TIP3    H228942   1.441   6.495   3.816
 9660TIP3   OH228943   5.584   3.402   1.153
 9660TIP3    H128944   5.609   3.328   1.097
 9660TIP3    H228945   5.511   3.443   1.106
 9661TIP3   OH228946   0.127   1.269   4.008
 9661TIP3    H128947   0.098   1.354   4.040
 9661TIP3    H228948   0.157   1.223   4.086
 9662TIP3   OH228949   2.524   0.512   0.050
 9662TIP3    H128950   2.581   0.469   0.113
 9662TIP3    H228951   2.474   0.575   0.102
 9663TIP3   OH228952   0.121   0.503   0.436
 9663TIP3    H128953   0.181   0.577   0.435
 9663TIP3    H228954   0.170   0.433   0.479
 9664TIP3   OH228955   0.648   5.808   5.344
 9664TIP3    H128956   0.603   5.840   5.266
 9664TIP3    H228957   0.580   5.801   5.410
 9665TIP3   OH228958   3.671   3.645   0.933
 9665TIP3    H128959   3.585   3.651   0.892
 9665TIP3    H228960   3.722   3.589   0.874
 9666TIP3   OH228961   4.403   5.755   4.113
 9666TIP3    H128962   4.415   5.660   4.112
 9666TIP3    H228963   4.389   5.776   4.206
 9667TIP3   OH228964   5.811   6.287   2.077
 9667TIP3    H128965   5.846   6.212   2.125
 9667TIP3    H228966   5.725   6.258   2.046
 9668TIP3   OH228967   1.351   6.091   1.433
 9668TIP3    H128968   1.440   6.127   1.424
 9668TIP3    H228969   1.324   6.074   1.343
 9669TIP3   OH228970   1.495   5.394   4.257
 9669TIP3    H128971   1.438   5.470   4.263
 9669TIP3    H228972   1.540   5.391   4.341
 9670TIP3   OH228973   3.540   0.573   4.543
 9670TIP3    H128974   3.507   0.527   4.620
 9670TIP3    H228975   3.473   0.639   4.525
 9671TIP3   OH228976   6.661   6.702   4.394
 9671TIP3    H128977   6.704   6.755   4.328
 9671TIP3    H228978   6.687   6.742   4.477
 9672TIP3   OH228979   5.702   3.606   5.188
 9672TIP3    H128980   5.631   3.609   5.124
 9672TIP3    H228981   5.764   3.672   5.158
 9673TIP3   OH228982   2.281   2.394   1.743
 9673TIP3    H128983   2.272   2.321   1.804
 9673TIP3    H228984   2.320   2.356   1.664
 9674TIP3   OH228985   4.714   3.692   0.971
 9674TIP3    H128986   4.791   3.644   0.940
 9674TIP3    H228987   4.750   3.768   1.017
 9675TIP3   OH228988   4.964   0.850   2.816
 9675TIP3    H128989   4.978   0.843   2.910
 9675TIP3    H228990   4.929   0.938   2.803
 9676TIP3   OH228991   2.087   3.832   0.255
 9676TIP3    H128992   2.108   3.796   0.169
 9676TIP3    H228993   1.996   3.807   0.270
 9677TIP3   OH228994   1.231   3.054   4.897
 9677TIP3    H128995   1.243   3.112   4.822
 9677TIP3    H228996   1.195   3.110   4.966
 9678TIP3   OH228997   6.646   3.259   1.813
 9678TIP3    H128998   6.645   3.188   1.749
 9678TIP3    H228999   6.629   3.338   1.762
 9679TIP3   OH229000   2.681   1.347   1.081
 9679TIP3    H129001   2.775   1.334   1.071
 9679TIP3    H229002   2.652   1.377   0.996
 9680TIP3   OH229003   0.205   4.026   3.561
 9680TIP3    H129004   0.161   3.955   3.513
 9680TIP3    H229005   0.165   4.024   3.648
 9681TIP3   OH229006   2.810   2.325   1.960
 9681TIP3    H129007   2.751   2.258   1.995
 9681TIP3    H229008   2.753   2.396   1.932
 9682TIP3   OH229009   4.320   3.733   5.288
 9682TIP3    H129010   4.404   3.695   5.261
 9682TIP3    H229011   4.254   3.673   5.253
 9683TIP3   OH229012   5.689   2.373   3.964
 9683TIP3    H129013   5.733   2.439   4.016
 9683TIP3    H229014   5.725   2.290   3.995
 9684TIP3   OH229015   1.330   3.224   0.686
 9684TIP3    H129016   1.370   3.185   0.609
 9684TIP3    H229017   1.403   3.266   0.732
 9685TIP3   OH229018   4.071   5.378   0.384
 9685TIP3    H129019   4.098   5.393   0.474
 9685TIP3    H229020   4.129   5.433   0.332
 9686TIP3   OH229021   4.055   1.119   0.937
 9686TIP3    H129022   4.140   1.152   0.909
 9686TIP3    H229023   4.073   1.076   1.021
 9687TIP3   OH229024   0.387   2.831   4.142
 9687TIP3    H129025   0.427   2.767   4.201
 9687TIP3    H229026   0.319   2.873   4.195
 9688TIP3   OH229027   3.926   5.996   1.929
 9688TIP3    H129028   3.927   6.016   2.022
 9688TIP3    H229029   4.018   5.986   1.905
 9689TIP3   OH229030   2.425   4.370   1.074
 9689TIP3    H129031   2.428   4.445   1.133
 9689TIP3    H229032   2.420   4.408   0.986
 9690TIP3   OH229033   6.450   0.349   1.128
 9690TIP3    H129034   6.411   0.374   1.212
 9690TIP3    H229035   6.544   0.362   1.140
 9691TIP3   OH229036   7.122   1.142   5.535
 9691TIP3    H129037   7.178   1.145   5.457
 9691TIP3    H229038   7.165   1.078   5.592
 9692TIP3   OH229039   3.468   1.682   4.494
 9692TIP3    H129040   3.403   1.664   4.427
 9692TIP3    H229041   3.418   1.691   4.575
 9693TIP3   OH229042   3.521   6.652   2.861
 9693TIP3    H129043   3.561   6.697   2.787
 9693TIP3    H229044   3.591   6.594   2.894
 9694TIP3   OH229045   3.458   3.856   3.729
 9694TIP3    H129046   3.554   3.858   3.720
 9694TIP3    H229047   3.435   3.944   3.757
 9695TIP3   OH229048   5.735   4.735   0.480
 9695TIP3    H129049   5.709   4.682   0.555
 9695TIP3    H229050   5.691   4.819   0.493
 9696TIP3   OH229051   5.400   5.980   4.764
 9696TIP3    H129052   5.437   5.985   4.852
 9696TIP3    H229053   5.311   5.947   4.777
 9697TIP3   OH229054   2.037   6.195   0.513
 9697TIP3    H129055   2.116   6.181   0.566
 9697TIP3    H229056   2.059   6.157   0.428
 9698TIP3   OH229057   4.061   0.356   3.851
 9698TIP3    H129058   4.003   0.327   3.781
 9698TIP3    H229059   4.146   0.370   3.808
 9699TIP3   OH229060   1.471   3.339   2.724
 9699TIP3    H129061   1.472   3.310   2.633
 9699TIP3    H229062   1.469   3.258   2.775
 9700TIP3   OH229063   2.335   3.540   4.016
 9700TIP3    H129064   2.331   3.600   4.091
 9700TIP3    H229065   2.244   3.512   4.004
 9701TIP3   OH229066   7.104   0.349   3.608
 9701TIP3    H129067   7.010   0.356   3.591
 9701TIP3    H229068   7.111   0.335   3.702
 9702TIP3   OH229069   3.297   1.079   4.625
 9702TIP3    H129070   3.389   1.077   4.652
 9702TIP3    H229071   3.300   1.090   4.530
 9703TIP3   OH229072   1.456   1.222   5.171
 9703TIP3    H129073   1.470   1.188   5.082
 9703TIP3    H229074   1.420   1.148   5.220
 9704TIP3   OH229075   3.032   0.551   0.290
 9704TIP3    H129076   2.950   0.593   0.314
 9704TIP3    H229077   3.100   0.605   0.331
 9705TIP3   OH229078   1.670   2.061   1.966
 9705TIP3    H129079   1.731   2.135   1.966
 9705TIP3    H229080   1.675   2.026   2.055
 9706TIP3   OH229081   6.627   1.471   5.508
 9706TIP3    H129082   6.567   1.519   5.566
 9706TIP3    H229083   6.613   1.511   5.422
 9707TIP3   OH229084   3.572   2.059   3.406
 9707TIP3    H129085   3.546   2.147   3.433
 9707TIP3    H229086   3.592   2.014   3.488
 9708TIP3   OH229087   2.370   6.792   3.438
 9708TIP3    H129088   2.452   6.817   3.395
 9708TIP3    H229089   2.362   6.852   3.511
 9709TIP3   OH229090   1.155   6.114   4.993
 9709TIP3    H129091   1.098   6.039   4.979
 9709TIP3    H229092   1.244   6.078   4.988
 9710TIP3   OH229093   1.154   5.785   3.180
 9710TIP3    H129094   1.070   5.827   3.200
 9710TIP3    H229095   1.207   5.798   3.259
 9711TIP3   OH229096   0.736   1.619   0.605
 9711TIP3    H129097   0.733   1.709   0.638
 9711TIP3    H229098   0.705   1.625   0.515
 9712TIP3   OH229099   7.217   1.250   5.020
 9712TIP3    H129100   7.213   1.272   5.113
 9712TIP3    H229101   7.129   1.220   4.999
 9713TIP3   OH229102   6.390   1.161   1.022
 9713TIP3    H129103   6.334   1.083   1.020
 9713TIP3    H229104   6.459   1.140   1.084
 9714TIP3   OH229105   5.958   1.112   4.354
 9714TIP3    H129106   6.015   1.103   4.278
 9714TIP3    H229107   5.934   1.023   4.378
 9715TIP3   OH229108   6.809   2.383   1.245
 9715TIP3    H129109   6.739   2.448   1.235
 9715TIP3    H229110   6.857   2.387   1.162
 9716TIP3   OH229111   4.000   5.886   0.289
 9716TIP3    H129112   4.080   5.845   0.323
 9716TIP3    H229113   3.936   5.815   0.286
 9717TIP3   OH229114   4.647   5.106   3.148
 9717TIP3    H129115   4.721   5.110   3.207
 9717TIP3    H229116   4.572   5.084   3.204
 9718TIP3   OH229117   3.060   3.379   3.306
 9718TIP3    H129118   3.010   3.329   3.371
 9718TIP3    H229119   2.996   3.404   3.240
 9719TIP3   OH229120   2.147   4.516   0.243
 9719TIP3    H129121   2.155   4.608   0.218
 9719TIP3    H229122   2.068   4.513   0.296
 9720TIP3   OH229123   6.410   5.605   4.180
 9720TIP3    H129124   6.446   5.533   4.128
 9720TIP3    H229125   6.349   5.563   4.240
 9721TIP3   OH229126   1.242   1.274   5.923
 9721TIP3    H129127   1.225   1.180   5.918
 9721TIP3    H229128   1.241   1.304   5.832
 9722TIP3   OH229129   6.649   5.564   5.696
 9722TIP3    H129130   6.720   5.605   5.646
 9722TIP3    H229131   6.674   5.472   5.701
 9723TIP3   OH229132   0.841   3.514   3.882
 9723TIP3    H129133   0.851   3.590   3.823
 9723TIP3    H229134   0.748   3.493   3.879
 9724TIP3   OH229135   7.025   1.791   4.470
 9724TIP3    H129136   7.054   1.807   4.380
 9724TIP3    H229137   7.106   1.796   4.521
 9725TIP3   OH229138   5.091   5.724   0.632
 9725TIP3    H129139   5.100   5.656   0.699
 9725TIP3    H229140   5.005   5.763   0.648
 9726TIP3   OH229141   4.611   1.000   1.523
 9726TIP3    H129142   4.523   0.982   1.490
 9726TIP3    H229143   4.664   0.928   1.490
 9727TIP3   OH229144   2.579   4.050   3.105
 9727TIP3    H129145   2.659   3.997   3.098
 9727TIP3    H229146   2.591   4.100   3.185
 9728TIP3   OH229147   0.161   6.725   1.140
 9728TIP3    H129148   0.244   6.744   1.095
 9728TIP3    H229149   0.097   6.716   1.069
 9729TIP3   OH229150   5.526   4.310   5.900
 9729TIP3    H129151   5.466   4.349   5.964
 9729TIP3    H229152   5.502   4.351   5.817
 9730TIP3   OH229153   2.889   3.854   2.025
 9730TIP3    H129154   2.888   3.949   2.016
 9730TIP3    H229155   2.948   3.837   2.098
 9731TIP3   OH229156   1.547   1.737   3.089
 9731TIP3    H129157   1.456   1.711   3.082
 9731TIP3    H229158   1.596   1.654   3.093
 9732TIP3   OH229159   2.049   6.709   3.934
 9732TIP3    H129160   2.052   6.748   3.846
 9732TIP3    H229161   2.072   6.781   3.992
 9733TIP3   OH229162   6.971   0.399   2.410
 9733TIP3    H129163   6.986   0.458   2.484
 9733TIP3    H229164   7.045   0.415   2.352
 9734TIP3   OH229165   6.912   2.758   3.501
 9734TIP3    H129166   6.997   2.789   3.470
 9734TIP3    H229167   6.866   2.731   3.421
 9735TIP3   OH229168   6.602   6.522   2.660
 9735TIP3    H129169   6.570   6.520   2.569
 9735TIP3    H229170   6.543   6.584   2.704
 9736TIP3   OH229171   5.178   3.053   4.833
 9736TIP3    H129172   5.088   3.078   4.813
 9736TIP3    H229173   5.179   2.958   4.822
 9737TIP3   OH229174   6.542   2.310   5.604
 9737TIP3    H129175   6.483   2.383   5.585
 9737TIP3    H229176   6.564   2.320   5.696
 9738TIP3   OH229177   1.851   5.668   0.908
 9738TIP3    H129178   1.792   5.687   0.980
 9738TIP3    H229179   1.796   5.626   0.842
 9739TIP3   OH229180   6.703   3.243   0.223
 9739TIP3    H129181   6.766   3.188   0.269
 9739TIP3    H229182   6.705   3.212   0.132
 9740TIP3   OH229183   5.535   4.959   4.903
 9740TIP3    H129184   5.608   4.899   4.887
 9740TIP3    H229185   5.467   4.903   4.942
 9741TIP3   OH229186   7.211   2.984   3.783
 9741TIP3    H129187   7.125   2.944   3.769
 9741TIP3    H229188   7.223   2.984   3.878
 9742TIP3   OH229189   2.042   2.475   4.152
 9742TIP3    H129190   2.124   2.523   4.138
 9742TIP3    H229191   1.979   2.542   4.179
 9743TIP3   OH229192   4.112   1.421   2.628
 9743TIP3    H129193   4.136   1.358   2.697
 9743TIP3    H229194   4.069   1.368   2.561
 9744TIP3   OH229195   4.559   0.866   2.250
 9744TIP3    H129196   4.481   0.899   2.204
 9744TIP3    H229197   4.566   0.775   2.221
 9745TIP3   OH229198   5.523   0.458   4.904
 9745TIP3    H129199   5.545   0.546   4.874
 9745TIP3    H229200   5.533   0.462   4.999
 9746TIP3   OH229201   6.372   4.426   2.018
 9746TIP3    H129202   6.394   4.499   2.074
 9746TIP3    H229203   6.386   4.458   1.929
 9747TIP3   OH229204   0.949   4.591   2.999
 9747TIP3    H129205   0.939   4.607   3.093
 9747TIP3    H229206   0.999   4.666   2.967
 9748TIP3   OH229207   3.864   6.127   5.837
 9748TIP3    H129208   3.831   6.217   5.832
 9748TIP3    H229209   3.811   6.079   5.773
 9749TIP3   OH229210   1.746   5.835   1.996
 9749TIP3    H129211   1.774   5.867   1.911
 9749TIP3    H229212   1.667   5.783   1.979
   7.21675   6.80403   5.89245   0.00000   0.00000  -2.40559   0.00000  -2.40559  -3.40201
